POPC bilayer and 5FIBZ with EP hydrated
34138
    1PA    C116    1   2.548   2.567   3.630  0.2461  0.0719 -0.4366
    1PA    H16R    2   2.566   2.532   3.528  1.5785 -2.0495  0.4612
    1PA    H16S    3   2.532   2.674   3.617 -0.5638 -0.0731 -0.7137
    1PA    H16T    4   2.463   2.514   3.673 -0.1617  0.2434 -1.0197
    1PA    C115    5   2.675   2.535   3.709 -0.1144 -0.1040  0.0727
    1PA    H15R    6   2.657   2.574   3.809 -3.4815 -1.9297  0.3340
    1PA    H15S    7   2.670   2.430   3.739  0.5553  0.4969  2.5752
    1PA    C114    8   2.802   2.570   3.630 -0.0849 -0.5123 -0.0680
    1PA    H14R    9   2.798   2.542   3.525 -2.1079  0.7898 -0.3901
    1PA    H14S   10   2.809   2.679   3.623 -3.8770 -0.1446 -0.3008
    1PA    C113   11   2.934   2.534   3.700  0.3087  0.0752 -0.4949
    1PA    H13R   12   3.021   2.581   3.654  1.2061  0.3280  1.3475
    1PA    H13S   13   2.938   2.584   3.797 -1.1118  1.9411 -1.3408
    1PA    C112   14   2.952   2.383   3.720  0.4843  0.1598  0.0045
    1PA    H12R   15   2.867   2.347   3.779  0.0020 -1.4476 -1.6018
    1PA    H12S   16   2.954   2.331   3.624 -1.3169 -0.3811  0.2150
    1PA    C111   17   3.075   2.355   3.807  0.0810 -0.0297  0.5206
    1PA    H11R   18   3.165   2.371   3.748 -0.8658  0.0181 -0.9429
    1PA    H11S   19   3.088   2.426   3.889  0.4017 -0.9473  1.2850
    1PA    C110   20   3.068   2.212   3.863 -0.2768 -0.1055  0.2830
    1PA    H10R   21   2.965   2.193   3.894 -1.0292 -0.8535 -2.4352
    1PA    H10S   22   3.093   2.144   3.782  0.5751  0.9201 -0.3463
    1PA     C19   23   3.165   2.189   3.980  0.7669  0.1578 -0.5132
    1PA     H9R   24   3.268   2.199   3.944  1.5116  0.9665  1.6990
    1PA     H9S   25   3.159   2.275   4.046  3.5607  0.8487 -1.0087
    1PA     C18   26   3.142   2.056   4.053 -0.0176  0.5878  0.0354
    1PA     H8R   27   3.039   2.043   4.089  0.3977  0.0272  1.0500
    1PA     H8S   28   3.160   1.972   3.985  2.1735  2.1189 -1.3732
    1PA     C17   29   3.227   2.042   4.179 -0.2649  0.1660  0.1604
    1PA     H7R   30   3.239   1.939   4.212 -1.8998 -0.3884 -0.8963
    1PA     H7S   31   3.327   2.073   4.148  0.3553 -1.0518  0.8747
    1PA     C16   32   3.172   2.131   4.292  0.0291  0.2041  0.2760
    1PA     H6R   33   3.154   2.234   4.259 -1.4582 -0.4520 -1.1058
    1PA     H6S   34   3.077   2.089   4.326  0.9605 -0.4935  2.1376
    1PA     C15   35   3.265   2.126   4.414  0.0984 -0.4249  0.2038
    1PA     H5R   36   3.291   2.024   4.441 -1.9361 -0.8823  0.5437
    1PA     H5S   37   3.356   2.178   4.380  0.8124 -0.8909  1.3698
    1PA     C14   38   3.212   2.202   4.536  0.4103  0.0881  0.0254
    1PA     H4R   39   3.198   2.301   4.490  1.3103 -0.6744 -2.0294
    1PA     H4S   40   3.115   2.160   4.564 -0.8208  1.2885 -2.1446
    1PA     C13   41   3.314   2.198   4.650  0.1806 -0.0338  0.2269
    1PA     H3R   42   3.341   2.095   4.674  0.4311  0.0471  0.2871
    1PA     H3S   43   3.409   2.235   4.612 -0.6067  0.3618 -1.4105
    1PA     C12   44   3.255   2.280   4.766  0.0529 -0.0606  0.1813
    1PA     H2R   45   3.233   2.386   4.754 -2.2652 -0.2908  1.6607
    1PA     H2S   46   3.157   2.239   4.789 -0.4256  1.3965  0.8690
    2PC     C11   47   3.333   2.258   4.894 -0.0436  0.0498  0.2581
    2PC     O12   48   3.378   2.151   4.927  0.1853  0.0837  0.0590
    2PC     O11   49   3.340   2.370   4.969 -0.1508  0.0919  0.2059
    2PC      C1   50   3.419   2.362   5.089 -0.1535 -0.3242  0.1824
    2PC      HR   51   3.397   2.282   5.160  1.0073 -1.4492 -0.6987
    2PC      HS   52   3.524   2.349   5.063 -0.6666 -1.6757 -1.3850
    2PC      C2   53   3.415   2.497   5.162 -0.5124 -0.2340 -0.0011
    2PC      HX   54   3.454   2.481   5.263  1.8085 -3.7910 -1.2870
    2PC      C3   55   3.272   2.546   5.189 -0.6096 -0.5167  0.0039
    2PC      HA   56   3.244   2.624   5.118  0.6184 -0.1043 -0.0489
    2PC      HB   57   3.197   2.467   5.203 -1.7702  0.9244  2.6390
    2PC     O31   58   3.273   2.628   5.307  0.3656 -0.2358 -0.1968
    2PC     P31   59   3.215   2.576   5.447  0.3890  0.5064  0.0946
    2PC     O32   60   3.330   2.471   5.483 -0.2498 -0.2833 -0.1393
    2PC     C31   61   3.307   2.333   5.448 -0.1203 -0.2394 -0.3999
    2PC     H1A   62   3.213   2.298   5.491  0.2146 -0.3769  0.2377
    2PC     H1B   63   3.300   2.316   5.340 -0.9290 -0.4685 -0.3192
    2PC     C32   64   3.418   2.239   5.498 -0.0826 -0.0460 -0.1189
    2PC     H2A   65   3.401   2.135   5.470  0.1193  0.1446 -0.9681
    2PC     H2B   66   3.509   2.273   5.449  0.4215 -1.0442  0.1033
    2PC     N31   67   3.439   2.235   5.646  0.5198 -0.3393 -0.2107
    2PC     C33   68   3.321   2.210   5.736  0.3899 -0.1133 -0.3162
    2PC     H3A   69   3.240   2.274   5.701  0.2113  0.1812  0.6187
    2PC     H3B   70   3.287   2.106   5.732  0.4276 -0.1656  0.6241
    2PC     H3C   71   3.350   2.237   5.837 -1.1735 -0.7040  0.3151
    2PC     C34   72   3.542   2.132   5.680 -0.2114 -1.0906 -0.2488
    2PC     H4A   73   3.603   2.112   5.592 -1.7255  0.3235 -1.6824
    2PC     H4B   74   3.600   2.160   5.768  0.5160 -1.5154 -0.5836
    2PC     H4C   75   3.483   2.045   5.708  0.8688 -0.8606  3.2927
    2PC     C35   76   3.501   2.364   5.693  0.1525 -0.0700 -0.4591
    2PC     H5A   77   3.592   2.393   5.641  0.9147 -1.4159  0.0560
    2PC     H5B   78   3.529   2.347   5.797 -0.0390 -2.0965 -0.6814
    2PC     H5C   79   3.425   2.442   5.698  1.5829  1.3079  0.7555
    2PC     O33   80   3.227   2.687   5.544 -0.0957  0.4151  0.2597
    2PC     O34   81   3.083   2.508   5.453  0.6812 -0.0375  0.4487
    2PC     O21   82   3.494   2.603   5.105 -0.2171 -0.4603 -0.0090
    2PC     C21   83   3.628   2.593   5.103 -0.1483  0.3428  0.2981
    2PC     O22   84   3.692   2.504   5.156 -0.1878  0.2010  0.1089
    3OL     C12   85   3.681   2.707   5.020  0.0289  0.2283  0.2530
    3OL     H2R   86   3.748   2.754   5.092  0.1707 -1.1034  1.0264
    3OL     H2S   87   3.592   2.762   4.988 -1.9111 -0.3743  4.0371
    3OL     C13   88   3.764   2.659   4.900 -0.2553 -0.0497  0.1662
    3OL     H3R   89   3.834   2.580   4.931 -0.5594 -0.2865  0.2536
    3OL     H3S   90   3.830   2.736   4.860  0.5378  0.1253  1.7256
    3OL     C14   91   3.680   2.612   4.781 -0.1427 -0.0623  0.0921
    3OL     H4R   92   3.609   2.682   4.737  0.2601 -0.5947 -1.4653
    3OL     H4S   93   3.616   2.532   4.820  0.0633 -0.3260 -0.1031
    3OL     C15   94   3.765   2.557   4.666 -0.2715  0.0367 -0.0506
    3OL     H5R   95   3.834   2.483   4.708 -0.9143 -0.9099 -0.6142
    3OL     H5S   96   3.815   2.644   4.622 -2.2898  0.7876 -0.9542
    3OL     C16   97   3.681   2.490   4.556  0.3182  0.1908 -0.6011
    3OL     H6R   98   3.602   2.554   4.517 -0.1435  0.4652  0.7357
    3OL     H6S   99   3.629   2.405   4.599 -2.1966  2.1603  0.4524
    3OL     C17  100   3.773   2.436   4.445  0.3649  0.0807 -0.5095
    3OL     H7R  101   3.838   2.357   4.481 -0.2357  0.2043  0.9092
    3OL     H7S  102   3.839   2.509   4.397 -0.5368 -0.5244 -2.8231
    3OL     C18  103   3.677   2.385   4.336 -0.7144  0.2553  0.3395
    3OL     H8R  104   3.629   2.476   4.301  0.0868  0.2684 -0.8016
    3OL     H8S  105   3.605   2.313   4.375  0.0916 -0.7046  0.1226
    3OL     C19  106   3.751   2.324   4.220 -0.7335 -0.3986  0.6651
    3OL     H9R  107   3.858   2.315   4.231 -0.1752  1.8585 -1.7854
    3OL    C110  108   3.688   2.285   4.109  0.5006 -0.9598  0.1441
    3OL    H10R  109   3.745   2.252   4.023 -0.4713  1.2009 -1.4080
    3OL    C111  110   3.542   2.293   4.075  0.5762 -0.1247 -0.0262
    3OL    H11R  111   3.488   2.349   4.152  0.4042  0.4468 -0.5553
    3OL    H11S  112   3.492   2.195   4.073  1.3210 -0.5068 -1.0325
    3OL    C112  113   3.516   2.365   3.942 -0.6527  0.1842  0.3648
    3OL    H12R  114   3.413   2.369   3.908 -0.2520  0.3839 -0.8906
    3OL    H12S  115   3.569   2.309   3.865  0.3014  0.0039  1.1286
    3OL    C113  116   3.567   2.510   3.948 -0.1623  0.0391 -0.1873
    3OL    H13R  117   3.666   2.515   3.994 -0.4963  0.4020  0.5058
    3OL    H13S  118   3.491   2.556   4.011 -0.1597 -2.1371  1.5463
    3OL    C114  119   3.562   2.575   3.809 -0.4173 -0.8922 -0.6223
    3OL    H14R  120   3.571   2.683   3.827  1.4099 -1.3759  1.8550
    3OL    H14S  121   3.471   2.552   3.753  0.2298 -3.6298 -0.6638
    3OL    C115  122   3.685   2.529   3.730  0.6660  0.5729  0.1446
    3OL    H15R  123   3.684   2.420   3.731  1.4823  0.5678  0.7011
    3OL    H15S  124   3.772   2.566   3.785  1.4792 -0.1952 -0.5966
    3OL    C116  125   3.683   2.575   3.583 -0.4567 -0.4241 -0.1779
    3OL    H16R  126   3.707   2.682   3.586  3.4622 -1.1651  2.4776
    3OL    H16S  127   3.589   2.544   3.538  0.1117 -1.0890 -0.9282
    3OL    C117  128   3.789   2.503   3.499 -0.5017 -0.1748 -0.4499
    3OL    H17R  129   3.881   2.561   3.499 -0.4623 -0.1911  0.9807
    3OL    H17S  130   3.759   2.515   3.395 -1.2925  0.0365 -0.2027
    3OL    C118  131   3.817   2.355   3.531  0.2420  0.0258 -0.1442
    3OL    H18R  132   3.856   2.342   3.632 -0.2136 -1.1794 -0.1041
    3OL    H18S  133   3.890   2.330   3.453 -0.6605 -0.2388 -0.9232
    3OL    H18T  134   3.724   2.299   3.519  0.5152 -0.1970 -1.4180
    1PA    C116  135   2.169   1.373   3.731  0.1603  0.0877  0.4336
    1PA    H16R  136   2.156   1.301   3.650  2.3173  0.4067 -0.2402
    1PA    H16S  137   2.201   1.464   3.680  0.4860  0.8557  1.9484
    1PA    H16T  138   2.069   1.390   3.771 -0.2739  0.0201 -0.5938
    1PA    C115  139   2.268   1.320   3.836 -0.0382 -0.0886  0.5332
    1PA    H15R  140   2.247   1.372   3.929 -3.8048  0.7932 -0.6025
    1PA    H15S  141   2.240   1.220   3.870 -1.7339  0.5332  1.0396
    1PA    C114  142   2.413   1.349   3.794 -0.3288 -0.0503 -0.4705
    1PA    H14R  143   2.479   1.269   3.826 -0.4395 -0.2516 -0.7440
    1PA    H14S  144   2.412   1.354   3.685  2.6968  1.4676 -0.5139
    1PA    C113  145   2.462   1.485   3.846 -0.1285 -0.2451 -0.1479
    1PA    H13R  146   2.530   1.514   3.766 -1.5181  1.1055 -0.9005
    1PA    H13S  147   2.376   1.553   3.845  0.3999  0.4456  0.6069
    1PA    C112  148   2.525   1.484   3.986 -0.0016  0.6245 -0.1909
    1PA    H12R  149   2.458   1.451   4.066  1.1615 -0.9191  0.2048
    1PA    H12S  150   2.611   1.417   3.996  0.0474  0.8175  0.7996
    1PA    C111  151   2.572   1.620   4.038  0.0795  0.4647  0.1576
    1PA    H11R  152   2.659   1.603   4.101  0.1709  0.8292  0.1335
    1PA    H11S  153   2.606   1.685   3.957 -0.3058  2.5936  1.6134
    1PA    C110  154   2.467   1.697   4.119  0.2666  0.2131  0.6403
    1PA    H10R  155   2.380   1.715   4.056 -0.0873 -2.0689  0.4028
    1PA    H10S  156   2.431   1.639   4.204 -1.2159 -0.4012 -0.3728
    1PA     C19  157   2.523   1.831   4.170  0.7284  0.3342 -0.1719
    1PA     H9R  158   2.579   1.880   4.090  1.0283  0.3782  0.0624
    1PA     H9S  159   2.440   1.894   4.204 -0.7840 -1.7526  0.2013
    1PA     C18  160   2.615   1.814   4.292  0.2311 -0.2545  0.1260
    1PA     H8R  161   2.548   1.797   4.377 -2.7547 -1.8433 -2.3068
    1PA     H8S  162   2.671   1.722   4.272 -0.3758 -0.5209 -0.4075
    1PA     C17  163   2.715   1.929   4.310  0.5076 -0.4680 -0.0300
    1PA     H7R  164   2.794   1.933   4.235  0.4145 -0.1923 -0.1131
    1PA     H7S  165   2.656   2.020   4.297 -0.2982 -0.9653  0.0096
    1PA     C16  166   2.787   1.943   4.444 -0.1001 -0.3927  0.2925
    1PA     H6R  167   2.819   2.047   4.454  1.6208 -1.0384  2.2273
    1PA     H6S  168   2.711   1.912   4.516 -1.2170 -0.8427 -1.0373
    1PA     C15  169   2.916   1.860   4.457  0.1151 -0.1623 -0.3714
    1PA     H5R  170   2.879   1.761   4.430 -0.7220  0.4848 -1.7541
    1PA     H5S  171   2.996   1.887   4.387  1.9580  1.6398  2.2555
    1PA     C14  172   2.977   1.866   4.597 -0.4841  0.0906 -0.1155
    1PA     H4R  173   3.084   1.846   4.586 -0.7138 -0.4996 -1.4764
    1PA     H4S  174   2.959   1.964   4.641  0.4781 -0.6392  2.0779
    1PA     C13  175   2.926   1.757   4.693  0.4056 -0.3457 -0.1216
    1PA     H3R  176   2.817   1.770   4.693  0.4714  0.9718 -2.9450
    1PA     H3S  177   2.944   1.656   4.658  0.8673 -1.7131  3.6485
    1PA     C12  178   2.998   1.774   4.828  0.7279  0.4626 -0.3905
    1PA     H2R  179   3.105   1.770   4.807  0.2634 -0.1898 -3.0592
    1PA     H2S  180   2.976   1.879   4.849  0.6247  0.2118  0.8172
    2PC     C11  181   2.952   1.690   4.944 -0.2362  0.4502 -0.7676
    2PC     O12  182   2.881   1.724   5.036  0.2360 -0.7468  0.0620
    2PC     O11  183   3.004   1.567   4.943 -0.4035  0.3561  0.3686
    2PC      C1  184   2.968   1.471   5.044  0.1013 -0.6064 -0.3439
    2PC      HR  185   2.872   1.491   5.093  0.5518 -2.9302  1.6907
    2PC      HS  186   2.964   1.369   5.003  0.7266 -1.8621  2.5087
    2PC      C2  187   3.078   1.481   5.150 -0.1987 -0.0173 -0.0817
    2PC      HX  188   3.176   1.466   5.103 -1.1972  0.8598 -2.6241
    2PC      C3  189   3.063   1.384   5.268 -0.0965 -0.3737 -0.3588
    2PC      HA  190   3.115   1.290   5.246  0.2390 -0.4794  0.7712
    2PC      HB  191   3.103   1.429   5.360  0.3739  0.8931 -1.1590
    2PC     O31  192   2.924   1.361   5.296 -0.0657 -0.5172 -0.3239
    2PC     P31  193   2.881   1.311   5.442  0.0212 -0.1277 -0.1639
    2PC     O32  194   2.781   1.197   5.389 -0.1122 -0.1950  0.2275
    2PC     C31  195   2.836   1.088   5.312  0.0779  0.3882 -0.4775
    2PC     H1A  196   2.851   1.131   5.213 -0.6636  0.5389 -0.5353
    2PC     H1B  197   2.924   1.044   5.358 -0.0367 -0.3759 -0.9842
    2PC     C32  198   2.730   0.978   5.294 -0.1056  0.3673  0.6131
    2PC     H2A  199   2.645   1.031   5.250  1.2727  1.3543 -1.0291
    2PC     H2B  200   2.771   0.907   5.222  2.5177  0.9892  1.3674
    2PC     N31  201   2.661   0.904   5.404 -0.0671 -0.0661  0.3490
    2PC     C33  202   2.555   0.808   5.359  0.0284  0.0201 -0.0611
    2PC     H3A  203   2.606   0.733   5.299  1.1539  0.1777  0.6722
    2PC     H3B  204   2.507   0.760   5.444 -1.2469  0.0029 -0.7742
    2PC     H3C  205   2.483   0.852   5.290 -1.1973 -1.7118  0.0608
    2PC     C34  206   2.756   0.822   5.486 -0.1339  0.3798  0.8794
    2PC     H4A  207   2.711   0.733   5.531 -0.8692 -0.2681 -1.0319
    2PC     H4B  208   2.835   0.793   5.416  1.1259  1.4080  1.8334
    2PC     H4C  209   2.798   0.894   5.556  0.6449  1.1017 -0.2988
    2PC     C35  210   2.593   1.010   5.486  0.1053  0.0057  0.3996
    2PC     H5A  211   2.542   0.965   5.571 -0.5253  2.7649  1.5855
    2PC     H5B  212   2.519   1.058   5.422  0.7152  0.1276 -0.2323
    2PC     H5C  213   2.663   1.083   5.526  0.1655  0.3294 -0.2800
    2PC     O33  214   2.986   1.253   5.528  0.3492 -0.4543 -0.7768
    2PC     O34  215   2.817   1.416   5.524  0.1774 -0.7213  0.7335
    2PC     O21  216   3.078   1.611   5.212  0.3927 -0.3001  0.5257
    2PC     C21  217   3.153   1.711   5.163  0.1223 -0.1374  0.4468
    2PC     O22  218   3.233   1.697   5.073 -0.0200  0.0445  0.2903
    3OL     C12  219   3.110   1.839   5.231  0.2356  0.2109 -0.1199
    3OL     H2R  220   3.158   1.824   5.328  1.1689 -1.9352 -0.8535
    3OL     H2S  221   3.001   1.828   5.242  0.3355 -1.6540 -0.6509
    3OL     C13  222   3.170   1.953   5.149  0.4414  0.2451  0.0773
    3OL     H3R  223   3.145   1.962   5.043 -1.6431  1.9704  0.6542
    3OL     H3S  224   3.279   1.941   5.155  0.3234 -1.3838 -0.5134
    3OL     C14  225   3.143   2.093   5.204  0.0103  0.2584 -0.1698
    3OL     H4R  226   3.201   2.172   5.157 -1.6695  3.3502  2.5262
    3OL     H4S  227   3.152   2.092   5.313 -0.4622 -0.3112 -0.1300
    3OL     C15  228   2.998   2.131   5.170 -0.0924  0.2397  0.2434
    3OL     H5R  229   2.970   2.217   5.231 -1.2312 -1.4075  2.1733
    3OL     H5S  230   2.934   2.047   5.198  0.0787 -0.2438 -0.7771
    3OL     C16  231   2.962   2.144   5.021  0.2971  0.2115  0.1470
    3OL     H6R  232   2.950   2.047   4.972  0.0824 -0.1202  0.8322
    3OL     H6S  233   3.033   2.207   4.968 -0.1035 -0.0379 -0.7039
    3OL     C17  234   2.823   2.206   5.005  0.1968 -0.0582 -0.0359
    3OL     H7R  235   2.799   2.232   4.902  2.3694  1.0904 -0.3163
    3OL     H7S  236   2.827   2.306   5.049  1.2460 -0.2764  0.3963
    3OL     C18  237   2.713   2.122   5.071  0.0345  0.2334  0.0697
    3OL     H8R  238   2.625   2.182   5.044  0.0172  0.0071 -0.4041
    3OL     H8S  239   2.726   2.121   5.179 -2.4472 -0.8045  0.4372
    3OL     C19  240   2.700   1.983   5.013  0.0100  0.0842  0.4340
    3OL     H9R  241   2.722   1.912   5.092  3.6107 -0.2733 -0.7013
    3OL    C110  242   2.664   1.936   4.894  0.7462 -0.2573  0.3436
    3OL    H10R  243   2.664   1.830   4.874 -1.4306  0.1631 -2.4989
    3OL    C111  244   2.614   2.019   4.779  0.3930 -0.7915  0.1108
    3OL    H11R  245   2.699   2.007   4.712  0.7367 -1.6840  0.6932
    3OL    H11S  246   2.595   2.123   4.807  1.9635  0.1765 -2.0645
    3OL    C112  247   2.484   1.969   4.715  0.3269 -0.3717 -0.0890
    3OL    H12R  248   2.413   1.959   4.797 -0.1962  0.3411 -0.4471
    3OL    H12S  249   2.519   1.878   4.664  0.9161 -0.9271  1.2523
    3OL    C113  250   2.431   2.069   4.611 -0.4901 -0.0748  0.6110
    3OL    H13R  251   2.507   2.071   4.533 -1.9441 -1.2875 -0.9047
    3OL    H13S  252   2.411   2.162   4.666  2.0790  0.6783  0.3885
    3OL    C114  253   2.305   2.007   4.550 -0.4262 -0.3239  0.7331
    3OL    H14R  254   2.246   1.979   4.637 -1.6528  1.2754  0.4500
    3OL    H14S  255   2.321   1.919   4.486 -0.9190  0.5553 -0.6307
    3OL    C115  256   2.235   2.114   4.466  0.5454 -0.3056 -0.0768
    3OL    H15R  257   2.296   2.138   4.379  0.5407 -1.4062 -0.3987
    3OL    H15S  258   2.223   2.211   4.515 -0.8457 -0.0730 -0.8211
    3OL    C116  259   2.091   2.067   4.437  0.3137  0.4215 -0.1306
    3OL    H16R  260   2.054   2.017   4.527  0.7451 -0.3547 -0.3736
    3OL    H16S  261   2.084   2.000   4.351  4.2060 -0.2557 -0.1152
    3OL    C117  262   2.012   2.190   4.391 -0.0565  0.3046  0.1915
    3OL    H17R  263   2.051   2.212   4.292  2.5694 -2.0871  0.5574
    3OL    H17S  264   2.024   2.278   4.454 -3.1985  0.3798  0.8813
    3OL    C118  265   1.862   2.156   4.379  0.1272 -0.2744 -0.5227
    3OL    H18R  266   1.850   2.087   4.295  1.9044 -1.5503  0.2120
    3OL    H18S  267   1.808   2.247   4.349 -1.0471 -0.7187  0.1966
    3OL    H18T  268   1.816   2.117   4.470 -0.4438  1.9070  0.1807
    1PA    C116  269   1.385   0.349   3.712  0.3266  0.2210  0.1075
    1PA    H16R  270   1.459   0.275   3.746  0.5670  0.8815  1.0394
    1PA    H16S  271   1.410   0.441   3.765  0.3509 -0.5093  1.4143
    1PA    H16T  272   1.401   0.351   3.604  1.3022  0.1607  0.2404
    1PA    C115  273   1.247   0.293   3.749  0.1846  0.5960  0.1471
    1PA    H15R  274   1.171   0.369   3.735 -1.4803 -1.2312 -1.4244
    1PA    H15S  275   1.229   0.213   3.677 -0.4474  0.0841  0.8668
    1PA    C114  276   1.240   0.236   3.891  0.3162  0.2287  0.0074
    1PA    H14R  277   1.140   0.195   3.907 -0.5657  1.8073 -1.2071
    1PA    H14S  278   1.311   0.153   3.895 -1.4856 -1.3570  1.1994
    1PA    C113  279   1.264   0.349   3.992  0.4810 -0.0281  0.2586
    1PA    H13R  280   1.365   0.388   3.991  1.4299 -2.3291 -0.2302
    1PA    H13S  281   1.197   0.429   3.959 -1.7671 -2.1957 -0.7574
    1PA    C112  282   1.233   0.307   4.136 -0.6647 -0.4794 -0.1060
    1PA    H12R  283   1.126   0.285   4.140 -0.7980 -0.0681 -1.1828
    1PA    H12S  284   1.276   0.213   4.169  0.6140 -0.3444 -1.3396
    1PA    C111  285   1.256   0.413   4.245  0.1933 -0.2178 -0.5356
    1PA    H11R  286   1.363   0.430   4.248 -0.1172  2.1928 -1.1114
    1PA    H11S  287   1.234   0.519   4.229  0.9702  0.4080  2.1030
    1PA    C110  288   1.209   0.357   4.380 -0.3562  0.7027 -0.3359
    1PA    H10R  289   1.100   0.352   4.386 -0.3529  1.4584  0.7341
    1PA    H10S  290   1.248   0.257   4.400 -1.1681  0.4997  0.2993
    1PA     C19  291   1.259   0.448   4.493  0.6154 -0.1587 -0.0565
    1PA     H9R  292   1.272   0.552   4.462 -0.5125  0.4795  1.4822
    1PA     H9S  293   1.182   0.456   4.569  1.1382  0.1712  0.4496
    1PA     C18  294   1.387   0.395   4.560  0.2701 -1.0131 -0.0720
    1PA     H8R  295   1.378   0.288   4.583 -0.5514 -0.6598  1.3265
    1PA     H8S  296   1.480   0.403   4.503  0.5410  1.4416  0.6180
    1PA     C17  297   1.405   0.468   4.693  0.2687 -0.2924 -0.4624
    1PA     H7R  298   1.314   0.467   4.753  0.9739 -0.1607  0.6364
    1PA     H7S  299   1.479   0.408   4.747  0.7484  0.9799  0.3353
    1PA     C16  300   1.456   0.613   4.682 -0.3059 -0.0200  0.3669
    1PA     H6R  301   1.557   0.616   4.641 -0.8674  4.1418 -1.1381
    1PA     H6S  302   1.397   0.666   4.607  1.8927 -0.5898 -1.8896
    1PA     C15  303   1.451   0.684   4.818  0.1404 -0.1031  0.4281
    1PA     H5R  304   1.346   0.689   4.849 -0.3941 -0.1004 -1.2882
    1PA     H5S  305   1.501   0.614   4.886  2.3308  1.4812  0.5613
    1PA     C14  306   1.518   0.821   4.808 -0.1920  0.0562  0.3690
    1PA     H4R  307   1.596   0.810   4.732 -1.5210  0.3881 -1.0919
    1PA     H4S  308   1.455   0.905   4.778 -0.9573  0.2617  2.4032
    1PA     C13  309   1.580   0.863   4.943  0.2848  0.5277  0.0063
    1PA     H3R  310   1.520   0.862   5.034  2.0972 -1.0521  1.2490
    1PA     H3S  311   1.659   0.792   4.966  0.4907  0.7819  0.0974
    1PA     C12  312   1.647   1.001   4.936  0.1719  0.5837  0.0311
    1PA     H2R  313   1.711   1.017   4.849  0.5510  1.5184  0.4689
    1PA     H2S  314   1.574   1.083   4.928  1.7939  2.2474  1.3011
    2PC     C11  315   1.722   1.030   5.063  0.2946 -0.0003  0.0925
    2PC     O12  316   1.671   1.043   5.173 -0.1351 -0.2828 -0.0687
    2PC     O11  317   1.852   1.040   5.030  0.1974 -0.2630 -0.3686
    2PC      C1  318   1.940   1.071   5.139  0.2121 -0.7609 -0.2344
    2PC      HR  319   1.899   1.150   5.203  0.9929  0.2297 -0.9261
    2PC      HS  320   1.939   0.980   5.200 -0.3877 -0.0013  0.9399
    2PC      C2  321   2.080   1.105   5.087  0.0227 -0.2778 -0.4394
    2PC      HX  322   2.162   1.067   5.149  0.3926 -0.9389 -1.3032
    2PC      C3  323   2.098   1.257   5.077 -0.3333 -0.2113 -0.0715
    2PC      HA  324   2.060   1.293   4.981  0.6869 -0.3588 -0.5359
    2PC      HB  325   2.044   1.309   5.157 -2.2141  1.7663 -2.4548
    2PC     O31  326   2.236   1.297   5.084 -0.6085  0.7714 -0.1026
    2PC     P31  327   2.294   1.318   5.232  0.0083  0.1534 -0.2487
    2PC     O32  328   2.415   1.419   5.203  0.1266 -0.0678 -0.5282
    2PC     C31  329   2.526   1.401   5.291 -0.0182 -0.1447 -0.3605
    2PC     H1A  330   2.498   1.408   5.397  1.1368  0.8124 -0.0848
    2PC     H1B  331   2.577   1.307   5.268 -0.3373 -0.3169 -0.3581
    2PC     C32  332   2.628   1.513   5.263  0.2411 -0.1406  0.5462
    2PC     H2A  333   2.727   1.488   5.300  0.6785  0.5721 -0.1154
    2PC     H2B  334   2.639   1.534   5.157 -0.4973 -0.6406  0.3594
    2PC     N31  335   2.584   1.644   5.320  0.1725 -0.0631  0.3183
    2PC     C33  336   2.686   1.747   5.280  0.5668 -0.4956  0.2106
    2PC     H3A  337   2.783   1.730   5.328  1.4062  0.4487 -1.1027
    2PC     H3B  338   2.694   1.748   5.171 -1.6612  0.7579  0.0096
    2PC     H3C  339   2.649   1.844   5.313 -0.4384 -0.5215 -0.7995
    2PC     C34  340   2.462   1.698   5.251  0.2350 -0.2638  0.0526
    2PC     H4A  341   2.431   1.791   5.299  0.8240 -0.4115  0.7347
    2PC     H4B  342   2.487   1.711   5.146  0.2557 -1.7865 -0.1587
    2PC     H4C  343   2.376   1.633   5.263 -0.9479  1.4224  1.1432
    2PC     C35  344   2.562   1.646   5.469 -0.5720  0.5068  0.2107
    2PC     H5A  345   2.652   1.680   5.519  1.7236 -1.5798 -2.1551
    2PC     H5B  346   2.517   1.556   5.511 -3.0079  2.1070  1.2348
    2PC     H5C  347   2.486   1.721   5.488  0.9478  1.8965  1.0809
    2PC     O33  348   2.198   1.385   5.323 -0.1206  0.0314 -0.2945
    2PC     O34  349   2.332   1.188   5.291  0.5706  0.2516 -0.3871
    2PC     O21  350   2.104   1.046   4.958  0.5206  0.2989 -0.6129
    2PC     C21  351   2.091   0.914   4.938  0.9852  0.1471  0.0950
    2PC     O22  352   2.109   0.833   5.027  0.6686 -0.5161 -0.4374
    3OL     C12  353   2.065   0.871   4.796  0.1559 -0.1746  0.3372
    3OL     H2R  354   1.993   0.789   4.800  0.2545 -0.2878 -0.1536
    3OL     H2S  355   2.162   0.834   4.762  0.8287  0.9184  1.0009
    3OL     C13  356   2.031   0.981   4.695 -0.4288 -0.4713  0.2052
    3OL     H3R  357   2.098   1.068   4.693 -0.3092 -0.5194 -3.0566
    3OL     H3S  358   1.935   1.026   4.722 -0.0275  0.5694 -0.0416
    3OL     C14  359   2.013   0.921   4.555  0.4236 -0.7376  0.2041
    3OL     H4R  360   2.099   0.862   4.524  0.1086 -1.3903  0.5640
    3OL     H4S  361   2.003   1.008   4.490 -0.8049 -1.2928 -0.3615
    3OL     C15  362   1.887   0.838   4.530  0.2442 -0.3537 -0.1793
    3OL     H5R  363   1.799   0.894   4.563  0.5611  1.1073 -1.7066
    3OL     H5S  364   1.890   0.743   4.584 -1.5099 -1.4300 -1.8326
    3OL     C16  365   1.872   0.804   4.381  0.1801  0.1453 -0.2872
    3OL     H6R  366   1.953   0.735   4.358 -0.5157 -0.5834 -0.5937
    3OL     H6S  367   1.873   0.889   4.312  0.4573  2.2432  2.1131
    3OL     C17  368   1.749   0.717   4.354  0.1119  0.2026 -0.1628
    3OL     H7R  369   1.662   0.781   4.373  1.3983  1.6897  0.9700
    3OL     H7S  370   1.747   0.638   4.430  0.0078  0.7725  0.4362
    3OL     C18  371   1.749   0.658   4.212  0.1759  0.6177 -0.3346
    3OL     H8R  372   1.835   0.594   4.193 -0.8788 -0.7452 -0.7029
    3OL     H8S  373   1.769   0.743   4.146  1.1069  1.7824  1.3566
    3OL     C19  374   1.620   0.589   4.175  0.2824  0.2603 -0.0375
    3OL     H9R  375   1.608   0.489   4.218 -0.9756  0.5770  0.3836
    3OL    C110  376   1.530   0.623   4.085  0.1363  0.3511  0.1407
    3OL    H10R  377   1.449   0.555   4.059 -0.3710  2.1116 -3.5948
    3OL    C111  378   1.528   0.756   4.015  0.9966 -0.0013 -0.5828
    3OL    H11R  379   1.594   0.754   3.928 -1.5025  1.3604 -2.6583
    3OL    H11S  380   1.574   0.829   4.082  1.0958  0.1110 -0.7726
    3OL    C112  381   1.388   0.806   3.973  0.8160  0.3364  0.3964
    3OL    H12R  382   1.349   0.749   3.889  1.9409 -1.9552  1.3249
    3OL    H12S  383   1.398   0.910   3.942  1.1350  0.6857  1.6018
    3OL    C113  384   1.276   0.796   4.077  0.0917  0.4652 -0.3648
    3OL    H13R  385   1.248   0.692   4.093  0.6091  0.6239  1.9892
    3OL    H13S  386   1.194   0.859   4.042  0.7932  0.4767 -2.0750
    3OL    C114  387   1.314   0.847   4.217 -0.4279 -0.6223  0.1837
    3OL    H14R  388   1.388   0.791   4.274 -1.3270 -1.1505  0.8577
    3OL    H14S  389   1.219   0.849   4.271 -0.0508  1.1113  0.8528
    3OL    C115  390   1.358   0.994   4.208  0.2630 -0.7858  0.8699
    3OL    H15R  391   1.283   1.055   4.160  2.5004  2.0825  0.7397
    3OL    H15S  392   1.454   0.994   4.154 -0.8500 -2.6972 -1.2993
    3OL    C116  393   1.371   1.055   4.348 -0.2660 -0.4451  0.7684
    3OL    H16R  394   1.439   1.141   4.346 -0.9646  0.2261  2.8702
    3OL    H16S  395   1.416   0.980   4.413  0.1557 -0.4628  0.4621
    3OL    C117  396   1.234   1.100   4.402 -0.4036 -0.4273  0.4102
    3OL    H17R  397   1.171   1.011   4.408 -0.0358 -0.9906 -2.7105
    3OL    H17S  398   1.183   1.161   4.328 -0.1944 -1.2468 -0.4259
    3OL    C118  399   1.249   1.176   4.535 -0.3857  0.2903 -0.0005
    3OL    H18R  400   1.290   1.276   4.515  0.6300  0.1811  1.3640
    3OL    H18S  401   1.316   1.124   4.604 -1.5611  0.3043  1.1925
    3OL    H18T  402   1.156   1.187   4.590 -0.2309 -0.7081  0.4836
    1PA    C116  403   1.866   3.623   3.935 -0.5166 -0.2053  0.2748
    1PA    H16R  404   1.926   3.712   3.917  0.1845 -0.5557  0.8048
    1PA    H16S  405   1.758   3.635   3.938 -0.4882  0.0652  0.2062
    1PA    H16T  406   1.882   3.559   3.848  1.2312  0.0705  0.3485
    1PA    C115  407   1.905   3.562   4.071  0.2407 -0.2817  0.0303
    1PA    H15R  408   1.907   3.644   4.142  1.0026 -1.1553  1.0545
    1PA    H15S  409   1.832   3.482   4.091  0.7412 -0.9246 -0.6340
    1PA    C114  410   2.044   3.499   4.057  0.5254  0.4559 -0.4928
    1PA    H14R  411   2.041   3.426   3.976 -1.1583  0.5128 -0.5225
    1PA    H14S  412   2.108   3.586   4.041  0.7709  0.2646 -0.5704
    1PA    C113  413   2.084   3.435   4.191 -0.7461  0.8465  0.0931
    1PA    H13R  414   2.191   3.413   4.192 -1.1841 -1.5973 -0.2874
    1PA    H13S  415   2.080   3.516   4.264  3.1104  0.4489  1.0069
    1PA    C112  416   2.010   3.310   4.240  0.2257 -0.0162 -0.5946
    1PA    H12R  417   1.914   3.340   4.281  1.5895 -0.3019  3.1523
    1PA    H12S  418   1.979   3.237   4.164 -3.0057 -0.2475  0.8016
    1PA    C111  419   2.084   3.235   4.352 -0.2464  0.0659 -0.2271
    1PA    H11R  420   2.024   3.148   4.378 -1.4638  0.8186 -0.4068
    1PA    H11S  421   2.182   3.209   4.313  0.3364 -1.0704  1.8315
    1PA    C110  422   2.098   3.308   4.487  0.0654 -0.1042 -0.1676
    1PA    H10R  423   2.148   3.404   4.472  0.1657 -0.0821  0.3085
    1PA    H10S  424   1.999   3.334   4.525 -0.3209 -1.7830  0.0373
    1PA     C19  425   2.190   3.240   4.589  0.0247 -0.2316 -0.2152
    1PA     H9R  426   2.292   3.242   4.550 -0.9916  2.0602 -3.1691
    1PA     H9S  427   2.200   3.293   4.684 -2.0180 -1.9147  1.0341
    1PA     C18  428   2.154   3.093   4.615 -0.3184  0.0238  0.7971
    1PA     H8R  429   2.048   3.074   4.602 -0.1891 -0.7219  0.8089
    1PA     H8S  430   2.201   3.045   4.529 -0.3540  2.0177 -0.3930
    1PA     C17  431   2.196   3.034   4.751  0.1261  0.0296  0.6638
    1PA     H7R  432   2.150   3.092   4.831 -3.0687 -1.3378 -0.0457
    1PA     H7S  433   2.162   2.931   4.757  0.2158 -0.1608 -1.3167
    1PA     C16  434   2.349   3.037   4.763  0.2023 -0.4374 -0.1009
    1PA     H6R  435   2.388   2.984   4.677 -1.3734  2.0832 -2.5327
    1PA     H6S  436   2.387   3.140   4.760 -1.5447  0.2889  1.0409
    1PA     C15  437   2.394   2.975   4.896 -0.1497  0.0759  0.2645
    1PA     H5R  438   2.361   3.025   4.987 -0.9314  0.4689 -0.2358
    1PA     H5S  439   2.345   2.877   4.899  1.0499 -0.5292  1.9903
    1PA     C14  440   2.547   2.957   4.899 -0.1719 -0.1829 -0.0930
    1PA     H4R  441   2.556   2.896   4.988  1.9113  0.9084  0.5142
    1PA     H4S  442   2.570   2.901   4.808 -4.1031 -0.5116 -1.0596
    1PA     C13  443   2.621   3.091   4.913 -0.2874 -0.1302  0.0110
    1PA     H3R  444   2.613   3.134   4.813  0.8354  0.1611  0.0374
    1PA     H3S  445   2.563   3.156   4.980 -2.3311 -1.2609 -0.5478
    1PA     C12  446   2.766   3.066   4.954 -0.1115 -0.1710 -0.6368
    1PA     H2R  447   2.810   2.998   4.881  0.9622  2.0340 -2.1894
    1PA     H2S  448   2.822   3.160   4.940  0.7644 -0.2332  1.9162
    2PC     C11  449   2.781   3.001   5.089  0.0156  0.5041 -0.3207
    2PC     O12  450   2.759   3.054   5.196 -0.4211  0.0114 -0.1624
    2PC     O11  451   2.813   2.871   5.081  0.8217  0.6554  0.3519
    2PC      C1  452   2.827   2.784   5.195 -0.3591  0.0826  0.0749
    2PC      HR  453   2.875   2.692   5.162 -1.4388 -0.6421  0.4888
    2PC      HS  454   2.899   2.842   5.254 -0.4181  0.3136 -0.0784
    2PC      C2  455   2.695   2.753   5.266 -0.7557  0.9348 -0.2769
    2PC      HX  456   2.646   2.849   5.283 -2.6104 -0.5849  4.3575
    2PC      C3  457   2.727   2.689   5.401 -0.2592  0.8357 -0.4414
    2PC      HA  458   2.785   2.599   5.378 -0.2145  1.0416 -1.1630
    2PC      HB  459   2.792   2.755   5.459  0.1409 -1.6766  2.2054
    2PC     O31  460   2.604   2.653   5.465  0.0933  0.2134 -0.0976
    2PC     P31  461   2.612   2.602   5.617 -0.0075  0.1944 -0.0987
    2PC     O32  462   2.561   2.732   5.696 -0.0003 -0.0089  0.2391
    2PC     C31  463   2.477   2.702   5.809  0.1988 -0.7395  0.1979
    2PC     H1A  464   2.378   2.678   5.768  0.1416 -0.5377  0.2204
    2PC     H1B  465   2.510   2.613   5.865 -0.4778 -2.2737 -1.7121
    2PC     C32  466   2.453   2.822   5.901  0.2879 -0.5284 -0.0558
    2PC     H2A  467   2.410   2.909   5.851  0.8477  0.2221  0.7367
    2PC     H2B  468   2.383   2.783   5.974  2.1415 -1.8195  1.1375
    2PC     N31  469   2.566   2.883   5.979 -0.1642  0.1987  0.0362
    2PC     C33  470   2.642   2.773   6.045  0.4580  0.3983 -0.3429
    2PC     H3A  471   2.587   2.737   6.132 -0.5967 -0.5861 -1.3713
    2PC     H3B  472   2.648   2.693   5.971 -0.1291  0.8820 -0.9143
    2PC     H3C  473   2.740   2.807   6.078  0.0516  0.2788  1.0761
    2PC     C34  474   2.651   2.961   5.884  0.0801 -0.4224 -0.2565
    2PC     H4A  475   2.589   3.027   5.822  0.8000  0.1054 -0.4290
    2PC     H4B  476   2.719   3.024   5.941  0.2211  2.8428 -3.6159
    2PC     H4C  477   2.698   2.877   5.831 -2.8692 -1.0571 -2.1282
    2PC     C35  478   2.520   2.982   6.082 -0.0882  0.4034 -0.1267
    2PC     H5A  479   2.436   2.942   6.140 -0.4360 -0.6966 -1.3407
    2PC     H5B  480   2.487   3.075   6.034 -0.6804 -0.6444 -1.8199
    2PC     H5C  481   2.604   2.990   6.150 -0.0387 -1.3998  0.0625
    2PC     O33  482   2.532   2.478   5.631  0.2347  0.0242 -0.2065
    2PC     O34  483   2.742   2.550   5.665 -0.1935 -0.1085  0.0792
    2PC     O21  484   2.619   2.657   5.190  0.5189 -0.1920 -0.1537
    2PC     C21  485   2.487   2.664   5.169  0.4136  0.1412  0.5964
    2PC     O22  486   2.415   2.750   5.217  0.4189  0.3893  0.1662
    3OL     C12  487   2.444   2.551   5.079  0.5768  0.1909  0.4559
    3OL     H2R  488   2.342   2.515   5.091  1.2431 -1.6455  0.9988
    3OL     H2S  489   2.510   2.468   5.104  0.5462  0.9421  3.3427
    3OL     C13  490   2.471   2.593   4.933  0.3520  0.2132  0.4205
    3OL     H3R  491   2.577   2.616   4.921  1.0958 -3.7360 -2.4299
    3OL     H3S  492   2.412   2.681   4.907  3.0318  1.9407 -0.1832
    3OL     C14  493   2.453   2.474   4.838  0.2387  0.4621  0.1313
    3OL     H4R  494   2.353   2.430   4.832 -0.1786  1.5216 -3.7534
    3OL     H4S  495   2.520   2.398   4.879 -1.6458 -0.7854  1.0237
    3OL     C15  496   2.490   2.509   4.693  0.0930  0.2409  0.0395
    3OL     H5R  497   2.443   2.605   4.668  3.1298  1.3717 -1.9425
    3OL     H5S  498   2.451   2.421   4.641  0.2548  0.9265 -1.2972
    3OL     C16  499   2.635   2.540   4.655 -0.0657 -0.0170 -0.8004
    3OL     H6R  500   2.682   2.606   4.729  0.1047 -0.2096 -0.7343
    3OL     H6S  501   2.626   2.600   4.564  1.0176  0.9949 -0.2801
    3OL     C17  502   2.716   2.410   4.648  0.3965  0.2054  0.2638
    3OL     H7R  503   2.665   2.345   4.577  0.6165 -0.7301  0.9427
    3OL     H7S  504   2.705   2.363   4.747 -1.5674 -0.9372 -0.4397
    3OL     C18  505   2.865   2.429   4.617  0.3976  0.3649  0.3661
    3OL     H8R  506   2.910   2.330   4.617  1.8070  0.9560  1.4959
    3OL     H8S  507   2.918   2.468   4.704 -0.2272  1.4855  0.2661
    3OL     C19  508   2.879   2.509   4.490  0.5135 -0.4804 -0.1593
    3OL     H9R  509   2.911   2.612   4.505  0.8211 -0.5852 -0.0831
    3OL    C110  510   2.843   2.471   4.369 -0.0405  0.2601 -0.2309
    3OL    H10R  511   2.848   2.543   4.287 -1.3439  0.0835 -0.5014
    3OL    C111  512   2.818   2.326   4.337 -0.0900  0.2350 -0.0788
    3OL    H11R  513   2.710   2.310   4.350  0.0758 -0.6411  0.2602
    3OL    H11S  514   2.847   2.252   4.412 -2.0647 -1.4589 -0.8800
    3OL    C112  515   2.869   2.281   4.199  0.3832 -0.3662  0.2895
    3OL    H12R  516   2.872   2.173   4.185 -0.8952 -0.1323 -2.2698
    3OL    H12S  517   2.974   2.307   4.180  0.4172 -0.9129 -0.2878
    3OL    C113  518   2.777   2.355   4.101  0.6781  0.1892  0.4229
    3OL    H13R  519   2.835   2.361   4.008 -2.8004 -1.4249 -2.0979
    3OL    H13S  520   2.740   2.454   4.129  0.8738  0.5658 -0.6026
    3OL    C114  521   2.649   2.277   4.065  0.4681  0.4427  0.6241
    3OL    H14R  522   2.595   2.348   4.002 -0.9457  0.6005  1.9292
    3OL    H14S  523   2.582   2.253   4.148 -0.6049  0.9818 -0.0583
    3OL    C115  524   2.672   2.150   3.983 -0.3797  0.9192 -0.3665
    3OL    H15R  525   2.708   2.070   4.048 -0.5548  1.1417  0.0100
    3OL    H15S  526   2.750   2.176   3.911 -0.0282  0.1482 -0.2686
    3OL    C116  527   2.539   2.102   3.922 -0.3631  0.4632 -0.0452
    3OL    H16R  528   2.476   2.101   4.011  0.2813  4.7842  0.6576
    3OL    H16S  529   2.545   1.995   3.899  0.1906  0.3510  0.5791
    3OL    C117  530   2.478   2.183   3.807 -0.4453  0.2598 -0.1465
    3OL    H17R  531   2.555   2.214   3.736  0.7438  2.6899  2.0149
    3OL    H17S  532   2.453   2.280   3.850  0.3192  0.7775 -0.8337
    3OL    C118  533   2.349   2.122   3.751  0.1992 -0.7183 -0.5814
    3OL    H18R  534   2.310   2.188   3.674  1.3468 -0.5794 -1.0618
    3OL    H18S  535   2.272   2.123   3.828 -0.5734 -0.2089 -1.3476
    3OL    H18T  536   2.354   2.019   3.715  1.0716 -1.2472  0.9275
    1PA    C116  537   1.179   6.443   3.733  0.3640 -0.5325  0.0661
    1PA    H16R  538   1.229   6.359   3.683 -0.3211 -0.2597 -1.1144
    1PA    H16S  539   1.249   6.526   3.732  0.7794 -0.7598 -3.9126
    1PA    H16T  540   1.093   6.481   3.677  0.0667 -0.4881  0.5486
    1PA    C115  541   1.142   6.397   3.875 -0.2954 -0.2977 -0.0270
    1PA    H15R  542   1.076   6.463   3.932 -2.1528 -1.4484 -0.7791
    1PA    H15S  543   1.100   6.297   3.869 -1.8787  0.4160 -2.8356
    1PA    C114  544   1.272   6.401   3.957 -0.2248 -1.0020 -0.1064
    1PA    H14R  545   1.348   6.339   3.907  0.5858  1.2256 -1.8049
    1PA    H14S  546   1.318   6.499   3.951 -0.9933 -0.6448 -0.2117
    1PA    C113  547   1.267   6.367   4.107 -0.1330 -0.4366  0.0268
    1PA    H13R  548   1.222   6.455   4.152 -0.0899  0.7955 -2.1731
    1PA    H13S  549   1.205   6.282   4.135 -0.7404 -0.4205 -1.1905
    1PA    C112  550   1.410   6.354   4.161  0.1701  0.7913 -0.4396
    1PA    H12R  551   1.448   6.253   4.143  1.2539  1.1878 -0.4341
    1PA    H12S  552   1.480   6.422   4.113  1.0098  1.1699  1.2493
    1PA    C111  553   1.431   6.392   4.308  0.2199 -0.5957 -0.0712
    1PA    H11R  554   1.402   6.496   4.323  0.5982 -0.8089  2.4733
    1PA    H11S  555   1.361   6.332   4.367 -0.3930 -0.0551 -0.2425
    1PA    C110  556   1.573   6.363   4.359  0.3503 -0.4687 -0.3572
    1PA    H10R  557   1.604   6.262   4.331 -0.7987 -0.6288 -1.1272
    1PA    H10S  558   1.646   6.421   4.302  2.6952  0.3152  3.1475
    1PA     C19  559   1.591   6.391   4.509  0.5793 -0.2499 -0.4246
    1PA     H9R  560   1.564   6.489   4.549 -0.2660 -1.0039  0.9403
    1PA     H9S  561   1.526   6.320   4.561 -0.7316  1.3893  0.2592
    1PA     C18  562   1.719   6.337   4.574  0.0350 -0.4529  0.5079
    1PA     H8R  563   1.706   6.339   4.682  0.8630 -0.8770  0.6265
    1PA     H8S  564   1.741   6.232   4.557  1.5125 -0.0499 -0.2966
    1PA     C17  565   1.842   6.428   4.556 -0.5147  0.1789 -0.1013
    1PA     H7R  566   1.892   6.387   4.468 -1.1579 -0.4745 -0.1728
    1PA     H7S  567   1.816   6.532   4.534 -0.2401  1.0503  3.2215
    1PA     C16  568   1.950   6.433   4.664 -0.0940 -0.3213 -0.4900
    1PA     H6R  569   1.985   6.332   4.684 -0.1526 -0.8657 -2.9202
    1PA     H6S  570   2.040   6.484   4.628  0.9142 -1.2776  0.5811
    1PA     C15  571   1.905   6.515   4.787  0.1858 -0.9281  0.0227
    1PA     H5R  572   1.889   6.617   4.753  0.4360 -0.7622  0.3940
    1PA     H5S  573   1.808   6.492   4.829  0.0331  0.5400  0.5251
    1PA     C14  574   2.012   6.511   4.897  0.7399  0.0831 -0.4628
    1PA     H4R  575   2.038   6.405   4.891  1.1860  0.1567  0.0426
    1PA     H4S  576   2.102   6.569   4.875  0.6832  0.2580 -0.2341
    1PA     C13  577   1.954   6.562   5.030  0.5834  0.1700 -0.5649
    1PA     H3R  578   1.942   6.670   5.038  1.4299  0.1720  1.1111
    1PA     H3S  579   1.853   6.520   5.031  1.3335 -1.7769 -1.0687
    1PA     C12  580   2.030   6.502   5.149  0.3895  0.3760 -0.3358
    1PA     H2R  581   2.026   6.393   5.144 -1.4465  0.1713  3.1451
    1PA     H2S  582   2.136   6.524   5.135  1.1181 -2.6488 -0.3426
    2PC     C11  583   1.990   6.548   5.287  0.4056  0.7151 -0.4435
    2PC     O12  584   2.065   6.546   5.382 -0.0067 -0.2057 -0.1237
    2PC     O11  585   1.860   6.577   5.298  0.1552 -0.4397 -0.2306
    2PC      C1  586   1.804   6.607   5.427 -0.7837 -0.0717 -0.7112
    2PC      HR  587   1.695   6.596   5.429 -0.7086 -0.9556 -0.8938
    2PC      HS  588   1.838   6.536   5.503 -1.1372  0.8015  0.2758
    2PC      C2  589   1.841   6.753   5.456 -0.2189 -0.3398 -0.0662
    2PC      HX  590   1.947   6.758   5.433 -0.3881 -0.9542 -1.0195
    2PC      C3  591   1.816   6.792   5.603 -0.4598  0.1309 -0.2304
    2PC      HA  592   1.710   6.810   5.621  0.0314  2.1714  0.9538
    2PC      HB  593   1.851   6.711   5.667  0.8324  1.0440  0.2566
    2PC     O31  594   1.886   6.916   5.626 -0.0914 -0.1925  0.3921
    2PC     P31  595   1.809   7.034   5.702  0.0310 -0.1508  0.4531
    2PC     O32  596   1.929   7.056   5.806 -0.1048  0.1901  0.5374
    2PC     C31  597   1.985   7.187   5.822 -0.1090  0.2946 -0.2478
    2PC     H1A  598   2.013   7.228   5.725  0.5233 -0.7252 -0.5083
    2PC     H1B  599   1.916   7.253   5.876  0.2653  0.0462  0.5568
    2PC     C32  600   2.115   7.174   5.904  0.1121 -0.3013 -0.6853
    2PC     H2A  601   2.077   7.153   6.004 -0.8604 -0.3410 -1.0479
    2PC     H2B  602   2.177   7.091   5.872 -0.7191 -1.4754  0.6340
    2PC     N31  603   2.211   7.288   5.915 -0.2566 -0.0071 -0.4580
    2PC     C33  604   2.259   7.303   5.773  0.6325 -0.0361 -0.1681
    2PC     H3A  605   2.323   7.218   5.749  2.0748  0.5259  1.4123
    2PC     H3B  606   2.176   7.317   5.704  0.4078  0.3581  0.1771
    2PC     H3C  607   2.336   7.381   5.769  2.0383 -1.3621  0.0964
    2PC     C34  608   2.141   7.413   5.959  0.2906  0.3070 -0.4647
    2PC     H4A  609   2.172   7.423   6.063 -0.4436 -0.4804 -0.1621
    2PC     H4B  610   2.174   7.504   5.907  1.9248 -0.1711 -0.3125
    2PC     H4C  611   2.034   7.400   5.941  0.7012 -0.7741 -2.4388
    2PC     C35  612   2.328   7.242   5.997 -0.4460  0.3598  0.0237
    2PC     H5A  613   2.366   7.152   5.948 -1.1076  0.3016 -0.3860
    2PC     H5B  614   2.294   7.221   6.098  1.2660 -1.2505  0.3222
    2PC     H5C  615   2.406   7.317   5.980 -0.2893 -0.1289 -1.5930
    2PC     O33  616   1.797   7.157   5.622 -0.0080 -0.4109  0.0558
    2PC     O34  617   1.675   7.002   5.757 -0.4629  0.4459 -0.3929
    2PC     O21  618   1.758   6.842   5.379  0.4830  0.4636  0.0881
    2PC     C21  619   1.815   6.949   5.323  0.3239  0.5289  0.0505
    2PC     O22  620   1.934   6.969   5.313  0.3785  0.4189  0.4447
    3OL     C12  621   1.703   7.035   5.268 -0.2812 -0.2390  0.0722
    3OL     H2R  622   1.692   7.120   5.335 -0.7296 -0.7099  0.6122
    3OL     H2S  623   1.611   6.976   5.267 -0.9355  0.7661  0.0172
    3OL     C13  624   1.735   7.082   5.126 -0.0881 -0.0320  0.1827
    3OL     H3R  625   1.835   7.120   5.105 -0.1038 -0.1291 -0.0793
    3OL     H3S  626   1.668   7.167   5.114 -0.2388  0.0243  1.3769
    3OL     C14  627   1.730   6.966   5.025 -0.0483  0.2589 -0.1579
    3OL     H4R  628   1.631   6.920   5.033  0.2489 -0.0655  2.6623
    3OL     H4S  629   1.812   6.898   5.052 -0.6250  0.3958  2.1375
    3OL     C15  630   1.749   7.023   4.884 -0.1342  0.3991 -0.1126
    3OL     H5R  631   1.846   7.070   4.867  0.5735 -1.4124 -1.3923
    3OL     H5S  632   1.666   7.088   4.857  0.3370  0.1545 -2.3723
    3OL     C16  633   1.752   6.913   4.777  0.2169  0.1300  0.1697
    3OL     H6R  634   1.659   6.858   4.792 -0.0202  0.6143  0.4893
    3OL     H6S  635   1.829   6.838   4.797 -0.7432 -0.7843  0.5289
    3OL     C17  636   1.766   6.959   4.631  0.1675 -0.1484  0.0755
    3OL     H7R  637   1.850   7.029   4.634 -0.1916  0.2585  1.5243
    3OL     H7S  638   1.677   7.019   4.609 -0.6657 -1.0042  0.9806
    3OL     C18  639   1.782   6.847   4.528  0.2757 -0.1283  0.0704
    3OL     H8R  640   1.880   6.801   4.545  0.5663 -0.1440 -1.4721
    3OL     H8S  641   1.798   6.893   4.430  1.6862  2.1458  1.2727
    3OL     C19  642   1.662   6.756   4.535  0.5533 -0.5086 -0.1152
    3OL     H9R  643   1.658   6.697   4.627  1.2675  0.9903  0.9207
    3OL    C110  644   1.573   6.740   4.438  0.2188 -0.3548  0.1662
    3OL    H10R  645   1.501   6.659   4.442 -0.0744 -0.1743 -1.1836
    3OL    C111  646   1.568   6.811   4.306  0.1302 -0.5247  0.0772
    3OL    H11R  647   1.607   6.913   4.316  1.7054 -1.2981  2.7460
    3OL    H11S  648   1.461   6.817   4.286  0.0410  0.3696  0.7379
    3OL    C112  649   1.639   6.734   4.193  0.8033  0.1807  0.0055
    3OL    H12R  650   1.584   6.642   4.172  0.0880  0.7572 -0.7280
    3OL    H12S  651   1.740   6.702   4.217  0.7209 -0.7562 -0.8554
    3OL    C113  652   1.632   6.818   4.065  0.0681 -0.0916 -0.1413
    3OL    H13R  653   1.669   6.919   4.081  0.2403 -0.3136  0.9314
    3OL    H13S  654   1.531   6.844   4.035  0.6550  0.2230 -2.0259
    3OL    C114  655   1.692   6.761   3.935  0.2695  0.4987 -0.3101
    3OL    H14R  656   1.800   6.750   3.952  0.5350 -1.3012 -2.6417
    3OL    H14S  657   1.667   6.834   3.858 -0.3189 -1.1553 -1.7581
    3OL    C115  658   1.644   6.621   3.895  0.0949  0.4811 -0.0395
    3OL    H15R  659   1.536   6.631   3.882  0.3860  0.6651 -3.0830
    3OL    H15S  660   1.670   6.546   3.970  0.2658 -1.4416 -1.9376
    3OL    C116  661   1.694   6.579   3.756 -0.6330  0.4429 -0.2964
    3OL    H16R  662   1.802   6.570   3.747 -0.7272 -0.2396 -0.8771
    3OL    H16S  663   1.675   6.644   3.671  0.2043 -1.4984 -2.0501
    3OL    C117  664   1.636   6.441   3.720  0.2722  0.0827 -0.4066
    3OL    H17R  665   1.530   6.455   3.698 -0.0562 -0.8191  0.5109
    3OL    H17S  666   1.644   6.376   3.807 -0.9822  1.0801  0.4897
    3OL    C118  667   1.702   6.381   3.596 -0.5336 -0.0975 -0.7568
    3OL    H18R  668   1.675   6.276   3.581  2.5788 -1.7057  3.0242
    3OL    H18S  669   1.810   6.371   3.608 -0.2279  1.8848 -1.4887
    3OL    H18T  670   1.680   6.433   3.502 -0.4011 -0.1967 -0.8445
    1PA    C116  671   1.703   1.728   4.132  0.1492  0.0265  0.2868
    1PA    H16R  672   1.681   1.653   4.056  1.3050 -0.1290  0.0918
    1PA    H16S  673   1.764   1.809   4.093 -0.0038  0.4275  0.8633
    1PA    H16T  674   1.607   1.778   4.146  0.0054  0.5847 -2.2589
    1PA    C115  675   1.743   1.662   4.265  0.2675 -0.0043  0.2344
    1PA    H15R  676   1.850   1.638   4.263  0.2938  0.1054  0.3247
    1PA    H15S  677   1.724   1.728   4.349 -1.3864 -0.8844  0.6021
    1PA    C114  678   1.664   1.533   4.288  0.5597 -0.2966 -0.3778
    1PA    H14R  679   1.555   1.546   4.292  0.9550  4.4085  0.8828
    1PA    H14S  680   1.696   1.472   4.203  3.4258  1.6989 -0.8512
    1PA    C113  681   1.703   1.461   4.418  0.7744  0.1526 -0.1935
    1PA    H13R  682   1.812   1.452   4.416  0.6900 -2.0325  1.2732
    1PA    H13S  683   1.673   1.521   4.503  0.6196  0.5324 -0.5130
    1PA    C112  684   1.635   1.324   4.433  0.5605  0.3822  0.9754
    1PA    H12R  685   1.529   1.344   4.450  0.0951 -1.1291  0.0287
    1PA    H12S  686   1.648   1.272   4.338 -1.1801  0.0966  0.8626
    1PA    C111  687   1.695   1.231   4.539  0.0481 -0.5177  0.4849
    1PA    H11R  688   1.645   1.134   4.536  0.0361 -0.4884 -1.1702
    1PA    H11S  689   1.801   1.209   4.522  0.3630 -0.9155  2.6164
    1PA    C110  690   1.680   1.300   4.675  0.1812  0.3949  0.0459
    1PA    H10R  691   1.725   1.238   4.753 -1.3399  2.1934  2.5253
    1PA    H10S  692   1.730   1.396   4.665 -1.2309  0.8978 -3.1885
    1PA     C19  693   1.543   1.329   4.739  0.0924  0.2157 -0.0633
    1PA     H9R  694   1.471   1.380   4.675 -2.6636 -1.2941  1.6533
    1PA     H9S  695   1.487   1.236   4.753 -0.4904  0.5456 -0.1897
    1PA     C18  696   1.562   1.401   4.873  0.1219 -0.2608  0.1921
    1PA     H8R  697   1.477   1.371   4.934  0.1432 -1.0863 -0.1718
    1PA     H8S  698   1.646   1.362   4.931  2.1278  2.3292 -0.7658
    1PA     C17  699   1.581   1.552   4.850  0.2896 -0.2370  0.4791
    1PA     H7R  700   1.678   1.559   4.800  1.7957  1.0802  3.3675
    1PA     H7S  701   1.497   1.595   4.794  0.7494 -0.7891 -0.6738
    1PA     C16  702   1.588   1.620   4.987  0.4080 -0.0983  0.4036
    1PA     H6R  703   1.500   1.589   5.044  0.4826  0.2508  0.7085
    1PA     H6S  704   1.669   1.578   5.047  0.2657  0.6365  1.1263
    1PA     C15  705   1.606   1.772   4.988  0.0371 -0.0547  0.7753
    1PA     H5R  706   1.516   1.817   4.946 -0.8237 -0.8283  1.7609
    1PA     H5S  707   1.614   1.804   5.092 -1.4844 -1.7402  1.4578
    1PA     C14  708   1.742   1.814   4.929 -0.1692  0.2042  0.4815
    1PA     H4R  709   1.822   1.809   5.003  2.0434 -3.9329 -1.8690
    1PA     H4S  710   1.770   1.745   4.850 -0.8665  0.5605 -0.0893
    1PA     C13  711   1.736   1.949   4.856 -0.3250  0.0389  0.1848
    1PA     H3R  712   1.679   1.933   4.764 -0.9848 -0.1737  0.6252
    1PA     H3S  713   1.698   2.030   4.919  0.3260  0.3409  0.2056
    1PA     C12  714   1.879   1.999   4.827 -0.1033 -0.5032  0.3326
    1PA     H2R  715   1.942   1.918   4.789  0.9757  1.4439 -2.3340
    1PA     H2S  716   1.880   2.082   4.756 -2.3223 -0.7609 -0.1000
    2PC     C11  717   1.941   2.042   4.958  0.1516 -0.5179  0.2175
    2PC     O12  718   1.878   2.057   5.061  0.3725 -0.1274  0.2963
    2PC     O11  719   2.075   2.037   4.954  0.1508 -0.6106  0.2884
    2PC      C1  720   2.155   2.039   5.073  0.3486  0.3627  0.1512
    2PC      HR  721   2.260   2.061   5.057 -0.3455  2.1974 -2.5755
    2PC      HS  722   2.115   2.122   5.132 -0.1846  1.1176 -1.2244
    2PC      C2  723   2.142   1.905   5.147 -0.1940  0.4541  0.2304
    2PC      HX  724   2.036   1.886   5.163 -0.2249  0.2990 -0.1477
    2PC      C3  725   2.189   1.927   5.292  0.5481  0.2231  0.0271
    2PC      HA  726   2.296   1.947   5.284  0.2017  1.9524 -0.7682
    2PC      HB  727   2.146   2.016   5.337 -0.6761 -0.6897  0.7023
    2PC     O31  728   2.160   1.808   5.368 -0.2280  0.2289 -0.2551
    2PC     P31  729   2.193   1.823   5.524 -0.3515 -0.1798 -0.1866
    2PC     O32  730   2.057   1.893   5.570  0.0683  0.6165 -0.1247
    2PC     C31  731   2.083   1.977   5.683  0.3650  0.0176  0.2572
    2PC     H1A  732   2.113   1.933   5.779 -0.7462  0.8019  1.0037
    2PC     H1B  733   2.143   2.063   5.654 -0.5418  0.2037 -1.1928
    2PC     C32  734   1.942   2.034   5.708  0.2692 -0.2358  0.2963
    2PC     H2A  735   1.959   2.136   5.745  3.3524  0.0743 -1.6223
    2PC     H2B  736   1.884   2.042   5.616  2.0443  2.0505 -0.7392
    2PC     N31  737   1.847   1.959   5.797 -0.0893 -0.2098 -0.0614
    2PC     C33  738   1.844   1.813   5.764  0.3893 -0.1040 -0.6005
    2PC     H3A  739   1.820   1.808   5.658  0.1260 -1.5412 -0.4961
    2PC     H3B  740   1.938   1.761   5.782  1.3871  1.1059 -2.0829
    2PC     H3C  741   1.762   1.763   5.817  1.9431 -0.4346  1.6185
    2PC     C34  742   1.889   1.979   5.940 -1.2334 -1.1136  0.4137
    2PC     H4A  743   1.994   1.951   5.941 -0.5818  1.0518 -0.7079
    2PC     H4B  744   1.890   2.087   5.957  0.7823 -1.2579  1.4727
    2PC     H4C  745   1.830   1.923   6.012 -1.2389 -2.4110 -0.5581
    2PC     C35  746   1.705   2.005   5.791  0.0561  0.2738  0.1206
    2PC     H5A  747   1.668   1.996   5.689 -4.3346  0.6799  1.4632
    2PC     H5B  748   1.697   2.107   5.830 -2.0862  0.4070 -0.5518
    2PC     H5C  749   1.636   1.936   5.841  0.4386 -0.5786 -0.5267
    2PC     O33  750   2.203   1.693   5.594  0.0370 -0.1660 -0.2149
    2PC     O34  751   2.321   1.894   5.552 -0.2112 -0.2061 -0.7484
    2PC     O21  752   2.208   1.799   5.075 -0.1438  0.3623  0.4100
    2PC     C21  753   2.132   1.694   5.044  0.0729  0.2940  0.1083
    2PC     O22  754   2.024   1.664   5.092 -0.1087 -0.4451 -0.7254
    3OL     C12  755   2.195   1.602   4.942 -0.3548 -0.4778  0.5254
    3OL     H2R  756   2.118   1.539   4.897  1.5405  0.1456 -4.1916
    3OL     H2S  757   2.271   1.534   4.980  0.6349  1.5772  2.4463
    3OL     C13  758   2.270   1.683   4.835 -0.7883 -0.9550 -0.1526
    3OL     H3R  759   2.368   1.684   4.884 -1.1284  0.4138  0.5450
    3OL     H3S  760   2.235   1.784   4.811 -1.3167 -0.8094  1.1573
    3OL     C14  761   2.286   1.597   4.709  0.0128 -0.4166 -0.4297
    3OL     H4R  762   2.291   1.494   4.745  3.3176 -0.7549 -1.4603
    3OL     H4S  763   2.386   1.608   4.667  0.2908 -0.0122  0.3083
    3OL     C15  764   2.175   1.603   4.604 -0.4402 -0.7349  0.0206
    3OL     H5R  765   2.148   1.705   4.575  0.8587 -0.1509  0.7695
    3OL     H5S  766   2.083   1.555   4.637 -1.6175  0.5030 -1.2846
    3OL     C16  767   2.218   1.526   4.478 -0.1381 -0.3003 -0.1473
    3OL     H6R  768   2.241   1.425   4.514  2.1195 -0.3948 -1.6631
    3OL     H6S  769   2.310   1.567   4.436 -0.6869 -1.0564 -2.1753
    3OL     C17  770   2.119   1.531   4.361  0.5615 -0.1591 -0.7421
    3OL     H7R  771   2.093   1.632   4.331  0.7730  0.6141  1.5078
    3OL     H7S  772   2.029   1.487   4.405  0.6875  0.6884  0.4138
    3OL     C18  773   2.163   1.449   4.239  0.1748 -0.7651 -0.4800
    3OL     H8R  774   2.162   1.341   4.254 -1.5255 -0.7084  0.0147
    3OL     H8S  775   2.255   1.496   4.205 -0.0524  0.3309  0.3555
    3OL     C19  776   2.070   1.484   4.125 -0.1872 -0.2142 -0.0212
    3OL     H9R  777   2.049   1.589   4.110 -1.8238 -0.7458 -1.7225
    3OL    C110  778   1.981   1.401   4.073 -0.4018  0.1736 -0.2729
    3OL    H10R  779   1.911   1.447   4.003  0.2628  2.8978  0.7117
    3OL    C111  780   1.991   1.251   4.084 -0.0552  0.2235  0.0908
    3OL    H11R  781   1.941   1.220   4.176  3.1462 -2.2111  1.2086
    3OL    H11S  782   2.098   1.230   4.083 -0.0545  0.2488 -0.2447
    3OL    C112  783   1.937   1.174   3.963 -0.8195  0.5617  0.2134
    3OL    H12R  784   2.005   1.207   3.884 -0.1431 -0.0717  0.5160
    3OL    H12S  785   1.835   1.212   3.951 -0.5106  0.8721 -1.6188
    3OL    C113  786   1.935   1.022   3.982 -0.3943  0.5379  0.0826
    3OL    H13R  787   1.883   0.999   4.075 -0.3471 -1.1145 -0.2622
    3OL    H13S  788   2.037   0.985   3.988 -1.0754 -1.3792  0.8664
    3OL    C114  789   1.853   0.948   3.876  0.1702 -0.2170  0.1662
    3OL    H14R  790   1.752   0.989   3.876  0.3866  0.4602 -2.0031
    3OL    H14S  791   1.845   0.841   3.897  1.9670 -0.6118 -0.9971
    3OL    C115  792   1.912   0.959   3.735 -0.0975  0.0084  0.0709
    3OL    H15R  793   1.883   0.864   3.690 -1.7852  0.3745  0.3465
    3OL    H15S  794   2.021   0.964   3.733 -0.0987  0.1623  0.4110
    3OL    C116  795   1.844   1.070   3.654 -0.2316 -0.0297  0.1318
    3OL    H16R  796   1.853   1.163   3.711 -0.8929  0.0435  0.1252
    3OL    H16S  797   1.741   1.036   3.643 -0.7598  1.2146  0.9575
    3OL    C117  798   1.934   1.094   3.532 -0.1105 -0.3050  0.1684
    3OL    H17R  799   1.932   1.006   3.467 -1.4174  0.4062 -0.7899
    3OL    H17S  800   2.036   1.121   3.562 -0.9024  1.3113  1.5902
    3OL    C118  801   1.872   1.216   3.463 -0.3461 -0.4824  0.0654
    3OL    H18R  802   1.887   1.308   3.521 -0.6394 -1.3882  1.6552
    3OL    H18S  803   1.765   1.200   3.450 -0.2670 -0.4742 -0.6283
    3OL    H18T  804   1.906   1.234   3.361  0.9691 -1.8970  0.2166
    1PA    C116  805   1.904   5.200   4.367  0.1210 -0.3829 -0.4870
    1PA    H16R  806   1.896   5.283   4.438 -0.0923 -1.8567  1.2837
    1PA    H16S  807   2.004   5.174   4.333 -1.4135 -2.7697 -3.6446
    1PA    H16T  808   1.863   5.112   4.417  0.9543  0.2305  1.3822
    1PA    C115  809   1.823   5.252   4.247  0.0111  0.3200 -0.1173
    1PA    H15R  810   1.883   5.332   4.204  0.8213  1.6357  3.1741
    1PA    H15S  811   1.809   5.172   4.174  0.2525  0.4536 -0.3104
    1PA    C114  812   1.683   5.302   4.287 -0.0427  0.0349  0.0583
    1PA    H14R  813   1.639   5.215   4.336  3.7279 -1.0999  1.7906
    1PA    H14S  814   1.693   5.379   4.363  2.7298  0.5283 -0.6725
    1PA    C113  815   1.606   5.355   4.165 -0.1157  0.3422  0.2382
    1PA    H13R  816   1.612   5.281   4.085 -3.7651 -1.4876  1.4131
    1PA    H13S  817   1.502   5.369   4.196  0.5230  6.2535  0.6852
    1PA    C112  818   1.658   5.491   4.119  0.2122 -0.0603 -0.6063
    1PA    H12R  819   1.653   5.561   4.203 -2.5757  2.1937 -2.4673
    1PA    H12S  820   1.762   5.484   4.087  0.7591 -2.7498  1.4086
    1PA    C111  821   1.564   5.562   4.020 -0.6713  0.3690  0.5161
    1PA    H11R  822   1.577   5.500   3.931  1.0832 -0.5247  1.3340
    1PA    H11S  823   1.458   5.554   4.047 -0.7692 -0.8435 -0.1607
    1PA    C110  824   1.607   5.707   3.995  0.4458 -0.0150  0.1391
    1PA    H10R  825   1.706   5.722   4.037  1.7540 -0.6103 -2.4810
    1PA    H10S  826   1.616   5.722   3.887  1.3615 -0.5255  0.1351
    1PA     C19  827   1.504   5.809   4.046 -0.0200 -0.2654 -0.2840
    1PA     H9R  828   1.493   5.893   3.978  0.1208 -0.7946 -0.9700
    1PA     H9S  829   1.409   5.756   4.057  0.1096 -0.1778  1.6918
    1PA     C18  830   1.542   5.863   4.185 -0.9106  0.1175 -0.1839
    1PA     H8R  831   1.559   5.787   4.261  1.8993 -0.4751 -1.2768
    1PA     H8S  832   1.641   5.907   4.173 -0.5073 -0.7931 -0.3028
    1PA     C17  833   1.443   5.970   4.233 -0.7371  0.1962 -0.0020
    1PA     H7R  834   1.469   6.050   4.163  0.5712 -1.0618 -1.0144
    1PA     H7S  835   1.340   5.943   4.212 -1.1337  1.5194  0.1060
    1PA     C16  836   1.454   6.020   4.378  0.4652 -0.1422  0.0336
    1PA     H6R  837   1.556   6.059   4.384  0.1929  0.5620  0.1232
    1PA     H6S  838   1.384   6.103   4.389 -0.1868 -0.7000  0.1985
    1PA     C15  839   1.434   5.911   4.485 -0.3449  0.1672  0.2034
    1PA     H5R  840   1.351   5.845   4.460 -1.3869  1.4136  0.2244
    1PA     H5S  841   1.525   5.851   4.485  1.2481  2.4277 -1.1723
    1PA     C14  842   1.387   5.965   4.621 -0.4645  0.1482  0.1696
    1PA     H4R  843   1.466   6.031   4.658  1.5097 -1.7823 -0.3704
    1PA     H4S  844   1.300   6.028   4.602 -1.7543 -1.6029 -0.0088
    1PA     C13  845   1.363   5.862   4.732 -0.0947 -0.1274 -0.0010
    1PA     H3R  846   1.300   5.786   4.686 -2.5838  1.5773  0.3571
    1PA     H3S  847   1.457   5.820   4.768  1.9272  2.3818 -1.9514
    1PA     C12  848   1.289   5.933   4.847 -0.7630 -0.4445 -0.2329
    1PA     H2R  849   1.357   6.007   4.889  0.3223 -0.4518 -1.8733
    1PA     H2S  850   1.201   5.986   4.811 -1.0265  0.0293  1.0755
    2PC     C11  851   1.244   5.844   4.960  0.7502 -0.2142  0.5804
    2PC     O12  852   1.270   5.725   4.968 -0.9435 -0.6588  0.0641
    2PC     O11  853   1.183   5.913   5.058  0.1137 -0.1886  0.1710
    2PC      C1  854   1.142   5.843   5.177 -0.5066 -0.2511 -0.0723
    2PC      HR  855   1.088   5.754   5.144  0.4860 -0.4050 -1.3765
    2PC      HS  856   1.233   5.823   5.235 -0.3847 -0.3291 -0.2890
    2PC      C2  857   1.052   5.930   5.265  0.0547  0.0962  0.1639
    2PC      HX  858   1.075   6.037   5.262 -0.1758  0.1371 -0.1918
    2PC      C3  859   1.044   5.882   5.411 -0.2407  0.2458  0.1996
    2PC      HA  860   1.146   5.867   5.448 -0.0418 -2.4902 -1.2392
    2PC      HB  861   0.982   5.952   5.468  0.5952  1.5219 -0.4023
    2PC     O31  862   0.969   5.760   5.420 -0.1437  0.1546 -0.2036
    2PC     P31  863   0.951   5.698   5.567 -0.3383  0.0754 -0.2606
    2PC     O32  864   0.887   5.555   5.530  0.5864 -0.3564 -0.2209
    2PC     C31  865   0.766   5.563   5.453  0.1345  0.2696  0.5358
    2PC     H1A  866   0.693   5.615   5.516 -1.1399 -1.2393  0.3607
    2PC     H1B  867   0.783   5.607   5.355  0.0202  0.7271  0.7195
    2PC     C32  868   0.704   5.422   5.451  0.4885  0.1071  0.9088
    2PC     H2A  869   0.756   5.360   5.378 -1.0450 -0.7423  0.5179
    2PC     H2B  870   0.729   5.376   5.547 -5.8778 -1.5981  2.1654
    2PC     N31  871   0.557   5.406   5.429  0.6411  0.4580 -0.4552
    2PC     C33  872   0.518   5.463   5.296 -0.4266  0.0589 -0.3206
    2PC     H3A  873   0.416   5.434   5.270 -1.2899  1.2662  1.5612
    2PC     H3B  874   0.523   5.572   5.299  4.0667  0.0421  0.1988
    2PC     H3C  875   0.583   5.421   5.219 -0.1696  0.3874 -0.2833
    2PC     C34  876   0.514   5.263   5.433  0.8858  0.3987  0.2064
    2PC     H4A  877   0.571   5.208   5.358  1.7147  2.0751 -0.4224
    2PC     H4B  878   0.555   5.217   5.523  1.2607 -2.2697 -1.2084
    2PC     H4C  879   0.405   5.257   5.436  0.7772  2.2235  1.7804
    2PC     C35  880   0.483   5.474   5.540 -0.5884 -0.9115 -0.4031
    2PC     H5A  881   0.379   5.444   5.552 -0.2608 -2.1263 -0.5245
    2PC     H5B  882   0.500   5.582   5.533  2.2106 -1.1851  0.8150
    2PC     H5C  883   0.537   5.442   5.629 -0.7773  1.1089  0.4856
    2PC     O33  884   1.079   5.679   5.638 -0.0462  0.6192 -0.6336
    2PC     O34  885   0.865   5.783   5.652  0.1083  0.3545 -0.0872
    2PC     O21  886   0.917   5.916   5.216  0.3407  0.0975 -0.6314
    2PC     C21  887   0.810   5.982   5.263  0.4751 -0.0042 -0.1789
    2PC     O22  888   0.817   6.068   5.348 -0.0682  0.0706 -0.2086
    3OL     C12  889   0.677   5.938   5.206  0.4640 -0.4118  0.1566
    3OL     H2R  890   0.637   6.029   5.161 -0.2176  0.3484  2.1833
    3OL     H2S  891   0.615   5.915   5.293  0.2783 -0.3367  0.0449
    3OL     C13  892   0.684   5.835   5.093  0.2084 -0.3854  0.1171
    3OL     H3R  893   0.729   5.740   5.124 -0.6428 -1.3251 -1.3827
    3OL     H3S  894   0.738   5.877   5.007 -0.7389 -0.3086 -0.4620
    3OL     C14  895   0.538   5.803   5.058 -0.0948  0.6034  0.4454
    3OL     H4R  896   0.485   5.898   5.045  1.3642  1.1792 -1.8628
    3OL     H4S  897   0.507   5.742   5.143 -0.9766 -1.9062 -1.5369
    3OL     C15  898   0.502   5.708   4.942  0.8385  0.6334  0.1225
    3OL     H5R  899   0.393   5.702   4.934  0.9513  0.3080 -1.3221
    3OL     H5S  900   0.539   5.606   4.954  1.6963  0.7618 -1.1857
    3OL     C16  901   0.540   5.767   4.806 -0.5981  0.2181 -0.4788
    3OL     H6R  902   0.646   5.783   4.785 -0.8097 -0.3606 -2.0845
    3OL     H6S  903   0.502   5.869   4.804  1.4943  1.0844  0.5131
    3OL     C17  904   0.493   5.685   4.686  0.3572 -0.4508 -0.4100
    3OL     H7R  905   0.385   5.666   4.691  0.2804  0.3185  2.0397
    3OL     H7S  906   0.548   5.591   4.676  1.7600  0.2272  0.7643
    3OL     C18  907   0.529   5.754   4.554 -0.1869  0.1221 -0.2607
    3OL     H8R  908   0.638   5.750   4.551 -0.1971 -0.0158 -0.5179
    3OL     H8S  909   0.509   5.862   4.552  1.6258  0.5387  1.5957
    3OL     C19  910   0.457   5.685   4.440 -0.3796  0.2581 -0.2225
    3OL     H9R  911   0.364   5.637   4.468  0.2083  0.4367  2.3437
    3OL    C110  912   0.527   5.652   4.332  0.3450 -0.1122  0.3443
    3OL    H10R  913   0.486   5.588   4.254  1.9825 -0.6376 -0.1182
    3OL    C111  914   0.639   5.735   4.276  0.2838 -0.0647  0.2920
    3OL    H11R  915   0.735   5.689   4.300  0.7089  1.3446  1.4785
    3OL    H11S  916   0.637   5.835   4.319 -0.3629  0.1661 -0.2521
    3OL    C112  917   0.644   5.746   4.123  0.4492  0.7124  0.3462
    3OL    H12R  918   0.653   5.640   4.096 -0.8874  0.1645  1.8992
    3OL    H12S  919   0.731   5.792   4.075  0.9549 -2.8816 -2.6287
    3OL    C113  920   0.507   5.792   4.070  0.1765  0.4249  0.7981
    3OL    H13R  921   0.478   5.882   4.125  1.3617  0.2407  1.7835
    3OL    H13S  922   0.435   5.714   4.095  0.2427 -0.3382 -1.2576
    3OL    C114  923   0.518   5.831   3.922 -0.8190 -0.5740  0.4503
    3OL    H14R  924   0.573   5.753   3.868  0.7635  0.8308 -0.0567
    3OL    H14S  925   0.583   5.918   3.928  0.1199 -0.9232 -2.8478
    3OL    C115  926   0.390   5.853   3.841 -0.3786  0.4003  0.0039
    3OL    H15R  927   0.339   5.938   3.887 -0.1730  0.6157 -0.1673
    3OL    H15S  928   0.326   5.765   3.847  0.6630 -0.4541 -1.0827
    3OL    C116  929   0.423   5.878   3.694 -0.5208  0.4143 -0.0259
    3OL    H16R  930   0.482   5.801   3.644 -0.9534  0.1010 -0.0658
    3OL    H16S  931   0.475   5.972   3.680  2.6934 -1.4103 -1.4702
    3OL    C117  932   0.298   5.887   3.605 -0.1821 -0.1191 -0.5679
    3OL    H17R  933   0.327   5.899   3.501  1.7596  1.6739  0.1283
    3OL    H17S  934   0.245   5.973   3.646  0.9923 -1.0578  3.3979
    3OL    C118  935   0.217   5.756   3.603  0.0228 -0.2653  0.1822
    3OL    H18R  936   0.135   5.775   3.533  1.2893 -0.1714 -1.3248
    3OL    H18S  937   0.181   5.728   3.702  1.0677  1.4745  1.1027
    3OL    H18T  938   0.286   5.680   3.567  1.1502  0.3192  1.0594
    1PA    C116  939   4.306   3.215   3.783 -0.5357  0.3128 -0.7454
    1PA    H16R  940   4.214   3.264   3.748 -1.0244  0.7297  1.0217
    1PA    H16S  941   4.331   3.148   3.701  1.0120  1.3173 -1.1298
    1PA    H16T  942   4.377   3.297   3.797 -2.4246  1.9464 -0.1517
    1PA    C115  943   4.270   3.133   3.908  0.5137  0.4512 -0.3470
    1PA    H15R  944   4.219   3.046   3.868  1.8235 -0.6813  0.3867
    1PA    H15S  945   4.363   3.093   3.949 -0.5971 -0.9149  0.9374
    1PA    C114  946   4.202   3.214   4.020 -0.5034 -0.3332 -0.3896
    1PA    H14R  947   4.278   3.287   4.049 -1.6018 -0.5963  3.7870
    1PA    H14S  948   4.110   3.263   3.989  0.5910  1.1670 -1.4234
    1PA    C113  949   4.169   3.124   4.140 -0.2706 -0.0277 -0.0939
    1PA    H13R  950   4.086   3.177   4.189  0.5394  0.4105  0.8255
    1PA    H13S  951   4.147   3.023   4.103  0.3242 -0.6241  1.1571
    1PA    C112  952   4.279   3.104   4.245  0.0069 -0.6450 -0.4978
    1PA    H12R  953   4.359   3.065   4.182 -0.9023 -1.5918 -1.1058
    1PA    H12S  954   4.306   3.200   4.289  2.3520 -0.6157 -1.8582
    1PA    C111  955   4.240   2.995   4.346  0.1027  0.0550  0.2995
    1PA    H11R  956   4.161   2.931   4.306  0.1095 -0.1168  0.5598
    1PA    H11S  957   4.324   2.927   4.362 -0.0695  0.0823  1.4132
    1PA    C110  958   4.193   3.049   4.482  0.0041  0.3048  0.1658
    1PA    H10R  959   4.108   3.117   4.473 -0.0354  0.2070 -0.2224
    1PA    H10S  960   4.169   2.958   4.537  2.1329 -0.3910  0.0013
    1PA     C19  961   4.299   3.125   4.563  0.1249 -0.0950  0.3837
    1PA     H9R  962   4.396   3.078   4.547  0.2749  0.4658 -0.4831
    1PA     H9S  963   4.313   3.226   4.524 -3.6099  0.8931  1.2174
    1PA     C18  964   4.267   3.125   4.713 -0.0765  0.0981  0.3410
    1PA     H8R  965   4.171   3.176   4.720 -1.5216 -2.2535 -1.0204
    1PA     H8S  966   4.260   3.021   4.746 -0.5000  0.6545  2.0825
    1PA     C17  967   4.373   3.202   4.793  0.1404 -0.1012  0.2450
    1PA     H7R  968   4.472   3.155   4.790  2.2849  3.7098  2.7409
    1PA     H7S  969   4.388   3.293   4.734  0.0051 -1.2212 -1.6231
    1PA     C16  970   4.326   3.219   4.938 -0.2765  0.2706  0.0662
    1PA     H6R  971   4.385   3.306   4.965  1.4561 -0.8974  0.2244
    1PA     H6S  972   4.219   3.224   4.957 -1.1614 -2.9245 -2.9823
    1PA     C15  973   4.378   3.095   5.011 -0.2347  0.0039 -0.4067
    1PA     H5R  974   4.322   3.005   4.987  0.1834 -0.1236 -0.9149
    1PA     H5S  975   4.480   3.073   4.977 -0.3272 -1.9680  0.4382
    1PA     C14  976   4.384   3.116   5.163 -0.2495  0.0182 -0.4082
    1PA     H4R  977   4.426   3.212   5.194 -2.2375  0.9017 -0.2963
    1PA     H4S  978   4.281   3.119   5.199  0.0698 -1.0166  0.6566
    1PA     C13  979   4.453   3.005   5.244  0.2803  0.7509  0.1600
    1PA     H3R  980   4.442   3.018   5.352  0.0930 -1.8475  0.5144
    1PA     H3S  981   4.399   2.911   5.227 -0.7976  1.6856 -2.0022
    1PA     C12  982   4.602   2.988   5.211  0.2935  0.1601  0.4892
    1PA     H2R  983   4.605   2.963   5.104  2.6152  2.3875 -0.0546
    1PA     H2S  984   4.655   3.083   5.219  0.2403  0.0484  2.4524
    2PC     C11  985   4.672   2.887   5.297  0.1793  0.0524  0.4561
    2PC     O12  986   4.632   2.848   5.405 -0.2064 -0.2825  0.1944
    2PC     O11  987   4.788   2.844   5.247 -0.2569  0.0062 -0.5329
    2PC      C1  988   4.873   2.760   5.327 -0.4427 -0.1564 -0.5069
    2PC      HR  989   4.968   2.755   5.272 -0.1027  0.2617  0.0313
    2PC      HS  990   4.895   2.811   5.421  1.7488  0.4342 -1.2846
    2PC      C2  991   4.806   2.622   5.335 -0.1190 -0.3017 -0.2684
    2PC      HX  992   4.711   2.625   5.388 -0.7681 -2.3282 -1.2062
    2PC      C3  993   4.900   2.529   5.413 -0.5072 -0.0431  0.5218
    2PC      HA  994   4.985   2.505   5.347 -1.4209 -0.5502 -0.5043
    2PC      HB  995   4.927   2.584   5.503 -1.0439  1.5446 -0.2536
    2PC     O31  996   4.832   2.409   5.452 -0.8058 -0.3975 -1.0165
    2PC     P31  997   4.716   2.409   5.562  0.0583 -0.0015 -0.0950
    2PC     O32  998   4.747   2.267   5.629 -0.4315 -0.0590  0.0187
    2PC     C31  999   4.654   2.158   5.619 -0.5822  0.0899 -0.2186
    2PC     H1A 1000   4.557   2.198   5.647 -0.3683 -0.4655  1.4288
    2PC     H1B 1001   4.645   2.127   5.515 -2.4098  0.1462 -0.0989
    2PC     C32 1002   4.708   2.052   5.717 -0.1929  0.6723  0.2023
    2PC     H2A 1003   4.640   1.967   5.711  0.9230 -0.1592 -1.5101
    2PC     H2B 1004   4.813   2.028   5.698 -1.2908 -1.6312 -4.2415
    2PC     N31 1005   4.704   2.088   5.862  0.2516 -0.3209  0.4701
    2PC     C33 1006   4.563   2.106   5.910 -0.2723 -0.3899 -1.0073
    2PC     H3A 1007   4.571   2.161   6.003  0.1901 -3.4571  0.8858
    2PC     H3B 1008   4.499   2.150   5.833 -1.3148 -0.6406 -0.3020
    2PC     H3C 1009   4.524   2.010   5.945  1.4507 -0.1419  1.8795
    2PC     C34 1010   4.773   1.979   5.937  0.4120 -0.1061  0.6366
    2PC     H4A 1011   4.711   1.889   5.936 -0.3600  0.4162  0.0409
    2PC     H4B 1012   4.871   1.956   5.895 -0.3277 -2.0220 -0.1424
    2PC     H4C 1013   4.786   2.010   6.041 -3.7272 -0.2056  1.3656
    2PC     C35 1014   4.785   2.210   5.894 -0.0844 -0.0019  0.1260
    2PC     H5A 1015   4.747   2.287   5.828  1.3147  2.3413  1.9006
    2PC     H5B 1016   4.892   2.193   5.877 -0.3495 -1.5606 -0.1565
    2PC     H5C 1017   4.781   2.236   6.000  2.1162  2.2869 -0.2617
    2PC     O33 1018   4.738   2.526   5.650  0.5471 -0.4146  0.3400
    2PC     O34 1019   4.582   2.423   5.500 -0.0437  0.4897  0.2249
    2PC     O21 1020   4.791   2.568   5.202  0.4079  0.1632 -0.5194
    2PC     C21 1021   4.689   2.603   5.123  0.1325 -0.0288 -0.2513
    2PC     O22 1022   4.590   2.662   5.161  0.4398  0.3862 -0.0877
    3OL     C12 1023   4.726   2.580   4.978 -0.6477 -0.0451 -0.4544
    3OL     H2R 1024   4.833   2.591   4.963 -0.9187  0.4430 -2.1969
    3OL     H2S 1025   4.681   2.657   4.916 -0.4691  0.6933  0.3099
    3OL     C13 1026   4.679   2.442   4.932 -0.7629 -0.0293 -0.3845
    3OL     H3R 1027   4.571   2.437   4.948 -0.7134  2.1052  0.9796
    3OL     H3S 1028   4.725   2.366   4.996 -1.1094  2.1685  2.6704
    3OL     C14 1029   4.710   2.408   4.785  0.3758 -0.7771  0.0185
    3OL     H4R 1030   4.818   2.415   4.767  0.6653  0.5191  1.9189
    3OL     H4S 1031   4.674   2.492   4.725  2.5550  2.3535  2.6817
    3OL     C15 1032   4.666   2.268   4.742 -0.1899 -0.7601  0.5320
    3OL     H5R 1033   4.560   2.277   4.718  0.7331  2.4837 -3.5304
    3OL     H5S 1034   4.683   2.191   4.818 -0.5836  1.3073  2.8146
    3OL     C16 1035   4.721   2.228   4.605  0.4736 -0.5367  0.7287
    3OL     H6R 1036   4.829   2.231   4.587  0.3463  0.7160  0.0437
    3OL     H6S 1037   4.680   2.303   4.536 -0.0413 -0.7319  0.8137
    3OL     C17 1038   4.677   2.086   4.568 -0.1230 -0.1669 -0.0233
    3OL     H7R 1039   4.700   2.075   4.462  1.3230 -1.7062  0.4147
    3OL     H7S 1040   4.569   2.080   4.588 -0.5116  2.4223 -1.0493
    3OL     C18 1041   4.761   1.989   4.652  0.0531  0.2033  0.2282
    3OL     H8R 1042   4.715   1.890   4.655 -0.8503  0.6146  0.3329
    3OL     H8S 1043   4.762   2.015   4.758 -1.8724 -1.5300  0.7372
    3OL     C19 1044   4.907   1.987   4.612  0.0699 -0.2306  0.3034
    3OL     H9R 1045   4.954   2.085   4.611  0.0156 -0.1815  1.4702
    3OL    C110 1046   4.965   1.887   4.547  0.3483  0.3673 -0.3866
    3OL    H10R 1047   5.061   1.903   4.500  1.4108  1.0584  1.8639
    3OL    C111 1048   4.919   1.746   4.522  0.2554  0.3041  0.1265
    3OL    H11R 1049   4.932   1.730   4.415 -0.4315 -1.8985  0.3082
    3OL    H11S 1050   4.812   1.731   4.540  0.2718  0.4052  0.3100
    3OL    C112 1051   5.005   1.639   4.591 -0.0018 -0.1757 -0.2933
    3OL    H12R 1052   5.111   1.653   4.573  0.6025 -0.5599  2.4918
    3OL    H12S 1053   4.979   1.537   4.561 -0.4500 -0.2249  0.2417
    3OL    C113 1054   4.998   1.651   4.744 -0.1508 -0.1844 -0.2987
    3OL    H13R 1055   4.892   1.657   4.771 -0.1531 -1.4698  0.0723
    3OL    H13S 1056   5.046   1.744   4.775 -3.5133  2.4922 -2.4610
    3OL    C114 1057   5.053   1.524   4.812 -0.1888 -0.1752 -0.2508
    3OL    H14R 1058   5.159   1.510   4.794  0.5759  0.9744  2.8664
    3OL    H14S 1059   4.998   1.435   4.781 -0.1299 -0.3693  0.1928
    3OL    C115 1060   5.027   1.528   4.963  0.1498 -0.5382 -0.1831
    3OL    H15R 1061   4.924   1.530   5.000  0.6588 -1.5267  1.3886
    3OL    H15S 1062   5.070   1.619   5.005 -0.4750  0.2643 -1.2252
    3OL    C116 1063   5.095   1.410   5.034  0.6953 -0.0557  0.1066
    3OL    H16R 1064   5.195   1.395   4.993  1.3191  1.3725  1.0198
    3OL    H16S 1065   5.119   1.432   5.139  1.0991 -0.9130  0.2038
    3OL    C117 1066   5.016   1.278   5.029  0.3428  0.1575  0.0441
    3OL    H17R 1067   4.976   1.247   4.932  0.2044 -1.7857  0.6765
    3OL    H17S 1068   4.925   1.281   5.090 -0.2192 -0.6860 -0.7330
    3OL    C118 1069   5.092   1.159   5.088 -0.2925  0.0485  0.6644
    3OL    H18R 1070   5.036   1.065   5.091 -0.5729  0.2305  1.2815
    3OL    H18S 1071   5.175   1.141   5.019 -1.3927 -1.6416 -0.2966
    3OL    H18T 1072   5.129   1.166   5.190 -1.5583 -0.9526  1.2166
    1PA    C116 1073   0.830   2.983   3.764 -0.1926 -0.9501 -0.3009
    1PA    H16R 1074   0.722   2.999   3.765 -0.0561  1.3760  4.2764
    1PA    H16S 1075   0.852   2.924   3.675 -1.3114  0.0055 -1.2477
    1PA    H16T 1076   0.882   3.079   3.750 -1.3246 -0.3043 -0.1916
    1PA    C115 1077   0.856   2.921   3.902 -0.3227 -0.1059  0.1137
    1PA    H15R 1078   0.965   2.916   3.912 -0.2982  1.1128  0.5383
    1PA    H15S 1079   0.817   2.979   3.986  1.3240  0.7657  0.3309
    1PA    C114 1080   0.804   2.777   3.895  0.3752 -0.3481 -0.1943
    1PA    H14R 1081   0.697   2.778   3.877  0.1855  1.1409  0.8851
    1PA    H14S 1082   0.829   2.716   3.808  0.0215 -0.2116 -0.3910
    1PA    C113 1083   0.829   2.697   4.024 -0.0361  0.2338  0.2489
    1PA    H13R 1084   0.785   2.601   3.996 -0.2047  0.3404  0.1415
    1PA    H13S 1085   0.935   2.685   4.044  0.1029  0.5503 -0.2773
    1PA    C112 1086   0.762   2.758   4.148  0.7310  0.7516  0.4113
    1PA    H12R 1087   0.789   2.863   4.161  2.0179  0.8800 -2.4822
    1PA    H12S 1088   0.656   2.760   4.123  0.9924  2.7951 -0.7249
    1PA    C111 1089   0.773   2.669   4.273 -0.0147  0.1952  0.0865
    1PA    H11R 1090   0.735   2.570   4.246  2.4326 -0.8833  0.3080
    1PA    H11S 1091   0.875   2.656   4.308  0.1264 -0.1145 -0.4359
    1PA    C110 1092   0.704   2.728   4.397 -0.4627  0.0089 -0.0705
    1PA    H10R 1093   0.739   2.830   4.416  1.1092 -0.7386  1.3306
    1PA    H10S 1094   0.595   2.724   4.388 -0.4865  0.4452 -0.0162
    1PA     C19 1095   0.728   2.643   4.522  0.0550  0.3498  0.0650
    1PA     H9R 1096   0.679   2.546   4.511  1.7504 -0.7057  1.2398
    1PA     H9S 1097   0.834   2.616   4.519  0.7774  2.5527  2.1966
    1PA     C18 1098   0.691   2.715   4.652 -0.1165 -0.0878  0.2622
    1PA     H8R 1099   0.740   2.813   4.654  0.2871 -0.2911  0.5010
    1PA     H8S 1100   0.584   2.734   4.668 -0.3252 -1.2442  0.3273
    1PA     C17 1101   0.735   2.626   4.769  0.2461 -0.0048  0.1905
    1PA     H7R 1102   0.670   2.538   4.775  1.3827 -0.7831  1.6603
    1PA     H7S 1103   0.840   2.596   4.761  0.5728  0.6878  1.6152
    1PA     C16 1104   0.733   2.701   4.903  0.3137  0.2573  0.0453
    1PA     H6R 1105   0.811   2.778   4.896  0.8482 -0.4233 -2.5434
    1PA     H6S 1106   0.635   2.746   4.914 -0.6637 -1.9637  1.0967
    1PA     C15 1107   0.754   2.617   5.030  0.4918 -0.0724 -0.2001
    1PA     H5R 1108   0.717   2.681   5.111 -1.2740 -0.3174 -0.7525
    1PA     H5S 1109   0.688   2.529   5.036  1.3699 -0.6579  1.7883
    1PA     C14 1110   0.902   2.585   5.050  0.6581  0.8275  0.0199
    1PA     H4R 1111   0.941   2.559   4.952 -1.5605 -2.6610 -0.1176
    1PA     H4S 1112   0.963   2.672   5.077  1.5672  0.1877  0.0961
    1PA     C13 1113   0.919   2.483   5.164 -0.1328  0.5107 -0.1469
    1PA     H3R 1114   0.852   2.504   5.247 -0.6765 -1.1788 -0.1210
    1PA     H3S 1115   0.878   2.385   5.136  0.3124  0.3841 -0.3616
    1PA     C12 1116   1.066   2.482   5.205 -0.0949  0.3162 -0.2845
    1PA     H2R 1117   1.122   2.447   5.118 -1.5345 -0.6628 -0.8441
    1PA     H2S 1118   1.110   2.579   5.232 -1.3387  0.9781 -0.5692
    2PC     C11 1119   1.097   2.392   5.321 -0.2695  0.4213 -0.1556
    2PC     O12 1120   1.015   2.326   5.381  0.9158 -0.6761  0.3156
    2PC     O11 1121   1.229   2.377   5.344 -0.4501 -0.3172  0.4503
    2PC      C1 1122   1.294   2.263   5.403 -0.1421 -0.3008  0.1394
    2PC      HR 1123   1.250   2.229   5.496 -0.4269 -1.6747 -0.4778
    2PC      HS 1124   1.293   2.185   5.327  1.4858 -0.3992  0.1851
    2PC      C2 1125   1.445   2.286   5.425 -0.1946  0.1616  0.0308
    2PC      HX 1126   1.483   2.191   5.462 -0.3008 -1.0807 -2.7899
    2PC      C3 1127   1.476   2.385   5.538  0.1614  0.0934 -0.0064
    2PC      HA 1128   1.475   2.487   5.499 -0.4320 -0.6186 -1.9513
    2PC      HB 1129   1.393   2.378   5.610  1.0671 -0.1468  1.0404
    2PC     O31 1130   1.598   2.349   5.605  0.0179 -0.5153 -0.0685
    2PC     P31 1131   1.622   2.367   5.762 -0.2053  0.1107 -0.1043
    2PC     O32 1132   1.590   2.524   5.763 -0.4068  0.0695  0.0311
    2PC     C31 1133   1.588   2.590   5.890 -0.5134  0.2576 -0.0681
    2PC     H1A 1134   1.508   2.552   5.954  0.2037 -0.5917  0.3417
    2PC     H1B 1135   1.683   2.559   5.936  1.5825  1.3728 -3.3076
    2PC     C32 1136   1.576   2.743   5.881 -0.2570  0.2734 -0.1479
    2PC     H2A 1137   1.515   2.761   5.792  2.2415  0.0491 -2.0074
    2PC     H2B 1138   1.543   2.776   5.979 -0.4601  0.3520 -0.2410
    2PC     N31 1139   1.702   2.821   5.856  0.2478 -0.4797 -0.0004
    2PC     C33 1140   1.654   2.963   5.862  0.2771 -0.4509 -0.4274
    2PC     H3A 1141   1.593   2.975   5.952 -0.0292  0.8817 -0.7845
    2PC     H3B 1142   1.733   3.039   5.867 -1.9842  2.0741 -0.6863
    2PC     H3C 1143   1.583   2.978   5.780  1.0211 -0.0359 -1.0091
    2PC     C34 1144   1.808   2.799   5.959  0.5660  0.2973 -0.1514
    2PC     H4A 1145   1.764   2.827   6.055 -0.0267 -0.3068 -0.2371
    2PC     H4B 1146   1.850   2.698   5.965  1.2360  0.6218  0.8480
    2PC     H4C 1147   1.892   2.868   5.950  0.9674  0.5145  3.6087
    2PC     C35 1148   1.753   2.782   5.721 -0.1262 -0.3280 -0.1891
    2PC     H5A 1149   1.769   2.675   5.705 -1.8598 -0.5951 -0.3826
    2PC     H5B 1150   1.838   2.847   5.701  1.4070 -1.4755  2.1917
    2PC     H5C 1151   1.674   2.808   5.651  1.5599  1.8279 -1.4200
    2PC     O33 1152   1.520   2.291   5.840  0.1190 -0.1532  0.0659
    2PC     O34 1153   1.747   2.327   5.832 -0.2342 -0.0949 -0.1695
    2PC     O21 1154   1.522   2.339   5.316  0.1765 -0.1127  0.1591
    2PC     C21 1155   1.562   2.250   5.223 -0.3516 -0.0369 -0.1456
    2PC     O22 1156   1.542   2.131   5.226 -0.5310 -0.0027  0.0308
    3OL     C12 1157   1.625   2.308   5.099 -0.0169  0.1043  0.0888
    3OL     H2R 1158   1.702   2.234   5.074 -0.4361 -0.5024  0.5620
    3OL     H2S 1159   1.674   2.403   5.122 -1.0807  0.8736 -0.7068
    3OL     C13 1160   1.528   2.333   4.983 -0.1592  0.1416  0.2151
    3OL     H3R 1161   1.448   2.401   5.015 -1.0760 -1.4435  1.4019
    3OL     H3S 1162   1.479   2.240   4.956 -1.4033  0.4426  1.3001
    3OL     C14 1163   1.601   2.396   4.863  0.2537 -0.6328  0.0570
    3OL     H4R 1164   1.683   2.464   4.882 -0.9663  0.8357  0.2449
    3OL     H4S 1165   1.530   2.444   4.795  0.9603  0.2792 -0.0469
    3OL     C15 1166   1.668   2.287   4.778  0.6125 -0.1611 -0.2640
    3OL     H5R 1167   1.704   2.209   4.845 -1.1058  1.2678  2.5056
    3OL     H5S 1168   1.758   2.327   4.729  0.7017 -0.0157  0.0173
    3OL     C16 1169   1.582   2.227   4.666  0.6397  0.1494 -0.4547
    3OL     H6R 1170   1.496   2.185   4.718  2.2046  0.3466  2.4849
    3OL     H6S 1171   1.643   2.150   4.616 -0.8829 -1.5945  0.2567
    3OL     C17 1172   1.533   2.332   4.565  0.4562  0.2539 -0.2575
    3OL     H7R 1173   1.613   2.395   4.526 -0.3112  0.6439 -1.2216
    3OL     H7S 1174   1.460   2.400   4.608  0.7288  0.0985  0.4632
    3OL     C18 1175   1.464   2.280   4.438  0.3181  0.0521 -0.1017
    3OL     H8R 1176   1.360   2.258   4.461  0.1713  0.4813 -0.3498
    3OL     H8S 1177   1.519   2.193   4.401 -0.1907 -0.3901  0.1911
    3OL     C19 1178   1.464   2.396   4.341 -0.4460 -0.0416 -0.2164
    3OL     H9R 1179   1.405   2.477   4.382 -0.3008 -0.5369  0.9946
    3OL    C110 1180   1.503   2.398   4.214 -0.1933 -0.0053 -0.1387
    3OL    H10R 1181   1.487   2.485   4.152  1.7525 -0.2281 -1.0375
    3OL    C111 1182   1.558   2.280   4.137  0.1143  0.0494 -0.0060
    3OL    H11R 1183   1.568   2.193   4.202 -1.5225  0.4221  0.8164
    3OL    H11S 1184   1.657   2.309   4.100 -0.2514 -0.6960 -1.6878
    3OL    C112 1185   1.485   2.245   4.006 -0.2546  0.3174  0.1251
    3OL    H12R 1186   1.379   2.229   4.030 -1.1283  3.9915 -0.7394
    3OL    H12S 1187   1.528   2.155   3.962 -1.0419 -0.4626  0.9048
    3OL    C113 1188   1.501   2.350   3.896  0.1642  0.6320  0.4829
    3OL    H13R 1189   1.608   2.365   3.880 -0.0678  0.6540 -1.2508
    3OL    H13S 1190   1.457   2.444   3.929 -1.3207 -0.2555  1.1160
    3OL    C114 1191   1.426   2.323   3.764 -0.3820 -0.7328  1.0485
    3OL    H14R 1192   1.423   2.413   3.702 -2.7000 -1.5936 -0.1754
    3OL    H14S 1193   1.322   2.303   3.788 -1.2765  1.3012 -0.8303
    3OL    C115 1194   1.483   2.203   3.688 -0.1936  0.1987 -0.3075
    3OL    H15R 1195   1.415   2.178   3.607  0.9540 -2.2507 -0.5925
    3OL    H15S 1196   1.493   2.114   3.750 -4.0908 -1.0342 -1.2301
    3OL    C116 1197   1.625   2.232   3.635 -0.1339 -0.1512 -0.3377
    3OL    H16R 1198   1.691   2.249   3.721 -2.7216  2.2527  1.3548
    3OL    H16S 1199   1.633   2.328   3.584  1.2055  0.1802  0.4400
    3OL    C117 1200   1.679   2.118   3.547 -0.3925  0.1280 -0.8590
    3OL    H17R 1201   1.616   2.101   3.460 -1.0690 -1.3174 -0.1221
    3OL    H17S 1202   1.660   2.029   3.607 -0.2398  1.6851  1.6602
    3OL    C118 1203   1.829   2.125   3.517 -0.1521 -0.2531  0.2181
    3OL    H18R 1204   1.894   2.133   3.604 -0.2008  0.5879  0.1790
    3OL    H18S 1205   1.840   2.214   3.455 -2.9300 -1.5734 -2.4192
    3OL    H18T 1206   1.856   2.035   3.462 -1.8239 -0.2427 -0.6726
    1PA    C116 1207   1.276   1.517   4.156 -0.0244 -0.0450  0.2950
    1PA    H16R 1208   1.261   1.509   4.048 -0.5499  1.0018  0.2735
    1PA    H16S 1209   1.334   1.430   4.187 -0.5252 -0.2688  0.6245
    1PA    H16T 1210   1.338   1.606   4.167  1.5405 -0.8979 -1.1386
    1PA    C115 1211   1.144   1.543   4.229  0.0557 -0.0065  0.4268
    1PA    H15R 1212   1.162   1.542   4.337  0.2671  0.7127  0.3980
    1PA    H15S 1213   1.107   1.643   4.206  1.6362  0.6417  0.6122
    1PA    C114 1214   1.041   1.434   4.198 -0.2863  0.4400 -0.0152
    1PA    H14R 1215   1.008   1.426   4.094 -1.9756 -0.8214  0.5671
    1PA    H14S 1216   1.091   1.338   4.213 -0.6730 -0.1361 -2.0470
    1PA    C113 1217   0.918   1.431   4.290 -0.1857 -0.1755  0.1030
    1PA    H13R 1218   0.856   1.510   4.249  1.1106 -0.7505 -3.2790
    1PA    H13S 1219   0.868   1.336   4.268 -1.3236  0.2054  0.9443
    1PA    C112 1220   0.942   1.424   4.441 -0.5703  0.4966  0.1993
    1PA    H12R 1221   0.994   1.330   4.462  0.7193  1.0806 -0.2452
    1PA    H12S 1222   1.001   1.509   4.475  2.2312 -1.5466  0.8382
    1PA    C111 1223   0.806   1.425   4.512 -0.4277 -0.0934  0.4905
    1PA    H11R 1224   0.737   1.347   4.480  1.2753 -2.0432  1.3503
    1PA    H11S 1225   0.823   1.428   4.620  1.5086  0.2336  0.2212
    1PA    C110 1226   0.724   1.551   4.481 -0.4077 -0.3571 -0.6610
    1PA    H10R 1227   0.783   1.642   4.478 -0.6638 -0.2091 -2.6183
    1PA    H10S 1228   0.688   1.565   4.379 -1.9931  0.6269  0.0058
    1PA     C19 1229   0.605   1.564   4.577  0.3546 -1.0086  0.3905
    1PA     H9R 1230   0.516   1.605   4.529 -0.1968 -0.4249  1.8735
    1PA     H9S 1231   0.581   1.467   4.622 -0.7802 -0.5504  0.7970
    1PA     C18 1232   0.633   1.665   4.689  0.4540  0.2650 -0.7583
    1PA     H8R 1233   0.673   1.756   4.643 -0.3022  0.8842 -0.2105
    1PA     H8S 1234   0.540   1.691   4.739  0.9137  0.7397 -0.1230
    1PA     C17 1235   0.715   1.621   4.811 -0.2913  0.2841 -0.2440
    1PA     H7R 1236   0.664   1.543   4.868 -1.1395 -0.3640 -1.8307
    1PA     H7S 1237   0.813   1.581   4.781 -0.3550 -2.3670  2.6044
    1PA     C16 1238   0.734   1.745   4.899 -0.4025 -0.1365  0.3817
    1PA     H6R 1239   0.794   1.814   4.839 -1.1772  0.2826  0.0751
    1PA     H6S 1240   0.642   1.800   4.922  0.1822  1.0545 -0.0468
    1PA     C15 1241   0.824   1.716   5.019 -0.4543 -0.8142  0.2567
    1PA     H5R 1242   0.884   1.628   4.993 -1.4599 -0.9598 -1.7583
    1PA     H5S 1243   0.880   1.806   5.047  0.7075 -1.5493  0.3920
    1PA     C14 1244   0.733   1.675   5.136 -0.8605 -0.8436 -0.0707
    1PA     H4R 1245   0.656   1.747   5.165  0.5082  0.5665  0.2049
    1PA     H4S 1246   0.673   1.588   5.110 -2.5244  0.1189  0.3690
    1PA     C13 1247   0.819   1.656   5.262 -0.4849 -0.2561 -0.2311
    1PA     H3R 1248   0.876   1.563   5.259  2.0535  1.2179 -2.1303
    1PA     H3S 1249   0.892   1.736   5.248  1.8257 -2.7618 -4.4731
    1PA     C12 1250   0.749   1.670   5.398 -0.0675 -0.3525 -0.0050
    1PA     H2R 1251   0.681   1.756   5.395 -0.1527 -0.4167  0.1054
    1PA     H2S 1252   0.670   1.596   5.411 -0.5995 -0.0124 -1.1202
    2PC     C11 1253   0.838   1.684   5.519 -0.2705 -0.4303  0.1541
    2PC     O12 1254   0.853   1.793   5.570  0.1193 -0.3097 -0.2152
    2PC     O11 1255   0.890   1.567   5.559 -0.2860 -0.3783  0.3255
    2PC      C1 1256   0.986   1.568   5.666 -0.2948  0.2398  0.3312
    2PC      HR 1257   0.956   1.642   5.740  0.9538  1.7060 -0.5538
    2PC      HS 1258   0.971   1.468   5.708  0.9418  0.0721  0.4154
    2PC      C2 1259   1.132   1.580   5.620 -0.3185  0.6281  0.3545
    2PC      HX 1260   1.143   1.507   5.539 -0.9514  1.7703 -0.7918
    2PC      C3 1261   1.236   1.552   5.730 -0.1219  0.0110  0.0188
    2PC      HA 1262   1.212   1.610   5.820 -0.9207 -0.2783  0.0062
    2PC      HB 1263   1.231   1.448   5.762 -1.7627 -0.9092 -2.8624
    2PC     O31 1264   1.370   1.564   5.680 -0.0585 -0.2634  0.1219
    2PC     P31 1265   1.492   1.527   5.777  0.4103  0.3361 -0.2249
    2PC     O32 1266   1.574   1.443   5.668  0.0767 -0.3498  0.0442
    2PC     C31 1267   1.680   1.501   5.591 -0.4755  0.2558 -0.2792
    2PC     H1A 1268   1.657   1.602   5.556  1.0336 -0.0523 -2.3562
    2PC     H1B 1269   1.771   1.502   5.652 -0.2355 -1.5994 -0.5200
    2PC     C32 1270   1.695   1.407   5.470  0.4766  0.1893 -0.1198
    2PC     H2A 1271   1.790   1.442   5.430  0.1653 -1.7896 -2.8726
    2PC     H2B 1272   1.711   1.304   5.502  0.3340  0.4813  0.9414
    2PC     N31 1273   1.582   1.391   5.373  0.0545 -0.2146  0.4280
    2PC     C33 1274   1.481   1.288   5.414 -0.6821 -0.0636 -0.9337
    2PC     H3A 1275   1.388   1.298   5.359  0.0559 -0.7467 -2.3719
    2PC     H3B 1276   1.538   1.196   5.403  0.7058  0.8535 -1.8380
    2PC     H3C 1277   1.454   1.309   5.518 -0.8385 -2.6229 -0.4052
    2PC     C34 1278   1.502   1.517   5.356 -0.2439 -0.4852 -0.1996
    2PC     H4A 1279   1.556   1.605   5.320  2.2448 -1.4018  1.0664
    2PC     H4B 1280   1.419   1.506   5.287  0.5771 -0.8997 -1.1534
    2PC     H4C 1281   1.474   1.540   5.458  2.1680  2.0356  0.0081
    2PC     C35 1282   1.625   1.356   5.234  0.0593 -0.0814  0.3955
    2PC     H5A 1283   1.538   1.315   5.182 -0.2477 -0.9552  1.5728
    2PC     H5B 1284   1.703   1.280   5.246  1.0915  0.6903 -1.1172
    2PC     H5C 1285   1.676   1.439   5.184  0.2424  0.0830  0.8487
    2PC     O33 1286   1.553   1.648   5.835  0.1937  0.3958 -0.1186
    2PC     O34 1287   1.456   1.445   5.896  0.3512  0.2300 -0.3157
    2PC     O21 1288   1.154   1.711   5.564 -0.0764  0.2117 -0.5357
    2PC     C21 1289   1.148   1.735   5.432 -0.2791  0.2939 -0.5116
    2PC     O22 1290   1.118   1.651   5.349  0.6473 -0.0858 -0.4704
    3OL     C12 1291   1.172   1.882   5.408 -0.2083  0.4297  0.3688
    3OL     H2R 1292   1.279   1.896   5.422 -0.1687 -0.6155  1.2348
    3OL     H2S 1293   1.107   1.924   5.485 -1.1269  0.7057 -0.5223
    3OL     C13 1294   1.148   1.925   5.263 -0.5916  0.2582  0.3811
    3OL     H3R 1295   1.155   2.034   5.260 -2.8292  0.4985  1.3239
    3OL     H3S 1296   1.047   1.896   5.232 -0.2444  0.4956 -1.0422
    3OL     C14 1297   1.245   1.858   5.165 -0.4650  0.5046  0.3370
    3OL     H4R 1298   1.252   1.749   5.164  2.5617  0.5980  0.8626
    3OL     H4S 1299   1.349   1.890   5.178 -0.5048  3.1919 -4.1759
    3OL     C15 1300   1.204   1.896   5.023 -0.3305 -0.1301  0.1245
    3OL     H5R 1301   1.103   1.857   5.007 -0.5362 -0.5274  2.1256
    3OL     H5S 1302   1.250   1.838   4.942 -0.3667 -0.5086  0.3761
    3OL     C16 1303   1.208   2.047   4.995  0.3470 -0.2297 -0.3562
    3OL     H6R 1304   1.297   2.096   5.034 -0.7530  2.0974 -0.6183
    3OL     H6S 1305   1.124   2.099   5.043  0.1896 -0.8692  0.0763
    3OL     C17 1306   1.193   2.068   4.844  0.7138 -0.0276 -0.3646
    3OL     H7R 1307   1.092   2.039   4.814  0.8216 -3.2119  1.8643
    3OL     H7S 1308   1.269   2.006   4.796  1.1650  0.6890 -0.5802
    3OL     C18 1309   1.203   2.217   4.809  0.4552  0.2584  0.7389
    3OL     H8R 1310   1.224   2.225   4.702 -1.0250  1.3872  0.4888
    3OL     H8S 1311   1.283   2.267   4.863  1.0443  0.0286  0.0897
    3OL     C19 1312   1.079   2.297   4.842  0.3535  0.4221 -0.0192
    3OL     H9R 1313   1.049   2.309   4.945  1.2107  2.4371  0.0422
    3OL    C110 1314   1.005   2.370   4.760  0.3506 -0.0408 -0.4350
    3OL    H10R 1315   0.917   2.416   4.804 -0.4866 -0.8971 -1.1632
    3OL    C111 1316   1.027   2.388   4.612  0.1715  0.1988 -0.4330
    3OL    H11R 1317   0.931   2.404   4.562 -0.0411 -2.4303 -1.0105
    3OL    H11S 1318   1.063   2.294   4.570  0.1812  1.5268 -3.6808
    3OL    C112 1319   1.124   2.501   4.577  0.1513  0.1853 -0.5346
    3OL    H12R 1320   1.220   2.477   4.623  0.5030 -1.2137 -1.9205
    3OL    H12S 1321   1.084   2.598   4.608 -0.1245 -0.2671  0.5830
    3OL    C113 1322   1.143   2.509   4.425  0.2911 -0.0640 -0.5299
    3OL    H13R 1323   1.044   2.508   4.378 -0.8356  0.5594  1.6928
    3OL    H13S 1324   1.193   2.420   4.387  0.4476 -0.7261  1.1349
    3OL    C114 1325   1.214   2.641   4.398 -0.0233  0.1563 -0.2885
    3OL    H14R 1326   1.317   2.640   4.435 -0.1480  0.0074  0.0627
    3OL    H14S 1327   1.156   2.716   4.452 -1.5168 -1.1992  0.0396
    3OL    C115 1328   1.219   2.658   4.246  0.6270 -0.1001 -0.2993
    3OL    H15R 1329   1.121   2.661   4.198  0.8684 -1.3446 -0.9174
    3OL    H15S 1330   1.259   2.568   4.198 -1.7820 -0.3597 -1.9829
    3OL    C116 1331   1.297   2.789   4.230 -0.0224  0.3870  0.4657
    3OL    H16R 1332   1.377   2.795   4.305  1.9136 -1.7263 -1.2709
    3OL    H16S 1333   1.227   2.869   4.252 -1.8586 -1.0553  0.1033
    3OL    C117 1334   1.363   2.802   4.092  0.2875 -0.5147  0.5194
    3OL    H17R 1335   1.288   2.787   4.014 -1.5497  0.2555  2.0548
    3OL    H17S 1336   1.437   2.722   4.083  1.1440  0.3245  0.0025
    3OL    C118 1337   1.426   2.941   4.081 -0.2863 -0.2835  0.1024
    3OL    H18R 1338   1.495   2.959   3.999 -2.9230 -0.9950 -2.4546
    3OL    H18S 1339   1.481   2.964   4.172  2.2027  0.7988 -1.5733
    3OL    H18T 1340   1.349   3.018   4.067  0.0635 -0.0505 -0.5949
    1PA    C116 1341   0.720   0.852   3.778  0.2900  0.3195 -0.0036
    1PA    H16R 1342   0.614   0.848   3.753  0.2721  0.5070  0.0398
    1PA    H16S 1343   0.770   0.772   3.723 -0.0375  0.6889 -0.8523
    1PA    H16T 1344   0.752   0.942   3.725 -1.5698  2.2977  2.0231
    1PA    C115 1345   0.754   0.848   3.928 -0.6727 -0.1208  0.2057
    1PA    H15R 1346   0.728   0.751   3.973 -0.0477 -0.6064 -0.4582
    1PA    H15S 1347   0.862   0.855   3.934 -0.4695 -1.5431 -1.0305
    1PA    C114 1348   0.678   0.957   4.004  0.0065  0.4146  0.1154
    1PA    H14R 1349   0.707   1.053   3.961 -0.4054  1.4091  1.9380
    1PA    H14S 1350   0.571   0.947   3.987  0.0577 -1.5363  0.7311
    1PA    C113 1351   0.702   0.959   4.156 -0.1596 -0.5462  0.1550
    1PA    H13R 1352   0.650   1.045   4.198 -1.1127 -1.0026 -0.0657
    1PA    H13S 1353   0.670   0.865   4.201  2.0541 -0.6484  1.6732
    1PA    C112 1354   0.848   0.974   4.202 -0.4192  0.6095  0.6220
    1PA    H12R 1355   0.906   0.899   4.147 -0.6281 -0.7723  2.1945
    1PA    H12S 1356   0.890   1.069   4.168  1.3669 -0.0161  0.9598
    1PA    C111 1357   0.860   0.960   4.354 -0.3914  0.2830  0.5908
    1PA    H11R 1358   0.925   1.035   4.399  0.2294  0.3265 -0.3618
    1PA    H11S 1359   0.760   0.971   4.396 -1.7667 -1.6144 -1.9012
    1PA    C110 1360   0.911   0.819   4.389  0.0005  0.2003 -0.2825
    1PA    H10R 1361   0.832   0.758   4.345  0.2464  0.7858 -1.5830
    1PA    H10S 1362   0.996   0.795   4.326  0.5723  1.1216  0.1110
    1PA     C19 1363   0.922   0.788   4.539  0.1721  0.2740 -0.2792
    1PA     H9R 1364   0.830   0.814   4.593  0.6923  0.1429  0.6930
    1PA     H9S 1365   0.929   0.679   4.543 -1.6926  0.0644 -1.3277
    1PA     C18 1366   1.042   0.861   4.600  0.4821 -0.3479 -0.1407
    1PA     H8R 1367   1.127   0.848   4.532  0.6663  3.5324 -0.8491
    1PA     H8S 1368   1.026   0.969   4.600  2.5971  0.0481 -2.2404
    1PA     C17 1369   1.082   0.811   4.740 -0.5045 -0.1853  0.2072
    1PA     H7R 1370   1.089   0.702   4.735  0.1555 -0.1111 -2.7508
    1PA     H7S 1371   1.173   0.862   4.771 -2.2054  3.3541 -0.1498
    1PA     C16 1372   0.983   0.842   4.853 -0.1833  0.4557  0.3161
    1PA     H6R 1373   0.969   0.949   4.866  1.0581  0.8397 -1.1834
    1PA     H6S 1374   0.886   0.795   4.835  0.6892 -1.4123  0.3062
    1PA     C15 1375   1.024   0.792   4.992  0.0491  0.0819  0.1128
    1PA     H5R 1376   0.993   0.687   4.986 -0.3819  0.2612 -1.0815
    1PA     H5S 1377   1.131   0.799   5.012  0.7948 -3.0647 -1.9042
    1PA     C14 1378   0.932   0.850   5.099 -0.4238 -0.3162 -0.0733
    1PA     H4R 1379   0.955   0.955   5.122  0.0413 -0.0081 -1.8065
    1PA     H4S 1380   0.828   0.842   5.066 -0.7175 -0.2535  0.8247
    1PA     C13 1381   0.951   0.774   5.230  0.5124 -0.2015 -0.1368
    1PA     H3R 1382   0.942   0.666   5.216  1.7738 -0.6916  2.2278
    1PA     H3S 1383   1.054   0.791   5.264  1.1190 -1.5402 -1.2037
    1PA     C12 1384   0.838   0.799   5.331  0.1507 -0.6533 -0.4261
    1PA     H2R 1385   0.848   0.905   5.357  2.3660 -0.9576  0.1639
    1PA     H2S 1386   0.744   0.793   5.276 -1.6753 -0.2112  2.4631
    2PC     C11 1387   0.850   0.709   5.451 -0.2256  0.0490  0.1450
    2PC     O12 1388   0.786   0.608   5.472 -0.3441  0.0904 -0.0238
    2PC     O11 1389   0.943   0.753   5.539  0.2513 -0.4191 -0.1189
    2PC      C1 1390   0.963   0.693   5.668 -0.7371  0.3068  0.3826
    2PC      HR 1391   1.029   0.756   5.728  1.4708 -0.1247 -1.4909
    2PC      HS 1392   0.868   0.669   5.717 -1.5187 -0.6613 -1.4942
    2PC      C2 1393   1.035   0.558   5.650 -0.4870  0.5171 -0.2197
    2PC      HX 1394   0.966   0.489   5.601  1.3115 -1.0205 -0.6815
    2PC      C3 1395   1.070   0.492   5.784  0.2193  0.0995 -0.6089
    2PC      HA 1396   0.974   0.468   5.829  1.8206  0.3132  3.3101
    2PC      HB 1397   1.136   0.407   5.764 -1.5425 -1.1047 -1.5946
    2PC     O31 1398   1.120   0.592   5.875 -0.3581 -0.1123 -0.0470
    2PC     P31 1399   1.188   0.531   6.007 -0.0665  0.0310 -0.1282
    2PC     O32 1400   1.155   0.655   6.103  0.2468 -0.0179  0.0441
    2PC     C31 1401   1.038   0.647   6.186  0.1865  0.0951 -0.0287
    2PC     H1A 1402   0.951   0.626   6.123 -0.0440  0.6246  0.1072
    2PC     H1B 1403   1.054   0.565   6.256  1.7627  0.6000  0.2410
    2PC     C32 1404   1.017   0.785   6.251 -0.0393 -0.0542  0.2193
    2PC     H2A 1405   1.087   0.829   6.323 -0.5817  0.3377  0.5086
    2PC     H2B 1406   1.012   0.862   6.175  1.3923 -1.6219 -1.5876
    2PC     N31 1407   0.890   0.800   6.329 -0.1634  0.1912 -0.0315
    2PC     C33 1408   0.764   0.771   6.253  0.1361 -0.4124 -0.3009
    2PC     H3A 1409   0.679   0.778   6.320 -0.9165  1.7620 -1.7505
    2PC     H3B 1410   0.755   0.847   6.176  0.9782  0.5742  0.5540
    2PC     H3C 1411   0.770   0.672   6.206 -1.0874 -0.2908 -0.7467
    2PC     C34 1412   0.881   0.711   6.449 -0.8940  0.3680  0.0502
    2PC     H4A 1413   0.784   0.723   6.497 -0.9070  0.3905  0.0188
    2PC     H4B 1414   0.902   0.609   6.416 -0.4280  0.5337 -0.1739
    2PC     H4C 1415   0.964   0.740   6.514 -0.1047  0.3216 -0.9199
    2PC     C35 1416   0.880   0.941   6.379 -0.0381  0.1382  0.1445
    2PC     H5A 1417   0.871   1.005   6.291  3.0648 -0.8578 -1.0209
    2PC     H5B 1418   0.974   0.966   6.428 -0.2358  2.9275 -0.6853
    2PC     H5C 1419   0.797   0.954   6.448  1.0529 -0.3784  1.5847
    2PC     O33 1420   1.126   0.413   6.072  0.0478  0.0754  0.0617
    2PC     O34 1421   1.334   0.511   5.997 -0.0496  0.2658 -0.3684
    2PC     O21 1422   1.155   0.577   5.573 -0.0982 -0.6342  0.0863
    2PC     C21 1423   1.153   0.541   5.444  0.0604 -0.4569  0.0335
    2PC     O22 1424   1.071   0.467   5.393 -0.5149  0.3238 -0.1904
    3OL     C12 1425   1.266   0.600   5.364 -0.1288 -0.2869 -0.1108
    3OL     H2R 1426   1.355   0.588   5.427 -0.6840  0.7430  0.8843
    3OL     H2S 1427   1.240   0.705   5.361 -1.3372 -0.5606  0.4576
    3OL     C13 1428   1.283   0.553   5.219  0.1140 -0.0822 -0.1497
    3OL     H3R 1429   1.364   0.618   5.186  0.7476 -0.2865  0.9545
    3OL     H3S 1430   1.188   0.564   5.167  0.0518  0.0796 -0.0028
    3OL     C14 1431   1.328   0.407   5.204  0.6722  0.0728 -0.0077
    3OL     H4R 1432   1.361   0.369   5.301  2.9528 -0.1268 -0.8228
    3OL     H4S 1433   1.409   0.413   5.131  0.7771 -0.7149  0.0349
    3OL     C15 1434   1.220   0.306   5.160  0.0481  0.4672  0.5840
    3OL     H5R 1435   1.154   0.293   5.246 -0.3452 -1.5431  0.0285
    3OL     H5S 1436   1.267   0.211   5.133 -1.6513 -0.5097  0.9861
    3OL     C16 1437   1.121   0.346   5.049  0.6090  0.2282 -0.0124
    3OL     H6R 1438   1.172   0.376   4.958 -0.3297 -0.3581 -0.7517
    3OL     H6S 1439   1.058   0.431   5.073  0.6808  0.7306 -1.5318
    3OL     C17 1440   1.022   0.231   5.022  0.5164  0.3718 -0.2868
    3OL     H7R 1441   0.972   0.215   5.118  0.9411 -0.8648 -0.2586
    3OL     H7S 1442   1.085   0.142   5.011  2.0603  1.3610  0.1691
    3OL     C18 1443   0.925   0.240   4.904  0.0606 -0.3292  0.0246
    3OL     H8R 1444   0.843   0.302   4.940  1.7861  1.1741  1.6089
    3OL     H8S 1445   0.886   0.139   4.894  2.8359 -1.4823  0.0168
    3OL     C19 1446   0.983   0.286   4.772  0.2795 -0.7409 -0.0227
    3OL     H9R 1447   1.090   0.269   4.764  0.4558  0.2533  0.1107
    3OL    C110 1448   0.920   0.353   4.677 -0.1853 -0.3779  0.5320
    3OL    H10R 1449   0.976   0.372   4.585  2.2692 -4.2652  0.9566
    3OL    C111 1450   0.785   0.418   4.674 -0.3130 -0.6635 -0.1441
    3OL    H11R 1451   0.800   0.526   4.671 -0.0400 -0.6873  0.3410
    3OL    H11S 1452   0.731   0.390   4.765 -0.4575 -0.0452 -0.0347
    3OL    C112 1453   0.703   0.384   4.548 -0.9173  0.5233 -0.0944
    3OL    H12R 1454   0.618   0.452   4.545  0.3262  2.1090 -0.4483
    3OL    H12S 1455   0.664   0.282   4.543 -2.9974  1.2011  1.1613
    3OL    C113 1456   0.776   0.421   4.418 -0.1420 -0.5907  0.0019
    3OL    H13R 1457   0.860   0.351   4.413  0.2308 -0.1321 -0.1896
    3OL    H13S 1458   0.817   0.522   4.428  0.4129 -0.6858 -1.2430
    3OL    C114 1459   0.684   0.416   4.295 -0.2348 -0.0011  0.0424
    3OL    H14R 1460   0.606   0.492   4.299  0.1713  0.3665  2.2676
    3OL    H14S 1461   0.634   0.319   4.287  0.7927 -0.5898  0.4273
    3OL    C115 1462   0.774   0.441   4.174  0.7162 -0.5411  0.6185
    3OL    H15R 1463   0.859   0.372   4.180  1.7384  0.3816 -1.7107
    3OL    H15S 1464   0.810   0.544   4.169 -1.5481  0.2771 -0.1466
    3OL    C116 1465   0.698   0.426   4.041  0.1886 -0.3873  0.9017
    3OL    H16R 1466   0.611   0.492   4.046  0.7395  0.4310 -0.1069
    3OL    H16S 1467   0.659   0.324   4.029 -0.6940 -0.0354  0.6839
    3OL    C117 1468   0.782   0.455   3.916 -0.1262 -1.0485  0.5345
    3OL    H17R 1469   0.840   0.547   3.923 -0.1468 -0.8511 -1.4045
    3OL    H17S 1470   0.721   0.459   3.825 -0.9037  0.6871  1.1031
    3OL    C118 1471   0.889   0.356   3.868  0.8350  0.3345 -0.2471
    3OL    H18R 1472   0.911   0.355   3.761 -2.1047  0.0622 -0.9625
    3OL    H18S 1473   0.859   0.253   3.891 -0.3870  0.8093  0.3634
    3OL    H18T 1474   0.983   0.370   3.921  1.6117  0.0411 -1.4988
    1PA    C116 1475   0.763   5.925   3.461 -0.5936 -0.5739 -0.1769
    1PA    H16R 1476   0.794   6.025   3.430  2.2343 -0.5496  2.3014
    1PA    H16S 1477   0.655   5.915   3.445 -0.4138 -0.9301 -1.3041
    1PA    H16T 1478   0.812   5.855   3.393 -0.1545  1.7258 -2.4043
    1PA    C115 1479   0.798   5.894   3.607  0.5345 -0.0502 -0.3242
    1PA    H15R 1480   0.748   5.960   3.677 -0.6288 -1.4170  0.1794
    1PA    H15S 1481   0.768   5.793   3.637  0.3672  0.0297 -0.2238
    1PA    C114 1482   0.948   5.900   3.640  0.4971  0.0264 -0.1683
    1PA    H14R 1483   0.991   5.820   3.579 -2.4132 -1.0570 -0.9757
    1PA    H14S 1484   0.974   6.005   3.625 -0.5372  0.4698  0.9681
    1PA    C113 1485   0.968   5.866   3.788  0.0022 -0.5795 -0.2359
    1PA    H13R 1486   0.914   5.778   3.823  1.8914 -1.0491  1.6677
    1PA    H13S 1487   1.075   5.859   3.809  0.0012  1.5127  0.6881
    1PA    C112 1488   0.931   5.981   3.882 -0.5313 -0.4932 -0.5443
    1PA    H12R 1489   0.987   6.073   3.861 -2.9484  0.9778 -0.8440
    1PA    H12S 1490   0.823   5.997   3.879 -0.7875 -2.1770 -1.1076
    1PA    C111 1491   0.974   5.940   4.024 -0.3497 -0.1766 -0.5043
    1PA    H11R 1492   0.899   5.868   4.058 -0.9854  0.4309 -0.5938
    1PA    H11S 1493   1.074   5.897   4.035  0.6393  2.1075 -0.0970
    1PA    C110 1494   0.956   6.057   4.121 -0.5916 -0.6361  0.0079
    1PA    H10R 1495   1.008   6.140   4.073 -4.4510  0.9515 -1.9033
    1PA    H10S 1496   0.851   6.087   4.118 -0.2435  0.5619 -0.6618
    1PA     C19 1497   1.010   6.034   4.263 -0.7054  0.4609  0.2367
    1PA     H9R 1498   1.116   6.005   4.265 -1.0796 -1.4176 -2.2406
    1PA     H9S 1499   1.012   6.133   4.310  1.6474  0.4418  0.3212
    1PA     C18 1500   0.933   5.929   4.343  0.1759 -0.2696  0.1462
    1PA     H8R 1501   0.828   5.956   4.356  0.5303  1.5971 -0.5651
    1PA     H8S 1502   0.928   5.836   4.284  1.0661 -0.6386  0.6370
    1PA     C17 1503   0.993   5.900   4.481  0.4418 -0.4677 -0.0099
    1PA     H7R 1504   1.101   5.890   4.481  0.5305  0.4204 -0.0610
    1PA     H7S 1505   0.975   5.975   4.558  1.1346 -0.9756  0.6568
    1PA     C16 1506   0.947   5.766   4.540  0.2418 -0.2004  0.4488
    1PA     H6R 1507   0.838   5.770   4.531  0.3138  0.8213 -0.0750
    1PA     H6S 1508   0.984   5.687   4.474 -0.6984 -0.0206 -0.3143
    1PA     C15 1509   0.989   5.746   4.686  0.4188 -0.1835  0.3999
    1PA     H5R 1510   1.096   5.724   4.686  0.0780 -2.0003  0.0650
    1PA     H5S 1511   0.976   5.841   4.739  2.0628  0.2247  0.1363
    1PA     C14 1512   0.905   5.627   4.734 -0.1710  0.0024 -0.1532
    1PA     H4R 1513   0.799   5.648   4.721 -0.4875  0.9839  3.0998
    1PA     H4S 1514   0.939   5.534   4.689  3.4726 -0.2141  2.5703
    1PA     C13 1515   0.930   5.620   4.886  0.1592  0.2037 -0.1965
    1PA     H3R 1516   1.036   5.597   4.898 -0.1935 -1.1886  0.5254
    1PA     H3S 1517   0.896   5.715   4.928  1.7511  1.0512 -0.7313
    1PA     C12 1518   0.846   5.506   4.944  0.1021  0.1368 -0.4064
    1PA     H2R 1519   0.739   5.518   4.931  0.2626 -0.7483 -3.0127
    1PA     H2S 1520   0.868   5.415   4.888 -0.2787 -0.6391  0.6574
    2PC     C11 1521   0.889   5.482   5.087  0.2734 -1.1516 -0.6611
    2PC     O12 1522   0.805   5.448   5.169  0.6070 -0.1775  0.1032
    2PC     O11 1523   1.021   5.487   5.110  0.0752 -0.3169  0.3929
    2PC      C1 1524   1.064   5.445   5.240 -0.0593 -0.2735  0.4511
    2PC      HR 1525   1.169   5.476   5.243 -0.9486  3.3757 -1.1686
    2PC      HS 1526   0.999   5.498   5.311 -0.2706 -2.0718  1.6710
    2PC      C2 1527   1.061   5.292   5.234  0.1380 -0.2673  0.1799
    2PC      HX 1528   0.955   5.266   5.229  0.1412 -0.5737  1.3366
    2PC      C3 1529   1.126   5.228   5.358  0.1165 -0.0966  0.2785
    2PC      HA 1530   1.081   5.274   5.447 -0.1956  1.4475 -0.6232
    2PC      HB 1531   1.108   5.122   5.338 -1.0041 -0.0665  1.0110
    2PC     O31 1532   1.267   5.253   5.345  0.1344 -0.2537  0.1739
    2PC     P31 1533   1.368   5.201   5.458  0.3564  0.1821  0.1774
    2PC     O32 1534   1.357   5.314   5.571 -0.4964  0.0848  0.2004
    2PC     C31 1535   1.389   5.280   5.707  0.0902 -0.5512 -0.0891
    2PC     H1A 1536   1.337   5.189   5.737  2.5575 -2.0725 -0.1270
    2PC     H1B 1537   1.496   5.260   5.714  0.1905  0.3220  1.7340
    2PC     C32 1538   1.351   5.392   5.806 -0.1278 -0.9246  0.2528
    2PC     H2A 1539   1.275   5.457   5.763  1.8303  0.5058 -1.3009
    2PC     H2B 1540   1.319   5.349   5.901 -1.5205  0.1123  0.2831
    2PC     N31 1541   1.464   5.485   5.840 -0.6034 -0.0472 -0.5238
    2PC     C33 1542   1.559   5.411   5.928 -0.2135  0.3909 -0.5731
    2PC     H3A 1543   1.602   5.320   5.884  0.6000 -0.4802  1.8411
    2PC     H3B 1544   1.646   5.475   5.946 -1.0150  0.9009  1.8934
    2PC     H3C 1545   1.508   5.390   6.022 -0.5483 -0.2234 -0.8847
    2PC     C34 1546   1.530   5.537   5.716  0.0213 -0.1822 -0.2493
    2PC     H4A 1547   1.568   5.451   5.661 -3.8569 -2.4852  0.2781
    2PC     H4B 1548   1.462   5.594   5.653 -0.7406  0.5206  1.1636
    2PC     H4C 1549   1.611   5.598   5.757  0.6719  0.3391 -2.2312
    2PC     C35 1550   1.401   5.601   5.911 -0.4084  0.3923 -1.0626
    2PC     H5A 1551   1.487   5.663   5.938 -0.8883 -0.3054  2.5977
    2PC     H5B 1552   1.359   5.553   6.000 -0.1725 -2.0001 -2.1750
    2PC     H5C 1553   1.330   5.658   5.851  0.2869  2.0101 -0.4318
    2PC     O33 1554   1.327   5.064   5.496  0.1253  0.3192  0.4321
    2PC     O34 1555   1.504   5.182   5.402  0.2505 -0.3759  0.1084
    2PC     O21 1556   1.131   5.251   5.115 -0.2578  0.0223 -0.1527
    2PC     C21 1557   1.084   5.149   5.042 -0.4549  0.3337 -0.4662
    2PC     O22 1558   0.980   5.091   5.062 -0.1792 -0.3045 -0.8299
    3OL     C12 1559   1.169   5.121   4.920  0.3535 -0.3673  0.2439
    3OL     H2R 1560   1.273   5.116   4.953  0.6011 -1.7414 -0.6587
    3OL     H2S 1561   1.167   5.202   4.847 -1.4106 -0.4467  0.1633
    3OL     C13 1562   1.131   4.988   4.854  0.6446 -0.1663 -0.3390
    3OL     H3R 1563   1.024   4.993   4.831  0.9726  0.8942 -1.7856
    3OL     H3S 1564   1.150   4.906   4.924  1.3151 -0.7984 -1.2454
    3OL     C14 1565   1.212   4.963   4.726  0.8311  0.1332 -0.2808
    3OL     H4R 1566   1.314   4.982   4.759  0.4023  0.7039  0.7961
    3OL     H4S 1567   1.196   5.046   4.657 -1.7383 -1.5793 -1.9157
    3OL     C15 1568   1.192   4.821   4.670  0.3457 -0.1534  0.5939
    3OL     H5R 1569   1.206   4.753   4.754 -2.0957  0.7773  1.8733
    3OL     H5S 1570   1.267   4.810   4.592  0.4510 -0.9513  0.8025
    3OL     C16 1571   1.052   4.797   4.612  0.6759 -0.4217 -0.1022
    3OL     H6R 1572   1.034   4.850   4.519  1.1203 -2.4235 -1.3863
    3OL     H6S 1573   0.980   4.838   4.683 -0.5952 -0.1383 -1.4990
    3OL     C17 1574   1.013   4.652   4.580  0.0451 -0.3165  0.1590
    3OL     H7R 1575   1.047   4.585   4.659  3.3224  0.8629 -0.0884
    3OL     H7S 1576   1.078   4.631   4.494  1.2181  0.9819  0.6789
    3OL     C18 1577   0.866   4.623   4.549  0.1135 -0.3226 -0.1663
    3OL     H8R 1578   0.830   4.696   4.476 -2.2566 -1.0115  0.2083
    3OL     H8S 1579   0.805   4.641   4.638  1.7806  2.4026  0.5587
    3OL     C19 1580   0.858   4.482   4.497  0.4044 -0.2193 -0.4928
    3OL     H9R 1581   0.946   4.439   4.451  0.9784  1.7334 -1.3487
    3OL    C110 1582   0.755   4.401   4.517 -0.1298  0.6610  0.4162
    3OL    H10R 1583   0.772   4.300   4.480  0.4144  1.6701 -2.3194
    3OL    C111 1584   0.616   4.436   4.562 -0.4668 -0.1099 -0.0028
    3OL    H11R 1585   0.603   4.541   4.588  2.8720  0.2805  0.4383
    3OL    H11S 1586   0.594   4.383   4.655  0.4768  1.1937  1.0034
    3OL    C112 1587   0.514   4.386   4.458 -0.1838  0.5103 -0.5857
    3OL    H12R 1588   0.514   4.277   4.461  1.0532  0.5081  1.0081
    3OL    H12S 1589   0.541   4.416   4.357  0.7666 -1.0963 -0.8372
    3OL    C113 1590   0.376   4.445   4.488 -0.3332 -0.2351  0.2190
    3OL    H13R 1591   0.386   4.553   4.496 -0.4653 -0.2982  1.5078
    3OL    H13S 1592   0.331   4.407   4.581 -0.5943  1.3010  0.7554
    3OL    C114 1593   0.281   4.426   4.369 -0.1749  0.0918  0.0406
    3OL    H14R 1594   0.268   4.319   4.348  2.7313 -0.4612  0.5859
    3OL    H14S 1595   0.308   4.488   4.283 -0.5186 -1.1735 -1.0204
    3OL    C115 1596   0.145   4.486   4.404 -0.3084 -0.2477  0.1123
    3OL    H15R 1597   0.167   4.592   4.422  1.4434 -0.6823  0.7348
    3OL    H15S 1598   0.107   4.443   4.497  0.4720 -1.5317 -0.1368
    3OL    C116 1599   0.043   4.457   4.293 -0.2071 -0.0318 -0.0373
    3OL    H16R 1600   0.037   4.351   4.271 -0.6243 -0.3053  1.2939
    3OL    H16S 1601   0.076   4.508   4.202  1.5857  0.8486  1.0498
    3OL    C117 1602  -0.100   4.494   4.334 -0.0952  0.1657  0.1819
    3OL    H17R 1603  -0.109   4.602   4.342  0.1621  0.0774  2.1830
    3OL    H17S 1604  -0.137   4.454   4.429 -1.0716  0.6297  0.0127
    3OL    C118 1605  -0.200   4.459   4.223  0.4572  0.2007 -0.3317
    3OL    H18R 1606  -0.220   4.352   4.220  0.6339  0.1656 -0.2684
    3OL    H18S 1607  -0.166   4.496   4.127  2.3829 -0.1707  0.1713
    3OL    H18T 1608  -0.290   4.509   4.259  1.7352  1.4119  1.3469
    1PA    C116 1609   0.438   3.632   3.565  0.2604  0.4028  0.3535
    1PA    H16R 1610   0.515   3.708   3.576  0.5440  0.4360 -1.4884
    1PA    H16S 1611   0.367   3.663   3.488 -0.6104  0.6553  1.2382
    1PA    H16T 1612   0.490   3.543   3.528  1.5188  0.9546  0.7378
    1PA    C115 1613   0.377   3.608   3.703 -0.4902 -0.4157 -0.1122
    1PA    H15R 1614   0.368   3.706   3.750  2.4715 -0.3031  0.3960
    1PA    H15S 1615   0.276   3.568   3.686 -0.4134 -0.3973 -0.6093
    1PA    C114 1616   0.454   3.514   3.797 -0.0208  0.8772  0.8166
    1PA    H14R 1617   0.395   3.495   3.887 -0.2973 -0.5265  0.3651
    1PA    H14S 1618   0.466   3.414   3.756 -0.7090  1.0934  0.0702
    1PA    C113 1619   0.595   3.563   3.831  0.2219  0.5702  0.2634
    1PA    H13R 1620   0.654   3.573   3.740  0.1969 -0.5300  0.1152
    1PA    H13S 1621   0.594   3.661   3.881  1.1915  0.9555 -0.4282
    1PA    C112 1622   0.655   3.452   3.918 -0.4260  0.0835  0.0916
    1PA    H12R 1623   0.599   3.439   4.011 -1.5678 -3.7648 -0.9327
    1PA    H12S 1624   0.651   3.355   3.868  0.6768 -0.0782  0.3047
    1PA    C111 1625   0.803   3.466   3.955 -0.3294 -0.0993 -0.2242
    1PA    H11R 1626   0.854   3.453   3.859  1.6788  0.2809  0.7308
    1PA    H11S 1627   0.818   3.567   3.995 -1.3908  1.4702 -3.4171
    1PA    C110 1628   0.856   3.346   4.034  0.0050 -0.1028 -0.4507
    1PA    H10R 1629   0.803   3.323   4.126 -0.0773 -0.0930 -0.4949
    1PA    H10S 1630   0.831   3.256   3.977 -1.1848 -0.3526  0.4306
    1PA     C19 1631   1.002   3.354   4.081  0.0687 -0.2357 -0.6257
    1PA     H9R 1632   1.052   3.382   3.988 -1.2884  0.9550 -1.0367
    1PA     H9S 1633   1.006   3.436   4.152 -1.9667 -0.7894  0.2037
    1PA     C18 1634   1.060   3.223   4.136  0.4943  0.1569 -0.1306
    1PA     H8R 1635   1.024   3.134   4.085 -1.0813  0.7854 -0.1709
    1PA     H8S 1636   1.169   3.221   4.138  0.4757 -0.5700  0.3283
    1PA     C17 1637   1.009   3.210   4.280  0.1855 -0.5027 -0.2981
    1PA     H7R 1638   1.008   3.306   4.331 -3.4115 -0.1962 -0.6649
    1PA     H7S 1639   0.903   3.186   4.264 -0.3236  2.0111 -1.2412
    1PA     C16 1640   1.079   3.098   4.358 -0.1489 -0.3831  0.1764
    1PA     H6R 1641   1.051   3.008   4.303 -0.2164  0.7278 -1.6648
    1PA     H6S 1642   1.186   3.119   4.357 -0.1025 -0.6292 -0.2639
    1PA     C15 1643   1.021   3.094   4.500 -0.3224  0.0423  0.1187
    1PA     H5R 1644   1.064   3.179   4.555 -1.5123  0.9366 -0.2887
    1PA     H5S 1645   0.915   3.117   4.513 -0.1251  0.9124  0.2830
    1PA     C14 1646   1.059   2.968   4.579  0.0408  0.0623 -0.0190
    1PA     H4R 1647   1.025   2.885   4.516  2.0057  0.1712 -1.2870
    1PA     H4S 1648   1.167   2.963   4.585  0.1001  1.5579  0.3935
    1PA     C13 1649   0.993   2.950   4.716 -0.3400  0.2959 -0.1711
    1PA     H3R 1650   0.889   2.985   4.713 -0.0735  1.6410  2.5791
    1PA     H3S 1651   0.990   2.844   4.741 -0.1914  0.6605  1.5070
    1PA     C12 1652   1.065   3.040   4.818  0.0358 -0.2793  0.0732
    1PA     H2R 1653   1.159   2.998   4.855 -0.0672  0.9237  1.7761
    1PA     H2S 1654   1.081   3.140   4.778  0.1362 -0.5946 -0.7042
    2PC     C11 1655   0.976   3.043   4.939  0.4106  0.2900  0.3373
    2PC     O12 1656   0.945   2.948   5.008 -0.3749  0.2023 -0.1164
    2PC     O11 1657   0.945   3.171   4.968 -0.1155  0.3004 -0.2499
    2PC      C1 1658   0.863   3.192   5.085  0.0154  0.1410 -0.1302
    2PC      HR 1659   0.775   3.127   5.082 -0.1127  0.3218 -0.2425
    2PC      HS 1660   0.914   3.167   5.179 -0.7507  3.4166  1.2792
    2PC      C2 1661   0.824   3.339   5.098 -0.1009  0.0961  0.0265
    2PC      HX 1662   0.923   3.384   5.090  0.4357 -1.2045 -0.7947
    2PC      C3 1663   0.746   3.388   5.221 -0.0106 -0.1843  0.1955
    2PC      HA 1664   0.822   3.388   5.300 -0.6621  2.0168  0.8995
    2PC      HB 1665   0.711   3.492   5.215  0.9665  0.1408 -0.0662
    2PC     O31 1666   0.638   3.300   5.256 -0.4446  0.2566 -0.0327
    2PC     P31 1667   0.625   3.258   5.410  0.1181  0.1464 -0.0128
    2PC     O32 1668   0.522   3.364   5.473  0.1664  0.3511 -0.2749
    2PC     C31 1669   0.570   3.490   5.523  0.0605  0.3073 -0.0630
    2PC     H1A 1670   0.653   3.467   5.591 -0.3674 -1.0701  0.0173
    2PC     H1B 1671   0.610   3.551   5.442 -1.6209 -1.3927 -2.2895
    2PC     C32 1672   0.452   3.556   5.597  0.1997  0.2188  0.2403
    2PC     H2A 1673   0.488   3.655   5.626  2.5619  0.0243 -1.6248
    2PC     H2B 1674   0.380   3.578   5.518 -0.9112 -2.0479  0.5575
    2PC     N31 1675   0.392   3.492   5.718  0.0259  0.5419  0.3281
    2PC     C33 1676   0.352   3.350   5.691  0.8462  0.3349  0.1830
    2PC     H3A 1677   0.289   3.355   5.603  0.4168  0.2549  0.4840
    2PC     H3B 1678   0.441   3.291   5.667  0.2507  0.1585 -1.7799
    2PC     H3C 1679   0.301   3.304   5.776 -0.3826  1.5137  0.1008
    2PC     C34 1680   0.493   3.480   5.829  0.4161  0.2563 -0.0541
    2PC     H4A 1681   0.435   3.449   5.916 -1.6828  1.9228 -0.7679
    2PC     H4B 1682   0.573   3.412   5.798  0.0553  1.1530 -3.2850
    2PC     H4C 1683   0.529   3.581   5.848 -2.6140  1.7943 -1.6710
    2PC     C35 1684   0.271   3.570   5.759 -0.0580  0.4011  0.3486
    2PC     H5A 1685   0.303   3.672   5.775  0.0467  0.9717 -2.8177
    2PC     H5B 1686   0.219   3.519   5.840  0.5075 -1.2962 -0.3063
    2PC     H5C 1687   0.210   3.572   5.668 -2.2283  1.7802  1.7500
    2PC     O33 1688   0.567   3.122   5.421  0.5617  0.0140  0.7393
    2PC     O34 1689   0.752   3.244   5.484  0.3601 -0.2258 -0.4951
    2PC     O21 1690   0.747   3.377   4.982  0.5134 -0.5382 -0.5968
    2PC     C21 1691   0.767   3.488   4.910  0.1136 -0.0359  0.0476
    2PC     O22 1692   0.840   3.582   4.933  0.2518 -0.0965 -0.1363
    3OL     C12 1693   0.670   3.482   4.794 -0.1452 -0.2610  0.2771
    3OL     H2R 1694   0.650   3.577   4.746  0.6049 -0.4764 -0.4922
    3OL     H2S 1695   0.583   3.423   4.824  1.5643 -4.3312 -1.9353
    3OL     C13 1696   0.729   3.395   4.682 -0.1877  0.0575  0.0094
    3OL     H3R 1697   0.776   3.307   4.724  1.6612  1.6147  1.3892
    3OL     H3S 1698   0.796   3.460   4.625 -1.4468  0.3531 -1.1894
    3OL     C14 1699   0.610   3.348   4.596 -0.3069 -0.1377  0.2823
    3OL     H4R 1700   0.561   3.433   4.549 -1.2419  0.4916  2.2876
    3OL     H4S 1701   0.536   3.305   4.664  0.7415 -1.2006  0.7902
    3OL     C15 1702   0.646   3.241   4.493 -0.0962  0.2402 -0.0409
    3OL     H5R 1703   0.672   3.144   4.536 -0.5418  0.9526  1.9394
    3OL     H5S 1704   0.734   3.274   4.438 -0.3186 -0.7073 -1.0074
    3OL     C16 1705   0.532   3.225   4.390 -0.1105  0.5053 -0.0657
    3OL     H6R 1706   0.529   3.322   4.339 -1.1830  0.3905 -0.2372
    3OL     H6S 1707   0.438   3.195   4.436  0.5433 -0.1697  0.8726
    3OL     C17 1708   0.572   3.120   4.286  0.0079 -0.3876  0.8678
    3OL     H7R 1709   0.592   3.026   4.338  0.5491  0.8507  3.0093
    3OL     H7S 1710   0.664   3.140   4.231 -0.5197 -1.7362 -0.5700
    3OL     C18 1711   0.464   3.097   4.179  0.4230  0.1040  0.3416
    3OL     H8R 1712   0.448   3.198   4.142  0.5716 -0.6219 -1.8520
    3OL     H8S 1713   0.374   3.059   4.228 -0.0431  1.7958  0.8652
    3OL     C19 1714   0.504   3.003   4.067 -0.4368  0.1566 -0.0157
    3OL     H9R 1715   0.544   2.907   4.099 -0.2507  0.1843 -0.1620
    3OL    C110 1716   0.484   3.022   3.938  0.0693  0.0661 -0.1069
    3OL    H10R 1717   0.521   2.947   3.868  2.7128  0.8456  0.3174
    3OL    C111 1718   0.418   3.139   3.870 -0.0411 -0.0178 -0.1433
    3OL    H11R 1719   0.489   3.189   3.803 -0.4657  0.4850 -0.2295
    3OL    H11S 1720   0.385   3.217   3.938  0.4937  1.0115 -1.0306
    3OL    C112 1721   0.292   3.094   3.794 -0.0592  0.4002 -0.3649
    3OL    H12R 1722   0.316   3.007   3.733 -0.4860 -1.3715  1.8532
    3OL    H12S 1723   0.249   3.173   3.732 -2.0282 -0.1434  0.2261
    3OL    C113 1724   0.175   3.051   3.884  0.4164  0.2326  0.1796
    3OL    H13R 1725   0.149   3.142   3.939 -0.5774  0.3376 -0.4277
    3OL    H13S 1726   0.199   2.974   3.957  1.4834 -1.0325 -1.4411
    3OL    C114 1727   0.056   3.003   3.800  0.2618  0.3256  0.3438
    3OL    H14R 1728   0.074   2.920   3.731 -0.8545 -1.5352  2.1853
    3OL    H14S 1729   0.008   3.084   3.745 -2.9136 -0.4711  1.7346
    3OL    C115 1730  -0.059   2.952   3.888  0.0074 -0.0386 -0.1928
    3OL    H15R 1731  -0.090   3.027   3.961 -1.4957  0.6138 -1.4215
    3OL    H15S 1732  -0.029   2.868   3.950  0.5193  1.2709  1.4010
    3OL    C116 1733  -0.181   2.920   3.800  0.1890 -0.4225 -0.3038
    3OL    H16R 1734  -0.151   2.851   3.720  0.8366  0.2569 -0.6550
    3OL    H16S 1735  -0.232   3.005   3.755 -1.9845 -0.8491  1.2291
    3OL    C117 1736  -0.292   2.851   3.880  0.2820 -0.0247  0.1679
    3OL    H17R 1737  -0.312   2.921   3.962  2.2234 -0.0831  0.7524
    3OL    H17S 1738  -0.259   2.758   3.926  0.1691  0.9183  2.2923
    3OL    C118 1739  -0.414   2.809   3.797  0.0914  0.0080  0.4307
    3OL    H18R 1740  -0.387   2.729   3.727 -2.5962 -1.2779  0.7200
    3OL    H18S 1741  -0.449   2.891   3.735 -1.2161 -0.0486  1.0575
    3OL    H18T 1742  -0.503   2.780   3.853  0.7984  0.8804  2.0771
    1PA    C116 1743   1.789   4.372   4.440  1.0009  0.0931  0.4178
    1PA    H16R 1744   1.887   4.372   4.488  0.6172  2.8475  1.3878
    1PA    H16S 1745   1.725   4.425   4.511 -1.0574 -2.2216  0.4339
    1PA    H16T 1746   1.799   4.429   4.348  1.0264 -0.0457  0.3341
    1PA    C115 1747   1.751   4.224   4.424  0.0329  0.3793  0.0475
    1PA    H15R 1748   1.841   4.181   4.382 -1.2718 -2.1557 -0.3398
    1PA    H15S 1749   1.726   4.183   4.522 -0.0599  0.9057  0.2511
    1PA    C114 1750   1.643   4.223   4.314  0.5409 -0.1130 -0.4520
    1PA    H14R 1751   1.550   4.270   4.346  1.0116  0.9936 -0.6804
    1PA    H14S 1752   1.677   4.276   4.225 -0.4952  0.7818 -0.3452
    1PA    C113 1753   1.602   4.081   4.274 -0.0687 -0.1028  0.1231
    1PA    H13R 1754   1.689   4.019   4.250  0.9071  0.9668  0.8149
    1PA    H13S 1755   1.562   4.028   4.361  0.9047  1.6485  1.7065
    1PA    C112 1756   1.506   4.082   4.154 -0.3559 -0.2209  0.3508
    1PA    H12R 1757   1.440   4.169   4.166 -0.3384 -0.1126 -0.3372
    1PA    H12S 1758   1.568   4.101   4.067 -1.1635 -1.3805 -0.5053
    1PA    C111 1759   1.417   3.957   4.158 -0.2788 -0.2698  0.5763
    1PA    H11R 1760   1.373   3.949   4.058  0.8320  0.6589 -0.0088
    1PA    H11S 1761   1.471   3.863   4.173  0.2078  0.0654  0.9536
    1PA    C110 1762   1.303   3.961   4.260 -0.3852  0.0014  0.4460
    1PA    H10R 1763   1.263   3.859   4.263  1.4800 -0.8397 -1.1124
    1PA    H10S 1764   1.341   3.991   4.357 -0.4778 -1.1525  0.8578
    1PA     C19 1765   1.186   4.056   4.228 -0.1418  0.1855  0.1006
    1PA     H9R 1766   1.203   4.163   4.241  0.5042  0.5480 -2.8934
    1PA     H9S 1767   1.149   4.042   4.126 -2.2608  0.6342  0.7631
    1PA     C18 1768   1.064   4.014   4.310  0.0972 -0.2337  0.2471
    1PA     H8R 1769   0.978   4.069   4.271  1.2202  2.1478  0.9034
    1PA     H8S 1770   1.046   3.907   4.301  0.0283 -0.5523  3.0653
    1PA     C17 1771   1.080   4.045   4.460 -0.5613  0.3792  0.1992
    1PA     H7R 1772   1.168   3.989   4.491 -0.4188  0.6032  0.2001
    1PA     H7S 1773   1.102   4.151   4.472 -2.3471  0.6723  1.2352
    1PA     C16 1774   0.955   4.013   4.544 -0.2331 -0.3349  0.4275
    1PA     H6R 1775   0.871   4.070   4.503  1.8944  2.9634  0.2949
    1PA     H6S 1776   0.924   3.909   4.536 -2.9690  0.2906  1.6798
    1PA     C15 1777   0.966   4.053   4.691  0.0817 -0.3660  0.4139
    1PA     H5R 1778   0.982   4.161   4.692  2.2920 -0.6154 -1.3108
    1PA     H5S 1779   0.871   4.037   4.742  0.9124 -0.3699  2.0299
    1PA     C14 1780   1.076   3.974   4.763 -0.0331 -0.2893  0.6772
    1PA     H4R 1781   1.040   3.871   4.772 -1.0146  0.0891  1.2688
    1PA     H4S 1782   1.170   3.967   4.707 -0.5164 -2.5085  0.0407
    1PA     C13 1783   1.107   4.027   4.904 -0.2719  0.0865  0.5893
    1PA     H3R 1784   1.118   4.134   4.886  0.6796  0.1576  1.5143
    1PA     H3S 1785   1.020   4.025   4.969  0.9556 -0.3642  2.2716
    1PA     C12 1786   1.217   3.942   4.968  0.7571  0.5972 -0.4655
    1PA     H2R 1787   1.175   3.847   5.001  2.0255  1.5188  4.8363
    1PA     H2S 1788   1.289   3.907   4.894  1.5757 -0.7174  0.9040
    2PC     C11 1789   1.295   4.007   5.080  0.3367  0.0998  0.1277
    2PC     O12 1790   1.416   4.015   5.079  0.3706 -0.3939  0.3094
    2PC     O11 1791   1.217   4.073   5.167  0.0377 -0.2041  0.0869
    2PC      C1 1792   1.282   4.135   5.278  0.2910  0.4532 -0.4231
    2PC      HR 1793   1.331   4.056   5.335  1.2870  1.5134  0.2446
    2PC      HS 1794   1.362   4.200   5.240  0.6462  0.1994 -0.1242
    2PC      C2 1795   1.177   4.190   5.376  0.1288 -0.1788 -0.2362
    2PC      HX 1796   1.227   4.215   5.470  1.5510  0.2600 -1.0698
    2PC      C3 1797   1.075   4.080   5.408 -0.6086  0.5018 -0.1949
    2PC      HA 1798   1.014   4.059   5.320  1.2061 -2.6823 -0.8619
    2PC      HB 1799   1.117   3.982   5.432 -1.4323  0.0106 -0.7068
    2PC     O31 1800   0.996   4.123   5.520 -0.1085  0.1289  0.3121
    2PC     P31 1801   0.866   4.037   5.557  0.0760 -0.2637  0.0605
    2PC     O32 1802   0.939   3.919   5.637  0.1665 -0.1855  0.0932
    2PC     C31 1803   1.022   3.952   5.750 -0.2463  0.0793  0.3206
    2PC     H1A 1804   1.113   4.005   5.722  0.0127 -0.0617  0.8842
    2PC     H1B 1805   0.972   4.018   5.821  1.4501  2.5123 -0.6424
    2PC     C32 1806   1.046   3.813   5.811  0.1106  0.1287  0.2905
    2PC     H2A 1807   0.965   3.777   5.875  1.7363 -3.7448  0.4473
    2PC     H2B 1808   1.070   3.743   5.731  1.2915  0.9891 -0.1411
    2PC     N31 1809   1.152   3.805   5.917 -0.0081 -0.1122  0.3926
    2PC     C33 1810   1.139   3.907   6.026 -0.0273  0.7825 -0.4243
    2PC     H3A 1811   1.225   3.903   6.095 -1.2363 -2.8010  1.1527
    2PC     H3B 1812   1.106   4.005   5.992  0.6155  1.1825  0.0688
    2PC     H3C 1813   1.056   3.869   6.086  1.5792 -2.4108  0.0544
    2PC     C34 1814   1.154   3.673   5.988 -0.0579 -0.4459 -0.2156
    2PC     H4A 1815   1.202   3.599   5.924 -0.6968 -1.8058  0.8256
    2PC     H4B 1816   1.213   3.683   6.079  0.2957 -1.7539 -0.2952
    2PC     H4C 1817   1.055   3.654   6.030  0.8373 -0.9342  1.7618
    2PC     C35 1818   1.285   3.830   5.852 -0.0731 -0.1721  0.2373
    2PC     H5A 1819   1.362   3.801   5.923 -0.1357 -1.7022 -0.2758
    2PC     H5B 1820   1.298   3.930   5.810 -0.2702 -0.1565  0.2118
    2PC     H5C 1821   1.291   3.747   5.781  0.0592 -0.9861  1.1730
    2PC     O33 1822   0.762   4.113   5.631 -0.5045 -0.8017 -0.1915
    2PC     O34 1823   0.792   3.984   5.441 -0.2594 -0.1884  0.2376
    2PC     O21 1824   1.115   4.302   5.309 -0.0666 -0.2495 -0.1727
    2PC     C21 1825   1.165   4.426   5.326 -0.4966 -0.1066  0.0703
    2PC     O22 1826   1.253   4.451   5.405 -0.3013  0.2368 -0.2571
    3OL     C12 1827   1.119   4.526   5.223 -0.0605  0.0862  0.0639
    3OL     H2R 1828   1.038   4.588   5.261 -0.2681 -0.1254 -0.0359
    3OL     H2S 1829   1.076   4.475   5.137  0.1837  1.0336 -0.6451
    3OL     C13 1830   1.234   4.602   5.154  0.2182 -0.2319  0.1713
    3OL     H3R 1831   1.290   4.662   5.226  2.6140 -3.9531  1.6970
    3OL     H3S 1832   1.186   4.677   5.090  1.1444 -0.1655 -0.4539
    3OL     C14 1833   1.321   4.503   5.076  0.6175  0.3092 -0.0790
    3OL     H4R 1834   1.344   4.412   5.132  2.6001 -0.3019 -1.7502
    3OL     H4S 1835   1.418   4.546   5.055  1.7625 -1.9754  0.1737
    3OL     C15 1836   1.263   4.460   4.939 -0.4613 -0.4889  0.6052
    3OL     H5R 1837   1.271   4.547   4.873 -2.2436 -0.9966 -0.3254
    3OL     H5S 1838   1.155   4.454   4.930 -0.9434  4.1843  0.4800
    3OL     C16 1839   1.332   4.336   4.881 -0.0615 -0.1777  0.4062
    3OL     H6R 1840   1.286   4.256   4.940 -1.6573  1.1631  1.0812
    3OL     H6S 1841   1.441   4.336   4.891  0.1672  1.0788 -1.6134
    3OL     C17 1842   1.286   4.301   4.739  0.0794  0.0821  0.2955
    3OL     H7R 1843   1.182   4.319   4.709  0.0441  0.3204  0.5540
    3OL     H7S 1844   1.304   4.194   4.727  1.1298 -0.0215  2.3867
    3OL     C18 1845   1.378   4.365   4.634 -0.3817 -0.2270 -0.3058
    3OL     H8R 1846   1.483   4.349   4.659  0.6917  1.5526 -3.1566
    3OL     H8S 1847   1.369   4.474   4.644 -0.2186 -0.1958 -0.4874
    3OL     C19 1848   1.347   4.318   4.495  0.6059 -0.5920 -0.4096
    3OL     H9R 1849   1.319   4.212   4.493  0.2084 -0.4839 -2.1846
    3OL    C110 1850   1.330   4.383   4.381 -0.1332 -0.3715 -0.1812
    3OL    H10R 1851   1.310   4.330   4.289  1.0250 -2.3583  0.6446
    3OL    C111 1852   1.350   4.532   4.364 -0.3406 -0.3043  0.1524
    3OL    H11R 1853   1.371   4.583   4.458 -1.0142  0.1295  0.0734
    3OL    H11S 1854   1.261   4.582   4.327  0.1362 -0.2142 -0.9004
    3OL    C112 1855   1.459   4.563   4.261  0.2317 -0.4172  0.7180
    3OL    H12R 1856   1.550   4.521   4.304  0.9612 -0.7441 -1.0664
    3OL    H12S 1857   1.474   4.668   4.234  1.6558 -1.2021 -2.0226
    3OL    C113 1858   1.421   4.500   4.126  0.4444  0.1572  0.3848
    3OL    H13R 1859   1.321   4.538   4.102  0.1547 -0.4056  0.7008
    3OL    H13S 1860   1.412   4.392   4.128 -1.1856  0.2537 -0.1419
    3OL    C114 1861   1.524   4.534   4.017 -0.5774 -0.4157 -0.7694
    3OL    H14R 1862   1.525   4.466   3.931  2.2431  0.4040 -1.4625
    3OL    H14S 1863   1.622   4.521   4.062 -0.8847  3.3629  1.4062
    3OL    C115 1864   1.509   4.680   3.972 -0.0090 -0.1654 -0.1538
    3OL    H15R 1865   1.593   4.709   3.909 -0.9463  1.9453 -0.5372
    3OL    H15S 1866   1.528   4.743   4.059 -0.9165 -1.9441  1.3953
    3OL    C116 1867   1.379   4.725   3.903  0.2834  0.5981 -0.2219
    3OL    H16R 1868   1.390   4.833   3.898 -0.6542  0.9678  3.1927
    3OL    H16S 1869   1.294   4.702   3.968 -0.1532  2.4336 -0.0887
    3OL    C117 1870   1.353   4.668   3.762  0.2486  0.3928 -0.1328
    3OL    H17R 1871   1.371   4.561   3.774  2.9685  0.5428 -2.0050
    3OL    H17S 1872   1.429   4.714   3.699 -0.3585  2.2662  0.4414
    3OL    C118 1873   1.210   4.706   3.721  0.1119  0.2037  0.1626
    3OL    H18R 1874   1.209   4.815   3.710 -0.7666  0.0047 -2.4179
    3OL    H18S 1875   1.136   4.676   3.795 -0.7544 -2.0767 -1.5124
    3OL    H18T 1876   1.173   4.665   3.627 -0.1093  1.1407 -0.1630
    1PA    C116 1877   4.943   6.378   4.331  0.3186 -0.6813 -0.4989
    1PA    H16R 1878   4.940   6.268   4.326  0.3574 -0.8377  1.8251
    1PA    H16S 1879   4.931   6.403   4.436  1.6019  1.6071 -0.8454
    1PA    H16T 1880   5.040   6.418   4.303 -1.2348  2.6483 -1.6070
    1PA    C115 1881   4.853   6.442   4.224  0.1605  0.6622  0.4325
    1PA    H15R 1882   4.912   6.460   4.134 -0.3015 -0.1896 -0.0499
    1PA    H15S 1883   4.776   6.374   4.188  1.1175  0.4169 -1.2176
    1PA    C114 1884   4.780   6.572   4.264 -0.6888  0.1966  0.4296
    1PA    H14R 1885   4.722   6.565   4.356  0.2388  1.3463  1.1416
    1PA    H14S 1886   4.858   6.644   4.291  0.7293 -1.2103  0.2179
    1PA    C113 1887   4.686   6.615   4.150 -0.4742 -0.1005  0.1350
    1PA    H13R 1888   4.740   6.609   4.056 -0.6996 -4.5953  0.1115
    1PA    H13S 1889   4.603   6.547   4.133 -2.4430  2.0662  0.4487
    1PA    C112 1890   4.625   6.754   4.172 -0.0032  0.1001  0.1962
    1PA    H12R 1891   4.692   6.827   4.217  0.5703 -0.1977 -0.1728
    1PA    H12S 1892   4.597   6.802   4.078  1.0156  2.1111  0.8457
    1PA    C111 1893   4.500   6.729   4.258 -0.3097 -0.2398 -0.3405
    1PA    H11R 1894   4.430   6.653   4.223 -1.3511  0.3057  0.4770
    1PA    H11S 1895   4.543   6.691   4.351 -1.0120 -0.9711 -0.3010
    1PA    C110 1896   4.437   6.869   4.263  0.1530 -0.0435  0.1533
    1PA    H10R 1897   4.515   6.936   4.300 -2.3629  2.5020  1.2155
    1PA    H10S 1898   4.426   6.898   4.158 -1.3836 -1.3330 -0.0913
    1PA     C19 1899   4.309   6.867   4.347 -0.4343 -0.0731 -0.7243
    1PA     H9R 1900   4.239   6.795   4.303 -0.0058 -0.3968 -0.8789
    1PA     H9S 1901   4.336   6.837   4.449 -0.2921  1.7019 -0.2043
    1PA     C18 1902   4.240   7.004   4.358  0.2412  0.2053  0.2226
    1PA     H8R 1903   4.330   7.063   4.375  1.0514 -0.2886 -1.9238
    1PA     H8S 1904   4.202   7.028   4.258  0.7440  1.2132  0.2672
    1PA     C17 1905   4.139   7.024   4.471  0.1660 -0.4933  0.2857
    1PA     H7R 1906   4.176   6.959   4.550  0.0217 -0.5813  0.2808
    1PA     H7S 1907   4.138   7.130   4.499  0.9724 -0.4509  0.1620
    1PA     C16 1908   4.005   6.967   4.422  0.0622  0.1778 -0.2307
    1PA     H6R 1909   3.967   7.032   4.343 -1.1811  0.6995  0.7815
    1PA     H6S 1910   4.019   6.866   4.381 -1.8879 -0.4753  0.5706
    1PA     C15 1911   3.906   6.964   4.539  0.3538  0.1595  0.0147
    1PA     H5R 1912   3.822   6.901   4.510  1.4905 -0.5321 -2.0072
    1PA     H5S 1913   3.946   6.903   4.621 -2.6178 -2.9210 -0.5907
    1PA     C14 1914   3.849   7.095   4.594 -0.1168 -0.1140  0.1854
    1PA     H4R 1915   3.924   7.156   4.645  0.8686 -0.4224 -0.8392
    1PA     H4S 1916   3.819   7.151   4.505  3.0993  0.8260 -0.4258
    1PA     C13 1917   3.736   7.085   4.697 -0.2588  0.1996  0.0621
    1PA     H3R 1918   3.769   7.022   4.780 -2.3435 -2.0783 -0.6855
    1PA     H3S 1919   3.724   7.182   4.745  1.3504  1.2652 -1.5703
    1PA     C12 1920   3.606   7.018   4.650 -0.2653  0.0913  0.2313
    1PA     H2R 1921   3.544   7.096   4.604 -0.7421  0.4726  1.4856
    1PA     H2S 1922   3.610   6.940   4.574  1.1777 -2.0193  2.3473
    2PC     C11 1923   3.522   6.960   4.761 -0.5462  0.5814  0.2810
    2PC     O12 1924   3.574   6.935   4.868 -0.7413  0.3577  0.3250
    2PC     O11 1925   3.402   6.923   4.713  0.0106 -0.3751 -0.4125
    2PC      C1 1926   3.305   6.875   4.808  0.4605 -0.1788  0.1555
    2PC      HR 1927   3.222   6.816   4.768 -0.3142  0.8667  0.1993
    2PC      HS 1928   3.352   6.802   4.875  1.2941 -1.7404 -1.9882
    2PC      C2 1929   3.245   6.989   4.890 -0.0201 -0.0423 -0.3764
    2PC      HX 1930   3.327   7.062   4.894  1.3757 -1.5199 -0.9946
    2PC      C3 1931   3.206   6.964   5.036  1.0373 -0.0239 -0.0767
    2PC      HA 1932   3.290   6.989   5.101  0.1666  1.5501  0.5010
    2PC      HB 1933   3.121   7.030   5.060  2.5299  2.2538 -0.6976
    2PC     O31 1934   3.154   6.831   5.053 -0.0418  0.3802 -0.0871
    2PC     P31 1935   3.115   6.775   5.198  0.1378  0.0563 -0.1630
    2PC     O32 1936   3.264   6.768   5.259  0.0190  0.4569  0.1791
    2PC     C31 1937   3.278   6.722   5.394 -0.3010 -0.0031  0.0593
    2PC     H1A 1938   3.219   6.781   5.465  0.5198  1.0683 -0.1289
    2PC     H1B 1939   3.253   6.615   5.394  0.1382 -0.1055 -0.5615
    2PC     C32 1940   3.428   6.732   5.423 -0.2077 -0.4229 -0.2698
    2PC     H2A 1941   3.436   6.706   5.529 -2.1909  3.0884  0.9143
    2PC     H2B 1942   3.485   6.672   5.352  1.2917 -0.3428  0.8240
    2PC     N31 1943   3.509   6.858   5.422 -0.3219 -0.3492 -0.2445
    2PC     C33 1944   3.648   6.822   5.463 -0.3156 -0.4242 -0.3324
    2PC     H3A 1945   3.686   6.733   5.412 -0.7073 -0.6802 -0.1781
    2PC     H3B 1946   3.713   6.910   5.464  0.0671 -0.6853  1.5668
    2PC     H3C 1947   3.636   6.799   5.569  0.7828 -1.8092 -0.4782
    2PC     C34 1948   3.515   6.910   5.281  0.4403  0.2334 -0.0033
    2PC     H4A 1949   3.413   6.936   5.252 -0.0317  1.4219  2.4510
    2PC     H4B 1950   3.580   6.997   5.278  0.2632  0.4095  0.9382
    2PC     H4C 1951   3.555   6.826   5.224  1.3160  0.2236  0.5951
    2PC     C35 1952   3.454   6.967   5.508  0.0300 -0.0598 -0.3826
    2PC     H5A 1953   3.354   6.990   5.470 -0.2862 -0.7138  0.0265
    2PC     H5B 1954   3.518   7.056   5.508 -2.1624  1.6567  1.5350
    2PC     H5C 1955   3.441   6.929   5.610  1.5312  1.6348  0.5074
    2PC     O33 1956   3.018   6.859   5.271  0.5807  0.1073  0.3772
    2PC     O34 1957   3.050   6.643   5.184 -0.2473  0.1997  0.2507
    2PC     O21 1958   3.135   7.040   4.813  0.0480  0.0721 -0.3992
    2PC     C21 1959   3.109   7.170   4.836  0.0370  0.0699 -0.3986
    2PC     O22 1960   3.166   7.253   4.903 -0.4040 -0.2584  0.4093
    3OL     C12 1961   2.981   7.206   4.765 -0.5379  0.5756  0.8746
    3OL     H2R 1962   2.914   7.219   4.851  0.7649  0.8819  1.8762
    3OL     H2S 1963   2.948   7.126   4.700  2.2242 -0.0096  0.0979
    3OL     C13 1964   2.984   7.342   4.694 -0.7921 -0.0603 -0.3744
    3OL     H3R 1965   2.999   7.418   4.771  1.1772 -2.6338  2.0022
    3OL     H3S 1966   2.889   7.354   4.643 -0.1610 -1.7872 -2.0962
    3OL     C14 1967   3.091   7.345   4.583  0.1582  0.1404  0.5314
    3OL     H4R 1968   3.067   7.267   4.511 -1.1947 -0.9374  2.0746
    3OL     H4S 1969   3.187   7.317   4.627  2.2632 -2.1479 -4.7665
    3OL     C15 1970   3.099   7.484   4.519 -0.0697 -0.0717  0.0404
    3OL     H5R 1971   3.190   7.473   4.459 -0.3454 -5.3820  0.1757
    3OL     H5S 1972   3.124   7.559   4.595  1.7397 -1.5674  1.0045
    3OL     C16 1973   2.977   7.509   4.430 -0.1904 -0.2424  0.1591
    3OL     H6R 1974   2.877   7.487   4.469 -0.6924  2.0954  0.3660
    3OL     H6S 1975   2.979   7.444   4.342  0.6980 -0.7529  0.5450
    3OL     C17 1976   2.989   7.650   4.370 -0.4188 -0.2444  0.1071
    3OL     H7R 1977   3.080   7.647   4.311 -0.5852 -0.5228 -0.1399
    3OL     H7S 1978   2.987   7.722   4.452 -3.1750 -1.2970  1.0825
    3OL     C18 1979   2.863   7.672   4.285 -0.2349  0.2456 -0.0394
    3OL     H8R 1980   2.773   7.685   4.346 -0.6075 -1.1222 -0.2708
    3OL     H8S 1981   2.840   7.591   4.216 -2.2707  1.9076 -1.4623
    3OL     C19 1982   2.875   7.806   4.217  1.0271 -0.0159 -0.3527
    3OL     H9R 1983   2.909   7.886   4.283  0.8050  0.5044 -0.8577
    3OL    C110 1984   2.829   7.834   4.096 -0.5499 -0.0273  0.2222
    3OL    H10R 1985   2.830   7.932   4.050  2.3636  0.3952  0.9874
    3OL    C111 1986   2.798   7.731   3.991 -0.0627 -0.1246  0.1698
    3OL    H11R 1987   2.690   7.726   3.973  0.0171 -2.8508 -0.0674
    3OL    H11S 1988   2.838   7.632   4.015 -0.0916 -0.0980  0.3296
    3OL    C112 1989   2.849   7.760   3.850  0.0078  0.2247  0.2672
    3OL    H12R 1990   2.957   7.770   3.852  0.2230 -1.7195  2.8516
    3OL    H12S 1991   2.801   7.853   3.817 -0.6634  0.2982  1.3997
    3OL    C113 1992   2.809   7.653   3.747  0.0801  0.3319  0.1260
    3OL    H13R 1993   2.838   7.674   3.644  1.4790  0.5765  0.5507
    3OL    H13S 1994   2.701   7.638   3.743 -0.3272  2.1651  2.0949
    3OL    C114 1995   2.893   7.525   3.760 -0.0768  0.2142 -0.0199
    3OL    H14R 1996   2.850   7.459   3.836 -1.8802 -0.7403 -1.7614
    3OL    H14S 1997   2.995   7.553   3.785 -0.0171  1.4550 -1.5023
    3OL    C115 1998   2.899   7.448   3.627  0.1180  0.1944  0.0000
    3OL    H15R 1999   2.936   7.508   3.543  0.7593  0.4870  0.4864
    3OL    H15S 2000   2.800   7.412   3.598  0.9618 -1.4463 -0.9786
    3OL    C116 2001   2.985   7.321   3.633 -0.1554  0.0035 -0.0852
    3OL    H16R 2002   2.941   7.244   3.570 -0.6283  0.4962 -0.3710
    3OL    H16S 2003   2.979   7.283   3.736 -2.1538 -1.8586 -0.8094
    3OL    C117 2004   3.129   7.344   3.588 -0.0915 -0.3350 -0.0552
    3OL    H17R 2005   3.170   7.398   3.674 -2.0711 -0.0691  0.7627
    3OL    H17S 2006   3.124   7.404   3.497 -1.5467  0.9818  0.8504
    3OL    C118 2007   3.212   7.216   3.573  0.6412  0.1236  0.0147
    3OL    H18R 2008   3.315   7.247   3.552  1.0557 -1.4276 -0.4110
    3OL    H18S 2009   3.169   7.149   3.498 -0.4513  0.0868  0.6579
    3OL    H18T 2010   3.219   7.177   3.674 -1.0198  1.0621  0.5176
    1PA    C116 2011   4.077   2.508   4.057 -0.1638 -0.6724 -0.5675
    1PA    H16R 2012   4.149   2.499   3.976 -0.0089  1.1339 -0.6786
    1PA    H16S 2013   4.020   2.416   4.067 -2.7849  1.0887  2.2786
    1PA    H16T 2014   4.123   2.529   4.154 -1.5522 -0.7260  0.1232
    1PA    C115 2015   3.980   2.621   4.021  0.3885  0.2320  0.6853
    1PA    H15R 2016   4.018   2.722   4.006 -0.1931  0.0295 -3.5420
    1PA    H15S 2017   3.925   2.597   3.929  1.2931 -0.0406  0.2026
    1PA    C114 2018   3.875   2.640   4.131 -0.0202 -0.0478  0.3456
    1PA    H14R 2019   3.800   2.560   4.131 -0.2572  0.1706  0.3076
    1PA    H14S 2020   3.906   2.661   4.233 -2.4538  0.2778  1.0961
    1PA    C113 2021   3.781   2.756   4.093  0.0170  0.1274  0.7850
    1PA    H13R 2022   3.836   2.850   4.090 -1.3788  0.9515 -0.5987
    1PA    H13S 2023   3.740   2.739   3.993 -0.8814  2.4200  0.7144
    1PA    C112 2024   3.662   2.772   4.190 -0.1239 -0.1576  0.6616
    1PA    H12R 2025   3.570   2.789   4.134 -1.9069 -1.5789  2.9804
    1PA    H12S 2026   3.639   2.676   4.235  0.0681 -0.0434  1.0014
    1PA    C111 2027   3.676   2.886   4.291  0.2808  0.1962  0.2149
    1PA    H11R 2028   3.680   2.983   4.241 -0.4838  1.0435  1.7060
    1PA    H11S 2029   3.583   2.882   4.348  0.2281 -2.1449  0.0476
    1PA    C110 2030   3.790   2.868   4.392  0.0570 -0.2408  0.3936
    1PA    H10R 2031   3.781   2.769   4.436 -3.0747 -0.2706 -0.1143
    1PA    H10S 2032   3.880   2.876   4.331  0.3851 -2.7179  0.4643
    1PA     C19 2033   3.803   2.980   4.497 -0.8101  0.5211 -0.2932
    1PA     H9R 2034   3.901   2.974   4.545 -1.9749 -0.6014  2.1604
    1PA     H9S 2035   3.796   3.081   4.457  0.0450  1.2920  1.3804
    1PA     C18 2036   3.694   2.959   4.604 -0.3142  0.1122  0.1372
    1PA     H8R 2037   3.602   2.938   4.548 -0.5025  0.5834  0.2676
    1PA     H8S 2038   3.716   2.868   4.660 -1.6990 -0.7825 -0.7022
    1PA     C17 2039   3.663   3.065   4.710 -0.1843  0.0712  0.2172
    1PA     H7R 2040   3.656   3.165   4.668 -0.8059 -0.6102 -1.3677
    1PA     H7S 2041   3.560   3.039   4.739  0.7530 -1.8707  2.1556
    1PA     C16 2042   3.753   3.047   4.833  0.0016 -0.5315 -0.0020
    1PA     H6R 2043   3.721   2.965   4.897  0.9073  0.1607  1.4058
    1PA     H6S 2044   3.858   3.042   4.801  1.4809  2.3584  3.5317
    1PA     C15 2045   3.750   3.175   4.918  0.0982 -0.4390 -0.1367
    1PA     H5R 2046   3.756   3.267   4.859  0.9777 -1.8766 -2.4191
    1PA     H5S 2047   3.652   3.175   4.966  1.4737  0.9106  2.9342
    1PA     C14 2048   3.857   3.151   5.026  0.0019 -0.3101 -0.0121
    1PA     H4R 2049   3.833   3.059   5.081 -1.0369 -0.5662 -0.8533
    1PA     H4S 2050   3.953   3.135   4.976  0.9400  2.4045  0.7507
    1PA     C13 2051   3.876   3.275   5.114 -0.0584 -0.3479  0.0538
    1PA     H3R 2052   3.966   3.264   5.174  0.7128  0.1422 -0.9898
    1PA     H3S 2053   3.902   3.361   5.052  3.3410 -0.8225  0.6110
    1PA     C12 2054   3.755   3.291   5.208 -0.1010 -0.3161 -0.0072
    1PA     H2R 2055   3.660   3.288   5.154  0.3957  3.2329 -1.3285
    1PA     H2S 2056   3.749   3.216   5.287  1.3487  0.4248  0.8480
    2PC     C11 2057   3.768   3.411   5.298 -0.2842 -0.0582 -0.3210
    2PC     O12 2058   3.828   3.402   5.403  0.0595  0.4214 -0.4719
    2PC     O11 2059   3.719   3.524   5.245  0.1961  0.1485 -0.3268
    2PC      C1 2060   3.722   3.650   5.315  0.0537 -0.3453  0.5962
    2PC      HR 2061   3.648   3.717   5.271  0.9116  0.2491 -0.0050
    2PC      HS 2062   3.702   3.647   5.422  0.6853  3.0148  0.9200
    2PC      C2 2063   3.861   3.714   5.298 -0.1714 -0.1248 -0.5658
    2PC      HX 2064   3.932   3.632   5.317  0.5796  0.9694  1.7712
    2PC      C3 2065   3.888   3.806   5.418  0.1812  0.0809 -0.8021
    2PC      HA 2066   3.892   3.764   5.519 -0.7759  2.4932  0.2956
    2PC      HB 2067   3.987   3.846   5.396 -0.5584  1.9738 -0.8446
    2PC     O31 2068   3.801   3.920   5.425 -0.1440 -0.2146  0.2433
    2PC     P31 2069   3.800   4.018   5.551 -0.0467  0.0581  0.0324
    2PC     O32 2070   3.935   4.102   5.537 -0.0714  0.0551 -0.2406
    2PC     C31 2071   4.042   4.037   5.609  0.1563  0.6095 -0.0674
    2PC     H1A 2072   4.010   3.962   5.683  1.7150  0.3313  0.3503
    2PC     H1B 2073   4.100   3.984   5.534 -0.0131  0.0015  0.2248
    2PC     C32 2074   4.138   4.141   5.667  0.2249  0.7050 -0.3517
    2PC     H2A 2075   4.229   4.087   5.691  0.3249  1.7210  1.8659
    2PC     H2B 2076   4.150   4.223   5.596 -0.5247  0.9978 -0.1544
    2PC     N31 2077   4.099   4.216   5.791  0.7238 -0.0327  0.2558
    2PC     C33 2078   4.085   4.114   5.901  0.1517 -0.2964 -0.0581
    2PC     H3A 2079   4.176   4.055   5.904  0.1433 -0.3020  0.0800
    2PC     H3B 2080   4.058   4.169   5.991  0.2913 -0.0901 -0.1414
    2PC     H3C 2081   4.006   4.046   5.868 -1.7121  1.5554  0.3593
    2PC     C34 2082   4.219   4.296   5.832  0.5429  0.1318  0.4692
    2PC     H4A 2083   4.305   4.229   5.831  1.1879  0.9460  0.1253
    2PC     H4B 2084   4.235   4.379   5.762  1.4572 -1.0295 -0.7596
    2PC     H4C 2085   4.199   4.333   5.932  0.0599  1.7598 -0.1880
    2PC     C35 2086   3.982   4.307   5.774  0.0441 -0.8824  0.3310
    2PC     H5A 2087   4.006   4.383   5.700 -2.3266 -0.1914  0.1886
    2PC     H5B 2088   3.966   4.355   5.871  1.8574  0.1292  0.1792
    2PC     H5C 2089   3.902   4.240   5.741 -0.5219  0.0534 -0.2489
    2PC     O33 2090   3.684   4.111   5.543  0.0130  0.1196 -0.1166
    2PC     O34 2091   3.783   3.947   5.679  0.0623  0.2077  0.1305
    2PC     O21 2092   3.896   3.773   5.172 -0.0940  0.1624 -0.4103
    2PC     C21 2093   3.999   3.724   5.101 -0.2392 -0.5930 -0.1088
    2PC     O22 2094   4.076   3.639   5.138 -0.1511 -0.6422 -0.4094
    3OL     C12 2095   4.028   3.773   4.962  0.1705 -0.2638  0.0902
    3OL     H2R 2096   4.088   3.698   4.910 -0.8524  0.1754 -1.8314
    3OL     H2S 2097   4.079   3.870   4.966  0.6291 -0.5032  0.1344
    3OL     C13 2098   3.898   3.787   4.881  0.1558  0.1771  0.1859
    3OL     H3R 2099   3.916   3.841   4.789  1.8270  2.1873  1.6056
    3OL     H3S 2100   3.826   3.850   4.934 -1.0869 -1.4527  0.5476
    3OL     C14 2101   3.818   3.656   4.866  0.6953 -0.1208 -0.1207
    3OL     H4R 2102   3.720   3.673   4.821  0.4339  0.6527  0.6968
    3OL     H4S 2103   3.799   3.613   4.965  2.0470 -0.0465  0.1976
    3OL     C15 2104   3.888   3.551   4.779  0.5856 -0.2048 -0.1074
    3OL     H5R 2105   3.822   3.465   4.781  0.9491 -0.5419 -1.5370
    3OL     H5S 2106   3.978   3.516   4.830 -0.4925  0.5621  2.4930
    3OL     C16 2107   3.906   3.588   4.631  0.6633  0.0445 -0.0362
    3OL     H6R 2108   3.984   3.665   4.628  1.0791 -0.3394  0.7002
    3OL     H6S 2109   3.817   3.629   4.583 -0.0974 -1.0006  0.4621
    3OL     C17 2110   3.970   3.474   4.551  0.2497 -0.3454  0.1879
    3OL     H7R 2111   3.907   3.385   4.554  1.1873 -1.1628  5.2377
    3OL     H7S 2112   4.064   3.449   4.601  0.8246  1.2779 -0.0431
    3OL     C18 2113   3.993   3.520   4.407 -0.8187 -0.1966  0.0598
    3OL     H8R 2114   4.046   3.616   4.407 -1.0889 -0.0279 -1.1883
    3OL     H8S 2115   3.898   3.552   4.363 -0.7853 -0.2218 -0.0308
    3OL     C19 2116   4.079   3.431   4.320 -0.1956  0.3637  0.0939
    3OL     H9R 2117   4.021   3.377   4.246 -0.1960  0.6403 -0.1076
    3OL    C110 2118   4.210   3.440   4.308 -0.1618  0.0958  0.2651
    3OL    H10R 2119   4.253   3.373   4.233 -1.2260  0.1813 -0.4446
    3OL    C111 2120   4.309   3.524   4.385  0.0480  0.0035  0.0970
    3OL    H11R 2121   4.392   3.463   4.422 -0.1069 -0.3198 -0.0860
    3OL    H11S 2122   4.255   3.563   4.471 -0.2405  0.9619 -0.5065
    3OL    C112 2123   4.379   3.630   4.298  0.3573 -0.6427 -0.4565
    3OL    H12R 2124   4.402   3.721   4.354 -0.3692 -0.0592 -1.0895
    3OL    H12S 2125   4.311   3.649   4.215  0.2306 -3.7139 -1.1847
    3OL    C113 2126   4.517   3.595   4.242  0.4858 -0.1946 -0.4177
    3OL    H13R 2127   4.505   3.506   4.181  1.4149 -1.2614  0.9112
    3OL    H13S 2128   4.587   3.580   4.324 -0.0867  2.1109  0.5905
    3OL    C114 2129   4.556   3.719   4.159 -0.3221 -0.1069 -0.6770
    3OL    H14R 2130   4.553   3.804   4.228  0.6917 -0.3567 -0.3143
    3OL    H14S 2131   4.481   3.750   4.086 -0.9377 -2.1414 -0.9548
    3OL    C115 2132   4.691   3.708   4.087  0.1899  0.6881  0.1259
    3OL    H15R 2133   4.766   3.666   4.154 -0.1051 -0.7707 -0.3996
    3OL    H15S 2134   4.711   3.813   4.067 -2.3493  0.8326 -2.4234
    3OL    C116 2135   4.683   3.614   3.965  0.5663  0.8596 -0.0313
    3OL    H16R 2136   4.609   3.640   3.890  0.6142  0.3129 -0.2669
    3OL    H16S 2137   4.649   3.518   4.004  1.1253  0.8706  0.5004
    3OL    C117 2138   4.816   3.592   3.891  0.4781  0.4530 -0.0696
    3OL    H17R 2139   4.863   3.687   3.867 -0.2053  0.6568 -0.6428
    3OL    H17S 2140   4.806   3.524   3.806 -0.3040 -2.8487  2.4637
    3OL    C118 2141   4.911   3.509   3.978  0.2334  0.2492  0.0066
    3OL    H18R 2142   4.993   3.474   3.914 -2.0876 -2.0557 -1.9187
    3OL    H18S 2143   4.874   3.415   4.019  1.6096  0.0653  0.9069
    3OL    H18T 2144   4.949   3.574   4.058 -0.9439  1.6659 -0.5401
    1PA    C116 2145   6.493   2.814   4.293 -0.1349  0.3278  0.4515
    1PA    H16R 2146   6.564   2.896   4.279  0.9197 -0.7033 -0.5223
    1PA    H16S 2147   6.520   2.740   4.217  2.6708 -1.3779  2.8650
    1PA    H16T 2148   6.487   2.775   4.395 -0.9217  3.0486  1.5270
    1PA    C115 2149   6.353   2.858   4.248  0.1724  0.6903 -0.1753
    1PA    H15R 2150   6.322   2.941   4.312 -1.4765  0.0953 -0.1606
    1PA    H15S 2151   6.355   2.896   4.146 -0.9656 -2.2657 -1.4067
    1PA    C114 2152   6.257   2.738   4.260  0.3524  0.5792  0.1973
    1PA    H14R 2153   6.302   2.648   4.218 -1.9876 -1.7171  2.3053
    1PA    H14S 2154   6.243   2.723   4.367  0.3159  0.6891  0.2086
    1PA    C113 2155   6.118   2.769   4.203  0.4418 -0.4944 -0.6506
    1PA    H13R 2156   6.089   2.869   4.237  0.1109 -1.0150  0.6960
    1PA    H13S 2157   6.128   2.776   4.095  0.7032 -0.8443 -0.6470
    1PA    C112 2158   6.009   2.665   4.233  0.0512  0.1663  0.3017
    1PA    H12R 2159   5.926   2.691   4.167  0.7168 -0.3892 -0.7914
    1PA    H12S 2160   6.045   2.566   4.205 -0.5916  0.1146 -0.3933
    1PA    C111 2161   5.962   2.668   4.379 -0.3326  0.0027  0.1825
    1PA    H11R 2162   6.044   2.621   4.433 -0.3276 -0.7118 -0.4182
    1PA    H11S 2163   5.949   2.771   4.411 -2.8902 -0.3473  0.5227
    1PA    C110 2164   5.832   2.593   4.412 -0.1948 -0.2441  0.1703
    1PA    H10R 2165   5.745   2.638   4.364  1.1915  1.8220 -0.5302
    1PA    H10S 2166   5.834   2.488   4.382 -0.2874  0.0181 -0.7695
    1PA     C19 2167   5.813   2.604   4.564  0.4217 -0.2661  0.2525
    1PA     H9R 2168   5.904   2.587   4.622  0.6438 -0.4946 -0.1576
    1PA     H9S 2169   5.769   2.702   4.586 -1.1109 -0.9411  0.3062
    1PA     C18 2170   5.696   2.518   4.615  0.0797  0.1293  0.1450
    1PA     H8R 2171   5.603   2.559   4.575  0.7464 -0.4245 -2.1402
    1PA     H8S 2172   5.716   2.418   4.575 -0.4567  0.4264 -0.8989
    1PA     C17 2173   5.700   2.528   4.768 -0.3297 -0.3521  0.1896
    1PA     H7R 2174   5.797   2.499   4.810  0.2273  1.8156  0.5184
    1PA     H7S 2175   5.688   2.635   4.788  3.4734  0.6918 -1.9416
    1PA     C16 2176   5.589   2.444   4.832 -0.9173  0.1994 -0.0910
    1PA     H6R 2177   5.491   2.491   4.824 -0.0157  2.2445  0.4583
    1PA     H6S 2178   5.590   2.346   4.783 -0.3371  0.0187  0.2678
    1PA     C15 2179   5.610   2.425   4.983  0.3931 -0.4715 -0.3443
    1PA     H5R 2180   5.710   2.385   5.005  0.2766 -1.0213 -0.7936
    1PA     H5S 2181   5.597   2.525   5.025 -1.9414 -0.1485 -1.7036
    1PA     C14 2182   5.499   2.338   5.043 -0.0285  0.3477  0.0773
    1PA     H4R 2183   5.408   2.389   5.013 -0.0588 -0.2132 -0.8221
    1PA     H4S 2184   5.504   2.236   5.003 -0.9553 -1.2979  3.6655
    1PA     C13 2185   5.508   2.319   5.195  0.3999 -0.8047 -0.0765
    1PA     H3R 2186   5.611   2.305   5.230  1.2862  1.9008 -1.3666
    1PA     H3S 2187   5.485   2.415   5.242  2.2745 -0.4265  0.1391
    1PA     C12 2188   5.409   2.216   5.252 -0.0460 -0.3443 -0.0048
    1PA     H2R 2189   5.387   2.140   5.176  2.0469 -1.5540  0.5267
    1PA     H2S 2190   5.446   2.164   5.341 -1.5721 -0.2849  0.6894
    2PC     C11 2191   5.282   2.282   5.300  0.0676 -0.1942  0.0873
    2PC     O12 2192   5.241   2.389   5.261 -0.1005 -0.3731 -0.2273
    2PC     O11 2193   5.222   2.206   5.393  0.2285  0.2332  0.5424
    2PC      C1 2194   5.108   2.252   5.467 -0.1326  0.4258 -0.1377
    2PC      HR 2195   5.134   2.341   5.524 -1.4474  1.1387 -0.5868
    2PC      HS 2196   5.034   2.283   5.392  2.6481  0.8371 -2.9398
    2PC      C2 2197   5.054   2.139   5.555 -0.1036  0.5454  0.0336
    2PC      HX 2198   4.951   2.168   5.577 -1.1593 -2.6254 -0.1672
    2PC      C3 2199   5.143   2.108   5.676 -0.1246 -0.3421 -0.1696
    2PC      HA 2200   5.242   2.073   5.647 -0.2433 -0.1884 -0.7843
    2PC      HB 2201   5.154   2.199   5.736 -1.3321 -0.1306 -0.2459
    2PC     O31 2202   5.079   2.007   5.756  0.0868 -0.4773 -0.1695
    2PC     P31 2203   5.158   1.945   5.880 -0.3041 -0.1218  0.2618
    2PC     O32 2204   5.254   1.858   5.787 -0.2322  0.2033  0.0327
    2PC     C31 2205   5.220   1.724   5.746  0.7075 -0.1399  0.3321
    2PC     H1A 2206   5.175   1.658   5.821  0.6331  1.4244  1.7118
    2PC     H1B 2207   5.152   1.730   5.660 -0.4716  3.1099  1.3443
    2PC     C32 2208   5.354   1.671   5.693  0.5177  0.0308 -0.3299
    2PC     H2A 2209   5.392   1.751   5.629  0.6512  0.2795  0.0542
    2PC     H2B 2210   5.428   1.656   5.772 -0.2009  0.5398  0.4666
    2PC     N31 2211   5.344   1.544   5.615 -0.4633  0.1073 -0.3384
    2PC     C33 2212   5.265   1.570   5.490  0.2073  0.2648 -0.7328
    2PC     H3A 2213   5.172   1.618   5.520  1.1773  0.7390  1.7411
    2PC     H3B 2214   5.319   1.638   5.424  0.3608  0.9041  0.0440
    2PC     H3C 2215   5.240   1.476   5.441 -2.3006 -0.4201  1.6590
    2PC     C34 2216   5.483   1.506   5.574 -0.4724 -0.2776 -0.0234
    2PC     H4A 2217   5.519   1.589   5.513 -2.8565 -0.8377 -2.3823
    2PC     H4B 2218   5.548   1.493   5.660 -2.4967 -0.0155  1.6262
    2PC     H4C 2219   5.474   1.421   5.506  0.2401 -0.8345  0.5614
    2PC     C35 2220   5.294   1.423   5.689 -0.0749  0.3561  0.3360
    2PC     H5A 2221   5.321   1.331   5.638 -0.1705 -0.1871  1.2463
    2PC     H5B 2222   5.185   1.427   5.682 -0.1063  0.1917  0.7547
    2PC     H5C 2223   5.322   1.424   5.794 -0.0598 -1.7799  0.3888
    2PC     O33 2224   5.233   2.040   5.965 -0.3284  0.4733 -0.3785
    2PC     O34 2225   5.073   1.865   5.972 -0.1179  0.0444  0.5792
    2PC     O21 2226   5.045   2.022   5.471  0.1398  0.5677 -0.0235
    2PC     C21 2227   4.961   2.006   5.368 -0.1382  0.0228  0.2836
    2PC     O22 2228   4.863   2.071   5.340  0.3595  0.6562 -0.0069
    3OL     C12 2229   4.995   1.882   5.288  0.7793  0.3013  0.2288
    3OL     H2R 2230   4.923   1.807   5.322 -0.2602  0.2585 -1.9403
    3OL     H2S 2231   5.094   1.842   5.312  0.0244 -0.8874  1.5314
    3OL     C13 2232   5.000   1.911   5.137 -0.3068  0.4624  0.2149
    3OL     H3R 2233   4.897   1.922   5.104 -0.6528 -0.6590  0.8461
    3OL     H3S 2234   5.048   1.828   5.086 -1.8295  0.3248 -1.0678
    3OL     C14 2235   5.079   2.036   5.098  0.0842  0.0840 -0.2129
    3OL     H4R 2236   5.183   2.025   5.129 -0.5302  0.3429  2.1137
    3OL     H4S 2237   5.049   2.128   5.148  0.4959  0.4079 -0.5579
    3OL     C15 2238   5.064   2.067   4.948 -0.3698  0.1428 -0.1552
    3OL     H5R 2239   4.963   2.090   4.914 -0.2058  0.5687 -0.3585
    3OL     H5S 2240   5.101   1.989   4.882 -0.3113  0.3476 -0.3633
    3OL     C16 2241   5.144   2.195   4.925 -0.0345 -0.0683 -0.1744
    3OL     H6R 2242   5.159   2.197   4.817  2.0906 -1.4811  0.0461
    3OL     H6S 2243   5.242   2.187   4.972 -0.2284  0.5709  0.3576
    3OL     C17 2244   5.072   2.323   4.969 -0.2681 -0.1150 -0.4181
    3OL     H7R 2245   5.063   2.338   5.077 -0.7709  1.5786 -0.6614
    3OL     H7S 2246   4.971   2.329   4.927 -0.5510 -0.0462  0.2562
    3OL     C18 2247   5.146   2.447   4.917 -0.2825  0.1324  0.1497
    3OL     H8R 2248   5.244   2.413   4.882 -0.6746 -0.3660 -0.4709
    3OL     H8S 2249   5.162   2.519   4.998 -2.5360  0.1935  0.5869
    3OL     C19 2250   5.071   2.507   4.801  0.4221  1.0478  0.1529
    3OL     H9R 2251   4.985   2.566   4.833 -0.1028 -0.4347  1.6154
    3OL    C110 2252   5.113   2.500   4.676  0.7994 -0.0018  0.3270
    3OL    H10R 2253   5.043   2.541   4.604  2.1490 -0.2554 -1.1993
    3OL    C111 2254   5.214   2.407   4.613  0.8685  0.2843  0.0112
    3OL    H11R 2255   5.269   2.347   4.685  1.0107 -0.6733 -0.8722
    3OL    H11S 2256   5.287   2.467   4.558  2.1225 -0.9739  0.2648
    3OL    C112 2257   5.139   2.317   4.514  0.5838 -0.1741  0.6400
    3OL    H12R 2258   5.073   2.368   4.444 -0.2398 -0.5315  1.1359
    3OL    H12S 2259   5.070   2.261   4.579  1.2577  0.8463  2.2861
    3OL    C113 2260   5.217   2.208   4.440 -0.2423 -0.0856 -0.3910
    3OL    H13R 2261   5.235   2.131   4.516  0.6770  1.6344  1.2323
    3OL    H13S 2262   5.310   2.250   4.402 -1.1540  0.9792 -1.5253
    3OL    C114 2263   5.144   2.158   4.315 -0.7120 -0.4117  0.0104
    3OL    H14R 2264   5.112   2.242   4.253  2.9386  0.2854 -1.1520
    3OL    H14S 2265   5.051   2.110   4.347 -0.5722  0.0327  1.1384
    3OL    C115 2266   5.240   2.073   4.231  0.0004  0.2496  0.1471
    3OL    H15R 2267   5.327   2.134   4.205 -1.6245  2.5123 -0.1916
    3OL    H15S 2268   5.190   2.045   4.138  0.1778 -0.8610  0.3722
    3OL    C116 2269   5.281   1.943   4.303  0.3457  0.4452  0.3060
    3OL    H16R 2270   5.203   1.889   4.357  0.1069  0.6704  0.1884
    3OL    H16S 2271   5.353   1.971   4.381 -0.4669  1.0948  0.8445
    3OL    C117 2272   5.352   1.844   4.211  0.1276  0.3349  0.2577
    3OL    H17R 2273   5.436   1.892   4.161 -1.0437  1.2509 -0.9357
    3OL    H17S 2274   5.281   1.813   4.133  0.3791 -2.1848  0.9449
    3OL    C118 2275   5.398   1.714   4.278  0.6044  0.1596 -0.3943
    3OL    H18R 2276   5.422   1.634   4.208  2.0653 -0.9588  1.2909
    3OL    H18S 2277   5.322   1.688   4.352 -0.3614  0.6612 -1.1900
    3OL    H18T 2278   5.494   1.735   4.327 -0.9390  2.5692  1.8489
    1PA    C116 2279   6.021   1.837   3.886  0.4237  0.1327 -0.5857
    1PA    H16R 2280   6.028   1.728   3.892 -1.4611  0.0658  2.5740
    1PA    H16S 2281   6.109   1.889   3.848 -1.2520  1.5142 -2.7999
    1PA    H16T 2282   5.938   1.862   3.820 -0.6716 -1.3700  0.1682
    1PA    C115 2283   6.002   1.900   4.025  0.1899 -0.6634 -0.2488
    1PA    H15R 2284   5.987   2.008   4.014 -0.2480 -0.7617 -0.6564
    1PA    H15S 2285   5.919   1.849   4.073  1.3812 -0.6227  1.9550
    1PA    C114 2286   6.122   1.879   4.118  0.1838 -0.6301 -0.2334
    1PA    H14R 2287   6.167   1.782   4.099  0.0850 -1.3292  2.7294
    1PA    H14S 2288   6.193   1.958   4.091 -0.5448  0.3458  0.5948
    1PA    C113 2289   6.085   1.885   4.267 -0.4456  0.2621 -0.4163
    1PA    H13R 2290   5.977   1.891   4.280 -0.2953 -0.9590  1.7688
    1PA    H13S 2291   6.103   1.794   4.323 -0.9530  0.9444  0.9046
    1PA    C112 2292   6.151   2.004   4.338  0.1210 -0.3511  0.0886
    1PA    H12R 2293   6.254   2.010   4.301 -0.3063  0.2623 -1.0371
    1PA    H12S 2294   6.107   2.094   4.295  2.0195  0.6400  0.0889
    1PA    C111 2295   6.154   1.989   4.491 -0.6203 -0.6719  0.0730
    1PA    H11R 2296   6.050   1.990   4.524 -0.6401  0.8993  0.0201
    1PA    H11S 2297   6.188   1.886   4.503 -0.3235 -0.9065 -2.3812
    1PA    C110 2298   6.233   2.092   4.573 -0.5863 -0.6612  0.0271
    1PA    H10R 2299   6.334   2.087   4.533 -0.2753 -0.2000  0.7358
    1PA    H10S 2300   6.187   2.187   4.545 -1.2858 -0.4450  1.7741
    1PA     C19 2301   6.226   2.075   4.725 -0.8511  0.3663  0.1389
    1PA     H9R 2302   6.126   2.043   4.756  0.1614 -1.6360  1.5585
    1PA     H9S 2303   6.291   1.989   4.743  0.0443  0.0526 -3.7707
    1PA     C18 2304   6.260   2.199   4.809 -0.6035  0.1184  0.4087
    1PA     H8R 2305   6.272   2.154   4.908  1.3632 -0.2987  0.0052
    1PA     H8S 2306   6.360   2.229   4.779 -0.7475 -0.9886 -1.2986
    1PA     C17 2307   6.159   2.315   4.804 -0.3098  0.3555 -0.0610
    1PA     H7R 2308   6.136   2.348   4.702  0.0460  2.2935  0.4441
    1PA     H7S 2309   6.055   2.302   4.835 -0.0369  0.2501  0.8212
    1PA     C16 2310   6.206   2.426   4.899  0.0774  0.2682 -0.1478
    1PA     H6R 2311   6.215   2.395   5.003  1.4680 -0.7412 -0.5496
    1PA     H6S 2312   6.307   2.455   4.870  1.2151 -0.7663  2.4878
    1PA     C15 2313   6.115   2.549   4.887  0.2914  0.4273 -0.1253
    1PA     H5R 2314   6.124   2.606   4.794  2.1548  0.3132 -0.0673
    1PA     H5S 2315   6.015   2.506   4.889  0.0764  0.9253  1.2937
    1PA     C14 2316   6.132   2.629   5.017  0.4304 -0.3541  0.3447
    1PA     H4R 2317   6.052   2.704   5.019  0.6373 -0.1386  0.7906
    1PA     H4S 2318   6.112   2.566   5.104 -0.3860 -1.2576 -0.4752
    1PA     C13 2319   6.264   2.709   5.025  0.2938 -0.1278  0.3638
    1PA     H3R 2320   6.347   2.638   5.018  0.6665  0.3858 -0.5189
    1PA     H3S 2321   6.260   2.774   4.938  2.0638 -0.2068  0.2004
    1PA     C12 2322   6.269   2.797   5.151 -0.0960  0.0959  0.2264
    1PA     H2R 2323   6.198   2.879   5.139 -0.4732 -0.4511 -1.5942
    1PA     H2S 2324   6.242   2.723   5.227 -0.6826 -0.5618 -0.5929
    2PC     C11 2325   6.410   2.842   5.179  0.0084 -0.0572 -0.0504
    2PC     O12 2326   6.468   2.934   5.125  0.5173 -0.2826  0.0986
    2PC     O11 2327   6.465   2.771   5.279 -0.4712 -0.4866 -0.0873
    2PC      C1 2328   6.597   2.803   5.326 -0.5091 -0.6038  0.0990
    2PC      HR 2329   6.673   2.799   5.247 -1.0467 -0.2190 -0.4415
    2PC      HS 2330   6.584   2.904   5.367  0.7987 -1.2080  2.1787
    2PC      C2 2331   6.636   2.703   5.435  0.5059 -0.5317 -0.1881
    2PC      HX 2332   6.575   2.716   5.524 -0.3129 -1.1004 -0.6581
    2PC      C3 2333   6.777   2.734   5.489  0.2482  0.7093 -0.2228
    2PC      HA 2334   6.849   2.682   5.427  1.1581 -0.2568  1.5734
    2PC      HB 2335   6.790   2.843   5.480 -0.2732  1.0787  2.5106
    2PC     O31 2336   6.796   2.698   5.627 -0.0140  0.1528 -0.3291
    2PC     P31 2337   6.919   2.753   5.713  0.1060 -0.3087 -0.2050
    2PC     O32 2338   7.037   2.673   5.639  0.4241 -0.0517  0.0169
    2PC     C31 2339   7.168   2.731   5.625  0.7363 -0.5884  0.6415
    2PC     H1A 2340   7.164   2.816   5.556 -1.3182 -1.9315 -1.0483
    2PC     H1B 2341   7.202   2.755   5.726 -1.8059  2.8354  0.8551
    2PC     C32 2342   7.259   2.622   5.566 -0.1685 -0.9934 -0.0367
    2PC     H2A 2343   7.205   2.564   5.491 -1.0885  0.0875 -0.2450
    2PC     H2B 2344   7.351   2.661   5.523  0.1358 -2.1351 -0.4541
    2PC     N31 2345   7.303   2.508   5.654  0.1930 -0.4813  0.4513
    2PC     C33 2346   7.379   2.418   5.562  0.0020 -0.2827  0.0951
    2PC     H3A 2347   7.313   2.371   5.489  2.0344 -1.2910 -1.1874
    2PC     H3B 2348   7.444   2.477   5.496 -2.8540  2.6885 -0.3349
    2PC     H3C 2349   7.436   2.351   5.627 -0.5165 -0.2324  0.6064
    2PC     C34 2350   7.388   2.559   5.766 -0.0306 -0.0142  0.4152
    2PC     H4A 2351   7.429   2.473   5.819  2.3057  1.9877  2.1027
    2PC     H4B 2352   7.472   2.615   5.724 -0.3590 -0.0623 -0.3163
    2PC     H4C 2353   7.330   2.629   5.826 -1.9859 -0.9789 -0.2649
    2PC     C35 2354   7.189   2.434   5.717 -0.1733 -0.5180 -0.2429
    2PC     H5A 2355   7.218   2.350   5.780 -1.6715  0.0805  1.3485
    2PC     H5B 2356   7.134   2.384   5.637  2.0613 -0.8120 -1.6717
    2PC     H5C 2357   7.124   2.503   5.771  0.6940  0.7769 -0.7998
    2PC     O33 2358   6.925   2.900   5.693  0.3043 -0.1913  0.6661
    2PC     O34 2359   6.924   2.731   5.860  0.7772  0.1550 -0.1538
    2PC     O21 2360   6.633   2.567   5.386  0.4236 -0.5760 -0.0628
    2PC     C21 2361   6.540   2.478   5.421 -0.1346  0.0624  0.0997
    2PC     O22 2362   6.457   2.494   5.508 -0.2245 -0.0806  0.0420
    3OL     C12 2363   6.540   2.354   5.335 -0.0688  0.0223  0.1584
    3OL     H2R 2364   6.460   2.282   5.355  0.5446 -0.7040  0.0557
    3OL     H2S 2365   6.633   2.298   5.350  0.2043  0.5156  0.3010
    3OL     C13 2366   6.540   2.393   5.187  0.0789  0.0196  0.1571
    3OL     H3R 2367   6.641   2.428   5.166 -0.9060  2.8978 -0.2079
    3OL     H3S 2368   6.472   2.477   5.177  1.4361  1.5516  2.9047
    3OL     C14 2369   6.498   2.278   5.093 -0.2477 -0.0756  0.4201
    3OL     H4R 2370   6.475   2.321   4.996  0.0991 -0.8230  0.0001
    3OL     H4S 2371   6.405   2.237   5.134 -1.0891  1.9589  0.7038
    3OL     C15 2372   6.609   2.173   5.086 -0.0147  0.2313 -0.6908
    3OL     H5R 2373   6.637   2.140   5.187 -2.0954 -0.5977 -0.3354
    3OL     H5S 2374   6.692   2.205   5.022 -0.8022  0.4239 -1.6208
    3OL     C16 2375   6.555   2.049   5.014 -1.0825  0.3010 -0.0289
    3OL     H6R 2376   6.630   1.996   4.955 -0.4036  0.2649  0.8418
    3OL     H6S 2377   6.480   2.065   4.937 -2.4888 -1.5164  0.8911
    3OL     C17 2378   6.504   1.946   5.116 -0.3432 -0.4436 -0.3953
    3OL     H7R 2379   6.410   1.987   5.155  0.8033  0.3894  1.6278
    3OL     H7S 2380   6.566   1.925   5.203 -1.0252 -2.1288 -0.2879
    3OL     C18 2381   6.455   1.813   5.057  0.1767 -0.6541 -0.3505
    3OL     H8R 2382   6.367   1.840   5.000 -0.3162 -0.5987  0.4185
    3OL     H8S 2383   6.411   1.747   5.132 -0.7254 -2.4827 -2.4131
    3OL     C19 2384   6.571   1.743   4.991  0.7324 -0.2160  0.1423
    3OL     H9R 2385   6.647   1.701   5.056  0.2727 -2.1174 -0.4918
    3OL    C110 2386   6.584   1.720   4.861  0.3951 -0.2412  0.1132
    3OL    H10R 2387   6.675   1.673   4.826  0.9707  2.1830 -1.9538
    3OL    C111 2388   6.489   1.765   4.753  0.0428 -0.0595  0.4975
    3OL    H11R 2389   6.482   1.874   4.750  2.1642  0.1512 -3.7166
    3OL    H11S 2390   6.388   1.725   4.768 -0.3930  1.5881  2.5667
    3OL    C112 2391   6.548   1.717   4.620  0.0141  0.5436  0.2644
    3OL    H12R 2392   6.566   1.610   4.612  2.9107  1.0713 -2.3128
    3OL    H12S 2393   6.648   1.757   4.603 -0.9331  2.4368 -1.3973
    3OL    C113 2394   6.452   1.766   4.510 -0.5773  0.2386  0.6405
    3OL    H13R 2395   6.462   1.874   4.508  1.5980  0.1067  1.6492
    3OL    H13S 2396   6.346   1.745   4.527 -0.9409  0.8176 -0.7566
    3OL    C114 2397   6.496   1.711   4.374 -0.0821  0.1560  0.8324
    3OL    H14R 2398   6.500   1.602   4.378  1.1906  0.1521  0.0453
    3OL    H14S 2399   6.597   1.746   4.350 -0.4441  0.2951 -0.6085
    3OL    C115 2400   6.418   1.771   4.256  0.5695 -0.1326  0.2413
    3OL    H15R 2401   6.429   1.878   4.271  1.7330 -0.1047 -0.7406
    3OL    H15S 2402   6.311   1.746   4.263  0.2564  1.0937  0.0214
    3OL    C116 2403   6.467   1.734   4.116  0.3030  0.5626 -0.0412
    3OL    H16R 2404   6.573   1.757   4.128  1.0388 -2.6120  0.5949
    3OL    H16S 2405   6.421   1.795   4.038 -2.1910 -0.4552  0.5543
    3OL    C117 2406   6.437   1.587   4.080 -0.1273  0.7250 -0.3523
    3OL    H17R 2407   6.331   1.563   4.069 -0.5277  0.5248  2.8783
    3OL    H17S 2408   6.477   1.522   4.158 -0.9322  0.3365 -0.2501
    3OL    C118 2409   6.501   1.557   3.945  0.1251  0.0567 -0.0876
    3OL    H18R 2410   6.476   1.630   3.867 -0.2989 -0.9160 -0.8884
    3OL    H18S 2411   6.466   1.457   3.921  0.2048 -0.7326  2.8341
    3OL    H18T 2412   6.608   1.547   3.966 -0.2463 -0.7075  1.6142
    1PA    C116 2413   6.065   1.450   3.881 -0.0606 -0.3475 -0.2388
    1PA    H16R 2414   6.099   1.500   3.790 -1.1093  1.4273  0.3016
    1PA    H16S 2415   6.066   1.514   3.969 -0.0698 -0.3618 -0.2281
    1PA    H16T 2416   5.960   1.427   3.864 -0.5721  1.1239  0.7121
    1PA    C115 2417   6.141   1.319   3.908  0.3948 -0.0132  0.1128
    1PA    H15R 2418   6.158   1.256   3.820  0.0135 -0.8993  0.6642
    1PA    H15S 2419   6.243   1.350   3.931  0.6175  0.1490 -1.0394
    1PA    C114 2420   6.081   1.245   4.028  0.5450 -0.1172  0.1238
    1PA    H14R 2421   6.056   1.311   4.111 -1.0924  1.6227 -1.6466
    1PA    H14S 2422   5.979   1.212   4.008 -1.2802  3.7782  2.0280
    1PA    C113 2423   6.148   1.115   4.076 -0.0686 -0.2584  0.6188
    1PA    H13R 2424   6.087   1.052   4.141  1.4005 -1.6762  0.6946
    1PA    H13S 2425   6.153   1.059   3.982 -1.4250 -0.6952  0.8002
    1PA    C112 2426   6.286   1.115   4.144  0.4894 -0.1909 -0.4908
    1PA    H12R 2427   6.315   1.012   4.162 -0.9102 -0.5131 -0.0100
    1PA    H12S 2428   6.348   1.149   4.060  0.9680 -1.3464 -0.6283
    1PA    C111 2429   6.295   1.192   4.276 -0.1626 -0.5696 -0.2226
    1PA    H11R 2430   6.249   1.291   4.265 -1.8298 -1.1744  0.9698
    1PA    H11S 2431   6.239   1.137   4.352  0.0054 -1.0790 -0.4607
    1PA    C110 2432   6.442   1.207   4.316 -0.2234 -0.3909 -0.0645
    1PA    H10R 2433   6.464   1.102   4.337 -4.8149 -1.1242  2.3918
    1PA    H10S 2434   6.494   1.248   4.229 -0.8910 -0.6734 -0.5956
    1PA     C19 2435   6.463   1.287   4.446 -0.1039 -0.0080 -0.3181
    1PA     H9R 2436   6.570   1.286   4.469 -0.4094  0.3694  1.2344
    1PA     H9S 2437   6.438   1.391   4.425 -2.3213 -0.1583  1.1814
    1PA     C18 2438   6.378   1.236   4.563 -0.1518 -0.0721 -0.3801
    1PA     H8R 2439   6.273   1.238   4.533 -0.0200  0.1812 -0.8431
    1PA     H8S 2440   6.397   1.132   4.589  1.5558 -1.0355 -4.6296
    1PA     C17 2441   6.395   1.324   4.688 -0.1608 -0.3472 -0.1853
    1PA     H7R 2442   6.503   1.328   4.705  0.4464  0.7827 -3.6101
    1PA     H7S 2443   6.359   1.423   4.659  0.2421 -0.4172 -0.9759
    1PA     C16 2444   6.319   1.280   4.813 -0.2483 -0.3641 -0.2444
    1PA     H6R 2445   6.211   1.292   4.802  0.0963  2.3731 -1.3123
    1PA     H6S 2446   6.343   1.175   4.832  0.8425 -0.0218  0.3451
    1PA     C15 2447   6.364   1.353   4.941 -0.5158 -0.0968 -0.3020
    1PA     H5R 2448   6.470   1.334   4.955 -0.6013 -2.8128 -2.3650
    1PA     H5S 2449   6.348   1.461   4.935 -0.8853  0.1130  2.7772
    1PA     C14 2450   6.290   1.298   5.064 -0.3820 -0.1062 -0.2267
    1PA     H4R 2451   6.268   1.191   5.058 -0.4660 -0.0702 -0.5643
    1PA     H4S 2452   6.350   1.314   5.153  3.6243 -1.5933 -2.3824
    1PA     C13 2453   6.157   1.368   5.095 -0.2002 -0.0710  0.4901
    1PA     H3R 2454   6.088   1.376   5.011  1.9378  2.0362 -1.2123
    1PA     H3S 2455   6.109   1.300   5.166  0.5578 -0.7546  0.3677
    1PA     C12 2456   6.186   1.500   5.168  0.1528  0.2954 -0.3034
    1PA     H2R 2457   6.234   1.477   5.263 -2.7240 -0.7419  1.0024
    1PA     H2S 2458   6.256   1.566   5.116  3.0223 -0.3914  2.4261
    2PC     C11 2459   6.060   1.570   5.210  0.4278  0.5380  0.1191
    2PC     O12 2460   6.046   1.691   5.207 -0.1759  0.4565 -0.8048
    2PC     O11 2461   5.980   1.479   5.268  0.2566  0.2822 -0.5137
    2PC      C1 2462   5.856   1.523   5.326  0.1704 -0.1711 -0.3501
    2PC      HR 2463   5.895   1.589   5.405  4.6869 -0.3900 -2.1119
    2PC      HS 2464   5.808   1.576   5.244  0.6571  0.6776 -0.1058
    2PC      C2 2465   5.773   1.408   5.384 -0.0247  0.2852  0.2989
    2PC      HX 2466   5.686   1.449   5.436 -0.6789 -0.3780 -0.2463
    2PC      C3 2467   5.853   1.323   5.483  0.2377  0.0634 -0.0995
    2PC      HA 2468   5.923   1.255   5.433 -0.3183  1.4571 -2.9771
    2PC      HB 2469   5.910   1.389   5.550 -0.4319 -0.8367  1.4103
    2PC     O31 2470   5.757   1.259   5.568  0.2021  0.4944  0.1900
    2PC     P31 2471   5.793   1.239   5.723 -0.0990  0.3117  0.2380
    2PC     O32 2472   5.706   1.110   5.761  0.0606 -0.0628 -0.6424
    2PC     C31 2473   5.568   1.117   5.723 -0.1884 -0.1099  0.2188
    2PC     H1A 2474   5.540   1.215   5.684  0.1484 -0.0437  0.1390
    2PC     H1B 2475   5.555   1.043   5.643 -0.4703  0.2542 -0.0764
    2PC     C32 2476   5.472   1.090   5.840 -0.2604 -0.3089  0.1151
    2PC     H2A 2477   5.466   1.182   5.898 -0.2003 -1.4445  2.0200
    2PC     H2B 2478   5.375   1.073   5.794 -1.0587 -0.4234  1.7683
    2PC     N31 2479   5.483   0.971   5.931  0.4330 -0.0801  0.3393
    2PC     C33 2480   5.607   0.967   6.016  0.2016  0.2031  0.6964
    2PC     H3A 2481   5.595   0.879   6.079  0.8256  1.0220  1.9861
    2PC     H3B 2482   5.690   0.947   5.949 -0.6425 -2.4335  0.3066
    2PC     H3C 2483   5.600   1.060   6.073 -1.3426  0.8092 -0.3819
    2PC     C34 2484   5.367   0.974   6.027 -0.1734 -0.0167 -0.3846
    2PC     H4A 2485   5.278   1.000   5.970  0.0718 -0.3086 -0.9128
    2PC     H4B 2486   5.357   0.872   6.065 -0.6544 -0.7897 -2.4392
    2PC     H4C 2487   5.394   1.042   6.108  0.7672 -0.0500 -0.6578
    2PC     C35 2488   5.488   0.844   5.852 -0.0815 -0.0834  0.3104
    2PC     H5A 2489   5.453   0.769   5.923 -0.2525  0.4691  0.8223
    2PC     H5B 2490   5.591   0.826   5.824  0.4041  0.9489  1.3457
    2PC     H5C 2491   5.416   0.839   5.770 -0.6355 -0.2134  0.7934
    2PC     O33 2492   5.939   1.239   5.750  0.0641 -0.8205 -0.5798
    2PC     O34 2493   5.751   1.349   5.814 -0.2614  0.1261  0.3895
    2PC     O21 2494   5.718   1.338   5.271  0.2060 -0.2483  0.5150
    2PC     C21 2495   5.603   1.387   5.222  0.3684 -0.3622  0.0089
    2PC     O22 2496   5.543   1.487   5.255  0.7362 -0.1379 -0.0048
    3OL     C12 2497   5.544   1.301   5.112 -0.2206 -0.2214  0.2087
    3OL     H2R 2498   5.445   1.268   5.143 -0.1678 -0.4705  0.1124
    3OL     H2S 2499   5.599   1.207   5.105  0.6657  0.4192 -2.1866
    3OL     C13 2500   5.537   1.383   4.982  0.0626 -0.1698  0.2245
    3OL     H3R 2501   5.637   1.416   4.955 -0.4626 -1.5944 -4.1402
    3OL     H3S 2502   5.486   1.476   5.007  1.3466  1.5952 -3.2133
    3OL     C14 2503   5.469   1.292   4.879  0.0722 -0.0747  0.1355
    3OL     H4R 2504   5.369   1.263   4.911 -0.0164 -0.4732 -0.4805
    3OL     H4S 2505   5.531   1.205   4.862  0.5312  0.2307  0.2251
    3OL     C15 2506   5.457   1.368   4.745  0.1401 -0.3523 -0.0281
    3OL     H5R 2507   5.556   1.402   4.714 -1.0289  2.4410 -0.9592
    3OL     H5S 2508   5.396   1.456   4.764  0.0190 -0.6577  1.1017
    3OL     C16 2509   5.405   1.272   4.637  0.0006  0.1763 -0.4338
    3OL     H6R 2510   5.325   1.209   4.678 -2.0048  2.0209 -1.3159
    3OL     H6S 2511   5.485   1.216   4.588 -0.5671  0.0729 -1.2528
    3OL     C17 2512   5.342   1.356   4.526 -0.8162 -0.0036 -0.1149
    3OL     H7R 2513   5.420   1.409   4.471 -1.0257  0.9191  0.4445
    3OL     H7S 2514   5.275   1.432   4.569 -1.2126 -0.5402  0.2277
    3OL     C18 2515   5.258   1.274   4.427 -0.3172 -0.2973 -0.2970
    3OL     H8R 2516   5.211   1.350   4.364 -0.8049  0.6491  1.1497
    3OL     H8S 2517   5.176   1.221   4.475 -1.0864  1.0694 -0.0438
    3OL     C19 2518   5.328   1.178   4.334 -0.1014 -0.5814  0.1581
    3OL     H9R 2519   5.389   1.223   4.257  0.4863  0.7154  1.3336
    3OL    C110 2520   5.337   1.046   4.347 -0.0238 -0.5994 -0.0895
    3OL    H10R 2521   5.406   0.991   4.283 -1.6542 -4.3233  1.1014
    3OL    C111 2522   5.254   0.962   4.440 -0.4118 -0.0705  0.0475
    3OL    H11R 2523   5.154   0.958   4.396 -0.9024  0.1010  1.1215
    3OL    H11S 2524   5.249   1.012   4.537  2.1375  0.0732  0.1820
    3OL    C112 2525   5.301   0.816   4.447 -0.4277 -0.0412  0.7947
    3OL    H12R 2526   5.278   0.758   4.358  0.2817  0.1198  0.5008
    3OL    H12S 2527   5.251   0.768   4.532 -1.2625 -0.6254 -0.0046
    3OL    C113 2528   5.451   0.806   4.478 -0.2020 -0.0042 -0.2622
    3OL    H13R 2529   5.474   0.849   4.575 -0.1200  0.7602 -0.6118
    3OL    H13S 2530   5.506   0.859   4.400 -1.2813 -0.9384 -1.7125
    3OL    C114 2531   5.501   0.661   4.474 -0.5105 -0.1329  0.4247
    3OL    H14R 2532   5.494   0.614   4.375 -0.0528 -0.4095  0.5216
    3OL    H14S 2533   5.430   0.614   4.542 -0.8417  1.3150  1.1231
    3OL    C115 2534   5.631   0.629   4.548 -0.2202 -0.0675 -0.0506
    3OL    H15R 2535   5.634   0.674   4.647 -0.1824  2.8074 -1.2850
    3OL    H15S 2536   5.720   0.661   4.493  2.3387 -2.6518  2.2129
    3OL    C116 2537   5.655   0.477   4.556 -0.3009 -0.0756  0.0396
    3OL    H16R 2538   5.687   0.439   4.459  2.0637  0.7097  0.4352
    3OL    H16S 2539   5.557   0.434   4.575 -0.6053 -0.1672 -1.6320
    3OL    C117 2540   5.761   0.428   4.656  0.3545  0.6099 -0.3110
    3OL    H17R 2541   5.733   0.446   4.760  1.1359 -0.7928  0.1702
    3OL    H17S 2542   5.848   0.494   4.642 -0.1287  0.9225 -2.0942
    3OL    C118 2543   5.777   0.278   4.633 -0.1900  0.4769  0.1548
    3OL    H18R 2544   5.822   0.256   4.535  1.7442  1.2704  0.8235
    3OL    H18S 2545   5.676   0.236   4.638  0.0967 -0.0891  1.3830
    3OL    H18T 2546   5.840   0.238   4.712  1.1390  0.4882 -0.8634
    1PA    C116 2547   5.552   5.642   4.223 -0.6785 -0.0140 -0.2204
    1PA    H16R 2548   5.649   5.692   4.221 -2.1581  3.0997  0.1342
    1PA    H16S 2549   5.488   5.720   4.181  0.6483  0.3256 -1.6974
    1PA    H16T 2550   5.537   5.552   4.163 -0.9261 -1.1829  1.5025
    1PA    C115 2551   5.514   5.603   4.367  0.1030  0.4235  0.1067
    1PA    H15R 2552   5.503   5.687   4.437 -2.1439 -1.5308  2.3190
    1PA    H15S 2553   5.411   5.567   4.357  0.4525 -0.7475  0.5831
    1PA    C114 2554   5.611   5.493   4.412 -0.2444  0.1941  0.2986
    1PA    H14R 2555   5.558   5.427   4.481 -0.6726 -0.2432 -0.4389
    1PA    H14S 2556   5.638   5.427   4.330  1.8099  0.8749  0.3679
    1PA    C113 2557   5.743   5.545   4.472  0.1188  0.1056 -0.4154
    1PA    H13R 2558   5.790   5.613   4.400 -2.5463  0.6644 -1.7796
    1PA    H13S 2559   5.707   5.600   4.560 -0.4808 -0.3161 -0.3879
    1PA    C112 2560   5.835   5.435   4.526 -0.4305 -0.0978  0.1204
    1PA    H12R 2561   5.781   5.373   4.597  0.6002 -0.1003  0.9290
    1PA    H12S 2562   5.858   5.361   4.449  2.7439  1.5611 -0.7326
    1PA    C111 2563   5.971   5.488   4.573 -0.3711 -0.1589  0.0161
    1PA    H11R 2564   6.007   5.552   4.492  0.7895 -0.5317  0.2111
    1PA    H11S 2565   5.969   5.548   4.664 -0.8804  1.5290 -1.0787
    1PA    C110 2566   6.080   5.383   4.599  0.3445  0.4549 -0.4617
    1PA    H10R 2567   6.055   5.318   4.683 -1.1844  0.1569 -1.1213
    1PA    H10S 2568   6.089   5.311   4.516  0.4104 -0.6371  0.4674
    1PA     C19 2569   6.219   5.445   4.618  0.6546 -0.2767 -0.2773
    1PA     H9R 2570   6.263   5.488   4.528  0.3968  2.2095  0.6893
    1PA     H9S 2571   6.204   5.533   4.682 -1.2274 -0.8254  0.1042
    1PA     C18 2572   6.315   5.343   4.680 -0.0856 -0.5120  0.5062
    1PA     H8R 2573   6.274   5.320   4.779 -1.0820  1.9739  0.7380
    1PA     H8S 2574   6.330   5.254   4.619  0.6460 -1.2768  1.7394
    1PA     C17 2575   6.454   5.406   4.699 -0.2597  0.1863 -0.4635
    1PA     H7R 2576   6.531   5.335   4.729 -0.4703  0.2288  0.1847
    1PA     H7S 2577   6.484   5.440   4.600 -1.5222  0.4504 -0.7636
    1PA     C16 2578   6.462   5.517   4.806 -0.3693 -0.1580 -0.0960
    1PA     H6R 2579   6.549   5.578   4.782  0.5370 -1.4193 -0.1109
    1PA     H6S 2580   6.377   5.585   4.798 -0.2152 -0.1313 -1.9603
    1PA     C15 2581   6.489   5.456   4.944  0.2728  0.2341 -0.0491
    1PA     H5R 2582   6.403   5.391   4.962  0.1590  0.5467  0.5631
    1PA     H5S 2583   6.582   5.399   4.941 -0.3319 -0.7261 -1.2597
    1PA     C14 2584   6.500   5.557   5.059  0.3739 -0.1424  0.2744
    1PA     H4R 2585   6.406   5.612   5.064  0.8337  0.5840  1.4545
    1PA     H4S 2586   6.518   5.510   5.156  0.0729 -0.8831 -0.0238
    1PA     C13 2587   6.625   5.643   5.032  0.0685  0.0569 -0.5405
    1PA     H3R 2588   6.721   5.597   5.012 -0.0740  0.0229 -1.1795
    1PA     H3S 2589   6.621   5.704   4.941  1.8926  3.6234  1.5232
    1PA     C12 2590   6.640   5.748   5.144  0.0837 -0.3936 -0.1193
    1PA     H2R 2591   6.706   5.828   5.111  2.2113 -1.4363  1.3988
    1PA     H2S 2592   6.547   5.789   5.184  0.9262 -0.0784  1.6183
    2PC     C11 2593   6.712   5.682   5.260 -0.5640 -0.3855  0.2935
    2PC     O12 2594   6.818   5.626   5.244 -0.2892  0.2382 -0.1311
    2PC     O11 2595   6.656   5.705   5.380 -0.3583 -0.0872  0.3358
    2PC      C1 2596   6.716   5.638   5.492 -0.2965  0.4956  0.6503
    2PC      HR 2597   6.825   5.645   5.489 -0.2888  0.1530 -0.0495
    2PC      HS 2598   6.672   5.683   5.582 -0.6692  2.9659 -0.6613
    2PC      C2 2599   6.678   5.489   5.492  0.6884  0.2405  0.5023
    2PC      HX 2600   6.578   5.479   5.449  1.1979 -1.0619 -0.4467
    2PC      C3 2601   6.697   5.441   5.636  0.5753  0.1796  0.4973
    2PC      HA 2602   6.611   5.453   5.703  0.4240  0.0885  0.3200
    2PC      HB 2603   6.707   5.332   5.634  3.2738  0.2287  3.1321
    2PC     O31 2604   6.811   5.501   5.700  0.8571  0.2015 -0.0214
    2PC     P31 2605   6.862   5.443   5.840 -0.2443 -0.2722  0.1935
    2PC     O32 2606   6.844   5.575   5.928  0.6909 -0.2212  0.3210
    2PC     C31 2607   6.962   5.636   5.984  0.3524  0.4426  0.3234
    2PC     H1A 2608   7.010   5.555   6.040 -0.5350 -1.8608 -2.0284
    2PC     H1B 2609   7.025   5.673   5.903  1.3144 -0.5591  0.5827
    2PC     C32 2610   6.922   5.751   6.078 -0.3983  0.3461  0.1304
    2PC     H2A 2611   6.847   5.815   6.031 -4.4467 -1.4469  3.4861
    2PC     H2B 2612   6.872   5.708   6.165  0.6114 -3.1122 -0.8240
    2PC     N31 2613   7.036   5.839   6.120  0.4322 -0.5254 -0.2573
    2PC     C33 2614   7.143   5.762   6.192 -0.2678 -0.6202  0.7036
    2PC     H3A 2615   7.099   5.685   6.256 -1.2933 -1.0010 -0.4202
    2PC     H3B 2616   7.199   5.705   6.117  2.4651 -1.1800  2.9837
    2PC     H3C 2617   7.211   5.832   6.240  0.7938 -0.6627 -0.6712
    2PC     C34 2618   7.089   5.927   6.012 -0.2004 -0.1220 -0.2421
    2PC     H4A 2619   7.001   5.962   5.958  0.1668 -1.9147 -2.1376
    2PC     H4B 2620   7.149   6.007   6.056  2.1771 -1.4356 -0.9329
    2PC     H4C 2621   7.149   5.861   5.948  0.1586  1.6473 -1.8341
    2PC     C35 2622   6.978   5.934   6.220  0.3633  0.1323 -0.9155
    2PC     H5A 2623   6.910   5.995   6.161 -2.3540 -2.5539 -0.8221
    2PC     H5B 2624   7.062   5.990   6.261 -1.4067  1.1246  1.6087
    2PC     H5C 2625   6.918   5.881   6.295 -0.6211 -0.9813 -2.4475
    2PC     O33 2626   6.790   5.327   5.897 -0.0274 -0.2285  0.5676
    2PC     O34 2627   7.001   5.395   5.817 -0.1030  0.3207 -0.1979
    2PC     O21 2628   6.765   5.419   5.401  0.2967  0.2960  0.0838
    2PC     C21 2629   6.724   5.297   5.363  0.0161  0.1365  0.8872
    2PC     O22 2630   6.624   5.243   5.406 -0.1635 -0.4428 -0.2125
    3OL     C12 2631   6.819   5.249   5.256 -0.2361  0.1688  0.6487
    3OL     H2R 2632   6.890   5.180   5.301 -0.8511 -1.6914 -1.0620
    3OL     H2S 2633   6.879   5.330   5.213  1.2973 -1.4488 -0.3899
    3OL     C13 2634   6.740   5.168   5.153 -0.0387  0.3444  0.3565
    3OL     H3R 2635   6.675   5.236   5.097  0.7575  0.2778 -0.6711
    3OL     H3S 2636   6.682   5.098   5.214  0.8522  1.4270  2.5629
    3OL     C14 2637   6.818   5.077   5.057 -0.1090  0.0795  0.5479
    3OL     H4R 2638   6.878   5.013   5.121  0.5145  0.2487  0.1379
    3OL     H4S 2639   6.889   5.144   5.008 -0.7985  3.2086  3.4294
    3OL     C15 2640   6.731   4.999   4.956 -0.0365 -0.0494  0.5854
    3OL     H5R 2641   6.658   5.071   4.919 -0.6266 -2.1053 -2.5461
    3OL     H5S 2642   6.672   4.922   5.007 -0.5343  1.2777  2.1184
    3OL     C16 2643   6.802   4.946   4.831 -0.3396  0.2506  0.2836
    3OL     H6R 2644   6.887   4.886   4.865 -0.2323  0.8576  1.1237
    3OL     H6S 2645   6.843   5.031   4.777 -0.4067  0.7864  1.0491
    3OL     C17 2646   6.713   4.873   4.729 -0.2563  0.0565  0.3485
    3OL     H7R 2647   6.649   4.805   4.787  0.9944 -1.5459 -0.0949
    3OL     H7S 2648   6.774   4.820   4.656 -1.1632 -2.2080  1.1492
    3OL     C18 2649   6.616   4.971   4.662 -0.0317 -0.0824 -0.1839
    3OL     H8R 2650   6.674   5.043   4.605 -0.0375 -0.9135 -1.2816
    3OL     H8S 2651   6.560   5.028   4.737 -0.6781  0.6670 -1.2129
    3OL     C19 2652   6.520   4.899   4.570 -0.7280  0.2528  0.2698
    3OL     H9R 2653   6.485   4.803   4.607  0.0948 -1.0493 -2.1244
    3OL    C110 2654   6.485   4.946   4.451  0.5096  0.6816  0.0549
    3OL    H10R 2655   6.429   4.888   4.379  0.0512  1.0179  0.1334
    3OL    C111 2656   6.530   5.082   4.405  0.0801  0.8326  0.0729
    3OL    H11R 2657   6.625   5.069   4.352 -1.1025 -0.6306 -1.8248
    3OL    H11S 2658   6.551   5.147   4.490 -1.4392  0.5963  0.6663
    3OL    C112 2659   6.427   5.141   4.307 -0.0178  0.1167 -0.2665
    3OL    H12R 2660   6.325   5.137   4.344  0.4901  1.4503  1.4486
    3OL    H12S 2661   6.439   5.091   4.211  1.1109 -0.7587  0.3046
    3OL    C113 2662   6.467   5.288   4.284 -0.1959  0.2027 -0.0313
    3OL    H13R 2663   6.541   5.285   4.204  0.2850 -0.9341  0.4306
    3OL    H13S 2664   6.501   5.335   4.376 -1.5623 -1.4564  1.4112
    3OL    C114 2665   6.350   5.368   4.225 -0.4626 -0.1241  0.0471
    3OL    H14R 2666   6.386   5.466   4.193 -1.0789  0.3871  0.8863
    3OL    H14S 2667   6.278   5.386   4.305  0.3707  0.1057  0.7639
    3OL    C115 2668   6.286   5.297   4.105  0.3773 -0.7978 -0.0127
    3OL    H15R 2669   6.269   5.191   4.126  0.5927 -0.8076  0.1192
    3OL    H15S 2670   6.354   5.299   4.020 -0.9638 -2.2260 -1.1995
    3OL    C116 2671   6.152   5.359   4.063  0.4042 -0.6758  0.0814
    3OL    H16R 2672   6.167   5.466   4.049  0.4021 -0.6570  0.2155
    3OL    H16S 2673   6.082   5.345   4.146  1.3336 -1.9479  0.6994
    3OL    C117 2674   6.085   5.285   3.945  0.2496 -0.1009 -0.1936
    3OL    H17R 2675   6.034   5.197   3.983  0.3165  0.1695  0.5558
    3OL    H17S 2676   6.166   5.244   3.884  1.0728  1.4377 -0.1868
    3OL    C118 2677   6.010   5.392   3.865 -0.0683 -0.5189 -0.4560
    3OL    H18R 2678   6.074   5.480   3.866 -0.7864  0.0241 -1.2167
    3OL    H18S 2679   5.918   5.417   3.919  0.6133 -1.4145  1.2196
    3OL    H18T 2680   5.983   5.365   3.763 -0.6457 -0.7521 -0.2460
    1PA    C116 2681   3.625   1.993   3.799 -0.3323  0.5466  0.2359
    1PA    H16R 2682   3.542   2.028   3.861  0.2953  1.4742  0.5712
    1PA    H16S 2683   3.719   2.035   3.834 -0.5421  0.9580  0.3097
    1PA    H16T 2684   3.639   1.886   3.818 -0.7651  0.0212 -2.0794
    1PA    C115 2685   3.600   2.039   3.655  0.1292  0.0743  0.0007
    1PA    H15R 2686   3.560   2.139   3.672 -0.1139 -0.3193  2.0209
    1PA    H15S 2687   3.695   2.042   3.601 -0.0610  0.6738 -0.3080
    1PA    C114 2688   3.497   1.955   3.577  0.1245  0.3418 -0.2850
    1PA    H14R 2689   3.465   2.000   3.483 -2.5995 -1.0736 -0.1249
    1PA    H14S 2690   3.541   1.857   3.556 -0.4250  0.4434 -2.0592
    1PA    C113 2691   3.371   1.936   3.662  0.2943  0.4466 -0.0056
    1PA    H13R 2692   3.401   1.880   3.751  0.4775 -0.6034 -0.7069
    1PA    H13S 2693   3.329   2.033   3.688 -0.2207  0.3930 -0.5993
    1PA    C112 2694   3.265   1.851   3.589  0.7795  0.2041 -0.4325
    1PA    H12R 2695   3.266   1.878   3.483  0.6949  1.1373 -0.2014
    1PA    H12S 2696   3.306   1.750   3.598  0.6739  0.2624  0.8533
    1PA    C111 2697   3.125   1.860   3.651  0.6374 -0.1269 -0.7029
    1PA    H11R 2698   3.106   1.956   3.700 -0.2828 -2.3245  3.7392
    1PA    H11S 2699   3.051   1.850   3.571 -0.1954 -3.2606  0.3516
    1PA    C110 2700   3.102   1.747   3.751  0.6836  0.3492 -0.1512
    1PA    H10R 2701   3.098   1.657   3.689  1.4693 -1.0624  1.7349
    1PA    H10S 2702   3.183   1.733   3.823 -0.0965  0.3399  0.7473
    1PA     C19 2703   2.973   1.762   3.833  0.4265  0.0299 -0.4941
    1PA     H9R 2704   2.976   1.858   3.885 -0.9380 -0.6086  0.8558
    1PA     H9S 2705   2.894   1.750   3.758  1.5716  0.1149 -1.7307
    1PA     C18 2706   2.950   1.645   3.929 -0.5118  0.4288 -0.2146
    1PA     H8R 2707   2.845   1.640   3.959 -0.4644 -1.0777 -0.2229
    1PA     H8S 2708   2.972   1.549   3.882  0.7102  1.3887 -1.6647
    1PA     C17 2709   3.019   1.666   4.065  0.1523 -0.0255 -0.4783
    1PA     H7R 2710   3.117   1.712   4.049 -0.1817  1.8465  2.2435
    1PA     H7S 2711   2.965   1.737   4.128  0.1455  1.1326 -1.7491
    1PA     C16 2712   3.049   1.535   4.140  0.0097  0.0449 -0.3005
    1PA     H6R 2713   2.962   1.507   4.200  1.3992 -0.1070  1.7530
    1PA     H6S 2714   3.074   1.453   4.073 -0.3439 -1.6659  1.5776
    1PA     C15 2715   3.164   1.546   4.241  0.1892 -0.5314 -0.4411
    1PA     H5R 2716   3.259   1.533   4.188  0.8741  1.9007  0.0361
    1PA     H5S 2717   3.174   1.645   4.286 -1.7186 -0.6709  0.3593
    1PA     C14 2718   3.142   1.438   4.347  0.3073 -0.1077  0.0233
    1PA     H4R 2719   3.068   1.459   4.425  0.3873 -1.8272  0.6107
    1PA     H4S 2720   3.109   1.349   4.291 -2.2693 -0.7116  2.2995
    1PA     C13 2721   3.270   1.400   4.423  0.2617 -0.3011  0.0040
    1PA     H3R 2722   3.254   1.297   4.456  0.9311 -0.1914  0.6778
    1PA     H3S 2723   3.352   1.387   4.352  2.0663 -0.0033  1.9355
    1PA     C12 2724   3.303   1.513   4.521 -0.4729 -0.6524  0.6684
    1PA     H2R 2725   3.319   1.602   4.461 -3.0079  0.0262  0.8865
    1PA     H2S 2726   3.226   1.545   4.591  0.3070  0.3956  1.0717
    2PC     C11 2727   3.424   1.484   4.607  0.1926  0.1268  0.0093
    2PC     O12 2728   3.482   1.572   4.666 -0.3229  0.3878  0.1341
    2PC     O11 2729   3.444   1.353   4.630  0.2403  0.0848 -0.2647
    2PC      C1 2730   3.506   1.306   4.751  0.1522  0.3973 -0.0956
    2PC      HR 2731   3.507   1.197   4.750  0.6519  0.4047 -1.0656
    2PC      HS 2732   3.611   1.337   4.754 -0.0442  1.2172 -1.1717
    2PC      C2 2733   3.425   1.344   4.876  0.0796 -0.1573  0.0301
    2PC      HX 2734   3.410   1.452   4.881 -1.0153 -0.2759 -0.4320
    2PC      C3 2735   3.483   1.281   5.003  0.0276  0.3177  0.2921
    2PC      HA 2736   3.476   1.172   5.007  1.8300  0.2146  1.7812
    2PC      HB 2737   3.589   1.304   5.011  1.2887 -3.4643 -2.7900
    2PC     O31 2738   3.410   1.342   5.111  0.1950  1.0249  0.0136
    2PC     P31 2739   3.431   1.281   5.258 -0.2664  0.2646 -0.2272
    2PC     O32 2740   3.403   1.415   5.342  0.5347 -0.0482  0.5585
    2PC     C31 2741   3.485   1.531   5.317  0.1989  0.1186  0.2257
    2PC     H1A 2742   3.590   1.511   5.340  0.5464  2.4694  0.9687
    2PC     H1B 2743   3.479   1.564   5.213  0.1701  2.2869  0.8783
    2PC     C32 2744   3.445   1.647   5.409  0.1362  0.1330  0.1808
    2PC     H2A 2745   3.521   1.723   5.393  1.2030 -0.7988  0.6787
    2PC     H2B 2746   3.347   1.682   5.376  0.6217 -0.9360 -2.6743
    2PC     N31 2747   3.441   1.625   5.557 -0.2749  0.5349  0.2303
    2PC     C33 2748   3.440   1.761   5.621  0.5596  0.4026  0.5404
    2PC     H3A 2749   3.336   1.788   5.639  0.8866  0.2831  3.0174
    2PC     H3B 2750   3.473   1.762   5.725  0.2275 -3.8459  0.8492
    2PC     H3C 2751   3.493   1.832   5.558 -1.1383  0.7432 -0.5830
    2PC     C34 2752   3.319   1.546   5.591  0.0033  0.1584  0.3565
    2PC     H4A 2753   3.225   1.592   5.560 -1.3432 -1.3077  2.0377
    2PC     H4B 2754   3.320   1.448   5.544 -0.2733  0.4971 -0.3714
    2PC     H4C 2755   3.322   1.538   5.700 -1.3924  0.4040  0.4349
    2PC     C35 2756   3.563   1.553   5.606 -0.1921  0.2472 -0.3949
    2PC     H5A 2757   3.574   1.467   5.540 -0.1188  0.6680 -0.9411
    2PC     H5B 2758   3.542   1.512   5.705 -1.0105 -0.4329 -0.8384
    2PC     H5C 2759   3.648   1.621   5.606 -0.5634  0.7515  0.9860
    2PC     O33 2760   3.333   1.175   5.289  0.2915 -0.0085  0.6284
    2PC     O34 2761   3.568   1.231   5.280 -0.4231  0.1765  0.5955
    2PC     O21 2762   3.291   1.293   4.860  0.0882 -0.2896  0.3814
    2PC     C21 2763   3.253   1.166   4.844 -0.6271 -0.0553  0.1893
    2PC     O22 2764   3.324   1.068   4.835 -0.2482  0.2656 -0.2872
    3OL     C12 2765   3.103   1.149   4.838 -0.6376  0.0643  0.1218
    3OL     H2R 2766   3.074   1.147   4.943  1.7145 -0.2566  0.8235
    3OL     H2S 2767   3.081   1.050   4.798  2.9731 -1.5306  1.6293
    3OL     C13 2768   3.028   1.255   4.756 -0.5521 -0.1382 -0.2204
    3OL     H3R 2769   3.071   1.248   4.656  1.6009  0.7777  0.5930
    3OL     H3S 2770   3.053   1.353   4.797 -3.1212  0.6618 -0.3755
    3OL     C14 2771   2.876   1.232   4.760 -0.5393 -0.1754  0.1321
    3OL     H4R 2772   2.859   1.217   4.867 -0.2663 -0.4344  0.1409
    3OL     H4S 2773   2.866   1.141   4.700 -2.4532 -0.0336  0.1869
    3OL     C15 2774   2.793   1.350   4.707  0.6078  0.7266  0.3089
    3OL     H5R 2775   2.815   1.435   4.772  4.2450 -1.3275  2.0742
    3OL     H5S 2776   2.686   1.333   4.713  0.5676  1.0334  0.4807
    3OL     C16 2777   2.834   1.381   4.562  0.0876 -0.4080 -0.0961
    3OL     H6R 2778   2.832   1.305   4.484  0.5549  2.0453 -2.6703
    3OL     H6S 2779   2.937   1.417   4.568  0.1241  0.4371 -3.6356
    3OL     C17 2780   2.751   1.499   4.510  0.4296 -0.2663 -0.3260
    3OL     H7R 2781   2.804   1.532   4.420  0.4204 -0.1237 -0.2805
    3OL     H7S 2782   2.743   1.572   4.590 -1.1913 -0.5554 -0.1762
    3OL     C18 2783   2.604   1.472   4.475  0.2421  0.8840 -0.4737
    3OL     H8R 2784   2.553   1.568   4.460  0.0745  1.4478  2.9488
    3OL     H8S 2785   2.549   1.437   4.563 -1.2881  0.8306 -1.4095
    3OL     C19 2786   2.588   1.378   4.358 -0.2543 -0.2516  0.4827
    3OL     H9R 2787   2.659   1.402   4.280  1.2504  0.1973  1.9261
    3OL    C110 2788   2.499   1.281   4.347 -0.1478 -0.3660  0.6234
    3OL    H10R 2789   2.490   1.221   4.256 -0.0746 -3.1805  2.3278
    3OL    C111 2790   2.428   1.201   4.453 -0.4057 -0.7457  0.1737
    3OL    H11R 2791   2.336   1.160   4.411 -0.4433  0.2968 -0.7955
    3OL    H11S 2792   2.402   1.271   4.533  0.4258 -0.6471  0.3698
    3OL    C112 2793   2.527   1.100   4.514  0.3484 -0.0219  0.1780
    3OL    H12R 2794   2.619   1.154   4.537 -0.7362  2.1014 -0.2658
    3OL    H12S 2795   2.550   1.033   4.431 -1.4542  1.4001 -1.5785
    3OL    C113 2796   2.473   1.012   4.628  0.2120  0.0657  0.1818
    3OL    H13R 2797   2.377   0.964   4.607 -0.9059  1.1355  2.4007
    3OL    H13S 2798   2.460   1.072   4.719  0.6079 -0.4559  0.5921
    3OL    C114 2799   2.576   0.908   4.673  0.4974  0.4468  0.4205
    3OL    H14R 2800   2.669   0.961   4.693  1.0802 -0.3610 -0.0734
    3OL    H14S 2801   2.589   0.842   4.587  0.2975 -0.1139  0.8162
    3OL    C115 2802   2.517   0.820   4.784  0.2437  0.2261  0.1144
    3OL    H15R 2803   2.430   0.772   4.740  0.2059  1.2559 -0.9833
    3OL    H15S 2804   2.502   0.874   4.878 -0.0810  0.0405  0.1722
    3OL    C116 2805   2.620   0.710   4.812 -0.4632 -0.4265  0.1838
    3OL    H16R 2806   2.715   0.758   4.840 -0.3722 -0.1259 -0.6072
    3OL    H16S 2807   2.651   0.665   4.718 -2.0245  1.6501 -1.4141
    3OL    C117 2808   2.579   0.600   4.911 -0.3210 -0.4111  0.2615
    3OL    H17R 2809   2.655   0.523   4.906  2.0143  1.8724 -2.5913
    3OL    H17S 2810   2.481   0.564   4.878  0.0038  0.3148 -1.6067
    3OL    C118 2811   2.581   0.653   5.055 -0.1413 -0.7330  0.3778
    3OL    H18R 2812   2.570   0.571   5.126 -1.2959 -0.9123  0.0171
    3OL    H18S 2813   2.506   0.730   5.075  2.0048  1.1377  1.7150
    3OL    H18T 2814   2.675   0.700   5.086  0.0571 -2.0519  1.8929
    1PA    C116 2815   1.708   2.604   3.710  0.7250 -0.2243  0.3106
    1PA    H16R 2816   1.688   2.666   3.622 -0.3914 -0.4056  0.4269
    1PA    H16S 2817   1.621   2.543   3.732  0.2752  0.3908  0.2744
    1PA    H16T 2818   1.795   2.538   3.699  0.3807 -0.6832  0.3196
    1PA    C115 2819   1.722   2.697   3.832 -0.0322 -0.1728  0.3614
    1PA    H15R 2820   1.813   2.755   3.819 -0.7654  1.0167  0.4136
    1PA    H15S 2821   1.633   2.760   3.829  0.1338  0.0362 -1.4841
    1PA    C114 2822   1.744   2.623   3.965 -0.6805 -0.3294  0.3833
    1PA    H14R 2823   1.658   2.563   3.995  0.2182 -0.4644  2.9533
    1PA    H14S 2824   1.827   2.560   3.936 -0.8012  0.3332 -1.5345
    1PA    C113 2825   1.789   2.716   4.079 -0.2094  0.1925 -0.2197
    1PA    H13R 2826   1.883   2.765   4.053  1.9510 -3.3236  0.2669
    1PA    H13S 2827   1.712   2.793   4.077 -0.9141 -0.5086 -1.0640
    1PA    C112 2828   1.804   2.644   4.214  0.6224  0.4254 -0.1793
    1PA    H12R 2829   1.736   2.558   4.209 -0.0698  0.9352  0.2146
    1PA    H12S 2830   1.901   2.594   4.222  0.3866 -0.1633 -0.8626
    1PA    C111 2831   1.770   2.742   4.327 -0.3623  0.2422 -0.2997
    1PA    H11R 2832   1.856   2.798   4.364 -0.1817 -0.6178  0.6466
    1PA    H11S 2833   1.691   2.814   4.306 -0.0184  0.8758  0.4794
    1PA    C110 2834   1.727   2.659   4.449  0.1312  0.3717 -0.0333
    1PA    H10R 2835   1.641   2.594   4.432  1.4784 -1.3202 -0.7525
    1PA    H10S 2836   1.810   2.588   4.461  0.4316 -0.2105 -4.1198
    1PA     C19 2837   1.711   2.738   4.579 -0.4810 -0.5420  0.4623
    1PA     H9R 2838   1.708   2.671   4.665 -1.6099 -2.0196 -0.6876
    1PA     H9S 2839   1.793   2.810   4.585 -1.4704  0.6016  0.8132
    1PA     C18 2840   1.581   2.819   4.586 -0.3327 -0.2999  0.4561
    1PA     H8R 2841   1.608   2.911   4.637 -2.0422 -0.3897  1.6269
    1PA     H8S 2842   1.556   2.865   4.490 -2.6551  0.7204  1.4657
    1PA     C17 2843   1.455   2.748   4.638 -0.3010 -0.1805  0.7000
    1PA     H7R 2844   1.369   2.794   4.587  0.7818 -0.3729 -1.4156
    1PA     H7S 2845   1.465   2.641   4.619 -0.9993 -0.1799  0.2642
    1PA     C16 2846   1.435   2.767   4.789 -0.2774  0.3124  0.6435
    1PA     H6R 2847   1.532   2.751   4.835 -0.4888 -0.6886  0.7620
    1PA     H6S 2848   1.405   2.871   4.803 -1.1757  0.1052  0.3733
    1PA     C15 2849   1.329   2.676   4.853 -0.1400 -0.0493  0.3631
    1PA     H5R 2850   1.239   2.675   4.790  0.0762  0.8296  0.0256
    1PA     H5S 2851   1.359   2.572   4.866  1.3062  0.4148  0.9501
    1PA     C14 2852   1.277   2.729   4.987 -0.5708 -0.1250  0.2289
    1PA     H4R 2853   1.278   2.838   4.982  1.9666 -0.1180 -0.5119
    1PA     H4S 2854   1.170   2.708   4.993 -0.7534  0.4641 -0.7596
    1PA     C13 2855   1.362   2.684   5.107  0.4276  0.5180 -0.2246
    1PA     H3R 2856   1.313   2.720   5.197  0.2717 -0.9590  0.3080
    1PA     H3S 2857   1.370   2.576   5.120 -2.6850  0.4140  2.0444
    1PA     C12 2858   1.501   2.748   5.101  0.4167  0.5034 -0.7520
    1PA     H2R 2859   1.568   2.683   5.044  1.1485  0.0429  0.5672
    1PA     H2S 2860   1.516   2.847   5.058 -0.5194  0.5530 -0.9768
    2PC     C11 2861   1.562   2.756   5.239  0.3073  0.3991 -0.6972
    2PC     O12 2862   1.533   2.844   5.317 -0.1978 -0.0177 -0.4039
    2PC     O11 2863   1.657   2.666   5.270 -0.1531  0.1261 -0.0576
    2PC      C1 2864   1.746   2.676   5.383  0.1945  0.4264 -0.3569
    2PC      HR 2865   1.799   2.771   5.372  0.0313  0.4674 -0.8373
    2PC      HS 2866   1.679   2.687   5.469 -0.5039  0.4414 -0.8940
    2PC      C2 2867   1.830   2.548   5.383  0.3748  0.5440 -0.1888
    2PC      HX 2868   1.763   2.463   5.370  0.8575  0.4002 -2.0361
    2PC      C3 2869   1.905   2.531   5.516  0.4146  0.1038 -0.2651
    2PC      HA 2870   1.835   2.531   5.600 -3.9494  2.2911 -3.4591
    2PC      HB 2871   1.955   2.434   5.518  1.6940  0.6761  3.8945
    2PC     O31 2872   2.004   2.636   5.521  0.4108  0.0939  0.0320
    2PC     P31 2873   2.088   2.643   5.657  0.3932 -0.1753  0.0576
    2PC     O32 2874   2.166   2.780   5.628 -0.1499  0.1173 -0.0465
    2PC     C31 2875   2.261   2.769   5.521 -0.3154 -0.3587 -0.1474
    2PC     H1A 2876   2.349   2.723   5.566  0.0935  2.1851  1.8779
    2PC     H1B 2877   2.233   2.698   5.442 -0.7315 -1.5197  1.0138
    2PC     C32 2878   2.288   2.912   5.470 -0.3419  0.0093  0.8541
    2PC     H2A 2879   2.304   2.976   5.557 -1.3888  0.5535  0.6522
    2PC     H2B 2880   2.375   2.899   5.405 -0.5469 -1.3136  0.8065
    2PC     N31 2881   2.187   2.983   5.386  0.0094 -0.0025  0.4173
    2PC     C33 2882   2.221   3.129   5.389  0.3498 -0.0534 -0.5404
    2PC     H3A 2883   2.159   3.166   5.471  0.0284 -2.1384  0.2267
    2PC     H3B 2884   2.326   3.139   5.418 -0.2078  0.3502  1.5522
    2PC     H3C 2885   2.189   3.174   5.295 -2.5383 -2.1888 -0.7110
    2PC     C34 2886   2.188   2.932   5.245 -0.1220 -0.5961  0.6275
    2PC     H4A 2887   2.113   2.984   5.185 -0.0050 -0.4329  0.6236
    2PC     H4B 2888   2.289   2.949   5.207 -0.1366  0.4555  1.0324
    2PC     H4C 2889   2.162   2.826   5.255 -1.9635 -0.3693 -1.0576
    2PC     C35 2890   2.048   2.971   5.440 -0.0501  0.1419  0.2977
    2PC     H5A 2891   2.047   2.985   5.548 -0.1756  0.2357  0.2846
    2PC     H5B 2892   2.009   2.872   5.415  0.9991 -0.3783  0.6723
    2PC     H5C 2893   1.998   3.051   5.385  1.1158  0.0437 -0.9403
    2PC     O33 2894   2.024   2.653   5.791  0.0417  0.3287 -0.1411
    2PC     O34 2895   2.181   2.530   5.679  0.5716 -0.0625 -0.1165
    2PC     O21 2896   1.922   2.555   5.272 -0.0223  0.2458 -0.5401
    2PC     C21 2897   1.993   2.446   5.239 -0.3116 -0.1041 -0.0171
    2PC     O22 2898   2.003   2.344   5.305  0.3457  0.0287  0.0929
    3OL     C12 2899   2.051   2.452   5.100  0.4997  0.4445  0.3411
    3OL     H2R 2900   2.127   2.374   5.087 -0.6999 -0.9238  1.2481
    3OL     H2S 2901   2.093   2.552   5.090  0.4839  0.4534  0.3628
    3OL     C13 2902   1.957   2.431   4.981  0.0102  0.2429  0.7589
    3OL     H3R 2903   1.882   2.508   4.962 -0.4274 -0.7651 -2.0109
    3OL     H3S 2904   1.906   2.335   4.996  0.6773  0.3344  4.5107
    3OL     C14 2905   2.045   2.426   4.855 -0.1305 -0.2943  0.6777
    3OL     H4R 2906   1.981   2.382   4.778 -0.8198  0.1191  1.0034
    3OL     H4S 2907   2.130   2.359   4.861 -0.9409 -1.4167  0.1049
    3OL     C15 2908   2.081   2.565   4.801 -0.7654 -0.3106  0.1975
    3OL     H5R 2909   2.170   2.605   4.850 -1.2289  0.4037  0.4934
    3OL     H5S 2910   2.003   2.642   4.803 -0.9165 -0.4379 -0.5869
    3OL     C16 2911   2.124   2.557   4.654 -0.8665  0.3787  0.1226
    3OL     H6R 2912   2.037   2.524   4.595  0.8834  0.1249 -2.4773
    3OL     H6S 2913   2.203   2.485   4.631 -0.3608  1.4618 -1.7705
    3OL     C17 2914   2.165   2.692   4.595 -0.0674  0.2774  0.4476
    3OL     H7R 2915   2.255   2.721   4.650  1.0769 -1.9552 -0.1270
    3OL     H7S 2916   2.086   2.766   4.610 -0.6478 -0.2252 -0.1017
    3OL     C18 2917   2.184   2.691   4.443 -0.4465 -0.4666  0.4013
    3OL     H8R 2918   2.124   2.770   4.398 -1.4325 -1.2846  0.2408
    3OL     H8S 2919   2.157   2.596   4.398 -1.2727  0.1500 -0.4401
    3OL     C19 2920   2.329   2.708   4.405 -0.5857 -0.6903 -0.2388
    3OL     H9R 2921   2.371   2.808   4.414 -0.6546 -0.3777 -2.7712
    3OL    C110 2922   2.409   2.615   4.355  0.5738  0.4515 -0.5540
    3OL    H10R 2923   2.510   2.643   4.326  0.9741 -0.9896 -0.6524
    3OL    C111 2924   2.377   2.470   4.330 -0.2730  0.4874  0.2754
    3OL    H11R 2925   2.290   2.444   4.392 -1.5225 -0.3429 -1.7224
    3OL    H11S 2926   2.456   2.410   4.375 -1.2280 -0.8344  0.2821
    3OL    C112 2927   2.361   2.431   4.182 -0.5766 -0.0969  0.4544
    3OL    H12R 2928   2.347   2.324   4.167  1.3054 -0.4678  0.9828
    3OL    H12S 2929   2.456   2.452   4.131 -1.9606  1.6605 -1.5773
    3OL    C113 2930   2.240   2.500   4.118  0.0351  0.0179 -0.6076
    3OL    H13R 2931   2.265   2.605   4.106  2.7837 -0.5425 -0.4309
    3OL    H13S 2932   2.151   2.482   4.179  0.3932 -1.3734 -0.4596
    3OL    C114 2933   2.221   2.438   3.979 -0.4968  0.1517 -0.5988
    3OL    H14R 2934   2.204   2.330   3.982 -4.2586  0.6350 -0.4912
    3OL    H14S 2935   2.301   2.474   3.913 -0.4245  2.4830  0.6715
    3OL    C115 2936   2.087   2.476   3.915 -0.6322  0.2286 -0.2711
    3OL    H15R 2937   2.069   2.583   3.910  0.5080  0.4855  0.6018
    3OL    H15S 2938   2.006   2.440   3.978  0.2479 -0.5925  0.4303
    3OL    C116 2939   2.080   2.423   3.771 -0.3280 -0.3472 -0.0767
    3OL    H16R 2940   1.976   2.390   3.770 -0.1472 -1.3081  3.0143
    3OL    H16S 2941   2.156   2.346   3.758  1.8959  1.3589  1.8190
    3OL    C117 2942   2.109   2.541   3.677  0.1065 -0.0602  0.4110
    3OL    H17R 2943   2.198   2.596   3.707  1.5965 -1.2637 -1.5114
    3OL    H17S 2944   2.026   2.611   3.682 -0.5817 -0.8695  0.4243
    3OL    C118 2945   2.126   2.487   3.534 -0.0785 -0.5034  0.5541
    3OL    H18R 2946   2.220   2.431   3.525  0.5237  0.2814  1.7576
    3OL    H18S 2947   2.145   2.578   3.477  3.0905  0.1058  2.3184
    3OL    H18T 2948   2.045   2.425   3.496 -1.0659  1.5600 -0.9218
    1PA    C116 2949   4.982   3.573   4.363 -0.3176  0.5483 -0.2640
    1PA    H16R 2950   4.906   3.536   4.294  0.1710 -0.1900 -0.4173
    1PA    H16S 2951   4.926   3.629   4.438 -0.9181  0.9241 -0.9854
    1PA    H16T 2952   5.019   3.487   4.420 -3.0057  1.1489  2.6984
    1PA    C115 2953   5.084   3.659   4.287  0.1767  0.8449  0.7130
    1PA    H15R 2954   5.120   3.605   4.199  0.2712  1.1394  0.5700
    1PA    H15S 2955   5.044   3.754   4.252  1.9696  0.2731 -3.6061
    1PA    C114 2956   5.199   3.705   4.377  0.0557  1.3262  0.6249
    1PA    H14R 2957   5.166   3.763   4.464 -1.3647 -1.4902  2.1128
    1PA    H14S 2958   5.233   3.615   4.430 -0.4525  1.2425  0.8106
    1PA    C113 2959   5.316   3.754   4.291  0.2570 -0.2804 -0.0628
    1PA    H13R 2960   5.363   3.679   4.227  0.9152 -0.5246  0.6910
    1PA    H13S 2961   5.277   3.827   4.220 -0.0737 -0.4047 -0.0091
    1PA    C112 2962   5.426   3.820   4.376 -0.2280  0.0677  0.3023
    1PA    H12R 2963   5.457   3.759   4.461  0.2781 -1.2336 -0.7651
    1PA    H12S 2964   5.505   3.838   4.302  0.0014 -0.2449  0.4694
    1PA    C111 2965   5.395   3.962   4.425 -0.3105 -0.0104  0.4766
    1PA    H11R 2966   5.390   4.037   4.347 -0.0108 -0.3102  0.1646
    1PA    H11S 2967   5.299   3.959   4.477  0.7042 -1.1050  2.4469
    1PA    C110 2968   5.501   4.012   4.524  0.2106 -0.5555  0.2038
    1PA    H10R 2969   5.601   3.980   4.494  0.5937  0.8178 -0.0373
    1PA    H10S 2970   5.497   4.121   4.533  1.2094 -0.5998  1.5280
    1PA     C19 2971   5.474   3.958   4.666 -0.5267 -0.3850  0.1310
    1PA     H9R 2972   5.386   4.006   4.710  0.3381 -0.5949  2.2108
    1PA     H9S 2973   5.451   3.852   4.662  1.1438 -0.7665 -0.0970
    1PA     C18 2974   5.602   3.974   4.749 -0.2819 -0.1255 -0.2859
    1PA     H8R 2975   5.687   3.938   4.692 -0.5390 -1.3159  0.0571
    1PA     H8S 2976   5.612   4.080   4.774 -0.1412 -0.5665  1.7746
    1PA     C17 2977   5.585   3.888   4.876  0.1548  0.0048 -0.1380
    1PA     H7R 2978   5.505   3.924   4.940 -0.1169 -2.2385  0.8816
    1PA     H7S 2979   5.560   3.784   4.854  1.0275  0.0055 -1.2305
    1PA     C16 2980   5.708   3.887   4.967  0.0882  0.8131 -0.0307
    1PA     H6R 2981   5.757   3.985   4.966  1.6806  0.0861  1.0750
    1PA     H6S 2982   5.672   3.861   5.067 -1.6177  1.5712 -0.4181
    1PA     C15 2983   5.800   3.774   4.919 -0.2357  0.1572  0.8601
    1PA     H5R 2984   5.735   3.687   4.927 -1.3196  0.9799  1.2257
    1PA     H5S 2985   5.821   3.789   4.812 -0.6495 -2.0957  0.4126
    1PA     C14 2986   5.929   3.769   5.002  0.2719  0.4777  0.1041
    1PA     H4R 2987   5.997   3.697   4.955  1.1336  0.3944  1.4208
    1PA     H4S 2988   5.972   3.868   4.988 -2.3435  2.1636  2.8991
    1PA     C13 2989   5.907   3.738   5.151  0.3545  1.0722  0.2410
    1PA     H3R 2990   5.851   3.819   5.198 -1.4638 -0.0245  0.0613
    1PA     H3S 2991   5.858   3.644   5.176  2.3297 -0.2211 -0.5210
    1PA     C12 2992   6.040   3.718   5.225  0.5814  0.3157 -0.3546
    1PA     H2R 2993   6.108   3.652   5.172 -0.5866  0.4355 -2.0927
    1PA     H2S 2994   6.086   3.817   5.231  0.8144  0.2594 -1.0985
    2PC     C11 2995   5.998   3.675   5.363 -0.1778  0.5391 -0.5113
    2PC     O12 2996   6.013   3.749   5.458  0.1324  0.0740 -0.1950
    2PC     O11 2997   5.947   3.550   5.359  0.3571  0.3041 -0.0909
    2PC      C1 2998   5.898   3.484   5.477 -0.3794  0.1865 -0.4581
    2PC      HR 2999   5.863   3.382   5.455 -0.6677 -0.5893  2.9890
    2PC      HS 3000   5.974   3.471   5.554 -1.9291  0.4024  1.1794
    2PC      C2 3001   5.775   3.550   5.540 -0.1406  0.2389 -0.0465
    2PC      HX 3002   5.796   3.651   5.577 -1.2770  0.1135  1.0254
    2PC      C3 3003   5.719   3.466   5.656  0.0755  0.7184  0.4105
    2PC      HA 3004   5.663   3.384   5.610 -0.8796  1.8960 -0.6368
    2PC      HB 3005   5.811   3.424   5.697  1.5334  0.5924 -2.7155
    2PC     O31 3006   5.650   3.550   5.751 -0.2221  0.4213  0.4585
    2PC     P31 3007   5.602   3.487   5.891 -0.4050  0.0690  0.2405
    2PC     O32 3008   5.721   3.531   5.989 -0.2774  0.1370  0.0563
    2PC     C31 3009   5.685   3.557   6.126 -0.2835 -0.4978  0.1742
    2PC     H1A 3010   5.577   3.541   6.129 -0.4117  0.4583  1.4649
    2PC     H1B 3011   5.722   3.481   6.197  0.3003 -0.4875 -0.1101
    2PC     C32 3012   5.689   3.704   6.169 -0.6477 -0.2164 -0.7508
    2PC     H2A 3013   5.792   3.736   6.183 -0.8148 -0.4538  1.2900
    2PC     H2B 3014   5.655   3.761   6.082  3.7070  1.7517 -1.4426
    2PC     N31 3015   5.611   3.744   6.290  0.3432 -0.2283 -0.1028
    2PC     C33 3016   5.462   3.738   6.271  0.3112 -0.3283  0.1727
    2PC     H3A 3017   5.446   3.812   6.192  0.3692 -0.9347 -0.4166
    2PC     H3B 3018   5.431   3.636   6.249 -1.3608  0.5678 -1.8855
    2PC     H3C 3019   5.418   3.777   6.363 -0.3563 -0.2423 -0.1837
    2PC     C34 3020   5.647   3.671   6.416 -0.7298  0.5794  0.6936
    2PC     H4A 3021   5.617   3.567   6.401 -0.3261  0.8287 -2.6165
    2PC     H4B 3022   5.755   3.677   6.426 -0.5951  1.3523 -0.8505
    2PC     H4C 3023   5.596   3.707   6.505  0.2537 -2.1224  2.4764
    2PC     C35 3024   5.643   3.889   6.312 -0.3137 -0.0377 -0.3655
    2PC     H5A 3025   5.657   3.946   6.220 -2.1111  1.6860  0.3483
    2PC     H5B 3026   5.738   3.889   6.367 -0.4456 -0.8973 -0.1194
    2PC     H5C 3027   5.565   3.936   6.371 -0.2232 -0.3429  0.0062
    2PC     O33 3028   5.476   3.561   5.914 -0.2795  0.4594 -0.3098
    2PC     O34 3029   5.568   3.343   5.885  0.8383 -0.2325 -0.0178
    2PC     O21 3030   5.676   3.566   5.437 -0.1335  0.2155 -0.0571
    2PC     C21 3031   5.585   3.666   5.437 -0.2408  0.1182 -0.0072
    2PC     O22 3032   5.561   3.742   5.528 -0.0253 -0.5699  0.6385
    3OL     C12 3033   5.510   3.671   5.307  0.0488  0.4312 -0.1622
    3OL     H2R 3034   5.574   3.628   5.229  0.0288 -0.9425  0.5651
    3OL     H2S 3035   5.512   3.774   5.268 -1.6184 -0.3833 -2.6393
    3OL     C13 3036   5.364   3.626   5.321  0.1678 -0.0438 -0.4291
    3OL     H3R 3037   5.307   3.699   5.380  0.1269 -1.8500  1.9035
    3OL     H3S 3038   5.358   3.532   5.376 -0.2975  0.2887  0.0961
    3OL     C14 3039   5.286   3.629   5.188 -0.1925  0.2766 -0.2130
    3OL     H4R 3040   5.335   3.559   5.120 -0.9637 -0.7820  0.2924
    3OL     H4S 3041   5.289   3.729   5.146 -1.0564  0.3548 -0.1007
    3OL     C15 3042   5.141   3.588   5.220 -0.2731  0.2199 -0.6541
    3OL     H5R 3043   5.098   3.676   5.266  1.5834  0.2123  1.2468
    3OL     H5S 3044   5.140   3.497   5.281  1.7128  0.1071 -0.7000
    3OL     C16 3045   5.067   3.578   5.086 -0.3473  0.6791 -0.6486
    3OL     H6R 3046   5.128   3.518   5.017 -0.4819 -0.4062  0.1417
    3OL     H6S 3047   5.051   3.676   5.042  2.9103  1.2770 -0.7798
    3OL     C17 3048   4.927   3.516   5.085  0.1327 -0.4548  0.3279
    3OL     H7R 3049   4.860   3.585   5.136 -1.9749 -1.5216 -0.8445
    3OL     H7S 3050   4.931   3.431   5.154  1.6901 -2.1126 -1.6512
    3OL     C18 3051   4.885   3.483   4.941  0.3274  0.2217  0.1141
    3OL     H8R 3052   4.975   3.449   4.890 -0.5622 -0.8562 -0.7844
    3OL     H8S 3053   4.841   3.576   4.905 -1.3337 -0.0298  1.3865
    3OL     C19 3054   4.778   3.377   4.932  0.1168  0.4795 -0.4764
    3OL     H9R 3055   4.765   3.323   5.026  2.5282  0.0955 -0.3016
    3OL    C110 3056   4.700   3.352   4.828 -0.6995  0.6029  0.0962
    3OL    H10R 3057   4.621   3.280   4.844  0.5520 -0.8515 -0.0251
    3OL    C111 3058   4.715   3.400   4.686 -0.2210  0.9144  0.2468
    3OL    H11R 3059   4.814   3.443   4.672  0.7652 -1.0158  0.9720
    3OL    H11S 3060   4.638   3.473   4.659 -0.7493 -0.1042 -1.1425
    3OL    C112 3061   4.721   3.280   4.590  0.3015  0.9894  0.1829
    3OL    H12R 3062   4.638   3.210   4.604  0.7454  0.6350  1.0811
    3OL    H12S 3063   4.817   3.232   4.607 -0.7962 -1.8770 -1.1417
    3OL    C113 3064   4.723   3.317   4.441  0.7128 -0.1206 -0.0974
    3OL    H13R 3065   4.819   3.362   4.414  0.9543 -1.1234 -0.9763
    3OL    H13S 3066   4.650   3.395   4.417 -0.5935 -1.3705 -0.2814
    3OL    C114 3067   4.703   3.201   4.343 -0.2936  0.0736 -0.1282
    3OL    H14R 3068   4.601   3.160   4.345 -0.9147  1.4460 -1.7487
    3OL    H14S 3069   4.770   3.116   4.358  0.8680  0.9594 -0.2173
    3OL    C115 3070   4.722   3.243   4.197  0.0501 -0.0163 -0.1082
    3OL    H15R 3071   4.826   3.273   4.180 -0.0773 -0.5240 -2.0260
    3OL    H15S 3072   4.654   3.326   4.178  0.7511  0.5883 -0.0212
    3OL    C116 3073   4.677   3.134   4.098 -0.7232  0.5482 -0.3871
    3OL    H16R 3074   4.570   3.131   4.081 -0.3329  1.9244 -3.9642
    3OL    H16S 3075   4.708   3.033   4.126 -0.3462 -0.0859 -2.8932
    3OL    C117 3076   4.728   3.166   3.957 -0.2344  0.2920 -0.2726
    3OL    H17R 3077   4.836   3.179   3.965 -0.2010  0.9579 -1.5768
    3OL    H17S 3078   4.687   3.260   3.918 -0.7272 -1.2201 -3.7816
    3OL    C118 3079   4.700   3.045   3.867  0.2139  0.0102 -0.0372
    3OL    H18R 3080   4.747   3.078   3.774  1.5832  0.2477  0.7236
    3OL    H18S 3081   4.592   3.031   3.851  0.4766 -1.6043 -0.6117
    3OL    H18T 3082   4.739   2.951   3.906 -2.8502 -1.1326  0.5779
    1PA    C116 3083   0.561   2.138   3.792  0.6170  0.5652  0.4006
    1PA    H16R 3084   0.501   2.127   3.701 -0.4484 -0.7249  1.2189
    1PA    H16S 3085   0.632   2.057   3.809  2.4355  1.5653 -1.8905
    1PA    H16T 3086   0.617   2.230   3.775  0.5272  0.5355 -0.0775
    1PA    C115 3087   0.453   2.148   3.900 -0.2723  0.1595 -0.4355
    1PA    H15R 3088   0.364   2.197   3.859 -0.6439 -2.0152 -2.4383
    1PA    H15S 3089   0.416   2.050   3.931 -0.1672  0.6368  1.2784
    1PA    C114 3090   0.510   2.224   4.020  0.2264  0.1728 -0.6810
    1PA    H14R 3091   0.594   2.163   4.055  0.4317 -0.1664 -1.7187
    1PA    H14S 3092   0.549   2.321   3.986 -0.5588  0.8384  0.2765
    1PA    C113 3093   0.404   2.245   4.129  0.6034  0.2403 -0.3245
    1PA    H13R 3094   0.320   2.294   4.081  2.4408  0.9996 -2.9792
    1PA    H13S 3095   0.369   2.144   4.152  1.4482 -0.0197 -0.1186
    1PA    C112 3096   0.452   2.302   4.264 -0.6769 -0.5469  0.4817
    1PA    H12R 3097   0.510   2.392   4.244 -2.6882  0.5815 -0.6597
    1PA    H12S 3098   0.365   2.319   4.328 -0.7174  1.1604  0.0235
    1PA    C111 3099   0.543   2.195   4.325  0.1474 -0.5702 -0.7339
    1PA    H11R 3100   0.487   2.101   4.327 -1.6375  0.4451 -0.1186
    1PA    H11S 3101   0.641   2.201   4.279  0.1179  2.2394 -0.6194
    1PA    C110 3102   0.563   2.242   4.470  0.1978 -0.4565 -0.7777
    1PA    H10R 3103   0.613   2.339   4.470  1.5171 -1.1196 -1.7693
    1PA    H10S 3104   0.466   2.251   4.520 -0.1247  0.0812 -1.4796
    1PA     C19 3105   0.647   2.149   4.558 -0.0293  0.1364  0.0804
    1PA     H9R 3106   0.589   2.059   4.578 -0.8995  0.9781  1.5246
    1PA     H9S 3107   0.738   2.126   4.503 -0.3382  0.0799 -0.4196
    1PA     C18 3108   0.666   2.214   4.696 -0.8474 -0.4206  0.4663
    1PA     H8R 3109   0.715   2.311   4.687  1.2726 -1.2443  2.0849
    1PA     H8S 3110   0.568   2.228   4.741 -1.1074  0.9800 -0.4871
    1PA     C17 3111   0.745   2.115   4.783 -0.1722 -0.1007  0.2288
    1PA     H7R 3112   0.699   2.016   4.790 -0.3880 -0.0768 -0.7658
    1PA     H7S 3113   0.846   2.103   4.744 -0.5412  0.1056 -0.8143
    1PA     C16 3114   0.767   2.169   4.925  0.0497  0.9181 -0.1824
    1PA     H6R 3115   0.847   2.116   4.977 -0.1819  1.9261  1.2679
    1PA     H6S 3116   0.793   2.275   4.925 -1.0467  1.1913 -0.4437
    1PA     C15 3117   0.644   2.138   5.012  0.5353 -0.3464  0.0785
    1PA     H5R 3118   0.566   2.210   4.985  0.5309 -0.7097 -0.9412
    1PA     H5S 3119   0.603   2.037   5.005 -0.1548 -0.1900  1.5350
    1PA     C14 3120   0.668   2.162   5.161  0.3984  0.3719 -0.0120
    1PA     H4R 3121   0.748   2.235   5.171 -0.4862  1.2623  0.8207
    1PA     H4S 3122   0.569   2.189   5.197 -0.0500 -1.3347  0.1331
    1PA     C13 3123   0.711   2.034   5.235 -0.1296  0.1949 -0.0056
    1PA     H3R 3124   0.632   1.959   5.228  1.4327 -1.4609 -0.5920
    1PA     H3S 3125   0.796   1.981   5.191 -1.2415 -1.7795  0.0821
    1PA     C12 3126   0.727   2.052   5.386  0.1567 -0.0598 -0.0034
    1PA     H2R 3127   0.777   1.968   5.435 -0.7922  0.1213  1.3286
    1PA     H2S 3128   0.787   2.143   5.392  0.0031  0.1487 -1.2873
    2PC     C11 3129   0.600   2.067   5.467  0.1154  0.4718 -0.1638
    2PC     O12 3130   0.595   2.092   5.586  0.0598  0.1155 -0.0914
    2PC     O11 3131   0.487   2.034   5.404 -0.0410  0.2292  0.2383
    2PC      C1 3132   0.364   2.015   5.476  0.0814 -0.1140  0.3550
    2PC      HR 3133   0.286   2.011   5.399  1.8771 -1.9475 -1.5040
    2PC      HS 3134   0.367   1.931   5.547  0.0389 -1.2875 -0.9746
    2PC      C2 3135   0.321   2.140   5.553  0.5180  0.1266  0.2062
    2PC      HX 3136   0.393   2.167   5.631 -0.1075 -0.1162  0.8753
    2PC      C3 3137   0.190   2.111   5.628  0.3472 -0.0113 -0.1416
    2PC      HA 3138   0.100   2.131   5.570 -1.4067 -2.1170  1.6737
    2PC      HB 3139   0.175   2.008   5.659  1.2809 -0.8045 -2.1270
    2PC     O31 3140   0.204   2.206   5.735  0.5083 -0.6821  0.4419
    2PC     P31 3141   0.089   2.221   5.845  0.0503 -0.3856 -0.0689
    2PC     O32 3142   0.087   2.374   5.892  0.0339 -0.3837 -0.0760
    2PC     C31 3143   0.021   2.449   5.788  0.1760 -0.1393  0.0092
    2PC     H1A 3144   0.091   2.462   5.704 -0.8851  1.9087 -0.6267
    2PC     H1B 3145  -0.070   2.398   5.757  0.9718 -2.3821  1.1262
    2PC     C32 3146  -0.004   2.586   5.851 -0.1675 -0.3380  0.3025
    2PC     H2A 3147   0.072   2.604   5.927  2.9245  2.1680 -3.0447
    2PC     H2B 3148   0.013   2.663   5.776  0.9382  1.5674  2.3848
    2PC     N31 3149  -0.143   2.613   5.900 -0.0007 -0.0254  0.6101
    2PC     C33 3150  -0.233   2.630   5.781  0.3375  0.1947  0.3854
    2PC     H3A 3151  -0.330   2.658   5.821  0.3168  1.7634 -0.6850
    2PC     H3B 3152  -0.194   2.697   5.704 -2.3368  2.1414  0.6247
    2PC     H3C 3153  -0.251   2.530   5.741 -0.8637 -0.5499  2.6194
    2PC     C34 3154  -0.195   2.509   5.995 -0.0094 -0.5963 -0.0103
    2PC     H4A 3155  -0.182   2.409   5.954  0.7677 -0.5838  0.1902
    2PC     H4B 3156  -0.136   2.532   6.084  0.6788  1.3883 -0.9041
    2PC     H4C 3157  -0.299   2.537   6.010  0.7502  1.3696  2.2331
    2PC     C35 3158  -0.140   2.745   5.972 -0.2941  0.0997  0.3953
    2PC     H5A 3159  -0.080   2.737   6.062  0.9049  2.8894 -0.0704
    2PC     H5B 3160  -0.246   2.764   5.992 -0.1488 -0.9815  2.5028
    2PC     H5C 3161  -0.093   2.818   5.906 -0.8078  0.0804  0.0028
    2PC     O33 3162  -0.046   2.177   5.801 -0.2640 -0.1104  0.5872
    2PC     O34 3163   0.136   2.137   5.958 -0.3903 -0.5891 -0.0326
    2PC     O21 3164   0.291   2.250   5.465  0.0589 -0.2666 -0.1339
    2PC     C21 3165   0.383   2.329   5.406 -0.2180  0.0821 -0.1059
    2PC     O22 3166   0.502   2.325   5.429 -0.2062  0.5808 -0.0756
    3OL     C12 3167   0.319   2.406   5.293  0.2672  0.0129 -0.4283
    3OL     H2R 3168   0.247   2.477   5.334  0.2661  0.1561 -0.6770
    3OL     H2S 3169   0.264   2.340   5.226 -0.3823  1.1074 -0.9952
    3OL     C13 3170   0.419   2.494   5.216  0.3888  0.1624 -0.1005
    3OL     H3R 3171   0.501   2.427   5.190 -0.6987 -1.2255 -0.0541
    3OL     H3S 3172   0.457   2.565   5.290 -0.8690 -1.1886  1.9514
    3OL     C14 3173   0.373   2.560   5.085  0.4133  0.1489 -0.1158
    3OL     H4R 3174   0.447   2.635   5.056  0.1226 -0.1594 -1.7500
    3OL     H4S 3175   0.276   2.603   5.111  1.7812  1.9847  2.5388
    3OL     C15 3176   0.370   2.457   4.972  0.3978 -0.2904  0.2785
    3OL     H5R 3177   0.298   2.382   5.002 -1.3496  0.8737 -0.8099
    3OL     H5S 3178   0.469   2.411   4.964  0.5429  0.0490  0.0900
    3OL     C16 3179   0.344   2.514   4.831  0.2817  0.1484  0.4763
    3OL     H6R 3180   0.392   2.441   4.767  0.5265 -1.7592  2.6775
    3OL     H6S 3181   0.402   2.606   4.816  0.4551 -0.0415 -0.0336
    3OL     C17 3182   0.194   2.542   4.811  0.2746 -0.3706 -0.1951
    3OL     H7R 3183   0.193   2.623   4.737 -0.4641  1.2930  1.5567
    3OL     H7S 3184   0.152   2.578   4.905  0.7221 -0.5795  0.0902
    3OL     C18 3185   0.109   2.426   4.757 -0.1613 -0.1014 -0.0854
    3OL     H8R 3186   0.101   2.353   4.837 -1.2051 -1.7826 -1.6563
    3OL     H8S 3187   0.152   2.373   4.672 -0.2587 -0.4346  0.0716
    3OL     C19 3188  -0.028   2.480   4.723 -0.1582 -0.1532 -0.1811
    3OL     H9R 3189  -0.072   2.546   4.797 -0.8067  0.9302 -1.4868
    3OL    C110 3190  -0.092   2.469   4.607 -0.0578 -0.2039 -0.2324
    3OL    H10R 3191  -0.186   2.523   4.596 -0.3574 -0.8866 -1.1165
    3OL    C111 3192  -0.033   2.397   4.489  0.2024  0.2671 -0.3892
    3OL    H11R 3193   0.011   2.304   4.527  2.4401  2.0627  1.7626
    3OL    H11S 3194   0.055   2.444   4.443  0.9646 -0.1375  0.6275
    3OL    C112 3195  -0.133   2.368   4.376  0.0052 -0.1338 -0.1143
    3OL    H12R 3196  -0.123   2.452   4.306  0.5650  0.0034  0.1291
    3OL    H12S 3197  -0.234   2.368   4.416  0.6686 -0.0638  1.6449
    3OL    C113 3198  -0.114   2.234   4.303 -0.2851 -0.2847  0.0851
    3OL    H13R 3199  -0.213   2.214   4.264 -0.6238  1.7684 -0.2417
    3OL    H13S 3200  -0.091   2.161   4.381 -0.4351  0.1569  0.5520
    3OL    C114 3201  -0.012   2.244   4.189  0.0954 -0.4249  0.4104
    3OL    H14R 3202   0.081   2.271   4.240  0.4692 -0.4572 -0.2417
    3OL    H14S 3203  -0.026   2.332   4.126 -0.8753  0.4863  1.8472
    3OL    C115 3204  -0.002   2.117   4.102  0.3881  0.3072 -0.6476
    3OL    H15R 3205   0.011   2.030   4.166  1.3019  1.3585  0.6726
    3OL    H15S 3206   0.087   2.125   4.040  2.4497  2.6921  2.3378
    3OL    C116 3207  -0.128   2.089   4.020  0.2371 -0.2620 -0.2299
    3OL    H16R 3208  -0.211   2.064   4.086 -0.1475  0.7353 -0.3135
    3OL    H16S 3209  -0.110   1.994   3.968  1.6114 -1.3831  2.1570
    3OL    C117 3210  -0.171   2.193   3.916  0.2161 -0.0293  0.0125
    3OL    H17R 3211  -0.211   2.289   3.952 -3.6753 -0.3994 -2.6007
    3OL    H17S 3212  -0.261   2.159   3.864 -1.0306  2.7148  0.1495
    3OL    C118 3213  -0.065   2.219   3.808  0.2839  0.0008  0.0861
    3OL    H18R 3214  -0.119   2.272   3.729 -0.1432  1.9093  1.5834
    3OL    H18S 3215  -0.034   2.123   3.767  0.2627 -0.6845  1.6239
    3OL    H18T 3216   0.023   2.277   3.836 -0.9467  1.6330  0.7142
    1PA    C116 3217   3.353   6.197   3.663 -0.2813 -0.1973  0.6328
    1PA    H16R 3218   3.408   6.252   3.739 -0.6508  2.1968 -0.7073
    1PA    H16S 3219   3.331   6.263   3.578  2.8490 -0.3446 -0.4038
    1PA    H16T 3220   3.423   6.122   3.625 -0.3961  0.2382 -0.4895
    1PA    C115 3221   3.216   6.155   3.718 -0.5528 -0.1647 -0.0058
    1PA    H15R 3222   3.213   6.140   3.826 -1.2633 -0.8149 -0.1120
    1PA    H15S 3223   3.149   6.241   3.707  1.5280  1.3525 -1.5896
    1PA    C114 3224   3.152   6.039   3.641  0.5249 -0.6189 -0.2327
    1PA    H14R 3225   3.114   6.081   3.548 -0.6931  3.5890  1.9221
    1PA    H14S 3226   3.230   5.965   3.622  0.0694 -1.1030 -0.2323
    1PA    C113 3227   3.046   5.972   3.730  0.2194 -0.1817 -0.2631
    1PA    H13R 3228   2.996   5.893   3.672 -0.4883 -0.0655  0.1731
    1PA    H13S 3229   3.082   5.938   3.827 -1.8833 -1.8178  0.0263
    1PA    C112 3230   2.925   6.062   3.759  0.4835 -0.0974  0.5896
    1PA    H12R 3231   2.946   6.169   3.766 -0.5324  0.2817 -1.4350
    1PA    H12S 3232   2.861   6.034   3.675 -1.0635 -1.3072  2.0990
    1PA    C111 3233   2.854   6.032   3.892 -0.3553  0.4398  0.2730
    1PA    H11R 3234   2.923   6.048   3.975  0.2345 -4.6772  1.1250
    1PA    H11S 3235   2.767   6.097   3.901  0.3838  1.8295 -1.7440
    1PA    C110 3236   2.818   5.883   3.906  0.0288  0.3246  0.0554
    1PA    H10R 3237   2.748   5.850   3.830  1.5333  1.0237 -1.7085
    1PA    H10S 3238   2.906   5.818   3.904 -0.6245 -0.5710 -1.4895
    1PA     C19 3239   2.747   5.858   4.040 -0.4297  0.2330 -0.2056
    1PA     H9R 3240   2.801   5.895   4.127  0.7435  2.1526 -1.6651
    1PA     H9S 3241   2.654   5.916   4.037 -1.3661 -1.1713 -3.5208
    1PA     C18 3242   2.705   5.711   4.051  0.8502 -0.0979  0.3244
    1PA     H8R 3243   2.616   5.687   3.994  0.4397 -0.4864  1.1140
    1PA     H8S 3244   2.786   5.653   4.007 -0.8832  0.5800 -4.2506
    1PA     C17 3245   2.681   5.676   4.199 -0.2798  0.1326  0.2016
    1PA     H7R 3246   2.689   5.572   4.230  2.9896  0.5892  1.2695
    1PA     H7S 3247   2.758   5.723   4.260  1.7677 -2.6080 -0.0441
    1PA     C16 3248   2.542   5.733   4.231 -0.3838  0.0750 -0.1399
    1PA     H6R 3249   2.542   5.838   4.200 -1.7406  0.5230  1.2468
    1PA     H6S 3250   2.475   5.679   4.163  1.3898 -2.5669  0.0309
    1PA     C15 3251   2.514   5.705   4.379 -0.5057  0.8870 -0.0085
    1PA     H5R 3252   2.531   5.600   4.403 -1.1642  1.1227  1.6232
    1PA     H5S 3253   2.597   5.764   4.421  0.0054  0.1642  0.0196
    1PA     C14 3254   2.382   5.757   4.437 -0.3850  0.7874  0.3648
    1PA     H4R 3255   2.370   5.865   4.423 -2.1429  0.6858  0.8734
    1PA     H4S 3256   2.295   5.705   4.394  0.9362 -0.9872 -0.2859
    1PA     C13 3257   2.377   5.743   4.589  0.1981  0.0555  0.3189
    1PA     H3R 3258   2.467   5.779   4.639  0.1783  1.4124 -0.5835
    1PA     H3S 3259   2.300   5.814   4.621 -1.7208  0.3092 -4.1841
    1PA     C12 3260   2.351   5.597   4.630  0.0041 -0.0549 -0.1902
    1PA     H2R 3261   2.314   5.540   4.544 -0.2970  0.0146 -0.1095
    1PA     H2S 3262   2.444   5.543   4.645  0.4517  0.7354 -0.1033
    2PC     C11 3263   2.266   5.584   4.754  0.2490 -0.1167 -0.0292
    2PC     O12 3264   2.246   5.670   4.838 -0.6342 -0.0785 -0.2661
    2PC     O11 3265   2.225   5.456   4.762 -0.2382  0.0694  0.5513
    2PC      C1 3266   2.149   5.404   4.872 -0.2392 -0.0189  0.5085
    2PC      HR 3267   2.153   5.295   4.865  0.3526  0.0579 -0.4619
    2PC      HS 3268   2.201   5.444   4.959  1.0424 -0.8689  0.1559
    2PC      C2 3269   2.006   5.459   4.866 -0.1062  0.2546 -0.2795
    2PC      HX 3270   1.995   5.554   4.813 -1.9377 -1.3449 -3.0476
    2PC      C3 3271   1.956   5.462   5.011  0.2025  0.2737 -0.1728
    2PC      HA 3272   1.989   5.556   5.055 -2.3200  1.9487 -1.5606
    2PC      HB 3273   1.847   5.453   5.023  0.3347 -0.1973  0.7819
    2PC     O31 3274   2.013   5.346   5.075 -0.1782 -0.0424 -0.3982
    2PC     P31 3275   2.029   5.328   5.234 -0.3841  0.5154 -0.3098
    2PC     O32 3276   2.176   5.264   5.245 -0.5117  0.2765  0.0287
    2PC     C31 3277   2.205   5.163   5.343 -0.4594  0.1132 -0.1544
    2PC     H1A 3278   2.148   5.072   5.322  2.1357 -2.2965  2.4213
    2PC     H1B 3279   2.307   5.132   5.320  0.3142  0.5345  2.3995
    2PC     C32 3280   2.187   5.218   5.485 -0.4589 -0.1338 -0.0588
    2PC     H2A 3281   2.209   5.324   5.480 -2.0127  0.1802 -1.0614
    2PC     H2B 3282   2.081   5.203   5.509 -0.3486 -1.2212 -0.2227
    2PC     N31 3283   2.258   5.154   5.600 -0.2001 -0.0562 -0.1763
    2PC     C33 3284   2.403   5.137   5.563 -0.0535 -0.1693  0.4323
    2PC     H3A 3285   2.448   5.231   5.530  1.9263 -1.5593 -1.0796
    2PC     H3B 3286   2.462   5.091   5.642  0.5100  0.1188  0.1873
    2PC     H3C 3287   2.405   5.069   5.478 -0.0402 -0.8961  1.0027
    2PC     C34 3288   2.244   5.237   5.724 -0.1720 -0.8076  0.3405
    2PC     H4A 3289   2.302   5.192   5.804  2.0648  0.9110 -0.2213
    2PC     H4B 3290   2.277   5.340   5.713  0.1941 -0.8337  1.1686
    2PC     H4C 3291   2.138   5.237   5.753 -0.0108  0.4338  0.9666
    2PC     C35 3292   2.191   5.024   5.634 -0.2449 -0.0297 -0.1644
    2PC     H5A 3293   2.118   5.031   5.715 -1.1048 -1.2314 -0.8088
    2PC     H5B 3294   2.271   4.963   5.676 -0.4180 -1.1411 -1.3675
    2PC     H5C 3295   2.153   4.962   5.552  0.0425 -1.6466  0.8774
    2PC     O33 3296   2.025   5.447   5.321  0.3577  0.4910 -0.2317
    2PC     O34 3297   1.935   5.225   5.284  0.3124 -0.2197 -0.4929
    2PC     O21 3298   1.932   5.361   4.790  0.0142 -0.1114  0.0692
    2PC     C21 3299   1.817   5.396   4.729 -0.2151  0.2248  0.6843
    2PC     O22 3300   1.792   5.503   4.679 -0.2299 -0.0844  0.0216
    3OL     C12 3301   1.732   5.272   4.713  0.3757 -0.0935 -0.0220
    3OL     H2R 3302   1.791   5.186   4.746  1.0787  0.6276  0.6559
    3OL     H2S 3303   1.709   5.241   4.611 -3.1917  1.9808  0.0086
    3OL     C13 3304   1.602   5.280   4.795 -0.1206 -0.0838 -0.8071
    3OL     H3R 3305   1.623   5.311   4.897  0.0889  0.1628 -0.9245
    3OL     H3S 3306   1.569   5.177   4.804  0.3130 -0.0318  2.7057
    3OL     C14 3307   1.496   5.373   4.734 -0.5389  0.2848  0.4636
    3OL     H4R 3308   1.534   5.475   4.720  0.9319  0.1397  2.7573
    3OL     H4S 3309   1.425   5.384   4.816 -0.0226  1.0854  0.8134
    3OL     C15 3310   1.421   5.311   4.616  0.3021  0.4197 -0.1587
    3OL     H5R 3311   1.399   5.206   4.640 -0.3532  0.3389 -1.0783
    3OL     H5S 3312   1.484   5.319   4.528  1.1006 -0.8501  0.2611
    3OL     C16 3313   1.286   5.380   4.590 -0.0969 -0.0569  0.5904
    3OL     H6R 3314   1.235   5.385   4.686  1.7043  1.1571  1.5378
    3OL     H6S 3315   1.221   5.326   4.521  1.0003 -1.2003  0.4170
    3OL     C17 3316   1.309   5.519   4.529  0.2641 -0.1867  0.4247
    3OL     H7R 3317   1.394   5.562   4.582 -1.5088  0.8373  2.6008
    3OL     H7S 3318   1.223   5.586   4.541  0.4824  0.4195 -1.1362
    3OL     C18 3319   1.338   5.520   4.379 -0.7463  0.5315  0.2198
    3OL     H8R 3320   1.308   5.424   4.335  1.0238  0.3897 -0.7672
    3OL     H8S 3321   1.447   5.520   4.383 -0.7757  0.8167  1.1835
    3OL     C19 3322   1.268   5.632   4.306 -0.0471  0.9182  0.1383
    3OL     H9R 3323   1.275   5.728   4.358  1.8860  1.1525 -0.4809
    3OL    C110 3324   1.195   5.625   4.196  0.2608 -0.4741  0.0027
    3OL    H10R 3325   1.151   5.718   4.161 -1.6533 -0.8574  1.2457
    3OL    C111 3326   1.162   5.506   4.110  0.2744 -0.5441  0.0933
    3OL    H11R 3327   1.223   5.419   4.136  0.1968 -0.1275  1.7783
    3OL    H11S 3328   1.190   5.530   4.007  2.4183 -1.3745  0.4370
    3OL    C112 3329   1.011   5.480   4.107  0.1602  0.1096 -0.1579
    3OL    H12R 3330   0.992   5.417   4.019  1.3546  0.7714 -0.9097
    3OL    H12S 3331   0.959   5.575   4.093  0.5569  0.2471 -0.7370
    3OL    C113 3332   0.967   5.407   4.235  0.2021 -0.2440 -0.3429
    3OL    H13R 3333   0.957   5.479   4.316 -1.1812  1.3389 -1.8573
    3OL    H13S 3334   1.048   5.338   4.261  2.0602  1.4191 -1.4190
    3OL    C114 3335   0.830   5.343   4.211  0.2937 -0.3858 -0.4919
    3OL    H14R 3336   0.824   5.282   4.121 -0.8900 -3.0402  1.2793
    3OL    H14S 3337   0.760   5.427   4.206 -1.4457 -1.7999 -1.1163
    3OL    C115 3338   0.810   5.252   4.333 -0.2756  0.4704  0.0693
    3OL    H15R 3339   0.892   5.181   4.343 -1.4396 -0.7295  1.5185
    3OL    H15S 3340   0.723   5.189   4.312 -0.0985  0.0293  0.6414
    3OL    C116 3341   0.793   5.324   4.467 -0.5334  0.1171  0.2266
    3OL    H16R 3342   0.715   5.399   4.460 -0.3042  0.3151 -0.2435
    3OL    H16S 3343   0.888   5.375   4.486 -0.6314  0.4066 -0.0657
    3OL    C117 3344   0.759   5.238   4.589 -0.7631 -0.1824 -0.0471
    3OL    H17R 3345   0.684   5.163   4.561 -1.9739  0.7882  0.4853
    3OL    H17S 3346   0.729   5.293   4.679  2.1416 -3.2290  3.1307
    3OL    C118 3347   0.883   5.165   4.643 -0.1605  0.8186 -0.0487
    3OL    H18R 3348   0.936   5.237   4.705  0.9158 -1.0222  1.2764
    3OL    H18S 3349   0.945   5.121   4.564  0.5199  0.9510  0.4037
    3OL    H18T 3350   0.863   5.085   4.715  0.5266  0.3572 -0.3543
    1PA    C116 3351   2.255   3.754   3.456 -0.0443  0.0458  1.0394
    1PA    H16R 3352   2.308   3.748   3.360 -1.2006 -1.8721  0.4590
    1PA    H16S 3353   2.176   3.828   3.439 -0.8601 -1.1313 -0.5779
    1PA    H16T 3354   2.200   3.660   3.461 -1.3939  0.4050 -2.8517
    1PA    C115 3355   2.346   3.801   3.570  0.7626  0.6501  0.1676
    1PA    H15R 3356   2.430   3.731   3.559  1.2793  1.5125 -1.6528
    1PA    H15S 3357   2.377   3.905   3.557 -0.4067  1.6342  3.9110
    1PA    C114 3358   2.269   3.775   3.700 -0.0007  0.0828 -0.3839
    1PA    H14R 3359   2.188   3.848   3.700  0.6578  0.8426  0.3781
    1PA    H14S 3360   2.226   3.675   3.704 -1.3112  0.6327 -0.4600
    1PA    C113 3361   2.358   3.800   3.823 -0.1697  0.0621 -0.2573
    1PA    H13R 3362   2.293   3.800   3.911 -1.6267  0.7335 -1.3034
    1PA    H13S 3363   2.433   3.720   3.824  0.2943  0.4804 -0.7321
    1PA    C112 3364   2.439   3.930   3.813 -0.2615  0.1266 -0.1611
    1PA    H12R 3365   2.514   3.921   3.734  0.9022  2.3858  0.6107
    1PA    H12S 3366   2.363   4.006   3.793 -1.1673 -0.6097  0.3822
    1PA    C111 3367   2.508   3.956   3.947 -0.1731  0.0469 -0.1913
    1PA    H11R 3368   2.447   3.973   4.036  0.3897 -1.5372  0.5378
    1PA    H11S 3369   2.570   3.873   3.982 -0.6402 -0.2649 -0.0918
    1PA    C110 3370   2.598   4.081   3.936  0.1900 -0.1557  0.4146
    1PA    H10R 3371   2.656   4.106   4.025  0.8273  0.3163 -0.1257
    1PA    H10S 3372   2.670   4.061   3.856  0.7890  0.7443  0.7202
    1PA     C19 3373   2.521   4.210   3.904 -0.1779 -0.5100 -0.1515
    1PA     H9R 3374   2.589   4.294   3.919 -0.1302 -0.5316 -0.2493
    1PA     H9S 3375   2.493   4.213   3.799  1.9737  0.7326 -0.7446
    1PA     C18 3376   2.401   4.232   3.997  0.0651 -0.5401  0.1714
    1PA     H8R 3377   2.356   4.328   3.971 -2.1053 -0.7918  2.5493
    1PA     H8S 3378   2.312   4.172   3.974 -0.5648  0.9984 -1.6522
    1PA     C17 3379   2.439   4.241   4.146 -0.4473 -0.8890  0.3277
    1PA     H7R 3380   2.486   4.150   4.182 -0.8340 -2.1869 -2.2091
    1PA     H7S 3381   2.495   4.333   4.163  1.9275 -1.7404 -2.2235
    1PA     C16 3382   2.305   4.254   4.220 -0.2154  0.4870  0.5370
    1PA     H6R 3383   2.251   4.343   4.187 -0.5139  0.4684  0.9643
    1PA     H6S 3384   2.244   4.170   4.187 -0.6910  0.3621  1.6945
    1PA     C15 3385   2.320   4.260   4.373  0.0620 -0.1579  0.5384
    1PA     H5R 3386   2.361   4.164   4.406 -0.5151 -0.5188  0.2159
    1PA     H5S 3387   2.384   4.346   4.396 -3.3240  2.6280  0.3690
    1PA     C14 3388   2.180   4.277   4.433  0.1266  0.1209  0.6116
    1PA     H4R 3389   2.131   4.363   4.388  0.1278 -1.0566 -1.8037
    1PA     H4S 3390   2.119   4.191   4.402  0.3527 -0.4142  1.6102
    1PA     C13 3391   2.184   4.302   4.584 -0.0221  0.1841  0.6054
    1PA     H3R 3392   2.089   4.269   4.626 -1.3725 -0.3639 -2.6463
    1PA     H3S 3393   2.260   4.236   4.628  2.4154  1.5601 -1.3079
    1PA     C12 3394   2.213   4.448   4.622  0.7512  0.2766 -0.2911
    1PA     H2R 3395   2.300   4.489   4.570  1.1197  0.5956  0.5594
    1PA     H2S 3396   2.130   4.513   4.592 -0.1056 -0.9577 -0.6963
    2PC     C11 3397   2.239   4.465   4.770  0.0783  0.3626 -0.1777
    2PC     O12 3398   2.255   4.373   4.847 -0.8315  0.3060 -0.0510
    2PC     O11 3399   2.247   4.594   4.806  0.0571  0.1994  0.4249
    2PC      C1 3400   2.284   4.627   4.941  0.1688 -0.2809  0.5119
    2PC      HR 3401   2.253   4.731   4.953 -0.3200 -0.2214 -1.0595
    2PC      HS 3402   2.220   4.569   5.007 -0.6558 -0.9431 -0.8325
    2PC      C2 3403   2.436   4.610   4.960  0.3216  0.0081 -0.3795
    2PC      HX 3404   2.469   4.509   4.935  0.4320  0.2321 -1.1468
    2PC      C3 3405   2.487   4.636   5.103  0.1795 -0.0087 -0.3253
    2PC      HA 3406   2.430   4.575   5.173 -0.2158 -0.0617 -0.6822
    2PC      HB 3407   2.588   4.595   5.106  0.1099 -0.1129  0.8361
    2PC     O31 3408   2.470   4.773   5.145  0.7642  0.0392 -0.2445
    2PC     P31 3409   2.486   4.811   5.300  0.4765 -0.0301 -0.1968
    2PC     O32 3410   2.606   4.917   5.311 -0.2575  0.7246  0.6323
    2PC     C31 3411   2.739   4.871   5.281 -0.5772  0.0403  0.2480
    2PC     H1A 3412   2.768   4.797   5.356  1.1636 -1.9473 -2.2150
    2PC     H1B 3413   2.736   4.813   5.188  1.3413 -1.2471  0.9236
    2PC     C32 3414   2.841   4.985   5.279 -0.0278 -0.4432  0.3337
    2PC     H2A 3415   2.940   4.949   5.252  1.9241  2.7130  2.6600
    2PC     H2B 3416   2.807   5.056   5.203  0.6811  1.0552  1.3618
    2PC     N31 3417   2.866   5.075   5.396  0.3925 -0.1862  0.0488
    2PC     C33 3418   2.919   4.990   5.507 -0.5569 -0.2483  0.4640
    2PC     H3A 3419   2.996   4.921   5.473 -0.8194 -1.1223  1.5610
    2PC     H3B 3420   2.958   5.057   5.584 -1.5588 -2.0921  2.7219
    2PC     H3C 3421   2.836   4.932   5.547  0.5757 -1.6006  0.9530
    2PC     C34 3422   2.966   5.181   5.360 -0.6443  0.9437  0.4200
    2PC     H4A 3423   2.926   5.236   5.275  0.7430 -0.8820 -1.5140
    2PC     H4B 3424   2.954   5.247   5.446  0.0004 -1.2364  2.2874
    2PC     H4C 3425   3.067   5.144   5.343 -2.1113 -2.8742 -0.9606
    2PC     C35 3426   2.744   5.142   5.453  0.6228  0.0469  0.2742
    2PC     H5A 3427   2.656   5.078   5.442  1.8917 -1.9508  1.0830
    2PC     H5B 3428   2.718   5.226   5.389  0.7828 -0.1576 -0.0656
    2PC     H5C 3429   2.756   5.175   5.556 -0.0008  0.8888  0.0829
    2PC     O33 3430   2.358   4.876   5.336  0.7108  0.2285  0.1791
    2PC     O34 3431   2.503   4.704   5.401  0.1230  0.0404 -0.0640
    2PC     O21 3432   2.501   4.703   4.873  0.2867  0.3907 -0.0026
    2PC     C21 3433   2.544   4.658   4.754  0.1203  0.1899  0.0148
    2PC     O22 3434   2.539   4.543   4.714 -0.0915  0.3058 -0.3003
    3OL     C12 3435   2.589   4.772   4.667 -0.0723  0.2782  0.0308
    3OL     H2R 3436   2.662   4.814   4.737  0.2846 -0.5493  0.1597
    3OL     H2S 3437   2.509   4.846   4.661 -0.2250  0.3267  1.9159
    3OL     C13 3438   2.658   4.746   4.533 -0.2143 -0.1319  0.0381
    3OL     H3R 3439   2.744   4.680   4.548  0.2498  0.5106  0.2266
    3OL     H3S 3440   2.689   4.842   4.491  0.7605 -0.0377  0.9285
    3OL     C14 3441   2.562   4.683   4.431 -0.4484  0.0535  0.1426
    3OL     H4R 3442   2.464   4.717   4.462 -1.5652 -1.6624 -1.2817
    3OL     H4S 3443   2.573   4.574   4.432  0.5585  0.1294 -0.5628
    3OL     C15 3444   2.589   4.740   4.291  0.3524 -0.5884  0.0235
    3OL     H5R 3445   2.693   4.727   4.259  0.9344  0.0856  1.5358
    3OL     H5S 3446   2.581   4.849   4.300  3.2197  0.0046 -2.6427
    3OL     C16 3447   2.483   4.686   4.194  0.6468 -0.4952 -0.3543
    3OL     H6R 3448   2.381   4.690   4.233  1.8653  0.2567  3.1535
    3OL     H6S 3449   2.507   4.585   4.160 -0.9055 -0.3185 -2.1006
    3OL     C17 3450   2.492   4.770   4.066  0.2789 -0.0612 -0.0987
    3OL     H7R 3451   2.593   4.763   4.027  1.5095 -0.5756  2.9461
    3OL     H7S 3452   2.472   4.876   4.082  1.4407  0.0468  0.6929
    3OL     C18 3453   2.385   4.708   3.974  0.5713 -0.4726 -0.1649
    3OL     H8R 3454   2.287   4.713   4.022  0.1022  0.4102 -1.1757
    3OL     H8S 3455   2.410   4.603   3.960  0.9046 -0.6396  1.4975
    3OL     C19 3456   2.393   4.785   3.845  0.1312 -0.2807 -0.0796
    3OL     H9R 3457   2.469   4.755   3.774 -0.8563  0.6926 -1.6158
    3OL    C110 3458   2.310   4.882   3.809 -0.8840 -1.1817 -0.2037
    3OL    H10R 3459   2.311   4.936   3.715 -0.5759 -0.5324  0.1683
    3OL    C111 3460   2.192   4.936   3.886 -0.3404  0.3738 -0.4399
    3OL    H11R 3461   2.191   4.887   3.983 -0.2766 -1.0669 -1.1425
    3OL    H11S 3462   2.105   4.890   3.839  0.7841 -1.6498 -0.6532
    3OL    C112 3463   2.169   5.088   3.890 -0.2063  0.3840 -0.0699
    3OL    H12R 3464   2.170   5.136   3.792 -1.2724 -3.1916 -1.9941
    3OL    H12S 3465   2.239   5.141   3.955 -0.0541 -1.2617  1.1604
    3OL    C113 3466   2.035   5.115   3.959 -0.3067 -0.0975 -0.0721
    3OL    H13R 3467   2.050   5.090   4.065  0.1825  0.4928  0.0072
    3OL    H13S 3468   1.957   5.050   3.920  0.4874 -1.7089  0.9016
    3OL    C114 3469   1.978   5.257   3.947 -0.3971 -0.1352 -0.0872
    3OL    H14R 3470   2.044   5.321   4.006  0.6106 -0.9213 -0.3304
    3OL    H14S 3471   1.884   5.265   4.001  0.5813 -0.2203  1.7185
    3OL    C115 3472   1.965   5.300   3.800 -0.2333  0.3269  0.0312
    3OL    H15R 3473   1.928   5.220   3.736  1.3621 -1.0822  0.7945
    3OL    H15S 3474   2.065   5.324   3.761  1.0620  0.9611  3.4101
    3OL    C116 3475   1.879   5.427   3.801 -0.4643  0.1690  0.2838
    3OL    H16R 3476   1.938   5.499   3.858  0.4812  0.7077 -1.3060
    3OL    H16S 3477   1.785   5.404   3.850  0.2743 -3.3065  0.3093
    3OL    C117 3478   1.855   5.477   3.658  0.1206 -0.3640 -0.0046
    3OL    H17R 3479   1.823   5.401   3.587  0.5757 -1.6544  1.1266
    3OL    H17S 3480   1.952   5.512   3.622 -0.0805  0.0829 -0.1219
    3OL    C118 3481   1.757   5.594   3.663 -0.1484 -0.6000  0.2886
    3OL    H18R 3482   1.662   5.575   3.714 -0.8832  2.1665  0.1185
    3OL    H18S 3483   1.738   5.624   3.559 -0.0325  0.3900  0.5428
    3OL    H18T 3484   1.804   5.681   3.709  0.2940  2.7519 -5.4150
    1PA    C116 3485   0.722   2.545   3.601  0.2083  0.1687  0.4525
    1PA    H16R 3486   0.803   2.597   3.550 -1.6371  1.4989 -1.2761
    1PA    H16S 3487   0.750   2.489   3.690  1.5700 -1.1940 -0.7640
    1PA    H16T 3488   0.687   2.462   3.540 -1.1710 -0.4597  2.0233
    1PA    C115 3489   0.600   2.636   3.619 -0.0297  0.0520 -0.4869
    1PA    H15R 3490   0.638   2.729   3.662 -0.4816  0.0159  0.0081
    1PA    H15S 3491   0.547   2.667   3.529  0.2475  1.1096 -0.2989
    1PA    C114 3492   0.499   2.561   3.707  0.0591  0.4771 -0.0118
    1PA    H14R 3493   0.441   2.491   3.646 -1.5597  1.3924  0.4296
    1PA    H14S 3494   0.556   2.504   3.781 -0.6084 -0.8302 -0.4690
    1PA    C113 3495   0.410   2.660   3.782  0.0536  0.4545  0.0113
    1PA    H13R 3496   0.458   2.735   3.845 -0.4513  0.5742  0.2649
    1PA    H13S 3497   0.359   2.718   3.705  1.7135  0.6328 -1.0080
    1PA    C112 3498   0.309   2.573   3.859 -0.1165  0.3814 -0.2946
    1PA    H12R 3499   0.233   2.534   3.790 -0.6570  0.9806 -0.0556
    1PA    H12S 3500   0.362   2.490   3.904  0.4995 -0.0267 -1.7013
    1PA    C111 3501   0.233   2.658   3.962 -0.2759 -0.2427  0.1029
    1PA    H11R 3502   0.197   2.747   3.910 -0.2336 -0.7826 -0.8802
    1PA    H11S 3503   0.144   2.595   3.976 -1.3837  1.3250  0.4315
    1PA    C110 3504   0.308   2.677   4.094 -0.5093 -0.9002  0.3333
    1PA    H10R 3505   0.335   2.582   4.142  1.1050 -0.3817  0.4812
    1PA    H10S 3506   0.399   2.732   4.071 -0.0775 -1.1875  1.2878
    1PA     C19 3507   0.231   2.772   4.187  0.3661  0.5223 -0.3655
    1PA     H9R 3508   0.213   2.863   4.129 -2.7883 -0.8465 -1.7911
    1PA     H9S 3509   0.131   2.728   4.190  0.0144  0.9322 -3.1710
    1PA     C18 3510   0.298   2.775   4.325  0.7238  0.6922 -0.5425
    1PA     H8R 3511   0.303   2.674   4.366 -0.9519  1.1210  0.8430
    1PA     H8S 3512   0.397   2.818   4.309  1.2796 -0.9204 -1.7198
    1PA     C17 3513   0.216   2.859   4.424  0.1016 -0.6186  0.0763
    1PA     H7R 3514   0.224   2.964   4.395 -0.9648 -0.5759 -0.1314
    1PA     H7S 3515   0.114   2.820   4.427 -0.1397 -0.2094 -1.7684
    1PA     C16 3516   0.301   2.863   4.552 -0.0730  0.1303  0.1753
    1PA     H6R 3517   0.334   2.762   4.576 -0.2225  0.3216  1.2021
    1PA     H6S 3518   0.393   2.916   4.527  1.3523 -1.6323  1.4458
    1PA     C15 3519   0.227   2.928   4.670  0.4999  0.1432  0.5287
    1PA     H5R 3520   0.192   3.029   4.647  0.9943  0.2479  0.2046
    1PA     H5S 3521   0.135   2.874   4.691 -0.2533  1.6265  1.1509
    1PA     C14 3522   0.317   2.939   4.794  1.1248 -0.6500  0.1562
    1PA     H4R 3523   0.263   2.947   4.889  0.2824  2.2435 -0.4797
    1PA     H4S 3524   0.385   2.853   4.795  0.4689 -1.1735  0.9042
    1PA     C13 3525   0.399   3.067   4.776 -0.2177  0.1423 -0.4668
    1PA     H3R 3526   0.473   3.057   4.696 -0.5518  2.5276 -1.1763
    1PA     H3S 3527   0.328   3.149   4.758 -0.2784  0.4957  1.2581
    1PA     C12 3528   0.483   3.102   4.899 -0.2413  0.0296 -0.4184
    1PA     H2R 3529   0.540   3.024   4.949 -3.3543 -0.1550  3.3604
    1PA     H2S 3530   0.554   3.179   4.870 -2.0219  0.9086 -2.8207
    2PC     C11 3531   0.397   3.156   5.011 -0.1905 -0.1328 -0.3011
    2PC     O12 3532   0.327   3.088   5.084 -0.1657  0.1483 -0.0125
    2PC     O11 3533   0.423   3.287   5.023  0.3270 -0.2475 -0.1421
    2PC      C1 3534   0.353   3.359   5.126 -0.0272 -0.4455 -0.2422
    2PC      HR 3535   0.248   3.332   5.137 -0.4111  1.5176  1.5393
    2PC      HS 3536   0.390   3.332   5.226 -0.8610  2.5141  0.9809
    2PC      C2 3537   0.369   3.507   5.091  0.0611 -0.3568  0.1652
    2PC      HX 3538   0.477   3.524   5.080  0.2032  0.0206  1.7955
    2PC      C3 3539   0.315   3.606   5.195  0.5967  0.0395  0.0685
    2PC      HA 3540   0.390   3.612   5.275 -0.3160 -1.4920  1.0731
    2PC      HB 3541   0.308   3.709   5.160  0.8455 -0.1663 -0.6043
    2PC     O31 3542   0.194   3.550   5.249  0.6365 -0.0779  0.0366
    2PC     P31 3543   0.112   3.630   5.361  0.0610 -0.2873 -0.2292
    2PC     O32 3544   0.124   3.527   5.484  0.0067  0.1509  0.1452
    2PC     C31 3545   0.096   3.389   5.456 -0.3398  0.2834 -0.1787
    2PC     H1A 3546   0.146   3.346   5.368 -0.3464 -3.3573  1.4258
    2PC     H1B 3547   0.125   3.335   5.546 -0.4736  0.8670  0.2200
    2PC     C32 3548  -0.052   3.367   5.424 -0.4013  0.4276  0.0045
    2PC     H2A 3549  -0.088   3.422   5.337  0.0291  1.2849  0.3587
    2PC     H2B 3550  -0.060   3.262   5.392 -0.6468  0.7487 -1.0498
    2PC     N31 3551  -0.147   3.378   5.539 -0.6621  0.4794 -0.2146
    2PC     C33 3552  -0.114   3.283   5.650 -0.6907  0.5776 -0.1219
    2PC     H3A 3553  -0.109   3.183   5.606 -0.7732  0.4477  0.1579
    2PC     H3B 3554  -0.023   3.322   5.696 -0.5269  1.0656 -0.8344
    2PC     H3C 3555  -0.195   3.279   5.722 -0.6980  3.1338  0.0802
    2PC     C34 3556  -0.174   3.513   5.597 -0.0537  0.3083  0.4742
    2PC     H4A 3557  -0.213   3.497   5.698 -0.7605  1.2803  0.3643
    2PC     H4B 3558  -0.091   3.584   5.596  1.2467 -1.1178  1.6099
    2PC     H4C 3559  -0.253   3.555   5.535 -0.0695  1.0133  0.9610
    2PC     C35 3560  -0.279   3.336   5.479 -0.5714  0.4903 -0.4233
    2PC     H5A 3561  -0.350   3.337   5.562 -1.1577 -1.7007 -0.8493
    2PC     H5B 3562  -0.266   3.236   5.439  0.9355 -1.6456  4.5908
    2PC     H5C 3563  -0.297   3.406   5.397  1.0206  1.8652  0.3145
    2PC     O33 3564   0.162   3.768   5.380 -0.7707  0.0918 -0.7322
    2PC     O34 3565  -0.025   3.635   5.306 -0.0923 -0.2618  0.1549
    2PC     O21 3566   0.309   3.528   4.962 -0.0409 -0.3403  0.2149
    2PC     C21 3567   0.354   3.631   4.889  0.0366  0.2971  1.1472
    2PC     O22 3568   0.454   3.696   4.909  0.3708  0.4176 -0.6948
    3OL     C12 3569   0.272   3.641   4.762  0.7876 -0.2534  0.6101
    3OL     H2R 3570   0.177   3.692   4.778  1.0130 -0.0173  1.2648
    3OL     H2S 3571   0.257   3.538   4.731 -0.1943 -0.2540  1.0379
    3OL     C13 3572   0.348   3.707   4.647 -0.2219  0.3324  0.2696
    3OL     H3R 3573   0.450   3.669   4.637 -0.4412 -0.1273 -0.2812
    3OL     H3S 3574   0.353   3.815   4.667  0.4413  0.6391 -1.4119
    3OL     C14 3575   0.279   3.687   4.512  0.3812 -0.1588  0.0255
    3OL     H4R 3576   0.302   3.779   4.457 -1.1150  1.7061  2.2879
    3OL     H4S 3577   0.172   3.665   4.516  0.1906  0.7715  0.5520
    3OL     C15 3578   0.343   3.571   4.435  0.0180 -0.3724  0.0434
    3OL     H5R 3579   0.330   3.481   4.495 -2.6907 -0.2488 -0.2371
    3OL     H5S 3580   0.452   3.581   4.436  0.0117 -0.3195  0.5195
    3OL     C16 3581   0.300   3.543   4.291 -0.4477  0.8149 -0.0645
    3OL     H6R 3582   0.372   3.473   4.246 -0.6744  0.2182  0.4858
    3OL     H6S 3583   0.306   3.636   4.234 -0.5326  0.8275 -0.0512
    3OL     C17 3584   0.166   3.468   4.291 -0.2418  0.4417 -0.0265
    3OL     H7R 3585   0.092   3.547   4.305  0.1468  1.1183 -1.4953
    3OL     H7S 3586   0.161   3.393   4.369  0.5835 -0.3514 -0.7113
    3OL     C18 3587   0.136   3.383   4.167 -0.2577 -0.3972  0.5481
    3OL     H8R 3588   0.208   3.301   4.163 -1.1591 -1.1924 -2.2445
    3OL     H8S 3589   0.165   3.449   4.085  3.2551 -0.4078  1.6472
    3OL     C19 3590  -0.000   3.319   4.152 -0.1400 -0.5359  0.0335
    3OL     H9R 3591  -0.009   3.235   4.221  1.2710 -0.9536 -0.2568
    3OL    C110 3592  -0.106   3.367   4.087 -0.0619 -0.5605 -0.1125
    3OL    H10R 3593  -0.200   3.315   4.103  0.4178 -1.2828  0.4914
    3OL    C111 3594  -0.094   3.489   4.000  0.7575 -0.6572 -0.1511
    3OL    H11R 3595  -0.010   3.557   4.012 -1.0797  1.8882 -0.7302
    3OL    H11S 3596  -0.172   3.557   4.035  2.0167  1.0250 -0.5327
    3OL    C112 3597  -0.103   3.461   3.849 -0.5572  0.2853 -0.2666
    3OL    H12R 3598  -0.146   3.551   3.804 -2.0714  1.0679  2.5234
    3OL    H12S 3599  -0.166   3.375   3.826 -1.1488  1.2694 -2.7006
    3OL    C113 3600   0.033   3.438   3.782 -0.6184  0.0795 -0.3204
    3OL    H13R 3601   0.081   3.357   3.837 -1.5574 -1.0069 -1.0606
    3OL    H13S 3602   0.098   3.523   3.805 -1.8281  0.2682  2.9237
    3OL    C114 3603   0.020   3.395   3.635  0.2474  0.0173 -0.3820
    3OL    H14R 3604  -0.041   3.305   3.638  2.3417 -1.5233 -1.5180
    3OL    H14S 3605   0.114   3.361   3.590  1.2594  1.6432  0.3864
    3OL    C115 3606  -0.062   3.492   3.549  0.4313  0.3525 -0.1825
    3OL    H15R 3607  -0.159   3.508   3.595  0.3327 -0.3865 -0.1250
    3OL    H15S 3608  -0.081   3.434   3.458  0.7488  1.3128 -0.8880
    3OL    C116 3609   0.004   3.627   3.516 -0.0742  0.7076  0.2580
    3OL    H16R 3610   0.095   3.613   3.458  0.4344 -0.6790  1.3310
    3OL    H16S 3611   0.034   3.684   3.605 -1.4370  4.1681 -1.3341
    3OL    C117 3612  -0.087   3.726   3.442 -0.2244  0.2208 -0.2084
    3OL    H17R 3613  -0.177   3.753   3.497  0.7106  0.5292  1.2248
    3OL    H17S 3614  -0.114   3.670   3.352  0.3211 -0.3690 -0.0165
    3OL    C118 3615  -0.015   3.857   3.406 -0.4811  0.2925 -0.4661
    3OL    H18R 3616  -0.080   3.908   3.334  0.6675  2.0025 -0.3474
    3OL    H18S 3617   0.087   3.842   3.373  0.3157  2.2962  0.8846
    3OL    H18T 3618  -0.003   3.916   3.497  1.6128  0.9951 -1.1568
    1PA    C116 3619   0.015   6.052   3.979  0.0911  0.5580 -0.1862
    1PA    H16R 3620   0.042   5.946   3.988  0.5713  0.5776 -1.2545
    1PA    H16S 3621   0.060   6.087   3.886  1.9949 -3.0196 -0.8191
    1PA    H16T 3622  -0.093   6.066   3.976  0.1484  0.8678 -1.2449
    1PA    C115 3623   0.063   6.137   4.096 -0.3750  0.1811  0.2876
    1PA    H15R 3624   0.040   6.244   4.091 -0.4832  0.1427  0.0092
    1PA    H15S 3625   0.009   6.109   4.187  0.1963 -0.6893  0.3732
    1PA    C114 3626   0.212   6.114   4.129 -0.3444  0.4309  0.3272
    1PA    H14R 3627   0.227   6.007   4.140 -1.2811  0.3790  1.3055
    1PA    H14S 3628   0.270   6.146   4.042  0.1361  0.3231  0.6060
    1PA    C113 3629   0.253   6.194   4.253 -0.1987 -0.0720  0.6037
    1PA    H13R 3630   0.255   6.296   4.215 -0.6831  0.5496  2.1800
    1PA    H13S 3631   0.181   6.183   4.334  0.5061  0.3662  1.3098
    1PA    C112 3632   0.393   6.156   4.305 -0.1505  0.0619  0.5728
    1PA    H12R 3633   0.397   6.047   4.310 -1.6795  0.0011  1.0729
    1PA    H12S 3634   0.470   6.186   4.234  0.3613 -2.9328 -0.2810
    1PA    C111 3635   0.422   6.221   4.441 -0.5152  0.1981  0.5866
    1PA    H11R 3636   0.426   6.330   4.430  0.8656 -0.0522 -2.5589
    1PA    H11S 3637   0.364   6.186   4.527 -1.4051 -1.8345 -0.7563
    1PA    C110 3638   0.568   6.183   4.467 -0.3569  0.2852 -0.1642
    1PA    H10R 3639   0.582   6.076   4.484 -0.8245  0.3281  0.5169
    1PA    H10S 3640   0.618   6.215   4.375  1.0290  1.3006  0.9168
    1PA     C19 3641   0.625   6.266   4.582 -0.2231 -0.2403  0.1542
    1PA     H9R 3642   0.634   6.373   4.562  0.3964 -0.6553 -2.1247
    1PA     H9S 3643   0.560   6.246   4.668  0.5896 -0.9798  0.6099
    1PA     C18 3644   0.764   6.215   4.622  0.2278  0.2656 -0.7425
    1PA     H8R 3645   0.763   6.107   4.636  0.8690  0.4700  1.1689
    1PA     H8S 3646   0.843   6.236   4.549  0.8214  0.4184 -0.0644
    1PA     C17 3647   0.824   6.271   4.752  0.0491 -0.4682 -0.3389
    1PA     H7R 3648   0.931   6.250   4.757 -0.4642 -3.1286  2.1011
    1PA     H7S 3649   0.804   6.378   4.753 -1.3865 -0.7206  0.4820
    1PA     C16 3650   0.762   6.203   4.875  0.0732  0.0920 -0.0148
    1PA     H6R 3651   0.656   6.226   4.888 -0.7293 -2.8471 -0.5417
    1PA     H6S 3652   0.757   6.097   4.850  0.9497  0.3057 -1.2403
    1PA     C15 3653   0.832   6.227   5.009 -0.4413  0.2942  0.2172
    1PA     H5R 3654   0.761   6.207   5.090  1.4347 -2.3688  1.3504
    1PA     H5S 3655   0.914   6.155   5.013  0.5355  1.3532 -0.3185
    1PA     C14 3656   0.891   6.367   5.027 -0.4199  0.3303 -0.1269
    1PA     H4R 3657   0.953   6.391   4.941  0.4919 -0.0009  0.4297
    1PA     H4S 3658   0.803   6.432   5.037 -1.6777 -1.4336  0.9878
    1PA     C13 3659   0.973   6.380   5.156 -0.8789  0.3068  0.1682
    1PA     H3R 3660   0.909   6.371   5.245 -1.2299  2.4537  0.2080
    1PA     H3S 3661   1.043   6.297   5.160 -1.3086 -0.0339  1.0800
    1PA     C12 3662   1.049   6.511   5.180  0.2800 -0.3025 -0.1427
    1PA     H2R 3663   1.113   6.542   5.097 -0.6967 -0.7934 -1.1027
    1PA     H2S 3664   0.962   6.576   5.195 -0.6368 -1.6228  0.3702
    2PC     C11 3665   1.129   6.507   5.308 -0.1354  0.2641  0.1407
    2PC     O12 3666   1.123   6.414   5.385 -0.1909  0.1156 -0.0400
    2PC     O11 3667   1.204   6.616   5.325  0.1251  0.1880 -0.4698
    2PC      C1 3668   1.282   6.631   5.446 -0.2621 -0.6934 -0.1045
    2PC      HR 3669   1.305   6.737   5.457 -2.8622 -0.0922  0.2337
    2PC      HS 3670   1.215   6.604   5.528 -1.7066  0.5701 -0.8118
    2PC      C2 3671   1.407   6.543   5.451  0.4825  0.3481 -0.0641
    2PC      HX 3672   1.365   6.443   5.463  1.1233  0.3604  2.9530
    2PC      C3 3673   1.474   6.577   5.584  0.3497  0.9910 -0.1565
    2PC      HA 3674   1.540   6.664   5.577 -0.0116  1.4252  1.3833
    2PC      HB 3675   1.400   6.586   5.664  1.0692 -1.0765  0.8245
    2PC     O31 3676   1.548   6.460   5.625 -0.5442  0.4786  0.0123
    2PC     P31 3677   1.638   6.454   5.757 -0.1285  0.3315 -0.2757
    2PC     O32 3678   1.529   6.394   5.859  0.1517  0.3356  0.0281
    2PC     C31 3679   1.475   6.482   5.960 -0.5426 -0.0282 -0.0259
    2PC     H1A 3680   1.549   6.542   6.012 -1.8182 -0.1260  2.0016
    2PC     H1B 3681   1.396   6.542   5.913 -1.1836 -0.9839 -0.2145
    2PC     C32 3682   1.407   6.391   6.063 -0.6471 -0.3846 -0.4040
    2PC     H2A 3683   1.360   6.453   6.140  1.2619 -1.1304  1.4558
    2PC     H2B 3684   1.330   6.336   6.008 -1.6099 -0.8765  1.3664
    2PC     N31 3685   1.489   6.296   6.145 -0.4044  0.4137  0.2918
    2PC     C33 3686   1.540   6.178   6.067 -0.7058  0.0686  0.6153
    2PC     H3A 3687   1.617   6.225   6.006  0.3599 -1.5284  0.6844
    2PC     H3B 3688   1.585   6.110   6.140  0.7002 -0.1077 -0.3825
    2PC     H3C 3689   1.457   6.128   6.017  0.4348 -2.3448  0.9856
    2PC     C34 3690   1.602   6.364   6.216  0.5074 -0.2956 -0.4483
    2PC     H4A 3691   1.560   6.452   6.265 -0.3873 -0.6211 -0.6260
    2PC     H4B 3692   1.631   6.291   6.292  0.5658 -1.3892 -1.4952
    2PC     H4C 3693   1.680   6.394   6.145  0.8480  1.1961  0.5002
    2PC     C35 3694   1.396   6.239   6.247 -0.5737 -0.3355 -0.2710
    2PC     H5A 3695   1.449   6.177   6.320 -0.3482 -0.8100 -0.8307
    2PC     H5B 3696   1.327   6.171   6.197 -0.0151 -2.1078  1.2335
    2PC     H5C 3697   1.335   6.314   6.298 -0.9951 -0.4072 -0.6683
    2PC     O33 3698   1.757   6.368   5.734 -0.0208  0.5790 -0.6473
    2PC     O34 3699   1.692   6.582   5.807  0.2803  0.2242 -0.4366
    2PC     O21 3700   1.496   6.554   5.338  0.7131  0.0304  0.0854
    2PC     C21 3701   1.474   6.477   5.230  0.2724 -0.5185  0.5635
    2PC     O22 3702   1.381   6.402   5.209  0.2011 -0.0595 -0.8087
    3OL     C12 3703   1.579   6.492   5.124 -0.5986 -0.2312 -0.2717
    3OL     H2R 3704   1.660   6.420   5.135  0.1758  0.4355 -1.3318
    3OL     H2S 3705   1.627   6.590   5.137  2.0416 -1.3026 -1.2256
    3OL     C13 3706   1.535   6.457   4.981  0.2721 -0.3257 -0.5226
    3OL     H3R 3707   1.494   6.356   4.979 -1.4821  0.3596 -1.0809
    3OL     H3S 3708   1.620   6.463   4.913  0.3767  0.2359 -0.3528
    3OL     C14 3709   1.415   6.542   4.939  0.1577 -0.2635 -0.0793
    3OL     H4R 3710   1.443   6.646   4.921 -2.0018  0.5795  1.0230
    3OL     H4S 3711   1.347   6.553   5.023  2.1007  1.3848  1.3682
    3OL     C15 3712   1.349   6.484   4.813 -0.1751  0.3382 -0.1855
    3OL     H5R 3713   1.317   6.380   4.822  0.4914  0.0517 -1.0419
    3OL     H5S 3714   1.427   6.486   4.737  1.2297  0.4173  1.2034
    3OL     C16 3715   1.233   6.562   4.748  0.0271  0.7004 -0.1149
    3OL     H6R 3716   1.265   6.656   4.702 -2.6418  1.3808 -0.7384
    3OL     H6S 3717   1.162   6.599   4.822  0.6988  1.1031  0.3379
    3OL     C17 3718   1.165   6.472   4.644  0.7084  0.2403 -0.1728
    3OL     H7R 3719   1.100   6.397   4.691 -2.2615  1.6951 -1.6519
    3OL     H7S 3720   1.239   6.433   4.575  0.3137  1.7004 -1.4678
    3OL     C18 3721   1.065   6.551   4.559  0.4235  0.3457  0.2525
    3OL     H8R 3722   1.113   6.642   4.523  1.8303 -0.7054 -0.6261
    3OL     H8S 3723   0.978   6.578   4.619  1.0215  0.3233  1.1323
    3OL     C19 3724   1.042   6.477   4.429  0.3331  0.9861 -0.1028
    3OL     H9R 3725   1.073   6.373   4.439  0.8304  1.2019  0.6948
    3OL    C110 3726   0.995   6.519   4.313 -0.9925  0.2630  0.1481
    3OL    H10R 3727   0.978   6.455   4.227 -1.2082  0.2090  0.2315
    3OL    C111 3728   0.957   6.664   4.297  0.2257  0.5327 -0.4670
    3OL    H11R 3729   1.001   6.692   4.201  1.1804 -1.3116 -0.6157
    3OL    H11S 3730   0.996   6.730   4.375 -0.2871 -0.4351  0.6361
    3OL    C112 3731   0.805   6.685   4.310  0.1722  0.1659 -0.4845
    3OL    H12R 3732   0.780   6.783   4.269  1.8148  0.3173 -1.2011
    3OL    H12S 3733   0.788   6.686   4.418  2.3389 -3.2432  0.0436
    3OL    C113 3734   0.711   6.586   4.241 -0.7183  0.5417  0.1688
    3OL    H13R 3735   0.608   6.604   4.272 -1.0847 -3.0500  1.5190
    3OL    H13S 3736   0.740   6.484   4.267  1.0557  0.8369 -0.5343
    3OL    C114 3737   0.719   6.600   4.088  1.0001 -0.2144  0.1609
    3OL    H14R 3738   0.821   6.588   4.053  0.8958 -0.0985 -0.1884
    3OL    H14S 3739   0.676   6.697   4.065 -2.1496 -1.6840 -0.7583
    3OL    C115 3740   0.624   6.501   4.018  0.8129  0.3068 -0.3228
    3OL    H15R 3741   0.523   6.509   4.060  0.9064 -0.2060  0.0065
    3OL    H15S 3742   0.653   6.400   4.044  0.6152  0.6798  1.4581
    3OL    C116 3743   0.627   6.524   3.866  0.4485  0.0032 -0.3770
    3OL    H16R 3744   0.731   6.505   3.838  0.5567  0.8117 -0.5409
    3OL    H16S 3745   0.616   6.632   3.854  2.9847  0.7763  2.6815
    3OL    C117 3746   0.520   6.452   3.783  0.0687  0.3341 -0.1742
    3OL    H17R 3747   0.511   6.495   3.683  0.3644  1.4504  0.2607
    3OL    H17S 3748   0.423   6.473   3.829 -0.2502 -0.0047 -0.6899
    3OL    C118 3749   0.558   6.304   3.778 -0.2280  0.2420  0.2168
    3OL    H18R 3750   0.511   6.245   3.699  2.2176 -0.9103 -0.4703
    3OL    H18S 3751   0.537   6.259   3.875  0.7857  0.9063  0.7600
    3OL    H18T 3752   0.666   6.302   3.763  0.1229  0.1696  2.4118
    1PA    C116 3753   4.603   1.789   4.280 -0.0985  0.1562 -0.0599
    1PA    H16R 3754   4.587   1.820   4.383 -4.5823  2.2647 -1.1408
    1PA    H16S 3755   4.509   1.805   4.226 -0.7958 -0.5001  0.9290
    1PA    H16T 3756   4.686   1.853   4.247  0.5316 -0.2512  0.7187
    1PA    C115 3757   4.634   1.639   4.268 -0.1607  0.1036  0.4310
    1PA    H15R 3758   4.737   1.630   4.302  0.4210  0.1578 -1.2190
    1PA    H15S 3759   4.563   1.590   4.335  0.1818 -1.6550 -0.4407
    1PA    C114 3760   4.615   1.584   4.126  0.5487 -0.3335  0.5023
    1PA    H14R 3761   4.513   1.606   4.093  0.5235 -0.5756  0.4142
    1PA    H14S 3762   4.689   1.625   4.056  0.1295 -0.9139 -0.2994
    1PA    C113 3763   4.622   1.432   4.143 -0.3218 -0.4964 -0.4878
    1PA    H13R 3764   4.664   1.397   4.048 -0.5132  2.4238 -1.7438
    1PA    H13S 3765   4.700   1.403   4.214 -0.6003 -2.2910 -0.8557
    1PA    C112 3766   4.485   1.364   4.148 -0.2999 -0.5425 -0.5105
    1PA    H12R 3767   4.417   1.416   4.080 -0.7373  0.5671  0.7317
    1PA    H12S 3768   4.490   1.261   4.111  0.7636 -0.6218 -0.1755
    1PA    C111 3769   4.435   1.342   4.291 -0.3028 -0.2561 -0.4665
    1PA    H11R 3770   4.517   1.287   4.338 -1.9339 -1.8577  0.6079
    1PA    H11S 3771   4.430   1.436   4.346  2.0850 -1.2475  1.6915
    1PA    C110 3772   4.296   1.278   4.308 -0.0959 -0.5916  0.0060
    1PA    H10R 3773   4.220   1.344   4.265 -0.2816  0.5520  1.9544
    1PA    H10S 3774   4.290   1.180   4.260  1.7856 -0.9087  0.3204
    1PA     C19 3775   4.256   1.272   4.456  0.1781 -0.2438  0.0967
    1PA     H9R 3776   4.274   1.372   4.496 -4.0301  1.2536 -1.2244
    1PA     H9S 3777   4.149   1.258   4.474 -0.6511  1.8956 -2.4520
    1PA     C18 3778   4.341   1.174   4.538  0.2151 -0.1968  0.1146
    1PA     H8R 3779   4.339   1.076   4.490  1.4160  1.0612 -2.7660
    1PA     H8S 3780   4.443   1.212   4.544 -0.6333  2.3030 -0.0681
    1PA     C17 3781   4.288   1.155   4.681 -0.3117 -1.2728 -0.2154
    1PA     H7R 3782   4.267   1.254   4.720  0.7969 -0.9374 -0.4356
    1PA     H7S 3783   4.190   1.107   4.685 -0.9096  0.0350  1.9871
    1PA     C16 3784   4.384   1.086   4.779  0.0926 -0.5011 -0.0646
    1PA     H6R 3785   4.400   0.984   4.743 -0.4673 -0.6441  0.0811
    1PA     H6S 3786   4.479   1.141   4.777  0.5649 -1.2681 -2.6299
    1PA     C15 3787   4.322   1.083   4.919 -0.0391  0.0480 -0.1086
    1PA     H5R 3788   4.266   1.176   4.934  1.5195  0.7755  1.6220
    1PA     H5S 3789   4.241   1.011   4.915  1.5231 -1.8510  0.7941
    1PA     C14 3790   4.414   1.038   5.033 -0.0308 -0.2595 -0.2370
    1PA     H4R 3791   4.521   1.058   5.021  0.0024 -0.0541  0.3735
    1PA     H4S 3792   4.387   1.091   5.125 -2.0114  0.0902 -0.9745
    1PA     C13 3793   4.392   0.888   5.055 -0.1325 -0.2935 -0.5687
    1PA     H3R 3794   4.288   0.863   5.081 -0.3388 -0.7688 -1.7708
    1PA     H3S 3795   4.412   0.833   4.963  0.5992  0.8800 -1.1221
    1PA     C12 3796   4.478   0.839   5.172 -0.1766  0.1987 -0.3287
    1PA     H2R 3797   4.441   0.877   5.268 -0.1072  0.1096 -0.2660
    1PA     H2S 3798   4.468   0.730   5.175 -3.6699  0.3846 -1.3262
    2PC     C11 3799   4.624   0.879   5.167 -0.0803 -0.0832  0.1007
    2PC     O12 3800   4.710   0.830   5.097 -0.6543 -0.5996 -0.2486
    2PC     O11 3801   4.644   0.988   5.243  0.1842 -0.1113  0.0717
    2PC      C1 3802   4.768   1.060   5.255  0.1335  0.0052 -0.1049
    2PC      HR 3803   4.842   0.999   5.308  1.1173  0.7422 -0.5917
    2PC      HS 3804   4.804   1.063   5.152 -1.2838 -1.0574 -0.6615
    2PC      C2 3805   4.746   1.205   5.298  0.2448 -0.0293  0.0699
    2PC      HX 3806   4.844   1.252   5.312  0.5185 -0.4754 -0.3333
    2PC      C3 3807   4.648   1.220   5.416 -0.2565 -0.9701 -0.2187
    2PC      HA 3808   4.583   1.306   5.399 -2.2145 -2.6133 -1.6062
    2PC      HB 3809   4.579   1.136   5.416 -0.7162 -0.5959 -0.0666
    2PC     O31 3810   4.706   1.226   5.547  0.1772 -0.0701 -0.4419
    2PC     P31 3811   4.808   1.112   5.595 -0.2271 -0.2563 -0.0170
    2PC     O32 3812   4.749   0.974   5.538 -0.1568 -0.2394 -0.1315
    2PC     C31 3813   4.642   0.904   5.604 -0.3120  0.2699  0.1707
    2PC     H1A 3814   4.662   0.895   5.711  2.6014 -0.0072 -0.3016
    2PC     H1B 3815   4.552   0.964   5.590 -0.0827  0.5169 -0.2760
    2PC     C32 3816   4.629   0.762   5.546 -0.5327  0.2552  0.2573
    2PC     H2A 3817   4.526   0.726   5.553 -1.0404  1.8073  1.7904
    2PC     H2B 3818   4.646   0.765   5.438  0.3763  3.3856  0.3866
    2PC     N31 3819   4.723   0.666   5.612 -0.4857  0.1182 -0.0091
    2PC     C33 3820   4.713   0.653   5.761  0.2881  0.3068  0.0612
    2PC     H3A 3821   4.758   0.746   5.797  1.1580  0.3736 -1.1535
    2PC     H3B 3822   4.609   0.634   5.788  0.4055  0.4948  0.6648
    2PC     H3C 3823   4.775   0.571   5.797  2.8982  1.6198 -1.1904
    2PC     C34 3824   4.704   0.529   5.554  0.1039 -0.0540  0.2020
    2PC     H4A 3825   4.617   0.485   5.603 -1.1464  0.5557 -1.4013
    2PC     H4B 3826   4.698   0.538   5.446  0.7962  0.2904  0.1897
    2PC     H4C 3827   4.794   0.474   5.585 -0.2291 -0.7046  0.0466
    2PC     C35 3828   4.864   0.703   5.581 -0.4678 -0.2319 -0.3569
    2PC     H5A 3829   4.929   0.616   5.571  2.1921  1.2274  2.4238
    2PC     H5B 3830   4.908   0.769   5.656 -0.6243  0.0768 -0.5340
    2PC     H5C 3831   4.867   0.757   5.486 -0.9332 -0.3501 -0.4374
    2PC     O33 3832   4.933   1.136   5.520 -0.1806 -0.0629  0.1215
    2PC     O34 3833   4.841   1.111   5.739  0.0815  0.4866 -0.0787
    2PC     O21 3834   4.680   1.276   5.191  0.5969 -0.0793 -0.1816
    2PC     C21 3835   4.684   1.410   5.194  0.3822 -0.0720 -0.2021
    2PC     O22 3836   4.742   1.474   5.280  0.2706 -0.0712 -0.1266
    3OL     C12 3837   4.620   1.470   5.072 -0.2047 -0.1881  0.0465
    3OL     H2R 3838   4.653   1.574   5.065  0.5101 -0.3197  1.3087
    3OL     H2S 3839   4.512   1.468   5.088  0.0253 -1.5765  1.6877
    3OL     C13 3840   4.666   1.405   4.941  0.3827 -0.0862  0.2010
    3OL     H3R 3841   4.661   1.297   4.951 -1.9675  0.0670  1.2423
    3OL     H3S 3842   4.764   1.434   4.901 -0.4645 -1.5758 -3.2984
    3OL     C14 3843   4.566   1.450   4.834  0.2711  0.0003  0.3407
    3OL     H4R 3844   4.566   1.559   4.837 -0.8650  0.0283 -0.0171
    3OL     H4S 3845   4.465   1.420   4.863  0.4345 -2.5863 -1.3343
    3OL     C15 3846   4.596   1.386   4.698 -0.0341  0.0406  0.2538
    3OL     H5R 3847   4.508   1.403   4.635  2.3026  0.0108 -3.3470
    3OL     H5S 3848   4.600   1.278   4.712  0.6594  0.1286  0.7604
    3OL     C16 3849   4.729   1.434   4.639 -0.1125  0.0039  0.0437
    3OL     H6R 3850   4.811   1.398   4.702  0.7324  1.4418 -0.1914
    3OL     H6S 3851   4.733   1.542   4.653  0.4146 -0.2033  1.7723
    3OL     C17 3852   4.743   1.397   4.491 -0.3888 -0.2029  0.0684
    3OL     H7R 3853   4.821   1.453   4.439  0.0130 -1.5928 -0.9037
    3OL     H7S 3854   4.646   1.419   4.447  0.6315  1.7755 -1.3332
    3OL     C18 3855   4.767   1.248   4.462 -0.0070 -0.0773 -0.2663
    3OL     H8R 3856   4.772   1.237   4.353  3.1266  1.0953 -0.3507
    3OL     H8S 3857   4.694   1.175   4.497  1.6800 -2.2392 -0.9998
    3OL     C19 3858   4.895   1.221   4.537  0.0882 -0.5664 -0.5982
    3OL     H9R 3859   4.978   1.287   4.515  0.9221 -1.9841 -1.8983
    3OL    C110 3860   4.907   1.143   4.643  0.3519  0.0317 -0.1810
    3OL    H10R 3861   4.999   1.148   4.701  0.0911  0.1303  0.2230
    3OL    C111 3862   4.815   1.037   4.698  0.6157  0.1518  0.5032
    3OL    H11R 3863   4.720   1.038   4.643  0.0884  1.9082  1.3847
    3OL    H11S 3864   4.791   1.059   4.802  3.5828 -0.3228  1.3635
    3OL    C112 3865   4.883   0.900   4.691  0.4162  0.0857 -0.2617
    3OL    H12R 3866   4.908   0.878   4.587  1.2900 -2.8079  0.4453
    3OL    H12S 3867   4.818   0.821   4.729  1.2479 -0.0842  0.8665
    3OL    C113 3868   5.013   0.905   4.773  0.3834 -0.1488 -0.1929
    3OL    H13R 3869   5.003   0.947   4.873  1.1168  1.1213 -0.6341
    3OL    H13S 3870   5.075   0.976   4.718 -0.0133  0.0460 -0.3877
    3OL    C114 3871   5.080   0.769   4.800  0.1914 -0.1131  0.4806
    3OL    H14R 3872   5.187   0.782   4.820  0.8172 -1.4428 -1.5964
    3OL    H14S 3873   5.074   0.714   4.706 -0.5444  1.5341 -0.4805
    3OL    C115 3874   5.012   0.687   4.910  0.1335  0.1182  0.6185
    3OL    H15R 3875   4.907   0.671   4.888 -0.0876 -0.6374  2.1126
    3OL    H15S 3876   5.019   0.745   5.002  0.8752  0.0380  0.6248
    3OL    C116 3877   5.076   0.550   4.936  0.2220  0.0360 -0.0060
    3OL    H16R 3878   5.066   0.541   5.045  0.6553  3.5711  0.4345
    3OL    H16S 3879   5.182   0.552   4.909  0.4440 -3.6998  0.0220
    3OL    C117 3880   5.001   0.440   4.859 -0.9325  0.5745  0.3263
    3OL    H17R 3881   4.894   0.457   4.870 -1.1304  0.6316 -1.3761
    3OL    H17S 3882   5.024   0.339   4.892 -2.0025 -0.0295 -0.6818
    3OL    C118 3883   5.035   0.445   4.709  0.1128 -0.2410  0.5263
    3OL    H18R 3884   5.142   0.450   4.690 -0.0472 -2.3147 -1.3374
    3OL    H18S 3885   4.992   0.539   4.672  0.4370 -0.0760  0.5634
    3OL    H18T 3886   4.993   0.355   4.665 -0.8581 -0.7195  2.3261
    1PA    C116 3887   1.278   4.228   3.898  0.0565  0.0518  0.2379
    1PA    H16R 3888   1.283   4.172   3.991 -0.6097  2.5452  1.8866
    1PA    H16S 3889   1.177   4.233   3.858 -0.2240  1.2188  1.0412
    1PA    H16T 3890   1.296   4.334   3.915 -0.6019  0.0192  1.1842
    1PA    C115 3891   1.380   4.167   3.801 -0.6238 -0.2419 -0.2965
    1PA    H15R 3892   1.359   4.219   3.707 -1.2116 -0.6668 -0.4050
    1PA    H15S 3893   1.481   4.191   3.832 -1.5284  2.1986  0.9891
    1PA    C114 3894   1.353   4.020   3.767  1.0320 -0.7411  0.4655
    1PA    H14R 3895   1.391   3.954   3.846  1.3730 -1.7050 -0.4851
    1PA    H14S 3896   1.245   4.003   3.775  0.9970 -1.0482 -0.5300
    1PA    C113 3897   1.407   3.978   3.630 -0.0096 -0.1965 -0.1207
    1PA    H13R 3898   1.388   4.054   3.553 -0.0017  0.0125  0.0806
    1PA    H13S 3899   1.514   3.962   3.644 -0.4710 -2.1559  1.5541
    1PA    C112 3900   1.338   3.849   3.584  0.1281 -0.4532  0.3917
    1PA    H12R 3901   1.232   3.869   3.567 -0.5189 -1.9404  2.2892
    1PA    H12S 3902   1.378   3.821   3.487 -2.0067  0.5379 -0.8533
    1PA    C111 3903   1.368   3.745   3.693 -0.2421 -0.3074  0.6363
    1PA    H11R 3904   1.477   3.738   3.698 -0.1527 -0.0009 -0.6185
    1PA    H11S 3905   1.327   3.776   3.790  0.5725  4.1899 -0.2023
    1PA    C110 3906   1.307   3.608   3.663 -0.2501 -0.2115  0.2079
    1PA    H10R 3907   1.201   3.622   3.640  0.2533  1.2211 -1.3976
    1PA    H10S 3908   1.366   3.594   3.572  0.5205 -0.6633  0.7671
    1PA     C19 3909   1.335   3.502   3.771  0.0111 -0.1182  0.2336
    1PA     H9R 3910   1.278   3.528   3.861 -0.0979 -1.0346  0.4422
    1PA     H9S 3911   1.294   3.407   3.735  0.2579 -0.9000  1.9312
    1PA     C18 3912   1.483   3.474   3.797 -0.0076 -0.3035  0.1466
    1PA     H8R 3913   1.550   3.464   3.712 -1.3806  0.3699 -1.0516
    1PA     H8S 3914   1.521   3.566   3.843  2.8522 -1.2203 -0.1899
    1PA     C17 3915   1.511   3.364   3.900  0.4025 -0.3747 -0.0405
    1PA     H7R 3916   1.462   3.272   3.868 -1.7003 -1.1043  4.4983
    1PA     H7S 3917   1.620   3.351   3.895  0.6166  1.6643 -2.4655
    1PA     C16 3918   1.465   3.394   4.044  0.1097 -0.1938 -0.1715
    1PA     H6R 3919   1.489   3.497   4.071 -1.1719 -0.3013  1.4794
    1PA     H6S 3920   1.356   3.393   4.047  0.1083 -1.1409 -0.1190
    1PA     C15 3921   1.529   3.292   4.139  0.0516 -0.3048 -0.2512
    1PA     H5R 3922   1.507   3.187   4.117  0.7688 -0.8764  1.5601
    1PA     H5S 3923   1.635   3.309   4.122 -0.1766  0.5465 -0.9039
    1PA     C14 3924   1.501   3.336   4.283  0.4807  0.2141 -0.3231
    1PA     H4R 3925   1.509   3.444   4.293 -0.4370  0.2143  0.7534
    1PA     H4S 3926   1.394   3.317   4.298  0.7060 -0.9301 -0.0421
    1PA     C13 3927   1.571   3.260   4.396 -0.6325 -0.4759 -0.0771
    1PA     H3R 3928   1.540   3.155   4.400  0.2215 -0.7398 -0.1910
    1PA     H3S 3929   1.680   3.254   4.388 -0.6211 -2.4983  0.8356
    1PA     C12 3930   1.534   3.317   4.534  0.0634 -0.0129 -0.0800
    1PA     H2R 3931   1.567   3.421   4.541  4.0577 -0.9983 -1.5370
    1PA     H2S 3932   1.426   3.328   4.541  0.1199 -0.5612  2.7677
    2PC     C11 3933   1.590   3.243   4.653 -0.5865  0.6221  0.6364
    2PC     O12 3934   1.709   3.232   4.673 -0.4290  0.5242 -0.2953
    2PC     O11 3935   1.492   3.183   4.722 -0.5815 -0.3218 -0.1510
    2PC      C1 3936   1.526   3.104   4.837 -0.4808  0.2078  0.1855
    2PC      HR 3937   1.433   3.050   4.859 -0.1060 -0.7027 -0.4233
    2PC      HS 3938   1.605   3.035   4.808 -0.1384  0.6798 -0.0023
    2PC      C2 3939   1.566   3.200   4.950  0.4199  0.2188 -0.1405
    2PC      HX 3940   1.647   3.262   4.911  1.2931 -1.4040 -1.0188
    2PC      C3 3941   1.638   3.125   5.062 -0.3192 -0.1380  0.1021
    2PC      HA 3942   1.566   3.069   5.122  0.6815  1.3431  2.8598
    2PC      HB 3943   1.719   3.060   5.029  0.2365  0.7696 -0.3659
    2PC     O31 3944   1.679   3.229   5.153  0.3250 -0.1411 -0.1824
    2PC     P31 3945   1.770   3.197   5.281  0.0938  0.2778  0.0895
    2PC     O32 3946   1.711   3.261   5.415  0.7281 -0.0083  0.5119
    2PC     C31 3947   1.695   3.404   5.407 -0.3867 -0.1531 -0.0551
    2PC     H1A 3948   1.787   3.462   5.394 -0.2906 -0.6339 -1.7257
    2PC     H1B 3949   1.631   3.427   5.322  2.8911  1.2214 -2.3295
    2PC     C32 3950   1.627   3.450   5.537 -0.2811 -0.5027  0.1250
    2PC     H2A 3951   1.701   3.467   5.615  1.1821  1.4120 -1.5717
    2PC     H2B 3952   1.582   3.546   5.512  1.4872  0.5098  0.6053
    2PC     N31 3953   1.504   3.384   5.592 -0.5457  0.0199  0.1645
    2PC     C33 3954   1.391   3.363   5.496 -0.4228  0.0903  0.0043
    2PC     H3A 3955   1.307   3.338   5.561 -2.0032  2.4001 -1.0336
    2PC     H3B 3956   1.364   3.460   5.455 -0.8208  0.1504  0.4009
    2PC     H3C 3957   1.419   3.288   5.422  0.3319  0.3031  0.0682
    2PC     C34 3958   1.549   3.254   5.651  0.3310  0.4236  0.4081
    2PC     H4A 3959   1.586   3.194   5.567 -1.2045 -1.5309  1.0435
    2PC     H4B 3960   1.631   3.281   5.717  1.2442  0.6223 -0.7712
    2PC     H4C 3961   1.469   3.215   5.714  0.0463 -1.0456 -0.7993
    2PC     C35 3962   1.461   3.465   5.711  0.2660  0.0659  0.4317
    2PC     H5A 3963   1.441   3.563   5.669  1.9984 -0.6770 -2.4384
    2PC     H5B 3964   1.533   3.460   5.794 -1.2071 -1.8113  1.6972
    2PC     H5C 3965   1.366   3.425   5.745  0.2843 -0.8790 -0.5722
    2PC     O33 3966   1.769   3.053   5.318 -0.2757  0.2039 -0.2007
    2PC     O34 3967   1.914   3.222   5.257  0.1133  0.0589 -0.0289
    2PC     O21 3968   1.453   3.278   4.995 -0.1366 -0.3587 -0.5235
    2PC     C21 3969   1.343   3.226   5.052  0.2572 -0.2964  0.3081
    2PC     O22 3970   1.311   3.109   5.055 -0.9209  0.0244  0.4955
    3OL     C12 3971   1.261   3.338   5.110  0.1622  0.1385 -0.6373
    3OL     H2R 3972   1.294   3.367   5.210  1.0981  1.5509 -1.3243
    3OL     H2S 3973   1.156   3.309   5.120 -0.0236  0.6900 -0.9361
    3OL     C13 3974   1.260   3.464   5.023  0.6335  0.2389 -0.4974
    3OL     H3R 3975   1.359   3.509   5.005  1.0111 -0.2522  0.3020
    3OL     H3S 3976   1.196   3.539   5.071  1.0531 -0.4743  1.2479
    3OL     C14 3977   1.182   3.446   4.892 -0.6330  0.6779  0.1796
    3OL     H4R 3978   1.080   3.410   4.908 -0.0788 -1.0734  0.0268
    3OL     H4S 3979   1.228   3.360   4.844 -1.5961 -0.0966  0.6071
    3OL     C15 3980   1.191   3.570   4.802 -0.0922  0.2812 -0.3222
    3OL     H5R 3981   1.292   3.595   4.770  0.3561 -0.8108  0.1964
    3OL     H5S 3982   1.134   3.657   4.836 -0.3217  0.0149 -0.0222
    3OL     C16 3983   1.118   3.525   4.675  0.1738  0.5550 -0.5732
    3OL     H6R 3984   1.013   3.508   4.700  0.1144  3.3508  1.6419
    3OL     H6S 3985   1.171   3.435   4.644 -0.8247  0.1508 -1.1558
    3OL     C17 3986   1.107   3.632   4.565 -0.4821  0.8442 -0.2302
    3OL     H7R 3987   1.201   3.676   4.532 -0.2821  0.7140  0.1543
    3OL     H7S 3988   1.059   3.721   4.608  0.7161  1.9633 -1.1397
    3OL     C18 3989   1.038   3.559   4.449  0.1410 -0.3283  0.1162
    3OL     H8R 3990   0.958   3.490   4.473  2.1265 -2.9236 -0.2795
    3OL     H8S 3991   1.102   3.485   4.399  0.5741  0.6415 -0.8175
    3OL     C19 3992   1.006   3.654   4.336 -0.1264  0.0993  0.5450
    3OL     H9R 3993   1.094   3.696   4.288 -0.8273  0.5147 -0.4056
    3OL    C110 3994   0.887   3.697   4.296 -0.0752 -0.0730  0.1966
    3OL    H10R 3995   0.882   3.773   4.219  0.0131 -0.0975  0.1658
    3OL    C111 3996   0.755   3.667   4.362 -0.2269 -0.3062 -0.2143
    3OL    H11R 3997   0.770   3.608   4.452 -1.1711  1.4998  1.2118
    3OL    H11S 3998   0.698   3.603   4.295 -2.4054 -1.3451  2.4515
    3OL    C112 3999   0.671   3.790   4.400  0.2970  0.0078 -0.0719
    3OL    H12R 4000   0.728   3.864   4.458  1.0559  0.5477 -1.4482
    3OL    H12S 4001   0.587   3.759   4.461 -1.2525 -1.3363 -2.7284
    3OL    C113 4002   0.621   3.855   4.270  0.4842  0.4034  0.0492
    3OL    H13R 4003   0.597   3.769   4.206  0.7117  0.1408  0.3133
    3OL    H13S 4004   0.693   3.922   4.223 -1.4984  0.7693 -2.6911
    3OL    C114 4005   0.497   3.944   4.284  0.2963  0.1608 -0.0610
    3OL    H14R 4006   0.505   4.007   4.373 -0.8543  0.9726 -0.5049
    3OL    H14S 4007   0.416   3.872   4.299  0.1030  0.5575  0.8641
    3OL    C115 4008   0.462   4.026   4.159 -0.2947 -0.0452 -0.0345
    3OL    H15R 4009   0.371   4.085   4.165 -0.6649 -0.5024 -0.8937
    3OL    H15S 4010   0.442   3.954   4.079  2.3067 -2.9119  1.6677
    3OL    C116 4011   0.576   4.120   4.120 -0.2565 -0.1227 -0.1114
    3OL    H16R 4012   0.660   4.055   4.096 -1.6411 -0.6122 -4.4912
    3OL    H16S 4013   0.601   4.180   4.208 -0.7909 -0.3912  0.2257
    3OL    C117 4014   0.537   4.213   4.004  0.1608 -0.5152 -0.5673
    3OL    H17R 4015   0.617   4.284   3.980 -0.0372 -0.7754 -2.1422
    3OL    H17S 4016   0.459   4.286   4.026  1.8854  1.6651 -1.2731
    3OL    C118 4017   0.519   4.139   3.870  0.2864 -0.3197 -0.6936
    3OL    H18R 4018   0.434   4.071   3.880  1.1803 -1.2226  1.4326
    3OL    H18S 4019   0.604   4.071   3.859  0.1695 -0.4624 -0.7290
    3OL    H18T 4020   0.513   4.211   3.788  1.8912 -2.7704 -3.1288
    1PA    C116 4021   3.310   5.705   4.083 -0.2731 -0.5997 -1.1111
    1PA    H16R 4022   3.218   5.763   4.095 -0.3889 -0.7195 -1.4099
    1PA    H16S 4023   3.322   5.640   4.170  0.7615  0.4016 -0.4692
    1PA    H16T 4024   3.300   5.656   3.986 -1.2247  1.2522 -1.9924
    1PA    C115 4025   3.425   5.805   4.061  0.0280 -0.6086  0.3323
    1PA    H15R 4026   3.514   5.742   4.059  2.3619  2.5201 -2.1589
    1PA    H15S 4027   3.410   5.843   3.960 -1.8433 -1.8723  0.0789
    1PA    C114 4028   3.438   5.911   4.171  0.1448  0.1757 -0.4324
    1PA    H14R 4029   3.468   5.863   4.265  1.3707  0.4876 -0.6451
    1PA    H14S 4030   3.522   5.979   4.149  1.4579 -1.0496  0.6058
    1PA    C113 4031   3.309   5.988   4.199  0.0437 -0.0585 -0.2576
    1PA    H13R 4032   3.270   6.033   4.108  2.0792  0.3939 -0.9526
    1PA    H13S 4033   3.225   5.932   4.242 -0.4720  0.9640  0.1057
    1PA    C112 4034   3.336   6.094   4.307 -0.2156 -0.1616 -0.0908
    1PA    H12R 4035   3.355   6.054   4.407 -1.7743  1.1449  0.7691
    1PA    H12S 4036   3.419   6.150   4.266 -0.0059  0.2726  0.9040
    1PA    C111 4037   3.219   6.193   4.325 -0.0597 -0.0060  0.0682
    1PA    H11R 4038   3.138   6.146   4.381 -1.2061  1.4628 -0.3063
    1PA    H11S 4039   3.255   6.281   4.378  1.8452 -0.8733  0.3138
    1PA    C110 4040   3.150   6.238   4.196 -0.6931 -0.3166  0.2936
    1PA    H10R 4041   3.215   6.276   4.116 -0.3987 -0.7531  0.3202
    1PA    H10S 4042   3.101   6.152   4.150 -0.6216  0.1371 -0.6657
    1PA     C19 4043   3.037   6.336   4.230 -0.1785  0.3314  0.1709
    1PA     H9R 4044   2.973   6.355   4.143 -1.3473  0.9475  1.1319
    1PA     H9S 4045   2.968   6.286   4.298 -0.9010  0.2391 -0.6099
    1PA     C18 4046   3.079   6.475   4.280  0.3459  0.3008 -0.1849
    1PA     H8R 4047   3.062   6.480   4.387 -1.3898  0.9381 -0.4685
    1PA     H8S 4048   3.187   6.491   4.268  0.0646  1.6337 -1.1679
    1PA     C17 4049   2.999   6.588   4.213  0.0368 -0.0442 -0.4031
    1PA     H7R 4050   3.016   6.574   4.106  1.3667 -0.2156 -0.1854
    1PA     H7S 4051   2.894   6.574   4.237  0.0913  0.0892 -0.0726
    1PA     C16 4052   3.037   6.728   4.262  0.4936 -0.4081  0.3065
    1PA     H6R 4053   3.141   6.746   4.234 -0.0218  0.4157 -1.2282
    1PA     H6S 4054   2.985   6.800   4.199  0.5655  1.1854  1.9566
    1PA     C15 4055   3.005   6.757   4.410 -0.4010  0.5704 -0.0629
    1PA     H5R 4056   3.030   6.673   4.475 -1.0212  0.1485 -0.3579
    1PA     H5S 4057   3.068   6.836   4.451  1.5397 -1.0895  0.3330
    1PA     C14 4058   2.857   6.788   4.435 -0.4567  0.3305 -0.0874
    1PA     H4R 4059   2.844   6.887   4.481 -2.0518  0.2522 -0.3218
    1PA     H4S 4060   2.799   6.786   4.342  0.2752 -1.1329 -0.5353
    1PA     C13 4061   2.798   6.678   4.524  0.4893 -0.1247 -0.0121
    1PA     H3R 4062   2.786   6.591   4.459  0.3675  1.2838 -1.9613
    1PA     H3S 4063   2.867   6.653   4.604  0.6276  1.1327  0.2844
    1PA     C12 4064   2.656   6.712   4.571  0.5972 -0.1751  0.3504
    1PA     H2R 4065   2.643   6.807   4.623 -1.8249 -0.4857  0.4391
    1PA     H2S 4066   2.601   6.720   4.477 -1.3537 -2.5568  1.1779
    2PC     C11 4067   2.591   6.611   4.662 -0.3433 -0.0556 -0.1722
    2PC     O12 4068   2.582   6.491   4.643  0.0686 -0.2718  0.9274
    2PC     O11 4069   2.554   6.677   4.774  0.1822 -0.0307 -0.0110
    2PC      C1 4070   2.484   6.591   4.865  0.1520  0.0113  0.0048
    2PC      HR 4071   2.393   6.543   4.830  0.3431 -1.4279  1.3728
    2PC      HS 4072   2.553   6.508   4.884  0.4105  0.2648  0.1890
    2PC      C2 4073   2.445   6.673   4.989 -0.1505 -0.4133  0.1919
    2PC      HX 4074   2.531   6.736   5.011  0.3995 -0.6690 -1.1309
    2PC      C3 4075   2.419   6.579   5.108 -0.0799 -0.2802  0.3127
    2PC      HA 4076   2.338   6.506   5.101 -1.7297  1.2817  1.9442
    2PC      HB 4077   2.507   6.518   5.128  0.7496  0.9573  0.5678
    2PC     O31 4078   2.396   6.661   5.224  0.3535  0.7712 -0.3327
    2PC     P31 4079   2.496   6.649   5.349 -0.0821 -0.0866 -0.0652
    2PC     O32 4080   2.476   6.492   5.377 -0.4188  0.0460  0.4602
    2PC     C31 4081   2.531   6.433   5.496 -0.0069 -0.1247  0.1876
    2PC     H1A 4082   2.638   6.450   5.503  0.7490 -2.8453 -2.5105
    2PC     H1B 4083   2.482   6.475   5.585  1.1746 -1.8318  1.7089
    2PC     C32 4084   2.505   6.282   5.485  0.2964 -0.1484 -0.2239
    2PC     H2A 4085   2.545   6.243   5.392  2.9099  1.4007  0.1496
    2PC     H2B 4086   2.561   6.231   5.564 -1.3187 -1.3532  0.1981
    2PC     N31 4087   2.365   6.232   5.500  0.2470  0.1076  0.1680
    2PC     C33 4088   2.365   6.084   5.478  1.0615  0.1520 -0.1537
    2PC     H3A 4089   2.397   6.080   5.374 -0.1036 -0.2201 -0.5116
    2PC     H3B 4090   2.435   6.041   5.550 -0.1018  1.8713  2.1423
    2PC     H3C 4091   2.261   6.052   5.480  0.8326  0.8484 -0.5232
    2PC     C34 4092   2.323   6.253   5.643  0.8442  1.0710  0.2137
    2PC     H4A 4093   2.306   6.359   5.661  1.0131  1.3431 -1.1335
    2PC     H4B 4094   2.230   6.197   5.654  0.4534  1.5776 -0.4127
    2PC     H4C 4095   2.397   6.208   5.709  0.4397  1.1330  0.7133
    2PC     C35 4096   2.265   6.302   5.413  0.2343  0.1544  0.2201
    2PC     H5A 4097   2.260   6.405   5.450 -0.8881 -0.2973  1.3660
    2PC     H5B 4098   2.165   6.263   5.427 -1.1888  1.2650 -4.6798
    2PC     H5C 4099   2.298   6.291   5.309 -1.2629 -0.4346 -0.2120
    2PC     O33 4100   2.624   6.721   5.338  0.0281 -0.1987  0.4282
    2PC     O34 4101   2.427   6.722   5.458 -0.1305  0.1439 -0.2507
    2PC     O21 4102   2.332   6.755   4.957  0.1991 -0.1210 -0.2995
    2PC     C21 4103   2.327   6.878   5.011  0.0335 -0.2430 -0.0396
    2PC     O22 4104   2.417   6.925   5.077 -0.0067 -0.0638 -0.1124
    3OL     C12 4105   2.187   6.933   4.995  0.2679  0.3387 -0.0736
    3OL     H2R 4106   2.165   7.002   5.077 -2.4383  1.3091 -1.4823
    3OL     H2S 4107   2.105   6.862   4.995 -0.7003  1.4219  1.4887
    3OL     C13 4108   2.168   7.019   4.869  0.0031  0.0955 -0.1988
    3OL     H3R 4109   2.240   7.100   4.871 -0.3663  0.4666 -1.2186
    3OL     H3S 4110   2.071   7.071   4.870  0.3368  0.8674 -2.3675
    3OL     C14 4111   2.172   6.939   4.738 -0.1606 -0.5259  0.1719
    3OL     H4R 4112   2.086   6.872   4.745 -1.0269  0.4797 -0.5382
    3OL     H4S 4113   2.267   6.889   4.723  1.4491  2.2711  0.3710
    3OL     C15 4114   2.140   7.030   4.618  0.4301 -0.5917 -0.0363
    3OL     H5R 4115   2.063   7.100   4.652  0.0077 -1.5283  0.9957
    3OL     H5S 4116   2.088   6.984   4.534 -1.1149  0.0496  0.5316
    3OL     C16 4117   2.264   7.108   4.572  0.1048  0.0690  0.1968
    3OL     H6R 4118   2.318   7.135   4.663  0.0691 -0.5917  0.4212
    3OL     H6S 4119   2.238   7.199   4.517  2.0131 -0.4056 -1.6124
    3OL     C17 4120   2.350   7.026   4.475 -0.2771  0.6706 -0.6675
    3OL     H7R 4121   2.303   7.025   4.377 -0.6897  2.1495 -0.5144
    3OL     H7S 4122   2.339   6.921   4.505  2.6524  0.5146  0.1850
    3OL     C18 4123   2.499   7.064   4.482  0.0063 -0.4643 -0.1766
    3OL     H8R 4124   2.565   6.981   4.458  0.4031  0.1165 -1.1589
    3OL     H8S 4125   2.510   7.089   4.588 -0.9321  1.8335 -0.5382
    3OL     C19 4126   2.530   7.190   4.404  0.2050 -0.2726  0.2087
    3OL     H9R 4127   2.474   7.275   4.441 -0.2077  0.1730 -1.3542
    3OL    C110 4128   2.606   7.202   4.297 -0.5199 -0.0408 -0.2926
    3OL    H10R 4129   2.616   7.299   4.249 -1.8736 -0.1564 -0.8495
    3OL    C111 4130   2.671   7.086   4.226  0.1453  0.0777  0.1034
    3OL    H11R 4131   2.596   7.020   4.180 -0.6602  0.4268  0.8869
    3OL    H11S 4132   2.730   7.023   4.293  0.8812  1.9324  1.2654
    3OL    C112 4133   2.755   7.133   4.106  0.1809 -0.0023  0.0963
    3OL    H12R 4134   2.697   7.210   4.053  0.4052 -0.0742 -0.2515
    3OL    H12S 4135   2.779   7.056   4.034  0.5482 -0.1706  0.3985
    3OL    C113 4136   2.886   7.201   4.146  0.6000 -0.4875 -0.4489
    3OL    H13R 4137   2.867   7.290   4.207  1.2852  0.8185 -2.0524
    3OL    H13S 4138   2.940   7.234   4.057  0.3292 -1.6284 -1.0422
    3OL    C114 4139   2.979   7.100   4.216  0.8054 -0.2542 -0.3818
    3OL    H14R 4140   2.970   7.005   4.164 -1.0860  0.1298 -0.8362
    3OL    H14S 4141   2.942   7.080   4.317  0.6853  0.2730 -0.3178
    3OL    C115 4142   3.119   7.162   4.212  0.4740  0.5640  0.3205
    3OL    H15R 4143   3.182   7.130   4.296  1.1395 -1.2423 -0.8105
    3OL    H15S 4144   3.113   7.269   4.233 -1.5095  0.5142  0.1740
    3OL    C116 4145   3.189   7.140   4.077 -0.1716  0.0083  0.0697
    3OL    H16R 4146   3.281   7.199   4.078  0.5944 -1.1459 -0.5582
    3OL    H16S 4147   3.125   7.176   3.996  0.9741 -1.0313 -1.3465
    3OL    C117 4148   3.238   6.996   4.059 -0.3099  0.0112 -0.3223
    3OL    H17R 4149   3.148   6.935   4.067  0.5607 -1.3086 -0.3714
    3OL    H17S 4150   3.312   6.966   4.133 -0.1716 -1.6224 -1.0723
    3OL    C118 4151   3.302   6.969   3.922  0.4267  0.3621 -0.0479
    3OL    H18R 4152   3.246   7.017   3.842 -0.4208 -1.4665 -0.6043
    3OL    H18S 4153   3.301   6.862   3.902 -1.1088  0.0973  1.2020
    3OL    H18T 4154   3.403   7.010   3.919  0.1232  1.4328  2.3038
    1PA    C116 4155   5.523   3.268   3.518  0.2948 -0.2057  0.1836
    1PA    H16R 4156   5.511   3.212   3.611  1.4608 -0.4437  0.2072
    1PA    H16S 4157   5.455   3.232   3.440 -0.9177 -0.0326  1.1363
    1PA    H16T 4158   5.495   3.370   3.546 -2.1745 -0.9390  0.5573
    1PA    C115 4159   5.670   3.262   3.472  0.0780 -0.6826 -0.4701
    1PA    H15R 4160   5.702   3.168   3.428  1.9360 -0.2668 -0.0720
    1PA    H15S 4161   5.672   3.334   3.390  1.3262  0.8129  0.7879
    1PA    C114 4162   5.779   3.306   3.570  0.0115 -0.4629 -0.4940
    1PA    H14R 4163   5.875   3.310   3.518 -0.4413  0.8835 -1.2685
    1PA    H14S 4164   5.744   3.402   3.610  0.7454  0.3813 -1.7838
    1PA    C113 4165   5.780   3.204   3.685  0.3662  0.0443 -0.0376
    1PA    H13R 4166   5.687   3.208   3.742 -0.3952 -2.1418 -1.0256
    1PA    H13S 4167   5.766   3.100   3.656 -2.8886  0.3392  0.1145
    1PA    C112 4168   5.906   3.222   3.770  0.3288 -0.3160  0.0933
    1PA    H12R 4169   5.994   3.204   3.708 -1.0605 -0.2497 -1.9678
    1PA    H12S 4170   5.899   3.319   3.820 -0.0777  0.6931 -1.8247
    1PA    C111 4171   5.916   3.122   3.886 -0.1244 -0.9442 -0.4024
    1PA    H11R 4172   5.813   3.106   3.918 -1.0030 -4.0770 -3.9914
    1PA    H11S 4173   5.947   3.027   3.842 -1.1145 -0.4215 -2.3473
    1PA    C110 4174   6.020   3.155   3.994 -0.7300 -0.6186  0.0919
    1PA    H10R 4175   6.024   3.078   4.071  0.3442 -1.5637 -0.8698
    1PA    H10S 4176   6.121   3.156   3.950 -1.7849 -0.1819 -2.4994
    1PA     C19 4177   6.004   3.288   4.069  1.0526  0.0458 -0.6533
    1PA     H9R 4178   6.019   3.371   3.999  2.0112  0.7851  0.3791
    1PA     H9S 4179   5.905   3.295   4.114  0.3780 -1.5017 -1.8052
    1PA     C18 4180   6.112   3.277   4.177 -0.0861 -0.2090  0.4787
    1PA     H8R 4181   6.079   3.203   4.250 -2.1125  0.6991  0.5421
    1PA     H8S 4182   6.204   3.239   4.132  1.3153  1.7944  1.4939
    1PA     C17 4183   6.136   3.415   4.241  0.2629  0.1621 -0.4393
    1PA     H7R 4184   6.173   3.490   4.171  1.4916 -1.4546 -1.6069
    1PA     H7S 4185   6.042   3.452   4.282  1.0918 -0.6298  2.4190
    1PA     C16 4186   6.231   3.411   4.361 -0.3413 -0.1901  0.0336
    1PA     H6R 4187   6.207   3.334   4.434  1.2647  0.3864  1.2359
    1PA     H6S 4188   6.335   3.384   4.339 -0.1395 -0.0567  0.7924
    1PA     C15 4189   6.233   3.544   4.438 -0.1046  0.1586 -0.5711
    1PA     H5R 4190   6.272   3.630   4.382 -2.0622  1.4132 -0.0792
    1PA     H5S 4191   6.134   3.578   4.468 -0.4822 -1.7256  0.5206
    1PA     C14 4192   6.319   3.533   4.565 -0.4123  0.3274 -0.3479
    1PA     H4R 4193   6.297   3.441   4.621  1.8860 -0.6387 -0.9235
    1PA     H4S 4194   6.424   3.532   4.535 -0.0566 -2.1287  0.6995
    1PA     C13 4195   6.288   3.641   4.669 -0.6241 -0.2170  0.1601
    1PA     H3R 4196   6.311   3.735   4.618  1.1378  0.0491  1.3220
    1PA     H3S 4197   6.184   3.629   4.699 -0.9802 -1.1899 -1.3629
    1PA     C12 4198   6.377   3.608   4.790 -0.1051  0.3646 -0.0570
    1PA     H2R 4199   6.369   3.500   4.807  1.1723 -0.1624 -2.3683
    1PA     H2S 4200   6.483   3.624   4.771 -0.1107 -0.1047 -0.5059
    2PC     C11 4201   6.322   3.685   4.908  0.0107  0.0268  0.2210
    2PC     O12 4202   6.305   3.622   5.010  0.1567 -0.3525  0.0143
    2PC     O11 4203   6.305   3.817   4.889  0.4916  0.1234  0.4263
    2PC      C1 4204   6.285   3.907   4.999 -0.2537  0.3037  0.1572
    2PC      HR 4205   6.200   3.872   5.058  0.3895 -0.4489  0.6742
    2PC      HS 4206   6.376   3.898   5.059 -0.4074 -0.0375  0.3413
    2PC      C2 4207   6.251   4.047   4.945  0.3026  0.2419 -0.3715
    2PC      HX 4208   6.337   4.094   4.897  1.8596  0.2273  2.1846
    2PC      C3 4209   6.223   4.134   5.068 -0.0812  0.0960 -0.3529
    2PC      HA 4210   6.311   4.133   5.132 -0.0091  1.1067 -0.4250
    2PC      HB 4211   6.205   4.241   5.054 -1.0927 -0.0114  0.0009
    2PC     O31 4212   6.104   4.094   5.139 -0.0527  0.3443 -0.1615
    2PC     P31 4213   6.049   4.194   5.251 -0.3444 -0.0360  0.0365
    2PC     O32 4214   6.173   4.203   5.352 -0.3453  0.2582  0.0112
    2PC     C31 4215   6.188   4.094   5.445 -0.4907  0.7117  0.5759
    2PC     H1A 4216   6.100   4.099   5.510 -2.1060 -0.2154 -1.4211
    2PC     H1B 4217   6.184   3.997   5.395 -0.1903  0.4270  1.0941
    2PC     C32 4218   6.313   4.103   5.534 -0.0182 -0.6352  0.0728
    2PC     H2A 4219   6.401   4.087   5.471 -0.6779  1.3236 -1.4585
    2PC     H2B 4220   6.310   4.205   5.572  0.5787 -0.4791 -0.2939
    2PC     N31 4221   6.314   3.994   5.637  0.0217 -0.1143  0.6297
    2PC     C33 4222   6.308   3.858   5.573  0.0936 -0.0216  0.4236
    2PC     H3A 4223   6.393   3.848   5.505 -0.5040  0.8171 -0.4736
    2PC     H3B 4224   6.310   3.788   5.657 -2.9753 -1.8507 -0.8584
    2PC     H3C 4225   6.211   3.848   5.525  0.3292  0.0599 -0.0747
    2PC     C34 4226   6.445   3.995   5.710  0.1241 -0.3032  0.4517
    2PC     H4A 4227   6.468   4.095   5.748 -0.0177  0.4610 -1.3624
    2PC     H4B 4228   6.438   3.930   5.798 -1.2177  0.4345  0.9255
    2PC     H4C 4229   6.522   3.958   5.642  0.0186 -0.6438  0.5156
    2PC     C35 4230   6.200   4.008   5.732 -0.1439 -0.7544  0.5288
    2PC     H5A 4231   6.223   4.095   5.793  2.5446 -1.5112  0.7271
    2PC     H5B 4232   6.201   3.923   5.800  0.6056 -1.0455  0.1607
    2PC     H5C 4233   6.108   4.007   5.672 -0.1883 -0.7755  0.5975
    2PC     O33 4234   6.002   4.320   5.190  0.4930  0.0724 -0.4054
    2PC     O34 4235   5.935   4.132   5.322 -0.5203 -0.2494 -0.4285
    2PC     O21 4236   6.142   4.028   4.854 -0.1412 -0.6313  0.3141
    2PC     C21 4237   6.082   4.137   4.803  0.2016 -0.2360  0.7485
    2PC     O22 4238   6.099   4.253   4.836 -0.1650  0.0334  0.0339
    3OL     C12 4239   5.973   4.101   4.705  0.2831 -0.2799  0.6747
    3OL     H2R 4240   5.904   4.185   4.690  2.9847  1.8377 -0.9186
    3OL     H2S 4241   5.924   4.014   4.748 -1.1468 -0.3288 -0.9217
    3OL     C13 4242   6.026   4.057   4.568 -0.4685 -0.1256  0.3272
    3OL     H3R 4243   6.107   3.984   4.575 -0.9082 -0.5369  1.1515
    3OL     H3S 4244   6.062   4.142   4.510 -0.1786  0.6075  1.5493
    3OL     C14 4245   5.912   4.005   4.479  0.1237 -1.1753  0.1529
    3OL     H4R 4246   5.837   4.082   4.458 -0.9037 -2.0048  0.6607
    3OL     H4S 4247   5.857   3.925   4.530  0.3354 -1.3809  0.0595
    3OL     C15 4248   5.968   3.950   4.348  0.2508 -0.2410 -0.1906
    3OL     H5R 4249   6.012   3.853   4.372 -0.2475 -0.3028  0.4703
    3OL     H5S 4250   6.043   4.017   4.305  0.0803 -0.4968 -0.9178
    3OL     C16 4251   5.853   3.933   4.247 -0.0593  0.3568  0.0537
    3OL     H6R 4252   5.830   4.030   4.204  0.8325  1.4810  1.9597
    3OL     H6S 4253   5.770   3.889   4.302  0.7499 -1.5963 -0.2051
    3OL     C17 4254   5.887   3.849   4.123 -0.1746  0.2834  0.0716
    3OL     H7R 4255   5.977   3.895   4.083 -0.0907  2.7922  2.8462
    3OL     H7S 4256   5.818   3.856   4.039  0.8155  0.7026 -0.7265
    3OL     C18 4257   5.914   3.700   4.150 -0.5446  0.2032  0.0067
    3OL     H8R 4258   5.828   3.655   4.199  0.0221 -0.9067  0.0102
    3OL     H8S 4259   6.001   3.678   4.213  1.3703  1.7090 -1.9529
    3OL     C19 4260   5.929   3.638   4.014 -0.0297 -0.6241  0.4327
    3OL     H9R 4261   6.025   3.641   3.963  0.1731  0.0067  0.8501
    3OL    C110 4262   5.837   3.573   3.944 -0.0519 -0.0446 -0.0764
    3OL    H10R 4263   5.857   3.531   3.846  0.0488 -1.0797  0.3791
    3OL    C111 4264   5.701   3.528   3.993  0.1613 -0.4974  0.1034
    3OL    H11R 4265   5.706   3.522   4.101  2.9892 -0.9430  0.0428
    3OL    H11S 4266   5.686   3.423   3.967 -0.0855 -0.4092 -0.1179
    3OL    C112 4267   5.582   3.607   3.937  0.3086  0.0804  0.5945
    3OL    H12R 4268   5.592   3.604   3.829  1.4929 -2.9412  0.6880
    3OL    H12S 4269   5.583   3.711   3.970  0.0523  0.0764  0.6191
    3OL    C113 4270   5.451   3.532   3.967  0.0374  0.4029  0.2156
    3OL    H13R 4271   5.419   3.542   4.071 -0.5312 -0.2396  0.1097
    3OL    H13S 4272   5.471   3.426   3.955  0.1074  0.6772 -2.9348
    3OL    C114 4273   5.346   3.573   3.862  0.0330 -0.2140 -0.0216
    3OL    H14R 4274   5.254   3.516   3.875 -1.1520  1.3390 -1.1680
    3OL    H14S 4275   5.396   3.547   3.768  1.1777 -1.9224  1.0056
    3OL    C115 4276   5.292   3.716   3.873 -0.3465 -0.3952  0.5241
    3OL    H15R 4277   5.386   3.770   3.857  1.0766 -3.4510 -3.2191
    3OL    H15S 4278   5.258   3.719   3.976  1.4133 -0.8815  1.1604
    3OL    C116 4279   5.176   3.736   3.775  0.4801  0.0172 -0.3968
    3OL    H16R 4280   5.097   3.662   3.793  0.6175 -0.2885 -1.0025
    3OL    H16S 4281   5.201   3.708   3.672  1.0609  0.3138 -0.3348
    3OL    C117 4282   5.103   3.871   3.782  0.6794  0.0893  0.3132
    3OL    H17R 4283   5.009   3.865   3.727  0.7536  0.4249  0.1507
    3OL    H17S 4284   5.172   3.937   3.730  0.8672  0.8673  1.5026
    3OL    C118 4285   5.081   3.942   3.917 -0.3827  0.4694 -0.0502
    3OL    H18R 4286   5.176   3.957   3.968 -0.1414  2.3302 -0.9799
    3OL    H18S 4287   5.026   3.871   3.978  2.3335  0.2057  2.2854
    3OL    H18T 4288   5.032   4.038   3.903  0.1377  0.5978 -1.0692
    1PA    C116 4289   4.017   2.776   3.700  0.2479  0.5266  0.5927
    1PA    H16R 4290   4.003   2.710   3.614  1.3372  1.2612 -0.1845
    1PA    H16S 4291   4.050   2.723   3.789  0.9456 -1.8789 -1.0149
    1PA    H16T 4292   4.099   2.835   3.658 -1.2271  1.8102 -0.6627
    1PA    C115 4293   3.885   2.853   3.718  0.1913  0.4291  0.5903
    1PA    H15R 4294   3.850   2.895   3.623  0.2315 -1.3596 -0.2635
    1PA    H15S 4295   3.800   2.799   3.760 -0.3910  1.2520  0.4925
    1PA    C114 4296   3.905   2.971   3.813  0.3538  0.4364  0.5474
    1PA    H14R 4297   3.933   2.925   3.908  0.6120 -1.2849 -0.3258
    1PA    H14S 4298   3.986   3.039   3.783  0.4600 -0.1079 -0.4340
    1PA    C113 4299   3.772   3.045   3.831  0.1882  0.3343 -0.2485
    1PA    H13R 4300   3.740   3.091   3.737  0.8126  0.5244 -0.3732
    1PA    H13S 4301   3.697   2.970   3.858  0.6929 -0.6239 -1.4039
    1PA    C112 4302   3.785   3.146   3.946  0.6390  0.3835 -0.3401
    1PA    H12R 4303   3.811   3.095   4.039 -1.4385 -0.4452 -0.1474
    1PA    H12S 4304   3.859   3.216   3.909 -1.1535  1.4715 -2.1059
    1PA    C111 4305   3.652   3.222   3.954  0.6200  0.3292 -0.1278
    1PA    H11R 4306   3.635   3.275   3.860  1.8563 -0.2569 -0.6998
    1PA    H11S 4307   3.575   3.145   3.965 -0.5742  1.3929 -0.7498
    1PA    C110 4308   3.634   3.334   4.057 -1.0962 -0.0349  0.0096
    1PA    H10R 4309   3.721   3.400   4.055 -0.2004 -1.1091  1.3118
    1PA    H10S 4310   3.545   3.387   4.022  0.0078 -0.5668 -4.1644
    1PA     C19 4311   3.631   3.284   4.202 -0.1986 -0.0627  0.0279
    1PA     H9R 4312   3.565   3.196   4.202 -0.5729  0.2030 -0.7588
    1PA     H9S 4313   3.733   3.249   4.219  0.8851  2.6437 -0.4342
    1PA     C18 4314   3.592   3.398   4.298 -0.0288  0.2157 -0.2341
    1PA     H8R 4315   3.659   3.485   4.295 -2.1481  1.9380  0.3778
    1PA     H8S 4316   3.495   3.442   4.277  0.5045  0.3183 -2.9303
    1PA     C17 4317   3.572   3.337   4.437 -0.4147  0.3138 -0.2476
    1PA     H7R 4318   3.517   3.244   4.425 -3.0647  1.7520 -0.0299
    1PA     H7S 4319   3.673   3.318   4.474 -0.2600  0.7172 -0.4551
    1PA     C16 4320   3.510   3.450   4.520 -0.2386  0.4962 -0.3649
    1PA     H6R 4321   3.549   3.552   4.513  1.4968  0.2754  3.2042
    1PA     H6S 4322   3.408   3.456   4.483 -0.6232 -2.1885  0.1076
    1PA     C15 4323   3.504   3.407   4.667 -0.0569  0.7048 -0.2942
    1PA     H5R 4324   3.432   3.324   4.666 -0.5421  1.0235  1.8184
    1PA     H5S 4325   3.599   3.368   4.707 -0.7930 -1.2892 -0.3569
    1PA     C14 4326   3.450   3.511   4.765 -0.1890  0.2323  0.1423
    1PA     H4R 4327   3.512   3.601   4.771 -3.3162  2.6793 -1.0692
    1PA     H4S 4328   3.349   3.543   4.737  0.2412  0.2148 -1.4966
    1PA     C13 4329   3.463   3.456   4.908  0.2321 -0.3677 -0.1255
    1PA     H3R 4330   3.402   3.366   4.920  0.6366 -0.4862  1.2029
    1PA     H3S 4331   3.569   3.434   4.919 -0.1943 -2.1891  0.7046
    1PA     C12 4332   3.414   3.566   5.004 -0.4513 -0.2787 -0.5680
    1PA     H2R 4333   3.488   3.646   5.009  0.6105 -1.2648  0.1671
    1PA     H2S 4334   3.325   3.613   4.961 -1.0995 -0.5996  0.4052
    2PC     C11 4335   3.385   3.520   5.145 -0.3585 -0.2041 -0.5250
    2PC     O12 4336   3.304   3.585   5.208  0.1721  0.0084 -0.0508
    2PC     O11 4337   3.459   3.418   5.189  0.1779  0.3490 -0.1250
    2PC      C1 4338   3.417   3.351   5.310  0.1491 -0.4006 -0.5417
    2PC      HR 4339   3.489   3.271   5.329  1.6617  0.9259 -0.4089
    2PC      HS 4340   3.423   3.426   5.389  0.4807 -0.1560 -0.7906
    2PC      C2 4341   3.279   3.286   5.300 -0.1546  0.1986 -0.2866
    2PC      HX 4342   3.215   3.358   5.248 -0.4910 -0.9964 -1.5858
    2PC      C3 4343   3.216   3.264   5.439  1.0122 -0.2154  0.1839
    2PC      HA 4344   3.211   3.362   5.486 -0.5877  1.0518 -2.4225
    2PC      HB 4345   3.112   3.233   5.428  1.4911 -1.7507 -0.3528
    2PC     O31 4346   3.288   3.175   5.527  0.5285 -1.0407 -0.2412
    2PC     P31 4347   3.224   3.146   5.670  0.0622  0.2145 -0.1868
    2PC     O32 4348   3.356   3.157   5.760 -0.3897  0.4976  0.4562
    2PC     C31 4349   3.357   3.194   5.899  0.3081  0.1708  0.5438
    2PC     H1A 4350   3.340   3.301   5.914  1.6621  0.1274  2.8611
    2PC     H1B 4351   3.281   3.138   5.954 -1.3840 -0.3936 -2.2015
    2PC     C32 4352   3.492   3.146   5.955  0.2380  0.5033  1.0029
    2PC     H2A 4353   3.571   3.199   5.900 -0.1229 -1.0168 -1.1036
    2PC     H2B 4354   3.492   3.183   6.058 -0.3102  0.4768  1.0145
    2PC     N31 4355   3.511   2.998   5.959 -0.1316  0.3931 -0.4869
    2PC     C33 4356   3.412   2.930   6.049  0.1980  0.2036 -0.2650
    2PC     H3A 4357   3.314   2.927   6.001 -1.0724  2.2181  2.0012
    2PC     H3B 4358   3.446   2.829   6.072 -0.4144 -0.2913 -1.4480
    2PC     H3C 4359   3.402   2.994   6.136  2.7945  3.2661 -2.0177
    2PC     C34 4360   3.519   2.931   5.826 -0.1399  0.1114 -0.3466
    2PC     H4A 4361   3.541   2.826   5.849 -0.2790 -0.1888 -1.5199
    2PC     H4B 4362   3.420   2.932   5.780 -0.3438 -0.5392  0.0585
    2PC     H4C 4363   3.582   2.982   5.753  0.9947 -1.6930 -0.7010
    2PC     C35 4364   3.641   2.985   6.033 -0.6900 -0.2362  0.4142
    2PC     H5A 4365   3.673   2.883   6.053  3.4576  1.1155  1.7585
    2PC     H5B 4366   3.618   3.042   6.123 -1.8909 -3.0160  1.9977
    2PC     H5C 4367   3.715   3.029   5.965 -1.4365  0.2636 -0.0950
    2PC     O33 4368   3.114   3.237   5.712  0.3456  0.4786 -0.0086
    2PC     O34 4369   3.155   3.015   5.676  0.1362  0.1503 -0.7285
    2PC     O21 4370   3.291   3.163   5.227 -0.1009  0.0063  0.0410
    2PC     C21 4371   3.186   3.080   5.219 -0.2297  0.1284  0.4451
    2PC     O22 4372   3.073   3.116   5.244 -0.2963  0.4446 -0.2853
    3OL     C12 4373   3.224   2.948   5.155  0.2516  0.4014  0.1595
    3OL     H2R 4374   3.151   2.868   5.169 -1.1532  1.9481  2.6901
    3OL     H2S 4375   3.298   2.916   5.229 -0.0263 -2.7621 -0.8097
    3OL     C13 4376   3.283   2.955   5.014  0.0587 -0.5517  0.0286
    3OL     H3R 4377   3.337   2.863   4.991 -0.3522 -0.6966 -0.3698
    3OL     H3S 4378   3.356   3.034   4.997 -0.4630 -0.2911 -1.0497
    3OL     C14 4379   3.170   2.975   4.912 -0.1274 -0.4402  0.2560
    3OL     H4R 4380   3.217   3.006   4.819  0.4663 -0.4448  0.5509
    3OL     H4S 4381   3.107   3.058   4.943  0.4369 -0.0267  0.2943
    3OL     C15 4382   3.083   2.851   4.886 -0.1516 -0.3541 -0.0749
    3OL     H5R 4383   3.000   2.879   4.820 -1.8273 -2.6710  0.9129
    3OL     H5S 4384   3.055   2.818   4.987  0.0391 -1.0768 -0.2514
    3OL     C16 4385   3.159   2.732   4.825  0.2904 -0.0572 -0.1062
    3OL     H6R 4386   3.083   2.655   4.815  0.0058 -0.1193  1.9991
    3OL     H6S 4387   3.242   2.697   4.886  0.7474  0.1350 -0.6038
    3OL     C17 4388   3.207   2.770   4.684 -0.4601  0.0899 -0.3288
    3OL     H7R 4389   3.271   2.859   4.683 -1.1197  0.5678 -1.4212
    3OL     H7S 4390   3.117   2.798   4.629  0.5243 -0.1125 -2.1004
    3OL     C18 4391   3.259   2.650   4.603 -0.0239 -0.0108  0.0923
    3OL     H8R 4392   3.173   2.592   4.568 -0.7391  1.9813 -1.6945
    3OL     H8S 4393   3.322   2.598   4.675  1.0157  2.8535  1.4074
    3OL     C19 4394   3.349   2.703   4.495  0.1231 -0.5552 -0.0554
    3OL     H9R 4395   3.405   2.792   4.525 -0.2179 -1.2030  2.8109
    3OL    C110 4396   3.357   2.658   4.371 -0.4515 -0.2625 -0.2012
    3OL    H10R 4397   3.430   2.707   4.306 -1.2043 -1.5252 -2.0952
    3OL    C111 4398   3.287   2.537   4.316  0.8475 -0.9077 -0.4866
    3OL    H11R 4399   3.223   2.490   4.391 -0.0275  0.8340 -0.0926
    3OL    H11S 4400   3.364   2.468   4.282  2.3507 -0.0493  1.0548
    3OL    C112 4401   3.195   2.565   4.196  0.2626  0.4286  0.2523
    3OL    H12R 4402   3.130   2.480   4.175  0.0536  1.3909 -3.6185
    3OL    H12S 4403   3.260   2.571   4.109  0.7418 -2.7463  0.2692
    3OL    C113 4404   3.105   2.690   4.199  0.0344  0.2802 -0.3133
    3OL    H13R 4405   3.166   2.781   4.198  0.5424  0.1362  3.2785
    3OL    H13S 4406   3.035   2.684   4.283 -1.4533 -4.3696 -1.5843
    3OL    C114 4407   3.009   2.682   4.080 -0.7602 -0.1062  0.3441
    3OL    H14R 4408   2.947   2.592   4.075 -1.0040  0.0581  0.3746
    3OL    H14S 4409   3.072   2.677   3.991  1.2847 -1.3249  1.7556
    3OL    C115 4410   2.916   2.804   4.082  0.0666  0.5309  0.2662
    3OL    H15R 4411   2.966   2.901   4.093  0.7923  0.0663  1.1933
    3OL    H15S 4412   2.857   2.792   4.173 -3.6324  1.1133 -1.8426
    3OL    C116 4413   2.825   2.813   3.959  0.5469 -0.2311 -0.1500
    3OL    H16R 4414   2.781   2.716   3.933  4.1643 -2.0727 -0.0825
    3OL    H16S 4415   2.882   2.835   3.868  3.2042 -2.4979  0.8111
    3OL    C117 4416   2.712   2.916   3.972  0.4963 -0.2372 -0.5237
    3OL    H17R 4417   2.741   3.004   4.030  0.3506 -1.2381  1.1214
    3OL    H17S 4418   2.630   2.869   4.027  0.1600 -0.0179 -0.8319
    3OL    C118 4419   2.660   2.976   3.841  0.3563  0.3436 -0.2088
    3OL    H18R 4420   2.624   2.906   3.764  0.4081  1.5087 -1.3253
    3OL    H18S 4421   2.742   3.033   3.797 -0.6450  0.3174 -2.2174
    3OL    H18T 4422   2.577   3.037   3.876  0.9481  0.4073  1.1473
    1PA    C116 4423   3.993   3.370   3.430  0.5773  0.1404 -0.4487
    1PA    H16R 4424   3.938   3.345   3.339 -0.9538  3.5493 -0.6080
    1PA    H16S 4425   4.100   3.350   3.428  0.9743  2.0344 -2.4305
    1PA    H16T 4426   3.982   3.478   3.443 -1.5462 -0.1192  0.2593
    1PA    C115 4427   3.929   3.298   3.549  0.1011  0.7480 -0.3297
    1PA    H15R 4428   3.895   3.196   3.529  0.4746  0.4118  0.7037
    1PA    H15S 4429   4.000   3.297   3.631  1.1982  3.9183 -1.1073
    1PA    C114 4430   3.800   3.372   3.590 -0.2094  0.1020 -0.1213
    1PA    H14R 4431   3.753   3.391   3.493  0.8861 -1.2419 -0.9738
    1PA    H14S 4432   3.746   3.302   3.654 -1.0045  1.4467  0.7084
    1PA    C113 4433   3.823   3.501   3.668  0.1629  0.0981 -0.2186
    1PA    H13R 4434   3.874   3.572   3.603  0.4767  0.6708  0.6352
    1PA    H13S 4435   3.721   3.539   3.681  0.5067  1.0306 -0.1402
    1PA    C112 4436   3.878   3.497   3.811  0.1457 -0.3854 -0.2265
    1PA    H12R 4437   3.812   3.434   3.872  1.3873 -2.8721 -1.3020
    1PA    H12S 4438   3.979   3.455   3.807  1.0330  1.7455 -1.9384
    1PA    C111 4439   3.893   3.638   3.870 -0.2288 -0.4965  0.1444
    1PA    H11R 4440   3.950   3.700   3.800  1.2484 -1.4695  0.4205
    1PA    H11S 4441   3.794   3.682   3.876  0.0073  0.1604 -0.5583
    1PA    C110 4442   3.965   3.629   4.005  0.3820  0.3206 -0.1156
    1PA    H10R 4443   3.910   3.552   4.061 -1.5451  0.8857 -1.1621
    1PA    H10S 4444   4.071   3.607   3.991  0.1816 -0.1475 -0.9700
    1PA     C19 4445   3.949   3.757   4.088  0.1705  0.0364  0.2912
    1PA     H9R 4446   4.037   3.772   4.150  0.1393 -0.3590  0.4282
    1PA     H9S 4447   3.962   3.844   4.022  0.2535 -1.2739 -1.5122
    1PA     C18 4448   3.811   3.775   4.153  0.0058  0.0939 -0.0709
    1PA     H8R 4449   3.740   3.801   4.074 -1.3362 -0.2864  0.9893
    1PA     H8S 4450   3.785   3.677   4.192  0.7946 -0.8752 -1.8583
    1PA     C17 4451   3.810   3.890   4.255  0.3805  0.0777 -0.0463
    1PA     H7R 4452   3.874   3.850   4.335  0.5356  1.8231  0.7325
    1PA     H7S 4453   3.854   3.976   4.205  2.5512 -0.3858  0.9537
    1PA     C16 4454   3.669   3.913   4.311  0.4100  0.2855 -0.0603
    1PA     H6R 4455   3.611   3.941   4.222  0.0419  2.1608  0.7177
    1PA     H6S 4456   3.619   3.821   4.341 -1.0211  0.9939 -0.1711
    1PA     C15 4457   3.645   4.012   4.426 -0.4029 -0.0296  0.0486
    1PA     H5R 4458   3.722   4.088   4.414 -0.3218 -0.3554 -1.7976
    1PA     H5S 4459   3.546   4.058   4.430  0.0298  1.0726 -1.1504
    1PA     C14 4460   3.677   3.939   4.557 -0.3742 -0.1896 -0.0469
    1PA     H4R 4461   3.596   3.871   4.581 -1.5606 -0.5404 -4.2472
    1PA     H4S 4462   3.761   3.869   4.549 -0.6666 -0.8701  2.0651
    1PA     C13 4463   3.706   4.040   4.669 -0.0179 -0.5015  0.1465
    1PA     H3R 4464   3.766   3.991   4.746 -0.2119 -0.8514  0.0774
    1PA     H3S 4465   3.760   4.126   4.628 -0.3302  0.6383  1.9787
    1PA     C12 4466   3.577   4.095   4.731 -0.0685 -0.5547  0.0882
    1PA     H2R 4467   3.490   4.076   4.667 -2.2357 -0.8058  2.8941
    1PA     H2S 4468   3.562   4.038   4.824  1.3592  1.0788  1.3911
    2PC     C11 4469   3.584   4.236   4.783 -0.3701 -0.5776  0.1971
    2PC     O12 4470   3.515   4.324   4.735  0.2224 -0.3797 -0.2991
    2PC     O11 4471   3.674   4.252   4.881 -0.0530 -0.2697 -0.1396
    2PC      C1 4472   3.692   4.385   4.932 -0.2517 -0.4543  0.4145
    2PC      HR 4473   3.735   4.448   4.855 -0.4480 -0.6973  0.1054
    2PC      HS 4474   3.594   4.414   4.972  0.1120 -0.9421  1.7308
    2PC      C2 4475   3.784   4.377   5.055  0.1016 -0.9912  0.1161
    2PC      HX 4476   3.750   4.293   5.115 -0.4581 -0.2427  0.8682
    2PC      C3 4477   3.782   4.510   5.132 -0.6607 -0.8761 -0.0981
    2PC      HA 4478   3.849   4.586   5.091 -0.0102 -1.0973  0.5568
    2PC      HB 4479   3.683   4.556   5.120  0.4278  1.3180 -1.2376
    2PC     O31 4480   3.817   4.483   5.268 -0.3212 -0.1844 -0.0452
    2PC     P31 4481   3.795   4.587   5.388  0.1669  0.0312 -0.1395
    2PC     O32 4482   3.635   4.574   5.388  0.1510  0.2318 -0.2797
    2PC     C31 4483   3.566   4.682   5.454  0.4027  0.1178  0.1738
    2PC     H1A 4484   3.630   4.737   5.524 -1.1186  2.5318 -0.2154
    2PC     H1B 4485   3.527   4.760   5.389  0.2914  1.3041  1.6234
    2PC     C32 4486   3.449   4.623   5.534  0.1173  0.0551 -0.2851
    2PC     H2A 4487   3.366   4.607   5.465 -0.2130  0.1187  0.0886
    2PC     H2B 4488   3.478   4.532   5.587  0.6187  1.5161  2.1450
    2PC     N31 4489   3.394   4.719   5.636  0.1221 -0.2094 -0.0321
    2PC     C33 4490   3.265   4.659   5.684  0.1760 -0.1663  0.1678
    2PC     H3A 4491   3.278   4.561   5.729  1.0284 -0.5005 -0.7608
    2PC     H3B 4492   3.221   4.729   5.756  1.6546 -0.2071  1.1508
    2PC     H3C 4493   3.194   4.651   5.601  0.9136 -1.6021 -0.3560
    2PC     C34 4494   3.493   4.730   5.748  0.6343 -1.3097 -0.3565
    2PC     H4A 4495   3.582   4.785   5.718 -0.2304  1.1078  1.1493
    2PC     H4B 4496   3.453   4.788   5.831  0.2813 -0.4818 -1.0898
    2PC     H4C 4497   3.516   4.629   5.783  0.2430 -1.2907 -0.0286
    2PC     C35 4498   3.369   4.856   5.580  0.0597 -0.1842  0.0582
    2PC     H5A 4499   3.452   4.890   5.519  1.1954 -1.8288  0.6181
    2PC     H5B 4500   3.330   4.927   5.654  1.4998  1.3709 -0.6244
    2PC     H5C 4501   3.284   4.844   5.513  0.0334  0.2094  0.0188
    2PC     O33 4502   3.871   4.526   5.500  0.3612  0.4830 -0.0239
    2PC     O34 4503   3.839   4.728   5.382  0.0293  0.0994  0.3823
    2PC     O21 4504   3.921   4.358   5.014  0.3084  0.0838  0.2840
    2PC     C21 4505   3.964   4.233   4.994  0.4510  0.1430  0.2193
    2PC     O22 4506   3.903   4.128   5.000  0.3827  0.1425 -0.3673
    3OL     C12 4507   4.109   4.233   4.951  0.3087  0.0890 -0.2728
    3OL     H2R 4508   4.136   4.162   4.873 -1.7260 -1.4330  0.2986
    3OL     H2S 4509   4.151   4.206   5.048 -1.8735  1.4839  1.1407
    3OL     C13 4510   4.145   4.370   4.893 -0.1254  0.1491 -0.4045
    3OL     H3R 4511   4.139   4.445   4.972 -0.4168 -0.1425 -0.1452
    3OL     H3S 4512   4.077   4.418   4.823 -0.7570  3.7734  2.3519
    3OL     C14 4513   4.283   4.382   4.827  0.1071 -0.6862 -0.0767
    3OL     H4R 4514   4.357   4.341   4.897  1.7687  0.0709 -1.3256
    3OL     H4S 4515   4.301   4.489   4.817 -0.2573 -0.3201  2.5270
    3OL     C15 4516   4.301   4.303   4.696  0.1985 -0.5873 -0.1237
    3OL     H5R 4517   4.206   4.303   4.642  0.1937 -1.5216 -0.1273
    3OL     H5S 4518   4.335   4.203   4.721  1.4157  0.0965  1.1322
    3OL     C16 4519   4.412   4.354   4.603  0.2197 -0.5170 -0.0602
    3OL     H6R 4520   4.368   4.438   4.551 -1.2143 -0.9231  0.4601
    3OL     H6S 4521   4.435   4.275   4.531  3.7630 -1.7983  2.1672
    3OL     C17 4522   4.546   4.376   4.676  0.0455  0.1587  0.0574
    3OL     H7R 4523   4.583   4.281   4.715 -0.0841  0.1044  0.0501
    3OL     H7S 4524   4.545   4.445   4.761 -0.4386  0.6058 -0.2995
    3OL     C18 4525   4.634   4.439   4.567 -0.0519  0.2662  0.0397
    3OL     H8R 4526   4.594   4.535   4.534 -0.5349 -0.2225 -0.8326
    3OL     H8S 4527   4.630   4.375   4.478 -1.0532 -0.1223  0.3436
    3OL     C19 4528   4.773   4.451   4.623 -0.0960  0.0423  0.1996
    3OL     H9R 4529   4.792   4.406   4.721  0.8326  0.1334  0.0776
    3OL    C110 4530   4.869   4.518   4.560 -0.2511  0.1250  0.0514
    3OL    H10R 4531   4.970   4.511   4.599  0.3271  1.4584 -1.1511
    3OL    C111 4532   4.870   4.563   4.416  0.0893  0.4599  0.1586
    3OL    H11R 4533   4.768   4.553   4.379  0.8708 -0.4606 -1.8529
    3OL    H11S 4534   4.941   4.499   4.364 -2.2694 -1.8540 -0.4118
    3OL    C112 4535   4.910   4.710   4.395  0.1222  0.5289  0.6775
    3OL    H12R 4536   4.911   4.729   4.287  1.3160  2.8966  1.0530
    3OL    H12S 4537   5.016   4.715   4.421  0.1335  0.9308  0.5592
    3OL    C113 4538   4.814   4.803   4.470 -0.8720 -0.1597  0.2782
    3OL    H13R 4539   4.821   4.793   4.579 -1.1290  0.3664  0.3453
    3OL    H13S 4540   4.713   4.784   4.432 -0.8632  1.4802 -0.6606
    3OL    C114 4541   4.857   4.948   4.447 -0.2864 -0.2798  0.5965
    3OL    H14R 4542   4.883   4.970   4.343 -1.1895 -0.1921  0.3779
    3OL    H14S 4543   4.933   4.970   4.522 -1.7194  4.9918  0.9297
    3OL    C115 4544   4.740   5.042   4.481 -0.1766 -0.1712  0.6787
    3OL    H15R 4545   4.671   5.007   4.558 -0.8755 -0.7588 -0.1832
    3OL    H15S 4546   4.674   5.044   4.394  1.3664 -0.6497 -0.5541
    3OL    C116 4547   4.781   5.186   4.513 -0.3175  0.1345 -0.4878
    3OL    H16R 4548   4.704   5.246   4.463 -2.5096 -2.3869 -0.3827
    3OL    H16S 4549   4.877   5.216   4.471  0.8489  2.0324  3.1470
    3OL    C117 4550   4.798   5.217   4.662 -0.1922 -0.3994 -0.3892
    3OL    H17R 4551   4.857   5.136   4.705  1.7079  0.9865 -0.2995
    3OL    H17S 4552   4.704   5.210   4.718  0.9175  0.0468  1.6009
    3OL    C118 4553   4.857   5.359   4.664 -0.3159 -0.3480 -0.3746
    3OL    H18R 4554   4.962   5.356   4.636  0.2842 -0.3026  1.6920
    3OL    H18S 4555   4.854   5.408   4.762  0.0842 -0.8953 -0.0827
    3OL    H18T 4556   4.799   5.420   4.594  0.6306  2.1200  0.8742
    1PA    C116 4557   5.017   2.814   4.078  0.9791  0.5763 -0.1068
    1PA    H16R 4558   4.928   2.871   4.108  1.6190  1.6396 -0.1568
    1PA    H16S 4559   5.008   2.817   3.969  0.3741  1.4730 -0.0500
    1PA    H16T 4560   5.102   2.876   4.106 -0.1846  1.9365  0.5560
    1PA    C115 4561   5.023   2.667   4.122 -0.0876  0.5496 -0.0065
    1PA    H15R 4562   5.031   2.662   4.231  2.3794 -0.6512 -0.1766
    1PA    H15S 4563   4.930   2.620   4.093  1.3212 -1.2489 -1.9102
    1PA    C114 4564   5.134   2.586   4.053 -0.5521  0.2197 -0.3696
    1PA    H14R 4565   5.134   2.479   4.075  0.9911  0.0336 -1.1171
    1PA    H14S 4566   5.135   2.600   3.945 -1.3052  0.9891 -0.2960
    1PA    C113 4567   5.275   2.621   4.102 -0.3856 -0.7422 -0.1533
    1PA    H13R 4568   5.352   2.594   4.030 -0.0079 -2.0135  0.6753
    1PA    H13S 4569   5.265   2.729   4.114  0.7054 -0.6413 -0.0127
    1PA    C112 4570   5.313   2.551   4.234 -0.4511  0.6655  0.6285
    1PA    H12R 4571   5.220   2.561   4.291  0.3437  1.9404  1.7535
    1PA    H12S 4572   5.325   2.444   4.219  0.9449  1.1593 -2.4799
    1PA    C111 4573   5.438   2.595   4.312  0.1994  1.1044 -0.6351
    1PA    H11R 4574   5.448   2.518   4.389 -1.8903 -0.5672 -1.9147
    1PA    H11S 4575   5.529   2.594   4.252  0.1767  1.4851 -0.6805
    1PA    C110 4576   5.419   2.725   4.391  0.3657  0.4918  0.4221
    1PA    H10R 4577   5.516   2.764   4.421 -0.4512  1.1445  2.4303
    1PA    H10S 4578   5.385   2.806   4.326  0.0842 -1.4466 -1.9935
    1PA     C19 4579   5.337   2.708   4.520 -0.0368  0.0642  0.1147
    1PA     H9R 4580   5.236   2.672   4.498  0.3273 -0.6287 -0.4705
    1PA     H9S 4581   5.393   2.635   4.579  0.1836 -1.6314 -2.0447
    1PA     C18 4582   5.330   2.841   4.596 -0.8503  0.1836 -0.1568
    1PA     H8R 4583   5.428   2.886   4.615 -0.7999 -0.6672  1.7975
    1PA     H8S 4584   5.260   2.903   4.540 -0.5642 -0.0101 -0.7361
    1PA     C17 4585   5.256   2.822   4.729 -0.2069 -0.7479  0.0755
    1PA     H7R 4586   5.203   2.913   4.758  0.4190 -0.6152  0.8572
    1PA     H7S 4587   5.171   2.758   4.706  1.1077 -1.5620 -2.9447
    1PA     C16 4588   5.348   2.766   4.839  0.7115  0.1142 -0.2355
    1PA     H6R 4589   5.364   2.662   4.810 -2.5074 -0.3199 -0.8528
    1PA     H6S 4590   5.448   2.810   4.837  1.7472 -2.1033 -1.3840
    1PA     C15 4591   5.271   2.779   4.971 -0.1444 -0.5763 -0.6521
    1PA     H5R 4592   5.228   2.879   4.985 -1.5297 -1.2740  0.2577
    1PA     H5S 4593   5.178   2.722   4.967 -1.1609  1.0615 -2.2504
    1PA     C14 4594   5.357   2.747   5.094 -0.6314  0.0664 -0.1367
    1PA     H4R 4595   5.389   2.643   5.088  0.9075  0.4277  0.9702
    1PA     H4S 4596   5.457   2.792   5.088 -0.0674 -1.1550 -0.1522
    1PA     C13 4597   5.284   2.754   5.229  0.2189 -0.1982  0.3440
    1PA     H3R 4598   5.273   2.859   5.255  2.2075 -0.6622  3.6287
    1PA     H3S 4599   5.192   2.696   5.233  0.6231 -0.8332  3.8633
    1PA     C12 4600   5.366   2.682   5.337  0.2057 -0.4052  0.2174
    1PA     H2R 4601   5.385   2.580   5.303  0.5730  0.1487 -1.3317
    1PA     H2S 4602   5.459   2.735   5.360 -0.7962  2.2429 -1.3939
    2PC     C11 4603   5.287   2.681   5.465  0.0522  0.0155  0.1266
    2PC     O12 4604   5.171   2.713   5.480  0.0694 -0.1707  0.6799
    2PC     O11 4605   5.361   2.622   5.560  0.1287 -0.2160 -0.0755
    2PC      C1 4606   5.306   2.614   5.693 -0.1764 -0.0588 -0.1913
    2PC      HR 4607   5.197   2.607   5.694 -0.1036 -1.4918  0.7446
    2PC      HS 4608   5.340   2.522   5.742 -1.8175  0.4339  2.0053
    2PC      C2 4609   5.371   2.730   5.770 -0.1495 -0.0164 -0.2763
    2PC      HX 4610   5.477   2.706   5.772 -0.4537 -1.7391 -1.7097
    2PC      C3 4611   5.313   2.751   5.911  0.2936  0.3466 -0.1499
    2PC      HA 4612   5.325   2.656   5.963  0.8006 -0.5303 -1.7859
    2PC      HB 4613   5.355   2.835   5.967  0.1235  0.0948  0.3618
    2PC     O31 4614   5.172   2.772   5.889  0.3010  0.1574 -0.3750
    2PC     P31 4615   5.076   2.750   6.015  0.3927 -0.0430 -0.3389
    2PC     O32 4616   5.043   2.906   6.022  0.2931 -0.0380 -0.9084
    2PC     C31 4617   4.947   2.966   6.110  0.0869 -0.4232 -0.8710
    2PC     H1A 4618   4.860   2.900   6.115  0.3275 -0.7096 -0.2958
    2PC     H1B 4619   4.994   2.951   6.208 -0.2753 -0.6038 -0.7237
    2PC     C32 4620   4.917   3.116   6.095  0.2343 -0.3112 -0.1102
    2PC     H2A 4621   4.853   3.139   6.009  0.0834  2.1069  0.5854
    2PC     H2B 4622   4.861   3.145   6.184 -1.0981 -2.4257 -0.2063
    2PC     N31 4623   5.029   3.215   6.084 -0.1232  0.0666 -0.3819
    2PC     C33 4624   5.122   3.214   6.202 -0.3174 -0.2526 -0.2320
    2PC     H3A 4625   5.071   3.233   6.297  1.1815 -0.1091  0.5653
    2PC     H3B 4626   5.164   3.113   6.205 -0.6123 -0.4220  3.8194
    2PC     H3C 4627   5.194   3.293   6.184  0.2109 -0.4488  0.9452
    2PC     C34 4628   5.106   3.200   5.956 -0.0325  0.7254 -0.4094
    2PC     H4A 4629   5.204   3.246   5.970  0.1287  0.2595  0.0414
    2PC     H4B 4630   5.115   3.092   5.940 -0.7473  0.0356  2.9212
    2PC     H4C 4631   5.046   3.245   5.877 -0.0635 -1.1800 -1.5495
    2PC     C35 4632   4.964   3.350   6.089 -0.4190 -0.0951  0.2148
    2PC     H5A 4633   4.891   3.359   6.008  0.1202  2.9962 -0.0378
    2PC     H5B 4634   5.047   3.420   6.080 -0.7006  0.3016  0.6922
    2PC     H5C 4635   4.909   3.359   6.183  0.3681 -0.2273  0.6921
    2PC     O33 4636   4.954   2.673   5.983  0.2090  0.0738  0.0783
    2PC     O34 4637   5.129   2.706   6.147 -0.1477  0.4316  0.0401
    2PC     O21 4638   5.351   2.852   5.697 -0.2066  0.2667  0.2125
    2PC     C21 4639   5.430   2.959   5.715 -0.0117  0.1497  0.0569
    2PC     O22 4640   5.525   2.956   5.790  0.1538  0.6086 -0.1302
    3OL     C12 4641   5.397   3.081   5.632 -0.0766  0.0930 -0.0005
    3OL     H2R 4642   5.398   3.166   5.700 -0.2211  0.4468 -0.4339
    3OL     H2S 4643   5.297   3.062   5.590 -0.9503  0.0401  1.9977
    3OL     C13 4644   5.479   3.100   5.504 -0.0017 -0.2212 -0.0011
    3OL     H3R 4645   5.469   3.019   5.432  1.4027 -0.1143 -0.3509
    3OL     H3S 4646   5.586   3.103   5.528 -0.1718  1.1318  0.7186
    3OL     C14 4647   5.452   3.240   5.447  0.1538 -0.2104 -0.0508
    3OL     H4R 4648   5.491   3.313   5.519  0.7342  0.5970 -1.1560
    3OL     H4S 4649   5.344   3.256   5.442  0.0749 -0.8075 -0.3043
    3OL     C15 4650   5.527   3.271   5.317  0.0964 -0.3977 -0.1282
    3OL     H5R 4651   5.629   3.238   5.339 -0.0142 -0.7485 -0.1309
    3OL     H5S 4652   5.531   3.377   5.291 -0.7873 -0.2299  0.3669
    3OL     C16 4653   5.471   3.194   5.198 -0.1050 -0.3308 -0.0760
    3OL     H6R 4654   5.365   3.220   5.193 -0.0803 -0.3236 -0.7239
    3OL     H6S 4655   5.490   3.086   5.197 -0.6579 -0.4487  1.0620
    3OL     C17 4656   5.542   3.238   5.069  0.5303 -0.5862  0.1840
    3OL     H7R 4657   5.651   3.234   5.072  0.6361  0.4933 -1.1538
    3OL     H7S 4658   5.514   3.341   5.046  2.4668 -0.1462 -0.4116
    3OL     C18 4659   5.484   3.149   4.959  0.2312 -0.3231  0.1276
    3OL     H8R 4660   5.513   3.046   4.982 -0.9508 -0.2315  2.2696
    3OL     H8S 4661   5.551   3.171   4.876  2.4161 -0.5910  1.7389
    3OL     C19 4662   5.339   3.166   4.921  0.3309  0.2939  0.0183
    3OL     H9R 4663   5.262   3.126   4.987  0.0685 -0.4281 -0.7105
    3OL    C110 4664   5.295   3.236   4.817  0.1309  0.4398  0.1998
    3OL    H10R 4665   5.187   3.247   4.804  0.0990  0.2213  0.2756
    3OL    C111 4666   5.380   3.298   4.710 -0.3854  0.2738 -0.3089
    3OL    H11R 4667   5.346   3.265   4.611  0.6496 -0.5607 -0.3966
    3OL    H11S 4668   5.482   3.261   4.718 -0.7781 -0.4260  2.7995
    3OL    C112 4669   5.380   3.450   4.731  0.2636  0.1938  0.2894
    3OL    H12R 4670   5.443   3.506   4.662  2.4895 -1.5921  0.7627
    3OL    H12S 4671   5.401   3.467   4.837  0.3248 -1.4503  0.5599
    3OL    C113 4672   5.238   3.504   4.706  0.1718 -0.2130 -0.0739
    3OL    H13R 4673   5.162   3.465   4.774 -1.4223  2.8787  0.0435
    3OL    H13S 4674   5.206   3.477   4.605  3.8683  1.1442 -1.7772
    3OL    C114 4675   5.229   3.656   4.719 -0.1187 -0.2263 -0.1197
    3OL    H14R 4676   5.283   3.703   4.637 -0.8777  2.2495  0.7077
    3OL    H14S 4677   5.282   3.686   4.810 -2.5202  3.1245  0.3720
    3OL    C115 4678   5.085   3.708   4.728 -0.1441 -0.2558 -0.3542
    3OL    H15R 4679   5.035   3.664   4.815 -1.0631  1.0980 -0.1677
    3OL    H15S 4680   5.034   3.661   4.643 -0.0862  0.2835 -0.6871
    3OL    C116 4681   5.090   3.861   4.726 -0.6821 -0.2205  0.4419
    3OL    H16R 4682   5.132   3.903   4.635 -0.7763  0.4820  0.7129
    3OL    H16S 4683   5.147   3.898   4.812 -1.9641  0.7465  0.9066
    3OL    C117 4684   4.948   3.916   4.740 -0.2996  0.8566  0.1764
    3OL    H17R 4685   4.945   3.999   4.811  0.4944  2.4743 -1.5745
    3OL    H17S 4686   4.882   3.840   4.784  2.2600 -1.5633  0.0742
    3OL    C118 4687   4.898   3.967   4.604  0.4187 -0.1554 -0.4783
    3OL    H18R 4688   4.959   4.054   4.579 -0.1426 -0.0047 -1.3866
    3OL    H18S 4689   4.795   4.001   4.618  0.0421 -1.6111  0.4513
    3OL    H18T 4690   4.904   3.887   4.531 -1.4541  0.7085 -1.6690
    1PA    C116 4691   3.124   3.385   4.029 -0.3990  0.0483  0.1788
    1PA    H16R 4692   3.114   3.380   4.138 -1.2946  0.3685  0.1215
    1PA    H16S 4693   3.189   3.471   4.011 -0.2758  0.2085  1.3329
    1PA    H16T 4694   3.162   3.289   3.995 -0.6302  0.0785 -0.1691
    1PA    C115 4695   2.984   3.404   3.969 -0.1744  0.5606 -0.1886
    1PA    H15R 4696   2.939   3.488   4.022 -0.2648  0.9160 -0.8208
    1PA    H15S 4697   3.002   3.437   3.866  2.7476  0.3747  0.1732
    1PA    C114 4698   2.884   3.288   3.984  0.3840  0.0656 -0.2680
    1PA    H14R 4699   2.921   3.200   3.932  0.0635  0.5215 -1.2919
    1PA    H14S 4700   2.880   3.267   4.091  1.9784 -2.6951 -0.6584
    1PA    C113 4701   2.745   3.328   3.935  0.1910 -0.0908  0.1424
    1PA    H13R 4702   2.759   3.366   3.833  1.2948  1.0417  0.6935
    1PA    H13S 4703   2.691   3.233   3.928 -2.5064  1.3449  0.0283
    1PA    C112 4704   2.669   3.427   4.024 -0.1569 -0.3509  0.1372
    1PA    H12R 4705   2.654   3.385   4.124 -1.0613  3.0707  1.5690
    1PA    H12S 4706   2.724   3.521   4.026  2.3596 -1.7292 -0.6144
    1PA    C111 4707   2.523   3.444   3.979 -0.3149 -0.4298  0.6131
    1PA    H11R 4708   2.529   3.473   3.874  0.4774  2.7963  1.4387
    1PA    H11S 4709   2.456   3.358   3.988 -1.5586  0.3452 -0.7646
    1PA    C110 4710   2.455   3.566   4.043 -0.0203  0.0686 -0.0099
    1PA    H10R 4711   2.525   3.648   4.030  0.2938  0.0367  1.3906
    1PA    H10S 4712   2.360   3.575   3.988 -0.8157  0.6222  1.4098
    1PA     C19 4713   2.440   3.573   4.195  0.3592 -0.3077  0.0472
    1PA     H9R 4714   2.392   3.484   4.236 -1.0217  1.0381  1.4848
    1PA     H9S 4715   2.543   3.572   4.231  0.9181  2.1962 -1.2141
    1PA     C18 4716   2.368   3.706   4.225  0.2791 -0.2077 -0.5831
    1PA     H8R 4717   2.417   3.796   4.187  0.2079  0.9098  1.8399
    1PA     H8S 4718   2.271   3.704   4.175 -0.0359 -1.4799  0.0292
    1PA     C17 4719   2.350   3.723   4.376 -0.1611 -0.1366 -0.6424
    1PA     H7R 4720   2.295   3.639   4.417 -0.8351  0.4080 -0.4175
    1PA     H7S 4721   2.450   3.728   4.419 -0.2251  0.0693 -0.5181
    1PA     C16 4722   2.270   3.852   4.398 -0.4172 -0.3640 -0.2292
    1PA     H6R 4723   2.333   3.938   4.371  0.2224  0.0786  2.3438
    1PA     H6S 4724   2.178   3.857   4.340 -0.0654  0.7439 -0.7175
    1PA     C15 4725   2.232   3.881   4.544 -0.4269 -0.1851 -0.2670
    1PA     H5R 4726   2.309   3.855   4.617  0.5906 -1.8596 -1.8503
    1PA     H5S 4727   2.209   3.988   4.545  1.4357  0.2542  0.0105
    1PA     C14 4728   2.105   3.806   4.585 -0.0651 -0.5188  0.2566
    1PA     H4R 4729   2.022   3.833   4.519  1.0998 -0.3954 -1.2117
    1PA     H4S 4730   2.114   3.699   4.568  0.5382 -0.4065 -0.1501
    1PA     C13 4731   2.061   3.835   4.730 -0.5325  0.3904 -0.0525
    1PA     H3R 4732   1.988   3.759   4.759  0.8667 -0.9389  0.1368
    1PA     H3S 4733   2.141   3.814   4.802  0.2526  0.7319 -0.8037
    1PA     C12 4734   2.006   3.976   4.749 -0.0737  0.5303  0.2536
    1PA     H2R 4735   2.074   4.058   4.723  1.0990  0.3538  2.5496
    1PA     H2S 4736   1.923   3.988   4.679  0.5255 -0.6048 -0.6813
    2PC     C11 4737   1.968   4.008   4.891  0.3204  0.5042  0.3642
    2PC     O12 4738   2.037   3.982   4.988  0.1141 -0.3826  0.2830
    2PC     O11 4739   1.850   4.069   4.903 -0.4001 -0.8181  0.2024
    2PC      C1 4740   1.791   4.085   5.033 -0.3294  0.3920  0.1029
    2PC      HR 4741   1.685   4.112   5.028 -0.2616  0.6222 -0.1005
    2PC      HS 4742   1.791   3.990   5.088 -1.2052  0.7668  0.7685
    2PC      C2 4743   1.872   4.182   5.120 -0.4346  0.3504  0.2486
    2PC      HX 4744   1.976   4.187   5.088  0.0158 -1.2772  1.2832
    2PC      C3 4745   1.861   4.160   5.272  0.1243 -0.1302  0.2258
    2PC      HA 4746   1.910   4.070   5.308  1.4510  0.0875 -0.9391
    2PC      HB 4747   1.892   4.241   5.339 -1.3176 -0.1719  0.9844
    2PC     O31 4748   1.722   4.131   5.291 -0.0393  0.2751 -0.3083
    2PC     P31 4749   1.682   4.104   5.444  0.0767  0.1745 -0.2953
    2PC     O32 4750   1.671   4.258   5.490 -0.3438  0.0468  0.0337
    2PC     C31 4751   1.543   4.319   5.467 -0.5627 -0.4290 -0.0184
    2PC     H1A 4752   1.543   4.328   5.358  2.4975 -0.9739 -0.1579
    2PC     H1B 4753   1.462   4.257   5.509 -0.7867 -0.7071 -0.8306
    2PC     C32 4754   1.551   4.453   5.540 -0.0802 -0.2955 -0.3107
    2PC     H2A 4755   1.452   4.489   5.568  0.3418  1.1621 -0.6203
    2PC     H2B 4756   1.611   4.435   5.629 -0.3839 -0.5784 -0.1593
    2PC     N31 4757   1.609   4.572   5.470 -0.1293 -0.0331  0.0886
    2PC     C33 4758   1.514   4.626   5.367  0.0064 -0.3218 -0.1935
    2PC     H3A 4759   1.413   4.649   5.403  0.4118 -1.1434  1.6178
    2PC     H3B 4760   1.561   4.720   5.338  0.9559 -1.1238 -1.3091
    2PC     H3C 4761   1.510   4.554   5.286  1.0410 -0.4786 -0.1183
    2PC     C34 4762   1.634   4.672   5.578 -0.0976  0.3687 -0.2882
    2PC     H4A 4763   1.683   4.621   5.661  0.3600  3.3195  1.3940
    2PC     H4B 4764   1.700   4.750   5.541 -0.2521  0.9547  0.6280
    2PC     H4C 4765   1.538   4.713   5.611  0.6392  1.3089  0.7977
    2PC     C35 4766   1.743   4.543   5.411  0.0027  0.1239  0.3110
    2PC     H5A 4767   1.811   4.543   5.497 -1.5914  1.9370  1.6464
    2PC     H5B 4768   1.771   4.624   5.344 -0.1986 -0.6043 -0.6873
    2PC     H5C 4769   1.739   4.449   5.355  0.8942 -0.5592  1.3357
    2PC     O33 4770   1.548   4.042   5.455 -0.0218  0.4627  0.1751
    2PC     O34 4771   1.768   4.004   5.510  0.2044 -0.1119 -0.8968
    2PC     O21 4772   1.800   4.304   5.097 -0.7966  0.0923  0.0083
    2PC     C21 4773   1.841   4.379   4.993  0.0225 -0.0846  0.1986
    2PC     O22 4774   1.939   4.348   4.928 -0.0193  0.3962 -0.0973
    3OL     C12 4775   1.761   4.504   4.967 -0.0787 -0.3479 -0.7970
    3OL     H2R 4776   1.785   4.584   5.037 -1.0720 -1.7110  1.1900
    3OL     H2S 4777   1.658   4.488   4.999  0.6375 -0.8320  1.4287
    3OL     C13 4778   1.760   4.550   4.820 -0.2723  0.1048 -0.6526
    3OL     H3R 4779   1.703   4.474   4.767 -2.0908  0.5983  0.4936
    3OL     H3S 4780   1.863   4.552   4.786 -0.3196 -1.4565 -0.9169
    3OL     C14 4781   1.698   4.691   4.817 -0.4416  0.0672  0.4678
    3OL     H4R 4782   1.770   4.757   4.865 -0.0965  0.5706 -0.7038
    3OL     H4S 4783   1.601   4.688   4.867  1.0146 -1.9715  3.4724
    3OL     C15 4784   1.668   4.745   4.677  0.1541  0.3208  0.4353
    3OL     H5R 4785   1.627   4.665   4.615  0.8042 -1.3918  2.1574
    3OL     H5S 4786   1.760   4.780   4.629 -1.1355  0.7950 -1.8868
    3OL     C16 4787   1.575   4.867   4.672 -0.0667  0.1338 -0.1334
    3OL     H6R 4788   1.606   4.933   4.753  2.0769 -2.7211  1.5347
    3OL     H6S 4789   1.472   4.837   4.694 -0.3348  0.4318 -0.9156
    3OL     C17 4790   1.577   4.940   4.537 -0.2090  0.0092 -0.2023
    3OL     H7R 4791   1.674   4.984   4.515 -1.3974  3.0239  0.1367
    3OL     H7S 4792   1.521   5.033   4.545  0.2547  0.3485 -0.8308
    3OL     C18 4793   1.524   4.870   4.411 -0.6462  0.1190 -0.0801
    3OL     H8R 4794   1.426   4.829   4.441  0.5573 -1.8108  1.4927
    3OL     H8S 4795   1.580   4.781   4.382 -0.2866 -0.9624  3.4455
    3OL     C19 4796   1.524   4.959   4.289  0.1118 -0.1986 -0.3137
    3OL     H9R 4797   1.594   4.942   4.208 -0.4348  0.5228 -0.9421
    3OL    C110 4798   1.430   5.046   4.256 -0.1268 -0.4167 -0.2157
    3OL    H10R 4799   1.443   5.101   4.164  3.5913  0.4045  0.6275
    3OL    C111 4800   1.321   5.090   4.350  0.2254  0.5817 -0.2590
    3OL    H11R 4801   1.327   5.198   4.367  0.0718  0.4422  0.7722
    3OL    H11S 4802   1.328   5.044   4.450  0.4930  1.8387  0.3199
    3OL    C112 4803   1.185   5.066   4.283 -0.1285  0.5348  0.4602
    3OL    H12R 4804   1.184   5.117   4.187 -2.3345 -1.9574 -0.9756
    3OL    H12S 4805   1.107   5.112   4.343 -0.3985  1.4958 -0.5972
    3OL    C113 4806   1.144   4.919   4.261  0.0061  0.6030 -0.2763
    3OL    H13R 4807   1.145   4.859   4.352  0.7776  0.9091 -0.0682
    3OL    H13S 4808   1.219   4.876   4.194 -0.3921 -1.8112  0.7312
    3OL    C114 4809   1.008   4.902   4.192  0.1796 -0.5147 -0.3570
    3OL    H14R 4810   0.932   4.950   4.254 -0.7882 -1.3120 -0.8912
    3OL    H14S 4811   0.994   4.794   4.200  0.7166 -0.4667  2.2700
    3OL    C115 4812   1.011   4.954   4.048  0.6978 -0.5121 -0.3469
    3OL    H15R 4813   1.093   4.912   3.988 -0.7963 -1.7885 -1.5584
    3OL    H15S 4814   1.030   5.062   4.051 -0.7179 -0.2454 -0.2503
    3OL    C116 4815   0.880   4.920   3.976  0.2943  0.5161 -0.1193
    3OL    H16R 4816   0.788   4.933   4.033  1.9626  1.3500  2.5821
    3OL    H16S 4817   0.881   4.814   3.951  0.1167  0.8090 -1.4640
    3OL    C117 4818   0.874   5.000   3.846 -0.2774  0.0274 -0.3959
    3OL    H17R 4819   0.950   4.962   3.777 -0.2523 -0.9827  0.1801
    3OL    H17S 4820   0.890   5.107   3.863 -1.2020  0.2177 -0.6524
    3OL    C118 4821   0.736   4.992   3.779 -0.3210 -0.2107 -0.2756
    3OL    H18R 4822   0.711   4.886   3.764  1.1035 -0.7973  1.1380
    3OL    H18S 4823   0.720   5.049   3.687  2.4872  1.5454  0.2319
    3OL    H18T 4824   0.664   5.025   3.854 -1.1871 -3.0699  0.3078
    1PA    C116 4825   4.354   2.737   3.878  0.2643  0.7085  0.3981
    1PA    H16R 4826   4.368   2.814   3.802  3.8914  1.9947  2.0984
    1PA    H16S 4827   4.256   2.742   3.925  0.3690 -0.5737  0.7717
    1PA    H16T 4828   4.348   2.644   3.823 -1.8047  1.9954 -1.7353
    1PA    C115 4829   4.477   2.746   3.970 -0.0801  0.6419  0.8730
    1PA    H15R 4830   4.557   2.704   3.907 -0.0451  1.2943  0.4633
    1PA    H15S 4831   4.502   2.851   3.988  0.5188  0.5863  0.4208
    1PA    C114 4832   4.472   2.657   4.094 -0.1949 -0.7048 -0.0799
    1PA    H14R 4833   4.385   2.695   4.147 -1.2188  0.8525 -2.7130
    1PA    H14S 4834   4.447   2.554   4.067 -2.0555  0.3655 -2.8979
    1PA    C113 4835   4.596   2.673   4.184 -0.2707 -0.1188 -0.0766
    1PA    H13R 4836   4.661   2.585   4.187  1.7313  1.3151  2.5137
    1PA    H13S 4837   4.639   2.766   4.146 -0.9653 -0.3087 -1.4005
    1PA    C112 4838   4.555   2.690   4.331 -0.6299 -0.4195 -0.1402
    1PA    H12R 4839   4.488   2.776   4.341  0.5127  0.5313 -0.3841
    1PA    H12S 4840   4.492   2.605   4.359 -1.9955  0.6405  0.1358
    1PA    C111 4841   4.672   2.699   4.430 -0.1019  0.1059 -0.8003
    1PA    H11R 4842   4.637   2.724   4.531 -1.2224 -0.8407 -0.9289
    1PA    H11S 4843   4.719   2.602   4.442 -0.2159  0.2815  1.7265
    1PA    C110 4844   4.781   2.800   4.393 -0.0073  0.1891 -0.3051
    1PA    H10R 4845   4.824   2.764   4.299 -0.5466 -2.7728  0.5022
    1PA    H10S 4846   4.735   2.899   4.382  1.1177  0.9038  1.1621
    1PA     C19 4847   4.888   2.820   4.501  0.0108 -0.4986 -0.1952
    1PA     H9R 4848   4.928   2.721   4.522  0.1140 -0.4732 -0.2759
    1PA     H9S 4849   4.960   2.884   4.450 -0.8993  1.5279  0.9152
    1PA     C18 4850   4.825   2.891   4.622 -0.4274  0.4366 -0.9614
    1PA     H8R 4851   4.786   2.987   4.587 -0.8015  1.2161  1.4602
    1PA     H8S 4852   4.742   2.828   4.655 -0.0124 -0.3598 -1.4086
    1PA     C17 4853   4.921   2.905   4.741 -0.6375 -0.5597 -0.6722
    1PA     H7R 4854   4.953   2.807   4.779 -0.3124 -0.2077 -0.0276
    1PA     H7S 4855   5.005   2.964   4.706 -1.2973  1.4112  0.9023
    1PA     C16 4856   4.859   2.979   4.860  0.2402  0.1244 -0.6269
    1PA     H6R 4857   4.830   3.081   4.835 -2.0204 -0.2016  0.3951
    1PA     H6S 4858   4.772   2.928   4.903  1.6427 -3.4181 -1.6596
    1PA     C15 4859   4.965   2.999   4.968  0.0196 -0.0455 -0.3766
    1PA     H5R 4860   4.960   2.907   5.026  0.0070  0.5726  0.6248
    1PA     H5S 4861   5.062   2.994   4.919  0.6305  1.1444  0.6528
    1PA     C14 4862   4.955   3.116   5.068  0.0637 -0.2175 -0.1699
    1PA     H4R 4863   4.960   3.207   5.008 -0.0696 -0.0806  0.0256
    1PA     H4S 4864   4.855   3.126   5.110  0.7554  0.9815  1.2561
    1PA     C13 4865   5.057   3.105   5.182 -0.6238 -0.1163  0.4589
    1PA     H3R 4866   5.049   3.006   5.226 -4.4898 -0.3584 -0.4492
    1PA     H3S 4867   5.157   3.117   5.139 -0.3879  2.6405  1.5414
    1PA     C12 4868   5.043   3.208   5.295 -0.0506  0.3269  0.1347
    1PA     H2R 4869   5.121   3.194   5.370  0.5830 -0.4159 -0.6417
    1PA     H2S 4870   5.065   3.308   5.257  3.7320 -0.7217 -0.8632
    2PC     C11 4871   4.906   3.202   5.358 -0.2831 -0.1051 -0.4032
    2PC     O12 4872   4.886   3.112   5.437  0.3447 -0.0018 -0.1204
    2PC     O11 4873   4.818   3.294   5.316  0.1316  0.5130  0.0643
    2PC      C1 4874   4.695   3.313   5.388  0.0304  0.1412 -0.0083
    2PC      HR 4875   4.635   3.225   5.365  0.4321  0.2872 -1.7286
    2PC      HS 4876   4.717   3.321   5.495  0.6510  1.4838 -0.2053
    2PC      C2 4877   4.618   3.441   5.351 -0.3638 -0.2352 -0.4914
    2PC      HX 4878   4.686   3.524   5.372 -2.1870  1.1794  0.0810
    2PC      C3 4879   4.492   3.452   5.437 -0.0697  0.1779 -0.1141
    2PC      HA 4880   4.404   3.433   5.375 -0.4142  0.0329  0.4056
    2PC      HB 4881   4.501   3.376   5.515  1.1315 -1.2134 -1.5721
    2PC     O31 4882   4.477   3.584   5.495 -0.6198 -0.0227  0.2184
    2PC     P31 4883   4.561   3.609   5.629 -0.1942 -0.4305  0.0333
    2PC     O32 4884   4.484   3.506   5.724 -0.3436 -0.3100  0.0428
    2PC     C31 4885   4.506   3.521   5.865 -0.3280 -0.1528  0.0235
    2PC     H1A 4886   4.606   3.484   5.887 -0.0959 -0.5304 -1.6070
    2PC     H1B 4887   4.497   3.627   5.893 -1.3806 -0.5973  1.5347
    2PC     C32 4888   4.395   3.444   5.938 -0.3343 -0.5905 -0.4461
    2PC     H2A 4889   4.310   3.440   5.870 -0.9265 -2.9646  0.3311
    2PC     H2B 4890   4.425   3.343   5.967  1.0649  0.3375  1.5584
    2PC     N31 4891   4.343   3.505   6.065  0.1177 -0.1712 -0.4618
    2PC     C33 4892   4.444   3.515   6.175  0.0190 -0.2522 -0.3647
    2PC     H3A 4893   4.541   3.557   6.149 -0.3714  0.0236 -1.4350
    2PC     H3B 4894   4.393   3.562   6.259  3.1016 -0.6481  1.9124
    2PC     H3C 4895   4.472   3.419   6.219 -0.6284 -0.8989 -1.3434
    2PC     C34 4896   4.291   3.643   6.039  0.2789  0.0043  0.1226
    2PC     H4A 4897   4.248   3.666   6.136  0.8368 -1.3275  0.6991
    2PC     H4B 4898   4.383   3.696   6.014  1.5102 -0.6922  2.9232
    2PC     H4C 4899   4.222   3.652   5.955  3.9216  1.5726 -3.0220
    2PC     C35 4900   4.220   3.431   6.109  0.8039 -0.5413  0.8872
    2PC     H5A 4901   4.228   3.323   6.117 -0.5740 -0.7800 -0.5822
    2PC     H5B 4902   4.140   3.461   6.041  1.6930 -1.2982 -0.5315
    2PC     H5C 4903   4.192   3.462   6.210  0.7985 -2.2615  1.4487
    2PC     O33 4904   4.703   3.570   5.639 -0.2359 -0.5337  0.2275
    2PC     O34 4905   4.545   3.747   5.680 -0.4520 -0.2833 -0.4408
    2PC     O21 4906   4.579   3.449   5.213 -0.3783  0.1212 -0.4664
    2PC     C21 4907   4.578   3.574   5.163  0.5122  0.3618  0.1013
    2PC     O22 4908   4.635   3.671   5.210  0.2554  0.2548  0.6417
    3OL     C12 4909   4.515   3.571   5.026 -0.3219 -0.0785  0.4887
    3OL     H2R 4910   4.430   3.503   5.032 -0.5427  0.1469  0.0019
    3OL     H2S 4911   4.578   3.532   4.946 -0.2365 -2.1057  1.4754
    3OL     C13 4912   4.475   3.712   4.979 -0.3513 -0.0872  0.4881
    3OL     H3R 4913   4.572   3.756   4.957 -0.9544  2.2297  2.1155
    3OL     H3S 4914   4.420   3.769   5.054  0.6945 -0.0896  1.2818
    3OL     C14 4915   4.397   3.700   4.847 -0.0942 -0.1205  0.3401
    3OL     H4R 4916   4.300   3.653   4.861 -0.5740  0.2045 -1.5790
    3OL     H4S 4917   4.449   3.629   4.782 -1.0660 -1.4398  0.9696
    3OL     C15 4918   4.367   3.835   4.781  0.1143 -0.4688 -0.4821
    3OL     H5R 4919   4.454   3.900   4.768 -0.6100  0.4170 -1.0582
    3OL     H5S 4920   4.292   3.882   4.846  1.3274 -0.6058  1.0785
    3OL     C16 4921   4.312   3.829   4.638 -1.0950 -0.1145 -0.0449
    3OL     H6R 4922   4.245   3.743   4.628  0.0443 -0.9110 -1.1985
    3OL     H6S 4923   4.392   3.820   4.565 -0.9012  1.9644 -0.1567
    3OL     C17 4924   4.250   3.963   4.595  0.1510  0.5559  0.2138
    3OL     H7R 4925   4.334   4.025   4.562  1.1303 -1.0269 -0.3940
    3OL     H7S 4926   4.206   4.012   4.682 -1.1091  0.5156 -0.3837
    3OL     C18 4927   4.146   3.947   4.483 -0.0533 -0.0439  0.4825
    3OL     H8R 4928   4.064   3.879   4.504 -1.4502  1.5313  0.3669
    3OL     H8S 4929   4.206   3.910   4.399 -0.2164 -2.2600  1.2733
    3OL     C19 4930   4.113   4.089   4.443 -0.0807 -0.3106 -0.4805
    3OL     H9R 4931   4.088   4.157   4.524  0.6196 -0.2294 -0.3275
    3OL    C110 4932   4.114   4.143   4.323  0.5100  0.6809 -0.0381
    3OL    H10R 4933   4.097   4.250   4.312 -1.7060  0.1708 -2.9930
    3OL    C111 4934   4.131   4.080   4.187  0.0320  0.2840  0.0861
    3OL    H11R 4935   4.042   4.086   4.124  0.0499  1.1403  0.1305
    3OL    H11S 4936   4.157   3.975   4.205  1.3713  0.7489  0.9812
    3OL    C112 4937   4.257   4.138   4.123  0.2171 -0.2138 -0.0056
    3OL    H12R 4938   4.248   4.246   4.130 -2.7026 -0.4409  1.1335
    3OL    H12S 4939   4.258   4.120   4.016  1.1369 -0.2266 -0.0037
    3OL    C113 4940   4.387   4.087   4.187  0.2806 -0.4451 -0.3147
    3OL    H13R 4941   4.401   3.987   4.148 -0.1463 -0.9575  0.7971
    3OL    H13S 4942   4.367   4.083   4.294 -0.0121  0.6210 -0.3154
    3OL    C114 4943   4.511   4.174   4.159  0.1032 -0.0260  0.1850
    3OL    H14R 4944   4.500   4.265   4.219  2.3334  1.1104 -0.9993
    3OL    H14S 4945   4.518   4.216   4.059  1.5996 -0.8077 -0.0770
    3OL    C115 4946   4.644   4.111   4.203  0.1156 -0.2025 -0.1039
    3OL    H15R 4947   4.666   4.021   4.145 -1.6557 -1.5756  1.2555
    3OL    H15S 4948   4.646   4.089   4.310  1.9669  0.1658 -0.0303
    3OL    C116 4949   4.754   4.216   4.182 -0.0395  0.0105  0.1391
    3OL    H16R 4950   4.713   4.313   4.208  0.2222 -0.2883  1.7755
    3OL    H16S 4951   4.780   4.222   4.076 -1.5006  1.6312 -0.1583
    3OL    C117 4952   4.880   4.192   4.266  0.2639 -0.0277 -0.3188
    3OL    H17R 4953   4.837   4.187   4.367 -1.5167 -0.5806 -1.0778
    3OL    H17S 4954   4.951   4.274   4.253  0.6515 -0.6407 -2.3785
    3OL    C118 4955   4.956   4.062   4.237  0.6162 -0.0022  0.4484
    3OL    H18R 4956   4.921   3.979   4.300  0.0104 -0.3974 -0.3765
    3OL    H18S 4957   5.065   4.066   4.242  0.5723  1.0583  0.6645
    3OL    H18T 4958   4.952   4.032   4.132  1.3706  0.5944  0.2413
    1PA    C116 4959   1.737   3.588   4.394  0.6517  0.5206  0.5806
    1PA    H16R 4960   1.803   3.553   4.474 -0.9743 -3.1617  0.4922
    1PA    H16S 4961   1.756   3.544   4.296 -0.8078 -0.1930  0.6016
    1PA    H16T 4962   1.641   3.543   4.419  0.3188  0.9195  0.0405
    1PA    C115 4963   1.728   3.739   4.366 -0.1611  0.2406 -0.7271
    1PA    H15R 4964   1.822   3.778   4.324  0.2779  0.5254  0.4848
    1PA    H15S 4965   1.650   3.765   4.295  1.9693  1.9436 -2.6225
    1PA    C114 4966   1.709   3.801   4.504  0.3499 -0.5509 -0.2871
    1PA    H14R 4967   1.768   3.753   4.582  0.6366  1.2817  0.6871
    1PA    H14S 4968   1.737   3.907   4.509  1.0371 -0.7821  1.8093
    1PA    C113 4969   1.561   3.802   4.546  0.4457  0.2569  0.0698
    1PA    H13R 4970   1.500   3.826   4.459 -1.5381  1.2888  1.6790
    1PA    H13S 4971   1.534   3.703   4.585  1.4026 -0.3157 -0.6554
    1PA    C112 4972   1.518   3.909   4.647 -0.4952 -0.1093  0.0669
    1PA    H12R 4973   1.541   4.003   4.598 -0.0198  0.4686  1.3609
    1PA    H12S 4974   1.414   3.898   4.680 -0.3884 -0.4875  0.2838
    1PA    C111 4975   1.607   3.926   4.771 -0.0788 -0.0794 -0.2351
    1PA    H11R 4976   1.715   3.925   4.756  0.2546  1.7850  1.6531
    1PA    H11S 4977   1.591   4.020   4.824  2.5846 -0.9448  2.3666
    1PA    C110 4978   1.587   3.808   4.867  0.1691  0.0375 -0.0406
    1PA    H10R 4979   1.606   3.847   4.968 -3.9571  1.3365  0.4145
    1PA    H10S 4980   1.484   3.773   4.872 -0.8331  2.5736 -1.0994
    1PA     C19 4981   1.671   3.683   4.837  0.2808  0.1590 -0.2377
    1PA     H9R 4982   1.654   3.639   4.739  0.5111  0.1058 -0.2532
    1PA     H9S 4983   1.776   3.711   4.834  0.1945  0.6076  0.5827
    1PA     C18 4984   1.666   3.567   4.938 -0.1283  0.1064 -0.3159
    1PA     H8R 4985   1.563   3.548   4.970  0.2635  1.1382  1.7059
    1PA     H8S 4986   1.716   3.479   4.897  0.4845  0.6251 -0.6982
    1PA     C17 4987   1.745   3.597   5.066  0.1175 -0.4323 -0.3405
    1PA     H7R 4988   1.732   3.700   5.098 -0.6418 -0.9994  1.2238
    1PA     H7S 4989   1.698   3.538   5.145 -1.7888  0.3003 -0.8806
    1PA     C16 4990   1.894   3.578   5.033  0.1696 -0.5451 -0.0416
    1PA     H6R 4991   1.912   3.477   4.994  0.1109 -0.6826  0.2834
    1PA     H6S 4992   1.933   3.647   4.958  0.4505 -0.3498  0.2836
    1PA     C15 4993   1.974   3.611   5.160 -0.1380 -0.4545  0.1292
    1PA     H5R 4994   1.938   3.712   5.178 -1.0119 -0.5691 -0.8726
    1PA     H5S 4995   1.945   3.547   5.243 -1.2003  1.1683  1.0618
    1PA     C14 4996   2.124   3.611   5.128 -0.2454  0.4163 -0.4372
    1PA     H4R 4997   2.142   3.667   5.037  0.2570  0.8302 -0.0916
    1PA     H4S 4998   2.181   3.655   5.210  0.3551 -2.5309  0.8859
    1PA     C13 4999   2.174   3.466   5.113 -0.0001  0.5025 -0.4558
    1PA     H3R 5000   2.152   3.413   5.206  3.6118  1.1428  0.9436
    1PA     H3S 5001   2.118   3.422   5.031  1.3499  0.1262 -1.2187
    1PA     C12 5002   2.323   3.453   5.078  0.1477  0.7488  0.0765
    1PA     H2R 5003   2.340   3.346   5.065 -0.2672  0.8107 -1.0828
    1PA     H2S 5004   2.356   3.485   4.979  2.2782  1.3081  0.9142
    2PC     C11 5005   2.410   3.509   5.188  0.1096  0.4871  0.2405
    2PC     O12 5006   2.526   3.547   5.184  0.3585 -0.2908 -0.0276
    2PC     O11 5007   2.356   3.499   5.310 -0.1567 -0.1876  0.0731
    2PC      C1 5008   2.411   3.577   5.418  0.0629 -0.2640  0.0165
    2PC      HR 5009   2.452   3.676   5.396 -1.7855  0.8310  1.1921
    2PC      HS 5010   2.328   3.607   5.482 -1.2437  2.5316 -2.7474
    2PC      C2 5011   2.506   3.490   5.502 -0.1717 -0.3666  0.1763
    2PC      HX 5012   2.465   3.389   5.513 -0.6102 -0.3998 -1.4673
    2PC      C3 5013   2.537   3.543   5.643 -0.1762  0.0253  0.0319
    2PC      HA 5014   2.454   3.521   5.712 -0.0267  1.0856  0.5649
    2PC      HB 5015   2.630   3.498   5.678  0.4145  0.4502 -0.9663
    2PC     O31 5016   2.563   3.684   5.651 -0.0486  0.0113 -0.1578
    2PC     P31 5017   2.605   3.752   5.789  0.1245  0.3388 -0.3688
    2PC     O32 5018   2.511   3.679   5.896  0.4321 -0.2257 -0.4799
    2PC     C31 5019   2.576   3.631   6.015 -0.2879  0.1171  0.0628
    2PC     H1A 5020   2.638   3.542   6.002  0.9032  0.9740 -0.3875
    2PC     H1B 5021   2.634   3.718   6.048 -0.2835 -0.3457  1.3631
    2PC     C32 5022   2.476   3.610   6.130 -0.5290  0.3550 -0.1015
    2PC     H2A 5023   2.533   3.607   6.223 -0.9137  2.9568  0.2725
    2PC     H2B 5024   2.417   3.701   6.142 -1.5471 -0.2053 -0.6974
    2PC     N31 5025   2.392   3.486   6.122 -0.1549  0.1020 -0.1912
    2PC     C33 5026   2.478   3.364   6.131 -0.0914  0.1599 -0.0155
    2PC     H3A 5027   2.528   3.348   6.227 -0.0916 -4.1733 -0.5487
    2PC     H3B 5028   2.407   3.283   6.118 -2.5045  2.5451 -3.0667
    2PC     H3C 5029   2.556   3.369   6.055  1.4345 -0.2477  1.4566
    2PC     C34 5030   2.300   3.482   6.241  0.5067  0.0820  0.3208
    2PC     H4A 5031   2.252   3.580   6.239 -0.9656 -0.6301 -0.8256
    2PC     H4B 5032   2.221   3.407   6.232  0.7813 -0.4333  1.8809
    2PC     H4C 5033   2.366   3.457   6.325  2.1668 -0.9965 -1.2272
    2PC     C35 5034   2.310   3.491   5.997 -0.3714 -0.2309 -0.0636
    2PC     H5A 5035   2.377   3.489   5.911  0.3788 -1.2935  0.5216
    2PC     H5B 5036   2.238   3.573   6.000  1.4461  1.3905  2.5218
    2PC     H5C 5037   2.264   3.392   5.999 -0.0155 -0.3969 -0.1049
    2PC     O33 5038   2.750   3.754   5.822  0.1040 -0.2614 -0.2251
    2PC     O34 5039   2.566   3.894   5.776  0.0768  0.3316 -0.3026
    2PC     O21 5040   2.628   3.472   5.429 -0.1114 -0.2133  0.2393
    2PC     C21 5041   2.664   3.352   5.382  0.0527 -0.2163  0.3700
    2PC     O22 5042   2.588   3.257   5.385 -0.4768  0.1533 -0.7467
    3OL     C12 5043   2.802   3.358   5.321 -0.3290 -0.5465 -0.5416
    3OL     H2R 5044   2.844   3.258   5.305 -0.7889 -0.2509 -4.7308
    3OL     H2S 5045   2.871   3.399   5.394 -1.5943 -0.8193  0.8471
    3OL     C13 5046   2.811   3.414   5.178  0.1051 -0.1216 -0.3498
    3OL     H3R 5047   2.778   3.518   5.173 -1.5449 -0.5902 -0.0053
    3OL     H3S 5048   2.753   3.356   5.106 -0.5695  2.4795 -2.0315
    3OL     C14 5049   2.953   3.415   5.121  0.4713  0.2415  0.5518
    3OL     H4R 5050   2.995   3.319   5.154 -0.5074  0.4363  2.5145
    3OL     H4S 5051   3.012   3.498   5.161 -0.3115  1.8247 -1.4192
    3OL     C15 5052   2.930   3.422   4.969  0.1518  0.1917  0.5963
    3OL     H5R 5053   2.873   3.510   4.940  1.7342  0.3940 -2.2874
    3OL     H5S 5054   2.858   3.349   4.933 -3.1541  4.1004 -1.4714
    3OL     C16 5055   3.057   3.425   4.883  0.0168 -0.6028  0.3592
    3OL     H6R 5056   3.132   3.350   4.907  1.4961  0.2345 -1.3783
    3OL     H6S 5057   3.096   3.526   4.894 -1.1545  0.4218 -3.2611
    3OL     C17 5058   3.010   3.414   4.737  0.1804  0.5413  0.2085
    3OL     H7R 5059   2.954   3.502   4.706  0.7492 -0.4686 -4.3229
    3OL     H7S 5060   2.947   3.325   4.736  0.4559  0.3223  1.1281
    3OL     C18 5061   3.121   3.404   4.632 -0.1640 -0.1949 -0.0960
    3OL     H8R 5062   3.191   3.329   4.669 -0.2132  0.1453  0.7006
    3OL     H8S 5063   3.176   3.499   4.622 -0.1146  0.2770  3.5426
    3OL     C19 5064   3.071   3.377   4.492 -0.5552 -0.2068  0.0446
    3OL     H9R 5065   3.028   3.461   4.438  1.7080  0.1006 -1.4517
    3OL    C110 5066   3.079   3.262   4.428 -0.6231 -0.1310 -0.0994
    3OL    H10R 5067   3.030   3.257   4.331  1.3452 -2.3298 -1.0946
    3OL    C111 5068   3.145   3.133   4.470 -0.0530  0.0595 -0.4009
    3OL    H11R 5069   3.062   3.063   4.478  0.7356 -0.9344 -0.6754
    3OL    H11S 5070   3.190   3.140   4.570  1.4694 -1.9066 -0.8839
    3OL    C112 5071   3.255   3.084   4.375 -0.2183  0.1018 -0.6142
    3OL    H12R 5072   3.279   2.983   4.409 -3.2793 -0.1051  1.2978
    3OL    H12S 5073   3.353   3.133   4.379 -0.2443  0.1338  3.2264
    3OL    C113 5074   3.206   3.078   4.230 -0.7196 -0.3173 -0.4319
    3OL    H13R 5075   3.194   3.180   4.192 -0.6243 -0.1399  0.0183
    3OL    H13S 5076   3.116   3.016   4.234 -0.5167 -0.6070 -0.3096
    3OL    C114 5077   3.315   3.014   4.142 -0.0299  0.2982 -0.0331
    3OL    H14R 5078   3.353   2.925   4.192  0.9108 -0.3602 -1.8098
    3OL    H14S 5079   3.403   3.079   4.132  1.2592 -1.2370  0.8781
    3OL    C115 5080   3.267   2.979   4.000 -0.2082  0.1492  0.0626
    3OL    H15R 5081   3.253   3.075   3.951 -2.2113 -0.5615 -0.8500
    3OL    H15S 5082   3.172   2.926   3.997  0.6398 -1.4164 -2.8651
    3OL    C116 5083   3.380   2.899   3.933 -0.3121 -0.1202  0.2085
    3OL    H16R 5084   3.398   2.808   3.991 -1.5143 -0.3080  0.3052
    3OL    H16S 5085   3.476   2.951   3.942 -0.0657 -0.4667 -0.4208
    3OL    C117 5086   3.350   2.864   3.787 -0.2457  0.2178  0.1131
    3OL    H17R 5087   3.441   2.845   3.731  0.4561  0.7862  1.0274
    3OL    H17S 5088   3.315   2.953   3.734  3.3319  0.8359 -1.4851
    3OL    C118 5089   3.247   2.751   3.773 -0.1911  0.2233 -0.3441
    3OL    H18R 5090   3.272   2.665   3.835 -1.7929 -1.0605 -1.4015
    3OL    H18S 5091   3.235   2.716   3.670  0.8073  0.0086 -0.3937
    3OL    H18T 5092   3.148   2.779   3.811  0.0300  1.7016 -0.7965
    1PA    C116 5093   6.453   0.468   3.545  0.3536 -0.2742 -0.3318
    1PA    H16R 5094   6.459   0.519   3.448 -3.9712 -0.5969 -0.9493
    1PA    H16S 5095   6.363   0.408   3.554 -0.0057 -0.0933 -2.2891
    1PA    H16T 5096   6.541   0.405   3.556  0.8053  0.5932  1.4297
    1PA    C115 5097   6.461   0.570   3.660  0.5146 -0.6864  0.0263
    1PA    H15R 5098   6.538   0.645   3.638  0.0910 -0.1927  0.2097
    1PA    H15S 5099   6.363   0.618   3.666  0.7796  0.3178 -2.2757
    1PA    C114 5100   6.501   0.504   3.792  0.2115 -0.2332  0.3488
    1PA    H14R 5101   6.443   0.413   3.807 -0.9286  0.3651 -0.3640
    1PA    H14S 5102   6.610   0.495   3.797  0.5594  1.6114 -2.0384
    1PA    C113 5103   6.464   0.593   3.911  0.5566  0.4818 -0.0728
    1PA    H13R 5104   6.505   0.695   3.908 -2.6727  2.0958  2.8216
    1PA    H13S 5105   6.355   0.591   3.918  0.5055  1.9365 -0.0105
    1PA    C112 5106   6.531   0.532   4.035 -0.4328 -0.6397 -0.0781
    1PA    H12R 5107   6.557   0.426   4.025 -0.9354 -0.8237  0.4787
    1PA    H12S 5108   6.629   0.581   4.038 -0.8883  0.2583  0.3773
    1PA    C111 5109   6.467   0.565   4.170 -0.0747  0.6296 -0.2101
    1PA    H11R 5110   6.370   0.516   4.157  1.8559 -3.3879 -0.8886
    1PA    H11S 5111   6.510   0.511   4.254  1.3653 -0.1346 -1.4126
    1PA    C110 5112   6.462   0.717   4.192  0.6084  0.6476 -0.1743
    1PA    H10R 5113   6.559   0.755   4.159  0.3841  0.0400 -1.6105
    1PA    H10S 5114   6.388   0.768   4.130 -0.1593  0.9905  0.9863
    1PA     C19 5115   6.452   0.756   4.340 -0.2991  1.2225 -0.3786
    1PA     H9R 5116   6.513   0.699   4.410 -2.3101  1.2941  1.5689
    1PA     H9S 5117   6.484   0.860   4.351  1.6082  0.6142  0.2347
    1PA     C18 5118   6.304   0.750   4.382 -0.1174  0.1700  0.1420
    1PA     H8R 5119   6.246   0.835   4.346 -0.8714 -0.6476 -0.6179
    1PA     H8S 5120   6.259   0.654   4.355  2.4291 -1.1412  0.1856
    1PA     C17 5121   6.298   0.770   4.534 -0.2088  0.1813  0.1367
    1PA     H7R 5122   6.350   0.690   4.589  0.4978  0.1799 -0.5201
    1PA     H7S 5123   6.364   0.853   4.558  1.5758 -1.1399  0.0588
    1PA     C16 5124   6.152   0.792   4.575 -0.3664  0.6215 -0.6418
    1PA     H6R 5125   6.121   0.887   4.532  0.5367  1.6443  0.8677
    1PA     H6S 5126   6.088   0.708   4.547 -0.8172  0.4290  0.8605
    1PA     C15 5127   6.143   0.806   4.728 -0.6489  0.1694 -0.6152
    1PA     H5R 5128   6.226   0.853   4.780 -0.4191 -1.5058  0.6198
    1PA     H5S 5129   6.050   0.859   4.749 -0.7453 -0.2385  0.0055
    1PA     C14 5130   6.122   0.665   4.785  0.5677  0.2126 -0.0219
    1PA     H4R 5131   6.030   0.617   4.749 -0.8216  1.0268  2.2254
    1PA     H4S 5132   6.203   0.602   4.747 -0.4896 -0.8828 -0.5372
    1PA     C13 5133   6.117   0.659   4.938 -0.0763  0.0300 -0.0451
    1PA     H3R 5134   6.192   0.722   4.986  0.4839 -1.4541  1.1144
    1PA     H3S 5135   6.019   0.692   4.972 -0.0796 -1.7626  1.9235
    1PA     C12 5136   6.137   0.518   4.995 -0.3586  0.0397  0.0769
    1PA     H2R 5137   6.063   0.446   4.958 -0.2396  0.0730 -0.2277
    1PA     H2S 5138   6.228   0.469   4.960 -1.1575 -1.7595  0.3630
    2PC     C11 5139   6.148   0.522   5.146  0.6334  0.1640  0.0050
    2PC     O12 5140   6.083   0.601   5.210  0.2393  0.1758 -0.4003
    2PC     O11 5141   6.243   0.445   5.202  0.2940 -0.2844 -0.0242
    2PC      C1 5142   6.262   0.451   5.344 -0.3978  0.7742  0.0377
    2PC      HR 5143   6.360   0.412   5.373 -0.6328 -0.5133 -0.8411
    2PC      HS 5144   6.250   0.557   5.368 -0.8774  1.0475 -1.3116
    2PC      C2 5145   6.151   0.377   5.421 -0.2464  0.0567 -0.4227
    2PC      HX 5146   6.055   0.395   5.372 -0.2599 -0.6826 -0.6798
    2PC      C3 5147   6.136   0.430   5.564 -0.3694 -0.2538 -0.3206
    2PC      HA 5148   6.128   0.539   5.555 -1.5727 -0.1378  1.5638
    2PC      HB 5149   6.038   0.398   5.600 -0.4650  0.8499  0.4804
    2PC     O31 5150   6.249   0.408   5.651 -0.5498 -0.4517 -0.1344
    2PC     P31 5151   6.224   0.345   5.796 -0.0213 -0.2970  0.0262
    2PC     O32 5152   6.174   0.197   5.762  0.1367 -0.3602  0.0690
    2PC     C31 5153   6.132   0.107   5.866 -0.6170 -0.5477 -0.3913
    2PC     H1A 5154   6.132   0.007   5.822  1.1227 -0.2316 -1.1720
    2PC     H1B 5155   6.206   0.104   5.946 -0.1257 -0.5111 -0.8416
    2PC     C32 5156   6.003   0.147   5.939 -0.3053  0.2371 -0.2549
    2PC     H2A 5157   6.022   0.250   5.969  1.1512 -0.3238  0.8853
    2PC     H2B 5158   5.918   0.148   5.870  0.2456  0.6460 -0.9367
    2PC     N31 5159   5.973   0.075   6.067 -0.2048  0.1907 -0.2577
    2PC     C33 5160   6.057   0.129   6.179 -0.3042  0.4521 -0.3083
    2PC     H3A 5161   6.040   0.068   6.268 -0.2159 -1.2614 -1.4153
    2PC     H3B 5162   6.163   0.131   6.152 -0.6341  2.6185 -1.6792
    2PC     H3C 5163   6.028   0.233   6.196  0.1980  0.5642 -0.1329
    2PC     C34 5164   5.833   0.112   6.109 -0.0131 -0.1192  0.7002
    2PC     H4A 5165   5.762   0.060   6.045 -0.2860  1.3520 -0.2545
    2PC     H4B 5166   5.828   0.089   6.215  0.4715  0.6532  0.9029
    2PC     H4C 5167   5.826   0.218   6.083  1.7046 -0.3356 -0.8547
    2PC     C35 5168   5.996  -0.073   6.071  0.3059  0.2732 -0.1438
    2PC     H5A 5169   6.093  -0.082   6.022 -0.1116  2.5381 -1.5161
    2PC     H5B 5170   5.929  -0.118   5.998 -1.9008  4.4871 -1.0238
    2PC     H5C 5171   5.999  -0.113   6.173  0.5992  3.4123  1.1858
    2PC     O33 5172   6.339   0.323   5.887  0.0318  0.0008  0.0327
    2PC     O34 5173   6.121   0.421   5.870  0.5409  0.3871  0.1129
    2PC     O21 5174   6.189   0.239   5.418  0.4151  0.2041  0.5730
    2PC     C21 5175   6.091   0.148   5.434  0.4958  0.0487  0.2061
    2PC     O22 5176   5.976   0.181   5.453  0.3740 -0.8038  0.9987
    3OL     C12 5177   6.141   0.007   5.422 -0.1261 -0.2039  0.5545
    3OL     H2R 5178   6.128  -0.023   5.318  1.0691  1.7569 -0.2043
    3OL     H2S 5179   6.062  -0.031   5.487 -2.7062 -0.6532 -2.6296
    3OL     C13 5180   6.281  -0.017   5.481  0.2943 -0.2432 -0.4433
    3OL     H3R 5181   6.277   0.000   5.589 -1.5308 -1.6887 -0.2296
    3OL     H3S 5182   6.350   0.059   5.444 -2.5610  1.5345 -2.5424
    3OL     C14 5183   6.333  -0.158   5.452  0.6829 -0.2775  0.3844
    3OL     H4R 5184   6.248  -0.220   5.423  2.7186 -2.2472 -1.9155
    3OL     H4S 5185   6.387  -0.191   5.541 -0.4398 -0.9936  0.8167
    3OL     C15 5186   6.421  -0.153   5.326 -0.1545 -0.3761 -0.2078
    3OL     H5R 5187   6.362  -0.088   5.260  0.5387  0.9799  0.4802
    3OL     H5S 5188   6.424  -0.254   5.283  1.8623  0.1884 -1.5333
    3OL     C16 5189   6.566  -0.111   5.350 -0.1237 -0.4431 -0.2729
    3OL     H6R 5190   6.622  -0.187   5.406 -0.1229  0.2568  0.7016
    3OL     H6S 5191   6.563  -0.017   5.406 -1.1469 -0.1998 -0.7273
    3OL     C17 5192   6.648  -0.085   5.223  0.7999 -0.0574  0.3927
    3OL     H7R 5193   6.615  -0.151   5.143  0.7794 -0.3356  0.6332
    3OL     H7S 5194   6.753  -0.109   5.241  0.7285  1.8320  4.4923
    3OL     C18 5195   6.637   0.061   5.174  0.0595 -0.2692 -0.0767
    3OL     H8R 5196   6.670   0.127   5.254 -0.0923  0.4482 -0.5986
    3OL     H8S 5197   6.530   0.085   5.166 -0.5592 -2.7950 -0.5978
    3OL     C19 5198   6.708   0.090   5.045 -0.3706 -0.2759 -0.3192
    3OL     H9R 5199   6.660   0.070   4.950 -2.8242  1.3479  0.4818
    3OL    C110 5200   6.824   0.155   5.050 -0.6879  0.2419  0.4184
    3OL    H10R 5201   6.867   0.175   4.953  0.0783 -2.4277  0.1465
    3OL    C111 5202   6.911   0.184   5.170 -0.0078 -0.2869  0.0564
    3OL    H11R 5203   6.930   0.093   5.227  0.8556 -0.0343  0.1866
    3OL    H11S 5204   6.861   0.260   5.230 -0.8773 -0.4935 -0.3818
    3OL    C112 5205   7.050   0.239   5.135 -0.1571 -0.3726 -0.6850
    3OL    H12R 5206   7.095   0.193   5.047 -0.2321 -0.4581 -0.6792
    3OL    H12S 5207   7.120   0.228   5.218  1.2073  1.1140 -1.5834
    3OL    C113 5208   7.040   0.386   5.092 -0.0489 -0.1820 -0.0627
    3OL    H13R 5209   6.994   0.447   5.170 -3.0110 -2.5729  0.2420
    3OL    H13S 5210   6.968   0.389   5.010 -1.0059  0.1163  0.7651
    3OL    C114 5211   7.168   0.447   5.035 -0.2614  0.0307 -0.3145
    3OL    H14R 5212   7.182   0.413   4.932 -0.9500  0.5217 -0.5770
    3OL    H14S 5213   7.251   0.412   5.097 -0.2407 -0.2518 -0.4954
    3OL    C115 5214   7.167   0.600   5.036  0.2242  0.0343 -0.2588
    3OL    H15R 5215   7.271   0.629   5.019  0.5635  0.2422  1.9366
    3OL    H15S 5216   7.150   0.631   5.139  1.4976 -1.2600  0.3731
    3OL    C116 5217   7.062   0.659   4.940  0.4662  0.4651 -0.2620
    3OL    H16R 5218   6.967   0.619   4.975  1.5242 -3.2747 -1.1723
    3OL    H16S 5219   7.071   0.614   4.841 -0.7101  3.3166 -1.7722
    3OL    C117 5220   7.084   0.810   4.922 -0.4936  0.5569 -0.6807
    3OL    H17R 5221   7.002   0.852   4.863 -0.4716 -0.1973 -1.2781
    3OL    H17S 5222   7.176   0.830   4.867 -0.6418  1.1066 -0.7331
    3OL    C118 5223   7.067   0.882   5.056  0.0748 -0.4958 -0.0324
    3OL    H18R 5224   7.150   0.854   5.122  1.7830  2.8208 -0.5718
    3OL    H18S 5225   6.978   0.847   5.109  1.4820 -2.7504  0.9785
    3OL    H18T 5226   7.073   0.991   5.052 -0.0500 -0.4488  0.7984
    1PA    C116 5227   3.616   4.232   3.870  0.5346  0.3315 -0.6895
    1PA    H16R 5228   3.675   4.324   3.868  1.1575 -0.0894 -1.8794
    1PA    H16S 5229   3.511   4.260   3.858  0.5238  0.3569 -0.5412
    1PA    H16T 5230   3.648   4.173   3.784  3.4365 -0.3493  0.7485
    1PA    C115 5231   3.654   4.153   3.996 -0.0047  0.7544 -0.2519
    1PA    H15R 5232   3.587   4.067   3.993  0.1429  0.6059  0.4754
    1PA    H15S 5233   3.755   4.112   4.000 -0.5118 -0.4686  1.1685
    1PA    C114 5234   3.629   4.230   4.126 -0.5456  0.3557 -0.1168
    1PA    H14R 5235   3.531   4.278   4.122  0.1027  1.6972 -0.3984
    1PA    H14S 5236   3.630   4.158   4.209 -1.3088 -0.1105 -0.4991
    1PA    C113 5237   3.731   4.342   4.150  0.6824 -0.7385 -0.0700
    1PA    H13R 5238   3.833   4.306   4.146  1.2602  0.4174  2.3079
    1PA    H13S 5239   3.716   4.416   4.071  2.9970 -0.5511 -0.3905
    1PA    C112 5240   3.701   4.401   4.289 -0.3999  0.1826 -0.6685
    1PA    H12R 5241   3.595   4.424   4.293 -0.0285  1.7881  1.0389
    1PA    H12S 5242   3.718   4.332   4.372 -0.5026 -0.3303 -1.0711
    1PA    C111 5243   3.779   4.532   4.310  0.1688 -0.3357  0.5599
    1PA    H11R 5244   3.887   4.517   4.317  0.0808 -0.5351  1.7545
    1PA    H11S 5245   3.756   4.597   4.226  1.3270  1.0376  1.2753
    1PA    C110 5246   3.734   4.599   4.440  0.3145  0.0541  0.4105
    1PA    H10R 5247   3.761   4.705   4.440  0.9524 -0.0536 -2.1713
    1PA    H10S 5248   3.625   4.602   4.444  0.2226  4.6098 -0.5544
    1PA     C19 5249   3.779   4.530   4.570 -0.4310 -0.5298  0.3616
    1PA     H9R 5250   3.749   4.590   4.656  2.5376 -0.2525  1.3200
    1PA     H9S 5251   3.721   4.438   4.583 -0.4048 -0.6514 -0.3659
    1PA     C18 5252   3.929   4.500   4.579 -0.3864 -0.6092 -0.5511
    1PA     H8R 5253   3.955   4.437   4.664  0.8302  0.1441 -0.3423
    1PA     H8S 5254   3.962   4.431   4.501  0.5958  0.8825 -1.4927
    1PA     C17 5255   4.009   4.631   4.580 -0.5702 -0.4996  0.0850
    1PA     H7R 5256   4.117   4.617   4.577 -0.5789 -0.8975  1.1370
    1PA     H7S 5257   3.996   4.676   4.482 -0.3795  1.7887  1.0465
    1PA     C16 5258   3.975   4.732   4.691  0.1002 -0.1463 -0.0273
    1PA     H6R 5259   4.024   4.825   4.661 -0.1248  0.5416  1.6340
    1PA     H6S 5260   3.866   4.739   4.699  0.1980  0.7582  0.6350
    1PA     C15 5261   4.023   4.682   4.828  0.0313 -0.4179 -0.1019
    1PA     H5R 5262   3.964   4.594   4.852 -1.9164  1.3793  2.1771
    1PA     H5S 5263   4.124   4.641   4.820 -0.8773 -2.5224 -2.3176
    1PA     C14 5264   4.012   4.785   4.941  0.1464 -0.7711  0.2300
    1PA     H4R 5265   4.053   4.882   4.914  0.1687 -0.8195  0.0881
    1PA     H4S 5266   3.906   4.801   4.959  0.4601 -1.0638  2.7607
    1PA     C13 5267   4.079   4.737   5.071  0.4950 -0.4014  0.1881
    1PA     H3R 5268   4.049   4.793   5.159  0.0511 -2.9474  1.7630
    1PA     H3S 5269   4.034   4.638   5.083 -0.2769 -0.3740 -1.9929
    1PA     C12 5270   4.233   4.732   5.067  0.5201  0.5473 -0.1690
    1PA     H2R 5271   4.278   4.658   5.000 -0.9290 -1.5216  1.0310
    1PA     H2S 5272   4.274   4.828   5.035 -1.3493  1.0465 -1.2635
    2PC     C11 5273   4.291   4.704   5.203 -0.5251  0.8167  0.3460
    2PC     O12 5274   4.229   4.667   5.300 -0.0785 -0.2079  0.2562
    2PC     O11 5275   4.424   4.721   5.201 -0.4367  0.1776  0.4027
    2PC      C1 5276   4.504   4.701   5.318  0.4928 -0.3466 -0.3094
    2PC      HR 5277   4.603   4.748   5.309 -0.0477  0.9480  0.2884
    2PC      HS 5278   4.455   4.739   5.408  2.4133  0.8053  0.3268
    2PC      C2 5279   4.510   4.549   5.338 -0.0687 -0.2973  0.2736
    2PC      HX 5280   4.409   4.508   5.338 -0.6641  1.0905 -0.7015
    2PC      C3 5281   4.579   4.515   5.471  0.1467 -0.6054  0.0845
    2PC      HA 5282   4.524   4.552   5.558 -0.6259  1.5044 -1.2065
    2PC      HB 5283   4.589   4.407   5.481 -2.7728 -0.7239  3.5679
    2PC     O31 5284   4.704   4.586   5.481 -0.1818 -0.0464  0.2655
    2PC     P31 5285   4.786   4.587   5.619 -0.0468 -0.0074  0.1858
    2PC     O32 5286   4.816   4.430   5.635 -0.0637 -0.0114  0.1814
    2PC     C31 5287   4.880   4.356   5.530 -0.2975 -0.0662  0.0774
    2PC     H1A 5288   4.820   4.367   5.439  0.5909  0.6088 -0.4458
    2PC     H1B 5289   4.974   4.404   5.503 -0.7144  0.7444  0.0423
    2PC     C32 5290   4.897   4.208   5.566 -0.2143 -0.0121  0.2577
    2PC     H2A 5291   4.798   4.163   5.576  0.1199 -0.3265  2.6722
    2PC     H2B 5292   4.946   4.162   5.480 -0.6609 -0.9967  0.5114
    2PC     N31 5293   4.969   4.174   5.693 -0.2136 -0.4788  0.1370
    2PC     C33 5294   5.081   4.264   5.737 -0.2075 -0.9621  1.1558
    2PC     H3A 5295   5.141   4.290   5.649  1.0563  0.1157  2.2987
    2PC     H3B 5296   5.036   4.357   5.773  0.4798  0.5908 -1.6943
    2PC     H3C 5297   5.154   4.219   5.804  0.6371 -0.8250  0.3555
    2PC     C34 5298   4.862   4.174   5.798 -0.3705  0.1802 -0.0219
    2PC     H4A 5299   4.916   4.180   5.892  1.0760 -3.0587 -0.5161
    2PC     H4B 5300   4.815   4.273   5.791 -0.1779  0.2413 -0.4822
    2PC     H4C 5301   4.793   4.091   5.782  0.5275 -0.2861 -1.8224
    2PC     C35 5302   5.034   4.039   5.684 -0.2087 -0.5003  0.4666
    2PC     H5A 5303   5.108   4.043   5.604 -1.7593 -1.4928 -1.0830
    2PC     H5B 5304   4.951   3.978   5.648 -0.9237  0.2974  0.7173
    2PC     H5C 5305   5.080   4.007   5.778  0.0133 -2.9014 -0.3964
    2PC     O33 5306   4.906   4.672   5.631 -0.6141  0.8001  0.2565
    2PC     O34 5307   4.700   4.627   5.733  0.2947  0.4415  0.2872
    2PC     O21 5308   4.593   4.492   5.235  0.3170  0.3563  0.2145
    2PC     C21 5309   4.538   4.401   5.152 -0.1302  0.4825  0.3708
    2PC     O22 5310   4.421   4.369   5.155  0.1555 -0.6269  0.0947
    3OL     C12 5311   4.644   4.347   5.059 -0.0286  0.3068  0.5863
    3OL     H2R 5312   4.683   4.428   4.998 -2.2055 -0.2892 -1.7744
    3OL     H2S 5313   4.594   4.281   4.987  0.8605  0.2739 -0.0092
    3OL     C13 5314   4.756   4.276   5.136  0.4099 -0.5436 -0.7946
    3OL     H3R 5315   4.713   4.196   5.196 -3.1611  0.8741 -1.2227
    3OL     H3S 5316   4.808   4.351   5.197  2.5100 -2.4294 -0.1134
    3OL     C14 5317   4.858   4.209   5.043  0.2833 -0.3547 -1.0719
    3OL     H4R 5318   4.803   4.141   4.977 -0.4239 -2.3142  1.3668
    3OL     H4S 5319   4.930   4.148   5.098  3.1667  1.9992 -1.9935
    3OL     C15 5320   4.954   4.310   4.979  0.3857 -0.2374 -0.7347
    3OL     H5R 5321   5.002   4.368   5.058  1.6737 -0.9342 -0.9785
    3OL     H5S 5322   4.896   4.382   4.922 -0.4480 -0.3694 -0.0706
    3OL     C16 5323   5.064   4.246   4.894  0.1757 -0.4180 -0.8713
    3OL     H6R 5324   5.015   4.178   4.824 -0.7351 -1.6224  0.8551
    3OL     H6S 5325   5.129   4.190   4.962 -0.4732 -1.1451 -0.8364
    3OL     C17 5326   5.145   4.356   4.824 -0.1257 -0.1995 -0.8737
    3OL     H7R 5327   5.167   4.440   4.891 -1.0890 -0.6161 -0.0119
    3OL     H7S 5328   5.075   4.398   4.751 -2.2187 -0.0025  1.1326
    3OL     C18 5329   5.260   4.305   4.736  0.3707  0.0056 -0.3448
    3OL     H8R 5330   5.313   4.242   4.808 -2.3586 -2.2218 -0.0993
    3OL     H8S 5331   5.309   4.392   4.692 -1.0445  1.0300  0.0635
    3OL     C19 5332   5.217   4.204   4.633 -0.2714 -0.0195 -0.0540
    3OL     H9R 5333   5.222   4.099   4.660 -1.9688  0.3027  1.7787
    3OL    C110 5334   5.201   4.242   4.507 -0.8067  0.5429  0.1743
    3OL    H10R 5335   5.176   4.164   4.435 -1.1393 -1.3958  2.2621
    3OL    C111 5336   5.194   4.379   4.445 -0.2856  0.7100  0.4725
    3OL    H11R 5337   5.192   4.462   4.516  0.7236  1.6180 -0.5306
    3OL    H11S 5338   5.097   4.395   4.396 -0.8540  1.0006  1.6512
    3OL    C112 5339   5.309   4.410   4.348 -0.3485  0.1496  0.2172
    3OL    H12R 5340   5.313   4.326   4.278  0.1559 -1.1790  1.7908
    3OL    H12S 5341   5.406   4.415   4.396  0.4572 -0.2232 -1.3158
    3OL    C113 5342   5.287   4.531   4.256 -0.3384 -0.2345 -0.2976
    3OL    H13R 5343   5.228   4.610   4.304  0.5078 -0.2587  0.8242
    3OL    H13S 5344   5.227   4.510   4.167  0.8548 -1.4447 -0.8563
    3OL    C114 5345   5.421   4.596   4.222 -0.0877 -0.5134  0.1432
    3OL    H14R 5346   5.484   4.623   4.308  1.7432 -2.2006 -0.5951
    3OL    H14S 5347   5.397   4.691   4.174  0.9210 -0.1001  0.4307
    3OL    C115 5348   5.497   4.507   4.123  0.5026 -0.1417  0.2536
    3OL    H15R 5349   5.428   4.475   4.044  0.3785  1.5009 -0.3301
    3OL    H15S 5350   5.534   4.415   4.168  2.4206 -0.2222 -1.3403
    3OL    C116 5351   5.615   4.580   4.058 -0.0568  0.4433 -0.1148
    3OL    H16R 5352   5.694   4.511   4.030  0.3874  1.0296 -0.3337
    3OL    H16S 5353   5.658   4.648   4.132 -0.0427  0.2043  0.0984
    3OL    C117 5354   5.569   4.662   3.937  0.1593 -0.1868 -0.6278
    3OL    H17R 5355   5.496   4.736   3.971  0.4267 -0.3024  0.2246
    3OL    H17S 5356   5.536   4.599   3.854  2.7708 -0.6169 -1.4140
    3OL    C118 5357   5.685   4.746   3.882 -0.3404  0.2033 -1.0952
    3OL    H18R 5358   5.775   4.686   3.894  0.3022  0.6549 -3.1320
    3OL    H18S 5359   5.684   4.842   3.934 -3.4766 -0.3832  0.1776
    3OL    H18T 5360   5.674   4.762   3.774 -0.6776 -0.2616 -1.1328
    1PA    C116 5361   3.225   0.482   3.100 -0.1672  0.2574 -0.0723
    1PA    H16R 5362   3.186   0.412   3.026  1.3806 -0.9365  0.1870
    1PA    H16S 5363   3.250   0.582   3.063 -0.1184  0.8037  1.3772
    1PA    H16T 5364   3.156   0.495   3.184  1.1438  0.2029  1.0545
    1PA    C115 5365   3.346   0.406   3.157 -0.5439 -0.4652 -0.2267
    1PA    H15R 5366   3.425   0.418   3.083 -0.0129  0.8850  0.5218
    1PA    H15S 5367   3.380   0.451   3.250 -0.4902 -0.5356 -0.2124
    1PA    C114 5368   3.305   0.259   3.174  0.1255 -0.6460 -0.1532
    1PA    H14R 5369   3.236   0.232   3.094 -0.5292 -0.1728  0.2360
    1PA    H14S 5370   3.403   0.211   3.170  1.3601  1.7100 -0.3567
    1PA    C113 5371   3.247   0.226   3.312 -0.0466 -0.0215 -0.0700
    1PA    H13R 5372   3.187   0.311   3.342  0.7710  1.8732 -3.3512
    1PA    H13S 5373   3.177   0.142   3.303  1.1577 -0.9413 -1.3772
    1PA    C112 5374   3.354   0.176   3.411  0.0254  0.0745 -0.0993
    1PA    H12R 5375   3.412   0.100   3.360  0.8502  0.0449  0.8648
    1PA    H12S 5376   3.410   0.268   3.432  0.8775 -0.5450  0.3968
    1PA    C111 5377   3.295   0.116   3.540  0.3427 -0.1491 -0.0595
    1PA    H11R 5378   3.234   0.194   3.587 -0.0420 -1.6557  2.1049
    1PA    H11S 5379   3.227   0.038   3.506 -1.7053  2.6124 -2.8704
    1PA    C110 5380   3.410   0.067   3.630  0.1860  0.1092  0.2816
    1PA    H10R 5381   3.471  -0.002   3.572  1.2539  0.2457  1.2009
    1PA    H10S 5382   3.466   0.154   3.666  1.0996 -1.1826  2.1642
    1PA     C19 5383   3.360  -0.011   3.753 -0.3803 -0.5963 -0.3867
    1PA     H9R 5384   3.284   0.058   3.790 -0.4148  0.3495 -2.0895
    1PA     H9S 5385   3.297  -0.097   3.727 -1.1800 -0.1901  0.1424
    1PA     C18 5386   3.476  -0.031   3.851 -0.2382  0.2816 -0.3654
    1PA     H8R 5387   3.562  -0.071   3.797  1.8806  1.0779  2.1712
    1PA     H8S 5388   3.509   0.066   3.889 -0.8415  0.4349 -0.2141
    1PA     C17 5389   3.429  -0.114   3.971  0.6033  0.1829 -0.0990
    1PA     H7R 5390   3.344  -0.065   4.018  0.5591  1.2639 -1.2591
    1PA     H7S 5391   3.402  -0.210   3.926  3.5704 -0.7451 -0.0998
    1PA     C16 5392   3.539  -0.135   4.076  0.3446 -0.0159  0.1328
    1PA     H6R 5393   3.522  -0.230   4.129  2.2529 -0.8609 -0.6797
    1PA     H6S 5394   3.634  -0.155   4.027  0.7126 -0.2768  0.9232
    1PA     C15 5395   3.566  -0.017   4.170 -0.0175 -0.0105  0.2334
    1PA     H5R 5396   3.665  -0.036   4.212  0.6274  0.2201 -1.1227
    1PA     H5S 5397   3.580   0.074   4.111  1.5104  0.1534  0.7907
    1PA     C14 5398   3.460   0.008   4.278  0.1076  0.2724  0.2921
    1PA     H4R 5399   3.446   0.115   4.297 -1.0875  0.5637 -1.8820
    1PA     H4S 5400   3.366  -0.020   4.229  0.1992  2.5853 -1.3947
    1PA     C13 5401   3.479  -0.062   4.412 -0.3239 -0.5441 -0.0674
    1PA     H3R 5402   3.487  -0.170   4.398  1.6457 -0.7513  1.8949
    1PA     H3S 5403   3.579  -0.036   4.448  1.2719 -1.2683 -3.5262
    1PA     C12 5404   3.361  -0.028   4.504  0.1837  0.3982  0.2470
    1PA     H2R 5405   3.387   0.071   4.541 -2.2488  0.2156  2.7991
    1PA     H2S 5406   3.263  -0.031   4.455 -1.0666  0.4807  2.5771
    2PC     C11 5407   3.343  -0.132   4.611 -0.3438 -0.2264 -0.4388
    2PC     O12 5408   3.232  -0.158   4.653 -0.1425  0.5031  0.5576
    2PC     O11 5409   3.458  -0.181   4.659 -0.2859  0.2360 -0.1051
    2PC      C1 5410   3.452  -0.286   4.758 -0.1427 -0.0176 -0.3633
    2PC      HR 5411   3.548  -0.290   4.810 -0.2799 -1.1276 -0.1849
    2PC      HS 5412   3.371  -0.264   4.829 -0.3392  1.5989 -1.0403
    2PC      C2 5413   3.418  -0.417   4.686 -0.2846  0.0046 -0.3365
    2PC      HX 5414   3.346  -0.396   4.606 -1.4594 -0.0218  0.6717
    2PC      C3 5415   3.360  -0.523   4.781 -0.0807 -0.5171 -0.7882
    2PC      HA 5416   3.255  -0.496   4.792 -0.6479 -2.5955 -0.7685
    2PC      HB 5417   3.352  -0.621   4.735  1.3787 -0.4675 -1.2038
    2PC     O31 5418   3.427  -0.523   4.909 -1.0528 -0.4414 -0.2667
    2PC     P31 5419   3.363  -0.604   5.031 -0.0475 -0.5798  0.1765
    2PC     O32 5420   3.377  -0.511   5.162 -0.9387 -0.5735  0.2750
    2PC     C31 5421   3.388  -0.368   5.154  0.6303 -0.6796  0.0834
    2PC     H1A 5422   3.480  -0.338   5.104 -0.6998  0.0612 -2.0832
    2PC     H1B 5423   3.307  -0.323   5.095  1.4003  2.7679  1.4613
    2PC     C32 5424   3.392  -0.305   5.294  0.1125 -0.1304 -0.1438
    2PC     H2A 5425   3.480  -0.344   5.345  0.5874 -0.3636 -1.1160
    2PC     H2B 5426   3.414  -0.199   5.283  0.3870 -0.0892  0.7159
    2PC     N31 5427   3.269  -0.322   5.379 -0.0464  0.1821 -0.3106
    2PC     C33 5428   3.227  -0.463   5.405  0.4737  0.1004  0.0992
    2PC     H3A 5429   3.144  -0.476   5.474  0.3108 -2.4199 -0.4527
    2PC     H3B 5430   3.198  -0.510   5.311 -0.0096 -0.3495  0.4687
    2PC     H3C 5431   3.306  -0.514   5.460 -1.0544 -0.6677  1.6611
    2PC     C34 5432   3.298  -0.258   5.512 -0.0010 -0.4159 -0.0323
    2PC     H4A 5433   3.392  -0.308   5.533 -0.6136 -1.4927  0.2674
    2PC     H4B 5434   3.298  -0.151   5.495 -0.5743 -0.2139  1.1875
    2PC     H4C 5435   3.222  -0.290   5.583  1.1615  0.0258  1.4470
    2PC     C35 5436   3.149  -0.256   5.319 -0.4488 -0.1510  0.1248
    2PC     H5A 5437   3.113  -0.313   5.233  2.1627 -0.1770 -1.0450
    2PC     H5B 5438   3.180  -0.160   5.278  0.6492  0.1596  1.6146
    2PC     H5C 5439   3.078  -0.239   5.400  0.2916 -0.6511  0.8891
    2PC     O33 5440   3.218  -0.618   5.007  0.0508 -0.1648 -0.6869
    2PC     O34 5441   3.415  -0.739   5.060  0.7040 -0.3376 -0.0222
    2PC     O21 5442   3.535  -0.472   4.623 -0.2428  0.2383 -0.4651
    2PC     C21 5443   3.663  -0.468   4.663 -0.4723  0.3506  0.2797
    2PC     O22 5444   3.697  -0.448   4.778  0.1718  0.1104  0.1357
    3OL     C12 5445   3.767  -0.503   4.559 -0.6915  0.2045  0.1064
    3OL     H2R 5446   3.761  -0.611   4.549  1.7745 -0.0376  0.6300
    3OL     H2S 5447   3.863  -0.472   4.601  1.4044 -2.3013 -2.4501
    3OL     C13 5448   3.740  -0.443   4.421 -0.1584  0.2151  0.0048
    3OL     H3R 5449   3.746  -0.334   4.428 -0.4789  0.3471 -1.3728
    3OL     H3S 5450   3.643  -0.488   4.400  0.6057 -2.4290  1.6681
    3OL     C14 5451   3.842  -0.498   4.320  0.6058  0.2439  0.7537
    3OL     H4R 5452   3.834  -0.607   4.314 -0.1095  0.3112  0.4086
    3OL     H4S 5453   3.946  -0.474   4.345  0.4481  0.6973  0.9804
    3OL     C15 5454   3.804  -0.437   4.184  0.6820 -0.0009  0.6211
    3OL     H5R 5455   3.818  -0.329   4.196 -2.1931  0.5360 -0.2432
    3OL     H5S 5456   3.701  -0.453   4.154  0.6773  1.7787 -0.4294
    3OL     C16 5457   3.905  -0.481   4.078  0.1193  0.4501 -0.1075
    3OL     H6R 5458   3.922  -0.589   4.077 -1.5592  0.1534 -1.7192
    3OL     H6S 5459   4.000  -0.442   4.116 -0.4160  0.5069  1.2253
    3OL     C17 5460   3.873  -0.432   3.936 -0.0460 -0.5046 -0.4106
    3OL     H7R 5461   3.950  -0.469   3.868  0.0624  0.9885 -1.1479
    3OL     H7S 5462   3.872  -0.323   3.937  0.9755 -0.4898 -0.5364
    3OL     C18 5463   3.735  -0.479   3.886 -0.1403 -0.0101 -0.6296
    3OL     H8R 5464   3.727  -0.445   3.783 -1.1624 -1.5612 -1.0954
    3OL     H8S 5465   3.659  -0.435   3.950  1.8242  1.1395  1.0610
    3OL     C19 5466   3.719  -0.629   3.876  0.0923 -0.0882  0.1060
    3OL     H9R 5467   3.684  -0.681   3.965  0.9997  0.7901  1.0048
    3OL    C110 5468   3.731  -0.699   3.765  0.1402  0.2158 -0.0807
    3OL    H10R 5469   3.711  -0.805   3.774 -1.0226  0.5982  2.9763
    3OL    C111 5470   3.780  -0.649   3.631  0.3067 -0.2730 -0.2056
    3OL    H11R 5471   3.869  -0.705   3.604  0.3656  0.2185 -1.0595
    3OL    H11S 5472   3.793  -0.540   3.633  0.9324 -0.3461 -0.1470
    3OL    C112 5473   3.682  -0.693   3.522 -0.1253 -0.5448  0.2887
    3OL    H12R 5474   3.605  -0.616   3.517 -0.1497 -0.6537 -2.0764
    3OL    H12S 5475   3.634  -0.790   3.537  0.0319 -0.7358 -0.3973
    3OL    C113 5476   3.750  -0.720   3.387 -0.4847 -0.0069 -0.0016
    3OL    H13R 5477   3.835  -0.785   3.407 -1.3491 -1.3265 -0.5487
    3OL    H13S 5478   3.781  -0.626   3.339  0.3697 -0.6002 -0.6331
    3OL    C114 5479   3.655  -0.787   3.287  0.0929 -0.1182 -0.4808
    3OL    H14R 5480   3.588  -0.709   3.250  2.0761  2.4188  0.8666
    3OL    H14S 5481   3.602  -0.870   3.334  0.7818  0.2399  0.9609
    3OL    C115 5482   3.736  -0.833   3.165  0.2154 -0.5589 -0.2351
    3OL    H15R 5483   3.826  -0.883   3.200 -0.6244 -2.2191 -0.3781
    3OL    H15S 5484   3.761  -0.741   3.111 -0.7828  0.3653  0.8232
    3OL    C116 5485   3.638  -0.908   3.073 -0.4137  0.6561 -0.5877
    3OL    H16R 5486   3.554  -0.843   3.052  0.3473  1.9444  0.2322
    3OL    H16S 5487   3.612  -1.000   3.126  2.4073  1.3997  2.4261
    3OL    C117 5488   3.724  -0.952   2.953  0.3867  0.4552  0.0469
    3OL    H17R 5489   3.820  -0.997   2.978  1.0010  3.1417  3.1747
    3OL    H17S 5490   3.749  -0.860   2.901  1.2007 -1.0991 -2.4784
    3OL    C118 5491   3.645  -1.041   2.856  0.6338  0.8768 -0.5434
    3OL    H18R 5492   3.555  -0.992   2.817  0.7357  1.3606 -0.1869
    3OL    H18S 5493   3.612  -1.133   2.904  0.2199  0.7857 -0.9867
    3OL    H18T 5494   3.713  -1.061   2.773 -1.0677 -0.0483 -1.7792
    1PA    C116 5495   2.270   1.027   4.162  0.1775 -0.2142 -0.4200
    1PA    H16R 5496   2.210   1.068   4.243  0.7254 -2.2735  1.0970
    1PA    H16S 5497   2.226   1.057   4.067  1.5370  0.9403 -0.7172
    1PA    H16T 5498   2.369   1.074   4.163 -0.2826  0.7683  0.1845
    1PA    C115 5499   2.299   0.877   4.177  0.1850 -0.1087  0.6592
    1PA    H15R 5500   2.361   0.855   4.091  1.5565  1.7500  1.1027
    1PA    H15S 5501   2.356   0.851   4.267  1.9024 -2.9163 -1.0949
    1PA    C114 5502   2.179   0.782   4.163  0.7254 -0.7148  0.1152
    1PA    H14R 5503   2.107   0.829   4.230 -0.0679  2.3977 -2.6510
    1PA    H14S 5504   2.129   0.787   4.066  1.2997  0.1966 -0.1550
    1PA    C113 5505   2.205   0.637   4.204 -0.1490 -0.8984  0.0373
    1PA    H13R 5506   2.267   0.643   4.294 -0.4389 -0.1491  0.1940
    1PA    H13S 5507   2.109   0.594   4.233 -0.9402  0.4366 -0.5202
    1PA    C112 5508   2.276   0.553   4.097  0.0988 -0.3821 -0.2068
    1PA    H12R 5509   2.362   0.610   4.061  0.5235  0.2910  1.7820
    1PA    H12S 5510   2.325   0.470   4.149  1.4509 -0.3570 -1.3691
    1PA    C111 5511   2.188   0.500   3.983 -0.3582  0.2762 -0.1628
    1PA    H11R 5512   2.149   0.584   3.925 -0.7108 -0.2704 -0.7261
    1PA    H11S 5513   2.249   0.445   3.911  0.8980  1.8009 -0.3032
    1PA    C110 5514   2.071   0.412   4.030  0.2682 -0.4599  0.0473
    1PA    H10R 5515   1.987   0.474   4.065  0.2363 -0.4494 -0.0465
    1PA    H10S 5516   2.028   0.359   3.945  0.5105  0.0047 -0.3684
    1PA     C19 5517   2.113   0.303   4.129  0.2335  0.0111  0.5892
    1PA     H9R 5518   2.184   0.241   4.073  0.5057 -0.3195  1.2855
    1PA     H9S 5519   2.169   0.347   4.212  1.3289  0.0511 -0.1405
    1PA     C18 5520   1.999   0.213   4.179 -0.2186  0.3307  0.1389
    1PA     H8R 5521   1.906   0.266   4.200 -0.6418  0.5683 -2.0248
    1PA     H8S 5522   1.981   0.134   4.106  2.2235  0.4877 -0.7293
    1PA     C17 5523   2.040   0.142   4.308 -0.1685  0.0029 -0.0569
    1PA     H7R 5524   2.062   0.211   4.390  1.3225 -0.7388  0.2108
    1PA     H7S 5525   1.953   0.082   4.335  1.2626 -2.0141  0.3712
    1PA     C16 5526   2.157   0.044   4.290  0.0508  0.1946  0.2947
    1PA     H6R 5527   2.148  -0.013   4.197 -0.3881  1.0239 -0.1872
    1PA     H6S 5528   2.245   0.108   4.289  0.1051  0.1190  0.2582
    1PA     C15 5529   2.182  -0.040   4.415  0.0018 -0.4142 -0.0988
    1PA     H5R 5530   2.194   0.018   4.507  0.0551 -0.4242 -0.0990
    1PA     H5S 5531   2.092  -0.101   4.428 -1.0779  1.1115 -0.1339
    1PA     C14 5532   2.309  -0.124   4.394  0.4246  0.2384 -0.1770
    1PA     H4R 5533   2.314  -0.171   4.296  2.6408 -4.0188  1.6940
    1PA     H4S 5534   2.390  -0.051   4.404  1.0725 -0.5519  0.5559
    1PA     C13 5535   2.333  -0.230   4.503 -0.3816  0.4564  0.2204
    1PA     H3R 5536   2.439  -0.256   4.500 -0.5923 -0.3317 -0.6975
    1PA     H3S 5537   2.302  -0.199   4.603  0.2222  0.8337  0.2986
    1PA     C12 5538   2.249  -0.356   4.480 -0.0414  0.2713 -0.0089
    1PA     H2R 5539   2.145  -0.325   4.478 -0.0165  0.3399 -1.4484
    1PA     H2S 5540   2.273  -0.400   4.383 -0.7506 -0.5772  0.1899
    2PC     C11 5541   2.273  -0.457   4.590  0.3060 -0.0549 -0.3790
    2PC     O12 5542   2.382  -0.510   4.601  0.0498 -0.5871 -0.3532
    2PC     O11 5543   2.173  -0.465   4.680  0.4835 -0.0892 -0.1833
    2PC      C1 5544   2.173  -0.556   4.791 -0.2758  0.3551  0.1876
    2PC      HR 5545   2.248  -0.635   4.778  0.9960  1.1770  2.0862
    2PC      HS 5546   2.206  -0.503   4.880  0.4240  0.6485 -0.2422
    2PC      C2 5547   2.036  -0.622   4.812 -0.0564 -0.2484 -0.2534
    2PC      HX 5548   1.966  -0.539   4.810  0.0741 -0.1344 -2.2469
    2PC      C3 5549   2.025  -0.697   4.945  0.2184  0.0294 -0.0741
    2PC      HA 5550   2.097  -0.779   4.944 -2.3387 -2.3775 -1.1282
    2PC      HB 5551   2.050  -0.628   5.027  0.3284 -1.4023  1.1436
    2PC     O31 5552   1.891  -0.748   4.957  0.2764 -0.1247 -0.0795
    2PC     P31 5553   1.833  -0.790   5.100  0.1954 -0.1726 -0.1262
    2PC     O32 5554   1.741  -0.917   5.065 -0.0176  0.0439 -0.3543
    2PC     C31 5555   1.620  -0.887   4.994 -0.0416  0.0076 -0.3284
    2PC     H1A 5556   1.571  -0.799   5.035  0.2791 -0.0782  0.2594
    2PC     H1B 5557   1.650  -0.865   4.892  0.3724 -1.3892 -0.5371
    2PC     C32 5558   1.529  -1.011   4.991 -0.1105  0.0654 -0.6337
    2PC     H2A 5559   1.440  -1.000   4.929  0.1011  1.8282 -0.6661
    2PC     H2B 5560   1.594  -1.077   4.934 -0.4554 -1.0277  0.2085
    2PC     N31 5561   1.488  -1.085   5.115  0.3057 -0.0895 -0.5864
    2PC     C33 5562   1.468  -0.997   5.234  1.0447 -0.3089 -0.2955
    2PC     H3A 5563   1.469  -1.049   5.330 -2.0013 -1.1772 -0.6358
    2PC     H3B 5564   1.543  -0.918   5.230  2.0295 -1.2258 -0.2582
    2PC     H3C 5565   1.372  -0.947   5.220  0.1259 -1.8155  0.3594
    2PC     C34 5566   1.366  -1.166   5.083  0.3441 -0.3713 -0.0213
    2PC     H4A 5567   1.289  -1.101   5.040 -0.4977 -1.0573  0.4071
    2PC     H4B 5568   1.398  -1.243   5.013  0.9686 -1.0910  1.0285
    2PC     H4C 5569   1.314  -1.215   5.167 -1.0416  0.1523 -0.5450
    2PC     C35 5570   1.589  -1.182   5.167  0.5124  0.3975 -0.0725
    2PC     H5A 5571   1.546  -1.228   5.256 -0.5881 -1.6970 -1.5944
    2PC     H5B 5572   1.674  -1.129   5.211 -0.1831  1.1351  0.4104
    2PC     H5C 5573   1.613  -1.258   5.091  0.3942 -0.1831  0.4653
    2PC     O33 5574   1.931  -0.829   5.204  0.2378 -0.0377 -0.1157
    2PC     O34 5575   1.749  -0.692   5.173  0.3030 -0.0595 -0.1538
    2PC     O21 5576   2.018  -0.707   4.696 -0.1250 -0.2883 -0.2138
    2PC     C21 5577   1.898  -0.701   4.637 -0.1984 -0.6496 -0.1044
    2PC     O22 5578   1.801  -0.642   4.680  0.3635 -0.2416  0.6145
    3OL     C12 5579   1.892  -0.780   4.509  0.1173  0.2255 -0.6723
    3OL     H2R 5580   1.802  -0.747   4.457  0.4518  2.4228  0.0618
    3OL     H2S 5581   1.873  -0.886   4.531  2.1824 -0.0010  0.2173
    3OL     C13 5582   2.017  -0.766   4.421  0.2814  0.0416 -0.4693
    3OL     H3R 5583   1.989  -0.815   4.328 -0.8099  2.4052 -1.4656
    3OL     H3S 5584   2.107  -0.809   4.465  0.3172  0.6100  0.0253
    3OL     C14 5585   2.034  -0.619   4.381  0.2754  0.0788 -0.3371
    3OL     H4R 5586   2.131  -0.601   4.335  0.0482 -0.4526 -1.0359
    3OL     H4S 5587   2.027  -0.558   4.471 -1.5060 -0.2563 -0.2033
    3OL     C15 5588   1.926  -0.566   4.285  0.0106  0.0910 -0.0330
    3OL     H5R 5589   1.833  -0.566   4.343  0.1106 -2.8065  0.2828
    3OL     H5S 5590   1.913  -0.641   4.206 -0.1223 -1.2813  1.2351
    3OL     C16 5591   1.979  -0.431   4.235  0.3662 -0.1168 -0.2245
    3OL     H6R 5592   2.083  -0.446   4.206  0.9048 -0.7909  1.8827
    3OL     H6S 5593   1.987  -0.369   4.325 -0.1226 -1.0714  0.5028
    3OL     C17 5594   1.891  -0.370   4.125 -0.1784  0.1548  0.3545
    3OL     H7R 5595   1.799  -0.349   4.180  0.2521 -1.5863  1.8495
    3OL     H7S 5596   1.868  -0.444   4.048  2.2650 -0.6616  0.3155
    3OL     C18 5597   1.957  -0.241   4.075 -0.0185  0.1622  0.5841
    3OL     H8R 5598   1.968  -0.164   4.152 -0.1769  0.3752  0.3940
    3OL     H8S 5599   1.897  -0.193   3.998  3.2188  1.5563 -1.2880
    3OL     C19 5600   2.096  -0.256   4.019 -0.4830 -0.3477 -0.4594
    3OL     H9R 5601   2.162  -0.309   4.087 -0.3390  1.4263  0.8717
    3OL    C110 5602   2.144  -0.214   3.903  0.3378 -0.2114 -0.0782
    3OL    H10R 5603   2.249  -0.215   3.875  0.3016  3.0110 -0.6670
    3OL    C111 5604   2.063  -0.129   3.809 -0.2626 -0.3138  0.3452
    3OL    H11R 5605   2.030  -0.040   3.864  1.1845  0.9289 -0.7093
    3OL    H11S 5606   1.980  -0.186   3.767  0.0941 -0.2019 -0.5164
    3OL    C112 5607   2.146  -0.077   3.691 -0.4990  0.1249  0.3668
    3OL    H12R 5608   2.146  -0.161   3.620 -3.4820  1.3638 -1.3117
    3OL    H12S 5609   2.247  -0.054   3.725  0.6447 -1.9340 -1.3481
    3OL    C113 5610   2.084   0.043   3.618 -0.4775 -0.1469 -0.1031
    3OL    H13R 5611   2.033   0.101   3.694  0.6406 -0.5470  0.9868
    3OL    H13S 5612   2.007   0.007   3.549 -1.5385 -1.1044  1.5026
    3OL    C114 5613   2.186   0.132   3.546  0.0629 -0.5812  0.1168
    3OL    H14R 5614   2.145   0.208   3.479  1.7969  0.7903  0.5196
    3OL    H14S 5615   2.247   0.072   3.479 -0.4289  1.1133 -1.9538
    3OL    C115 5616   2.279   0.213   3.639 -0.3474 -0.0298  0.0531
    3OL    H15R 5617   2.342   0.155   3.705 -0.7458 -0.8421 -0.2607
    3OL    H15S 5618   2.214   0.273   3.703 -2.1728 -0.6534 -1.1215
    3OL    C116 5619   2.358   0.309   3.549  0.0119 -0.3498  0.0282
    3OL    H16R 5620   2.286   0.374   3.501 -0.3220 -1.5912 -1.2316
    3OL    H16S 5621   2.412   0.255   3.471  1.5890 -2.0644  2.1677
    3OL    C117 5622   2.457   0.382   3.641  0.3944 -0.0622 -0.6019
    3OL    H17R 5623   2.530   0.314   3.684  1.1350  0.9891 -0.1450
    3OL    H17S 5624   2.401   0.412   3.730 -0.5994 -2.6354 -0.2636
    3OL    C118 5625   2.536   0.491   3.567  0.8020  0.3624  0.4422
    3OL    H18R 5626   2.591   0.562   3.629  1.5729 -1.1730  1.5951
    3OL    H18S 5627   2.463   0.552   3.514 -0.8945 -1.7112  0.2467
    3OL    H18T 5628   2.604   0.452   3.492 -1.0874  0.9722 -1.7108
    1PA    C116 5629   1.932   3.135   3.764 -0.5278 -0.8350  0.0969
    1PA    H16R 5630   1.886   3.060   3.698 -1.3048 -1.0198  0.8356
    1PA    H16S 5631   2.007   3.194   3.711 -1.2792  0.6992  0.6726
    1PA    H16T 5632   1.858   3.214   3.781 -1.6199 -1.2554 -2.1946
    1PA    C115 5633   1.993   3.081   3.894 -0.2154 -0.6398  0.0328
    1PA    H15R 5634   2.027   3.162   3.958 -0.0926 -0.8781  0.2698
    1PA    H15S 5635   1.915   3.022   3.943 -1.6019  1.4833  0.5117
    1PA    C114 5636   2.123   3.009   3.858  0.1015 -0.1199  0.1242
    1PA    H14R 5637   2.088   2.922   3.802  0.5518 -0.6296  0.6230
    1PA    H14S 5638   2.187   3.063   3.788  1.4901 -1.0934  0.5922
    1PA    C113 5639   2.199   2.956   3.981  0.2373 -0.5210 -0.1297
    1PA    H13R 5640   2.126   2.922   4.054 -0.4184 -0.6234 -0.8198
    1PA    H13S 5641   2.259   2.872   3.947  0.7651  0.1021 -0.7680
    1PA    C112 5642   2.288   3.066   4.039 -0.3892 -0.2198  0.2705
    1PA    H12R 5643   2.350   3.099   3.955 -0.6898 -3.1124 -1.1862
    1PA    H12S 5644   2.239   3.155   4.079  0.3989 -0.1231  1.0676
    1PA    C111 5645   2.376   3.006   4.150 -0.0637 -0.1252  0.0676
    1PA    H11R 5646   2.312   2.975   4.233 -1.1696 -2.1830 -1.4661
    1PA    H11S 5647   2.424   2.914   4.115  0.1164 -0.3352  0.8353
    1PA    C110 5648   2.485   3.095   4.210 -0.3044 -0.1116  0.4895
    1PA    H10R 5649   2.557   3.131   4.136  0.3575  1.4267  1.8053
    1PA    H10S 5650   2.429   3.179   4.253 -0.7175  0.1924 -0.6214
    1PA     C19 5651   2.568   3.028   4.321  0.1752  0.0041  0.2033
    1PA     H9R 5652   2.509   2.996   4.407 -0.0202 -1.2538 -0.3679
    1PA     H9S 5653   2.593   2.931   4.277 -0.8898 -0.9434  1.6118
    1PA     C18 5654   2.700   3.092   4.364  0.1099  0.0249  0.3738
    1PA     H8R 5655   2.748   3.029   4.439  0.3895  1.1741  1.1826
    1PA     H8S 5656   2.771   3.104   4.281  1.0763  1.2706  1.3383
    1PA     C17 5657   2.689   3.234   4.422 -0.3475  0.0126  0.3164
    1PA     H7R 5658   2.791   3.259   4.451  0.0965 -2.4224  1.1409
    1PA     H7S 5659   2.647   3.303   4.350 -0.5563 -0.4248  0.0124
    1PA     C16 5660   2.595   3.247   4.544 -1.1128 -0.1394 -0.2477
    1PA     H6R 5661   2.496   3.211   4.515 -0.6168 -1.9150  0.1569
    1PA     H6S 5662   2.636   3.178   4.618  2.6936  3.7389  1.6861
    1PA     C15 5663   2.601   3.392   4.593  0.1077 -0.2373 -0.0742
    1PA     H5R 5664   2.700   3.413   4.635  1.9350  0.6796 -4.3341
    1PA     H5S 5665   2.569   3.454   4.510 -0.8617 -0.6387 -0.0085
    1PA     C14 5666   2.501   3.410   4.708  0.1455 -0.3564 -0.0234
    1PA     H4R 5667   2.401   3.370   4.687 -0.6625  0.2082  2.4756
    1PA     H4S 5668   2.532   3.356   4.798  0.9818 -0.8639 -0.6046
    1PA     C13 5669   2.479   3.559   4.733  0.1493 -0.2288 -0.7642
    1PA     H3R 5670   2.482   3.614   4.638 -1.0042  0.1827 -0.5760
    1PA     H3S 5671   2.378   3.582   4.767 -0.8804 -3.4838 -1.2884
    1PA     C12 5672   2.582   3.618   4.830 -0.7818 -0.0931  0.1553
    1PA     H2R 5673   2.575   3.556   4.920  1.0709  2.3579  2.1456
    1PA     H2S 5674   2.682   3.611   4.788 -0.7257  2.4593 -0.2793
    2PC     C11 5675   2.564   3.763   4.865  0.3046 -0.0216  0.4582
    2PC     O12 5676   2.456   3.818   4.859  0.0174 -0.5747  0.5543
    2PC     O11 5677   2.681   3.811   4.910  0.3768 -0.2532  0.5160
    2PC      C1 5678   2.706   3.949   4.940 -0.1017  0.0027 -0.2364
    2PC      HR 5679   2.668   4.010   4.858  2.3914  1.5800 -0.3311
    2PC      HS 5680   2.659   3.977   5.035 -1.4830 -1.4987 -0.4373
    2PC      C2 5681   2.856   3.980   4.952 -0.1542  0.2153 -0.1153
    2PC      HX 5682   2.888   3.916   5.034 -0.3221  0.0778 -0.1567
    2PC      C3 5683   2.882   4.128   4.981  0.1406  0.1638 -0.1209
    2PC      HA 5684   2.860   4.180   4.888 -2.3488  0.2243  0.4331
    2PC      HB 5685   2.821   4.166   5.064  0.4786  1.2735 -0.3614
    2PC     O31 5686   3.020   4.136   5.022  0.1646 -0.3733 -0.0973
    2PC     P31 5687   3.045   4.147   5.179 -0.2189  0.2869 -0.0817
    2PC     O32 5688   2.981   4.018   5.250  0.0386  0.0817 -0.2251
    2PC     C31 5689   3.066   3.903   5.269 -0.1673 -0.1125 -0.4652
    2PC     H1A 5690   3.095   3.872   5.169 -1.5896 -1.8436 -0.3853
    2PC     H1B 5691   3.154   3.931   5.328 -1.0596 -0.5267  1.1321
    2PC     C32 5692   2.991   3.785   5.332 -0.1471 -0.0715 -0.3637
    2PC     H2A 5693   2.907   3.750   5.272 -0.8325  1.3169 -0.2705
    2PC     H2B 5694   3.058   3.700   5.343  0.1886  0.3592  1.0987
    2PC     N31 5695   2.942   3.800   5.473  0.0058  0.2122 -0.3407
    2PC     C33 5696   2.854   3.686   5.514  0.0999  0.4833  0.6330
    2PC     H3A 5697   2.822   3.700   5.618 -3.0519 -0.0894 -0.1548
    2PC     H3B 5698   2.760   3.697   5.460  0.9321  1.3074 -0.7130
    2PC     H3C 5699   2.897   3.586   5.509 -1.4525 -0.2624  1.4060
    2PC     C34 5700   3.056   3.799   5.570 -0.0007  0.4127 -0.3315
    2PC     H4A 5701   3.114   3.707   5.569 -0.1331  0.3129  0.5207
    2PC     H4B 5702   3.126   3.878   5.542 -0.4127  0.9527  0.1154
    2PC     H4C 5703   3.029   3.807   5.676  0.5411 -0.1454 -0.1458
    2PC     C35 5704   2.861   3.925   5.487  0.3489  0.4392 -0.3608
    2PC     H5A 5705   2.774   3.910   5.423 -0.8722  4.1809  0.1773
    2PC     H5B 5706   2.923   4.006   5.448 -0.0670 -0.2419 -2.6130
    2PC     H5C 5707   2.832   3.941   5.591 -3.0557 -1.3010 -0.8835
    2PC     O33 5708   3.188   4.139   5.216 -0.1311 -0.1677 -0.5113
    2PC     O34 5709   2.974   4.263   5.238 -0.2152  0.1200  0.2576
    2PC     O21 5710   2.910   3.940   4.825  0.1242 -0.2603  0.1511
    2PC     C21 5711   3.037   3.897   4.819  0.1386 -0.1924 -0.0575
    2PC     O22 5712   3.113   3.895   4.914 -0.5718  0.1479  0.5390
    3OL     C12 5713   3.081   3.850   4.683  0.0570 -0.7326  0.1035
    3OL     H2R 5714   3.035   3.913   4.608 -0.6550 -2.0171 -0.5785
    3OL     H2S 5715   3.042   3.748   4.672  1.8447 -1.3895 -0.4734
    3OL     C13 5716   3.233   3.859   4.662  0.0332  0.5400  0.4218
    3OL     H3R 5717   3.284   3.816   4.748  0.3282 -1.2067 -0.5812
    3OL     H3S 5718   3.262   3.965   4.658  0.5287  0.3838 -2.1268
    3OL     C14 5719   3.279   3.775   4.542  0.0569  0.6810  0.3312
    3OL     H4R 5720   3.232   3.676   4.541  1.3883  0.0039  1.2682
    3OL     H4S 5721   3.386   3.764   4.561 -0.1993 -0.4126  1.2506
    3OL     C15 5722   3.266   3.839   4.403  0.6702  0.2382  0.0660
    3OL     H5R 5723   3.323   3.931   4.401  0.2954  0.4684 -0.0778
    3OL     H5S 5724   3.159   3.858   4.390  1.1475  2.1921 -1.3792
    3OL     C16 5725   3.317   3.736   4.301  0.1733  0.1262 -0.0695
    3OL     H6R 5726   3.239   3.659   4.298 -1.4830  1.7131  0.6320
    3OL     H6S 5727   3.416   3.703   4.331 -0.5882  0.6488  3.4622
    3OL     C17 5728   3.319   3.791   4.158  0.2188 -0.3202 -0.2438
    3OL     H7R 5729   3.365   3.890   4.168 -2.9423  1.0786  1.7389
    3OL     H7S 5730   3.218   3.798   4.118  0.7096 -0.3954 -1.5376
    3OL     C18 5731   3.411   3.722   4.055  0.2324  0.1230 -0.5326
    3OL     H8R 5732   3.383   3.617   4.055 -1.6443  0.4235  3.4445
    3OL     H8S 5733   3.511   3.717   4.098 -1.0494 -1.1640  2.6884
    3OL     C19 5734   3.413   3.797   3.924  0.0116  0.5153 -0.3173
    3OL     H9R 5735   3.449   3.899   3.937  0.2705  0.2424  1.3803
    3OL    C110 5736   3.392   3.746   3.804 -0.3944 -0.3690  0.1144
    3OL    H10R 5737   3.409   3.815   3.721  0.0564  0.4298  0.8501
    3OL    C111 5738   3.355   3.606   3.763 -0.1840 -0.3756 -0.0551
    3OL    H11R 5739   3.289   3.564   3.838 -0.2754  1.0044  0.6581
    3OL    H11S 5740   3.445   3.543   3.765  1.2665  1.5368 -1.0483
    3OL    C112 5741   3.285   3.616   3.626 -0.3291  0.7043  0.0938
    3OL    H12R 5742   3.357   3.637   3.547 -0.0917  1.5956  0.5315
    3OL    H12S 5743   3.220   3.704   3.619 -2.1470 -0.4943  1.0652
    3OL    C113 5744   3.209   3.488   3.590  1.0602 -0.1985  0.2848
    3OL    H13R 5745   3.163   3.507   3.493  0.3964  1.0487  0.8261
    3OL    H13S 5746   3.118   3.477   3.648  0.8398  3.2698  0.8267
    3OL    C114 5747   3.294   3.360   3.585  0.4934 -0.5533 -0.5515
    3OL    H14R 5748   3.351   3.358   3.678 -1.5710 -0.3035  0.7708
    3OL    H14S 5749   3.373   3.359   3.510  1.0443 -0.0835  0.0026
    3OL    C115 5750   3.205   3.236   3.578  0.1245 -0.3843  0.7722
    3OL    H15R 5751   3.276   3.157   3.553 -1.0153 -1.9374  2.2184
    3OL    H15S 5752   3.138   3.242   3.491 -0.2179 -3.4938  0.7125
    3OL    C116 5753   3.120   3.206   3.702  0.0685 -0.0022  0.8264
    3OL    H16R 5754   3.038   3.278   3.713  0.8849  1.6624 -2.6651
    3OL    H16S 5755   3.182   3.214   3.791 -1.2232  0.5375  1.7204
    3OL    C117 5756   3.064   3.065   3.679 -0.4431  0.3161  0.0377
    3OL    H17R 5757   3.045   3.022   3.778  1.8013  1.1422  0.8982
    3OL    H17S 5758   3.142   3.003   3.634 -0.4789 -0.5607  1.1487
    3OL    C118 5759   2.940   3.057   3.589  0.0140 -0.1261 -0.5644
    3OL    H18R 5760   2.970   3.092   3.490  1.7776  0.9121  0.2897
    3OL    H18S 5761   2.861   3.125   3.623  1.4498  2.3124 -1.8065
    3OL    H18T 5762   2.902   2.956   3.577  1.8320 -1.2084  1.8592
    1PA    C116 5763   6.578   3.260   4.676  0.9787  0.1672  0.0340
    1PA    H16R 5764   6.687   3.270   4.678  0.7844  3.2286  0.5325
    1PA    H16S 5765   6.540   3.359   4.652  0.8617  0.0875 -0.1053
    1PA    H16T 5766   6.553   3.197   4.591  0.3577 -1.2170  1.1896
    1PA    C115 5767   6.533   3.197   4.809  0.3300 -0.1041 -0.3126
    1PA    H15R 5768   6.592   3.112   4.843  1.3296  2.1652  4.4400
    1PA    H15S 5769   6.535   3.276   4.885 -1.3556 -1.3920  1.1436
    1PA    C114 5770   6.390   3.142   4.820  0.5148 -0.4823  0.1985
    1PA    H14R 5771   6.378   3.108   4.923  1.0680 -0.3391  0.3122
    1PA    H14S 5772   6.321   3.223   4.798  2.3156  1.8153  2.4439
    1PA    C113 5773   6.367   3.025   4.723  0.3630 -0.3465  0.0694
    1PA    H13R 5774   6.402   3.048   4.622  1.3243  1.7448  0.8326
    1PA    H13S 5775   6.411   2.936   4.770  0.1114 -0.3242  0.3546
    1PA    C112 5776   6.217   2.993   4.718  0.2603  0.0751  0.4073
    1PA    H12R 5777   6.210   2.896   4.669 -2.3033  0.1112  0.6018
    1PA    H12S 5778   6.169   3.002   4.815 -0.1457  3.6539 -0.0077
    1PA    C111 5779   6.138   3.088   4.627  0.2465 -0.4747 -0.1615
    1PA    H11R 5780   6.090   3.171   4.678 -0.3898  0.0331 -1.5410
    1PA    H11S 5781   6.206   3.140   4.559  2.4622  0.9388  2.8707
    1PA    C110 5782   6.033   3.008   4.549 -0.4086  0.2327 -0.0213
    1PA    H10R 5783   5.982   3.074   4.479 -2.8530  0.0219  1.4438
    1PA    H10S 5784   6.086   2.937   4.485  0.2314  1.3159 -0.7279
    1PA     C19 5785   5.930   2.930   4.632  0.4442 -0.7276  0.1632
    1PA     H9R 5786   5.854   2.890   4.565  1.6583 -0.8151 -1.2224
    1PA     H9S 5787   5.982   2.841   4.667  0.4324 -2.0126 -2.8349
    1PA     C18 5788   5.875   3.023   4.742  0.4334 -0.5554  0.0113
    1PA     H8R 5789   5.952   3.059   4.810 -1.7641  0.2988  2.2069
    1PA     H8S 5790   5.828   3.108   4.691 -2.4460 -2.2682 -0.4161
    1PA     C17 5791   5.765   2.951   4.821  0.0836 -0.3182 -0.2553
    1PA     H7R 5792   5.719   3.030   4.880  0.8760  0.5248 -0.7372
    1PA     H7S 5793   5.694   2.902   4.753  2.4250 -3.1268 -0.8869
    1PA     C16 5794   5.825   2.849   4.918  0.0275  0.2386  0.3721
    1PA     H6R 5795   5.866   2.767   4.857  0.3143  0.4556  0.2730
    1PA     H6S 5796   5.911   2.897   4.964 -0.6656  2.0451 -0.1400
    1PA     C15 5797   5.730   2.807   5.031  0.0782 -0.0488  0.3107
    1PA     H5R 5798   5.688   2.896   5.080 -0.9324 -1.7549  2.7478
    1PA     H5S 5799   5.643   2.766   4.979  0.7133 -0.0485 -0.7805
    1PA     C14 5800   5.782   2.701   5.129  0.2672 -0.3334 -0.0955
    1PA     H4R 5801   5.695   2.660   5.181 -0.4741 -1.1851 -1.9139
    1PA     H4S 5802   5.823   2.613   5.079  0.1117 -1.0195  0.9701
    1PA     C13 5803   5.874   2.761   5.236 -0.3432 -0.2735  0.3955
    1PA     H3R 5804   5.940   2.681   5.270  2.2503  1.3819 -0.4687
    1PA     H3S 5805   5.939   2.846   5.218 -0.2858  0.1913  2.4851
    1PA     C12 5806   5.788   2.803   5.357 -0.4796 -0.3508  0.3261
    1PA     H2R 5807   5.720   2.872   5.307 -1.1351 -0.0852  1.5500
    1PA     H2S 5808   5.736   2.716   5.396  0.0396 -1.5823 -1.5651
    2PC     C11 5809   5.864   2.872   5.468 -0.1292  0.1428 -0.2136
    2PC     O12 5810   5.947   2.810   5.531 -0.6687  0.0746  0.4360
    2PC     O11 5811   5.831   3.001   5.480 -0.1420  0.1651 -0.4724
    2PC      C1 5812   5.896   3.077   5.584  0.4169 -0.3475 -0.4454
    2PC      HR 5813   5.854   3.178   5.584 -0.8609 -0.7944  1.9466
    2PC      HS 5814   5.871   3.027   5.678  1.2380  0.4809  0.2282
    2PC      C2 5815   6.048   3.097   5.570  0.4381 -0.2699 -0.1267
    2PC      HX 5816   6.096   2.999   5.560 -0.8419 -0.9422  0.0310
    2PC      C3 5817   6.105   3.171   5.691  0.0144 -0.1602  0.0078
    2PC      HA 5818   6.083   3.120   5.785  0.1668 -0.1757  0.0355
    2PC      HB 5819   6.214   3.182   5.686  0.0065 -0.6031 -3.2628
    2PC     O31 5820   6.042   3.300   5.696  0.6239  0.1746 -0.8247
    2PC     P31 5821   6.080   3.383   5.828 -0.1491 -0.2516 -0.3360
    2PC     O32 5822   5.958   3.343   5.925  0.0121 -0.0511 -0.0500
    2PC     C31 5823   5.968   3.383   6.063  0.5329  0.2379 -0.1691
    2PC     H1A 5824   6.075   3.377   6.085  0.3809 -1.2782  0.2660
    2PC     H1B 5825   5.935   3.486   6.078 -1.4339 -0.5239  1.2021
    2PC     C32 5826   5.890   3.284   6.150  0.2964  0.0835 -0.5526
    2PC     H2A 5827   5.879   3.330   6.249 -0.6828 -2.2695  0.5084
    2PC     H2B 5828   5.789   3.268   6.112 -0.3959  0.4409  1.0154
    2PC     N31 5829   5.945   3.148   6.180 -0.1630 -0.0539 -0.3153
    2PC     C33 5830   5.992   3.065   6.064  0.1271 -0.4083  0.0541
    2PC     H3A 5831   6.074   3.118   6.015  0.1568 -1.4231 -1.0364
    2PC     H3B 5832   6.025   2.974   6.115 -0.4223 -0.6119  0.0495
    2PC     H3C 5833   5.911   3.050   5.992 -0.8789  1.9720  0.5987
    2PC     C34 5834   6.061   3.151   6.275  0.1256  0.4523 -0.6793
    2PC     H4A 5835   6.037   3.230   6.345  0.3049  0.8662 -1.0762
    2PC     H4B 5836   6.074   3.053   6.320 -0.6799  0.7209  0.1518
    2PC     H4C 5837   6.150   3.169   6.214 -0.0905  0.5418 -0.9743
    2PC     C35 5838   5.838   3.065   6.245 -0.5967  0.2805 -0.5958
    2PC     H5A 5839   5.756   3.066   6.173 -1.2209 -3.0321 -0.0904
    2PC     H5B 5840   5.825   3.108   6.344  0.8893 -0.9965  0.1963
    2PC     H5C 5841   5.871   2.962   6.260 -0.7427  0.0273 -1.8670
    2PC     O33 5842   6.209   3.332   5.878  0.0268  0.0542 -0.4800
    2PC     O34 5843   6.099   3.528   5.807  0.0646 -0.2245  0.0420
    2PC     O21 5844   6.065   3.185   5.457 -0.0484 -0.2124 -0.1556
    2PC     C21 5845   6.082   3.131   5.336  0.0031  0.4253 -0.4361
    2PC     O22 5846   6.105   3.015   5.307 -0.0269  0.4542 -0.5785
    3OL     C12 5847   6.105   3.242   5.237 -0.0417  0.4566 -0.4114
    3OL     H2R 5848   6.200   3.227   5.186 -0.2351 -0.9191 -0.4028
    3OL     H2S 5849   6.108   3.337   5.290 -2.1597  1.2196 -1.5194
    3OL     C13 5850   5.990   3.241   5.135 -0.1917  0.2867 -0.2389
    3OL     H3R 5851   5.896   3.256   5.189 -0.4217 -2.8992  0.4725
    3OL     H3S 5852   5.983   3.140   5.092 -0.9767  0.7378 -1.2081
    3OL     C14 5853   6.017   3.343   5.024  0.4717 -0.0063 -0.3531
    3OL     H4R 5854   6.090   3.303   4.953  1.8905  0.2595  0.9095
    3OL     H4S 5855   6.058   3.436   5.063 -1.9349  1.5183 -1.1963
    3OL     C15 5856   5.889   3.365   4.942 -0.0924 -0.8124  0.2904
    3OL     H5R 5857   5.815   3.411   5.007 -0.4954  0.5451 -1.0686
    3OL     H5S 5858   5.849   3.267   4.912  2.0991 -1.4640 -0.7816
    3OL     C16 5859   5.915   3.443   4.812 -0.4605 -0.3412  0.5012
    3OL     H6R 5860   5.985   3.384   4.753 -1.8830 -2.2768  0.6512
    3OL     H6S 5861   5.963   3.537   4.840  0.4448 -0.4213 -0.7285
    3OL     C17 5862   5.783   3.457   4.735 -0.0820 -0.3230 -0.1501
    3OL     H7R 5863   5.702   3.500   4.795  0.7020 -1.6380  1.9524
    3OL     H7S 5864   5.738   3.361   4.710 -0.0125 -0.1556 -0.9533
    3OL     C18 5865   5.808   3.547   4.613 -0.1072 -0.1449 -0.0253
    3OL     H8R 5866   5.897   3.517   4.556 -0.8170 -0.1018 -1.1966
    3OL     H8S 5867   5.826   3.647   4.653 -1.0425 -0.1095  0.3270
    3OL     C19 5868   5.687   3.555   4.523 -0.0298 -0.0133 -0.1166
    3OL     H9R 5869   5.622   3.636   4.555  2.3067  2.2949 -0.8408
    3OL    C110 5870   5.665   3.487   4.411  0.1076 -0.4640  0.1283
    3OL    H10R 5871   5.580   3.523   4.354  0.3072  0.8674  0.6280
    3OL    C111 5872   5.743   3.367   4.364 -0.0156 -0.3800 -0.2909
    3OL    H11R 5873   5.821   3.340   4.436  3.0824  2.2999 -2.3620
    3OL    H11S 5874   5.792   3.377   4.267  0.7479 -3.5958 -0.3685
    3OL    C112 5875   5.654   3.243   4.348 -0.0177 -0.4666  0.3835
    3OL    H12R 5876   5.596   3.266   4.259  1.1420  1.3801  0.0693
    3OL    H12S 5877   5.585   3.233   4.432 -1.1578 -1.3523 -0.6179
    3OL    C113 5878   5.726   3.111   4.316  0.6485 -0.1235  0.4681
    3OL    H13R 5879   5.791   3.078   4.397 -0.1305 -1.3165  0.6223
    3OL    H13S 5880   5.791   3.128   4.230 -1.0663 -3.0568 -1.5593
    3OL    C114 5881   5.628   3.003   4.270  0.3171  0.3887 -0.0546
    3OL    H14R 5882   5.522   3.027   4.279  0.4556  0.6677  0.9882
    3OL    H14S 5883   5.650   2.919   4.337 -1.2267  1.3953  1.8174
    3OL    C115 5884   5.661   2.968   4.124  0.0029  0.3768 -0.1227
    3OL    H15R 5885   5.766   2.937   4.117 -0.2232 -0.3030 -0.6153
    3OL    H15S 5886   5.638   3.052   4.058 -0.3354 -0.3571 -0.9613
    3OL    C116 5887   5.571   2.853   4.078  0.4904  0.0679 -0.3065
    3OL    H16R 5888   5.468   2.883   4.097  1.1904  1.9276  0.8119
    3OL    H16S 5889   5.597   2.762   4.133 -1.7341  1.2123  2.8621
    3OL    C117 5890   5.585   2.832   3.926  0.1544  0.0400 -0.3341
    3OL    H17R 5891   5.580   2.926   3.870 -1.2389  1.6216  2.2236
    3OL    H17S 5892   5.502   2.767   3.899 -0.0290  0.7389 -1.5075
    3OL    C118 5893   5.715   2.756   3.898  0.5966  0.5440  0.3164
    3OL    H18R 5894   5.738   2.671   3.962  0.2197  0.5961  0.5218
    3OL    H18S 5895   5.799   2.825   3.916  0.0357  1.4802 -0.5398
    3OL    H18T 5896   5.715   2.727   3.793  1.9778 -1.7736  0.8797
    1PA    C116 5897   2.415   5.590   3.645 -0.0478 -0.4418  0.1060
    1PA    H16R 5898   2.500   5.630   3.700 -1.5426 -0.3612  2.4855
    1PA    H16S 5899   2.360   5.675   3.602  0.6713 -0.5948 -1.1491
    1PA    H16T 5900   2.459   5.526   3.568  0.9608 -0.4384  0.6728
    1PA    C115 5901   2.321   5.511   3.737 -0.4570 -0.3654 -0.2372
    1PA    H15R 5902   2.236   5.484   3.675 -0.8235 -0.8062  0.4423
    1PA    H15S 5903   2.370   5.425   3.782 -1.7336 -0.0082  2.0304
    1PA    C114 5904   2.273   5.595   3.857  0.1603  0.0060 -0.2428
    1PA    H14R 5905   2.211   5.526   3.914  0.2959 -0.8863 -1.1298
    1PA    H14S 5906   2.358   5.637   3.911  3.4070 -3.5769 -2.0782
    1PA    C113 5907   2.193   5.719   3.814  0.1066 -0.1847 -0.7049
    1PA    H13R 5908   2.255   5.784   3.751 -0.0779  0.8114  0.1037
    1PA    H13S 5909   2.110   5.673   3.761  0.1050 -0.4262 -0.4939
    1PA    C112 5910   2.137   5.808   3.926 -0.0380 -0.2630 -0.7146
    1PA    H12R 5911   2.066   5.884   3.893 -0.5391 -1.5910 -2.8662
    1PA    H12S 5912   2.080   5.746   3.995 -2.6185  1.3205 -1.2878
    1PA    C111 5913   2.249   5.882   4.001 -0.3436 -0.2822 -0.2324
    1PA    H11R 5914   2.231   5.904   4.106  0.1399  0.0841 -0.2202
    1PA    H11S 5915   2.343   5.826   3.996 -1.0521 -1.7206  1.4031
    1PA    C110 5916   2.274   6.018   3.935  0.3552 -0.4417 -0.3125
    1PA    H10R 5917   2.259   6.019   3.827 -0.4182  3.5107 -0.3433
    1PA    H10S 5918   2.208   6.097   3.971  0.9097 -0.9983  2.1167
    1PA     C19 5919   2.415   6.073   3.958  0.0431  0.3582 -0.2778
    1PA     H9R 5920   2.498   6.004   3.939  0.6234  0.9767 -0.0598
    1PA     H9S 5921   2.430   6.151   3.882 -0.3260 -0.9845 -1.7771
    1PA     C18 5922   2.441   6.122   4.101  0.1448 -0.4616 -0.0133
    1PA     H8R 5923   2.358   6.192   4.110  0.0394  0.0410 -3.5963
    1PA     H8S 5924   2.445   6.034   4.166  0.0604  0.2070  0.9154
    1PA     C17 5925   2.577   6.194   4.108 -0.1147  0.0224  0.1127
    1PA     H7R 5926   2.661   6.126   4.093  0.2430  0.5281 -0.2113
    1PA     H7S 5927   2.583   6.259   4.021  1.3822 -0.5991 -0.2828
    1PA     C16 5928   2.600   6.267   4.240 -0.6690  0.3118  0.0515
    1PA     H6R 5929   2.688   6.324   4.213 -0.4067 -0.5449 -0.9724
    1PA     H6S 5930   2.509   6.327   4.251 -1.1827 -0.6907  1.7796
    1PA     C15 5931   2.618   6.177   4.364 -0.4599 -0.2856 -0.4108
    1PA     H5R 5932   2.649   6.242   4.446 -1.1822  1.3760 -1.3929
    1PA     H5S 5933   2.524   6.129   4.391  0.3869 -0.9450  1.5448
    1PA     C14 5934   2.736   6.082   4.337 -0.1926  0.1177 -0.6904
    1PA     H4R 5935   2.695   5.996   4.283 -2.5068  0.6828  0.0507
    1PA     H4S 5936   2.812   6.133   4.279  1.0857  2.8851  3.0636
    1PA     C13 5937   2.806   6.020   4.458  0.0679  1.2022 -0.2750
    1PA     H3R 5938   2.841   6.097   4.527 -1.3741  0.9078  0.8382
    1PA     H3S 5939   2.735   5.968   4.524 -0.7474  2.7308  0.0915
    1PA     C12 5940   2.919   5.924   4.417 -0.6533  0.0880  0.2618
    1PA     H2R 5941   2.887   5.829   4.373 -3.3007  0.9166  0.1926
    1PA     H2S 5942   2.992   5.967   4.348  2.3646 -0.1401  3.0577
    2PC     C11 5943   3.011   5.895   4.533  0.2310  0.5141 -0.3257
    2PC     O12 5944   2.976   5.916   4.647 -0.1502  0.6373 -0.4632
    2PC     O11 5945   3.127   5.838   4.497 -0.0452 -0.2081 -0.0693
    2PC      C1 5946   3.209   5.774   4.596  0.1838  0.4613  0.1771
    2PC      HR 5947   3.309   5.763   4.551 -0.9538 -2.5641 -1.9640
    2PC      HS 5948   3.199   5.837   4.685 -4.8525  0.5508 -0.1955
    2PC      C2 5949   3.159   5.635   4.638  0.0560  0.4299 -0.0786
    2PC      HX 5950   3.053   5.642   4.664 -0.0444 -0.3184 -0.2577
    2PC      C3 5951   3.234   5.579   4.760  0.1159  0.0077 -0.3062
    2PC      HA 5952   3.328   5.537   4.722  0.6422  1.6723 -0.9754
    2PC      HB 5953   3.266   5.654   4.833 -0.5161 -0.0004 -0.0155
    2PC     O31 5954   3.159   5.474   4.824  0.2271 -0.1317 -0.4040
    2PC     P31 5955   3.229   5.379   4.931  0.0486  0.1856 -0.0019
    2PC     O32 5956   3.294   5.270   4.832 -0.4903 -0.2305  0.0962
    2PC     C31 5957   3.194   5.188   4.771 -0.1977 -0.3233 -0.2643
    2PC     H1A 5958   3.116   5.158   4.842  1.7429 -2.5740  1.0502
    2PC     H1B 5959   3.153   5.241   4.685  0.2891  0.6777  0.1093
    2PC     C32 5960   3.268   5.066   4.713  0.0962 -0.4523  0.3697
    2PC     H2A 5961   3.220   5.030   4.622  1.8244  0.5291 -0.9839
    2PC     H2B 5962   3.362   5.110   4.679  0.3993 -1.4452 -0.0979
    2PC     N31 5963   3.313   4.955   4.803 -0.0312 -0.5637  0.2960
    2PC     C33 5964   3.393   4.863   4.716  0.3584  0.2345 -0.2002
    2PC     H3A 5965   3.402   4.765   4.762 -1.5961 -0.2267 -0.7136
    2PC     H3B 5966   3.341   4.859   4.620  0.2359 -2.1916 -0.0860
    2PC     H3C 5967   3.495   4.897   4.695  0.8440 -0.1525  1.3839
    2PC     C34 5968   3.398   5.011   4.913 -0.0951 -0.0952  0.1099
    2PC     H4A 5969   3.437   4.939   4.985  1.5234  2.0866  1.5521
    2PC     H4B 5970   3.485   5.064   4.872  1.4441 -1.0957  1.9404
    2PC     H4C 5971   3.334   5.082   4.966  1.9393  2.2086 -0.3422
    2PC     C35 5972   3.195   4.888   4.866 -0.1799  0.0186  0.6483
    2PC     H5A 5973   3.135   4.968   4.910 -0.0154  1.6602 -1.8655
    2PC     H5B 5974   3.250   4.833   4.941  0.1472  0.3777  0.6726
    2PC     H5C 5975   3.135   4.834   4.792  0.3921  0.2960 -0.0316
    2PC     O33 5976   3.335   5.448   5.009 -0.2337 -0.1707  0.7101
    2PC     O34 5977   3.149   5.327   5.045  0.2882 -0.1891  0.0002
    2PC     O21 5978   3.185   5.548   4.526 -0.2205  0.6802 -0.3373
    2PC     C21 5979   3.082   5.507   4.451  0.0603  0.0329 -0.3729
    2PC     O22 5980   2.968   5.544   4.471  0.3305  0.2898  0.7689
    3OL     C12 5981   3.121   5.413   4.340 -0.0387  0.2502 -0.5913
    3OL     H2R 5982   3.124   5.316   4.390 -1.6760 -0.0570 -1.0308
    3OL     H2S 5983   3.216   5.449   4.301  1.9834  1.1643  4.4103
    3OL     C13 5984   3.015   5.427   4.230  0.0690  0.3317 -0.6857
    3OL     H3R 5985   3.031   5.523   4.181  0.7787  0.4167 -0.2896
    3OL     H3S 5986   2.912   5.416   4.267  1.3524 -0.7674  2.9621
    3OL     C14 5987   3.036   5.317   4.126  0.1821 -0.4773  0.1769
    3OL     H4R 5988   2.966   5.338   4.044  1.1266  1.6784 -0.1534
    3OL     H4S 5989   3.009   5.223   4.173 -3.0559  0.9157  1.3914
    3OL     C15 5990   3.181   5.320   4.074  0.3505 -0.1010  0.6699
    3OL     H5R 5991   3.247   5.295   4.158 -3.0176  0.5662  3.7989
    3OL     H5S 5992   3.207   5.420   4.038 -0.1892 -0.9790 -2.3748
    3OL     C16 5993   3.195   5.226   3.954  0.2643 -0.0440  0.6150
    3OL     H6R 5994   3.133   5.253   3.868 -0.4025 -1.3452  0.6762
    3OL     H6S 5995   3.169   5.128   3.995  0.3766 -0.7069 -0.8463
    3OL     C17 5996   3.338   5.202   3.903 -0.1391 -0.5242 -0.3140
    3OL     H7R 5997   3.394   5.152   3.982 -0.4564 -2.3534 -1.1874
    3OL     H7S 5998   3.382   5.302   3.898 -0.6272 -0.0951  2.2614
    3OL     C18 5999   3.362   5.126   3.772 -0.4984 -0.4436 -0.4280
    3OL     H8R 6000   3.305   5.177   3.694 -0.6307  1.9435  1.1219
    3OL     H8S 6001   3.318   5.028   3.790  1.0515 -0.5669  3.7068
    3OL     C19 6002   3.509   5.121   3.737 -0.2982  0.0275  0.3106
    3OL     H9R 6003   3.556   5.203   3.684  0.3124 -0.5812 -0.1180
    3OL    C110 6004   3.590   5.018   3.757 -0.0879  0.0293 -0.4731
    3OL    H10R 6005   3.694   5.012   3.726 -0.4576  0.9766 -1.9848
    3OL    C111 6006   3.544   4.885   3.810  0.2682  0.1706  0.2034
    3OL    H11R 6007   3.605   4.806   3.766 -0.2315  0.4635 -1.0379
    3OL    H11S 6008   3.439   4.860   3.796  0.3117  0.6837 -1.1527
    3OL    C112 6009   3.565   4.881   3.962 -0.1619  0.2920  0.2649
    3OL    H12R 6010   3.537   4.781   3.996 -0.3170  0.4261  0.5384
    3OL    H12S 6011   3.498   4.950   4.014 -1.0722 -0.9398  0.7815
    3OL    C113 6012   3.710   4.912   4.000 -0.0349  0.1686 -0.1198
    3OL    H13R 6013   3.750   5.009   3.968 -1.2169 -0.0533 -2.4716
    3OL    H13S 6014   3.775   4.837   3.956 -1.4694 -1.2983  0.1736
    3OL    C114 6015   3.707   4.909   4.153 -0.2522 -0.1390 -0.1302
    3OL    H14R 6016   3.807   4.904   4.197  0.1183  0.3233 -0.9018
    3OL    H14S 6017   3.659   4.817   4.188 -1.1923 -0.4574 -2.1337
    3OL    C115 6018   3.643   5.029   4.224 -0.5337 -0.3731  0.0145
    3OL    H15R 6019   3.534   5.022   4.221 -0.6206 -0.3346  1.7424
    3OL    H15S 6020   3.680   5.125   4.187  0.2918 -1.3576 -1.8570
    3OL    C116 6021   3.677   5.024   4.374 -0.2481 -0.1098 -0.0406
    3OL    H16R 6022   3.785   5.017   4.385 -0.1337  0.8541 -0.3991
    3OL    H16S 6023   3.636   4.933   4.418 -1.7556 -0.6912 -2.4270
    3OL    C117 6024   3.626   5.146   4.452  0.0629 -0.0093  0.0059
    3OL    H17R 6025   3.691   5.233   4.434 -0.4314  1.2409  3.5176
    3OL    H17S 6026   3.641   5.120   4.557  1.1874 -0.9797 -0.3733
    3OL    C118 6027   3.478   5.177   4.424  0.0503 -0.0250  0.0539
    3OL    H18R 6028   3.427   5.251   4.487  1.0802 -0.0379  0.9398
    3OL    H18S 6029   3.422   5.087   4.449  0.6957 -0.7490 -1.0311
    3OL    H18T 6030   3.452   5.209   4.323  0.1707 -0.6214 -0.1674
    1PA    C116 6031   3.273   1.014   4.103  0.1039 -0.1205 -0.0453
    1PA    H16R 6032   3.251   1.064   4.197 -1.2176 -0.6085 -0.0743
    1PA    H16S 6033   3.220   0.919   4.108 -0.7354  0.3471  0.0797
    1PA    H16T 6034   3.221   1.067   4.022  1.0934  0.3317 -0.3996
    1PA    C115 6035   3.425   1.003   4.082  0.2323  0.7084  0.4192
    1PA    H15R 6036   3.451   0.902   4.112  2.8084  1.2213  0.1057
    1PA    H15S 6037   3.438   1.013   3.974 -1.9704 -2.4557 -0.2911
    1PA    C114 6038   3.512   1.096   4.168  0.3780  0.3158  0.7006
    1PA    H14R 6039   3.464   1.192   4.147 -0.6923  0.1275  2.1522
    1PA    H14S 6040   3.500   1.082   4.275  1.3652 -0.0934  0.7569
    1PA    C113 6041   3.659   1.092   4.124  0.0888  0.0479 -0.2647
    1PA    H13R 6042   3.704   0.992   4.119  2.0996  0.9569 -2.1178
    1PA    H13S 6043   3.658   1.134   4.023 -0.4561  1.7220  0.3995
    1PA    C112 6044   3.748   1.183   4.208  0.7140 -0.0213 -0.8405
    1PA    H12R 6045   3.715   1.171   4.312  1.1665 -0.3821 -0.7343
    1PA    H12S 6046   3.844   1.132   4.213 -0.9354 -3.4214 -1.0308
    1PA    C111 6047   3.740   1.331   4.166 -0.4329  0.2103  0.1358
    1PA    H11R 6048   3.811   1.345   4.085  1.5764  0.5191  1.8500
    1PA    H11S 6049   3.638   1.344   4.130 -0.7731  0.3723  1.1259
    1PA    C110 6050   3.771   1.425   4.283  0.1038  0.1875  0.0131
    1PA    H10R 6051   3.705   1.512   4.276  1.6313  1.4363  0.4794
    1PA    H10S 6052   3.741   1.378   4.376 -0.4408  1.0168  0.2700
    1PA     C19 6053   3.917   1.469   4.299  0.0292  0.4200  0.0702
    1PA     H9R 6054   3.990   1.388   4.295  0.6288  0.8489  1.5951
    1PA     H9S 6055   3.946   1.539   4.221 -0.1896  0.3825 -0.0437
    1PA     C18 6056   3.951   1.546   4.428  0.0108  0.4479  0.0577
    1PA     H8R 6057   4.059   1.559   4.416 -0.0306  1.2313  0.5132
    1PA     H8S 6058   3.902   1.643   4.431 -0.9174  0.1055 -2.1574
    1PA     C17 6059   3.917   1.465   4.554  0.3006  0.0588 -0.1098
    1PA     H7R 6060   3.809   1.452   4.563  0.1998  0.3761 -0.7978
    1PA     H7S 6061   3.965   1.368   4.547  0.0919 -0.0981  0.5410
    1PA     C16 6062   3.975   1.519   4.685 -0.0085 -0.1653  0.1208
    1PA     H6R 6063   3.965   1.439   4.758 -3.0583  0.2993  0.3321
    1PA     H6S 6064   4.083   1.527   4.669 -0.0696 -0.9411 -0.7450
    1PA     C15 6065   3.912   1.648   4.740 -0.0273 -0.3080  0.4369
    1PA     H5R 6066   3.901   1.713   4.653  1.6277 -1.4683 -0.6839
    1PA     H5S 6067   3.815   1.627   4.786 -1.1687  0.7298 -1.3487
    1PA     C14 6068   4.006   1.716   4.840 -0.1107  0.3964  0.0404
    1PA     H4R 6069   4.101   1.748   4.795  0.3801  0.3413  1.0052
    1PA     H4S 6070   3.957   1.809   4.872 -0.4253  0.4489 -0.5753
    1PA     C13 6071   4.036   1.630   4.963 -0.5192  0.0883 -0.0732
    1PA     H3R 6072   3.951   1.606   5.028  0.2734  1.2452  1.4777
    1PA     H3S 6073   4.087   1.538   4.935 -2.6714 -1.2900  0.2612
    1PA     C12 6074   4.134   1.691   5.065 -0.5562  0.3931 -0.2181
    1PA     H2R 6075   4.170   1.608   5.127  3.6326  0.4136 -2.2588
    1PA     H2S 6076   4.226   1.724   5.016  0.3995 -0.4506  0.9334
    2PC     C11 6077   4.072   1.791   5.159 -0.1951 -0.0986  0.5509
    2PC     O12 6078   3.974   1.860   5.140  0.2768  0.4401  0.0551
    2PC     O11 6079   4.144   1.798   5.272 -0.0829 -0.3125  0.4949
    2PC      C1 6080   4.102   1.885   5.379  0.1556 -0.1475  0.4542
    2PC      HR 6081   4.163   1.976   5.374 -0.2946  0.1379 -3.7843
    2PC      HS 6082   4.000   1.920   5.360  0.3147  0.1142  0.0620
    2PC      C2 6083   4.116   1.809   5.511 -0.2112 -0.2005  0.4638
    2PC      HX 6084   4.085   1.704   5.517  0.5196 -0.4736 -0.3224
    2PC      C3 6085   4.067   1.892   5.631  0.0420  0.4552  0.1140
    2PC      HA 6086   4.145   1.965   5.654  1.9068 -1.4876  0.2588
    2PC      HB 6087   3.967   1.934   5.620 -0.6057 -0.0543  3.1729
    2PC     O31 6088   4.071   1.813   5.751  0.2506 -0.2592 -0.3574
    2PC     P31 6089   3.967   1.693   5.765  0.0024 -0.0391 -0.3206
    2PC     O32 6090   3.881   1.738   5.893  0.1121  0.0610 -0.2829
    2PC     C31 6091   3.797   1.640   5.956  0.1791  0.3374  0.2434
    2PC     H1A 6092   3.710   1.646   5.890  0.8858  2.1785 -0.6081
    2PC     H1B 6093   3.836   1.538   5.955  0.6868  0.5277 -0.0385
    2PC     C32 6094   3.765   1.677   6.101 -0.2514 -0.0551  0.2494
    2PC     H2A 6095   3.722   1.778   6.100 -1.1442 -0.4178 -1.1415
    2PC     H2B 6096   3.681   1.613   6.130 -1.7255  0.6562 -2.1594
    2PC     N31 6097   3.864   1.670   6.213  0.3161  0.0489 -0.2428
    2PC     C33 6098   4.000   1.706   6.163  0.5854 -0.6732 -0.0432
    2PC     H3A 6099   4.061   1.727   6.251  0.8236 -1.0892 -0.1042
    2PC     H3B 6100   4.042   1.619   6.111 -1.7152 -1.0102 -1.4427
    2PC     H3C 6101   3.987   1.794   6.099 -1.3035  0.4474  1.7845
    2PC     C34 6102   3.823   1.765   6.322  1.1866  0.4952 -0.2982
    2PC     H4A 6103   3.909   1.806   6.376  0.1301  0.9864  1.0700
    2PC     H4B 6104   3.768   1.839   6.262 -0.4978 -0.9104 -0.5554
    2PC     H4C 6105   3.746   1.723   6.386 -2.7770 -1.0528 -5.3334
    2PC     C35 6106   3.869   1.529   6.263 -0.2756  0.2544  0.4094
    2PC     H5A 6107   3.957   1.482   6.218 -1.0448 -0.9163  0.0742
    2PC     H5B 6108   3.780   1.475   6.231 -0.1731  1.3915 -1.9548
    2PC     H5C 6109   3.875   1.529   6.372  1.4525 -1.2383  0.3542
    2PC     O33 6110   3.880   1.657   5.650  0.3318  0.3878 -0.7045
    2PC     O34 6111   4.028   1.568   5.815 -0.0996 -0.1289 -0.4215
    2PC     O21 6112   4.257   1.798   5.538 -0.2196 -0.4751  0.4003
    2PC     C21 6113   4.327   1.697   5.483  0.1214  0.2484 -0.5113
    2PC     O22 6114   4.279   1.593   5.444 -0.3412 -0.1063  0.9741
    3OL     C12 6115   4.474   1.708   5.515 -0.0075 -0.5300  0.3850
    3OL     H2R 6116   4.513   1.620   5.566  0.4469 -0.3889  0.2848
    3OL     H2S 6117   4.484   1.796   5.580  1.6455 -1.7941  1.9309
    3OL     C13 6118   4.545   1.727   5.380  0.6743  0.0427  0.8194
    3OL     H3R 6119   4.499   1.669   5.301  1.7063 -0.0883  0.2984
    3OL     H3S 6120   4.648   1.691   5.386  0.5902 -0.6821 -1.3128
    3OL     C14 6121   4.542   1.876   5.345  0.1420 -0.0777  0.3440
    3OL     H4R 6122   4.603   1.925   5.421  0.7326 -1.1045  0.5453
    3OL     H4S 6123   4.435   1.899   5.338  0.0004 -1.2085 -2.3344
    3OL     C15 6124   4.606   1.897   5.207  0.1642  0.1917  0.3931
    3OL     H5R 6125   4.689   1.826   5.206 -0.8033 -0.9851  0.8924
    3OL     H5S 6126   4.662   1.991   5.208 -1.7373  1.4455  3.6129
    3OL     C16 6127   4.499   1.880   5.098  0.6791 -0.4038 -0.0328
    3OL     H6R 6128   4.418   1.951   5.117  0.4177 -0.5377 -0.6269
    3OL     H6S 6129   4.457   1.780   5.085 -1.3883  0.4206 -0.0956
    3OL     C17 6130   4.558   1.922   4.963 -0.5033  0.5762 -0.2597
    3OL     H7R 6131   4.650   1.867   4.942 -0.9473 -1.7242  3.1183
    3OL     H7S 6132   4.591   2.025   4.976  1.5119  0.2118 -1.9223
    3OL     C18 6133   4.460   1.915   4.845 -0.5829 -0.3773 -0.1428
    3OL     H8R 6134   4.465   2.011   4.794 -0.3915 -1.0946 -1.5261
    3OL     H8S 6135   4.359   1.896   4.882 -0.8965  0.4046 -0.5901
    3OL     C19 6136   4.492   1.806   4.746  0.8737  0.4686 -0.6302
    3OL     H9R 6137   4.554   1.727   4.787 -2.5718 -1.3863  1.4192
    3OL    C110 6138   4.432   1.795   4.628  0.1186  0.2836 -0.2291
    3OL    H10R 6139   4.457   1.711   4.564 -1.7479 -1.4077  1.1242
    3OL    C111 6140   4.332   1.889   4.567 -0.2299 -0.2469 -0.4894
    3OL    H11R 6141   4.371   1.942   4.480 -0.3980 -2.0257 -1.6954
    3OL    H11S 6142   4.301   1.964   4.640  1.0376  0.3081 -0.4949
    3OL    C112 6143   4.211   1.817   4.506 -0.3257 -0.1496 -0.4130
    3OL    H12R 6144   4.191   1.728   4.566  0.4596 -0.2937 -0.3541
    3OL    H12S 6145   4.241   1.768   4.414  0.2033 -0.1085 -0.2652
    3OL    C113 6146   4.091   1.908   4.474 -0.4137 -0.2183 -0.2845
    3OL    H13R 6147   4.061   1.966   4.561  1.2692 -1.2314  1.0322
    3OL    H13S 6148   4.008   1.839   4.454  0.7049 -1.1368 -2.0667
    3OL    C114 6149   4.117   1.990   4.347  0.0147  0.4727  0.2432
    3OL    H14R 6150   4.192   1.939   4.286  0.9540 -0.2649  1.9436
    3OL    H14S 6151   4.164   2.085   4.374  1.5509  0.0209 -0.6784
    3OL    C115 6152   3.986   2.020   4.274 -0.3665 -0.5678  0.4860
    3OL    H15R 6153   3.988   2.112   4.214 -0.0345 -1.1237 -0.3764
    3OL    H15S 6154   3.912   2.024   4.354  1.5195  1.5240  2.2755
    3OL    C116 6155   3.943   1.907   4.179  0.0360 -0.0027 -0.3884
    3OL    H16R 6156   3.846   1.934   4.138  0.2877  0.0516 -0.9553
    3OL    H16S 6157   3.917   1.817   4.237  1.4626 -0.9261 -1.1237
    3OL    C117 6158   4.041   1.877   4.065  0.2596 -0.1751 -0.1530
    3OL    H17R 6159   4.113   1.960   4.062  0.0189  0.0771  0.7544
    3OL    H17S 6160   3.994   1.877   3.966  0.3238  3.9257 -0.3592
    3OL    C118 6161   4.120   1.749   4.097  0.4479  0.0341  0.2265
    3OL    H18R 6162   4.162   1.738   4.197  1.2810  1.4772  0.0649
    3OL    H18S 6163   4.200   1.736   4.024 -0.1524 -0.8757 -0.2861
    3OL    H18T 6164   4.059   1.664   4.066  0.4416  0.6863 -1.6588
    1PA    C116 6165   5.256   5.555   3.851  0.2317  0.1753 -0.7530
    1PA    H16R 6166   5.254   5.661   3.826 -1.6804  0.4345  0.3492
    1PA    H16S 6167   5.187   5.536   3.933  3.2878  0.1303  2.0204
    1PA    H16T 6168   5.224   5.487   3.771 -1.9620  0.1783  0.0611
    1PA    C115 6169   5.395   5.520   3.906  0.1081 -0.1984 -0.6769
    1PA    H15R 6170   5.469   5.524   3.826 -0.9231 -1.3915 -1.7370
    1PA    H15S 6171   5.426   5.604   3.968  1.6371  0.9503 -2.8469
    1PA    C114 6172   5.409   5.380   3.968 -0.3655  0.0416 -0.0169
    1PA    H14R 6173   5.502   5.387   4.025 -1.1506  1.4611  1.1398
    1PA    H14S 6174   5.322   5.372   4.033 -1.8365  3.8329 -1.2215
    1PA    C113 6175   5.415   5.276   3.855 -0.2519  0.0930 -0.0579
    1PA    H13R 6176   5.326   5.276   3.793 -1.9153  3.2927  2.0426
    1PA    H13S 6177   5.503   5.297   3.794  0.4803 -0.0427  0.9201
    1PA    C112 6178   5.445   5.139   3.916  0.0573  0.3484  0.3696
    1PA    H12R 6179   5.376   5.124   3.999  1.6698  1.5648  2.0098
    1PA    H12S 6180   5.451   5.062   3.839 -0.9378  1.1654 -0.5348
    1PA    C111 6181   5.592   5.123   3.958  0.0251 -0.6211  0.1372
    1PA    H11R 6182   5.638   5.033   3.915  0.8661 -0.6946  1.1360
    1PA    H11S 6183   5.644   5.211   3.922 -1.9893  1.9616  3.0202
    1PA    C110 6184   5.594   5.116   4.112  0.1038 -0.7348  0.1315
    1PA    H10R 6185   5.547   5.209   4.147  1.5684  1.0132 -2.2083
    1PA    H10S 6186   5.536   5.033   4.151  0.9885 -1.0267  0.8465
    1PA     C19 6187   5.737   5.090   4.161  0.2308  0.4355  0.4115
    1PA     H9R 6188   5.771   4.998   4.114  0.9275  0.0625  1.5995
    1PA     H9S 6189   5.806   5.168   4.127  0.5023 -0.1489 -0.4036
    1PA     C18 6190   5.736   5.083   4.314 -0.2226 -0.4356  0.3745
    1PA     H8R 6191   5.726   5.184   4.356 -0.1256 -0.2299 -0.0961
    1PA     H8S 6192   5.663   5.013   4.355  0.2971 -1.8699 -1.0819
    1PA     C17 6193   5.870   5.040   4.376  0.1067 -0.0864 -0.0864
    1PA     H7R 6194   5.890   4.934   4.360 -1.2939 -0.5296  0.9037
    1PA     H7S 6195   5.950   5.089   4.320 -0.8795 -0.1025 -1.5442
    1PA     C16 6196   5.866   5.052   4.529 -0.5480 -0.9013 -0.0319
    1PA     H6R 6197   5.854   5.155   4.562  1.4275 -0.1569 -1.4319
    1PA     H6S 6198   5.784   4.993   4.571  0.0932 -0.9912  1.1453
    1PA     C15 6199   5.994   5.016   4.606  0.2447 -0.1097 -0.9501
    1PA     H5R 6200   6.058   5.105   4.596  0.3042  0.0339  0.4302
    1PA     H5S 6201   5.966   5.016   4.712  0.5227  0.0774 -0.8748
    1PA     C14 6202   6.043   4.877   4.567  0.0056 -0.3896 -0.2673
    1PA     H4R 6203   5.961   4.805   4.563 -1.6192  1.3559  0.2011
    1PA     H4S 6204   6.086   4.873   4.467  0.6052 -0.6484 -0.0089
    1PA     C13 6205   6.153   4.827   4.663 -0.0714 -0.1214 -0.0392
    1PA     H3R 6206   6.226   4.908   4.666 -3.4073  3.1178  1.0650
    1PA     H3S 6207   6.107   4.811   4.761 -1.3282 -1.1862 -0.7613
    1PA     C12 6208   6.214   4.692   4.623  0.4364  0.1402 -0.1547
    1PA     H2R 6209   6.125   4.628   4.626 -0.6698  1.6467  2.0215
    1PA     H2S 6210   6.251   4.717   4.523  0.4592  1.3954  0.1472
    2PC     C11 6211   6.322   4.649   4.719  0.6859  1.1029  0.0021
    2PC     O12 6212   6.316   4.666   4.839  0.7194  0.6693  0.0660
    2PC     O11 6213   6.419   4.581   4.657 -0.1089 -0.0044 -0.0540
    2PC      C1 6214   6.526   4.532   4.741  0.2542 -0.1853 -0.6190
    2PC      HR 6215   6.612   4.504   4.679  1.0993  0.2455  0.3356
    2PC      HS 6216   6.565   4.605   4.812  1.0723 -1.4374  0.2662
    2PC      C2 6217   6.484   4.406   4.818  0.0122  0.2398 -0.0546
    2PC      HX 6218   6.405   4.436   4.888 -1.4036 -1.1243 -0.9906
    2PC      C3 6219   6.592   4.342   4.907 -0.1124 -0.4469 -0.3873
    2PC      HA 6220   6.671   4.288   4.855 -0.7880 -0.6219 -1.2511
    2PC      HB 6221   6.636   4.427   4.961  0.0287  0.8629 -2.4550
    2PC     O31 6222   6.519   4.255   4.996 -0.0913 -0.2817 -0.2083
    2PC     P31 6223   6.586   4.214   5.135 -0.1443  0.1472 -0.0535
    2PC     O32 6224   6.477   4.273   5.236  0.0767 -0.4343  0.5365
    2PC     C31 6225   6.519   4.356   5.346  0.1620  0.3389 -0.0743
    2PC     H1A 6226   6.530   4.298   5.437  1.4442  0.7175  0.0295
    2PC     H1B 6227   6.610   4.410   5.319  0.7191 -0.5264  0.0391
    2PC     C32 6228   6.406   4.455   5.379  0.6472  0.7780  0.2667
    2PC     H2A 6229   6.315   4.404   5.408  1.0438 -1.5653 -2.2315
    2PC     H2B 6230   6.437   4.525   5.457 -1.7603  1.5215  0.6396
    2PC     N31 6231   6.364   4.546   5.268  0.1066  0.1878 -0.0132
    2PC     C33 6232   6.284   4.476   5.162  0.3278 -0.3196  0.1543
    2PC     H3A 6233   6.180   4.471   5.195 -0.1577 -0.6407 -1.3356
    2PC     H3B 6234   6.287   4.535   5.071  0.0595 -0.6492 -0.0710
    2PC     H3C 6235   6.320   4.374   5.144  3.8175  1.0162 -1.1978
    2PC     C34 6236   6.276   4.653   5.325 -0.1083 -0.0189  0.0447
    2PC     H4A 6237   6.340   4.717   5.386 -1.1183  3.2069 -2.0342
    2PC     H4B 6238   6.240   4.720   5.247 -0.0907  0.4877  0.4679
    2PC     H4C 6239   6.195   4.600   5.375  0.8259 -0.8871  0.6687
    2PC     C35 6240   6.484   4.605   5.200 -0.0331  0.5274  0.0339
    2PC     H5A 6241   6.538   4.668   5.271  0.6401  0.0762 -0.0666
    2PC     H5B 6242   6.451   4.662   5.113  0.7329 -0.5592 -0.9908
    2PC     H5C 6243   6.551   4.526   5.166 -1.5764 -0.4500 -0.8939
    2PC     O33 6244   6.603   4.067   5.136 -0.2873  0.1300 -0.1926
    2PC     O34 6245   6.717   4.279   5.164 -0.0422  0.0219 -0.2350
    2PC     O21 6246   6.422   4.310   4.731  0.1055 -0.3735  0.5436
    2PC     C21 6247   6.487   4.239   4.637  0.3090  0.5979 -0.0664
    2PC     O22 6248   6.607   4.238   4.619  0.3007 -0.1770 -0.1432
    3OL     C12 6249   6.394   4.151   4.557  0.4073  0.0997  0.3610
    3OL     H2R 6250   6.310   4.216   4.529  2.4193  2.4832 -0.4851
    3OL     H2S 6251   6.360   4.073   4.626 -0.3735  0.5916  0.5514
    3OL     C13 6252   6.466   4.091   4.436 -0.2749  0.0593 -0.0279
    3OL     H3R 6253   6.551   4.030   4.466  0.3957  0.7807 -0.4044
    3OL     H3S 6254   6.515   4.174   4.384  2.2708 -0.4494  1.4303
    3OL     C14 6255   6.364   4.024   4.341 -0.2762 -0.0219  0.0308
    3OL     H4R 6256   6.285   4.098   4.328  0.7998  1.4930  1.5400
    3OL     H4S 6257   6.323   3.933   4.384  1.9870 -2.7509 -3.1589
    3OL     C15 6258   6.424   3.986   4.205 -0.0133  0.1080  0.1089
    3OL     H5R 6259   6.506   3.916   4.222  0.6386  1.4143  2.9610
    3OL     H5S 6260   6.464   4.077   4.159  2.0065 -1.1260 -0.6916
    3OL     C16 6261   6.317   3.928   4.112  0.0583 -0.0529  0.1265
    3OL     H6R 6262   6.226   3.986   4.132  0.0417 -1.1639  3.9680
    3OL     H6S 6263   6.303   3.828   4.154  1.3477 -0.3574 -0.1384
    3OL     C17 6264   6.366   3.921   3.967  0.3770 -0.0459  0.2330
    3OL     H7R 6265   6.470   3.892   3.954  0.3663  0.1923 -0.4282
    3OL     H7S 6266   6.372   4.014   3.911  1.0673 -0.9738 -1.3374
    3OL     C18 6267   6.280   3.831   3.876  0.6878  0.3215 -0.4332
    3OL     H8R 6268   6.176   3.840   3.909  1.1304 -1.6071  1.7223
    3OL     H8S 6269   6.308   3.727   3.892 -0.2488  0.2177  0.6648
    3OL     C19 6270   6.295   3.872   3.732  0.1186  0.6717 -0.3979
    3OL     H9R 6271   6.389   3.837   3.689 -0.8691  0.5247 -2.5598
    3OL    C110 6272   6.207   3.941   3.661 -0.1566  0.3388 -0.3838
    3OL    H10R 6273   6.236   3.968   3.559  0.7187 -1.1862 -0.5836
    3OL    C111 6274   6.080   4.003   3.711 -0.2713  0.1941 -0.4939
    3OL    H11R 6275   6.053   4.100   3.669 -0.7593  0.2444 -0.0876
    3OL    H11S 6276   6.092   4.019   3.819 -0.1201 -2.8744  0.0199
    3OL    C112 6277   5.959   3.912   3.686 -0.1905  0.2035 -0.9164
    3OL    H12R 6278   5.975   3.807   3.711 -1.7846 -0.1793 -1.3950
    3OL    H12S 6279   5.939   3.904   3.579 -2.4830 -1.1743 -0.4418
    3OL    C113 6280   5.838   3.961   3.767  0.2434  0.4276 -0.3955
    3OL    H13R 6281   5.883   3.966   3.866  1.5255  0.2172 -0.9482
    3OL    H13S 6282   5.762   3.883   3.771  0.8429 -0.3584 -2.6004
    3OL    C114 6283   5.779   4.097   3.727  0.2745  0.4460 -0.3790
    3OL    H14R 6284   5.748   4.076   3.624  3.5311 -1.4268 -1.1071
    3OL    H14S 6285   5.856   4.174   3.732 -0.5745  1.3125 -0.1710
    3OL    C115 6286   5.668   4.134   3.827  0.3171 -0.4678  0.0130
    3OL    H15R 6287   5.649   4.240   3.811 -0.9254 -0.5216  0.9519
    3OL    H15S 6288   5.703   4.124   3.931  0.0008 -0.7153  0.0972
    3OL    C116 6289   5.542   4.049   3.809  0.0217 -0.0664  0.1813
    3OL    H16R 6290   5.552   3.944   3.838  0.5115  0.2667  1.2529
    3OL    H16S 6291   5.517   4.049   3.703  2.1562  2.7686 -0.4266
    3OL    C117 6292   5.421   4.096   3.892 -0.1606 -0.2752  0.0374
    3OL    H17R 6293   5.330   4.051   3.852  1.2015 -1.9273 -1.3822
    3OL    H17S 6294   5.425   4.203   3.868  1.8562 -0.8927 -2.9664
    3OL    C118 6295   5.427   4.067   4.042  0.4100 -0.2013  0.0318
    3OL    H18R 6296   5.394   3.966   4.067  1.9200 -0.4987  0.9342
    3OL    H18S 6297   5.390   4.148   4.106  0.7781  0.6107 -0.7714
    3OL    H18T 6298   5.531   4.078   4.074  0.2766 -0.6609  0.6410
    1PA    C116 6299   0.177   5.169   3.331  0.7217 -0.6934  0.9911
    1PA    H16R 6300   0.124   5.264   3.325  0.4882 -0.8453  0.6127
    1PA    H16S 6301   0.140   5.123   3.423 -0.0776 -1.2919  0.3846
    1PA    H16T 6302   0.144   5.110   3.244  0.6396  3.2535 -1.9139
    1PA    C115 6303   0.329   5.192   3.336  0.7461 -0.5469 -0.1079
    1PA    H15R 6304   0.375   5.104   3.290  0.8811  0.2018 -1.4558
    1PA    H15S 6305   0.358   5.276   3.273  0.4906 -2.0148 -2.3114
    1PA    C114 6306   0.375   5.214   3.481  0.2002  0.0346 -0.0137
    1PA    H14R 6307   0.337   5.125   3.532  0.2525 -1.9849 -3.1523
    1PA    H14S 6308   0.484   5.205   3.474  0.2917 -0.1588  1.4835
    1PA    C113 6309   0.335   5.347   3.545 -0.4475 -0.2754  0.2329
    1PA    H13R 6310   0.375   5.427   3.483  3.1624 -2.1594 -0.1739
    1PA    H13S 6311   0.228   5.366   3.552 -0.5199 -0.1666 -0.9884
    1PA    C112 6312   0.391   5.343   3.688 -0.2755  0.2974  0.1832
    1PA    H12R 6313   0.372   5.248   3.737 -1.6327 -0.1709 -1.1726
    1PA    H12S 6314   0.498   5.358   3.674 -0.4873  0.8590 -0.9806
    1PA    C111 6315   0.335   5.453   3.780 -0.0864  0.2738  0.3258
    1PA    H11R 6316   0.325   5.545   3.722 -0.3202  1.2692  1.8963
    1PA    H11S 6317   0.236   5.422   3.814  0.0112  0.5846  0.9027
    1PA    C110 6318   0.434   5.485   3.893  0.2958  0.5057 -0.0739
    1PA    H10R 6319   0.531   5.497   3.845  0.1283 -2.6772 -1.4730
    1PA    H10S 6320   0.397   5.575   3.942  0.7332 -0.1668  1.5466
    1PA     C19 6321   0.461   5.382   4.003  0.2708  0.3688 -0.1961
    1PA     H9R 6322   0.475   5.286   3.953  0.1409  0.1391  0.2043
    1PA     H9S 6323   0.557   5.398   4.053  1.1242 -2.6775 -0.6368
    1PA     C18 6324   0.353   5.386   4.112  0.6036 -0.3471  0.1735
    1PA     H8R 6325   0.327   5.492   4.123  0.1002 -0.2651 -1.4406
    1PA     H8S 6326   0.261   5.339   4.076  0.2915  0.4959 -0.1846
    1PA     C17 6327   0.414   5.334   4.242  0.4742  0.1866  0.4510
    1PA     H7R 6328   0.446   5.231   4.228 -1.9502 -0.5253 -0.2976
    1PA     H7S 6329   0.505   5.390   4.265  1.7687  0.6209 -4.5953
    1PA     C16 6330   0.316   5.343   4.359  0.2656  0.3191  0.2660
    1PA     H6R 6331   0.255   5.432   4.340 -1.9501 -1.1632  0.0888
    1PA     H6S 6332   0.245   5.261   4.345  1.1318 -0.0254 -2.7163
    1PA     C15 6333   0.380   5.332   4.499 -0.0084 -0.1125  0.3591
    1PA     H5R 6334   0.406   5.226   4.502  0.2404 -0.0918 -0.5654
    1PA     H5S 6335   0.464   5.401   4.505 -1.0081  1.1968 -0.0999
    1PA     C14 6336   0.277   5.359   4.609 -0.0422 -0.4857  0.4190
    1PA     H4R 6337   0.257   5.466   4.619 -0.2609 -0.3439 -1.2632
    1PA     H4S 6338   0.179   5.313   4.593 -0.8634  1.6800 -1.2114
    1PA     C13 6339   0.329   5.292   4.738 -0.3690  0.1102  0.8661
    1PA     H3R 6340   0.248   5.284   4.811 -0.3095  0.3977  0.9639
    1PA     H3S 6341   0.363   5.192   4.714 -2.5558 -0.4664 -0.1449
    1PA     C12 6342   0.445   5.373   4.796  0.0693  0.0826  0.0481
    1PA     H2R 6343   0.533   5.381   4.732  0.4402  2.3765  0.7423
    1PA     H2S 6344   0.406   5.472   4.821  1.5637  0.6874  0.1152
    2PC     C11 6345   0.502   5.304   4.918  0.2318  0.6433  0.2965
    2PC     O12 6346   0.472   5.323   5.034 -0.2932  0.3655  0.2094
    2PC     O11 6347   0.602   5.219   4.889  0.0523  0.5891 -0.1748
    2PC      C1 6348   0.680   5.169   4.998 -0.0821 -0.1942 -0.4331
    2PC      HR 6349   0.764   5.114   4.955  0.2192  0.1231 -0.2578
    2PC      HS 6350   0.723   5.246   5.063  0.2771  1.0943 -2.1393
    2PC      C2 6351   0.602   5.052   5.062  0.2702 -0.1771  0.0315
    2PC      HX 6352   0.516   5.100   5.109  1.1833  0.3771  1.1970
    2PC      C3 6353   0.681   4.978   5.171  0.4168  0.0450  0.0771
    2PC      HA 6354   0.746   4.899   5.134 -0.9610 -0.7369 -0.7451
    2PC      HB 6355   0.741   5.056   5.220 -0.3785  0.6152  0.1675
    2PC     O31 6356   0.595   4.922   5.272 -0.0104 -0.3551 -0.5054
    2PC     P31 6357   0.646   4.822   5.385 -0.0942  0.1771  0.0077
    2PC     O32 6358   0.606   4.674   5.338  0.2654  0.1448 -0.1947
    2PC     C31 6359   0.701   4.603   5.256  0.5059 -0.0756  0.2688
    2PC     H1A 6360   0.684   4.638   5.154 -1.1485 -2.9642 -0.5553
    2PC     H1B 6361   0.803   4.613   5.293  0.6240  2.4511 -0.5523
    2PC     C32 6362   0.641   4.462   5.260 -0.4613  0.3321  0.3454
    2PC     H2A 6363   0.533   4.467   5.247 -0.6427  0.0142  1.5815
    2PC     H2B 6364   0.686   4.399   5.184 -0.6642  1.4667 -0.7632
    2PC     N31 6365   0.658   4.377   5.382 -0.0052  0.2320  0.2149
    2PC     C33 6366   0.555   4.417   5.484  0.0523  0.5894  0.1356
    2PC     H3A 6367   0.574   4.520   5.513 -0.2610  0.2541  1.5854
    2PC     H3B 6368   0.456   4.402   5.440  0.7716 -2.1591 -0.7950
    2PC     H3C 6369   0.557   4.355   5.574  1.0538 -2.0339 -1.5595
    2PC     C34 6370   0.640   4.232   5.348  0.3577  0.2939 -0.2404
    2PC     H4A 6371   0.538   4.218   5.311 -0.4969  1.1947  1.6349
    2PC     H4B 6372   0.720   4.199   5.282 -0.7423 -0.3170 -1.2982
    2PC     H4C 6373   0.635   4.167   5.435 -0.3642 -1.9921 -1.9172
    2PC     C35 6374   0.789   4.400   5.450 -0.2695  0.3797  0.6842
    2PC     H5A 6375   0.785   4.498   5.499 -0.4572  0.1959  1.0381
    2PC     H5B 6376   0.871   4.401   5.377 -0.6017  0.8944  0.3063
    2PC     H5C 6377   0.796   4.328   5.531 -0.9641 -1.0362 -0.4926
    2PC     O33 6378   0.786   4.846   5.426 -0.1771 -0.3953  0.6554
    2PC     O34 6379   0.574   4.853   5.511  0.1812  0.3967  0.1103
    2PC     O21 6380   0.556   4.956   4.966  0.3192 -0.4578  0.2894
    2PC     C21 6381   0.635   4.877   4.891  0.0703 -0.0723 -0.3812
    2PC     O22 6382   0.756   4.879   4.901 -0.0198  0.2767  0.7605
    3OL     C12 6383   0.553   4.809   4.784 -0.3911  0.6226 -0.4746
    3OL     H2R 6384   0.450   4.812   4.820  0.3334 -0.8431  1.9142
    3OL     H2S 6385   0.590   4.707   4.786  0.2222  0.8524  0.1845
    3OL     C13 6386   0.575   4.890   4.655 -0.0279  1.1527 -0.0837
    3OL     H3R 6387   0.678   4.878   4.622  0.5115  3.5759  0.5114
    3OL     H3S 6388   0.568   4.997   4.676  1.3420  1.6905 -2.0737
    3OL     C14 6389   0.490   4.855   4.532  0.3773  0.1966 -0.0965
    3OL     H4R 6390   0.384   4.874   4.547  0.0877 -0.3537 -1.2845
    3OL     H4S 6391   0.500   4.751   4.499  2.0189  0.0905  0.6260
    3OL     C15 6392   0.531   4.955   4.423 -0.7275  0.6266 -0.1215
    3OL     H5R 6393   0.639   4.951   4.415 -0.6787  1.0780  0.2798
    3OL     H5S 6394   0.508   5.061   4.437 -1.0114  0.9689 -2.6665
    3OL     C16 6395   0.473   4.925   4.283 -0.1651  0.5524 -0.3400
    3OL     H6R 6396   0.504   4.827   4.246  1.1351  1.9145 -3.1412
    3OL     H6S 6397   0.516   4.999   4.215  0.8575 -0.4992 -0.8679
    3OL     C17 6398   0.321   4.943   4.278 -0.1782  0.5287 -0.0503
    3OL     H7R 6399   0.303   5.047   4.307  1.2134  0.2149  2.2416
    3OL     H7S 6400   0.277   4.885   4.360 -2.1097  0.5451 -1.0299
    3OL     C18 6401   0.257   4.906   4.144  0.0237  0.4437 -0.1238
    3OL     H8R 6402   0.320   4.950   4.066 -0.1661  0.8834 -0.0299
    3OL     H8S 6403   0.155   4.942   4.129 -0.2974 -0.3016  0.2538
    3OL     C19 6404   0.247   4.756   4.131  0.6651  0.3621  0.2813
    3OL     H9R 6405   0.231   4.699   4.222  0.0812  0.9951  0.5871
    3OL    C110 6406   0.254   4.689   4.017  0.2315  0.6780  0.0626
    3OL    H10R 6407   0.248   4.580   4.021 -0.5850  0.7331  0.6811
    3OL    C111 6408   0.290   4.734   3.878 -0.3563 -0.0664 -0.3389
    3OL    H11R 6409   0.336   4.833   3.882 -2.1509  0.8191  3.5808
    3OL    H11S 6410   0.208   4.729   3.807  0.2425  0.6885 -1.1057
    3OL    C112 6411   0.402   4.641   3.828  0.1273  0.1457  0.3404
    3OL    H12R 6412   0.432   4.671   3.728 -1.0362  1.5956  0.3866
    3OL    H12S 6413   0.366   4.540   3.813 -0.8921  0.7003 -1.1189
    3OL    C113 6414   0.528   4.633   3.915  0.2551 -0.2762  0.1154
    3OL    H13R 6415   0.496   4.593   4.011  1.2270  0.9482  0.9821
    3OL    H13S 6416   0.555   4.737   3.935 -0.2470  0.3572 -2.2523
    3OL    C114 6417   0.644   4.559   3.846 -0.2182 -0.6137 -0.3182
    3OL    H14R 6418   0.683   4.609   3.758 -2.2385 -1.5199 -1.8127
    3OL    H14S 6419   0.603   4.460   3.823 -1.0505 -0.4072  0.2286
    3OL    C115 6420   0.756   4.548   3.950 -0.0359  0.9699 -0.3305
    3OL    H15R 6421   0.720   4.491   4.036 -1.0380 -0.1062 -1.4254
    3OL    H15S 6422   0.787   4.644   3.993  0.6423  1.0783 -1.0497
    3OL    C116 6423   0.878   4.477   3.890 -0.1672 -0.3920  0.9488
    3OL    H16R 6424   0.907   4.540   3.806 -0.7658  1.2087  1.8991
    3OL    H16S 6425   0.855   4.374   3.863 -1.3240  0.0083  0.2912
    3OL    C117 6426   0.995   4.475   3.989 -0.2160  0.1825  1.0215
    3OL    H17R 6427   0.992   4.571   4.042  0.6283  1.7934 -1.6647
    3OL    H17S 6428   1.089   4.478   3.934 -1.0452 -0.1631 -0.4830
    3OL    C118 6429   0.984   4.353   4.081  0.1180 -0.7195 -0.1150
    3OL    H18R 6430   0.887   4.355   4.132  1.2529 -1.7967  2.2329
    3OL    H18S 6431   1.051   4.349   4.167 -0.5139  0.0210  0.4270
    3OL    H18T 6432   0.999   4.262   4.023  2.1919 -1.1868  1.0569
    1PA    C116 6433   4.287   5.323   3.348  1.2151  0.3733  0.2007
    1PA    H16R 6434   4.274   5.219   3.379 -2.1795  0.2824 -1.1589
    1PA    H16S 6435   4.390   5.353   3.324  1.3982 -0.7730 -0.5201
    1PA    H16T 6436   4.223   5.352   3.264  1.2900  0.8753  0.3125
    1PA    C115 6437   4.233   5.403   3.466  0.1461 -0.0446  0.0059
    1PA    H15R 6438   4.231   5.506   3.430  0.0060 -0.3581 -0.8849
    1PA    H15S 6439   4.126   5.390   3.484  0.4316 -1.8455  0.5443
    1PA    C114 6440   4.322   5.372   3.588  0.1650 -0.0209 -0.0020
    1PA    H14R 6441   4.341   5.267   3.606 -0.3493 -0.3453 -1.2379
    1PA    H14S 6442   4.418   5.417   3.562  1.0372 -1.8410 -0.0301
    1PA    C113 6443   4.278   5.452   3.711  0.6010 -0.2597  0.3107
    1PA    H13R 6444   4.173   5.432   3.738  0.1769  1.8837  0.4225
    1PA    H13S 6445   4.335   5.408   3.793 -0.1516 -2.2963 -0.2086
    1PA    C112 6446   4.285   5.605   3.715  0.0166 -0.2220  0.0692
    1PA    H12R 6447   4.391   5.630   3.700 -0.0846 -0.7506 -1.7772
    1PA    H12S 6448   4.234   5.656   3.632 -0.0486 -0.0110  0.2385
    1PA    C111 6449   4.243   5.668   3.848  0.2486  0.1715 -0.0398
    1PA    H11R 6450   4.277   5.605   3.930 -0.9001 -1.0214 -0.4453
    1PA    H11S 6451   4.287   5.768   3.850  0.7382  0.0060 -1.4297
    1PA    C110 6452   4.091   5.691   3.852  0.2371  0.0410  0.3087
    1PA    H10R 6453   4.065   5.761   3.772 -4.6087  1.4851  2.7831
    1PA    H10S 6454   4.027   5.607   3.827  1.1092 -0.5301 -0.0652
    1PA     C19 6455   4.042   5.763   3.978 -0.2874  0.4749 -0.1400
    1PA     H9R 6456   4.109   5.847   3.996  1.4110 -0.5896 -1.2731
    1PA     H9S 6457   3.942   5.805   3.963 -0.2067  0.6076 -0.3037
    1PA     C18 6458   4.033   5.673   4.102  0.5798  0.7182  0.1021
    1PA     H8R 6459   3.993   5.576   4.071  1.2166  0.1076  1.1245
    1PA     H8S 6460   4.133   5.650   4.141  0.2366 -1.9326 -0.3677
    1PA     C17 6461   3.945   5.737   4.209  0.2456 -0.0349  0.2873
    1PA     H7R 6462   3.989   5.828   4.251  0.6343 -0.8861  1.7548
    1PA     H7S 6463   3.848   5.767   4.168 -0.0611  0.5937  1.4410
    1PA     C16 6464   3.920   5.638   4.323 -0.0738 -0.1568  0.1138
    1PA     H6R 6465   3.839   5.575   4.284 -1.5402  1.7229 -0.0212
    1PA     H6S 6466   4.011   5.578   4.331  0.8443  0.9423 -1.4927
    1PA     C15 6467   3.891   5.701   4.460 -0.0984 -0.0547  0.0622
    1PA     H5R 6468   3.975   5.763   4.492  0.1382 -1.2165  1.9148
    1PA     H5S 6469   3.808   5.769   4.445  1.1407  1.6371  0.6212
    1PA     C14 6470   3.867   5.585   4.559 -0.0038 -0.2315 -0.1220
    1PA     H4R 6471   3.794   5.520   4.511  2.2105 -2.0355 -1.2737
    1PA     H4S 6472   3.958   5.525   4.569  1.0270  1.1685 -0.7796
    1PA     C13 6473   3.812   5.648   4.687  0.4553 -0.4124  0.1668
    1PA     H3R 6474   3.737   5.724   4.664 -0.4233 -1.5344 -0.7973
    1PA     H3S 6475   3.762   5.573   4.749  1.3062  0.2519  1.7312
    1PA     C12 6476   3.930   5.696   4.773  0.3354 -0.4633  0.3620
    1PA     H2R 6477   3.986   5.604   4.794 -0.9246 -1.3306  0.0606
    1PA     H2S 6478   3.988   5.763   4.708 -1.2050  0.2503 -0.3208
    2PC     C11 6479   3.904   5.776   4.898  0.1636  0.6524 -0.3727
    2PC     O12 6480   3.793   5.821   4.915  0.0038  0.1080  0.0625
    2PC     O11 6481   4.010   5.800   4.978 -0.2823  0.1653  0.3764
    2PC      C1 6482   3.992   5.848   5.112 -0.0641 -0.5262  0.6581
    2PC      HR 6483   3.958   5.952   5.108 -0.9866 -0.8433 -0.1192
    2PC      HS 6484   3.919   5.786   5.163 -0.9466 -0.1780 -0.1504
    2PC      C2 6485   4.129   5.847   5.182 -0.0041 -0.3592  0.5457
    2PC      HX 6486   4.179   5.752   5.158  2.7225  1.5356 -2.0445
    2PC      C3 6487   4.105   5.879   5.330  0.3768 -0.1541  0.5652
    2PC      HA 6488   4.065   5.793   5.385  1.2419 -0.2112  1.1098
    2PC      HB 6489   4.196   5.918   5.375  1.0050 -1.2247  0.2666
    2PC     O31 6490   4.009   5.985   5.322  0.4358 -0.1375  0.0606
    2PC     P31 6491   3.984   6.056   5.463 -0.1270 -0.0070 -0.0983
    2PC     O32 6492   3.919   5.941   5.555  0.2037  0.0510  0.2129
    2PC     C31 6493   3.912   5.959   5.697 -0.0722 -0.2960  0.2436
    2PC     H1A 6494   4.010   5.989   5.735 -0.6253  1.2356  0.5327
    2PC     H1B 6495   3.855   6.052   5.703 -1.0670 -0.7381 -1.5703
    2PC     C32 6496   3.846   5.842   5.772  0.1565 -0.3578  0.3495
    2PC     H2A 6497   3.897   5.746   5.772 -1.8877 -1.5164  0.7132
    2PC     H2B 6498   3.856   5.856   5.880 -1.9381 -0.0432  0.5543
    2PC     N31 6499   3.698   5.823   5.753  0.1226  0.2053  0.0218
    2PC     C33 6500   3.660   5.688   5.805 -0.1170  0.0066 -0.6658
    2PC     H3A 6501   3.689   5.603   5.743 -0.6873  0.7369 -1.9659
    2PC     H3B 6502   3.696   5.691   5.908 -0.3869  1.5974 -0.5941
    2PC     H3C 6503   3.552   5.681   5.816  0.1169 -0.7144  1.8423
    2PC     C34 6504   3.622   5.922   5.836  0.1077 -0.1205  0.4016
    2PC     H4A 6505   3.527   5.938   5.786 -0.2255 -3.6132 -0.2991
    2PC     H4B 6506   3.595   5.880   5.932  4.1233  1.2702  2.3925
    2PC     H4C 6507   3.670   6.021   5.835 -1.3653  0.6380  1.2397
    2PC     C35 6508   3.654   5.815   5.610  0.2346  0.2801 -0.0170
    2PC     H5A 6509   3.677   5.909   5.560  0.1656  0.5853  0.5183
    2PC     H5B 6510   3.546   5.806   5.602  0.1279 -0.1993  1.6487
    2PC     H5C 6511   3.710   5.735   5.561  0.6685  0.6588 -0.1505
    2PC     O33 6512   4.115   6.099   5.516 -0.6024  0.4113  0.7543
    2PC     O34 6513   3.896   6.174   5.448  0.2982  0.3588  0.2504
    2PC     O21 6514   4.212   5.940   5.110 -0.2889 -0.7972 -0.3672
    2PC     C21 6515   4.343   5.939   5.139 -0.3053  0.7310 -0.1477
    2PC     O22 6516   4.400   5.859   5.210 -0.9142  0.6489  0.2559
    3OL     C12 6517   4.417   6.047   5.065  0.1447  0.6997  0.2530
    3OL     H2R 6518   4.394   6.142   5.115  0.9760  0.5260  0.9842
    3OL     H2S 6519   4.383   6.039   4.962  0.5961 -0.4557  0.1836
    3OL     C13 6520   4.568   6.020   5.054  0.0287  0.1615 -0.0431
    3OL     H3R 6521   4.591   5.923   5.011  2.8501  0.1342  1.3274
    3OL     H3S 6522   4.617   6.015   5.151  2.5661  2.7597 -1.0444
    3OL     C14 6523   4.640   6.133   4.979  0.2943 -0.1039 -0.1907
    3OL     H4R 6524   4.746   6.107   4.984  1.0686  2.7464  0.2459
    3OL     H4S 6525   4.634   6.234   5.020  2.4066  0.0989 -0.2926
    3OL     C15 6526   4.614   6.141   4.828  0.5625 -0.7293 -0.2716
    3OL     H5R 6527   4.513   6.167   4.797 -0.1719 -0.5958  2.0227
    3OL     H5S 6528   4.626   6.042   4.783 -0.5316 -0.1844 -1.8424
    3OL     C16 6529   4.722   6.230   4.764  0.8140 -0.7554  0.1060
    3OL     H6R 6530   4.815   6.181   4.791 -0.5941 -3.8877 -0.1930
    3OL     H6S 6531   4.716   6.328   4.811 -2.5975 -0.7138 -0.1135
    3OL     C17 6532   4.708   6.240   4.611  0.5028  0.1700  0.1907
    3OL     H7R 6533   4.723   6.148   4.555  2.0526  1.3246 -1.4453
    3OL     H7S 6534   4.791   6.307   4.586  1.4929 -0.7662  0.9022
    3OL     C18 6535   4.572   6.299   4.572  0.4809 -0.1567 -0.2260
    3OL     H8R 6536   4.539   6.373   4.645 -0.1497 -1.3904  0.7870
    3OL     H8S 6537   4.498   6.218   4.573  1.2378 -0.8873 -1.1394
    3OL     C19 6538   4.568   6.342   4.427 -0.4104  0.3810 -0.0514
    3OL     H9R 6539   4.653   6.303   4.372 -0.1285  0.7941  0.0864
    3OL    C110 6540   4.470   6.405   4.365 -0.0095  0.7672 -0.2989
    3OL    H10R 6541   4.483   6.431   4.260 -0.0921 -3.7419 -1.6696
    3OL    C111 6542   4.336   6.429   4.430 -0.0438 -0.2568  0.0292
    3OL    H11R 6543   4.325   6.527   4.476 -0.8198 -0.1940 -0.2701
    3OL    H11S 6544   4.313   6.360   4.511  0.3335 -0.0772  0.2927
    3OL    C112 6545   4.224   6.410   4.327 -0.2726 -0.5777  0.3370
    3OL    H12R 6546   4.233   6.319   4.268  0.4441  0.0027 -0.4737
    3OL    H12S 6547   4.233   6.495   4.260  1.4540  0.1264  1.3898
    3OL    C113 6548   4.077   6.416   4.371 -0.3192 -0.0998  0.1209
    3OL    H13R 6549   4.052   6.344   4.450  1.0781 -2.4770 -1.4868
    3OL    H13S 6550   4.013   6.397   4.285 -0.2976  1.3035 -0.2270
    3OL    C114 6551   4.043   6.557   4.421 -0.5958  0.0685 -0.5283
    3OL    H14R 6552   4.029   6.610   4.327 -0.9653 -0.6942 -0.9139
    3OL    H14S 6553   4.112   6.610   4.487 -1.6660  0.2488  0.4781
    3OL    C115 6554   3.901   6.565   4.480 -0.2452  0.1975  0.3186
    3OL    H15R 6555   3.830   6.501   4.427 -1.3697  0.4727  1.4302
    3OL    H15S 6556   3.874   6.671   4.472  0.3407  0.5709  2.7338
    3OL    C116 6557   3.905   6.521   4.627  0.4305  0.0150  0.2500
    3OL    H16R 6558   3.975   6.587   4.678  0.1066  0.8460 -0.3589
    3OL    H16S 6559   3.926   6.415   4.642 -0.1098 -0.2576 -0.8006
    3OL    C117 6560   3.770   6.522   4.701  0.2124  0.3436 -0.1454
    3OL    H17R 6561   3.777   6.478   4.801 -0.7460  0.5233  0.0043
    3OL    H17S 6562   3.702   6.458   4.645 -0.9933 -0.1478  1.7930
    3OL    C118 6563   3.720   6.667   4.708  0.4278  0.4280 -0.3207
    3OL    H18R 6564   3.772   6.734   4.776 -1.0079  0.6064  0.6375
    3OL    H18S 6565   3.616   6.663   4.742  0.7337  1.0324  0.7283
    3OL    H18T 6566   3.709   6.713   4.610 -1.5885 -0.3121 -0.4968
    1PA    C116 6567   6.034   1.478   4.363 -0.3674 -0.9239 -0.2163
    1PA    H16R 6568   6.007   1.508   4.262  2.1880  0.6696 -0.4944
    1PA    H16S 6569   6.066   1.373   4.361 -0.7902 -1.2220  2.9735
    1PA    H16T 6570   6.111   1.552   4.382 -0.0776 -1.5608  1.2842
    1PA    C115 6571   5.923   1.491   4.469 -0.4250 -0.8292 -0.2885
    1PA    H15R 6572   5.887   1.594   4.463  1.3274 -0.2021 -0.6242
    1PA    H15S 6573   5.848   1.418   4.438 -1.1607 -0.8540  1.4366
    1PA    C114 6574   5.973   1.459   4.610 -0.0061  0.4270 -0.1354
    1PA    H14R 6575   5.893   1.433   4.679  0.4396  0.6515  0.4734
    1PA    H14S 6576   6.038   1.371   4.614 -3.7677 -2.6608 -1.1628
    1PA    C113 6577   6.060   1.568   4.674  0.0674  0.0164  0.4769
    1PA    H13R 6578   6.106   1.517   4.758  1.4409 -0.4055 -0.4927
    1PA    H13S 6579   6.144   1.605   4.614 -1.4396  1.3705 -0.8889
    1PA    C112 6580   5.980   1.693   4.711  0.1817  0.3455 -0.3699
    1PA    H12R 6581   5.959   1.754   4.623 -1.4751 -0.6125 -0.6723
    1PA    H12S 6582   5.883   1.657   4.745  0.5935  0.0475  0.5065
    1PA    C111 6583   6.047   1.771   4.825 -0.0093 -0.6112  0.3997
    1PA    H11R 6584   6.067   1.720   4.920  0.3341  0.8126  1.1108
    1PA    H11S 6585   6.138   1.816   4.787 -0.7458 -1.3932 -2.5007
    1PA    C110 6586   5.956   1.887   4.868  0.0870 -0.2987 -0.2396
    1PA    H10R 6587   5.936   1.955   4.785  0.2468 -0.3855 -0.3504
    1PA    H10S 6588   5.858   1.856   4.905  0.0913 -0.1152 -0.0705
    1PA     C19 6589   6.022   1.949   4.992 -0.4413 -0.1264 -0.0438
    1PA     H9R 6590   6.027   1.878   5.075  0.9712  1.0795  0.9758
    1PA     H9S 6591   6.121   1.980   4.958 -0.8655 -0.4112 -1.5990
    1PA     C18 6592   5.932   2.067   5.032 -0.2216  0.1074 -0.2371
    1PA     H8R 6593   5.917   2.137   4.950  1.2158  0.8958  0.1266
    1PA     H8S 6594   5.838   2.024   5.066  0.5642 -1.5678 -0.0570
    1PA     C17 6595   6.009   2.144   5.141 -0.1545 -0.9371  0.4640
    1PA     H7R 6596   6.047   2.078   5.219 -0.3043 -1.3355  0.2048
    1PA     H7S 6597   6.092   2.197   5.093 -0.6854 -0.5368 -0.0189
    1PA     C16 6598   5.911   2.249   5.195  0.3149 -0.3708  0.2235
    1PA     H6R 6599   5.889   2.319   5.114 -0.4685 -1.5015 -0.5895
    1PA     H6S 6600   5.816   2.201   5.218 -0.4275 -0.4606 -2.5762
    1PA     C15 6601   5.966   2.317   5.320 -0.2790 -0.4205  0.5136
    1PA     H5R 6602   5.991   2.240   5.393  0.0993 -1.7335 -0.9570
    1PA     H5S 6603   6.055   2.375   5.294 -0.6314  0.5500  1.3791
    1PA     C14 6604   5.867   2.417   5.381 -0.0600  0.0451  0.1147
    1PA     H4R 6605   5.916   2.515   5.383 -1.8770  1.0015  0.7989
    1PA     H4S 6606   5.774   2.424   5.324  0.5581 -0.2784 -0.9605
    1PA     C13 6607   5.829   2.387   5.527 -0.1887  0.0195  0.0761
    1PA     H3R 6608   5.801   2.282   5.536 -0.9066  0.3320  2.0408
    1PA     H3S 6609   5.910   2.411   5.595 -1.2737  3.0015  0.4887
    1PA     C12 6610   5.704   2.467   5.569 -0.2367  0.2945 -0.5783
    1PA     H2R 6611   5.726   2.503   5.670  0.1920 -0.0117 -0.5553
    1PA     H2S 6612   5.676   2.548   5.501 -2.4342 -0.3434 -0.4880
    2PC     C11 6613   5.583   2.377   5.564 -0.0705  0.0120  0.2289
    2PC     O12 6614   5.491   2.387   5.485 -0.0837  0.4452  0.2926
    2PC     O11 6615   5.587   2.286   5.662 -0.1128  0.0123  0.2309
    2PC      C1 6616   5.482   2.189   5.672 -0.1644  0.0456  0.0032
    2PC      HR 6617   5.419   2.207   5.759  2.7643 -1.4698  2.6106
    2PC      HS 6618   5.402   2.191   5.596 -1.3562 -0.4740  1.1957
    2PC      C2 6619   5.542   2.048   5.660 -0.0881  0.0792 -0.0053
    2PC      HX 6620   5.455   1.982   5.659  0.4665 -0.6843  0.6929
    2PC      C3 6621   5.636   2.026   5.779  0.1103  0.3062 -0.1191
    2PC      HA 6622   5.733   2.076   5.776  0.5356 -0.3367  1.6636
    2PC      HB 6623   5.584   2.059   5.869 -1.9528  1.3503 -1.6182
    2PC     O31 6624   5.661   1.885   5.792 -0.3784  0.2625  0.4000
    2PC     P31 6625   5.724   1.839   5.932 -0.0748 -0.2202  0.1093
    2PC     O32 6626   5.860   1.923   5.950  0.0187 -0.3236 -0.1148
    2PC     C31 6627   5.951   1.887   6.055 -0.2747 -0.2809  0.1536
    2PC     H1A 6628   5.945   1.779   6.074  1.0140 -0.8410 -2.2441
    2PC     H1B 6629   6.053   1.909   6.026 -0.5905  1.9868  0.5500
    2PC     C32 6630   5.915   1.969   6.180  0.0589  0.0692  0.0206
    2PC     H2A 6631   5.807   1.976   6.195  0.0435 -0.6542  0.2912
    2PC     H2B 6632   5.967   1.918   6.262 -0.7342  0.7595  0.9787
    2PC     N31 6633   5.965   2.110   6.194 -0.5701  0.3152 -0.1990
    2PC     C33 6634   6.111   2.117   6.226 -0.5032  0.1905 -0.4772
    2PC     H3A 6635   6.165   2.081   6.138 -4.3636 -0.8834 -2.6780
    2PC     H3B 6636   6.138   2.220   6.249 -0.0675  0.3353 -1.5664
    2PC     H3C 6637   6.114   2.049   6.311 -1.3251  1.0812  0.2748
    2PC     C34 6638   5.926   2.191   6.074  0.0090  0.0924 -0.5398
    2PC     H4A 6639   5.970   2.140   5.988 -0.4809 -2.1601  0.4888
    2PC     H4B 6640   5.817   2.188   6.069  0.0126 -1.9122 -0.2245
    2PC     H4C 6641   5.972   2.289   6.087 -2.8992  1.5797 -0.7974
    2PC     C35 6642   5.895   2.165   6.314 -0.4358  0.1138 -0.0277
    2PC     H5A 6643   5.917   2.108   6.404 -1.0808  1.4080  0.9923
    2PC     H5B 6644   5.787   2.174   6.299 -0.8820 -3.9273 -0.1967
    2PC     H5C 6645   5.947   2.261   6.318  2.8016 -1.5031 -0.1103
    2PC     O33 6646   5.611   1.868   6.023 -0.3063  0.0374 -0.2537
    2PC     O34 6647   5.756   1.695   5.923  0.2116 -0.1437 -0.1058
    2PC     O21 6648   5.608   2.044   5.532 -0.5076  0.5502 -0.2386
    2PC     C21 6649   5.582   1.938   5.454 -0.7376  0.4798 -0.0685
    2PC     O22 6650   5.479   1.873   5.458 -0.6029  0.2883  0.3552
    3OL     C12 6651   5.698   1.914   5.361 -0.7595  0.7241 -0.1580
    3OL     H2R 6652   5.779   1.853   5.402 -2.6527 -1.2772  0.7492
    3OL     H2S 6653   5.742   2.012   5.338  0.2872  0.4836  0.7090
    3OL     C13 6654   5.660   1.830   5.239 -0.3424 -0.1308  0.2961
    3OL     H3R 6655   5.652   1.725   5.270  1.7433 -0.9340 -1.5465
    3OL     H3S 6656   5.752   1.825   5.180 -0.7024  0.4645 -0.3303
    3OL     C14 6657   5.540   1.882   5.159  0.5505  0.2543 -0.8396
    3OL     H4R 6658   5.546   1.985   5.124 -0.7250 -0.0468 -2.0208
    3OL     H4S 6659   5.453   1.883   5.227  2.1611 -1.2805  1.4043
    3OL     C15 6660   5.526   1.784   5.042  0.2971 -0.2696 -0.3769
    3OL     H5R 6661   5.526   1.685   5.087  1.6844 -0.2042 -0.1958
    3OL     H5S 6662   5.621   1.779   4.988  1.1109  2.1276  0.6948
    3OL     C16 6663   5.403   1.809   4.955  0.1972 -0.0459 -0.1740
    3OL     H6R 6664   5.308   1.794   5.007 -0.4796  0.5114 -1.2170
    3OL     H6S 6665   5.405   1.732   4.877 -0.4703  0.4983 -0.7470
    3OL     C17 6666   5.402   1.943   4.880  0.3083  0.3345  0.5016
    3OL     H7R 6667   5.378   2.020   4.953  2.0934  2.3727 -0.9304
    3OL     H7S 6668   5.318   1.943   4.811  0.1482 -0.8409  0.6761
    3OL     C18 6669   5.536   1.969   4.808  0.4381  0.9309  0.9570
    3OL     H8R 6670   5.559   1.876   4.757  0.8168  0.8497  1.2746
    3OL     H8S 6671   5.610   1.991   4.885 -1.1570  0.9733  2.5513
    3OL     C19 6672   5.520   2.074   4.701 -0.3427 -0.6231 -0.4930
    3OL     H9R 6673   5.434   2.139   4.712 -1.6769 -2.2103 -1.2275
    3OL    C110 6674   5.588   2.084   4.588  0.1739  0.0366 -0.1304
    3OL    H10R 6675   5.555   2.160   4.518 -1.1981 -1.2119 -0.8819
    3OL    C111 6676   5.704   2.000   4.538  0.4309  0.5861 -0.4740
    3OL    H11R 6677   5.703   1.901   4.585 -0.5978  1.1108  0.6947
    3OL    H11S 6678   5.798   2.046   4.569  0.3361  1.3732 -1.3247
    3OL    C112 6679   5.686   1.992   4.386 -0.0729 -0.5204 -0.3673
    3OL    H12R 6680   5.593   1.942   4.356 -0.5512  0.2726 -0.2404
    3OL    H12S 6681   5.764   1.925   4.350  1.6409  0.9673  0.3820
    3OL    C113 6682   5.721   2.123   4.314 -0.3533 -0.2283  0.0168
    3OL    H13R 6683   5.827   2.149   4.324 -0.4852  0.2703  0.1407
    3OL    H13S 6684   5.653   2.204   4.342  0.1718  0.4632 -0.6624
    3OL    C114 6685   5.697   2.091   4.165  0.3429  0.1244 -0.1742
    3OL    H14R 6686   5.592   2.065   4.153 -0.4593  1.6154  2.6191
    3OL    H14S 6687   5.762   2.007   4.140  3.2606  2.0086  0.5187
    3OL    C115 6688   5.725   2.209   4.070 -0.3083  0.1916 -0.2844
    3OL    H15R 6689   5.744   2.176   3.968  1.1584  0.5210 -0.1321
    3OL    H15S 6690   5.816   2.256   4.107 -1.1559  0.6497  1.3302
    3OL    C116 6691   5.614   2.313   4.091 -0.2303  0.1780  0.2034
    3OL    H16R 6692   5.626   2.355   4.191  2.9127  0.9793 -0.4068
    3OL    H16S 6693   5.512   2.278   4.079  0.6152 -2.4096 -0.0210
    3OL    C117 6694   5.635   2.438   4.004 -0.0318 -0.0656 -0.1000
    3OL    H17R 6695   5.738   2.473   4.003 -0.4221  1.1825  0.7833
    3OL    H17S 6696   5.579   2.518   4.053  0.3155  0.8618 -1.1947
    3OL    C118 6697   5.579   2.407   3.864 -0.0907 -0.1223 -0.0639
    3OL    H18R 6698   5.471   2.421   3.871 -0.1096 -0.8934  1.7307
    3OL    H18S 6699   5.594   2.307   3.823 -2.6206  0.0358 -1.5893
    3OL    H18T 6700   5.619   2.485   3.799  0.4568  1.0300  1.5747
    1PA    C116 6701   3.364   1.389   3.911 -0.5819  0.2106  0.1698
    1PA    H16R 6702   3.342   1.288   3.874 -0.0745  0.1339  0.0633
    1PA    H16S 6703   3.272   1.448   3.904 -0.5500  0.0551 -2.7920
    1PA    H16T 6704   3.391   1.382   4.016 -2.5989 -0.8838  0.6624
    1PA    C115 6705   3.478   1.467   3.844 -0.5737 -0.0269 -0.0929
    1PA    H15R 6706   3.579   1.432   3.868 -0.4862 -0.1704 -0.6412
    1PA    H15S 6707   3.472   1.455   3.735  1.7777  1.6597 -0.4907
    1PA    C114 6708   3.474   1.617   3.876  0.4807  0.0606 -0.3459
    1PA    H14R 6709   3.549   1.668   3.815  0.1209 -0.0453 -0.8864
    1PA    H14S 6710   3.377   1.665   3.869  0.4487 -0.1184 -1.2954
    1PA    C113 6711   3.524   1.629   4.021 -0.0969  0.0205 -0.1419
    1PA    H13R 6712   3.463   1.570   4.089  0.7394  0.8609  1.3960
    1PA    H13S 6713   3.626   1.591   4.029  0.7638  2.2067  0.0660
    1PA    C112 6714   3.525   1.768   4.086  0.1786  0.2161 -0.5562
    1PA    H12R 6715   3.595   1.832   4.031 -0.9097  0.0489 -2.2109
    1PA    H12S 6716   3.422   1.804   4.082  1.0743  3.0234 -0.5788
    1PA    C111 6717   3.581   1.753   4.228  0.1143  0.5990 -0.4882
    1PA    H11R 6718   3.509   1.693   4.284 -0.7155  0.2381 -1.8927
    1PA    H11S 6719   3.683   1.716   4.220 -0.4145 -1.1593  0.3092
    1PA    C110 6720   3.568   1.880   4.314 -0.0090  0.3247 -0.0952
    1PA    H10R 6721   3.636   1.956   4.275 -0.6996  2.1365  2.0565
    1PA    H10S 6722   3.464   1.913   4.314 -0.3688 -0.7007  1.4154
    1PA     C19 6723   3.610   1.859   4.460 -0.3125  0.3647 -0.0009
    1PA     H9R 6724   3.540   1.790   4.507  0.9310 -0.5228  0.6119
    1PA     H9S 6725   3.709   1.816   4.473 -1.0346 -0.9460  1.4349
    1PA     C18 6726   3.615   1.998   4.526  0.2446  0.3867 -0.0894
    1PA     H8R 6727   3.685   2.066   4.477  1.3099 -0.9484 -0.5007
    1PA     H8S 6728   3.517   2.044   4.513 -0.3942 -0.5795  1.1828
    1PA     C17 6729   3.668   1.986   4.669  0.1174  0.1548 -0.0620
    1PA     H7R 6730   3.587   1.950   4.734 -1.3821  2.1163 -0.7541
    1PA     H7S 6731   3.749   1.912   4.671 -0.2485 -0.2406  1.4960
    1PA     C16 6732   3.712   2.118   4.733  0.0584  0.1387  0.0133
    1PA     H6R 6733   3.641   2.198   4.714  1.9724  2.4128  1.7895
    1PA     H6S 6734   3.711   2.112   4.842 -0.1614  2.3347  0.1780
    1PA     C15 6735   3.847   2.171   4.682 -0.0894  0.7317  0.2288
    1PA     H5R 6736   3.855   2.131   4.581 -3.7659  0.8163 -0.2150
    1PA     H5S 6737   3.854   2.279   4.671  0.4662  0.5924 -0.9805
    1PA     C14 6738   3.961   2.129   4.776 -0.2788 -0.3129  0.0059
    1PA     H4R 6739   3.959   2.024   4.806 -1.4346 -0.5157 -0.7216
    1PA     H4S 6740   4.048   2.131   4.711  0.4463 -0.3541  0.9427
    1PA     C13 6741   3.978   2.231   4.890 -0.1139  0.2808 -0.5445
    1PA     H3R 6742   4.014   2.324   4.846 -0.0456  1.7080  2.2900
    1PA     H3S 6743   3.881   2.237   4.939  0.4393 -0.6942  0.7382
    1PA     C12 6744   4.074   2.193   5.004 -0.5616  0.1463 -0.2107
    1PA     H2R 6745   4.067   2.087   5.030  2.9883  0.1778  1.3599
    1PA     H2S 6746   4.179   2.202   4.978 -0.6790 -1.0007 -1.2104
    2PC     C11 6747   4.048   2.274   5.128 -0.4520  0.2156 -0.2329
    2PC     O12 6748   4.021   2.234   5.239 -0.3857  0.5943 -0.0773
    2PC     O11 6749   4.036   2.404   5.098  0.0619  0.3455  0.1085
    2PC      C1 6750   4.023   2.498   5.207  0.0668  0.0256  0.3840
    2PC      HR 6751   3.964   2.583   5.172 -1.1156 -0.6740  0.6434
    2PC      HS 6752   3.962   2.458   5.288  1.1656 -0.6970  0.8836
    2PC      C2 6753   4.160   2.545   5.259  0.0334  0.2648  0.2564
    2PC      HX 6754   4.223   2.457   5.273 -0.2320  0.1924  1.0090
    2PC      C3 6755   4.136   2.605   5.398  0.6395  0.3895  0.3093
    2PC      HA 6756   4.105   2.521   5.461  1.3510 -0.6250 -0.6564
    2PC      HB 6757   4.229   2.646   5.438  0.9196  0.7999 -0.7297
    2PC     O31 6758   4.034   2.705   5.407  0.4998  0.2687  0.0843
    2PC     P31 6759   3.998   2.768   5.550 -0.0274  0.4718 -0.1350
    2PC     O32 6760   4.135   2.847   5.575  0.0741  0.2913 -0.1215
    2PC     C31 6761   4.155   2.951   5.477  0.4779  0.1150 -0.2293
    2PC     H1A 6762   4.197   2.910   5.385 -0.0797  1.3855 -1.0691
    2PC     H1B 6763   4.065   3.002   5.443  0.9555  0.3273 -1.1854
    2PC     C32 6764   4.259   3.041   5.545  0.5300 -0.6198  0.6924
    2PC     H2A 6765   4.319   2.975   5.607  0.4610 -0.2244  1.1965
    2PC     H2B 6766   4.311   3.103   5.472  0.9210  1.4474  2.5939
    2PC     N31 6767   4.207   3.126   5.658  0.0986  0.3935 -0.2437
    2PC     C33 6768   4.312   3.219   5.710 -0.0478  0.2633  0.2970
    2PC     H3A 6769   4.255   3.283   5.778 -1.2240 -0.1582 -0.2568
    2PC     H3B 6770   4.387   3.155   5.755 -1.3518 -0.0944  2.0814
    2PC     H3C 6771   4.355   3.281   5.631  0.5842  0.7166  0.9854
    2PC     C34 6772   4.093   3.213   5.615  0.0235  0.6275  0.4249
    2PC     H4A 6773   4.049   3.264   5.701  0.6463 -0.0637  1.1675
    2PC     H4B 6774   4.128   3.288   5.545 -1.6417 -0.4335 -1.6425
    2PC     H4C 6775   4.017   3.149   5.569 -0.1136 -0.8070  2.4936
    2PC     C35 6776   4.162   3.044   5.775  0.4940  0.1943 -0.2313
    2PC     H5A 6777   4.056   3.020   5.767  0.6590 -1.5139  1.5941
    2PC     H5B 6778   4.169   3.104   5.866 -1.6423  0.7718 -0.4036
    2PC     H5C 6779   4.217   2.950   5.786 -0.5444 -0.9949 -3.8777
    2PC     O33 6780   3.871   2.845   5.555 -0.3155  0.0053 -0.1541
    2PC     O34 6781   3.975   2.658   5.647  0.5745  0.0451 -0.4778
    2PC     O21 6782   4.222   2.640   5.171 -0.1076 -0.1254 -0.2683
    2PC     C21 6783   4.292   2.595   5.065  0.0149 -0.5762  0.0046
    2PC     O22 6784   4.314   2.479   5.035 -0.4928 -0.6988  0.0808
    3OL     C12 6785   4.347   2.714   4.992  0.2292 -0.4865  0.3127
    3OL     H2R 6786   4.448   2.747   5.020 -0.9255  2.9585  1.0073
    3OL     H2S 6787   4.283   2.800   5.014  1.3500  0.1562  1.1792
    3OL     C13 6788   4.342   2.692   4.840 -0.6284 -0.3316  0.3150
    3OL     H3R 6789   4.386   2.595   4.818  0.0965  0.3349 -1.3176
    3OL     H3S 6790   4.396   2.768   4.783  2.8518 -2.8164  0.0145
    3OL     C14 6791   4.193   2.698   4.804 -0.5991 -0.7546  0.1205
    3OL     H4R 6792   4.151   2.792   4.840 -0.4342 -0.7431  0.2879
    3OL     H4S 6793   4.132   2.620   4.849 -0.8905 -0.7805 -0.3194
    3OL     C15 6794   4.169   2.686   4.653 -0.2721  0.2770 -0.0254
    3OL     H5R 6795   4.238   2.745   4.593  0.8809 -1.8211 -0.8754
    3OL     H5S 6796   4.067   2.724   4.640 -1.7788 -1.7384  4.0351
    3OL     C16 6797   4.180   2.539   4.609  0.7299  0.3502 -0.0355
    3OL     H6R 6798   4.105   2.472   4.649 -0.4883  0.8904 -1.3044
    3OL     H6S 6799   4.277   2.494   4.631  1.0758  1.5547  1.0204
    3OL     C17 6800   4.164   2.530   4.456 -0.2591  0.3134  0.0636
    3OL     H7R 6801   4.249   2.581   4.410  2.1678 -1.6711  2.0186
    3OL     H7S 6802   4.069   2.578   4.435 -1.5465 -1.0359  2.3886
    3OL     C18 6803   4.165   2.383   4.410  0.5265  0.2819  0.1603
    3OL     H8R 6804   4.147   2.368   4.303 -0.8439 -1.9742  0.6379
    3OL     H8S 6805   4.080   2.340   4.464  1.2238 -2.3609 -0.7201
    3OL     C19 6806   4.293   2.313   4.448  0.5103  0.0865 -0.1432
    3OL     H9R 6807   4.297   2.292   4.554  1.4488  0.9486  0.0097
    3OL    C110 6808   4.388   2.273   4.364  0.5320 -0.9128  0.3522
    3OL    H10R 6809   4.479   2.220   4.387  1.1660  0.3647  0.8695
    3OL    C111 6810   4.387   2.314   4.219 -0.4181 -0.5444  0.4508
    3OL    H11R 6811   4.492   2.317   4.187 -0.5639  0.0449  0.0025
    3OL    H11S 6812   4.362   2.419   4.202  0.7165 -0.1962  0.8005
    3OL    C112 6813   4.325   2.213   4.122 -0.6782 -0.0179  0.0605
    3OL    H12R 6814   4.219   2.196   4.142 -0.3214 -0.2503  1.9936
    3OL    H12S 6815   4.382   2.124   4.149  2.1072  1.2782 -1.1598
    3OL    C113 6816   4.350   2.240   3.973 -0.0596  0.0083  0.1671
    3OL    H13R 6817   4.303   2.337   3.957  1.2036  1.1475  2.7910
    3OL    H13S 6818   4.300   2.167   3.909  0.2935  0.1839 -0.3142
    3OL    C114 6819   4.500   2.251   3.942 -0.1366 -0.0669 -0.2301
    3OL    H14R 6820   4.547   2.153   3.950  1.1339  0.4573 -0.9381
    3OL    H14S 6821   4.556   2.318   4.008 -2.3392 -0.1639  1.8746
    3OL    C115 6822   4.524   2.306   3.800 -0.2227 -0.2746 -0.3262
    3OL    H15R 6823   4.471   2.399   3.779 -0.5708 -0.8768 -2.3201
    3OL    H15S 6824   4.490   2.231   3.729  0.5149 -1.9212  0.9876
    3OL    C116 6825   4.674   2.338   3.785 -0.1785 -0.2953  0.0557
    3OL    H16R 6826   4.684   2.377   3.684  0.3727 -0.9450 -0.1440
    3OL    H16S 6827   4.737   2.250   3.782  2.5846  1.5498 -3.3733
    3OL    C117 6828   4.724   2.455   3.871 -0.3765 -0.1292 -0.0532
    3OL    H17R 6829   4.722   2.442   3.979  0.0158 -1.5335 -0.1994
    3OL    H17S 6830   4.655   2.539   3.856 -0.5136  0.4400  3.0319
    3OL    C118 6831   4.865   2.502   3.832 -0.2161 -0.2038  0.4316
    3OL    H18R 6832   4.895   2.595   3.881 -1.6809  1.1726 -1.1433
    3OL    H18S 6833   4.870   2.516   3.724 -0.4655 -1.2594  0.2808
    3OL    H18T 6834   4.944   2.429   3.847  0.2982 -0.2046 -1.9347
    1PA    C116 6835   1.468   5.255   3.729 -0.7320 -0.4194  0.6413
    1PA    H16R 6836   1.535   5.341   3.740  0.2505 -0.9470 -0.8787
    1PA    H16S 6837   1.379   5.276   3.788 -0.6366  0.4212  0.4954
    1PA    H16T 6838   1.440   5.262   3.623  1.4490 -2.3328 -0.1502
    1PA    C115 6839   1.531   5.119   3.759  0.7234  0.1475  0.2431
    1PA    H15R 6840   1.545   5.102   3.866  0.1026  2.5308  0.7402
    1PA    H15S 6841   1.459   5.045   3.725 -2.1301  1.8512  2.1974
    1PA    C114 6842   1.665   5.100   3.685  0.5327 -0.7020  0.0973
    1PA    H14R 6843   1.648   5.124   3.579  0.8976  0.1879  0.2286
    1PA    H14S 6844   1.737   5.170   3.728 -0.5841  1.4276 -1.2520
    1PA    C113 6845   1.719   4.958   3.700  0.4991 -0.7278 -0.0234
    1PA    H13R 6846   1.738   4.930   3.804  3.1682  1.7874  0.2999
    1PA    H13S 6847   1.654   4.885   3.652  1.4780 -0.6057 -1.6397
    1PA    C112 6848   1.852   4.948   3.624  0.7173 -0.5428  0.3296
    1PA    H12R 6849   1.833   5.005   3.533 -1.3462 -0.9535  0.4514
    1PA    H12S 6850   1.929   5.006   3.675  0.2710 -0.2938  0.7244
    1PA    C111 6851   1.892   4.800   3.606 -0.1564 -0.6906 -0.4719
    1PA    H11R 6852   1.914   4.766   3.708 -1.5709 -1.2936 -0.3434
    1PA    H11S 6853   1.807   4.748   3.560 -0.5783 -0.9701  0.5884
    1PA    C110 6854   2.012   4.794   3.512  0.1681  0.3348 -0.1443
    1PA    H10R 6855   1.985   4.846   3.420 -0.9707 -0.0676 -0.0451
    1PA    H10S 6856   2.091   4.851   3.561  1.0233 -0.7807 -0.1773
    1PA     C19 6857   2.072   4.653   3.495 -0.3535  0.1091 -0.1240
    1PA     H9R 6858   2.082   4.594   3.586  0.9919 -0.9030 -0.8913
    1PA     H9S 6859   2.001   4.597   3.434  1.6008 -0.2774 -2.1843
    1PA     C18 6860   2.198   4.646   3.408 -0.4550  0.2551 -0.2858
    1PA     H8R 6861   2.231   4.545   3.380  1.1774  0.4402  0.7969
    1PA     H8S 6862   2.180   4.694   3.312  0.7432 -1.4864 -1.4633
    1PA     C17 6863   2.311   4.715   3.486 -0.4079  0.6185 -0.6743
    1PA     H7R 6864   2.276   4.817   3.504  0.4362  0.6305  1.1857
    1PA     H7S 6865   2.324   4.662   3.581  2.6825  1.7914 -0.3338
    1PA     C16 6866   2.445   4.729   3.412  0.2309  0.5611  0.4438
    1PA     H6R 6867   2.467   4.632   3.367 -1.7584  0.4509 -0.3964
    1PA     H6S 6868   2.444   4.806   3.335  1.0623 -1.5533 -1.7830
    1PA     C15 6869   2.561   4.762   3.506  0.5357 -0.0928  0.3008
    1PA     H5R 6870   2.649   4.785   3.445  1.7482  1.0985  2.3478
    1PA     H5S 6871   2.540   4.850   3.567 -3.4461 -0.4447 -0.3389
    1PA     C14 6872   2.599   4.642   3.593 -0.4720 -0.6761 -0.0590
    1PA     H4R 6873   2.515   4.597   3.648  1.5119 -1.8658  2.1687
    1PA     H4S 6874   2.633   4.554   3.537 -0.6092 -1.0417  0.4213
    1PA     C13 6875   2.703   4.689   3.695 -0.4953 -0.4705 -0.1298
    1PA     H3R 6876   2.795   4.712   3.640 -1.1155  0.4485 -0.7986
    1PA     H3S 6877   2.670   4.784   3.737 -0.0404 -0.2685 -0.2238
    1PA     C12 6878   2.732   4.587   3.807  0.1817  0.5689  0.6604
    1PA     H2R 6879   2.639   4.573   3.863 -0.5324  0.2418 -0.5605
    1PA     H2S 6880   2.762   4.491   3.766  1.8941  0.8692  1.1354
    2PC     C11 6881   2.822   4.641   3.915  0.2915  0.3977  0.6548
    2PC     O12 6882   2.840   4.761   3.928  0.0266  0.5597 -0.3897
    2PC     O11 6883   2.896   4.545   3.972 -0.3124 -0.6249 -0.2516
    2PC      C1 6884   2.999   4.576   4.067 -0.3699  0.0541 -0.4049
    2PC      HR 6885   3.062   4.490   4.092  0.5643  0.8446  0.0629
    2PC      HS 6886   3.065   4.648   4.017  0.2522 -0.9782 -1.1096
    2PC      C2 6887   2.935   4.633   4.194 -0.1425  0.1682 -0.3411
    2PC      HX 6888   2.869   4.717   4.170 -0.4828 -0.1985 -0.6899
    2PC      C3 6889   3.038   4.688   4.295 -0.1503  0.3292 -0.4199
    2PC      HA 6890   3.102   4.602   4.318  0.3025  0.2683 -1.7869
    2PC      HB 6891   3.096   4.775   4.264  1.3501 -0.2964  0.5625
    2PC     O31 6892   2.970   4.725   4.416  0.0624  0.1596 -0.2488
    2PC     P31 6893   3.048   4.767   4.549  0.0164 -0.0389 -0.1579
    2PC     O32 6894   3.104   4.626   4.602 -0.3125 -0.0591  0.1377
    2PC     C31 6895   2.998   4.537   4.642 -0.5582  0.0339 -0.3070
    2PC     H1A 6896   2.938   4.581   4.722  0.8155 -1.3198  1.5307
    2PC     H1B 6897   2.938   4.511   4.554 -0.7149 -0.6747  0.0093
    2PC     C32 6898   3.066   4.415   4.704 -0.4345  0.5389  0.5647
    2PC     H2A 6899   2.991   4.340   4.730 -0.5626  0.9557  1.4525
    2PC     H2B 6900   3.133   4.368   4.632  1.1173  2.4553  0.6662
    2PC     N31 6901   3.156   4.435   4.822 -0.2266 -0.1912  0.5330
    2PC     C33 6902   3.272   4.524   4.793 -0.2070 -0.3759  0.0424
    2PC     H3A 6903   3.296   4.503   4.688 -1.9171 -0.6502 -0.3117
    2PC     H3B 6904   3.234   4.626   4.795  1.8840  0.4897 -1.0391
    2PC     H3C 6905   3.353   4.520   4.866  0.4574  1.6273 -0.5083
    2PC     C34 6906   3.092   4.483   4.949 -0.4153  0.2420  0.2726
    2PC     H4A 6907   3.176   4.526   5.004  0.9537  0.3438 -1.7806
    2PC     H4B 6908   3.034   4.572   4.924  0.2284  0.8456  0.8739
    2PC     H4C 6909   3.037   4.404   4.999 -1.1184  1.1602  0.9791
    2PC     C35 6910   3.218   4.301   4.850 -0.2741 -0.3618 -0.1644
    2PC     H5A 6911   3.138   4.238   4.891 -0.2539  0.8028  1.7928
    2PC     H5B 6912   3.289   4.318   4.931 -0.4491 -0.8665  0.1002
    2PC     H5C 6913   3.266   4.257   4.762  0.9401  1.6540 -0.5656
    2PC     O33 6914   3.164   4.855   4.521  0.1796 -0.2278 -0.0812
    2PC     O34 6915   2.972   4.817   4.665  0.0720 -0.1903 -0.0552
    2PC     O21 6916   2.849   4.537   4.258  0.0782  0.1659 -0.0420
    2PC     C21 6917   2.899   4.416   4.288  0.1331  0.3144  0.4576
    2PC     O22 6918   3.015   4.381   4.288  0.1537  0.3811 -0.2841
    3OL     C12 6919   2.786   4.323   4.326  0.0305  0.4235  0.4205
    3OL     H2R 6920   2.754   4.267   4.238 -0.2849  0.4299  0.5298
    3OL     H2S 6921   2.697   4.378   4.356 -0.0458 -0.7535  2.5306
    3OL     C13 6922   2.832   4.224   4.435  0.2665 -0.2441 -0.2777
    3OL     H3R 6923   2.887   4.275   4.514 -0.5629 -0.2410  0.3049
    3OL     H3S 6924   2.890   4.144   4.388  0.4825 -1.3912  1.8465
    3OL     C14 6925   2.699   4.166   4.485  0.1844 -0.0330 -0.2469
    3OL     H4R 6926   2.628   4.146   4.405 -2.3724  2.2007  1.3115
    3OL     H4S 6927   2.640   4.226   4.554 -0.4278 -3.3992  2.4717
    3OL     C15 6928   2.733   4.037   4.561 -0.2181  0.3217  0.5421
    3OL     H5R 6929   2.646   4.005   4.619 -0.4534 -0.4431 -0.2150
    3OL     H5S 6930   2.804   4.066   4.638 -0.5054 -0.2720  1.0476
    3OL     C16 6931   2.758   3.920   4.465 -0.0206  0.2984  0.6226
    3OL     H6R 6932   2.849   3.937   4.408  0.3729  0.8578  1.3910
    3OL     H6S 6933   2.673   3.925   4.398 -0.4209  4.6325  1.1747
    3OL     C17 6934   2.756   3.783   4.534  0.7773  0.1523  0.3638
    3OL     H7R 6935   2.664   3.765   4.590 -0.6294  0.9786 -1.5888
    3OL     H7S 6936   2.836   3.777   4.609 -1.7564 -0.4878  3.1926
    3OL     C18 6937   2.769   3.674   4.426  0.2423 -0.4163  0.8677
    3OL     H8R 6938   2.682   3.676   4.361  0.3045  2.5716  0.7619
    3OL     H8S 6939   2.746   3.578   4.473 -2.7335 -0.2998 -0.1513
    3OL     C19 6940   2.898   3.670   4.348 -0.0872  0.5025  0.2658
    3OL     H9R 6941   2.974   3.627   4.412 -2.1541  0.7269  3.0611
    3OL    C110 6942   2.922   3.712   4.225  0.4052 -0.6326 -0.0346
    3OL    H10R 6943   3.022   3.692   4.187  0.8152  0.3573  0.4911
    3OL    C111 6944   2.828   3.787   4.135  0.5421  0.4556  0.7143
    3OL    H11R 6945   2.747   3.823   4.200  0.3463 -0.8774  1.2230
    3OL    H11S 6946   2.786   3.720   4.060 -1.1319  1.0055  1.1151
    3OL    C112 6947   2.899   3.899   4.057  0.2660 -0.1120 -0.3698
    3OL    H12R 6948   2.825   3.932   3.983 -0.6488 -2.4552 -0.5818
    3OL    H12S 6949   2.981   3.854   4.001 -1.0995  0.5821 -3.1320
    3OL    C113 6950   2.942   4.006   4.159  0.0059 -0.2669 -0.0969
    3OL    H13R 6951   3.009   3.964   4.234 -0.6245 -1.0130  0.0674
    3OL    H13S 6952   2.863   4.044   4.225  0.4843  0.2720  0.1687
    3OL    C114 6953   3.011   4.124   4.090 -0.0956  0.1550  0.5141
    3OL    H14R 6954   3.016   4.209   4.158  0.3214  1.0717 -0.6256
    3OL    H14S 6955   2.959   4.159   4.000 -2.1357 -1.4242  0.9803
    3OL    C115 6956   3.151   4.079   4.046 -0.4394  0.2047 -0.6867
    3OL    H15R 6957   3.149   3.976   4.012 -0.2782 -0.3983  1.0525
    3OL    H15S 6958   3.211   4.074   4.138 -1.3994  0.7524 -0.0131
    3OL    C116 6959   3.230   4.153   3.937  0.2729  0.4716 -0.0007
    3OL    H16R 6960   3.335   4.123   3.939 -0.4862 -2.8302 -1.7224
    3OL    H16S 6961   3.221   4.262   3.943 -0.5228  0.4032  0.1465
    3OL    C117 6962   3.167   4.113   3.803  0.0876  0.0125  0.2209
    3OL    H17R 6963   3.065   4.152   3.803 -0.1434 -0.5398 -1.1491
    3OL    H17S 6964   3.152   4.005   3.799 -0.4317  0.1096 -2.4574
    3OL    C118 6965   3.248   4.166   3.684 -0.6680  0.4669 -0.1042
    3OL    H18R 6966   3.238   4.274   3.676 -0.7591  0.3671 -1.5556
    3OL    H18S 6967   3.189   4.123   3.603  1.0106 -2.7116  0.2068
    3OL    H18T 6968   3.351   4.135   3.666 -0.6785  0.2708  0.1640
    1PA    C116 6969   4.542   1.793   3.777 -0.6394  0.0873 -0.7653
    1PA    H16R 6970   4.467   1.833   3.708 -2.3134 -0.0070  0.9157
    1PA    H16S 6971   4.643   1.827   3.752 -0.1385 -1.3792 -0.8304
    1PA    H16T 6972   4.517   1.832   3.876  1.0200 -0.6164 -0.0313
    1PA    C115 6973   4.531   1.640   3.774 -0.3109  0.0362  0.2261
    1PA    H15R 6974   4.555   1.600   3.675  2.4802  0.4470  0.6471
    1PA    H15S 6975   4.613   1.605   3.838  0.2995  1.3343  0.1814
    1PA    C114 6976   4.391   1.592   3.814 -0.0421 -0.4072  0.6472
    1PA    H14R 6977   4.363   1.620   3.916  2.3536  4.3511  0.2983
    1PA    H14S 6978   4.320   1.631   3.741 -0.3337 -1.5401  0.3143
    1PA    C113 6979   4.385   1.440   3.792  0.1943 -0.2892 -0.2758
    1PA    H13R 6980   4.377   1.403   3.690 -0.4227 -2.1967  0.4234
    1PA    H13S 6981   4.462   1.384   3.846 -0.6522  0.3110  1.6204
    1PA    C112 6982   4.252   1.400   3.857  0.3118  0.1755  0.2597
    1PA    H12R 6983   4.250   1.444   3.957 -2.5038  1.1315 -0.1212
    1PA    H12S 6984   4.175   1.458   3.806  0.8982  0.2491 -0.5685
    1PA    C111 6985   4.224   1.249   3.866  0.3607  0.1457 -0.0886
    1PA    H11R 6986   4.226   1.214   3.762  2.2163 -1.2504  0.3620
    1PA    H11S 6987   4.297   1.185   3.915 -0.2375 -0.2312  0.3243
    1PA    C110 6988   4.089   1.211   3.927  0.4844  0.6932  0.5359
    1PA    H10R 6989   4.083   1.248   4.030  0.7629 -0.3138  0.9217
    1PA    H10S 6990   4.010   1.266   3.874  0.7704 -0.5997 -1.3184
    1PA     C19 6991   4.063   1.060   3.913 -0.0286  0.8288 -0.0102
    1PA     H9R 6992   3.955   1.050   3.927  0.2371  1.2741  3.3686
    1PA     H9S 6993   4.086   1.027   3.812  0.5507  3.2835 -0.7388
    1PA     C18 6994   4.143   0.976   4.013 -0.7932 -0.1130 -0.1737
    1PA     H8R 6995   4.138   0.875   3.972  0.3638 -0.1775 -0.1871
    1PA     H8S 6996   4.249   1.005   4.011  0.1708 -2.9656  1.9667
    1PA     C17 6997   4.087   0.969   4.156  0.2361 -0.0589  0.2416
    1PA     H7R 6998   4.102   1.060   4.214  1.6342  0.7551 -1.3051
    1PA     H7S 6999   3.982   0.942   4.168  0.0753  0.6449  0.4244
    1PA     C16 7000   4.161   0.871   4.249 -0.2450  0.0131  0.6979
    1PA     H6R 7001   4.159   0.768   4.213 -0.8595  0.3703 -0.3436
    1PA     H6S 7002   4.268   0.890   4.244 -0.2104 -0.1606  0.7757
    1PA     C15 7003   4.116   0.893   4.394 -0.2204  0.0974  0.6931
    1PA     H5R 7004   4.188   0.848   4.463  1.2025  1.9046  0.4883
    1PA     H5S 7005   4.130   1.000   4.412  0.6293  0.1786 -0.3345
    1PA     C14 7006   3.980   0.830   4.428 -0.2874 -0.0427  0.1658
    1PA     H4R 7007   3.906   0.873   4.360  1.0598 -0.7677 -1.8637
    1PA     H4S 7008   3.985   0.723   4.405  2.0726  0.0969 -0.2967
    1PA     C13 7009   3.933   0.854   4.572 -0.2385 -0.6650  0.2877
    1PA     H3R 7010   3.912   0.960   4.587 -0.1970 -0.8273  1.5812
    1PA     H3S 7011   3.831   0.820   4.588 -0.9256 -0.0972 -2.3882
    1PA     C12 7012   4.024   0.809   4.687  0.1385 -0.2958  0.1383
    1PA     H2R 7013   4.057   0.706   4.676  0.7599  0.1042 -2.0966
    1PA     H2S 7014   4.110   0.875   4.688  1.2011 -1.6042 -0.9324
    2PC     C11 7015   3.964   0.832   4.824 -0.0965  0.0186 -0.0157
    2PC     O12 7016   3.908   0.934   4.859 -0.3852 -0.1554  0.0335
    2PC     O11 7017   3.989   0.726   4.903 -0.1229 -0.0887 -0.1501
    2PC      C1 7018   3.978   0.749   5.045 -0.2420  0.4079 -0.2388
    2PC      HR 7019   4.040   0.837   5.064 -2.0520  1.9580 -1.1117
    2PC      HS 7020   3.876   0.777   5.073 -0.8105 -0.3003 -1.5000
    2PC      C2 7021   4.031   0.628   5.121 -0.0734  0.0411 -0.9298
    2PC      HX 7022   3.971   0.540   5.099  0.7348 -0.6263 -0.5548
    2PC      C3 7023   4.045   0.651   5.272 -0.1752 -0.4178 -0.8493
    2PC      HA 7024   3.947   0.639   5.319  0.2008  1.9167  0.6913
    2PC      HB 7025   4.104   0.566   5.309  1.6340  1.2146  0.2431
    2PC     O31 7026   4.104   0.780   5.297 -0.1754 -0.6096  0.2265
    2PC     P31 7027   4.149   0.823   5.444 -0.3759  0.2196  0.0540
    2PC     O32 7028   4.184   0.979   5.439  0.1033  0.1104 -0.0153
    2PC     C31 7029   4.070   1.064   5.417  0.1154  0.0511 -0.3104
    2PC     H1A 7030   4.118   1.154   5.378 -0.0229  0.7967  1.1879
    2PC     H1B 7031   3.997   1.026   5.344  0.6840  1.1760 -1.5054
    2PC     C32 7032   3.996   1.099   5.546  0.2206  0.0554 -0.2511
    2PC     H2A 7033   3.922   1.174   5.517 -1.0453 -1.1313 -0.1660
    2PC     H2B 7034   3.943   1.013   5.588  1.0921  0.0655  0.9478
    2PC     N31 7035   4.080   1.160   5.655  0.0360  0.1408 -0.1541
    2PC     C33 7036   3.982   1.224   5.748 -0.0013  0.4158 -0.3830
    2PC     H3A 7037   3.922   1.152   5.803  1.6881 -1.3057 -0.6915
    2PC     H3B 7038   4.042   1.277   5.822  2.8575 -1.8457 -0.9035
    2PC     H3C 7039   3.922   1.291   5.686 -0.9381 -1.5673 -1.7192
    2PC     C34 7040   4.166   1.060   5.728  0.3400  0.6961  0.2495
    2PC     H4A 7041   4.236   1.106   5.798  1.3578 -0.6776  0.1622
    2PC     H4B 7042   4.100   0.989   5.779  0.3551  1.3939  1.2750
    2PC     H4C 7043   4.219   0.996   5.657 -0.0724 -0.0080  0.5669
    2PC     C35 7044   4.169   1.269   5.605 -0.1075  0.3184 -0.0195
    2PC     H5A 7045   4.202   1.335   5.686 -0.0537  2.3447 -1.6143
    2PC     H5B 7046   4.109   1.326   5.534  1.3192  1.8211 -0.0990
    2PC     H5C 7047   4.247   1.219   5.548 -1.5989 -1.0700 -0.9169
    2PC     O33 7048   4.039   0.782   5.535 -0.8072  0.0476 -0.5421
    2PC     O34 7049   4.272   0.752   5.486 -0.3060  0.2684 -0.0698
    2PC     O21 7050   4.167   0.619   5.074  0.2408  0.7687 -0.1993
    2PC     C21 7051   4.189   0.539   4.968  0.3514  0.0732  0.3426
    2PC     O22 7052   4.105   0.472   4.911  0.0394  0.0802  0.7930
    3OL     C12 7053   4.336   0.537   4.935  0.3564 -0.0935  0.3720
    3OL     H2R 7054   4.370   0.438   4.966 -2.4416 -1.7818 -1.4592
    3OL     H2S 7055   4.386   0.614   4.995 -2.2007  0.9758  1.2603
    3OL     C13 7056   4.351   0.575   4.787  0.0947 -0.1327  0.3351
    3OL     H3R 7057   4.317   0.678   4.775 -0.7060 -0.4862 -0.5702
    3OL     H3S 7058   4.286   0.521   4.717 -1.2300  0.8923  0.7258
    3OL     C14 7059   4.497   0.562   4.742  0.2831  0.6080  0.7133
    3OL     H4R 7060   4.534   0.463   4.769  0.0613  0.6039  1.0022
    3OL     H4S 7061   4.561   0.633   4.793  0.6161  0.2220  0.8383
    3OL     C15 7062   4.519   0.598   4.594  0.1081 -0.2182  0.4799
    3OL     H5R 7063   4.474   0.694   4.568  0.4816 -0.0632  0.4009
    3OL     H5S 7064   4.471   0.519   4.536  1.1325 -0.9232  0.5575
    3OL     C16 7065   4.668   0.588   4.560 -0.0899 -0.1238 -0.4397
    3OL     H6R 7066   4.703   0.490   4.594  0.0916 -0.5501 -1.8004
    3OL     H6S 7067   4.715   0.664   4.623 -2.8484  0.6368  0.8054
    3OL     C17 7068   4.691   0.606   4.409 -0.0285  0.1705 -0.3957
    3OL     H7R 7069   4.664   0.707   4.378  0.2144  0.4122  0.1493
    3OL     H7S 7070   4.625   0.539   4.354  0.4307 -1.3508  0.8298
    3OL     C18 7071   4.837   0.576   4.370  0.1500 -0.1762  0.5058
    3OL     H8R 7072   4.870   0.478   4.405 -0.2783 -0.6649 -0.4204
    3OL     H8S 7073   4.904   0.653   4.409 -0.5016  1.2641 -1.0865
    3OL     C19 7074   4.856   0.571   4.220 -0.2752 -0.1240  0.4489
    3OL     H9R 7075   4.820   0.475   4.185 -0.5846  0.2487 -0.2839
    3OL    C110 7076   4.911   0.665   4.145 -0.0632 -0.7056 -0.1336
    3OL    H10R 7077   4.930   0.638   4.042  0.1565 -1.8638  0.1946
    3OL    C111 7078   4.966   0.801   4.180 -0.3880 -0.6630  0.2168
    3OL    H11R 7079   5.074   0.802   4.170 -0.3922 -0.8794  0.1560
    3OL    H11S 7080   4.942   0.831   4.283  0.8088 -0.7451  0.5303
    3OL    C112 7081   4.906   0.906   4.085  0.8629 -0.3654 -0.2579
    3OL    H12R 7082   4.798   0.894   4.080  0.2115  1.1235  4.6876
    3OL    H12S 7083   4.949   0.882   3.988  0.3300 -0.5152 -0.4591
    3OL    C113 7084   4.954   1.047   4.125 -0.1281 -0.1836  0.3380
    3OL    H13R 7085   5.063   1.050   4.117 -0.1236  0.4095  0.5604
    3OL    H13S 7086   4.948   1.064   4.232  0.3391  0.0338  0.3331
    3OL    C114 7087   4.884   1.162   4.052 -0.1203 -0.2343  0.2493
    3OL    H14R 7088   4.930   1.251   4.096 -0.0094  0.0828 -0.4827
    3OL    H14S 7089   4.776   1.169   4.066 -0.6709 -2.2265 -2.2730
    3OL    C115 7090   4.920   1.166   3.903  0.1363 -0.5972  0.3013
    3OL    H15R 7091   4.887   1.071   3.858  0.6347  0.5663 -2.7989
    3OL    H15S 7092   5.029   1.164   3.897  0.1131 -3.0047 -0.8249
    3OL    C116 7093   4.863   1.287   3.828  0.1276 -0.9806 -0.3260
    3OL    H16R 7094   4.921   1.311   3.739  1.4989 -0.0245  0.7917
    3OL    H16S 7095   4.881   1.370   3.896  1.5724 -1.3354 -0.2424
    3OL    C117 7096   4.717   1.262   3.787  0.0177  0.2616 -0.7304
    3OL    H17R 7097   4.685   1.357   3.744  2.4015  1.6367  0.3136
    3OL    H17S 7098   4.657   1.246   3.877 -2.6651  0.3573 -2.3925
    3OL    C118 7099   4.695   1.149   3.685  0.2284  0.1412 -0.6434
    3OL    H18R 7100   4.597   1.164   3.638 -0.0858 -0.7932 -0.3049
    3OL    H18S 7101   4.712   1.053   3.733  1.0776  0.2610 -0.6824
    3OL    H18T 7102   4.771   1.172   3.611  1.1064  3.1847  1.0237
    1PA    C116 7103   3.999   4.302   3.841 -0.2615  0.6655 -0.3247
    1PA    H16R 7104   4.087   4.293   3.905 -0.9696  0.0524  0.5916
    1PA    H16S 7105   3.986   4.206   3.792 -0.9562 -1.5951  3.8344
    1PA    H16T 7106   3.919   4.322   3.912  0.4897  1.5574  0.3020
    1PA    C115 7107   4.008   4.424   3.748 -0.0182  0.4237 -0.6194
    1PA    H15R 7108   4.062   4.394   3.658 -0.0387 -1.1924 -0.1149
    1PA    H15S 7109   3.905   4.447   3.721  0.0924 -1.0376 -2.4325
    1PA    C114 7110   4.065   4.553   3.808 -0.7050  0.5396 -0.2050
    1PA    H14R 7111   4.170   4.545   3.838 -0.1722  1.0076 -1.8232
    1PA    H14S 7112   4.065   4.631   3.731 -0.9629  1.5964  0.8216
    1PA    C113 7113   3.975   4.598   3.924 -0.4974  0.1428  0.1144
    1PA    H13R 7114   3.884   4.642   3.882 -0.7728  3.0026  3.2557
    1PA    H13S 7115   3.958   4.511   3.987  1.0873 -0.4601 -0.2358
    1PA    C112 7116   4.032   4.708   4.015 -0.1613 -0.2909  0.4299
    1PA    H12R 7117   4.088   4.785   3.962  0.3627 -0.4953  0.6827
    1PA    H12S 7118   3.938   4.738   4.062 -0.4430 -2.3713  1.3323
    1PA    C111 7119   4.108   4.657   4.138  0.0928  0.1179  0.4440
    1PA    H11R 7120   4.044   4.596   4.202  0.5585 -0.8608 -0.0000
    1PA    H11S 7121   4.178   4.582   4.102 -1.2606 -1.0321  0.1182
    1PA    C110 7122   4.172   4.774   4.214  0.3896  0.5469 -0.4516
    1PA    H10R 7123   4.242   4.832   4.154  0.2899  1.3831  0.2267
    1PA    H10S 7124   4.092   4.842   4.243 -0.7926 -0.2229 -1.7593
    1PA     C19 7125   4.252   4.716   4.332 -0.2645  0.0238 -0.2627
    1PA     H9R 7126   4.199   4.635   4.384  0.3584 -1.8212 -2.3288
    1PA     H9S 7127   4.340   4.661   4.298  0.4242  0.0564  1.3698
    1PA     C18 7128   4.290   4.834   4.422  0.4003 -0.1825 -0.2728
    1PA     H8R 7129   4.334   4.919   4.369 -0.4163  2.0990  2.4648
    1PA     H8S 7130   4.206   4.884   4.470  1.7407  2.4998 -0.5571
    1PA     C17 7131   4.379   4.787   4.537  0.0948 -0.1523 -0.0235
    1PA     H7R 7132   4.344   4.696   4.586  0.4748 -1.0287 -1.3342
    1PA     H7S 7133   4.477   4.756   4.499 -1.3062 -1.2696 -3.0055
    1PA     C16 7134   4.390   4.885   4.655 -0.2327 -0.0463 -0.0807
    1PA     H6R 7135   4.469   4.956   4.629 -0.4173  1.1054  2.2875
    1PA     H6S 7136   4.304   4.950   4.673 -0.3843  0.2828 -1.8143
    1PA     C15 7137   4.437   4.819   4.785 -0.0351  0.4355  0.0942
    1PA     H5R 7138   4.410   4.889   4.865 -0.5274  1.7426 -1.1621
    1PA     H5S 7139   4.377   4.733   4.813  0.5788  0.2513  0.8681
    1PA     C14 7140   4.580   4.766   4.788 -0.1452  0.1490  0.2956
    1PA     H4R 7141   4.578   4.672   4.733 -1.6907  1.8643 -2.8195
    1PA     H4S 7142   4.643   4.826   4.722 -0.8889  0.2702 -0.3095
    1PA     C13 7143   4.630   4.738   4.931  0.2013 -0.2952  0.0894
    1PA     H3R 7144   4.621   4.826   4.993 -2.5469  0.3308 -1.0529
    1PA     H3S 7145   4.564   4.664   4.977 -1.1895  0.8000 -0.0907
    1PA     C12 7146   4.772   4.681   4.916 -0.0553 -0.9170 -0.0381
    1PA     H2R 7147   4.762   4.586   4.864  0.1031 -1.8174  1.5291
    1PA     H2S 7148   4.832   4.749   4.854 -0.2749  0.2134  0.9643
    2PC     C11 7149   4.849   4.680   5.045 -0.1502  0.2074  0.0359
    2PC     O12 7150   4.919   4.590   5.088  0.1026  0.7963  0.8952
    2PC     O11 7151   4.832   4.795   5.113 -0.5278  0.2205 -0.0794
    2PC      C1 7152   4.883   4.818   5.245 -0.0911  0.1059 -0.2250
    2PC      HR 7153   4.832   4.750   5.314 -1.0632  0.8070 -0.2337
    2PC      HS 7154   4.989   4.793   5.258  0.0179  1.3901  1.8084
    2PC      C2 7155   4.873   4.966   5.287  0.6637  0.0292  0.2490
    2PC      HX 7156   4.928   4.968   5.381  1.3150 -1.5438 -0.0636
    2PC      C3 7157   4.726   5.002   5.311  0.6270 -0.1462  0.2927
    2PC      HA 7158   4.700   5.105   5.285 -2.5114 -0.5911  1.1977
    2PC      HB 7159   4.671   4.936   5.244  0.6792 -0.9186  0.9919
    2PC     O31 7160   4.699   4.983   5.451 -0.2480 -0.0497  0.1438
    2PC     P31 7161   4.554   5.028   5.504 -0.2046  0.0040  0.2178
    2PC     O32 7162   4.577   5.187   5.497 -0.2242  0.0117  0.3317
    2PC     C31 7163   4.670   5.236   5.595  0.3131  0.0406 -0.1902
    2PC     H1A 7164   4.630   5.223   5.696  1.8424 -1.2756  0.3030
    2PC     H1B 7165   4.761   5.175   5.589 -0.3108 -0.8626 -5.2986
    2PC     C32 7166   4.706   5.384   5.577  0.8856 -0.0494  0.1820
    2PC     H2A 7167   4.616   5.445   5.575  0.5828 -0.4921 -1.6632
    2PC     H2B 7168   4.762   5.425   5.660 -1.6070 -0.3616  2.1186
    2PC     N31 7169   4.763   5.431   5.446 -0.2697  0.1387 -0.2672
    2PC     C33 7170   4.854   5.330   5.384  0.0684  0.1720  0.1697
    2PC     H3A 7171   4.934   5.317   5.458 -1.0478 -0.2642  1.3389
    2PC     H3B 7172   4.806   5.233   5.369  1.7916 -0.7336  0.1328
    2PC     H3C 7173   4.885   5.374   5.289 -1.4494  0.2170 -0.3339
    2PC     C34 7174   4.650   5.455   5.351 -0.4726 -0.5047 -0.1888
    2PC     H4A 7175   4.575   5.518   5.400 -0.1941  1.0161 -1.6534
    2PC     H4B 7176   4.674   5.507   5.259  0.0570 -1.2941 -0.5047
    2PC     H4C 7177   4.608   5.356   5.329 -0.8947 -0.0416 -1.5586
    2PC     C35 7178   4.825   5.566   5.470 -0.5313  0.2297 -0.0967
    2PC     H5A 7179   4.874   5.598   5.378  1.6959 -0.1746  0.8821
    2PC     H5B 7180   4.899   5.560   5.550 -2.5301 -1.6292  1.7487
    2PC     H5C 7181   4.748   5.635   5.505  1.9985  2.9570  0.5628
    2PC     O33 7182   4.452   4.989   5.404  0.0737 -0.3210  0.0578
    2PC     O34 7183   4.518   4.981   5.640  0.2931  0.0592  0.3708
    2PC     O21 7184   4.944   5.055   5.199 -0.1562 -0.0789 -0.5439
    2PC     C21 7185   5.077   5.077   5.202 -0.1511 -0.1565  0.1082
    2PC     O22 7186   5.155   5.005   5.259  0.2030  0.0711 -0.0869
    3OL     C12 7187   5.113   5.193   5.112  0.7302 -0.5526 -0.0607
    3OL     H2R 7188   5.194   5.246   5.161  1.3186 -0.5971 -0.9701
    3OL     H2S 7189   5.030   5.263   5.121  0.9866 -0.3858  1.1796
    3OL     C13 7190   5.152   5.170   4.966  0.4680  0.1417 -0.2397
    3OL     H3R 7191   5.241   5.108   4.968  0.2387 -0.1800  0.7050
    3OL     H3S 7192   5.171   5.270   4.925  2.6094  0.7170  1.9622
    3OL     C14 7193   5.040   5.099   4.889  0.0889  0.2935  0.1680
    3OL     H4R 7194   5.042   5.135   4.786 -0.8882 -1.4470 -0.5062
    3OL     H4S 7195   4.940   5.120   4.929  0.6960 -1.3450  2.7561
    3OL     C15 7196   5.053   4.946   4.878 -0.0952  0.2791  0.1465
    3OL     H5R 7197   4.952   4.913   4.851  0.1661 -0.6888  0.3275
    3OL     H5S 7198   5.074   4.907   4.977 -0.6272  1.4944  0.7694
    3OL     C16 7199   5.159   4.905   4.776 -0.8211 -0.0592 -0.4871
    3OL     H6R 7200   5.256   4.951   4.796 -0.6250 -1.3744  2.0457
    3OL     H6S 7201   5.118   4.943   4.683  1.0888  0.5756 -1.1303
    3OL     C17 7202   5.186   4.754   4.767 -0.2898  0.0299 -0.4657
    3OL     H7R 7203   5.092   4.698   4.762 -0.2469  0.0312 -1.7686
    3OL     H7S 7204   5.235   4.726   4.860 -1.6581 -2.4774 -0.3955
    3OL     C18 7205   5.271   4.721   4.643 -0.0044 -0.4961 -0.1344
    3OL     H8R 7206   5.216   4.748   4.553  0.3454  1.4746  0.1917
    3OL     H8S 7207   5.288   4.613   4.642  2.2981 -0.2014 -2.4855
    3OL     C19 7208   5.402   4.796   4.638 -0.2709 -0.0492 -0.4858
    3OL     H9R 7209   5.463   4.758   4.719 -1.6961  0.6758  1.0034
    3OL    C110 7210   5.451   4.883   4.551 -0.0029  0.2369 -0.0503
    3OL    H10R 7211   5.551   4.922   4.565  0.8794 -0.8986 -2.5771
    3OL    C111 7212   5.382   4.942   4.431 -0.8617  0.0364  0.3391
    3OL    H11R 7213   5.286   4.895   4.405 -1.2727  2.3671 -2.9229
    3OL    H11S 7214   5.454   4.937   4.349  0.2004  2.3769  1.0729
    3OL    C112 7215   5.345   5.089   4.456 -0.4549  0.0978  0.5924
    3OL    H12R 7216   5.432   5.152   4.441  0.8578 -0.9104  3.3339
    3OL    H12S 7217   5.317   5.104   4.560 -0.7384 -0.7136  0.6435
    3OL    C113 7218   5.237   5.136   4.357  0.1682  0.0736 -0.1048
    3OL    H13R 7219   5.148   5.075   4.340 -1.4169  2.6036 -1.5201
    3OL    H13S 7220   5.274   5.145   4.254 -0.1818 -2.0042 -0.4556
    3OL    C114 7221   5.177   5.271   4.399 -0.0211  0.0533 -0.3059
    3OL    H14R 7222   5.259   5.338   4.426  1.3266 -1.1875 -1.1408
    3OL    H14S 7223   5.120   5.264   4.492  1.1693  0.4242  0.4801
    3OL    C115 7224   5.094   5.344   4.293 -0.1017 -0.1324 -0.3706
    3OL    H15R 7225   5.000   5.289   4.289 -1.4694  2.0053  0.5470
    3OL    H15S 7226   5.145   5.340   4.197 -1.6274 -0.4651 -1.2069
    3OL    C116 7227   5.063   5.489   4.331 -0.1353 -0.3506  0.4479
    3OL    H16R 7228   5.148   5.553   4.309  1.8084 -3.7710 -3.0985
    3OL    H16S 7229   5.026   5.491   4.434 -0.5751 -0.3795  0.2931
    3OL    C117 7230   4.950   5.553   4.249  0.3279 -0.0990  0.0011
    3OL    H17R 7231   4.954   5.516   4.147  2.2630 -1.6263  0.5712
    3OL    H17S 7232   4.961   5.662   4.253  0.0062 -0.0959  2.2132
    3OL    C118 7233   4.810   5.506   4.293  0.2662 -0.2527 -0.3546
    3OL    H18R 7234   4.799   5.522   4.401 -2.1039  1.0469 -0.7226
    3OL    H18S 7235   4.797   5.398   4.283 -1.0306 -0.1217 -0.2523
    3OL    H18T 7236   4.736   5.553   4.229  0.4395 -1.7956 -1.7575
    1PA    C116 7237   1.963   3.940   4.122  0.3489  0.2580  0.2654
    1PA    H16R 7238   1.860   3.907   4.139  0.8962 -0.9816  1.3613
    1PA    H16S 7239   1.983   3.988   4.218  0.1452  0.0912  0.3940
    1PA    H16T 7240   2.029   3.854   4.109 -0.9723 -0.8681  0.6652
    1PA    C115 7241   1.967   4.024   3.994  0.1785  0.0420  0.1182
    1PA    H15R 7242   2.068   4.044   3.957 -0.2889 -0.1462 -1.3635
    1PA    H15S 7243   1.915   3.962   3.919 -0.6218 -0.7131  1.2667
    1PA    C114 7244   1.883   4.150   4.020  0.7418  0.3758  0.3342
    1PA    H14R 7245   1.781   4.126   4.052  0.5865  1.1306  0.4225
    1PA    H14S 7246   1.908   4.213   4.105  0.8884  2.8178 -1.4386
    1PA    C113 7247   1.887   4.243   3.898  0.3453 -0.2747 -0.1848
    1PA    H13R 7248   1.883   4.178   3.810 -1.2450 -0.9689  0.3731
    1PA    H13S 7249   1.804   4.313   3.905  1.0682  0.5265  0.5469
    1PA    C112 7250   2.015   4.323   3.870  0.4976 -0.3356  0.3395
    1PA    H12R 7251   2.101   4.259   3.888  1.1118  0.0732 -1.0249
    1PA    H12S 7252   2.022   4.361   3.768  1.4707 -3.1258 -0.7358
    1PA    C111 7253   2.030   4.441   3.968 -0.1872  0.1064 -0.0793
    1PA    H11R 7254   2.016   4.413   4.073 -1.7890  0.3821 -0.2037
    1PA    H11S 7255   2.132   4.480   3.967 -0.3318  0.6489  1.8353
    1PA    C110 7256   1.934   4.557   3.939  0.1911  0.2906 -0.6024
    1PA    H10R 7257   1.962   4.599   3.842  0.6505 -1.6424 -1.3583
    1PA    H10S 7258   1.830   4.524   3.933 -0.9462  3.4914 -0.2054
    1PA     C19 7259   1.952   4.664   4.047 -0.2089 -0.5324  0.2916
    1PA     H9R 7260   2.055   4.702   4.049  0.3787 -1.9432 -1.2887
    1PA     H9S 7261   1.883   4.746   4.027  0.1509 -0.3716 -0.3275
    1PA     C18 7262   1.920   4.627   4.193  0.2556  0.1192  0.5658
    1PA     H8R 7263   1.818   4.588   4.196 -0.5521  2.1042  0.2742
    1PA     H8S 7264   1.985   4.544   4.223 -0.1300  0.0238  1.1429
    1PA     C17 7265   1.925   4.754   4.279 -0.3434  0.3786  0.2300
    1PA     H7R 7266   1.908   4.841   4.216  0.9675  0.0748 -0.5914
    1PA     H7S 7267   1.849   4.752   4.357  0.4311  1.2409  1.0370
    1PA     C16 7268   2.065   4.751   4.344 -0.1131 -0.5681 -0.2886
    1PA     H6R 7269   2.065   4.668   4.415 -1.3145 -1.4226 -1.2413
    1PA     H6S 7270   2.155   4.740   4.283  1.9298  0.6233  2.3295
    1PA     C15 7271   2.094   4.881   4.419 -0.3788 -0.4799 -0.3368
    1PA     H5R 7272   2.199   4.863   4.443 -0.6485  0.4000  1.7920
    1PA     H5S 7273   2.085   4.975   4.363  1.9626 -0.9856 -1.6913
    1PA     C14 7274   2.015   4.867   4.550 -0.3922 -0.0825 -0.3011
    1PA     H4R 7275   1.907   4.879   4.543 -0.1445  4.1374  0.5546
    1PA     H4S 7276   2.020   4.769   4.598  0.4672  0.5198  0.8807
    1PA     C13 7277   2.065   4.969   4.653 -0.2106 -0.1056 -0.3650
    1PA     H3R 7278   2.172   4.951   4.667  0.2562  1.1214 -2.0520
    1PA     H3S 7279   2.059   5.073   4.619 -1.0131 -0.0573 -0.0974
    1PA     C12 7280   1.999   4.935   4.788  0.1401  0.2829 -0.0927
    1PA     H2R 7281   1.892   4.952   4.797  0.6753  2.7607  4.3966
    1PA     H2S 7282   2.011   4.827   4.799 -2.0131 -0.2420 -2.1667
    2PC     C11 7283   2.065   5.006   4.903  0.2536 -0.4135  0.2765
    2PC     O12 7284   1.994   5.088   4.958 -0.0889 -0.0313 -0.7241
    2PC     O11 7285   2.194   4.980   4.929  0.4825  0.0940 -0.3322
    2PC      C1 7286   2.267   5.028   5.044 -0.3694 -0.2602  0.3704
    2PC      HR 7287   2.212   5.117   5.077  0.6199  0.7918 -0.7071
    2PC      HS 7288   2.280   4.950   5.119  2.1776 -0.1332  0.1610
    2PC      C2 7289   2.407   5.067   4.993 -0.4750  0.0458  0.3090
    2PC      HX 7290   2.455   4.972   4.968  0.9419  0.3814  1.5884
    2PC      C3 7291   2.495   5.145   5.092 -0.3375 -0.1764  0.3640
    2PC      HA 7292   2.502   5.094   5.188  2.0281 -0.4134  0.1242
    2PC      HB 7293   2.596   5.138   5.052 -0.5915 -2.2599 -0.0249
    2PC     O31 7294   2.458   5.284   5.104  0.3140  0.0328  0.0139
    2PC     P31 7295   2.559   5.385   5.177  0.3074  0.0533 -0.0051
    2PC     O32 7296   2.531   5.518   5.092  0.4123 -0.0008 -0.1252
    2PC     C31 7297   2.564   5.512   4.952 -0.5667 -0.0413 -0.3638
    2PC     H1A 7298   2.654   5.451   4.944  2.0098  3.5684 -1.6247
    2PC     H1B 7299   2.478   5.475   4.897  0.8593 -2.0273 -1.3653
    2PC     C32 7300   2.601   5.654   4.908  0.0339 -0.0195  0.1899
    2PC     H2A 7301   2.587   5.659   4.800 -0.0443  3.1081  0.2504
    2PC     H2B 7302   2.529   5.725   4.948  0.4807 -0.2118  1.3573
    2PC     N31 7303   2.739   5.702   4.940 -0.0841  0.4233  0.0408
    2PC     C33 7304   2.842   5.631   4.857  0.3172  0.3657  0.5817
    2PC     H3A 7305   2.819   5.643   4.751 -2.0475  0.1904  1.0108
    2PC     H3B 7306   2.937   5.682   4.872  0.8531 -0.6566  0.7442
    2PC     H3C 7307   2.847   5.525   4.884  2.7195 -0.1147 -1.4150
    2PC     C34 7308   2.752   5.851   4.928  0.7310  0.3311 -0.2971
    2PC     H4A 7309   2.854   5.888   4.937  0.1236  2.3828 -1.1356
    2PC     H4B 7310   2.701   5.885   4.838  0.8897 -0.4749 -0.7009
    2PC     H4C 7311   2.694   5.897   5.008  0.0379  1.5163 -1.4336
    2PC     C35 7312   2.776   5.667   5.081  0.4012 -0.2767 -0.2553
    2PC     H5A 7313   2.803   5.562   5.087 -0.7218 -0.4736  2.3753
    2PC     H5B 7314   2.691   5.693   5.144 -0.5977 -3.4507 -0.1105
    2PC     H5C 7315   2.859   5.738   5.090  0.6755 -0.3265 -2.0151
    2PC     O33 7316   2.546   5.397   5.324  0.2463  0.0413 -0.0093
    2PC     O34 7317   2.704   5.359   5.161  0.1749 -0.9087  0.2697
    2PC     O21 7318   2.385   5.153   4.880  0.1390  0.5364  0.5575
    2PC     C21 7319   2.473   5.139   4.780 -0.1112  0.0721  0.4020
    2PC     O22 7320   2.565   5.060   4.784 -0.2693 -0.1646 -0.3380
    3OL     C12 7321   2.436   5.217   4.656  0.4498 -0.2530  0.0232
    3OL     H2R 7322   2.488   5.312   4.660  1.7558 -0.9577  3.1049
    3OL     H2S 7323   2.333   5.252   4.667  0.5634  0.2288 -0.4374
    3OL     C13 7324   2.428   5.143   4.521 -0.5456 -0.4113  0.1579
    3OL     H3R 7325   2.410   5.040   4.552  1.0328 -0.2250  1.9354
    3OL     H3S 7326   2.525   5.128   4.473  0.8293  1.8397  1.9792
    3OL     C14 7327   2.316   5.193   4.429  0.1886  0.3755 -0.3334
    3OL     H4R 7328   2.317   5.301   4.417  2.6216  0.8106  2.4420
    3OL     H4S 7329   2.224   5.167   4.484 -0.8564  3.1082 -0.6177
    3OL     C15 7330   2.320   5.115   4.297  0.2554  0.0365 -0.1340
    3OL     H5R 7331   2.225   5.130   4.245 -0.3556  1.4525  1.2921
    3OL     H5S 7332   2.345   5.012   4.321  0.7277  0.2835  0.4519
    3OL     C16 7333   2.433   5.174   4.212  0.1061 -0.3499 -0.6047
    3OL     H6R 7334   2.449   5.114   4.122 -1.7134 -1.9918  0.0980
    3OL     H6S 7335   2.527   5.163   4.267 -0.2215  0.2059  0.0761
    3OL     C17 7336   2.399   5.317   4.167 -0.0959 -0.3482 -0.4491
    3OL     H7R 7337   2.430   5.383   4.248  0.2856  0.6339 -1.3755
    3OL     H7S 7338   2.291   5.334   4.164  0.0218  0.4939 -0.1788
    3OL     C18 7339   2.452   5.361   4.030  0.2929 -0.1639 -0.2427
    3OL     H8R 7340   2.423   5.466   4.016 -0.4564 -0.0488  1.9115
    3OL     H8S 7341   2.409   5.297   3.952 -2.6239  0.4078  0.7429
    3OL     C19 7342   2.602   5.352   4.042  0.2430  0.1120  0.6135
    3OL     H9R 7343   2.646   5.413   4.121 -0.8810  0.7472  0.7760
    3OL    C110 7344   2.672   5.275   3.961 -0.9092  0.2514 -0.5446
    3OL    H10R 7345   2.779   5.268   3.979 -1.0964 -0.5922  0.3145
    3OL    C111 7346   2.628   5.180   3.852 -0.4313  0.2186 -0.7091
    3OL    H11R 7347   2.556   5.226   3.783 -2.6123 -1.5065  0.2956
    3OL    H11S 7348   2.597   5.087   3.901 -0.8245  1.2384  1.0659
    3OL    C112 7349   2.746   5.161   3.755 -0.1521  0.5251 -0.4340
    3OL    H12R 7350   2.844   5.138   3.797  0.5793  1.6207 -1.4840
    3OL    H12S 7351   2.767   5.263   3.722  1.3383 -0.1567 -1.7190
    3OL    C113 7352   2.720   5.066   3.637 -0.1039 -0.0211 -0.0105
    3OL    H13R 7353   2.613   5.073   3.612  0.2405  1.5947 -1.2350
    3OL    H13S 7354   2.738   4.966   3.676 -0.0758  0.7558  2.0765
    3OL    C114 7355   2.801   5.107   3.513 -0.1357  0.1487  0.0251
    3OL    H14R 7356   2.906   5.115   3.543 -0.5308 -0.5671  1.7326
    3OL    H14S 7357   2.770   5.202   3.468  0.0064  1.2054  2.0118
    3OL    C115 7358   2.792   5.013   3.392  0.0651  0.0681  0.0722
    3OL    H15R 7359   2.809   4.913   3.431 -1.5287  0.0341  0.7752
    3OL    H15S 7360   2.881   5.032   3.332 -0.1022 -0.3070 -0.2929
    3OL    C116 7361   2.669   5.022   3.300  0.2655  0.1969 -0.1830
    3OL    H16R 7362   2.654   5.123   3.264  0.7978  0.5596  0.5759
    3OL    H16S 7363   2.577   5.004   3.356  1.2763 -0.4904  1.3351
    3OL    C117 7364   2.673   4.936   3.173 -0.5643 -0.6251  0.3354
    3OL    H17R 7365   2.571   4.915   3.139 -0.8036 -0.3304  0.8620
    3OL    H17S 7366   2.715   4.836   3.186 -0.2235 -0.8936 -2.3386
    3OL    C118 7367   2.760   4.989   3.058 -0.3648 -0.7927  0.4084
    3OL    H18R 7368   2.742   4.937   2.964  3.1280  0.9866 -1.4644
    3OL    H18S 7369   2.864   4.974   3.089 -0.3774  1.3835  1.7615
    3OL    H18T 7370   2.748   5.097   3.045 -1.4405 -1.0740 -1.1495
    1PA    C116 7371   6.257   4.655   3.228  0.3370 -0.5430 -0.0822
    1PA    H16R 7372   6.261   4.554   3.186  1.8119  0.8824 -3.8464
    1PA    H16S 7373   6.356   4.701   3.222 -0.2129  0.7910  0.5583
    1PA    H16T 7374   6.184   4.705   3.164 -0.5835 -1.6159  0.1016
    1PA    C115 7375   6.195   4.641   3.368 -0.0786 -0.5162 -0.2605
    1PA    H15R 7376   6.257   4.576   3.431  1.4620  0.0644 -1.1242
    1PA    H15S 7377   6.183   4.737   3.418  0.7852 -0.1334 -0.7574
    1PA    C114 7378   6.062   4.564   3.364 -0.2063 -0.2812 -0.5518
    1PA    H14R 7379   5.994   4.609   3.291 -1.1670  0.9874  1.0731
    1PA    H14S 7380   6.101   4.466   3.333 -1.1628 -0.7860 -0.1890
    1PA    C113 7381   5.991   4.558   3.499  0.4084 -0.3537 -0.2271
    1PA    H13R 7382   5.958   4.661   3.519  0.9781 -0.2859  0.3989
    1PA    H13S 7383   5.898   4.503   3.485 -0.7941  1.4639  0.1798
    1PA    C112 7384   6.086   4.508   3.608  0.2512 -0.2667 -0.0490
    1PA    H12R 7385   6.125   4.413   3.570  0.6579  0.4321 -1.4230
    1PA    H12S 7386   6.170   4.574   3.630  1.3112 -0.4747 -3.0172
    1PA    C111 7387   6.006   4.500   3.739  0.4269  0.5205  0.1112
    1PA    H11R 7388   5.970   4.597   3.774 -0.9984 -0.0938  0.4351
    1PA    H11S 7389   5.917   4.439   3.722  0.2740  0.6631  0.3960
    1PA    C110 7390   6.095   4.432   3.844 -0.0772 -0.4369 -0.0704
    1PA    H10R 7391   6.129   4.331   3.818  1.6389 -0.3664  1.6743
    1PA    H10S 7392   6.187   4.488   3.862  0.5267 -0.8736 -1.6596
    1PA     C19 7393   6.020   4.420   3.977 -0.1349  0.0584 -0.0590
    1PA     H9R 7394   5.982   4.520   4.002  2.3772  0.8695  0.7820
    1PA     H9S 7395   5.936   4.352   3.962 -0.3718  0.2011  0.5691
    1PA     C18 7396   6.108   4.370   4.093  0.0021  0.1047 -0.1433
    1PA     H8R 7397   6.188   4.302   4.066  0.6013  1.8516 -3.2987
    1PA     H8S 7398   6.163   4.456   4.132 -0.8324 -0.0820  1.5466
    1PA     C17 7399   6.016   4.323   4.207 -0.4599  0.3897 -0.3945
    1PA     H7R 7400   5.961   4.235   4.173  0.8936 -0.7983  0.3709
    1PA     H7S 7401   6.082   4.301   4.292  0.2804  2.6392 -0.3076
    1PA     C16 7402   5.921   4.434   4.256 -0.0779  0.5331  0.0290
    1PA     H6R 7403   5.976   4.526   4.276 -0.1519  0.2554  1.6204
    1PA     H6S 7404   5.839   4.446   4.186 -0.3761 -1.4821 -0.0385
    1PA     C15 7405   5.868   4.400   4.396  0.0337 -0.0968 -0.0749
    1PA     H5R 7406   5.858   4.292   4.403  2.5053 -0.3026  1.1744
    1PA     H5S 7407   5.948   4.427   4.465 -0.3121  0.2108  0.2178
    1PA     C14 7408   5.738   4.477   4.427  0.2716  0.1645  0.2818
    1PA     H4R 7409   5.753   4.580   4.397  2.4689  0.1372  1.1089
    1PA     H4S 7410   5.657   4.444   4.361  1.3486  0.7844 -1.4161
    1PA     C13 7411   5.686   4.472   4.572 -0.4228 -0.8158  0.0127
    1PA     H3R 7412   5.588   4.520   4.572  0.7161  1.7206 -1.1009
    1PA     H3S 7413   5.672   4.367   4.597 -1.3547 -0.5400  0.7142
    1PA     C12 7414   5.792   4.530   4.666 -0.0619 -0.6270 -0.5030
    1PA     H2R 7415   5.869   4.454   4.682  0.8440 -0.1353 -2.2688
    1PA     H2S 7416   5.842   4.616   4.621  1.7409 -1.4430 -0.1553
    2PC     C11 7417   5.726   4.571   4.795  0.9972 -0.5594  0.0351
    2PC     O12 7418   5.656   4.493   4.857  0.8729 -0.0906  0.4933
    2PC     O11 7419   5.764   4.696   4.827  0.0759 -0.2553 -0.0169
    2PC      C1 7420   5.723   4.758   4.951  0.1402 -0.1695 -0.0387
    2PC      HR 7421   5.614   4.751   4.949  0.1505 -0.3012 -1.1334
    2PC      HS 7422   5.763   4.712   5.042  1.3600  1.1724  0.1292
    2PC      C2 7423   5.772   4.903   4.949 -0.1468 -0.0652  0.4611
    2PC      HX 7424   5.876   4.914   4.917  0.0002  0.2380  1.0303
    2PC      C3 7425   5.794   4.949   5.094 -0.3674  0.1153  0.4391
    2PC      HA 7426   5.867   4.878   5.135 -0.5041  1.1123  2.5387
    2PC      HB 7427   5.830   5.051   5.106  0.3578  0.0661 -1.1472
    2PC     O31 7428   5.670   4.935   5.166 -0.5256  0.0831  0.1592
    2PC     P31 7429   5.662   5.012   5.306  0.1799  0.2394  0.1176
    2PC     O32 7430   5.771   4.941   5.400  0.6378  0.0934 -0.5143
    2PC     C31 7431   5.750   4.802   5.430 -0.1136  0.2807 -0.1538
    2PC     H1A 7432   5.664   4.788   5.497 -0.2808  1.2563 -0.1594
    2PC     H1B 7433   5.726   4.744   5.340 -1.6676  0.0833  0.3533
    2PC     C32 7434   5.879   4.749   5.495  0.0957  0.3498 -0.5133
    2PC     H2A 7435   5.864   4.646   5.527  0.7305  0.6628  0.8524
    2PC     H2B 7436   5.957   4.758   5.419 -2.0685 -0.4813 -3.0074
    2PC     N31 7437   5.929   4.818   5.618 -0.1052 -0.1179 -0.1679
    2PC     C33 7438   5.977   4.960   5.605  0.0854 -0.0939  0.7108
    2PC     H3A 7439   5.976   5.015   5.699 -0.6975 -0.0852  0.7029
    2PC     H3B 7440   6.076   4.955   5.560 -0.0621  0.7019  0.2959
    2PC     H3C 7441   5.909   5.011   5.538  2.2705 -1.0579 -2.4897
    2PC     C34 7442   5.819   4.826   5.720 -0.2590  0.2709 -0.3609
    2PC     H4A 7443   5.766   4.732   5.704 -0.3071  0.3816 -0.8594
    2PC     H4B 7444   5.867   4.832   5.818  0.2099  1.5290 -0.6488
    2PC     H4C 7445   5.756   4.910   5.690  1.8602  2.3954  0.7528
    2PC     C35 7446   6.051   4.743   5.662  0.1083  0.1976 -0.2222
    2PC     H5A 7447   6.014   4.650   5.704  0.5275 -0.4995 -1.3465
    2PC     H5B 7448   6.104   4.790   5.745  1.0825 -1.2911  0.0326
    2PC     H5C 7449   6.114   4.717   5.577  1.6695  0.5412  0.7903
    2PC     O33 7450   5.696   5.154   5.284 -0.3117  0.2986 -0.2777
    2PC     O34 7451   5.531   5.019   5.373  0.0413  0.3053 -0.1601
    2PC     O21 7452   5.681   4.984   4.874  0.2480 -0.2065 -0.1776
    2PC     C21 7453   5.707   5.115   4.860 -0.1520  0.0353  1.1996
    2PC     O22 7454   5.815   5.170   4.865  0.1479 -0.4635  0.3605
    3OL     C12 7455   5.582   5.182   4.808  0.5389  0.0875 -0.4397
    3OL     H2R 7456   5.498   5.150   4.869  0.7464  0.3814  0.0110
    3OL     H2S 7457   5.570   5.142   4.707  0.8102  0.3996 -0.5977
    3OL     C13 7458   5.581   5.336   4.811 -0.1669  0.0794 -0.2570
    3OL     H3R 7459   5.628   5.388   4.728 -1.7542 -1.4409 -2.2223
    3OL     H3S 7460   5.612   5.383   4.904 -1.0102 -2.2013  1.2818
    3OL     C14 7461   5.433   5.377   4.805 -0.1681  0.1511  0.2021
    3OL     H4R 7462   5.383   5.353   4.899  0.3502  1.3109  0.7932
    3OL     H4S 7463   5.388   5.314   4.727  0.8149 -0.5853  0.2042
    3OL     C15 7464   5.418   5.526   4.773  0.0830  0.1325 -0.0142
    3OL     H5R 7465   5.462   5.558   4.679  0.1665  0.6757  0.2043
    3OL     H5S 7466   5.462   5.595   4.846  1.5032 -0.2267 -0.5067
    3OL     C16 7467   5.266   5.550   4.781  0.0305 -0.1763 -0.0641
    3OL     H6R 7468   5.237   5.535   4.885  0.2418  1.4413  0.2696
    3OL     H6S 7469   5.214   5.473   4.724  1.3920 -0.2299 -1.2862
    3OL     C17 7470   5.220   5.692   4.742  0.0931 -0.0361  0.3656
    3OL     H7R 7471   5.258   5.715   4.643  3.5057  1.4495  1.8302
    3OL     H7S 7472   5.264   5.770   4.804  1.9879  0.7854 -1.8902
    3OL     C18 7473   5.067   5.686   4.739  0.0873  0.3282 -0.0088
    3OL     H8R 7474   5.046   5.612   4.816  0.8068 -0.4197 -0.5159
    3OL     H8S 7475   5.030   5.644   4.645 -2.0218 -0.2944  1.0326
    3OL     C19 7476   5.008   5.822   4.768 -1.0849 -0.2481  0.3763
    3OL     H9R 7477   5.072   5.901   4.808 -2.6387  0.9104  0.6417
    3OL    C110 7478   4.886   5.861   4.735 -0.9075  0.2798  0.3412
    3OL    H10R 7479   4.857   5.964   4.756 -0.5732  0.2833  0.7949
    3OL    C111 7480   4.785   5.778   4.661 -0.1683 -0.3252 -0.0047
    3OL    H11R 7481   4.697   5.771   4.726  0.3024 -0.1226  0.6662
    3OL    H11S 7482   4.814   5.675   4.641  2.1781  0.6042 -1.7663
    3OL    C112 7483   4.739   5.845   4.531  0.1981  0.3878  0.2302
    3OL    H12R 7484   4.708   5.947   4.558  0.0293  0.5859 -0.6902
    3OL    H12S 7485   4.654   5.792   4.488  0.9710 -2.3318  1.7869
    3OL    C113 7486   4.851   5.848   4.427  0.3925  0.6010  0.4446
    3OL    H13R 7487   4.804   5.830   4.330 -0.7502  3.7889  0.2944
    3OL    H13S 7488   4.915   5.761   4.441  0.0765  0.3440  0.2848
    3OL    C114 7489   4.924   5.983   4.425  0.3465  0.6245  0.3356
    3OL    H14R 7490   4.961   6.010   4.524 -3.1579  2.7479  1.2022
    3OL    H14S 7491   4.847   6.059   4.417 -0.9684 -0.6471  0.6170
    3OL    C115 7492   5.033   5.984   4.316 -0.2230 -0.0548 -0.2541
    3OL    H15R 7493   5.057   6.090   4.303 -1.1268  0.1599 -0.2648
    3OL    H15S 7494   4.991   5.941   4.225  1.0234  1.7683 -1.7937
    3OL    C116 7495   5.158   5.903   4.354  0.0058  0.2844 -0.2773
    3OL    H16R 7496   5.125   5.804   4.387 -1.9149 -0.2366 -3.3731
    3OL    H16S 7497   5.209   5.940   4.443 -1.2250  2.7193 -0.4962
    3OL    C117 7498   5.245   5.901   4.228  0.6385 -0.1256  0.1638
    3OL    H17R 7499   5.349   5.880   4.256  0.2457 -0.3946  1.4608
    3OL    H17S 7500   5.255   6.000   4.182  0.2754 -0.4598 -0.6537
    3OL    C118 7501   5.189   5.794   4.134  0.8798  0.2429 -0.4054
    3OL    H18R 7502   5.256   5.785   4.048  0.0064  0.3099 -1.1078
    3OL    H18S 7503   5.088   5.813   4.097  0.7904 -0.1301 -0.3580
    3OL    H18T 7504   5.178   5.696   4.182 -0.0895 -0.8681 -2.7316
    1PA    C116 7505   0.907   2.255   3.945 -0.5762 -0.1391 -0.0723
    1PA    H16R 7506   0.990   2.200   3.899 -0.3957 -1.6717  1.9371
    1PA    H16S 7507   0.870   2.331   3.876  0.0958 -0.4630 -0.8127
    1PA    H16T 7508   0.822   2.192   3.970 -0.4877 -0.5824 -0.8450
    1PA    C115 7509   0.959   2.316   4.076  0.2387 -0.2092 -0.3511
    1PA    H15R 7510   0.992   2.418   4.058 -0.5246  0.7801  3.0677
    1PA    H15S 7511   0.872   2.331   4.141 -0.0773  0.4847 -0.9208
    1PA    C114 7512   1.063   2.231   4.151  0.1058  0.3787  0.5171
    1PA    H14R 7513   1.130   2.179   4.082  1.6828  2.4272  0.4110
    1PA    H14S 7514   1.129   2.304   4.199 -0.4548  0.4451  1.2048
    1PA    C113 7515   1.004   2.143   4.261 -0.9318  0.3657 -0.0364
    1PA    H13R 7516   0.968   2.203   4.344 -3.0208 -1.3996  0.4318
    1PA    H13S 7517   0.916   2.088   4.226 -2.3303  2.8001 -0.5591
    1PA    C112 7518   1.100   2.038   4.320 -0.4324  0.8024 -0.0646
    1PA    H12R 7519   1.136   1.972   4.241 -0.0177  2.3688 -1.2275
    1PA    H12S 7520   1.188   2.098   4.342  1.3703 -0.4551 -3.2256
    1PA    C111 7521   1.040   1.954   4.434 -0.0213  0.3746 -0.1627
    1PA    H11R 7522   0.996   2.000   4.523  1.0570 -0.6860  0.9625
    1PA    H11S 7523   0.958   1.891   4.398  0.1591  0.2887 -0.4224
    1PA    C110 7524   1.153   1.873   4.500 -0.0708  0.5769  0.1750
    1PA    H10R 7525   1.196   1.811   4.420  0.6965  0.3639  0.7436
    1PA    H10S 7526   1.221   1.947   4.541 -1.4601  2.4344 -0.7030
    1PA     C19 7527   1.107   1.776   4.610 -0.1098  0.1661 -0.1974
    1PA     H9R 7528   1.046   1.827   4.685 -0.2866 -2.0593  1.2454
    1PA     H9S 7529   1.052   1.694   4.563 -0.0571  0.4805 -0.8247
    1PA     C18 7530   1.233   1.718   4.674 -0.2728  0.1215  0.0839
    1PA     H8R 7531   1.295   1.662   4.603  1.4010  1.4173  0.4570
    1PA     H8S 7532   1.291   1.798   4.719  3.4056 -2.0742 -0.3303
    1PA     C17 7533   1.189   1.634   4.795  0.5042 -0.5350 -0.0763
    1PA     H7R 7534   1.283   1.617   4.849  0.7103 -0.8529 -0.5361
    1PA     H7S 7535   1.117   1.693   4.853 -1.0341 -0.6370 -1.7941
    1PA     C16 7536   1.138   1.494   4.762  0.0498 -0.3868 -0.0086
    1PA     H6R 7537   1.049   1.502   4.699  0.7257  1.2952 -0.8063
    1PA     H6S 7538   1.217   1.445   4.705 -1.1094  0.0027 -2.0477
    1PA     C15 7539   1.103   1.410   4.886 -0.0593  0.1340  0.3170
    1PA     H5R 7540   1.192   1.424   4.949  0.7129  2.2215 -1.1203
    1PA     H5S 7541   1.018   1.455   4.938  1.0939  0.2016  2.2657
    1PA     C14 7542   1.066   1.263   4.860  0.1168  0.0550  0.4981
    1PA     H4R 7543   0.989   1.241   4.934 -1.4978  3.0507 -0.1357
    1PA     H4S 7544   1.013   1.252   4.764  1.4842 -1.1419 -0.1531
    1PA     C13 7545   1.189   1.171   4.860  0.1771  0.1236 -0.3741
    1PA     H3R 7546   1.153   1.085   4.803 -0.9819 -0.7809  1.6023
    1PA     H3S 7547   1.267   1.222   4.803 -0.1568  0.5458 -0.4653
    1PA     C12 7548   1.236   1.106   4.990  0.5148  0.2517 -0.4324
    1PA     H2R 7549   1.176   1.019   5.017 -0.0989  0.4779 -1.0562
    1PA     H2S 7550   1.339   1.071   4.979  0.6498  0.7013 -0.5861
    2PC     C11 7551   1.238   1.209   5.100  0.7744 -0.3627  0.1487
    2PC     O12 7552   1.330   1.286   5.119 -0.0808  0.7724 -0.2124
    2PC     O11 7553   1.123   1.206   5.170  0.6479  0.1849 -0.0335
    2PC      C1 7554   1.110   1.315   5.264  0.2452  0.3123 -0.2345
    2PC      HR 7555   1.190   1.305   5.337 -0.4966  0.4917  0.6145
    2PC      HS 7556   1.126   1.415   5.223 -0.2879  0.2164 -0.6946
    2PC      C2 7557   0.975   1.297   5.334  0.1703  0.4703 -0.3389
    2PC      HX 7558   0.946   1.394   5.375 -1.1371  0.0699 -0.2389
    2PC      C3 7559   0.968   1.189   5.443  0.4454  0.1981 -0.5922
    2PC      HA 7560   0.869   1.188   5.489 -0.6706 -0.4583 -2.8877
    2PC      HB 7561   0.996   1.094   5.396  0.8814  1.1671 -2.4101
    2PC     O31 7562   1.072   1.215   5.540 -0.2936 -0.1179  0.2960
    2PC     P31 7563   1.083   1.143   5.683  0.0389 -0.0830  0.2871
    2PC     O32 7564   1.133   0.994   5.653 -0.3396 -0.0715 -0.4287
    2PC     C31 7565   1.249   0.971   5.571  0.0431 -0.0314  0.0930
    2PC     H1A 7566   1.220   0.952   5.467 -0.9941  1.0026  0.1645
    2PC     H1B 7567   1.305   1.065   5.577 -1.0567  0.6093  0.7099
    2PC     C32 7568   1.329   0.865   5.647 -0.7430 -0.4759  0.3085
    2PC     H2A 7569   1.281   0.767   5.653  0.0446 -0.7896  1.8315
    2PC     H2B 7570   1.418   0.844   5.587 -0.2013  0.1717  0.8858
    2PC     N31 7571   1.381   0.898   5.783 -0.5571 -0.5567  0.2575
    2PC     C33 7572   1.271   0.907   5.885 -1.0746  1.0172 -0.4086
    2PC     H3A 7573   1.321   0.945   5.974 -2.5959  0.6785  0.6321
    2PC     H3B 7574   1.201   0.984   5.854 -0.0749  1.0891 -2.7159
    2PC     H3C 7575   1.231   0.807   5.904  1.5829 -0.2557 -0.8961
    2PC     C34 7576   1.476   0.789   5.824 -0.1112 -0.2557  0.0346
    2PC     H4A 7577   1.546   0.793   5.741  1.8783  0.1809  1.6388
    2PC     H4B 7578   1.533   0.813   5.914 -2.4577  0.8384  1.3192
    2PC     H4C 7579   1.421   0.695   5.836  0.2874 -0.6777 -1.2788
    2PC     C35 7580   1.454   1.029   5.779 -0.3569 -0.6715  0.1280
    2PC     H5A 7581   1.515   1.022   5.689  0.3416 -2.5647  0.6903
    2PC     H5B 7582   1.505   1.034   5.876  2.0812 -1.7813 -1.0167
    2PC     H5C 7583   1.387   1.115   5.775  0.2429 -0.0993  1.5899
    2PC     O33 7584   1.194   1.218   5.747  0.3755  0.0859 -0.4705
    2PC     O34 7585   0.963   1.166   5.766 -0.3484 -0.2482 -0.2268
    2PC     O21 7586   0.874   1.270   5.235  0.3388 -1.2749 -0.0707
    2PC     C21 7587   0.741   1.265   5.253  0.2440  0.2688 -0.2074
    2PC     O22 7588   0.685   1.301   5.355  0.0498  0.4462 -0.3746
    3OL     C12 7589   0.660   1.197   5.145 -0.8869  0.8118  0.2731
    3OL     H2R 7590   0.555   1.218   5.165 -1.7055 -1.6989 -0.9818
    3OL     H2S 7591   0.662   1.089   5.160 -1.1205  0.5614 -1.3131
    3OL     C13 7592   0.706   1.230   5.002  0.1987  0.2925  0.4905
    3OL     H3R 7593   0.808   1.198   4.978 -0.2887  0.4301 -2.0391
    3OL     H3S 7594   0.689   1.337   4.991 -1.5121  0.1006  0.9753
    3OL     C14 7595   0.623   1.170   4.888  0.3959  0.0912  0.4515
    3OL     H4R 7596   0.523   1.213   4.903  1.3360  2.0689  1.4887
    3OL     H4S 7597   0.623   1.062   4.900  0.9977  0.1966  1.4787
    3OL     C15 7598   0.681   1.200   4.749  0.2151  0.3632  0.4338
    3OL     H5R 7599   0.767   1.134   4.735 -0.1128 -0.1870  0.9975
    3OL     H5S 7600   0.703   1.307   4.751 -2.0159  0.8588  1.7265
    3OL     C16 7601   0.583   1.158   4.639 -0.2693  0.3865  0.8567
    3OL     H6R 7602   0.650   1.159   4.553 -0.8213  2.6477  0.3747
    3OL     H6S 7603   0.503   1.230   4.619 -1.6011 -0.4832  2.6800
    3OL     C17 7604   0.505   1.026   4.645 -0.0868  0.2181 -0.2702
    3OL     H7R 7605   0.417   1.034   4.709 -0.6329  1.6428 -1.1573
    3OL     H7S 7606   0.570   0.952   4.694 -0.0418  1.0740  1.0308
    3OL     C18 7607   0.458   0.977   4.508 -0.0241  0.3029 -0.3215
    3OL     H8R 7608   0.532   0.994   4.430 -1.2456  2.9426 -1.0475
    3OL     H8S 7609   0.382   1.051   4.478 -3.3347 -2.0184  1.6170
    3OL     C19 7610   0.396   0.840   4.505 -0.0441  0.3091 -0.1778
    3OL     H9R 7611   0.468   0.760   4.520 -1.2014 -0.9991 -1.3490
    3OL    C110 7612   0.267   0.813   4.487 -0.0330  0.1998 -0.0954
    3OL    H10R 7613   0.232   0.710   4.496  0.0919  0.2477  1.2707
    3OL    C111 7614   0.157   0.913   4.462 -0.4001 -0.1442  0.1212
    3OL    H11R 7615   0.108   0.888   4.368 -0.0633  0.3719 -0.2012
    3OL    H11S 7616   0.200   1.013   4.449  1.4339 -1.0245 -1.1063
    3OL    C112 7617   0.047   0.913   4.568 -0.3230 -0.0925  0.2008
    3OL    H12R 7618   0.000   0.815   4.575 -1.2842  0.2882 -0.7597
    3OL    H12S 7619  -0.032   0.984   4.544  0.3241  0.2244 -1.0714
    3OL    C113 7620   0.110   0.932   4.707  0.1406 -0.0994 -0.0042
    3OL    H13R 7621   0.167   1.025   4.707 -2.2771  1.4990 -0.6443
    3OL    H13S 7622   0.171   0.845   4.732 -1.3631 -1.0669  0.4397
    3OL    C114 7623  -0.003   0.952   4.810 -0.3587  0.2779 -0.6166
    3OL    H14R 7624  -0.075   0.873   4.787  1.1108 -1.2794 -0.0723
    3OL    H14S 7625  -0.044   1.050   4.784 -0.3941  0.2519 -0.6590
    3OL    C115 7626   0.045   0.945   4.956 -0.6353  0.1577 -0.5321
    3OL    H15R 7627   0.132   1.009   4.965 -0.1816 -0.7635  2.6576
    3OL    H15S 7628   0.079   0.845   4.984 -2.6004 -0.1853  0.8992
    3OL    C116 7629  -0.060   0.999   5.054 -0.3514  0.6559 -0.5001
    3OL    H16R 7630  -0.112   1.086   5.014  0.7956  1.4610 -0.2689
    3OL    H16S 7631  -0.017   1.028   5.150 -1.5366  0.7054  0.0408
    3OL    C117 7632  -0.158   0.883   5.075  0.3985  0.2042  0.6184
    3OL    H17R 7633  -0.103   0.791   5.097 -0.6977 -0.3594  1.1042
    3OL    H17S 7634  -0.222   0.856   4.991  0.6606  4.0292 -1.0068
    3OL    C118 7635  -0.252   0.919   5.192  0.1712 -0.0238  0.5076
    3OL    H18R 7636  -0.318   1.005   5.180  1.6336  1.1381  0.4312
    3OL    H18S 7637  -0.187   0.929   5.279  0.3875  1.6461  0.1866
    3OL    H18T 7638  -0.315   0.831   5.208 -1.6600  1.5360  2.2823
    1PA    C116 7639   6.457   6.028   3.575  0.1475  0.7108  0.7106
    1PA    H16R 7640   6.484   6.057   3.473  1.8958  0.5908  1.1006
    1PA    H16S 7641   6.543   6.060   3.634  0.0306  2.5417 -0.0645
    1PA    H16T 7642   6.364   6.073   3.609 -0.9228 -1.3141  0.6442
    1PA    C115 7643   6.453   5.875   3.594 -0.1617  0.6980  0.5368
    1PA    H15R 7644   6.384   5.832   3.520 -0.2909  2.5645 -0.4935
    1PA    H15S 7645   6.549   5.831   3.569  0.8030  2.8977  0.1352
    1PA    C114 7646   6.407   5.826   3.732 -0.1800 -1.1603 -0.1092
    1PA    H14R 7647   6.429   5.719   3.725  1.2371 -0.7821 -2.5811
    1PA    H14S 7648   6.464   5.869   3.815 -0.6881  1.8113 -1.1970
    1PA    C113 7649   6.258   5.856   3.751  0.0678 -0.0999  0.2032
    1PA    H13R 7650   6.233   5.962   3.754 -5.0749 -1.0541  0.5032
    1PA    H13S 7651   6.208   5.806   3.669  2.0843 -0.0702 -1.1213
    1PA    C112 7652   6.213   5.793   3.884 -0.6863  0.3176  0.1502
    1PA    H12R 7653   6.106   5.783   3.864 -0.5870 -0.1909 -0.1466
    1PA    H12S 7654   6.250   5.691   3.891 -0.2680  0.3322 -1.4808
    1PA    C111 7655   6.243   5.879   4.008 -0.3197 -0.1155  0.3649
    1PA    H11R 7656   6.348   5.908   4.010 -0.3073 -0.1209 -0.0656
    1PA    H11S 7657   6.179   5.967   4.003 -0.6869 -0.4161 -0.7405
    1PA    C110 7658   6.196   5.802   4.132 -0.4219 -1.2371 -0.3442
    1PA    H10R 7659   6.092   5.771   4.118 -0.7381 -0.6962  0.6170
    1PA    H10S 7660   6.260   5.714   4.126  1.0840 -0.1680 -0.5021
    1PA     C19 7661   6.221   5.877   4.264  0.0146 -0.3424 -0.9231
    1PA     H9R 7662   6.323   5.914   4.277 -0.0084  0.0770 -1.8505
    1PA     H9S 7663   6.160   5.967   4.274 -0.7340 -1.0796  2.2470
    1PA     C18 7664   6.196   5.793   4.390  0.3406  0.3156 -0.4159
    1PA     H8R 7665   6.100   5.743   4.375 -0.3622  0.8175  1.8683
    1PA     H8S 7666   6.278   5.721   4.393 -0.5037 -0.6860 -1.0980
    1PA     C17 7667   6.193   5.878   4.518 -0.4307 -0.0874 -0.1606
    1PA     H7R 7668   6.274   5.951   4.516 -1.0071  0.5589 -0.1660
    1PA     H7S 7669   6.105   5.942   4.512  0.5684  1.3016 -0.6178
    1PA     C16 7670   6.187   5.798   4.649 -0.3404  0.1987  0.0192
    1PA     H6R 7671   6.094   5.742   4.656  1.1277 -2.5097 -0.8396
    1PA     H6S 7672   6.272   5.729   4.650  0.8325  1.5237  2.0979
    1PA     C15 7673   6.203   5.882   4.777  0.4929  0.5452 -0.3054
    1PA     H5R 7674   6.309   5.894   4.798  0.4848  0.5738 -0.2829
    1PA     H5S 7675   6.156   5.981   4.770 -2.5743 -0.7585  0.1474
    1PA     C14 7676   6.129   5.810   4.890 -0.1231  0.5099 -0.7291
    1PA     H4R 7677   6.025   5.796   4.859 -1.1121  0.3796  2.3137
    1PA     H4S 7678   6.176   5.715   4.915  1.3117  1.0819 -1.1850
    1PA     C13 7679   6.132   5.899   5.015 -0.1797 -0.3658 -0.0921
    1PA     H3R 7680   6.102   6.000   4.985  0.1660 -0.8599 -2.3300
    1PA     H3S 7681   6.060   5.857   5.085 -0.5927  0.3069 -0.1080
    1PA     C12 7682   6.271   5.907   5.079 -0.3111  0.1033  0.1376
    1PA     H2R 7683   6.316   5.808   5.091  2.7972  1.2833 -0.7764
    1PA     H2S 7684   6.342   5.958   5.014 -0.4446  1.6398  1.1368
    2PC     C11 7685   6.278   5.985   5.208 -0.2437  0.5442 -0.1314
    2PC     O12 7686   6.182   6.045   5.254 -0.2861  0.2306  0.1994
    2PC     O11 7687   6.396   5.974   5.271 -0.3588  0.2396  0.0358
    2PC      C1 7688   6.422   6.042   5.395 -0.2405  0.1834  0.0422
    2PC      HR 7689   6.389   6.146   5.382 -0.4960  0.3479  1.7885
    2PC      HS 7690   6.356   5.994   5.467 -0.1476 -0.6724 -0.4214
    2PC      C2 7691   6.572   6.030   5.427 -0.2178  1.0458  0.2959
    2PC      HX 7692   6.608   5.928   5.408 -0.9899  0.4668  1.7219
    2PC      C3 7693   6.600   6.077   5.570 -0.1170  0.3305  0.5146
    2PC      HA 7694   6.559   5.997   5.632 -0.2529 -0.2632 -0.3241
    2PC      HB 7695   6.709   6.074   5.579 -0.0612 -0.3602 -0.3025
    2PC     O31 7696   6.546   6.208   5.590  0.0591  0.5755 -0.5813
    2PC     P31 7697   6.596   6.279   5.725  0.3714 -0.2296 -0.2678
    2PC     O32 7698   6.728   6.338   5.657  0.1648  0.4592 -0.0885
    2PC     C31 7699   6.834   6.372   5.748  0.4448  0.3800 -0.3800
    2PC     H1A 7700   6.793   6.423   5.836 -0.3619  0.0308 -0.5437
    2PC     H1B 7701   6.864   6.276   5.792 -1.0046  0.5809  1.1482
    2PC     C32 7702   6.948   6.450   5.682  0.7485 -0.2107 -0.5607
    2PC     H2A 7703   7.049   6.428   5.718  0.2854  1.1053  1.7742
    2PC     H2B 7704   6.948   6.424   5.576 -1.4274 -3.1776  0.0382
    2PC     N31 7705   6.941   6.600   5.686  0.0307 -0.2551  0.0410
    2PC     C33 7706   6.819   6.628   5.602  0.2878  0.6449 -0.0353
    2PC     H3A 7707   6.729   6.582   5.642 -1.2999  3.1779 -0.4484
    2PC     H3B 7708   6.791   6.733   5.612 -1.1718  0.1495  1.7727
    2PC     H3C 7709   6.825   6.591   5.500  0.7266 -2.3035  0.9722
    2PC     C34 7710   6.921   6.656   5.823  0.2448  0.8775 -0.3779
    2PC     H4A 7711   6.826   6.624   5.868  0.8438 -0.4485  0.0185
    2PC     H4B 7712   7.003   6.622   5.887 -1.1768  0.1959  1.1836
    2PC     H4C 7713   6.921   6.765   5.828  0.3032  0.8409  3.0449
    2PC     C35 7714   7.068   6.659   5.634 -0.0117 -0.3986 -0.2279
    2PC     H5A 7715   7.136   6.673   5.718  0.8513 -0.1033 -0.9587
    2PC     H5B 7716   7.050   6.761   5.601  1.3448  0.8628  2.6407
    2PC     H5C 7717   7.115   6.594   5.559  1.4402 -0.2795  0.5374
    2PC     O33 7718   6.522   6.396   5.778  0.4028 -0.5951  0.6038
    2PC     O34 7719   6.618   6.191   5.842  0.7592 -0.0385 -0.1966
    2PC     O21 7720   6.638   6.114   5.332  0.1950  0.2095 -0.1671
    2PC     C21 7721   6.772   6.106   5.318  0.3106  0.3598  0.8058
    2PC     O22 7722   6.837   6.009   5.350  0.2166 -0.1155 -0.3891
    3OL     C12 7723   6.822   6.227   5.243 -0.3522 -0.1133 -0.4346
    3OL     H2R 7724   6.845   6.311   5.309  1.2828 -0.7049 -0.1926
    3OL     H2S 7725   6.748   6.270   5.176 -0.9292  1.0717  0.9145
    3OL     C13 7726   6.957   6.188   5.180 -0.1380  0.3975 -0.2981
    3OL     H3R 7727   6.931   6.115   5.103 -2.4165  0.7097  0.0810
    3OL     H3S 7728   7.014   6.146   5.262  1.3226  0.6270 -1.1722
    3OL     C14 7729   7.033   6.308   5.122 -0.0995  0.3759 -0.2932
    3OL     H4R 7730   7.133   6.266   5.103  0.2621 -0.8493  3.5429
    3OL     H4S 7731   7.049   6.379   5.203  3.4994 -0.3467 -0.1974
    3OL     C15 7732   6.967   6.374   5.000 -0.2498  0.4920 -0.1471
    3OL     H5R 7733   6.868   6.405   5.036 -0.9587 -1.0849 -0.6658
    3OL     H5S 7734   6.949   6.292   4.930 -0.8700 -1.0578  1.7225
    3OL     C16 7735   7.062   6.475   4.935  0.8688 -0.4983 -0.0840
    3OL     H6R 7736   7.164   6.440   4.922  0.2741 -1.8064 -1.4061
    3OL     H6S 7737   7.079   6.552   5.011  0.6399  1.3651 -1.8269
    3OL     C17 7738   7.003   6.523   4.802 -0.0119 -0.0881  0.4399
    3OL     H7R 7739   6.911   6.581   4.810 -0.5623 -0.8675 -0.0343
    3OL     H7S 7740   6.960   6.438   4.748 -0.2522  0.2066  0.1629
    3OL     C18 7741   7.104   6.612   4.727 -0.2737 -0.4297 -0.3363
    3OL     H8R 7742   7.191   6.548   4.714 -0.3981 -0.6531 -0.0922
    3OL     H8S 7743   7.129   6.700   4.787  2.1748 -1.0685 -0.3183
    3OL     C19 7744   7.051   6.654   4.593 -0.5118 -0.6852 -0.3233
    3OL     H9R 7745   7.078   6.596   4.505  0.2183  0.2524 -0.7300
    3OL    C110 7746   6.978   6.763   4.572  0.0080 -0.2717  0.0032
    3OL    H10R 7747   6.957   6.798   4.471  0.1352  1.3535  0.5042
    3OL    C111 7748   6.934   6.865   4.674  0.3757 -0.2271  0.1192
    3OL    H11R 7749   7.014   6.929   4.713 -0.5527  1.0040  0.0569
    3OL    H11S 7750   6.910   6.802   4.760  1.0488 -2.5155 -1.2869
    3OL    C112 7751   6.813   6.945   4.624  0.6147  0.3096  0.3856
    3OL    H12R 7752   6.731   6.876   4.602 -0.3746  1.2013  1.1641
    3OL    H12S 7753   6.835   7.005   4.536 -3.0340  1.5433  0.1144
    3OL    C113 7754   6.764   7.035   4.738 -0.3617 -0.1712  0.3575
    3OL    H13R 7755   6.829   7.119   4.761 -0.9192  0.6412 -0.9035
    3OL    H13S 7756   6.766   6.977   4.830  0.7844  0.0634  0.4854
    3OL    C114 7757   6.622   7.087   4.709 -0.2234 -0.0672 -0.1415
    3OL    H14R 7758   6.555   7.002   4.694 -1.2529  0.5528  0.8303
    3OL    H14S 7759   6.629   7.140   4.614  1.0967 -1.5925 -0.9561
    3OL    C115 7760   6.586   7.180   4.825  0.4666  0.2743 -0.1966
    3OL    H15R 7761   6.505   7.247   4.794  1.0036  1.7469  1.3931
    3OL    H15S 7762   6.653   7.261   4.856  0.4779  0.3707 -0.4740
    3OL    C116 7763   6.525   7.112   4.948  0.3596  0.5233 -0.1097
    3OL    H16R 7764   6.483   7.013   4.930  1.6831  0.0601 -0.8009
    3OL    H16S 7765   6.448   7.179   4.986 -0.2896 -1.1531  1.7041
    3OL    C117 7766   6.625   7.104   5.065  0.0583  0.3112  0.1336
    3OL    H17R 7767   6.670   7.202   5.075 -0.4367  0.6475 -0.7680
    3OL    H17S 7768   6.700   7.028   5.044  1.7662  1.7346  0.8801
    3OL    C118 7769   6.554   7.063   5.195  0.6714  0.0801  0.3976
    3OL    H18R 7770   6.499   6.971   5.174  0.6822  0.4024 -1.1133
    3OL    H18S 7771   6.477   7.137   5.219  0.5885  0.3095 -0.5415
    3OL    H18T 7772   6.622   7.036   5.276  0.7111  0.0429  0.3525
    1PA    C116 7773   0.655   1.352   3.796 -0.4632 -0.6181 -0.6664
    1PA    H16R 7774   0.731   1.409   3.742 -0.8274 -0.0562 -0.5936
    1PA    H16S 7775   0.555   1.381   3.761 -0.9265  0.6583  1.5109
    1PA    H16T 7776   0.662   1.247   3.767 -0.5623 -0.9001  0.2972
    1PA    C115 7777   0.660   1.396   3.943 -0.6592 -0.0734 -0.8190
    1PA    H15R 7778   0.760   1.366   3.977 -0.9513 -0.1610 -0.0278
    1PA    H15S 7779   0.644   1.503   3.955 -2.3640 -0.5210  1.5275
    1PA    C114 7780   0.556   1.327   4.032  0.0350 -0.2676 -0.1407
    1PA    H14R 7781   0.457   1.344   3.989 -0.1420 -0.4325  0.1991
    1PA    H14S 7782   0.562   1.219   4.023  0.8717 -0.4085  1.7304
    1PA    C113 7783   0.553   1.381   4.176  0.0254 -0.6405 -0.0012
    1PA    H13R 7784   0.647   1.354   4.225  0.4666  0.2193 -0.3484
    1PA    H13S 7785   0.542   1.489   4.163 -1.3338 -0.8574 -0.9075
    1PA    C112 7786   0.438   1.331   4.265 -0.6706 -0.2049 -0.6406
    1PA    H12R 7787   0.429   1.226   4.238  3.3851 -0.6374 -0.9414
    1PA    H12S 7788   0.457   1.358   4.369  1.0828  1.6923 -1.3558
    1PA    C111 7789   0.310   1.403   4.221 -0.4013  0.7758  0.1329
    1PA    H11R 7790   0.326   1.511   4.215 -0.4511  0.8472  1.1344
    1PA    H11S 7791   0.301   1.370   4.117 -0.9299 -0.7607  0.6411
    1PA    C110 7792   0.182   1.369   4.297 -0.1275 -0.3586  0.0994
    1PA    H10R 7793   0.096   1.397   4.235 -0.0022  1.4436  0.6779
    1PA    H10S 7794   0.176   1.261   4.313  0.3417 -0.3869  0.0807
    1PA     C19 7795   0.179   1.442   4.432  0.2716 -0.1715  0.0066
    1PA     H9R 7796   0.223   1.541   4.422 -2.3229  0.9209 -1.4671
    1PA     H9S 7797   0.073   1.456   4.451 -0.1989 -1.1480 -1.6905
    1PA     C18 7798   0.229   1.348   4.542 -0.2137 -0.3588  0.0685
    1PA     H8R 7799   0.156   1.267   4.552 -2.2646  1.3783 -0.1321
    1PA     H8S 7800   0.329   1.304   4.534  0.5673  1.2450  0.5722
    1PA     C17 7801   0.234   1.422   4.676 -0.1775 -0.2851  0.0266
    1PA     H7R 7802   0.318   1.486   4.703 -0.6682 -0.4192  2.0305
    1PA     H7S 7803   0.142   1.482   4.681  0.0894  0.0359  1.5566
    1PA     C16 7804   0.232   1.320   4.791 -0.2526 -0.1141  0.1767
    1PA     H6R 7805   0.129   1.287   4.808 -0.5247  1.3770  1.7624
    1PA     H6S 7806   0.291   1.233   4.763  0.6421  0.7275 -0.6516
    1PA     C15 7807   0.288   1.375   4.924  0.4738  0.1538 -0.2377
    1PA     H5R 7808   0.396   1.393   4.917  0.7484 -0.6821  1.3946
    1PA     H5S 7809   0.247   1.470   4.959 -0.8534 -0.9449  1.3483
    1PA     C14 7810   0.272   1.264   5.029 -0.4872 -0.1339 -0.6764
    1PA     H4R 7811   0.303   1.164   4.996 -0.3225 -0.2697 -0.1091
    1PA     H4S 7812   0.345   1.294   5.104 -2.2442  2.6584  0.0631
    1PA     C13 7813   0.141   1.257   5.107 -0.0715 -0.5165 -0.0060
    1PA     H3R 7814   0.058   1.236   5.039  0.4210 -1.2340 -0.3873
    1PA     H3S 7815   0.143   1.167   5.169  0.8670 -0.4341  0.0917
    1PA     C12 7816   0.104   1.384   5.185  0.6364 -0.0719 -0.3847
    1PA     H2R 7817   0.122   1.473   5.124 -0.7152  1.3116  1.1106
    1PA     H2S 7818  -0.001   1.385   5.217 -0.1697 -1.4283 -2.7526
    2PC     C11 7819   0.188   1.404   5.309  0.1892  0.0266 -0.0906
    2PC     O12 7820   0.271   1.323   5.346  0.0579 -0.0014  0.1415
    2PC     O11 7821   0.171   1.523   5.368 -0.2916 -0.1914  0.2150
    2PC      C1 7822   0.230   1.558   5.495  0.2985  0.1504 -0.1485
    2PC      HR 7823   0.173   1.641   5.538  2.2113  2.0393 -1.0434
    2PC      HS 7824   0.225   1.469   5.558  0.9646 -0.4219 -0.8806
    2PC      C2 7825   0.379   1.593   5.482  0.3969 -0.2384 -0.0695
    2PC      HX 7826   0.437   1.511   5.438  0.1892  0.3862 -1.5856
    2PC      C3 7827   0.445   1.636   5.613  0.3837 -0.3132 -0.0383
    2PC      HA 7828   0.472   1.551   5.677  3.7793  1.1674  0.7359
    2PC      HB 7829   0.540   1.683   5.589  0.7919 -1.5537 -0.9737
    2PC     O31 7830   0.354   1.717   5.690  0.2152 -0.3512 -0.1968
    2PC     P31 7831   0.373   1.727   5.848 -0.1431 -0.3099 -0.1561
    2PC     O32 7832   0.461   1.860   5.837  0.1494 -0.5089 -0.2539
    2PC     C31 7833   0.451   1.954   5.946  0.2490 -0.5497 -0.2106
    2PC     H1A 7834   0.354   2.004   5.952  1.4439  2.4916 -2.9613
    2PC     H1B 7835   0.472   1.910   6.044  1.3432  0.4627  0.0317
    2PC     C32 7836   0.555   2.063   5.914 -0.5333  0.2405 -0.0901
    2PC     H2A 7837   0.515   2.094   5.817 -0.3503  1.2072  0.1366
    2PC     H2B 7838   0.540   2.155   5.971  0.5961  0.8430 -0.7379
    2PC     N31 7839   0.702   2.032   5.911 -0.5226  0.3227 -0.5448
    2PC     C33 7840   0.763   2.164   5.874  0.3577  0.1324  0.1969
    2PC     H3A 7841   0.869   2.145   5.859  0.6786 -0.5055  2.7918
    2PC     H3B 7842   0.717   2.198   5.781  0.1951 -2.1199 -0.6294
    2PC     H3C 7843   0.761   2.235   5.956  3.3284 -0.2682  0.7184
    2PC     C34 7844   0.752   1.991   6.046 -0.5106  0.2722 -0.5644
    2PC     H4A 7845   0.705   2.058   6.118  0.2851 -0.2843  0.5013
    2PC     H4B 7846   0.724   1.888   6.067 -0.2954 -0.3868 -3.2038
    2PC     H4C 7847   0.860   2.002   6.058 -0.0904 -2.2706 -1.4884
    2PC     C35 7848   0.747   1.924   5.818 -0.0892 -0.0083  0.0376
    2PC     H5A 7849   0.855   1.918   5.819  0.0082 -0.6705 -3.1069
    2PC     H5B 7850   0.719   1.929   5.712  0.6865  1.4280 -0.1247
    2PC     H5C 7851   0.706   1.831   5.858  1.2433 -0.1319  1.1748
    2PC     O33 7852   0.242   1.744   5.915  0.0940  0.3121  0.1611
    2PC     O34 7853   0.444   1.612   5.909 -0.1596 -0.3447 -0.2020
    2PC     O21 7854   0.372   1.703   5.389 -0.1302 -0.1355  0.0883
    2PC     C21 7855   0.400   1.680   5.260  0.1783  0.2394  0.0892
    2PC     O22 7856   0.451   1.578   5.217  0.2150  0.3589 -0.1491
    3OL     C12 7857   0.364   1.802   5.178 -0.5038 -0.0466 -0.0433
    3OL     H2R 7858   0.439   1.873   5.212  2.0726 -3.3042  1.7797
    3OL     H2S 7859   0.262   1.825   5.208 -0.4466  2.0097 -1.2956
    3OL     C13 7860   0.370   1.772   5.028 -0.0315  0.1389 -0.0648
    3OL     H3R 7861   0.312   1.683   5.000  0.5253  0.7311 -3.5333
    3OL     H3S 7862   0.468   1.743   4.990  0.4974  0.9592  0.6486
    3OL     C14 7863   0.316   1.899   4.962 -0.3275  0.0414 -0.0128
    3OL     H4R 7864   0.364   1.988   5.004  0.5146 -0.4401  0.0495
    3OL     H4S 7865   0.211   1.914   4.990 -0.3411 -2.9314  1.9378
    3OL     C15 7866   0.337   1.905   4.811 -0.2629 -0.0574 -0.0082
    3OL     H5R 7867   0.290   1.814   4.774  1.7292 -1.1396 -0.0227
    3OL     H5S 7868   0.444   1.909   4.786 -0.1747  2.2355  0.5501
    3OL     C16 7869   0.263   2.029   4.760 -0.6130 -0.1809  0.2037
    3OL     H6R 7870   0.294   2.122   4.808 -1.0217  0.7498 -1.2769
    3OL     H6S 7871   0.157   2.016   4.784 -0.5746  0.1185  0.5479
    3OL     C17 7872   0.286   2.037   4.609 -0.5367 -0.2530  0.2114
    3OL     H7R 7873   0.393   2.036   4.589 -0.3805 -1.9151  0.9048
    3OL     H7S 7874   0.252   2.136   4.577  0.0750  0.4200  1.5949
    3OL     C18 7875   0.206   1.943   4.517  0.1646 -0.4244 -0.2299
    3OL     H8R 7876   0.103   1.949   4.551  0.3486 -2.4922  0.8470
    3OL     H8S 7877   0.246   1.842   4.529  0.9855  0.0677  1.5362
    3OL     C19 7878   0.220   1.991   4.374  0.1637 -0.2440 -0.1700
    3OL     H9R 7879   0.195   2.095   4.354 -2.6841 -1.1342 -1.9382
    3OL    C110 7880   0.274   1.920   4.276  0.6138 -0.1391  0.0007
    3OL    H10R 7881   0.284   1.959   4.175 -0.3140  1.3520  0.4362
    3OL    C111 7882   0.315   1.776   4.287 -0.3072 -0.3923  0.1790
    3OL    H11R 7883   0.276   1.729   4.196  0.3922 -0.7298  0.0440
    3OL    H11S 7884   0.274   1.726   4.375 -0.4822  0.5943  0.6683
    3OL    C112 7885   0.467   1.756   4.290 -0.2736 -0.2141 -0.2839
    3OL    H12R 7886   0.491   1.651   4.307  0.6835  0.0195 -0.1448
    3OL    H12S 7887   0.509   1.820   4.368 -0.4578 -0.8831  0.3731
    3OL    C113 7888   0.527   1.803   4.156  0.4850  0.0155  0.1307
    3OL    H13R 7889   0.478   1.900   4.152  1.6929  0.6532  0.5336
    3OL    H13S 7890   0.493   1.740   4.074 -3.4317  0.9335  0.8555
    3OL    C114 7891   0.679   1.820   4.146  0.5048 -0.3766 -0.2399
    3OL    H14R 7892   0.724   1.729   4.187  0.2903 -0.6239 -0.5448
    3OL    H14S 7893   0.711   1.905   4.205 -1.3862 -0.4390  0.9573
    3OL    C115 7894   0.720   1.849   4.001 -0.4208  0.3031 -0.3724
    3OL    H15R 7895   0.702   1.954   3.976  2.6592  1.3151  1.2109
    3OL    H15S 7896   0.676   1.785   3.924  1.2134 -0.8437 -0.4120
    3OL    C116 7897   0.873   1.833   3.994 -0.4489  0.1143 -0.5767
    3OL    H16R 7898   0.925   1.829   4.090 -4.0844 -0.8005  1.5873
    3OL    H16S 7899   0.920   1.917   3.944 -0.1335  0.2807 -0.0111
    3OL    C117 7900   0.905   1.703   3.920 -0.3646 -0.4474  0.4332
    3OL    H17R 7901   0.844   1.620   3.958 -1.2767  0.4708  1.0025
    3OL    H17S 7902   1.009   1.670   3.930 -0.1289 -0.6350 -2.1391
    3OL    C118 7903   0.883   1.705   3.768  0.2555  0.1717  0.3457
    3OL    H18R 7904   0.923   1.800   3.732  1.5976  0.0992  1.5463
    3OL    H18S 7905   0.776   1.698   3.747  0.5389 -0.6602 -0.9008
    3OL    H18T 7906   0.928   1.622   3.715 -0.9247 -0.3595  0.1448
    1PA    C116 7907   5.315   0.407   4.234 -0.0672  0.0916  0.5173
    1PA    H16R 7908   5.238   0.480   4.206  1.4029  1.8534  0.8840
    1PA    H16S 7909   5.325   0.327   4.160 -0.8849  0.0872  0.4010
    1PA    H16T 7910   5.411   0.458   4.243  0.3594 -0.3172 -1.3006
    1PA    C115 7911   5.274   0.343   4.367 -0.3291 -0.4691  0.1700
    1PA    H15R 7912   5.297   0.420   4.441 -0.4473 -0.3820  0.1155
    1PA    H15S 7913   5.166   0.325   4.374 -0.8983  1.4439 -2.1510
    1PA    C114 7914   5.364   0.223   4.398  0.8233  0.3118 -0.0785
    1PA    H14R 7915   5.326   0.142   4.335 -1.2510  1.5720 -0.5390
    1PA    H14S 7916   5.466   0.244   4.366  2.0645 -2.3880  1.7286
    1PA    C113 7917   5.388   0.189   4.546 -0.1108 -0.3974 -0.0766
    1PA    H13R 7918   5.453   0.102   4.554 -1.7105 -2.0739 -3.3185
    1PA    H13S 7919   5.441   0.280   4.576  1.8210 -0.3117 -3.2722
    1PA    C112 7920   5.263   0.170   4.633  0.2580  0.2358  0.6098
    1PA    H12R 7921   5.279   0.202   4.736  1.2438  0.0949  0.5095
    1PA    H12S 7922   5.183   0.232   4.591  0.7694 -1.2574 -2.9379
    1PA    C111 7923   5.219   0.023   4.649  0.1364  0.2774  0.6593
    1PA    H11R 7924   5.200  -0.016   4.549 -1.2524 -0.1792  1.0822
    1PA    H11S 7925   5.294  -0.047   4.686  3.1054  2.5726 -0.5528
    1PA    C110 7926   5.086   0.014   4.724  0.2496 -0.2305  0.8038
    1PA    H10R 7927   5.062  -0.088   4.754  0.4001 -0.8244 -0.9748
    1PA    H10S 7928   5.092   0.088   4.805 -0.0700 -1.4623  1.9853
    1PA     C19 7929   4.980   0.037   4.615  0.6494 -0.1823  0.4241
    1PA     H9R 7930   4.996   0.132   4.564 -1.1771 -0.0364  0.0544
    1PA     H9S 7931   4.986  -0.041   4.538  0.0457  0.1227  0.0563
    1PA     C18 7932   4.834   0.040   4.661  0.3307  0.0090 -0.5761
    1PA     H8R 7933   4.772   0.042   4.571  0.1613  1.0742 -0.4443
    1PA     H8S 7934   4.817  -0.052   4.717 -0.0822 -0.5820 -1.6405
    1PA     C17 7935   4.800   0.151   4.761  0.1929 -0.1171 -0.4823
    1PA     H7R 7936   4.860   0.137   4.851 -2.9474 -2.2568  1.4982
    1PA     H7S 7937   4.824   0.247   4.714 -0.0697  0.7061  0.9801
    1PA     C16 7938   4.654   0.152   4.808  0.3305 -0.1904 -0.0506
    1PA     H6R 7939   4.638   0.061   4.866 -0.2156 -1.5052 -2.1454
    1PA     H6S 7940   4.641   0.247   4.862  1.9486  1.2236 -2.0009
    1PA     C15 7941   4.560   0.149   4.687 -0.2129 -0.3015  0.3695
    1PA     H5R 7942   4.568   0.233   4.618  0.6544 -0.6458  0.0374
    1PA     H5S 7943   4.567   0.060   4.624  1.5253 -0.1031  0.2250
    1PA     C14 7944   4.415   0.157   4.736 -0.2387  0.1033  0.2280
    1PA     H4R 7945   4.388   0.234   4.809 -4.1439 -1.3536  0.6087
    1PA     H4S 7946   4.351   0.188   4.652 -0.0410 -0.7704 -0.2563
    1PA     C13 7947   4.380   0.016   4.785  0.1034 -0.0126  0.1392
    1PA     H3R 7948   4.405  -0.060   4.711 -1.3682  1.2168 -1.6907
    1PA     H3S 7949   4.436  -0.008   4.876 -0.3909 -0.3014  0.3727
    1PA     C12 7950   4.230  -0.003   4.813  0.1174 -0.1338  0.1318
    1PA     H2R 7951   4.169   0.058   4.745 -0.0113 -0.5930 -0.1699
    1PA     H2S 7952   4.204  -0.109   4.807  1.9873 -0.7562  1.8264
    2PC     C11 7953   4.195   0.044   4.951 -0.1095  0.1035 -0.0048
    2PC     O12 7954   4.146   0.149   4.987  0.0956  0.2361 -0.1126
    2PC     O11 7955   4.222  -0.059   5.034 -0.2850 -0.3597 -0.5186
    2PC      C1 7956   4.204  -0.049   5.176  0.0620 -0.4861 -0.4639
    2PC      HR 7957   4.277  -0.110   5.228  3.0287  2.0377 -1.3548
    2PC      HS 7958   4.212   0.053   5.217  1.6535 -1.3622  1.5828
    2PC      C2 7959   4.063  -0.101   5.205  0.0155 -0.3108 -0.3718
    2PC      HX 7960   3.995  -0.037   5.149  3.1021  0.7361 -3.1606
    2PC      C3 7961   4.036  -0.120   5.355 -0.1725  0.1641 -0.3445
    2PC      HA 7962   3.941  -0.172   5.376  0.8250 -1.7995 -0.4670
    2PC      HB 7963   4.121  -0.179   5.391  0.3455 -0.2435 -2.1669
    2PC     O31 7964   4.031   0.007   5.423 -0.0221 -0.1060  0.1738
    2PC     P31 7965   4.043  -0.003   5.583  0.0943  0.1432  0.1820
    2PC     O32 7966   4.199   0.003   5.615  0.0451 -0.2589  0.5060
    2PC     C31 7967   4.238   0.117   5.695 -0.1065  0.3451 -0.2739
    2PC     H1A 7968   4.214   0.210   5.643 -1.3026 -0.4141 -1.1421
    2PC     H1B 7969   4.187   0.120   5.791  0.0510 -0.3475 -0.1596
    2PC     C32 7970   4.391   0.104   5.705 -0.0973  0.0627 -0.7440
    2PC     H2A 7971   4.439   0.175   5.772 -1.8509 -0.5608  1.2927
    2PC     H2B 7972   4.406   0.007   5.752  0.0159  0.3703 -0.1454
    2PC     N31 7973   4.468   0.115   5.577  0.3447  0.1901 -0.4679
    2PC     C33 7974   4.397   0.198   5.474 -0.1690  0.2856 -0.0387
    2PC     H3A 7975   4.294   0.170   5.452  0.0963  1.3151 -3.0397
    2PC     H3B 7976   4.414   0.302   5.504 -1.3795  0.5996 -0.4108
    2PC     H3C 7977   4.450   0.173   5.382  1.9458 -1.4414  1.5381
    2PC     C34 7978   4.606   0.162   5.610  0.1474  0.3088  0.2011
    2PC     H4A 7979   4.659   0.177   5.515  0.4818  0.3273  0.3877
    2PC     H4B 7980   4.595   0.265   5.645 -0.4420  0.3719 -0.1488
    2PC     H4C 7981   4.663   0.089   5.667  0.3612  0.1254 -0.2379
    2PC     C35 7982   4.472  -0.028   5.532 -0.4668  0.0175 -0.0014
    2PC     H5A 7983   4.512  -0.089   5.613 -1.7332  1.4857  1.8109
    2PC     H5B 7984   4.530  -0.048   5.442 -0.4677 -0.6728  0.1436
    2PC     H5C 7985   4.372  -0.065   5.506  0.0309  0.9994 -3.9851
    2PC     O33 7986   3.957   0.104   5.639  0.4875  0.5109  0.0820
    2PC     O34 7987   3.989  -0.128   5.642  0.1058  0.1595  0.2263
    2PC     O21 7988   4.055  -0.231   5.144 -0.6141 -0.4759  0.0455
    2PC     C21 7989   4.013  -0.244   5.017 -0.4549  0.1992 -0.0765
    2PC     O22 7990   3.974  -0.153   4.946 -0.6557  0.3771  0.2559
    3OL     C12 7991   4.032  -0.379   4.954 -0.2230  0.3102 -0.2465
    3OL     H2R 7992   3.933  -0.403   4.916 -1.2172  4.0078 -0.3754
    3OL     H2S 7993   4.066  -0.452   5.029 -2.6912  0.9915  1.6703
    3OL     C13 7994   4.133  -0.378   4.839 -0.1872  0.3355 -0.2152
    3OL     H3R 7995   4.227  -0.342   4.879 -0.0599 -0.3198  0.0987
    3OL     H3S 7996   4.089  -0.314   4.762 -1.2209 -0.2257 -0.1191
    3OL     C14 7997   4.138  -0.521   4.782 -0.4566  0.2583 -0.0465
    3OL     H4R 7998   4.033  -0.542   4.759 -1.0941  3.7494 -0.9401
    3OL     H4S 7999   4.177  -0.602   4.844 -0.9005  0.2956  0.2850
    3OL     C15 8000   4.208  -0.523   4.646  0.0922 -0.0073  0.2382
    3OL     H5R 8001   4.316  -0.517   4.662  0.2973 -1.6706 -0.3325
    3OL     H5S 8002   4.166  -0.444   4.583  0.7667  0.9225  0.9254
    3OL     C16 8003   4.187  -0.657   4.574  0.3980  0.0531  0.0314
    3OL     H6R 8004   4.088  -0.648   4.529 -0.7665 -0.9781  2.1857
    3OL     H6S 8005   4.187  -0.736   4.650  0.1123  0.7313  0.7532
    3OL     C17 8006   4.296  -0.689   4.471  0.4080 -0.4712  0.2016
    3OL     H7R 8007   4.278  -0.793   4.442  1.1338 -0.7740  0.8099
    3OL     H7S 8008   4.392  -0.693   4.522  1.3848 -2.2055 -1.6234
    3OL     C18 8009   4.304  -0.602   4.344 -0.0133  0.0838  0.5512
    3OL     H8R 8010   4.360  -0.515   4.377 -1.0316  0.8299  0.3472
    3OL     H8S 8011   4.202  -0.586   4.308 -0.2229 -1.0224  0.5904
    3OL     C19 8012   4.379  -0.666   4.231 -0.6032 -0.2155  0.3225
    3OL     H9R 8013   4.402  -0.772   4.246 -1.7395 -0.2841  1.6878
    3OL    C110 8014   4.432  -0.606   4.126 -0.6360 -0.3878  0.2057
    3OL    H10R 8015   4.493  -0.660   4.053  2.1622  3.5428 -0.7415
    3OL    C111 8016   4.430  -0.459   4.090  0.4093 -0.5204 -0.4560
    3OL    H11R 8017   4.530  -0.427   4.059  0.5274 -0.2747  0.1645
    3OL    H11S 8018   4.389  -0.411   4.179 -0.5449 -0.3658 -0.9623
    3OL    C112 8019   4.331  -0.430   3.976  0.0522  0.2182  0.0334
    3OL    H12R 8020   4.233  -0.476   3.987 -0.2587  1.1879  1.6657
    3OL    H12S 8021   4.379  -0.463   3.883 -1.4545 -2.0407 -0.0247
    3OL    C113 8022   4.306  -0.279   3.966  0.0909  0.2403  0.2664
    3OL    H13R 8023   4.253  -0.241   4.054  2.1293  0.3077  1.5392
    3OL    H13S 8024   4.239  -0.254   3.884  0.6975  1.8290  0.2078
    3OL    C114 8025   4.423  -0.185   3.936  0.1304  0.1365  0.0942
    3OL    H14R 8026   4.490  -0.189   4.022 -1.8816  0.6327  1.7458
    3OL    H14S 8027   4.381  -0.084   3.928  0.6138  0.2593 -1.1228
    3OL    C115 8028   4.487  -0.213   3.799  0.2965 -0.1817  0.2361
    3OL    H15R 8029   4.428  -0.173   3.716  0.0671  0.0616  0.5152
    3OL    H15S 8030   4.486  -0.322   3.791  0.1072 -0.3096  1.7466
    3OL    C116 8031   4.629  -0.156   3.784  0.0218  0.4160 -0.1273
    3OL    H16R 8032   4.697  -0.209   3.851 -1.8875 -0.1868  1.4140
    3OL    H16S 8033   4.637  -0.052   3.817 -0.5021  0.5427 -0.3897
    3OL    C117 8034   4.675  -0.167   3.638 -0.4387 -0.5818 -0.2054
    3OL    H17R 8035   4.611  -0.098   3.583 -0.3660  0.3827  0.8852
    3OL    H17S 8036   4.654  -0.268   3.601 -0.4586  0.2983 -2.7492
    3OL    C118 8037   4.816  -0.118   3.602 -0.6431  0.0859 -0.1143
    3OL    H18R 8038   4.817  -0.010   3.614 -3.5129  0.1251  0.4584
    3OL    H18S 8039   4.839  -0.128   3.496  1.2559 -2.0013  0.4037
    3OL    H18T 8040   4.888  -0.174   3.662 -2.9510 -2.7693  0.2606
    1PA    C116 8041   4.005   4.790   3.196  0.2558 -0.2850 -0.2991
    1PA    H16R 8042   4.102   4.782   3.146  1.0566  0.0627  1.1428
    1PA    H16S 8043   3.924   4.818   3.129  0.6894  1.1946 -0.2452
    1PA    H16T 8044   3.980   4.699   3.252 -1.9133  0.5161  0.1149
    1PA    C115 8045   4.019   4.907   3.293 -0.5497 -0.0722 -0.4308
    1PA    H15R 8046   4.086   4.882   3.376 -0.1406  0.3466 -0.6289
    1PA    H15S 8047   4.073   4.986   3.241  0.9528  0.0586  1.2144
    1PA    C114 8048   3.884   4.961   3.343 -0.3134  0.2072 -0.0835
    1PA    H14R 8049   3.822   4.993   3.260  1.0257  1.5353 -0.6153
    1PA    H14S 8050   3.821   4.889   3.396  1.9764 -0.9100  1.3223
    1PA    C113 8051   3.904   5.076   3.443  0.0430 -0.1745  0.2892
    1PA    H13R 8052   3.975   5.147   3.400  1.3523 -1.9479 -0.6172
    1PA    H13S 8053   3.810   5.128   3.459  0.3372 -0.0105  1.5724
    1PA    C112 8054   3.939   5.024   3.583 -0.8031 -0.2426  0.4770
    1PA    H12R 8055   3.859   4.959   3.620 -2.3726  0.8620 -0.7958
    1PA    H12S 8056   4.033   4.971   3.567 -1.6657 -1.1913 -2.0717
    1PA    C111 8057   3.957   5.143   3.678 -0.2449 -0.3201  0.4671
    1PA    H11R 8058   4.021   5.217   3.630 -1.9289  0.7914 -0.1151
    1PA    H11S 8059   3.862   5.185   3.710 -0.5403 -0.3541 -0.3559
    1PA    C110 8060   4.023   5.092   3.807  0.1758 -0.3144  0.2597
    1PA    H10R 8061   3.983   4.992   3.828 -1.3840  0.6383  2.2490
    1PA    H10S 8062   4.129   5.074   3.794 -0.1058 -0.2245 -2.7980
    1PA     C19 8063   3.989   5.185   3.924  0.0704  0.5187 -0.4275
    1PA     H9R 8064   4.031   5.281   3.894 -1.2532  1.5327  0.8128
    1PA     H9S 8065   3.880   5.181   3.932  0.1148  0.1176  0.0082
    1PA     C18 8066   4.047   5.121   4.051 -0.6594  0.2128 -0.2451
    1PA     H8R 8067   4.005   5.022   4.069 -0.1614 -0.1834 -1.2267
    1PA     H8S 8068   4.155   5.114   4.035 -0.1952  5.4751 -1.3215
    1PA     C17 8069   4.020   5.203   4.179 -0.3345  0.1026 -0.1047
    1PA     H7R 8070   4.063   5.301   4.161 -0.8327  0.0870 -1.5374
    1PA     H7S 8071   3.913   5.220   4.191 -0.0200  1.3378  1.1601
    1PA     C16 8072   4.081   5.137   4.303 -0.1686 -0.3290 -0.4116
    1PA     H6R 8073   4.038   5.037   4.320 -0.5642  0.2054  2.2508
    1PA     H6S 8074   4.190   5.135   4.298 -0.2251  0.3377 -3.0302
    1PA     C15 8075   4.040   5.222   4.424  0.2013  0.3333 -0.7481
    1PA     H5R 8076   4.080   5.321   4.402  0.8802  0.5172  1.0614
    1PA     H5S 8077   3.933   5.226   4.444  0.3011 -2.0527  0.6761
    1PA     C14 8078   4.108   5.172   4.553 -0.1515  0.2863 -0.5777
    1PA     H4R 8079   4.085   5.067   4.568 -0.3389  0.4395  0.2523
    1PA     H4S 8080   4.215   5.192   4.540  0.0480  0.5752  1.2968
    1PA     C13 8081   4.066   5.262   4.670  0.7548  0.1478 -0.1321
    1PA     H3R 8082   4.116   5.358   4.668  1.1881 -0.0786 -0.2669
    1PA     H3S 8083   3.957   5.258   4.659  0.6205  2.2805 -0.0414
    1PA     C12 8084   4.111   5.195   4.800 -0.0612 -0.1811 -0.0088
    1PA     H2R 8085   4.087   5.089   4.809  2.6169 -0.7164  2.1522
    1PA     H2S 8086   4.219   5.208   4.811 -0.2292  1.3732  0.1343
    2PC     C11 8087   4.058   5.267   4.922  0.1801 -0.1434  0.0748
    2PC     O12 8088   3.940   5.283   4.944 -0.0110 -0.0769 -0.9576
    2PC     O11 8089   4.156   5.313   5.002  0.0743  0.2638 -0.0294
    2PC      C1 8090   4.118   5.392   5.116  0.0832  0.0517  0.1203
    2PC      HR 8091   4.050   5.472   5.084  1.3504  1.4442  0.7662
    2PC      HS 8092   4.066   5.328   5.189  1.3230 -1.2689 -0.1240
    2PC      C2 8093   4.240   5.448   5.190  0.0289  0.0777  0.1921
    2PC      HX 8094   4.317   5.371   5.204  0.9255  0.6540 -1.2975
    2PC      C3 8095   4.190   5.502   5.324 -0.0799  0.2189  0.0948
    2PC      HA 8096   4.118   5.583   5.315  0.2862  0.6161  0.6691
    2PC      HB 8097   4.144   5.421   5.381  2.4850 -1.6709 -0.2961
    2PC     O31 8098   4.295   5.567   5.398 -0.1835  0.5330 -0.0350
    2PC     P31 8099   4.276   5.587   5.556 -0.1287  0.0521  0.0343
    2PC     O32 8100   4.333   5.449   5.615 -0.0279  0.0650 -0.0308
    2PC     C31 8101   4.258   5.328   5.593 -0.0199  0.0916 -0.2045
    2PC     H1A 8102   4.151   5.347   5.603 -0.1399 -0.4718 -0.3940
    2PC     H1B 8103   4.295   5.285   5.499  4.0958  0.2938  1.0956
    2PC     C32 8104   4.314   5.229   5.696  0.3722 -0.4097 -0.8897
    2PC     H2A 8105   4.293   5.131   5.655 -4.4923  0.7697 -1.7622
    2PC     H2B 8106   4.421   5.249   5.708  0.0644  0.2711  1.3300
    2PC     N31 8107   4.258   5.227   5.835  0.3095 -0.1544 -0.9111
    2PC     C33 8108   4.252   5.369   5.884  0.4632 -0.4362 -0.0515
    2PC     H3A 8109   4.188   5.427   5.817  1.2283 -0.2976 -0.6853
    2PC     H3B 8110   4.199   5.374   5.979 -0.7499  1.7156 -0.7748
    2PC     H3C 8111   4.353   5.411   5.880  0.5593 -0.4279  1.7740
    2PC     C34 8112   4.123   5.163   5.843  0.1119  0.2707 -0.8002
    2PC     H4A 8113   4.135   5.056   5.826 -1.6431  0.0718 -0.9641
    2PC     H4B 8114   4.084   5.185   5.942  2.7835  1.2053  0.1496
    2PC     H4C 8115   4.075   5.217   5.761  2.1688 -0.3369 -2.5004
    2PC     C35 8116   4.359   5.149   5.914  0.3604  0.5185 -0.2982
    2PC     H5A 8117   4.345   5.166   6.021  2.5269  2.9971 -0.3063
    2PC     H5B 8118   4.460   5.182   5.889 -0.1849  1.6466 -1.0704
    2PC     H5C 8119   4.355   5.041   5.897  1.9530  0.3261  0.3410
    2PC     O33 8120   4.371   5.694   5.594 -0.1972 -0.0080  0.3740
    2PC     O34 8121   4.144   5.626   5.610  0.1460  0.3372  0.5014
    2PC     O21 8122   4.288   5.556   5.107 -0.0343 -0.1149 -0.0967
    2PC     C21 8123   4.411   5.548   5.054 -0.1617 -0.1642 -0.3899
    2PC     O22 8124   4.499   5.472   5.089 -0.0107  0.1951  0.0219
    3OL     C12 8125   4.438   5.650   4.946  0.5434 -0.4017 -0.4417
    3OL     H2R 8126   4.546   5.663   4.934  0.2904  1.7172 -0.8608
    3OL     H2S 8127   4.385   5.738   4.983  1.4266 -0.0744  0.0772
    3OL     C13 8128   4.381   5.592   4.816  0.3983 -0.1315 -0.4998
    3OL     H3R 8129   4.365   5.672   4.744 -0.7728 -0.8153 -1.0403
    3OL     H3S 8130   4.281   5.556   4.842  0.7258 -0.4749  0.3266
    3OL     C14 8131   4.468   5.481   4.755  0.0887 -0.9013  0.4267
    3OL     H4R 8132   4.471   5.411   4.839  0.7990  0.1907  1.3379
    3OL     H4S 8133   4.566   5.525   4.737 -0.5327  0.0430 -0.8608
    3OL     C15 8134   4.402   5.420   4.630 -0.3138  0.2451  0.0703
    3OL     H5R 8135   4.295   5.443   4.632 -0.9219 -2.3403  0.4199
    3OL     H5S 8136   4.408   5.311   4.632 -1.2488  0.1876  0.9145
    3OL     C16 8137   4.461   5.468   4.497 -0.1395 -0.5977 -0.1636
    3OL     H6R 8138   4.562   5.428   4.492 -0.4130 -1.3425  0.2014
    3OL     H6S 8139   4.456   5.577   4.499 -0.6869 -0.5777 -1.5065
    3OL     C17 8140   4.367   5.425   4.384 -0.5992  0.3362 -0.1550
    3OL     H7R 8141   4.267   5.468   4.389 -2.5646 -3.8414  3.1843
    3OL     H7S 8142   4.361   5.316   4.395 -0.0454  0.3396  0.2053
    3OL     C18 8143   4.423   5.467   4.247 -0.4220  0.5320 -0.0230
    3OL     H8R 8144   4.530   5.447   4.239  0.0568  2.6710  0.2607
    3OL     H8S 8145   4.408   5.576   4.250 -0.2469  0.5621 -0.2840
    3OL     C19 8146   4.339   5.401   4.140 -0.0624  0.9462 -0.5684
    3OL     H9R 8147   4.232   5.419   4.136 -0.4867 -1.2134 -0.3165
    3OL    C110 8148   4.383   5.323   4.042  0.2259  0.2937  0.0664
    3OL    H10R 8149   4.311   5.284   3.971  1.9162 -2.7784 -0.1265
    3OL    C111 8150   4.525   5.272   4.034  0.1885  0.1752  0.1574
    3OL    H11R 8151   4.579   5.289   4.128 -0.2057 -0.8279  0.5778
    3OL    H11S 8152   4.570   5.318   3.946  0.3867 -0.5965 -0.1488
    3OL    C112 8153   4.523   5.121   4.010  0.5102  0.1542  0.2533
    3OL    H12R 8154   4.628   5.106   3.983  0.6964  0.5880  0.7305
    3OL    H12S 8155   4.453   5.102   3.928  0.4562  0.0806  0.3162
    3OL    C113 8156   4.481   5.034   4.129 -0.0475 -0.4243 -0.3569
    3OL    H13R 8157   4.373   5.016   4.122  0.1672 -1.1503 -3.1365
    3OL    H13S 8158   4.478   5.088   4.224 -3.2110 -0.4851 -0.2986
    3OL    C114 8159   4.559   4.905   4.155  0.2881 -0.1101  0.2227
    3OL    H14R 8160   4.516   4.859   4.244 -3.2210  0.2312 -1.1241
    3OL    H14S 8161   4.666   4.923   4.170  0.1837 -0.5144  1.6198
    3OL    C115 8162   4.530   4.803   4.044  0.5945  0.5804 -0.4979
    3OL    H15R 8163   4.553   4.848   3.947  1.6605 -2.6969 -1.9315
    3OL    H15S 8164   4.427   4.769   4.036 -0.1174  2.8535 -2.0171
    3OL    C116 8165   4.605   4.673   4.076 -0.7551 -0.0580  0.1533
    3OL    H16R 8166   4.567   4.636   4.171 -0.8546  0.3346  0.2681
    3OL    H16S 8167   4.711   4.695   4.089 -0.7050  1.0882 -1.7900
    3OL    C117 8168   4.586   4.571   3.963 -0.0924 -0.4718  0.4054
    3OL    H17R 8169   4.482   4.573   3.929 -0.0138  2.8581 -0.0201
    3OL    H17S 8170   4.598   4.471   4.005 -0.0731 -0.2550  0.9147
    3OL    C118 8171   4.683   4.593   3.846 -0.4020 -0.0599  0.2217
    3OL    H18R 8172   4.780   4.567   3.889  0.2156  1.3406 -0.2648
    3OL    H18S 8173   4.685   4.695   3.808  1.1965 -0.9270 -2.2894
    3OL    H18T 8174   4.671   4.533   3.756  3.0278  2.0324 -1.8676
    1PA    C116 8175   0.010   5.611   4.100 -0.7311 -0.1648 -0.2463
    1PA    H16R 8176   0.098   5.654   4.052  0.1762 -1.2803  0.3825
    1PA    H16S 8177  -0.080   5.611   4.038 -2.2923 -0.8746  1.9363
    1PA    H16T 8178   0.035   5.506   4.116  0.7122  0.0659 -0.8153
    1PA    C115 8179  -0.009   5.678   4.237  0.0228 -0.8870  0.2201
    1PA    H15R 8180  -0.008   5.787   4.226 -0.6336 -1.0063 -1.2848
    1PA    H15S 8181  -0.103   5.649   4.282  0.2185  0.4000  1.5048
    1PA    C114 8182   0.096   5.638   4.342  0.4445 -0.0892  0.1152
    1PA    H14R 8183   0.095   5.531   4.364  1.0434 -0.4055 -1.2382
    1PA    H14S 8184   0.199   5.659   4.313 -0.0791  0.6093 -1.3979
    1PA    C113 8185   0.055   5.717   4.467  0.5692  0.0958  0.0395
    1PA    H13R 8186  -0.053   5.713   4.484  0.6485 -2.2490  0.3808
    1PA    H13S 8187   0.084   5.668   4.560  1.5422  0.8167  0.1282
    1PA    C112 8188   0.113   5.859   4.476 -0.0543  0.3212  0.5472
    1PA    H12R 8189   0.221   5.847   4.485 -0.0980  1.1191  2.6860
    1PA    H12S 8190   0.093   5.911   4.382  0.2033  0.4887  0.5864
    1PA    C111 8191   0.052   5.945   4.587 -0.1756  0.1495  0.6145
    1PA    H11R 8192   0.068   6.049   4.559 -0.3595  0.1142  0.3763
    1PA    H11S 8193  -0.057   5.931   4.585 -0.0272 -1.0594 -0.4991
    1PA    C110 8194   0.113   5.920   4.726  0.6681 -0.1543  0.1925
    1PA    H10R 8195   0.103   5.813   4.749  2.0803 -0.1224  1.0547
    1PA    H10S 8196   0.220   5.937   4.718  1.0067 -1.7596  0.8941
    1PA     C19 8197   0.049   6.014   4.828  0.4975 -0.0818  0.0193
    1PA     H9R 8198  -0.050   5.971   4.845  1.5643 -1.5814  3.2930
    1PA     H9S 8199   0.092   6.004   4.928 -0.2180  1.4679  0.5215
    1PA     C18 8200   0.052   6.163   4.791  0.8284  0.0005  0.3677
    1PA     H8R 8201   0.154   6.200   4.777  0.8665 -0.4184 -0.4919
    1PA     H8S 8202   0.001   6.183   4.697  2.0684  1.3351 -0.0604
    1PA     C17 8203  -0.028   6.243   4.896 -0.0850 -0.1832 -0.1749
    1PA     H7R 8204   0.017   6.215   4.992  0.0918 -4.1875 -1.2699
    1PA     H7S 8205  -0.015   6.351   4.890  0.1462 -0.2744 -2.0091
    1PA     C16 8206  -0.180   6.226   4.893 -0.0603 -0.4783  0.3205
    1PA     H6R 8207  -0.233   6.269   4.808 -0.8767  0.1426  1.1170
    1PA     H6S 8208  -0.201   6.119   4.896  0.6730 -0.6284  0.3527
    1PA     C15 8209  -0.237   6.302   5.013  0.2445 -0.1688  0.2688
    1PA     H5R 8210  -0.207   6.254   5.107 -1.1977  2.9991  2.5446
    1PA     H5S 8211  -0.205   6.406   5.022  2.1341 -0.6852 -0.2216
    1PA     C14 8212  -0.389   6.294   4.990  0.3889 -0.1906 -0.6754
    1PA     H4R 8213  -0.436   6.330   4.898  0.8735 -2.9933 -2.1310
    1PA     H4S 8214  -0.395   6.186   4.975 -1.7407  0.2373 -3.8947
    1PA     C13 8215  -0.456   6.345   5.117  0.6084 -0.8260 -0.2991
    1PA     H3R 8216  -0.405   6.316   5.209  0.4112 -1.9589 -0.5386
    1PA     H3S 8217  -0.448   6.454   5.114  2.1518 -0.8871  0.6818
    1PA     C12 8218  -0.602   6.299   5.123  0.3186  0.1065  0.0116
    1PA     H2R 8219  -0.656   6.333   5.034  3.4169  0.6552 -1.7858
    1PA     H2S 8220  -0.604   6.190   5.125 -0.4093  0.0563 -1.9084
    2PC     C11 8221  -0.673   6.360   5.241  0.6539 -0.1143  0.3287
    2PC     O12 8222  -0.727   6.468   5.237  0.1314 -0.3931 -0.2810
    2PC     O11 8223  -0.680   6.274   5.345  0.2252 -0.2061  0.2290
    2PC      C1 8224  -0.765   6.296   5.458 -0.0438  0.4072 -0.0907
    2PC      HR 8225  -0.728   6.230   5.536 -2.3154 -0.4242  0.3470
    2PC      HS 8226  -0.763   6.402   5.486  1.1469  0.6546 -0.9979
    2PC      C2 8227  -0.912   6.266   5.426  0.1367  0.0632 -0.6125
    2PC      HX 8228  -0.953   6.345   5.363 -1.9659 -1.7149 -1.6149
    2PC      C3 8229  -0.995   6.241   5.553  0.5816  0.5458 -0.2237
    2PC      HA 8230  -1.047   6.331   5.586 -2.6384 -0.8284 -1.1688
    2PC      HB 8231  -1.065   6.161   5.528  0.3049  1.1000 -1.2874
    2PC     O31 8232  -0.908   6.195   5.659 -0.1402  0.3404  0.2891
    2PC     P31 8233  -0.955   6.105   5.782 -0.5628 -0.1064 -0.1943
    2PC     O32 8234  -0.945   5.950   5.742  0.1646 -0.1270  0.0501
    2PC     C31 8235  -0.811   5.898   5.751  0.2084  0.0546  0.4586
    2PC     H1A 8236  -0.750   5.952   5.679 -1.9775  0.9700 -0.8103
    2PC     H1B 8237  -0.777   5.913   5.854 -1.5670  3.1286  0.7333
    2PC     C32 8238  -0.813   5.748   5.718 -0.0842  0.0892  0.3175
    2PC     H2A 8239  -0.903   5.704   5.762  1.2238 -3.9700 -0.6603
    2PC     H2B 8240  -0.823   5.736   5.610  0.1335 -0.2865  0.3385
    2PC     N31 8241  -0.706   5.656   5.768  0.1204 -0.0049 -0.2882
    2PC     C33 8242  -0.568   5.674   5.713  0.3057  0.0450  0.1890
    2PC     H3A 8243  -0.503   5.592   5.744  1.7360  0.9229 -0.3991
    2PC     H3B 8244  -0.567   5.675   5.604 -0.2156 -2.3919  0.0999
    2PC     H3C 8245  -0.533   5.770   5.751  0.7466 -0.4668  1.1232
    2PC     C34 8246  -0.698   5.667   5.917  0.4531  0.0459 -0.3096
    2PC     H4A 8247  -0.694   5.771   5.949 -1.9267 -0.0937  0.6455
    2PC     H4B 8248  -0.787   5.623   5.963 -0.0305  1.1213 -0.1957
    2PC     H4C 8249  -0.614   5.604   5.948 -0.0184 -0.7423 -0.6029
    2PC     C35 8250  -0.770   5.524   5.735 -0.2779 -0.0564  0.6689
    2PC     H5A 8251  -0.711   5.442   5.774 -0.0036  0.4482  1.3323
    2PC     H5B 8252  -0.770   5.520   5.626  1.0556  1.1933  0.5995
    2PC     H5C 8253  -0.870   5.540   5.778 -0.5316  0.5821 -0.1246
    2PC     O33 8254  -0.878   6.130   5.906  0.0178 -0.1554 -0.5402
    2PC     O34 8255  -1.096   6.137   5.815 -0.6174 -0.2827 -0.2547
    2PC     O21 8256  -0.909   6.147   5.346  0.0387 -0.6142  0.3761
    2PC     C21 8257  -1.014   6.116   5.268 -0.0981 -0.1374  0.3703
    2PC     O22 8258  -1.113   6.186   5.263 -0.0746 -0.1062  0.3383
    3OL     C12 8259  -0.989   5.999   5.177 -0.0030  0.0789  0.1181
    3OL     H2R 8260  -0.967   5.911   5.238  0.2420  0.4054  0.5024
    3OL     H2S 8261  -0.895   6.017   5.124 -1.1138  3.3883 -0.9656
    3OL     C13 8262  -1.099   5.980   5.072  0.1427  0.2716 -0.0708
    3OL     H3R 8263  -1.145   6.071   5.032  0.2166 -0.5722 -2.2405
    3OL     H3S 8264  -1.179   5.926   5.123 -1.5677  0.3551 -2.4731
    3OL     C14 8265  -1.054   5.895   4.952 -0.9147 -0.2198 -0.1353
    3OL     H4R 8266  -1.135   5.858   4.889  0.7929 -3.3358 -0.7099
    3OL     H4S 8267  -0.999   5.808   4.989 -0.6072  0.6917  1.6918
    3OL     C15 8268  -0.966   5.980   4.860 -0.4138 -0.1760  0.3755
    3OL     H5R 8269  -0.867   6.002   4.900 -0.0667 -0.6762 -0.1843
    3OL     H5S 8270  -1.007   6.081   4.853  0.4294  0.3639  2.5391
    3OL     C16 8271  -0.940   5.919   4.721  0.1321  0.3504  0.2440
    3OL     H6R 8272  -1.039   5.907   4.677 -0.4101 -0.2750  1.5664
    3OL     H6S 8273  -0.889   5.823   4.722 -2.9665 -1.4367 -0.7869
    3OL     C17 8274  -0.866   6.019   4.631 -0.6496  0.2965 -0.4687
    3OL     H7R 8275  -0.768   6.048   4.671 -0.6576 -1.5837  1.0683
    3OL     H7S 8276  -0.914   6.116   4.621  0.5243  0.7514 -2.2055
    3OL     C18 8277  -0.851   5.965   4.488  0.6088 -0.2054 -0.1694
    3OL     H8R 8278  -0.951   5.941   4.450  1.4644 -1.5475 -1.7164
    3OL     H8S 8279  -0.793   5.874   4.474  0.0785 -0.2752 -2.1778
    3OL     C19 8280  -0.779   6.064   4.400  0.0913  0.3186 -0.0129
    3OL     H9R 8281  -0.702   6.117   4.454 -1.0651  0.6798  1.3532
    3OL    C110 8282  -0.818   6.104   4.279 -0.1535 -0.6810 -0.2766
    3OL    H10R 8283  -0.755   6.172   4.223 -1.3753 -0.4080 -1.3594
    3OL    C111 8284  -0.936   6.049   4.205 -0.3882 -0.5211 -0.0247
    3OL    H11R 8285  -1.025   6.110   4.223  0.5356  1.0181 -0.5231
    3OL    H11S 8286  -0.963   5.950   4.243 -3.3505  0.6432  1.2185
    3OL    C112 8287  -0.898   6.044   4.056  0.0794  0.1702  0.0737
    3OL    H12R 8288  -0.791   6.023   4.048  0.2829  1.2688 -0.2731
    3OL    H12S 8289  -0.909   6.147   4.019 -1.7666  0.0952  0.3149
    3OL    C113 8290  -0.981   5.948   3.970 -0.6241 -0.0671  0.9955
    3OL    H13R 8291  -0.968   5.845   4.002  0.9791 -0.4131 -0.5857
    3OL    H13S 8292  -0.949   5.959   3.866 -1.3139 -1.0693  0.6718
    3OL    C114 8293  -1.128   5.991   3.972 -0.5881  0.1153  0.2455
    3OL    H14R 8294  -1.155   6.001   4.078 -0.7445  0.5218  0.1691
    3OL    H14S 8295  -1.186   5.908   3.931  0.9042 -1.1839  0.6616
    3OL    C115 8296  -1.154   6.118   3.890 -0.0996  0.0772  0.0316
    3OL    H15R 8297  -1.136   6.100   3.783  1.5511  2.9551 -0.2702
    3OL    H15S 8298  -1.085   6.198   3.917  0.8539 -1.0499  1.0758
    3OL    C116 8299  -1.295   6.175   3.904  0.0267  0.2233  0.7517
    3OL    H16R 8300  -1.310   6.192   4.010 -0.5088 -0.9597  0.8841
    3OL    H16S 8301  -1.372   6.103   3.875  0.8062 -0.8053  1.2125
    3OL    C117 8302  -1.310   6.309   3.830 -0.4590 -0.2818 -0.0846
    3OL    H17R 8303  -1.291   6.291   3.724  1.7763  1.0464  0.0259
    3OL    H17S 8304  -1.249   6.394   3.862  0.2036 -0.6583 -0.3234
    3OL    C118 8305  -1.452   6.360   3.857 -0.2425 -0.0184  0.5614
    3OL    H18R 8306  -1.531   6.294   3.820 -2.7598  2.3612  1.3979
    3OL    H18S 8307  -1.472   6.453   3.805  1.8943 -0.5033 -1.2634
    3OL    H18T 8308  -1.475   6.363   3.964 -0.7973 -1.1330  0.4941
    1PA    C116 8309   5.513   2.042   3.699  0.7478  0.4839  0.5867
    1PA    H16R 8310   5.415   2.057   3.744  1.5705 -1.0758  3.0498
    1PA    H16S 8311   5.498   1.996   3.601  1.0187  1.7149 -0.0555
    1PA    H16T 8312   5.554   2.141   3.676 -1.8165  1.0652 -2.2240
    1PA    C115 8313   5.605   1.961   3.790  0.4424  0.2016  0.6447
    1PA    H15R 8314   5.712   1.966   3.766  0.3696 -0.3286  0.2003
    1PA    H15S 8315   5.616   2.013   3.886  2.6337  1.5697 -0.2747
    1PA    C114 8316   5.566   1.815   3.816  0.0907  0.1093 -0.3706
    1PA    H14R 8317   5.459   1.805   3.839 -0.0226  1.0347 -0.4611
    1PA    H14S 8318   5.585   1.765   3.721 -1.3017 -0.9106 -0.1504
    1PA    C113 8319   5.643   1.750   3.931  0.0923  0.1014 -0.3761
    1PA    H13R 8320   5.751   1.769   3.931  0.0177  0.5224 -0.3179
    1PA    H13S 8321   5.599   1.791   4.022 -1.3733 -0.1253 -0.9580
    1PA    C112 8322   5.616   1.599   3.943  0.4994  0.0873  0.4999
    1PA    H12R 8323   5.511   1.569   3.944  0.1287  1.3147  0.1380
    1PA    H12S 8324   5.660   1.560   3.850  0.8112  2.0149 -0.2059
    1PA    C111 8325   5.689   1.533   4.060  0.1248 -0.7560  0.2651
    1PA    H11R 8326   5.797   1.549   4.048 -0.0700 -1.0726 -2.5542
    1PA    H11S 8327   5.656   1.578   4.153 -1.7849 -1.5771  0.0252
    1PA    C110 8328   5.657   1.383   4.057 -0.2966 -0.6490 -0.8580
    1PA    H10R 8329   5.549   1.368   4.069 -0.0919 -1.8648 -0.4592
    1PA    H10S 8330   5.697   1.350   3.961 -2.3052 -0.0437 -1.9587
    1PA     C19 8331   5.720   1.317   4.180 -0.9618  0.4409  0.0817
    1PA     H9R 8332   5.825   1.341   4.164 -1.2697  0.2911 -2.5706
    1PA     H9S 8333   5.697   1.360   4.278 -1.5047 -0.8888  0.5637
    1PA     C18 8334   5.704   1.165   4.189 -0.3528  0.4008  0.5584
    1PA     H8R 8335   5.604   1.126   4.210 -0.0726  0.1107  1.3846
    1PA     H8S 8336   5.746   1.121   4.098  0.3158  2.4082 -0.1342
    1PA     C17 8337   5.785   1.107   4.306  0.2995  0.4216  0.1223
    1PA     H7R 8338   5.787   0.998   4.299  2.1491  0.4369  0.0828
    1PA     H7S 8339   5.888   1.144   4.307  0.6050 -0.3160 -1.4118
    1PA     C16 8340   5.718   1.143   4.440 -0.0867 -0.0405  0.0560
    1PA     H6R 8341   5.712   1.250   4.461  0.6300  0.0452 -0.1377
    1PA     H6S 8342   5.613   1.114   4.435 -1.1153  2.7968  2.5045
    1PA     C15 8343   5.789   1.072   4.557 -0.4616 -0.0616  0.2734
    1PA     H5R 8344   5.780   0.964   4.560 -1.5837  0.0484  1.7415
    1PA     H5S 8345   5.895   1.097   4.544 -0.4136 -1.6174 -3.5361
    1PA     C14 8346   5.724   1.108   4.691  0.1524  0.2171  0.5032
    1PA     H4R 8347   5.741   1.214   4.711 -1.9584  1.1941 -2.1309
    1PA     H4S 8348   5.616   1.090   4.684  0.0452  0.6962  0.8871
    1PA     C13 8349   5.785   1.029   4.808 -0.1793 -0.0217  0.5197
    1PA     H3R 8350   5.710   1.038   4.886 -1.6204 -1.7693 -0.6010
    1PA     H3S 8351   5.798   0.923   4.785  2.4491  0.3807 -0.1770
    1PA     C12 8352   5.915   1.094   4.859 -0.0619  0.1799 -0.0194
    1PA     H2R 8353   5.997   1.077   4.790 -0.0151  2.1662 -0.4943
    1PA     H2S 8354   5.905   1.202   4.874  2.3742  0.2315  1.8201
    2PC     C11 8355   5.966   1.039   4.990  0.1077  0.2549 -0.0542
    2PC     O12 8356   6.081   1.005   5.010  0.1118  0.0730 -0.3827
    2PC     O11 8357   5.868   1.029   5.082 -0.1707  0.0139 -0.3749
    2PC      C1 8358   5.895   0.942   5.194 -0.2516  0.7328  0.2089
    2PC      HR 8359   5.902   0.837   5.165 -1.0758  0.9512 -0.8536
    2PC      HS 8360   5.992   0.967   5.238  0.8387 -0.6351 -1.3016
    2PC      C2 8361   5.784   0.965   5.297 -0.5149  0.3509  0.0117
    2PC      HX 8362   5.753   1.070   5.291 -0.9451  0.1516 -2.5598
    2PC      C3 8363   5.819   0.932   5.443  0.4210  0.1230 -0.2554
    2PC      HA 8364   5.915   0.983   5.453  0.5442  0.2672 -1.9277
    2PC      HB 8365   5.740   0.973   5.508  0.4602  0.2234 -0.2702
    2PC     O31 8366   5.832   0.791   5.468 -0.5694  0.0944  0.1588
    2PC     P31 8367   5.858   0.740   5.618 -0.1309  0.2436  0.1352
    2PC     O32 8368   6.012   0.784   5.627 -0.1180  0.3130 -0.3965
    2PC     C31 8369   6.031   0.909   5.694  0.3269 -0.1019  0.2559
    2PC     H1A 8370   5.982   0.991   5.641 -1.0117 -0.4861  0.8436
    2PC     H1B 8371   5.987   0.908   5.795  1.9061  1.2312  1.0097
    2PC     C32 8372   6.178   0.950   5.714  0.2223  0.2660  0.2858
    2PC     H2A 8373   6.219   0.963   5.614 -0.1356 -3.0323 -0.4002
    2PC     H2B 8374   6.181   1.047   5.763 -1.1692  1.1750 -1.2821
    2PC     N31 8375   6.267   0.854   5.787 -0.0899 -0.2976 -0.0622
    2PC     C33 8376   6.195   0.821   5.914  0.4600  0.6517  0.5070
    2PC     H3A 8377   6.123   0.748   5.879  0.5281  2.8106 -5.1721
    2PC     H3B 8378   6.264   0.771   5.981 -0.4939 -1.6126 -0.1212
    2PC     H3C 8379   6.146   0.906   5.963 -2.6328 -0.2398 -0.8320
    2PC     C34 8380   6.293   0.723   5.720 -0.2417 -0.5402  0.3516
    2PC     H4A 8381   6.204   0.689   5.667 -1.4052  0.8521  1.3264
    2PC     H4B 8382   6.376   0.739   5.651  0.4741 -0.8487  1.1244
    2PC     H4C 8383   6.325   0.646   5.791 -2.0466  0.2163  2.0609
    2PC     C35 8384   6.392   0.927   5.825 -0.4113 -0.0786  0.5824
    2PC     H5A 8385   6.440   0.979   5.743  0.2803  1.2204  1.7554
    2PC     H5B 8386   6.457   0.853   5.871 -1.0048  0.5995  2.6363
    2PC     H5C 8387   6.364   0.998   5.904 -2.3964 -1.5531  1.2869
    2PC     O33 8388   5.767   0.800   5.719 -0.0212  0.1940  0.2635
    2PC     O34 8389   5.849   0.593   5.625 -0.1120  0.2367  0.0191
    2PC     O21 8390   5.682   0.875   5.251 -0.1737 -0.5056  0.9014
    2PC     C21 8391   5.555   0.886   5.294 -0.5039  0.5029 -0.2778
    2PC     O22 8392   5.529   0.967   5.381 -0.0121 -0.6762  1.0026
    3OL     C12 8393   5.455   0.803   5.217  0.2913 -0.3368 -0.4294
    3OL     H2R 8394   5.383   0.874   5.174 -0.2699 -1.2935 -1.1059
    3OL     H2S 8395   5.388   0.753   5.288  0.0491  0.3620 -0.1474
    3OL     C13 8396   5.524   0.717   5.111  0.1547 -0.8925 -0.0725
    3OL     H3R 8397   5.585   0.640   5.157 -1.6365 -1.4821  1.4657
    3OL     H3S 8398   5.580   0.784   5.045 -1.1359  1.4853  1.1045
    3OL     C14 8399   5.417   0.645   5.027 -0.5070 -0.0790  0.0566
    3OL     H4R 8400   5.367   0.729   4.979 -2.4519 -0.4057  1.3960
    3OL     H4S 8401   5.341   0.593   5.085  0.1288 -1.5846 -0.3924
    3OL     C15 8402   5.481   0.556   4.919 -0.1815 -0.0750  0.2450
    3OL     H5R 8403   5.586   0.586   4.911 -0.2691  0.6985  1.6835
    3OL     H5S 8404   5.436   0.577   4.822  2.6082  0.1384 -1.1121
    3OL     C16 8405   5.480   0.406   4.951  0.0262 -0.3039 -0.7851
    3OL     H6R 8406   5.508   0.341   4.868 -2.9571 -2.9402  0.0491
    3OL     H6S 8407   5.380   0.369   4.976  1.3057 -3.2600  0.3388
    3OL     C17 8408   5.573   0.370   5.067  0.0554 -0.2324 -0.7863
    3OL     H7R 8409   5.555   0.266   5.097 -0.5190  0.3461  0.9706
    3OL     H7S 8410   5.543   0.411   5.164 -0.7833 -0.4911 -0.9279
    3OL     C18 8411   5.725   0.373   5.041  0.1265  0.1139 -0.3440
    3OL     H8R 8412   5.768   0.473   5.029 -0.2143  0.2210 -0.7199
    3OL     H8S 8413   5.742   0.327   4.944 -0.0171  1.6297 -1.1262
    3OL     C19 8414   5.806   0.304   5.147 -0.2662 -0.0710 -0.1626
    3OL     H9R 8415   5.762   0.305   5.247  1.2958  0.9307  0.5462
    3OL    C110 8416   5.894   0.211   5.113  0.7756  0.7069  0.3602
    3OL    H10R 8417   5.936   0.148   5.191  3.3832  1.9712  0.0877
    3OL    C111 8418   5.948   0.191   4.974 -0.2258  0.2894  0.0206
    3OL    H11R 8419   5.950   0.286   4.920  2.0459  0.3065  0.0248
    3OL    H11S 8420   5.890   0.120   4.914  0.5675 -0.9297  0.6459
    3OL    C112 8421   6.094   0.143   4.979 -0.2524  0.1880 -0.1693
    3OL    H12R 8422   6.097   0.047   5.031 -0.9295 -0.3129 -1.0136
    3OL    H12S 8423   6.160   0.210   5.034  0.4394  0.0969 -0.8621
    3OL    C113 8424   6.154   0.138   4.838  0.1498  0.3202 -0.0026
    3OL    H13R 8425   6.151   0.240   4.799  0.0648  0.2540 -0.1675
    3OL    H13S 8426   6.097   0.065   4.780 -1.2339  2.6842 -1.8218
    3OL    C114 8427   6.304   0.106   4.833  0.1200  0.2116 -0.2336
    3OL    H14R 8428   6.327   0.021   4.898 -0.1413  1.2452  1.2756
    3OL    H14S 8429   6.354   0.194   4.875  1.4181 -0.6273  0.0626
    3OL    C115 8430   6.371   0.082   4.697  0.3394 -0.1222 -0.0678
    3OL    H15R 8431   6.357   0.176   4.644 -1.2960  0.1160  0.7408
    3OL    H15S 8432   6.312   0.005   4.647 -0.9032  0.0569  1.0789
    3OL    C116 8433   6.516   0.038   4.719  0.3851  0.2203  0.3206
    3OL    H16R 8434   6.526  -0.042   4.794 -0.9164  0.2900  0.5903
    3OL    H16S 8435   6.559   0.128   4.764 -1.1102  2.0054 -1.6463
    3OL    C117 8436   6.585   0.001   4.587  0.2651  0.0631  0.3007
    3OL    H17R 8437   6.687   0.040   4.594 -0.8744  3.7123 -0.9773
    3OL    H17S 8438   6.539   0.062   4.509  1.6597 -1.0652 -1.4943
    3OL    C118 8439   6.565  -0.147   4.553 -0.2538  0.2143 -0.0537
    3OL    H18R 8440   6.630  -0.212   4.611 -0.0042 -0.3697 -0.9570
    3OL    H18S 8441   6.584  -0.173   4.448  0.4594 -1.8130  0.5346
    3OL    H18T 8442   6.466  -0.185   4.581  0.6173 -1.3540  1.0555
    1PA    C116 8443   5.887   6.595   4.087  0.0788 -0.3131 -0.3661
    1PA    H16R 8444   5.898   6.525   4.004 -2.8727  0.8930 -1.9336
    1PA    H16S 8445   5.964   6.576   4.161  0.2825  0.2884 -0.4198
    1PA    H16T 8446   5.891   6.698   4.048 -0.1840  0.3881  1.3758
    1PA    C115 8447   5.759   6.579   4.171  0.1020 -0.1244 -0.2924
    1PA    H15R 8448   5.779   6.507   4.251  0.7470 -1.8164 -1.8932
    1PA    H15S 8449   5.738   6.677   4.214  1.1472 -0.5761  1.3135
    1PA    C114 8450   5.649   6.534   4.074 -0.0744  0.0717 -0.1817
    1PA    H14R 8451   5.636   6.599   3.987  0.4382 -0.2079 -0.4731
    1PA    H14S 8452   5.672   6.440   4.024 -0.4308  0.1578 -0.5142
    1PA    C113 8453   5.510   6.527   4.140  0.3584  0.2685  0.7667
    1PA    H13R 8454   5.500   6.604   4.217  1.0434  1.6076 -0.4239
    1PA    H13S 8455   5.432   6.542   4.066  2.8115  0.5403 -1.9607
    1PA    C112 8456   5.497   6.385   4.196 -0.1160  0.2438  0.5981
    1PA    H12R 8457   5.492   6.304   4.123  2.9484  0.7610 -0.3357
    1PA    H12S 8458   5.592   6.352   4.239  0.6498  0.1936 -1.0390
    1PA    C111 8459   5.380   6.386   4.295 -0.6221  0.5582  0.0013
    1PA    H11R 8460   5.412   6.447   4.380  0.6086 -1.2366  0.8771
    1PA    H11S 8461   5.289   6.419   4.244  0.0335 -0.2832 -1.8070
    1PA    C110 8462   5.350   6.245   4.347  0.3122  0.3222 -0.0768
    1PA    H10R 8463   5.245   6.243   4.377 -0.0729  0.5466 -1.3528
    1PA    H10S 8464   5.362   6.171   4.267  0.1386 -0.2937  0.4609
    1PA     C19 8465   5.439   6.205   4.465  0.3525  0.5669 -0.0238
    1PA     H9R 8466   5.460   6.097   4.462 -1.7501  0.1184 -0.1239
    1PA     H9S 8467   5.534   6.256   4.452 -0.2360  2.5451  2.6752
    1PA     C18 8468   5.373   6.247   4.597  0.2972 -0.1164  0.1690
    1PA     H8R 8469   5.451   6.244   4.673 -0.7786 -0.4075  1.3018
    1PA     H8S 8470   5.329   6.346   4.589  0.7150 -0.0089 -0.9830
    1PA     C17 8471   5.263   6.143   4.628  0.2494 -0.1748 -0.1910
    1PA     H7R 8472   5.197   6.130   4.542 -0.0762 -0.1875  0.0598
    1PA     H7S 8473   5.296   6.045   4.663 -1.6172  0.2089  2.9516
    1PA     C16 8474   5.166   6.189   4.738 -0.1513  0.0675 -0.6410
    1PA     H6R 8475   5.161   6.298   4.738  0.7587  0.1300  0.3476
    1PA     H6S 8476   5.063   6.156   4.725 -0.6749  0.3699  2.2341
    1PA     C15 8477   5.213   6.145   4.877 -0.2305  0.0939 -0.6062
    1PA     H5R 8478   5.228   6.037   4.878 -0.4965  0.0514 -1.1152
    1PA     H5S 8479   5.309   6.194   4.896 -0.2107  0.1698 -0.8992
    1PA     C14 8480   5.101   6.169   4.980  0.3342  0.1120  0.0095
    1PA     H4R 8481   5.005   6.128   4.948  1.6439 -1.3108 -2.3162
    1PA     H4S 8482   5.129   6.125   5.076  0.2189  1.2882  0.6046
    1PA     C13 8483   5.074   6.318   5.006  0.0058  0.0574 -0.0079
    1PA     H3R 8484   5.170   6.360   5.037  0.4688  1.0739 -2.5276
    1PA     H3S 8485   5.060   6.369   4.911  1.0300  3.0307  1.3002
    1PA     C12 8486   4.959   6.357   5.099  0.1003  0.0017  0.1343
    1PA     H2R 8487   4.866   6.346   5.042  1.4069  0.9442 -2.3539
    1PA     H2S 8488   4.945   6.293   5.186 -3.6678  0.2034 -0.1574
    2PC     C11 8489   4.966   6.497   5.156  0.5205 -0.1563  0.4707
    2PC     O12 8490   4.918   6.526   5.263 -0.4761 -0.3084  0.0756
    2PC     O11 8491   5.024   6.589   5.077 -0.6976 -0.1545 -0.4560
    2PC      C1 8492   5.023   6.731   5.098  0.1283 -0.2334  0.2076
    2PC      HR 8493   5.059   6.776   5.004  0.9959  1.9854  1.5288
    2PC      HS 8494   4.920   6.765   5.115  0.6005 -0.0297  3.0479
    2PC      C2 8495   5.115   6.767   5.215 -0.2241 -0.2055  0.4788
    2PC      HX 8496   5.096   6.698   5.297  0.1054 -1.0896 -0.1720
    2PC      C3 8497   5.094   6.914   5.255 -0.7477 -0.1776  0.1074
    2PC      HA 8498   5.169   6.972   5.201 -1.0668  0.7316  0.6267
    2PC      HB 8499   4.998   6.959   5.228 -0.7275  0.8671  1.6519
    2PC     O31 8500   5.107   6.923   5.398 -0.0661  0.2755  0.0186
    2PC     P31 8501   4.996   6.886   5.506 -0.0120 -0.2464 -0.1048
    2PC     O32 8502   5.011   6.736   5.562 -0.1125 -0.3640 -0.3901
    2PC     C31 8503   5.144   6.695   5.600 -0.2658 -0.5000  0.0012
    2PC     H1A 8504   5.203   6.681   5.509 -1.1096 -0.2007 -0.6127
    2PC     H1B 8505   5.191   6.779   5.651  1.3193  0.8722 -3.4436
    2PC     C32 8506   5.139   6.581   5.703  0.0932 -0.1991  0.3533
    2PC     H2A 8507   5.220   6.579   5.776  1.2571  1.4614 -0.7995
    2PC     H2B 8508   5.053   6.601   5.768  0.1066 -3.2820  1.4819
    2PC     N31 8509   5.117   6.440   5.659 -0.0640  0.0151 -0.2640
    2PC     C33 8510   5.093   6.354   5.779  0.7552 -0.2331 -0.2708
    2PC     H3A 8511   5.183   6.358   5.841 -0.7007 -0.5118  1.9951
    2PC     H3B 8512   5.015   6.398   5.842  1.2123 -0.7605  0.6914
    2PC     H3C 8513   5.067   6.250   5.758  0.7276 -0.2166 -0.3143
    2PC     C34 8514   5.000   6.436   5.566 -0.0044  0.8320 -0.3823
    2PC     H4A 8515   5.026   6.489   5.474 -2.9615  0.9651 -1.2717
    2PC     H4B 8516   4.974   6.333   5.541  2.0731  1.2208 -5.2148
    2PC     H4C 8517   4.918   6.491   5.613  0.3791  1.0277  0.0629
    2PC     C35 8518   5.229   6.371   5.586 -0.6796 -0.7270 -0.5189
    2PC     H5A 8519   5.251   6.442   5.507 -1.4271  0.5547  0.3814
    2PC     H5B 8520   5.212   6.267   5.556  1.9781 -1.1609 -0.7438
    2PC     H5C 8521   5.315   6.366   5.652 -0.5081  0.2298 -0.6537
    2PC     O33 8522   4.998   6.984   5.617 -0.3435  0.0018 -0.3145
    2PC     O34 8523   4.864   6.914   5.444 -0.1114 -0.5801 -0.0504
    2PC     O21 8524   5.254   6.760   5.175 -0.2788  0.0967  0.2258
    2PC     C21 8525   5.310   6.641   5.200  0.7950  0.6332  0.4075
    2PC     O22 8526   5.256   6.548   5.255 -0.0440  0.7682 -0.1726
    3OL     C12 8527   5.441   6.623   5.127  0.3136  0.0880 -0.3286
    3OL     H2R 8528   5.519   6.669   5.187 -1.4449 -0.1383  2.2684
    3OL     H2S 8529   5.444   6.682   5.035  2.5424 -0.9059 -0.9672
    3OL     C13 8530   5.473   6.476   5.093  0.0346  0.0565 -0.4584
    3OL     H3R 8531   5.388   6.437   5.036 -1.5392  1.2228  0.9692
    3OL     H3S 8532   5.476   6.425   5.190 -0.0391  1.2636  0.2031
    3OL     C14 8533   5.601   6.468   5.010  0.4195  0.4378  0.0939
    3OL     H4R 8534   5.635   6.366   5.029  0.5622  0.3418 -0.6430
    3OL     H4S 8535   5.681   6.522   5.062  0.8720 -0.6580  0.5730
    3OL     C15 8536   5.583   6.480   4.858 -0.1077  0.1850  0.1347
    3OL     H5R 8537   5.562   6.581   4.824 -2.1664 -0.8352 -1.8862
    3OL     H5S 8538   5.502   6.414   4.826  0.0425 -0.6136  1.3081
    3OL     C16 8539   5.712   6.423   4.797 -0.2847 -0.1439  0.0663
    3OL     H6R 8540   5.734   6.321   4.831  1.1432 -0.3411 -1.3291
    3OL     H6S 8541   5.799   6.484   4.822  0.8777 -1.9311  0.6372
    3OL     C17 8542   5.704   6.427   4.644 -0.0690  0.5111  0.0698
    3OL     H7R 8543   5.659   6.517   4.601  0.4292  0.6369 -0.2027
    3OL     H7S 8544   5.637   6.346   4.613 -1.6619  2.4466 -1.8743
    3OL     C18 8545   5.838   6.388   4.579 -0.1728 -0.4555  0.4260
    3OL     H8R 8546   5.813   6.342   4.483 -1.6249 -0.3614  0.7335
    3OL     H8S 8547   5.882   6.321   4.653 -2.0256 -0.4950  1.5596
    3OL     C19 8548   5.932   6.504   4.564 -0.2298 -0.4859 -0.2451
    3OL     H9R 8549   5.883   6.601   4.558  0.6178 -0.0544 -0.3459
    3OL    C110 8550   6.062   6.486   4.542 -0.2097 -0.3483 -0.2401
    3OL    H10R 8551   6.125   6.571   4.520 -0.8394  0.0767 -0.4467
    3OL    C111 8552   6.133   6.353   4.547  0.1978 -0.1072  0.5933
    3OL    H11R 8553   6.063   6.270   4.559 -0.4183  0.4995  1.2815
    3OL    H11S 8554   6.199   6.343   4.634 -2.3718  0.5673  2.7602
    3OL    C112 8555   6.221   6.327   4.424  0.1251  0.5136  0.4077
    3OL    H12R 8556   6.271   6.234   4.450 -3.7626 -1.0253  3.3371
    3OL    H12S 8557   6.293   6.409   4.417  0.4967  0.0759 -1.6138
    3OL    C113 8558   6.135   6.327   4.297  0.3677 -0.0060  0.2428
    3OL    H13R 8559   6.092   6.426   4.282 -0.6142 -0.1437  1.9359
    3OL    H13S 8560   6.061   6.247   4.306  1.5395 -0.8750  4.2198
    3OL    C114 8561   6.230   6.289   4.182 -0.3197  0.1575 -0.3839
    3OL    H14R 8562   6.288   6.197   4.193  0.0164  0.3560 -0.5170
    3OL    H14S 8563   6.304   6.368   4.193 -0.8380  0.5188  0.6983
    3OL    C115 8564   6.153   6.286   4.049 -0.2942 -0.7452 -0.3848
    3OL    H15R 8565   6.121   6.389   4.032 -1.2626 -0.9422  0.2108
    3OL    H15S 8566   6.069   6.217   4.058 -0.9056 -0.0969 -1.0099
    3OL    C116 8567   6.238   6.251   3.926 -0.1817 -0.2801 -0.4415
    3OL    H16R 8568   6.269   6.151   3.959 -2.1099 -0.1398  2.0633
    3OL    H16S 8569   6.324   6.317   3.937  0.2762 -0.6354 -1.6604
    3OL    C117 8570   6.153   6.264   3.798 -0.6687  0.2888 -0.0608
    3OL    H17R 8571   6.209   6.257   3.705 -0.1020 -3.4652  0.3960
    3OL    H17S 8572   6.122   6.369   3.800  4.0441  1.9309  0.5688
    3OL    C118 8573   6.031   6.171   3.798 -0.0028 -0.6016  0.3141
    3OL    H18R 8574   5.990   6.180   3.697  0.8915 -0.8231 -0.0776
    3OL    H18S 8575   5.959   6.211   3.870 -2.2410  0.5597 -2.4021
    3OL    H18T 8576   6.052   6.066   3.820 -0.1906 -0.3463  1.7905
    1PA    C116 8577   1.553   2.957   3.039 -0.0422 -0.2949 -0.5578
    1PA    H16R 8578   1.562   2.999   3.140  0.3700 -1.2505 -0.1908
    1PA    H16S 8579   1.649   2.947   2.989  0.3901 -2.0683  0.5494
    1PA    H16T 8580   1.500   2.862   3.042 -1.3614  0.4034 -0.7822
    1PA    C115 8581   1.445   3.047   2.976  0.1781  0.6624  0.3844
    1PA    H15R 8582   1.351   3.055   3.030  0.5955  1.6493  0.9790
    1PA    H15S 8583   1.480   3.150   2.974 -0.4812  0.9608  2.5615
    1PA    C114 8584   1.433   3.016   2.826  0.3180  0.8851  0.3261
    1PA    H14R 8585   1.528   3.011   2.772 -0.3264 -1.2904 -0.7510
    1PA    H14S 8586   1.384   2.919   2.813 -1.1643  1.6659 -0.1775
    1PA    C113 8587   1.344   3.113   2.747 -0.1641 -0.2162 -0.5104
    1PA    H13R 8588   1.389   3.210   2.768  0.9848 -1.2461  2.2359
    1PA    H13S 8589   1.357   3.093   2.640 -0.0178 -0.7729 -0.3942
    1PA    C112 8590   1.200   3.109   2.801  0.0156 -0.1929 -0.0267
    1PA    H12R 8591   1.132   3.073   2.723 -0.3277 -1.6647  0.9247
    1PA    H12S 8592   1.186   3.055   2.895  0.0119  1.4005  0.9316
    1PA    C111 8593   1.145   3.246   2.841 -0.2183 -0.4010  0.3671
    1PA    H11R 8594   1.195   3.290   2.928 -1.7717  2.3315  0.0185
    1PA    H11S 8595   1.158   3.325   2.766  0.0820  0.6421  1.4925
    1PA    C110 8596   0.993   3.242   2.863 -0.2947  0.5017  0.0793
    1PA    H10R 8597   0.946   3.263   2.767  1.2099 -0.4674 -0.9012
    1PA    H10S 8598   0.978   3.136   2.888 -0.8129  0.1957 -1.3978
    1PA     C19 8599   0.953   3.343   2.971 -0.2882  0.2345  0.3318
    1PA     H9R 8600   1.003   3.327   3.067 -1.2337  0.7742  0.9383
    1PA     H9S 8601   0.978   3.442   2.933 -2.1385  0.1762 -1.1881
    1PA     C18 8602   0.801   3.347   2.996 -0.2697  0.2843  0.4395
    1PA     H8R 8603   0.756   3.251   3.024 -0.1723  0.7230  2.2351
    1PA     H8S 8604   0.783   3.414   3.080  0.4329  0.4779  0.4428
    1PA     C17 8605   0.734   3.392   2.865  0.0913 -0.3886  0.0169
    1PA     H7R 8606   0.778   3.482   2.824 -0.6323  0.1439  0.3953
    1PA     H7S 8607   0.740   3.318   2.784 -1.7577 -0.4457 -0.1069
    1PA     C16 8608   0.584   3.417   2.882  0.1183 -0.3581  0.2161
    1PA     H6R 8609   0.543   3.323   2.919  1.0254 -0.5132  0.8343
    1PA     H6S 8610   0.571   3.485   2.967  2.2808 -3.5531  3.3688
    1PA     C15 8611   0.514   3.453   2.750  0.4913 -0.2093  0.0587
    1PA     H5R 8612   0.559   3.538   2.698 -1.1382  1.4326  1.2410
    1PA     H5S 8613   0.528   3.363   2.690 -1.0223 -0.2364 -0.2901
    1PA     C14 8614   0.364   3.476   2.772  0.5363 -0.1004  0.2512
    1PA     H4R 8615   0.338   3.381   2.819  1.0423  0.2629  1.3048
    1PA     H4S 8616   0.339   3.558   2.841 -0.9967 -0.6166  0.3511
    1PA     C13 8617   0.284   3.503   2.644 -0.0140  0.0172  0.6126
    1PA     H3R 8618   0.319   3.601   2.610  0.9143  0.4710  2.7083
    1PA     H3S 8619   0.304   3.434   2.561  0.6086  1.3055 -0.3533
    1PA     C12 8620   0.132   3.506   2.660 -0.0673 -0.1570  0.1618
    1PA     H2R 8621   0.100   3.422   2.723 -2.4920  2.1976  2.3173
    1PA     H2S 8622   0.108   3.590   2.725  0.6120 -0.7227  1.1713
    2PC     C11 8623   0.058   3.507   2.529  0.5994  0.1428 -0.2135
    2PC     O12 8624  -0.021   3.596   2.508 -0.6670 -0.8036  0.4386
    2PC     O11 8625   0.074   3.394   2.457  0.2376  0.0805 -0.1951
    2PC      C1 8626  -0.002   3.388   2.335 -0.3484 -0.4214  0.1896
    2PC      HR 8627  -0.102   3.349   2.357 -0.8897  0.3246 -0.8624
    2PC      HS 8628  -0.018   3.488   2.295 -2.3296 -0.3216  1.1037
    2PC      C2 8629   0.073   3.305   2.230  0.1743  0.2056  0.0684
    2PC      HX 8630   0.172   3.352   2.220  0.6617 -0.8683 -0.2940
    2PC      C3 8631   0.019   3.312   2.087  0.2209  0.5042  0.0641
    2PC      HA 8632  -0.007   3.416   2.067  0.3665  0.3893 -0.7650
    2PC      HB 8633  -0.076   3.259   2.091 -2.2730  4.5435 -0.5602
    2PC     O31 8634   0.126   3.272   1.999  0.1981  0.1688  0.1875
    2PC     P31 8635   0.095   3.280   1.842 -0.1980 -0.1896  0.2436
    2PC     O32 8636   0.232   3.224   1.780 -0.0906  0.1733  0.1460
    2PC     C31 8637   0.333   3.311   1.728 -0.3917  0.3074 -0.2194
    2PC     H1A 8638   0.289   3.389   1.665  0.9137 -0.6075 -2.3926
    2PC     H1B 8639   0.395   3.373   1.794 -0.4715  0.4276 -0.2555
    2PC     C32 8640   0.449   3.235   1.662 -0.1597 -0.1747  0.7276
    2PC     H2A 8641   0.526   3.310   1.640 -0.4705  0.0742  0.4773
    2PC     H2B 8642   0.494   3.166   1.734  0.3375 -0.8452 -0.2054
    2PC     N31 8643   0.411   3.154   1.542  0.1874  0.7490 -0.0202
    2PC     C33 8644   0.537   3.114   1.473 -0.0944 -0.1219 -0.0456
    2PC     H3A 8645   0.605   3.200   1.471 -0.4033  0.1140 -1.3399
    2PC     H3B 8646   0.589   3.036   1.529  0.2031 -0.5373 -0.8708
    2PC     H3C 8647   0.506   3.079   1.374 -0.2942 -2.3864  0.7616
    2PC     C34 8648   0.354   3.021   1.581  0.7413  0.5669  0.1662
    2PC     H4A 8649   0.409   2.980   1.667  3.2146  1.5993 -0.8201
    2PC     H4B 8650   0.250   3.041   1.606  0.9646  0.4075  1.3045
    2PC     H4C 8651   0.356   2.949   1.499  0.6424  0.4743  0.2442
    2PC     C35 8652   0.317   3.220   1.444 -0.6564  0.2856  0.4634
    2PC     H5A 8653   0.373   3.289   1.381 -0.7445 -0.6934 -0.7223
    2PC     H5B 8654   0.232   3.270   1.490 -0.3973  1.5826 -0.4399
    2PC     H5C 8655   0.278   3.135   1.388 -2.1461 -0.3186  2.3212
    2PC     O33 8656  -0.019   3.193   1.808  0.3221 -0.4041 -0.9913
    2PC     O34 8657   0.059   3.411   1.783 -0.1011 -0.1411  0.2913
    2PC     O21 8658   0.069   3.173   2.286  0.4867 -0.0753 -0.5629
    2PC     C21 8659   0.171   3.088   2.264  0.7084 -0.2047  0.8244
    2PC     O22 8660   0.270   3.127   2.206 -0.0439  0.0116 -0.3469
    3OL     C12 8661   0.147   2.951   2.320  0.0442 -0.2862  0.3509
    3OL     H2R 8662   0.225   2.892   2.270  0.2632 -0.2887  0.6923
    3OL     H2S 8663   0.049   2.916   2.288 -0.5263  2.0734 -0.7072
    3OL     C13 8664   0.153   2.945   2.473  0.6659  0.2420  0.3510
    3OL     H3R 8665   0.186   2.843   2.492 -0.2746 -0.4474 -1.5367
    3OL     H3S 8666   0.052   2.959   2.513  0.1073 -2.2836 -0.0404
    3OL     C14 8667   0.245   3.055   2.528  0.3606  0.6543  0.0375
    3OL     H4R 8668   0.207   3.152   2.495 -2.2824 -0.5344 -0.6830
    3OL     H4S 8669   0.346   3.043   2.489  0.7724  0.5961  1.0899
    3OL     C15 8670   0.267   3.047   2.679 -0.3333 -0.0940  0.1054
    3OL     H5R 8671   0.345   3.119   2.707  0.2310 -1.4375  2.2784
    3OL     H5S 8672   0.305   2.948   2.704  1.1871 -0.2125 -2.3431
    3OL     C16 8673   0.139   3.079   2.758  0.2890  0.1743  1.0290
    3OL     H6R 8674   0.051   3.035   2.710 -0.8034  2.5998  0.6516
    3OL     H6S 8675   0.124   3.185   2.739  0.9686 -0.0513 -0.9732
    3OL     C17 8676   0.149   3.049   2.908  0.2631  0.2358  1.0426
    3OL     H7R 8677   0.153   2.944   2.936 -1.8725  0.5828  2.9255
    3OL     H7S 8678   0.062   3.090   2.961  0.3677 -0.1862  1.5451
    3OL     C18 8679   0.273   3.120   2.966  0.7154  0.1732  0.1642
    3OL     H8R 8680   0.252   3.225   2.944  0.2876 -0.1818 -1.2748
    3OL     H8S 8681   0.367   3.087   2.923 -0.2129  0.6318 -2.4395
    3OL     C19 8682   0.276   3.097   3.115  0.2011  0.6613  0.2527
    3OL     H9R 8683   0.270   2.993   3.145  0.1875  0.4797 -0.3656
    3OL    C110 8684   0.274   3.188   3.211 -0.1769  0.6095  0.2964
    3OL    H10R 8685   0.283   3.152   3.313 -1.6289 -0.3077  0.1355
    3OL    C111 8686   0.272   3.338   3.194  0.1487  0.6348  0.4786
    3OL    H11R 8687   0.332   3.368   3.108  1.6640  0.0836  1.3010
    3OL    H11S 8688   0.331   3.369   3.280 -2.1857  0.6042  2.1875
    3OL    C112 8689   0.136   3.407   3.209 -0.1119  0.0801  0.6771
    3OL    H12R 8690   0.161   3.513   3.219  3.2647 -0.2813 -2.1212
    3OL    H12S 8691   0.084   3.372   3.299  0.5304  0.7611  1.3223
    3OL    C113 8692   0.048   3.403   3.084  0.3498  0.3614  0.3431
    3OL    H13R 8693   0.011   3.301   3.084 -0.9888  0.7246  3.6073
    3OL    H13S 8694   0.099   3.422   2.989  0.0974 -0.4682  0.0388
    3OL    C114 8695  -0.079   3.489   3.087 -0.0667 -0.2236 -0.1689
    3OL    H14R 8696  -0.103   3.497   3.194  0.9537  0.0720  0.0434
    3OL    H14S 8697  -0.164   3.435   3.045 -0.5574 -0.4438  1.0534
    3OL    C115 8698  -0.070   3.630   3.027 -0.3636  0.0298  0.3704
    3OL    H15R 8699  -0.025   3.620   2.928  0.1127 -2.8083  0.7977
    3OL    H15S 8700  -0.003   3.681   3.097  0.1997  0.0551 -0.1864
    3OL    C116 8701  -0.201   3.709   3.014 -0.4570 -0.1514  0.2103
    3OL    H16R 8702  -0.188   3.817   3.014 -1.5392 -0.0068  0.8093
    3OL    H16S 8703  -0.248   3.688   3.110 -1.3163  1.8290  0.2656
    3OL    C117 8704  -0.298   3.670   2.902 -0.6253  0.1380  0.2557
    3OL    H17R 8705  -0.318   3.563   2.900 -2.4124  0.4455  0.2698
    3OL    H17S 8706  -0.243   3.681   2.808 -1.5972 -2.7531 -0.7265
    3OL    C118 8707  -0.428   3.751   2.903 -0.3680  0.5581  0.1118
    3OL    H18R 8708  -0.482   3.730   2.810  1.2480  2.2143 -1.2840
    3OL    H18S 8709  -0.413   3.859   2.907 -1.3398  0.6522  2.3522
    3OL    H18T 8710  -0.494   3.726   2.986 -1.7303  2.0490 -0.4492
    1PA    C116 8711   1.053   2.278   3.539  0.1538  0.2169 -0.4076
    1PA    H16R 8712   1.119   2.323   3.614  1.5553 -0.6724 -1.0723
    1PA    H16S 8713   0.958   2.332   3.532 -0.1683 -0.4151 -1.0207
    1PA    H16T 8714   1.099   2.271   3.441  1.7459  3.9446 -0.0998
    1PA    C115 8715   1.015   2.134   3.576 -0.5772  0.5280  0.0987
    1PA    H15R 8716   1.108   2.081   3.551 -0.1899  1.2752 -0.0849
    1PA    H15S 8717   0.995   2.135   3.683  1.1852 -1.0259  0.5013
    1PA    C114 8718   0.898   2.069   3.500 -0.1703 -0.2144  0.0966
    1PA    H14R 8719   0.891   1.962   3.519  1.8768 -0.0892  1.9716
    1PA    H14S 8720   0.801   2.116   3.518 -0.0652  0.0279  0.0396
    1PA    C113 8721   0.922   2.084   3.349 -0.4124 -0.3922  0.0413
    1PA    H13R 8722   0.898   2.186   3.318 -0.9686 -0.7145 -0.6271
    1PA    H13S 8723   1.020   2.052   3.314  0.2089  0.4832  0.9325
    1PA    C112 8724   0.812   2.007   3.275 -0.3685 -0.7549  0.3501
    1PA    H12R 8725   0.808   1.900   3.300  2.1344 -1.2868 -1.1940
    1PA    H12S 8726   0.719   2.055   3.306  0.1411 -0.7577  1.9873
    1PA    C111 8727   0.843   2.016   3.125  0.1428  0.2363  0.5057
    1PA    H11R 8728   0.870   2.120   3.106 -4.1625  1.8046  1.8029
    1PA    H11S 8729   0.930   1.953   3.106  1.1904  1.6874  0.3446
    1PA    C110 8730   0.720   1.966   3.048  0.2035  0.1931  0.4362
    1PA    H10R 8731   0.709   1.857   3.057  0.1985  0.0112 -1.4565
    1PA    H10S 8732   0.630   2.001   3.099  1.2818  0.0561  2.5152
    1PA     C19 8733   0.735   2.012   2.902  0.0592  0.0376  0.3718
    1PA     H9R 8734   0.638   1.989   2.858  1.0702 -1.7917 -1.0481
    1PA     H9S 8735   0.760   2.118   2.895  3.6107 -0.6603  0.7985
    1PA     C18 8736   0.839   1.927   2.827  0.3655  0.4030  0.3836
    1PA     H8R 8737   0.942   1.944   2.860  0.5179  0.5787 -0.1818
    1PA     H8S 8738   0.820   1.821   2.843  0.7780 -0.1012 -2.1544
    1PA     C17 8739   0.824   1.961   2.678 -0.0025  0.3878  0.4163
    1PA     H7R 8740   0.716   1.956   2.660 -0.2525 -0.2781  1.8909
    1PA     H7S 8741   0.861   2.063   2.673  0.1249  0.6453  3.8935
    1PA     C16 8742   0.912   1.873   2.587 -0.3461 -0.0648  0.5140
    1PA     H6R 8743   1.013   1.880   2.627 -0.9193 -0.3725  2.0974
    1PA     H6S 8744   0.879   1.770   2.596  1.0109 -0.5279  0.3377
    1PA     C15 8745   0.905   1.902   2.437 -0.0852 -0.2297  0.4704
    1PA     H5R 8746   0.802   1.871   2.415 -0.2441  0.8101 -0.3368
    1PA     H5S 8747   0.918   2.008   2.414 -0.4692  0.2093  2.1685
    1PA     C14 8748   1.002   1.821   2.350 -0.0603  0.2617  0.0385
    1PA     H4R 8749   1.107   1.833   2.377  0.7535 -2.1623 -1.6760
    1PA     H4S 8750   0.971   1.717   2.360 -0.7529  0.4711  0.0885
    1PA     C13 8751   0.982   1.854   2.201 -1.3836  0.0808  0.1617
    1PA     H3R 8752   1.037   1.779   2.143 -0.7256  1.2093 -0.7178
    1PA     H3S 8753   0.879   1.857   2.167 -1.4150  2.1650  0.3064
    1PA     C12 8754   1.050   1.985   2.158 -0.1898 -0.7474 -0.5370
    1PA     H2R 8755   1.003   2.074   2.201  0.9247 -0.4183  0.0646
    1PA     H2S 8756   1.153   1.988   2.194 -0.2829  0.2772 -0.3092
    2PC     C11 8757   1.049   2.000   2.008  0.2320  0.2219 -0.4541
    2PC     O12 8758   0.984   1.933   1.930 -0.2504 -0.2120  0.3016
    2PC     O11 8759   1.123   2.105   1.971 -0.2645  0.6983 -0.1131
    2PC      C1 8760   1.155   2.140   1.835  0.6928  0.1891 -0.0295
    2PC      HR 8761   1.209   2.236   1.836 -0.7546  1.0338  0.6420
    2PC      HS 8762   1.221   2.063   1.795 -0.0095 -0.8011  0.6746
    2PC      C2 8763   1.030   2.155   1.747  0.4794 -0.0564  0.2299
    2PC      HX 8764   0.964   2.069   1.740  0.8009 -0.2702 -0.2030
    2PC      C3 8765   1.070   2.180   1.601 -0.6093  0.0244 -0.0670
    2PC      HA 8766   1.129   2.097   1.561 -1.1473 -0.0846 -0.6474
    2PC      HB 8767   0.985   2.182   1.533  0.2810 -0.4391 -1.2237
    2PC     O31 8768   1.163   2.289   1.585 -0.2387 -0.2161  0.4149
    2PC     P31 8769   1.097   2.432   1.561 -0.1056 -0.2575 -0.2175
    2PC     O32 8770   1.144   2.482   1.706  0.0415 -0.0376 -0.3411
    2PC     C31 8771   1.223   2.603   1.713 -0.2558  0.1352  0.0523
    2PC     H1A 8772   1.263   2.626   1.811 -1.2668 -2.6055  1.2280
    2PC     H1B 8773   1.311   2.586   1.650 -0.7575 -1.3881 -0.2921
    2PC     C32 8774   1.140   2.723   1.665  0.2103  0.5289  0.2280
    2PC     H2A 8775   1.108   2.698   1.564  0.0665 -2.4363  0.8936
    2PC     H2B 8776   1.055   2.723   1.734  0.2768 -2.4924  0.4757
    2PC     N31 8777   1.214   2.853   1.670  0.6180  0.3072 -0.0137
    2PC     C33 8778   1.355   2.844   1.619  0.6477  0.1692  0.0909
    2PC     H3A 8779   1.410   2.777   1.685 -0.0151  0.0367  0.5221
    2PC     H3B 8780   1.325   2.806   1.521 -2.0991  1.8887  0.1678
    2PC     H3C 8781   1.411   2.936   1.601 -0.3728  0.1446 -4.3680
    2PC     C34 8782   1.133   2.939   1.578  0.1213 -0.9579 -0.7839
    2PC     H4A 8783   1.149   2.901   1.477 -1.4057 -0.9092 -1.0725
    2PC     H4B 8784   1.024   2.928   1.578  0.1569 -1.6987  1.1619
    2PC     H4C 8785   1.167   3.042   1.592 -1.4330 -0.4105 -0.8594
    2PC     C35 8786   1.223   2.919   1.804  0.6083 -0.1493  0.2127
    2PC     H5A 8787   1.260   2.857   1.886  1.3803  2.5580  2.0543
    2PC     H5B 8788   1.121   2.954   1.821  0.7661 -0.2526  1.4902
    2PC     H5C 8789   1.281   3.010   1.788 -0.7805  0.6569 -0.3888
    2PC     O33 8790   1.155   2.500   1.442 -0.1818  0.2532  0.0335
    2PC     O34 8791   0.954   2.442   1.524 -0.0524 -0.0509 -0.3725
    2PC     O21 8792   0.951   2.264   1.798 -0.1574 -0.3455 -0.1284
    2PC     C21 8793   0.822   2.279   1.764 -0.1965  0.0902  0.2018
    2PC     O22 8794   0.763   2.217   1.678 -0.3863  0.4624  0.0620
    3OL     C12 8795   0.746   2.388   1.835  0.1262  0.5835 -0.2051
    3OL     H2R 8796   0.668   2.334   1.889  2.5537 -1.1161  1.8183
    3OL     H2S 8797   0.684   2.449   1.769 -1.5083  0.8507  1.4795
    3OL     C13 8798   0.809   2.493   1.928  0.2998 -0.2727  0.6694
    3OL     H3R 8799   0.865   2.569   1.872 -2.8570  2.5652  0.9968
    3OL     H3S 8800   0.865   2.446   2.008  1.3734  3.2199  2.1744
    3OL     C14 8801   0.696   2.567   2.002 -0.0708 -0.0569 -0.0912
    3OL     H4R 8802   0.625   2.508   2.061  0.4851 -0.1894  0.4639
    3OL     H4S 8803   0.644   2.633   1.933 -1.0634 -0.2278  0.4776
    3OL     C15 8804   0.758   2.663   2.104  0.2550 -0.9373  0.5522
    3OL     H5R 8805   0.828   2.725   2.048 -1.9221  0.0001 -1.2653
    3OL     H5S 8806   0.816   2.611   2.181 -0.0131  2.0103  2.9347
    3OL     C16 8807   0.642   2.736   2.174  0.2598 -0.5364  0.1415
    3OL     H6R 8808   0.568   2.669   2.218 -2.2893  1.8850 -0.2037
    3OL     H6S 8809   0.595   2.799   2.098 -2.4187 -2.0299  0.4495
    3OL     C17 8810   0.690   2.845   2.270  0.3059 -0.2917 -0.1550
    3OL     H7R 8811   0.733   2.930   2.217 -1.4379  0.5493 -0.2904
    3OL     H7S 8812   0.779   2.818   2.326  0.9664  0.7519 -0.6725
    3OL     C18 8813   0.581   2.886   2.370 -0.1542 -0.8628 -0.4143
    3OL     H8R 8814   0.503   2.946   2.322  0.4583  0.0150 -0.3395
    3OL     H8S 8815   0.632   2.965   2.427 -0.6762  0.4273 -1.6687
    3OL     C19 8816   0.531   2.778   2.463  0.4304 -0.3976  0.4573
    3OL     H9R 8817   0.464   2.704   2.420 -1.0668  0.4339  1.2894
    3OL    C110 8818   0.547   2.774   2.594 -0.1160 -0.1861  0.5296
    3OL    H10R 8819   0.501   2.706   2.665 -1.2757  1.6977  1.6895
    3OL    C111 8820   0.639   2.865   2.672  0.3408 -0.0486 -0.1619
    3OL    H11R 8821   0.616   2.970   2.655 -0.9014 -0.2727  0.0376
    3OL    H11S 8822   0.744   2.845   2.653  0.1995 -0.1163 -0.8907
    3OL    C112 8823   0.618   2.854   2.824 -0.2135  0.4365 -0.2008
    3OL    H12R 8824   0.647   2.753   2.855  3.2074  1.5320  0.5424
    3OL    H12S 8825   0.513   2.850   2.856  0.2556 -1.2349  1.3287
    3OL    C113 8826   0.689   2.969   2.897 -0.7550  0.7658 -0.1854
    3OL    H13R 8827   0.655   3.068   2.867  1.0412  1.2440 -0.7936
    3OL    H13S 8828   0.793   2.966   2.863 -0.3705  2.3190  0.8021
    3OL    C114 8829   0.693   2.951   3.049 -0.1988  0.6636 -0.2086
    3OL    H14R 8830   0.597   2.924   3.094 -0.8564  2.1199 -0.6740
    3OL    H14S 8831   0.715   3.045   3.100  0.7118 -0.3358  1.3198
    3OL    C115 8832   0.805   2.858   3.096 -0.3888  0.6157  0.1562
    3OL    H15R 8833   0.905   2.902   3.096 -0.3382  0.6066  2.3553
    3OL    H15S 8834   0.801   2.773   3.026  0.1666 -1.1709  2.1812
    3OL    C116 8835   0.780   2.810   3.240 -0.1129  0.5271  0.1763
    3OL    H16R 8836   0.672   2.793   3.239  0.2448 -2.1994 -0.7624
    3OL    H16S 8837   0.803   2.881   3.320 -0.9501  0.2871  0.6371
    3OL    C117 8838   0.832   2.667   3.261 -0.1669  0.4487 -0.2155
    3OL    H17R 8839   0.825   2.605   3.171 -1.7267  1.7109 -1.0176
    3OL    H17S 8840   0.777   2.621   3.343  1.5472  2.1333  2.0199
    3OL    C118 8841   0.981   2.671   3.298 -0.1737  0.4086 -0.1843
    3OL    H18R 8842   1.010   2.569   3.323  0.5563  0.5442 -0.4654
    3OL    H18S 8843   1.003   2.744   3.377  0.7242 -2.0276  1.9569
    3OL    H18T 8844   1.037   2.701   3.209  0.5869  0.1240  0.1916
    1PA    C116 8845   0.569   4.454   3.500  0.5973  0.0821  0.1276
    1PA    H16R 8846   0.526   4.554   3.510  0.8777  0.1924  0.2498
    1PA    H16S 8847   0.659   4.453   3.562 -0.6182 -0.1639  1.9472
    1PA    H16T 8848   0.501   4.380   3.542  0.3236 -0.4257 -1.1382
    1PA    C115 8849   0.616   4.413   3.359  0.3122 -0.5421  0.2084
    1PA    H15R 8850   0.691   4.490   3.338  0.2623  0.0949  2.1278
    1PA    H15S 8851   0.665   4.316   3.362  1.2335 -0.0733  1.3010
    1PA    C114 8852   0.495   4.429   3.267  0.4941 -0.0932  0.0411
    1PA    H14R 8853   0.409   4.372   3.303 -2.8624  1.7084 -4.2287
    1PA    H14S 8854   0.462   4.533   3.267 -1.5682 -0.6585  2.5073
    1PA    C113 8855   0.537   4.402   3.121 -0.4063 -0.1866 -0.2120
    1PA    H13R 8856   0.615   4.326   3.121 -0.1098  0.1001  0.4481
    1PA    H13S 8857   0.451   4.374   3.061 -0.2495 -1.9987  0.3476
    1PA    C112 8858   0.591   4.533   3.062 -0.3188 -0.2112 -0.1864
    1PA    H12R 8859   0.513   4.607   3.080 -0.0961 -0.3887  1.7048
    1PA    H12S 8860   0.676   4.584   3.108 -1.3346  1.9428 -0.5604
    1PA    C111 8861   0.622   4.525   2.912 -0.5782 -0.6414 -0.2179
    1PA    H11R 8862   0.530   4.495   2.861  0.0386  0.1445 -1.8978
    1PA    H11S 8863   0.646   4.626   2.877  1.2917 -1.1189 -0.4168
    1PA    C110 8864   0.733   4.427   2.873 -0.1187 -0.1797 -0.0728
    1PA    H10R 8865   0.817   4.469   2.929  0.8755 -1.3306 -0.6668
    1PA    H10S 8866   0.699   4.333   2.916 -0.7503 -0.0722 -0.3344
    1PA     C19 8867   0.767   4.416   2.723 -0.1584  0.4515 -0.1333
    1PA     H9R 8868   0.770   4.507   2.664 -2.9892  0.0057 -1.1082
    1PA     H9S 8869   0.865   4.368   2.718  0.8635  2.4191  0.2058
    1PA     C18 8870   0.663   4.326   2.655 -0.0654 -0.2308  0.6085
    1PA     H8R 8871   0.656   4.228   2.703 -0.6040  1.1855  3.6495
    1PA     H8S 8872   0.563   4.370   2.649  0.4201  0.6917 -2.2279
    1PA     C17 8873   0.698   4.311   2.507 -0.0957  0.4076  0.5352
    1PA     H7R 8874   0.624   4.253   2.453  1.8424 -0.7496 -1.0366
    1PA     H7S 8875   0.709   4.410   2.461  3.8265 -0.3166 -0.4875
    1PA     C16 8876   0.822   4.221   2.492 -0.2931  0.2844 -0.4813
    1PA     H6R 8877   0.902   4.296   2.499 -1.3083  1.2755  1.1414
    1PA     H6S 8878   0.832   4.156   2.579  0.8570 -1.7945 -2.0976
    1PA     C15 8879   0.820   4.132   2.368 -0.1538 -0.1789 -0.1531
    1PA     H5R 8880   0.891   4.051   2.385 -1.1607 -0.9520  0.5527
    1PA     H5S 8881   0.723   4.082   2.358 -0.5534  0.3656  0.9114
    1PA     C14 8882   0.850   4.209   2.239  0.4342  0.1218  0.1628
    1PA     H4R 8883   0.775   4.289   2.241 -2.0106 -2.0083 -0.2730
    1PA     H4S 8884   0.951   4.249   2.249  0.1846  0.3153  2.2984
    1PA     C13 8885   0.822   4.115   2.122 -0.2260  0.6433 -0.1093
    1PA     H3R 8886   0.727   4.062   2.127  1.4436 -2.6948 -0.6651
    1PA     H3S 8887   0.808   4.179   2.035 -0.9376  1.4549  0.5917
    1PA     C12 8888   0.935   4.012   2.108 -0.2959  0.5362  0.1216
    1PA     H2R 8889   1.032   4.047   2.072 -0.0636  1.1070  1.2641
    1PA     H2S 8890   0.950   3.945   2.193  0.4515 -0.2039 -0.5714
    2PC     C11 8891   0.881   3.915   2.006  0.0729  0.3326  0.1179
    2PC     O12 8892   0.808   3.825   2.041  0.2854  0.1138  0.0055
    2PC     O11 8893   0.914   3.956   1.883 -0.5551  0.4248 -0.0204
    2PC      C1 8894   0.861   3.883   1.770  0.1616 -0.3438  0.1353
    2PC      HR 8895   0.764   3.835   1.782  0.1915 -1.3040 -2.8918
    2PC      HS 8896   0.854   3.965   1.698  0.2765 -0.8144 -0.4170
    2PC      C2 8897   0.971   3.789   1.720  0.6325  0.3337 -0.1290
    2PC      HX 8898   1.053   3.844   1.673  2.0148  0.5992  2.4216
    2PC      C3 8899   0.924   3.686   1.616 -0.1136  0.0282  0.4943
    2PC      HA 8900   0.897   3.748   1.530 -0.8211 -3.1013 -1.7344
    2PC      HB 8901   1.009   3.621   1.592 -0.0312  1.0499 -2.4085
    2PC     O31 8902   0.805   3.621   1.664 -0.2928 -0.0627 -0.0563
    2PC     P31 8903   0.744   3.495   1.588 -0.1118 -0.0670 -0.1962
    2PC     O32 8904   0.585   3.514   1.586 -0.0622  0.3426 -0.1747
    2PC     C31 8905   0.543   3.642   1.535 -0.4434  0.3418  0.1373
    2PC     H1A 8906   0.587   3.722   1.596  3.2733 -1.1046 -0.3861
    2PC     H1B 8907   0.580   3.655   1.433 -2.8630 -0.2653 -0.8926
    2PC     C32 8908   0.392   3.669   1.534 -0.5516 -0.2721 -0.0836
    2PC     H2A 8909   0.341   3.598   1.468 -2.1951  0.5223  0.2646
    2PC     H2B 8910   0.351   3.652   1.634 -2.9250  0.1867 -0.9152
    2PC     N31 8911   0.346   3.802   1.482 -0.2164 -0.0136  0.2786
    2PC     C33 8912   0.400   3.824   1.344  0.1527 -0.3966  0.3575
    2PC     H3A 8913   0.389   3.729   1.292  0.6847 -1.4269  2.0432
    2PC     H3B 8914   0.342   3.900   1.292  0.8482  0.1599  0.3860
    2PC     H3C 8915   0.502   3.859   1.358 -0.0315 -0.5330  2.3228
    2PC     C34 8916   0.197   3.806   1.468 -0.1151  0.2613 -0.7885
    2PC     H4A 8917   0.167   3.725   1.401 -0.2583 -0.8659  0.5798
    2PC     H4B 8918   0.149   3.791   1.565 -0.0007  1.0918 -0.5960
    2PC     H4C 8919   0.166   3.904   1.431 -2.0310  0.2698  0.6818
    2PC     C35 8920   0.397   3.917   1.563  0.4010  0.0922 -0.2518
    2PC     H5A 8921   0.353   4.012   1.531  0.6032  0.6066  0.9336
    2PC     H5B 8922   0.506   3.921   1.560  0.4696 -1.4456 -2.9546
    2PC     H5C 8923   0.360   3.899   1.664 -2.0185 -2.4685 -1.4582
    2PC     O33 8924   0.778   3.483   1.444 -0.5985  0.0175 -0.3210
    2PC     O34 8925   0.803   3.376   1.653  0.6981  0.1705 -0.4872
    2PC     O21 8926   1.029   3.718   1.831 -0.1698 -0.2289 -0.0591
    2PC     C21 8927   1.129   3.628   1.825  0.0982  0.0959 -0.5008
    2PC     O22 8928   1.203   3.611   1.730  0.6200 -0.6247  0.0243
    3OL     C12 8929   1.139   3.534   1.942  0.3162  0.3102 -0.3433
    3OL     H2R 8930   1.242   3.499   1.955 -0.1175 -0.3844  1.6546
    3OL     H2S 8931   1.072   3.449   1.921  2.5901 -1.4386 -0.9779
    3OL     C13 8932   1.110   3.615   2.069 -0.3828 -0.3353 -0.0764
    3OL     H3R 8933   1.016   3.669   2.058  0.2807  0.7122 -0.7904
    3OL     H3S 8934   1.184   3.694   2.085 -0.1084 -0.7041  0.5315
    3OL     C14 8935   1.115   3.532   2.198 -0.6302  0.1450  0.2434
    3OL     H4R 8936   1.218   3.500   2.215 -0.6714 -0.1147 -0.0056
    3OL     H4S 8937   1.044   3.449   2.189  0.0381 -0.4767  0.6445
    3OL     C15 8938   1.078   3.617   2.321 -0.0246  0.6062  0.1131
    3OL     H5R 8939   0.969   3.627   2.320 -0.4783 -2.4232  2.6959
    3OL     H5S 8940   1.135   3.710   2.317  1.2359 -0.0357  1.9108
    3OL     C16 8941   1.105   3.551   2.457 -0.2635  0.3614  0.0430
    3OL     H6R 8942   1.196   3.490   2.456 -0.2434  0.0867  4.0369
    3OL     H6S 8943   1.023   3.486   2.488 -0.0951  0.0397 -0.1692
    3OL     C17 8944   1.119   3.670   2.553  0.2390  0.4346 -0.1144
    3OL     H7R 8945   1.035   3.739   2.546  0.3564  0.7838  1.6572
    3OL     H7S 8946   1.203   3.732   2.523  0.3059  0.3182 -0.1693
    3OL     C18 8947   1.115   3.626   2.700 -0.4644 -0.0054 -0.2584
    3OL     H8R 8948   1.192   3.552   2.721 -0.1698  0.1370 -0.8238
    3OL     H8S 8949   1.018   3.581   2.722 -0.3666  0.1194  0.4435
    3OL     C19 8950   1.130   3.750   2.785 -0.2883  0.0790 -0.4105
    3OL     H9R 8951   1.083   3.842   2.749  0.0703  0.2115 -0.5391
    3OL    C110 8952   1.211   3.757   2.889 -0.1280  0.6428 -0.5714
    3OL    H10R 8953   1.209   3.849   2.947 -2.8429  1.1025 -1.2469
    3OL    C111 8954   1.284   3.642   2.954  0.3388  1.1903 -0.1106
    3OL    H11R 8955   1.381   3.635   2.904 -0.6853 -2.0948 -1.9679
    3OL    H11S 8956   1.239   3.545   2.934  1.0633  0.7601  0.3102
    3OL    C112 8957   1.287   3.656   3.107  0.0530  0.1890 -0.0055
    3OL    H12R 8958   1.191   3.627   3.150  1.2027 -3.5766  0.4001
    3OL    H12S 8959   1.294   3.762   3.130  0.5738 -0.0779  1.1470
    3OL    C113 8960   1.385   3.568   3.187 -0.5508 -0.3483  0.1507
    3OL    H13R 8961   1.378   3.593   3.293  1.0893  0.3116  0.1391
    3OL    H13S 8962   1.486   3.594   3.153 -0.4480 -0.8079  0.1006
    3OL    C114 8963   1.362   3.419   3.162 -0.2603 -0.2977 -0.4459
    3OL    H14R 8964   1.453   3.374   3.202 -0.9780 -2.2578 -0.8901
    3OL    H14S 8965   1.368   3.404   3.054  3.4279  0.4953 -0.4706
    3OL    C115 8966   1.235   3.376   3.237  0.0244 -0.6195 -0.1414
    3OL    H15R 8967   1.144   3.409   3.186  0.5541  1.2377  0.0610
    3OL    H15S 8968   1.232   3.410   3.340 -0.9347  0.5485 -0.5354
    3OL    C116 8969   1.234   3.223   3.247  0.0571 -0.6099 -0.0035
    3OL    H16R 8970   1.320   3.188   3.306  0.2895 -1.0259 -0.5832
    3OL    H16S 8971   1.256   3.177   3.151 -2.4713  1.0638 -1.4873
    3OL    C117 8972   1.114   3.164   3.324 -0.3793  0.1367 -0.1068
    3OL    H17R 8973   1.022   3.192   3.274 -0.6384 -2.1857 -1.0620
    3OL    H17S 8974   1.114   3.217   3.420  0.2859 -0.2253  0.1036
    3OL    C118 8975   1.120   3.014   3.355 -0.1537  0.2307  0.3128
    3OL    H18R 8976   1.216   2.979   3.393 -0.7177 -1.3686  0.3401
    3OL    H18S 8977   1.094   2.961   3.264 -1.8288  0.0856  0.8436
    3OL    H18T 8978   1.042   2.990   3.428 -0.4541 -0.0375 -0.0922
    1PA    C116 8979   0.497   3.987   3.356  0.0168  0.0890  0.6163
    1PA    H16R 8980   0.522   4.030   3.453 -1.0132 -0.2050  1.0301
    1PA    H16S 8981   0.575   4.025   3.291  1.3712 -0.0637  2.0851
    1PA    H16T 8982   0.506   3.880   3.376 -2.1957 -0.0297  1.3105
    1PA    C115 8983   0.354   4.020   3.310  0.2244 -0.2587 -0.2987
    1PA    H15R 8984   0.283   3.995   3.389 -0.7726  2.0884 -0.3546
    1PA    H15S 8985   0.346   4.128   3.292 -1.0584 -0.3417 -0.3017
    1PA    C114 8986   0.317   3.945   3.181  0.1221 -0.2709 -0.2623
    1PA    H14R 8987   0.358   3.844   3.181  0.4899 -0.1882 -2.8772
    1PA    H14S 8988   0.209   3.939   3.194 -0.1122  0.6442 -1.6344
    1PA    C113 8989   0.360   4.013   3.051 -0.1744  0.4554  0.0117
    1PA    H13R 8990   0.318   4.113   3.058 -1.3932 -0.1303  1.3050
    1PA    H13S 8991   0.468   4.015   3.035  0.0053 -0.8103  0.9058
    1PA    C112 8992   0.302   3.928   2.937  0.0374  0.0153  0.2301
    1PA    H12R 8993   0.335   3.972   2.843  1.8737 -0.2618  0.7183
    1PA    H12S 8994   0.348   3.829   2.945  1.5800  0.7507  0.7429
    1PA    C111 8995   0.150   3.908   2.944 -0.0132  0.3620  0.1381
    1PA    H11R 8996   0.108   3.863   2.854 -1.0452  0.4924  0.5339
    1PA    H11S 8997   0.132   3.834   3.023 -1.2130  0.5098  0.0257
    1PA    C110 8998   0.068   4.035   2.971 -0.3472  0.2276 -0.2256
    1PA    H10R 8999  -0.022   3.990   3.014  0.1919 -0.1818  0.5043
    1PA    H10S 9000   0.126   4.098   3.040  0.4601 -0.6664 -0.0680
    1PA     C19 9001   0.026   4.111   2.845 -0.6901  0.1744 -0.1462
    1PA     H9R 9002   0.017   4.219   2.861  0.2776  0.3084 -0.4062
    1PA     H9S 9003   0.112   4.098   2.779 -0.9611  1.2083 -0.7327
    1PA     C18 9004  -0.110   4.059   2.797 -0.6012 -0.1794 -0.0193
    1PA     H8R 9005  -0.102   3.952   2.782  2.2802 -0.3025  1.6572
    1PA     H8S 9006  -0.173   4.086   2.882  2.5081  1.5671  1.9576
    1PA     C17 9007  -0.151   4.132   2.668 -0.3071  0.2163  0.1063
    1PA     H7R 9008  -0.250   4.101   2.635 -0.7332  2.4018 -0.8298
    1PA     H7S 9009  -0.163   4.236   2.696 -4.3007 -0.0702 -0.0027
    1PA     C16 9010  -0.048   4.125   2.554 -0.3896 -0.1827  0.0515
    1PA     H6R 9011   0.031   4.196   2.583 -1.5950  1.2882 -0.1256
    1PA     H6S 9012  -0.003   4.026   2.541 -0.3326 -0.0593 -0.7494
    1PA     C15 9013  -0.106   4.171   2.420  0.1478 -0.2297 -0.2007
    1PA     H5R 9014  -0.185   4.103   2.385  0.1543 -0.1929 -0.2877
    1PA     H5S 9015  -0.157   4.267   2.434 -1.8378 -1.1731 -0.5779
    1PA     C14 9016   0.001   4.175   2.309  0.4914 -0.3430  0.1254
    1PA     H4R 9017   0.079   4.244   2.340 -0.1239  0.1008  0.7396
    1PA     H4S 9018   0.034   4.073   2.290 -2.8293 -1.3469 -0.9667
    1PA     C13 9019  -0.052   4.236   2.179 -0.0337 -0.4875  0.2678
    1PA     H3R 9020  -0.147   4.186   2.157  0.6668 -1.6322 -0.2459
    1PA     H3S 9021  -0.080   4.341   2.190  1.0553  0.2479 -2.7887
    1PA     C12 9022   0.057   4.235   2.071 -0.2013  0.4293  0.0855
    1PA     H2R 9023   0.149   4.277   2.113  0.2363  0.1614 -0.5887
    1PA     H2S 9024   0.086   4.133   2.046  2.0541  1.0072  0.1311
    2PC     C11 9025   0.021   4.319   1.951  0.1801  0.4342 -0.0275
    2PC     O12 9026  -0.070   4.287   1.876  0.2006  0.1607  0.0626
    2PC     O11 9027   0.099   4.425   1.927 -0.4094  0.9452  0.3056
    2PC      C1 9028   0.081   4.495   1.802  0.0940  0.5493  0.0105
    2PC      HR 9029   0.173   4.546   1.773  1.5067 -2.1940 -0.6699
    2PC      HS 9030   0.075   4.411   1.732  1.9411 -0.2633  0.7564
    2PC      C2 9031  -0.039   4.589   1.785 -0.2836  0.1180  0.2874
    2PC      HX 9032  -0.133   4.542   1.819 -0.4725  0.0130 -0.3768
    2PC      C3 9033  -0.054   4.614   1.635 -0.1169  0.6837  0.3648
    2PC      HA 9034   0.040   4.649   1.593  0.1678 -0.1982  0.2511
    2PC      HB 9035  -0.080   4.521   1.585  1.6291 -0.0752  0.8252
    2PC     O31 9036  -0.166   4.703   1.616 -0.7739 -0.1993  0.0318
    2PC     P31 9037  -0.209   4.725   1.463  0.1755  0.0369 -0.2065
    2PC     O32 9038  -0.129   4.861   1.429 -0.0305  0.2773  0.2657
    2PC     C31 9039  -0.002   4.854   1.363 -0.4454 -0.0548 -0.5128
    2PC     H1A 9040   0.076   4.811   1.425 -3.3056 -2.9081  1.4037
    2PC     H1B 9041  -0.006   4.776   1.287  3.0812  0.5398 -1.4881
    2PC     C32 9042   0.040   4.988   1.299 -0.2971  0.2407  0.1956
    2PC     H2A 9043   0.015   5.071   1.366 -2.7885 -1.1495  1.1341
    2PC     H2B 9044   0.148   4.984   1.287 -0.2812  2.0076 -0.5308
    2PC     N31 9045  -0.022   5.014   1.165  0.0792 -0.0123 -0.0284
    2PC     C33 9046   0.016   5.156   1.134 -0.9802  0.2929  0.0445
    2PC     H3A 9047  -0.009   5.182   1.032 -2.1391 -1.1706 -0.0875
    2PC     H3B 9048  -0.044   5.223   1.196 -1.8073 -0.2499 -0.1445
    2PC     H3C 9049   0.124   5.153   1.148 -1.1056 -0.9079  0.9149
    2PC     C34 9050   0.040   4.925   1.062  0.5336 -0.3400  0.5249
    2PC     H4A 9051   0.003   4.825   1.085 -0.3199 -0.2245 -0.3066
    2PC     H4B 9052   0.005   4.952   0.962 -1.5326 -0.9740  1.0257
    2PC     H4C 9053   0.149   4.921   1.070  0.5234  0.4754  1.1941
    2PC     C35 9054  -0.172   5.007   1.166  0.0701  0.1748  0.0647
    2PC     H5A 9055  -0.213   5.062   1.081  1.6808  2.8564  0.9076
    2PC     H5B 9056  -0.200   5.059   1.257  2.0843  0.1454  0.7428
    2PC     H5C 9057  -0.202   4.902   1.162  2.5033 -0.5663 -0.9036
    2PC     O33 9058  -0.180   4.610   1.375 -0.4181  0.0064 -0.3657
    2PC     O34 9059  -0.354   4.732   1.435  0.1327  0.3340  0.0758
    2PC     O21 9060  -0.020   4.712   1.857  0.3851  0.2636 -0.1369
    2PC     C21 9061  -0.117   4.760   1.936  0.1077 -0.0991 -0.2546
    2PC     O22 9062  -0.225   4.709   1.956 -0.0322  0.2671 -0.0624
    3OL     C12 9063  -0.073   4.878   2.019 -0.2219 -0.1905  0.0537
    3OL     H2R 9064  -0.154   4.948   2.041  0.9682  0.9656  0.9315
    3OL     H2S 9065  -0.005   4.946   1.967 -1.2098  1.8530  1.2667
    3OL     C13 9066  -0.009   4.838   2.152  0.7084  0.1551 -0.2770
    3OL     H3R 9067   0.073   4.773   2.121 -0.4038 -1.8625  0.7298
    3OL     H3S 9068  -0.079   4.780   2.214 -0.3853  2.2425  0.5412
    3OL     C14 9069   0.042   4.959   2.231  0.0097  0.3313 -0.0871
    3OL     H4R 9070  -0.031   5.024   2.279  1.2415 -0.8139  3.7550
    3OL     H4S 9071   0.094   5.026   2.163 -0.7833  0.3385 -0.6990
    3OL     C15 9072   0.138   4.920   2.345 -0.0954  0.8232  0.1703
    3OL     H5R 9073   0.183   5.007   2.393  0.1325  1.5583 -1.3221
    3OL     H5S 9074   0.211   4.858   2.293 -0.6488  0.8463 -0.6580
    3OL     C16 9075   0.069   4.840   2.456  0.1841  0.4376  0.0663
    3OL     H6R 9076   0.137   4.793   2.527  1.1284  2.0706  0.3013
    3OL     H6S 9077   0.018   4.757   2.407  0.2708  0.5732 -0.2516
    3OL     C17 9078  -0.034   4.922   2.536  0.3609  0.4833  0.2480
    3OL     H7R 9079  -0.118   4.959   2.477  1.0199  0.1933 -0.9183
    3OL     H7S 9080   0.002   5.009   2.591 -2.6096  2.6461 -0.9588
    3OL     C18 9081  -0.100   4.827   2.637 -0.0524  0.1877 -0.2957
    3OL     H8R 9082  -0.135   4.900   2.710  0.3759 -1.2572  1.4283
    3OL     H8S 9083  -0.030   4.759   2.686 -1.6034 -1.9137 -0.8371
    3OL     C19 9084  -0.220   4.752   2.586  0.2164 -0.5148  0.1016
    3OL     H9R 9085  -0.265   4.790   2.495 -0.3619 -0.5899  0.3500
    3OL    C110 9086  -0.267   4.638   2.635 -0.1161 -0.2383  0.4251
    3OL    H10R 9087  -0.354   4.592   2.588 -0.2909 -0.6842  1.1623
    3OL    C111 9088  -0.211   4.562   2.752 -0.2957 -0.1815  0.5489
    3OL    H11R 9089  -0.167   4.637   2.817 -0.3403  1.4132 -1.1903
    3OL    H11S 9090  -0.127   4.503   2.715  3.4637  4.0482  1.5072
    3OL    C112 9091  -0.314   4.466   2.815 -0.7969  0.0997  0.1566
    3OL    H12R 9092  -0.340   4.386   2.745 -2.1601 -0.7149  1.5226
    3OL    H12S 9093  -0.405   4.519   2.844 -2.0908 -1.2084 -1.2896
    3OL    C113 9094  -0.266   4.399   2.944 -0.3222  0.2178  0.0428
    3OL    H13R 9095  -0.222   4.473   3.010 -1.1752  0.7177  0.0538
    3OL    H13S 9096  -0.185   4.329   2.921  1.1246  2.3766 -1.8653
    3OL    C114 9097  -0.383   4.321   3.006 -0.1715  0.0803  0.1542
    3OL    H14R 9098  -0.418   4.251   2.930 -1.9660 -1.4113  2.2404
    3OL    H14S 9099  -0.470   4.381   3.032 -0.0541 -0.3618  1.6776
    3OL    C115 9100  -0.341   4.234   3.126 -0.3973  0.4643  0.5115
    3OL    H15R 9101  -0.299   4.303   3.199 -2.2540  1.4737  0.7041
    3OL    H15S 9102  -0.270   4.159   3.092 -1.3820 -0.0826 -0.3851
    3OL    C116 9103  -0.465   4.157   3.175 -0.2260 -0.2851 -0.2248
    3OL    H16R 9104  -0.508   4.112   3.085 -0.6636  1.3834 -0.8942
    3OL    H16S 9105  -0.530   4.240   3.200 -0.4064 -0.3968 -0.3225
    3OL    C117 9106  -0.430   4.068   3.295 -0.3573  0.1185  0.1112
    3OL    H17R 9107  -0.521   4.043   3.352 -1.3933  1.3661 -0.9265
    3OL    H17S 9108  -0.365   4.132   3.355  1.6407  0.6490 -2.4656
    3OL    C118 9109  -0.361   3.936   3.261 -0.4299  0.1467 -0.1462
    3OL    H18R 9110  -0.299   3.902   3.345  1.8076 -0.6425 -1.9949
    3OL    H18S 9111  -0.291   3.959   3.180 -0.7261  1.2340 -0.1111
    3OL    H18T 9112  -0.434   3.857   3.240 -0.0645  0.0762 -1.2204
    1PA    C116 9113   1.599   2.590   2.871  0.2167  0.2134  0.2568
    1PA    H16R 9114   1.568   2.645   2.961 -1.5753  2.0898 -1.4162
    1PA    H16S 9115   1.599   2.656   2.785 -0.8145 -0.6589 -0.4349
    1PA    H16T 9116   1.703   2.559   2.882 -0.1313 -0.9087  0.5434
    1PA    C115 9117   1.490   2.484   2.854  0.2003  0.2686  0.0235
    1PA    H15R 9118   1.493   2.451   2.750 -0.8931  1.0362 -0.2757
    1PA    H15S 9119   1.502   2.403   2.926  0.4121  0.9938  0.8198
    1PA    C114 9120   1.351   2.543   2.882  0.1471 -0.0432  0.4272
    1PA    H14R 9121   1.346   2.581   2.984 -1.0044  2.5414 -0.5157
    1PA    H14S 9122   1.333   2.628   2.817 -1.4077 -0.1932  0.6144
    1PA    C113 9123   1.235   2.442   2.878  0.3273 -0.2266 -0.4187
    1PA    H13R 9124   1.241   2.377   2.791  0.4895 -0.4752 -0.2223
    1PA    H13S 9125   1.240   2.377   2.965 -2.0054 -2.3996 -1.7902
    1PA    C112 9126   1.105   2.522   2.894  0.6392  0.2358 -0.1542
    1PA    H12R 9127   1.100   2.576   2.989 -2.0676  2.2472 -1.3285
    1PA    H12S 9128   1.105   2.607   2.826  2.4841 -0.0805 -0.5911
    1PA    C111 9129   0.974   2.442   2.883  0.3818  0.5774  0.3606
    1PA    H11R 9130   0.992   2.339   2.915 -1.4169 -0.5172 -1.8241
    1PA    H11S 9131   0.901   2.484   2.952 -1.8178 -0.5620 -1.1488
    1PA    C110 9132   0.918   2.432   2.741  0.8547 -0.2674  0.2269
    1PA    H10R 9133   0.987   2.415   2.658 -0.1011  0.4635 -0.7612
    1PA    H10S 9134   0.853   2.345   2.750  2.0407 -0.9552  3.4931
    1PA     C19 9135   0.823   2.546   2.703  0.8518 -0.3842 -0.1254
    1PA     H9R 9136   0.734   2.537   2.766  0.9054  0.1121  0.0324
    1PA     H9S 9137   0.858   2.647   2.728 -2.3586  0.7329  0.3762
    1PA     C18 9138   0.792   2.537   2.553 -0.6154 -0.5423  0.1679
    1PA     H8R 9139   0.733   2.623   2.522 -0.4784 -0.2429  0.7288
    1PA     H8S 9140   0.886   2.536   2.496  0.2350  1.3937  1.4433
    1PA     C17 9141   0.717   2.408   2.517 -0.0031 -0.8154 -0.1438
    1PA     H7R 9142   0.758   2.323   2.573 -2.3649 -2.2497 -0.4777
    1PA     H7S 9143   0.619   2.410   2.564 -0.2544  1.1326 -0.6773
    1PA     C16 9144   0.722   2.380   2.366  0.9706 -0.5091 -0.1801
    1PA     H6R 9145   0.631   2.424   2.325  0.9513 -1.1212 -0.8251
    1PA     H6S 9146   0.809   2.429   2.323  1.0971  0.6248  1.3109
    1PA     C15 9147   0.719   2.228   2.343 -0.4247 -0.5140 -0.0915
    1PA     H5R 9148   0.798   2.207   2.271  0.6031  0.4779  0.6946
    1PA     H5S 9149   0.743   2.177   2.437  1.0702 -0.6978 -0.5459
    1PA     C14 9150   0.588   2.163   2.298 -0.2426 -0.6687 -0.4035
    1PA     H4R 9151   0.591   2.054   2.299  2.5609 -0.6674 -0.5017
    1PA     H4S 9152   0.499   2.203   2.347 -1.5159 -3.2708 -0.4516
    1PA     C13 9153   0.571   2.199   2.149  0.1090  0.8894 -0.0852
    1PA     H3R 9154   0.570   2.305   2.124  1.2294  0.5154 -1.9238
    1PA     H3S 9155   0.653   2.166   2.085 -1.6146  0.9419 -2.4505
    1PA     C12 9156   0.447   2.119   2.110  0.4386  0.4087 -0.1571
    1PA     H2R 9157   0.470   2.012   2.115 -0.5019  0.2502  1.2669
    1PA     H2S 9158   0.364   2.144   2.177 -0.1546  0.5315 -0.9212
    2PC     C11 9159   0.397   2.139   1.969 -0.6004 -0.0834  0.1263
    2PC     O12 9160   0.472   2.147   1.874 -0.6314 -0.1227  0.0987
    2PC     O11 9161   0.264   2.153   1.960 -0.5714 -0.0270 -0.2259
    2PC      C1 9162   0.201   2.166   1.831 -0.3566  0.1410 -0.3141
    2PC      HR 9163   0.227   2.265   1.792  0.8664  0.5095  1.3257
    2PC      HS 9164   0.241   2.091   1.763 -1.0619  0.4004 -1.0418
    2PC      C2 9165   0.049   2.154   1.850 -0.2282 -0.3422  0.4726
    2PC      HX 9166   0.029   2.078   1.925  1.4518 -0.7473  0.5483
    2PC      C3 9167  -0.013   2.121   1.713 -0.5648  1.0814  0.2688
    2PC      HA 9168   0.025   2.021   1.693 -0.6817  0.9197  0.8479
    2PC      HB 9169  -0.122   2.126   1.703 -0.7133 -0.4047  0.9499
    2PC     O31 9170   0.055   2.207   1.619  0.0210 -0.1056 -0.4180
    2PC     P31 9171   0.033   2.177   1.463 -0.1549 -0.2070 -0.3746
    2PC     O32 9172   0.138   2.284   1.406  0.1981 -0.2386  0.2051
    2PC     C31 9173   0.091   2.418   1.383 -0.0571 -0.3789 -0.0992
    2PC     H1A 9174   0.016   2.425   1.304  0.6047 -1.2856 -0.8176
    2PC     H1B 9175   0.066   2.464   1.479 -1.8919  1.3668 -1.3346
    2PC     C32 9176   0.195   2.518   1.332  0.2489 -0.3127  0.6450
    2PC     H2A 9177   0.162   2.617   1.300 -0.4443 -0.6289  0.3806
    2PC     H2B 9178   0.279   2.532   1.401  1.0322  0.3366 -0.4032
    2PC     N31 9179   0.260   2.473   1.205 -0.0375 -0.4393  0.5433
    2PC     C33 9180   0.383   2.391   1.232  0.4307 -0.1072 -0.5395
    2PC     H3A 9181   0.458   2.464   1.264 -0.3054 -0.0625  1.1817
    2PC     H3B 9182   0.363   2.326   1.316 -0.3239 -0.6981 -1.1609
    2PC     H3C 9183   0.406   2.335   1.141 -0.2963  0.4197 -1.0595
    2PC     C34 9184   0.181   2.392   1.107 -0.7540  0.5177  0.3148
    2PC     H4A 9185   0.159   2.293   1.145 -0.3812  0.1591 -0.3761
    2PC     H4B 9186   0.096   2.448   1.067 -2.0953 -1.5968  0.0684
    2PC     H4C 9187   0.252   2.373   1.026 -0.8237  0.3073  0.3025
    2PC     C35 9188   0.324   2.591   1.137  0.2514 -0.6294  0.4836
    2PC     H5A 9189   0.247   2.658   1.099  1.3856  0.4701  0.0509
    2PC     H5B 9190   0.384   2.552   1.055  1.5178  0.3208  0.9202
    2PC     H5C 9191   0.383   2.654   1.204  0.5272 -0.8600  0.4617
    2PC     O33 9192   0.073   2.040   1.423  0.6487 -0.0865 -0.0140
    2PC     O34 9193  -0.106   2.210   1.427 -0.1308  0.6216  0.2612
    2PC     O21 9194   0.001   2.282   1.895  0.0434 -0.1284  0.1593
    2PC     C21 9195  -0.127   2.294   1.933 -0.1433  0.4357 -0.6299
    2PC     O22 9196  -0.206   2.202   1.936  0.1165  0.2309  0.1443
    3OL     C12 9197  -0.152   2.424   2.005 -0.2529  0.3336 -0.4841
    3OL     H2R 9198  -0.176   2.502   1.932 -2.6259 -0.4099 -0.5799
    3OL     H2S 9199  -0.055   2.454   2.046  0.0387 -0.2226 -0.7534
    3OL     C13 9200  -0.249   2.410   2.123  0.2551 -0.7799 -0.1796
    3OL     H3R 9201  -0.354   2.403   2.096  0.2109 -1.1350  0.0799
    3OL     H3S 9202  -0.235   2.315   2.175 -0.6216 -0.7409  0.1437
    3OL     C14 9203  -0.230   2.532   2.215 -0.2125 -0.1823 -0.8659
    3OL     H4R 9204  -0.247   2.626   2.161 -0.5617 -0.3488 -1.0465
    3OL     H4S 9205  -0.122   2.535   2.232 -0.6340  2.9010  2.4764
    3OL     C15 9206  -0.312   2.509   2.343 -0.2243 -0.1946 -0.8760
    3OL     H5R 9207  -0.258   2.564   2.420 -1.7361  0.5268 -0.2990
    3OL     H5S 9208  -0.304   2.405   2.374  0.9913  0.5387  1.4788
    3OL     C16 9209  -0.454   2.567   2.350  0.0397  0.3516  0.1890
    3OL     H6R 9210  -0.506   2.537   2.258  0.3223 -4.0861  1.2318
    3OL     H6S 9211  -0.464   2.675   2.349 -1.7589  0.2259 -0.8995
    3OL     C17 9212  -0.521   2.520   2.480  0.2433 -0.1098  0.1304
    3OL     H7R 9213  -0.505   2.414   2.499  0.2655  0.1683  1.8889
    3OL     H7S 9214  -0.628   2.536   2.468  0.1538 -0.2930  0.6422
    3OL     C18 9215  -0.461   2.591   2.602  0.0774  0.2325  0.0125
    3OL     H8R 9216  -0.459   2.698   2.581  1.4032 -0.0104 -1.1725
    3OL     H8S 9217  -0.355   2.569   2.614  0.5238  1.6307 -1.0844
    3OL     C19 9218  -0.528   2.553   2.732 -0.0872 -0.0879 -0.1659
    3OL     H9R 9219  -0.511   2.448   2.753  3.1965  0.7687  2.3083
    3OL    C110 9220  -0.605   2.622   2.815  0.4842  0.4098 -0.0358
    3OL    H10R 9221  -0.636   2.574   2.908  2.9735  1.2873  1.3309
    3OL    C111 9222  -0.619   2.771   2.824  0.1547  0.3623  0.2615
    3OL    H11R 9223  -0.707   2.800   2.766  1.2896 -0.5899 -2.0407
    3OL    H11S 9224  -0.534   2.813   2.770 -1.2985  1.0432 -1.5834
    3OL    C112 9225  -0.614   2.836   2.963  0.8244 -0.1247  0.4674
    3OL    H12R 9226  -0.620   2.944   2.949 -0.4246 -0.3115 -0.5434
    3OL    H12S 9227  -0.520   2.800   3.007  1.0162  0.8560  0.9082
    3OL    C113 9228  -0.736   2.803   3.050  0.1976  0.6219 -0.1136
    3OL    H13R 9229  -0.721   2.846   3.150 -0.5111 -0.7244  0.6041
    3OL    H13S 9230  -0.740   2.696   3.071  2.4914  0.5492  0.3270
    3OL    C114 9231  -0.867   2.863   2.999 -0.2599  0.2740  0.6365
    3OL    H14R 9232  -0.949   2.815   3.053 -0.1877  2.8799  3.2546
    3OL    H14S 9233  -0.867   2.844   2.891  0.2012  0.3543  0.6241
    3OL    C115 9234  -0.877   3.012   3.034 -0.3264  0.3538  0.2847
    3OL    H15R 9235  -0.800   3.074   2.989  0.5252 -1.1702 -0.4467
    3OL    H15S 9236  -0.880   3.030   3.142 -0.9476  0.0958  0.3157
    3OL    C116 9237  -1.009   3.053   2.967 -0.3778 -0.5651 -0.1998
    3OL    H16R 9238  -1.082   2.992   3.020 -1.1784  1.4150  1.1150
    3OL    H16S 9239  -0.999   3.026   2.862  1.3537 -1.7504  0.2238
    3OL    C117 9240  -1.046   3.202   2.978  0.7484 -0.2658 -0.3636
    3OL    H17R 9241  -1.150   3.211   2.947  1.3514  2.2836 -1.9333
    3OL    H17S 9242  -0.990   3.265   2.910  0.9451  1.0117  0.9298
    3OL    C118 9243  -1.028   3.250   3.123  0.0117 -0.7253 -0.1170
    3OL    H18R 9244  -1.068   3.351   3.134  0.9736 -0.3479  0.0179
    3OL    H18S 9245  -0.921   3.258   3.140 -0.1028 -1.0774  0.8563
    3OL    H18T 9246  -1.073   3.174   3.188 -3.0686 -1.2034 -2.5873
    1PA    C116 9247   0.152   1.151   3.937  0.0306 -0.0829  0.0641
    1PA    H16R 9248   0.044   1.151   3.920  0.1340 -2.0330 -0.9798
    1PA    H16S 9249   0.168   1.237   4.001 -0.8287  1.8216 -2.1361
    1PA    H16T 9250   0.175   1.055   3.984 -3.4238 -1.4950 -0.8208
    1PA    C115 9251   0.213   1.159   3.796  0.0833 -0.2595  0.0768
    1PA    H15R 9252   0.320   1.159   3.815 -0.2368  0.9392  2.2166
    1PA    H15S 9253   0.199   1.070   3.733  2.9419 -0.5511 -0.2742
    1PA    C114 9254   0.172   1.272   3.701 -0.4913 -0.6665 -0.1669
    1PA    H14R 9255   0.076   1.251   3.653 -0.8216 -0.1196  0.2464
    1PA    H14S 9256   0.159   1.360   3.764  1.7463 -0.3663 -0.0500
    1PA    C113 9257   0.269   1.295   3.584 -0.4672 -0.3362 -0.0824
    1PA    H13R 9258   0.231   1.376   3.521 -2.2410 -0.6243  0.5601
    1PA    H13S 9259   0.365   1.329   3.623 -0.2540 -0.1116 -0.7791
    1PA    C112 9260   0.286   1.163   3.508  0.5003 -0.2679  0.0022
    1PA    H12R 9261   0.344   1.102   3.578  1.0298  1.3034  0.9732
    1PA    H12S 9262   0.191   1.110   3.492  0.8893 -0.9027 -0.2434
    1PA    C111 9263   0.362   1.182   3.376  0.4418 -0.5839 -0.0783
    1PA    H11R 9264   0.312   1.266   3.327 -0.8932  0.1610  2.3531
    1PA    H11S 9265   0.467   1.211   3.387  0.0426  0.8671  0.0822
    1PA    C110 9266   0.354   1.062   3.281 -0.3836 -0.1638 -0.5409
    1PA    H10R 9267   0.408   0.990   3.342 -0.7940  0.9563  1.2160
    1PA    H10S 9268   0.253   1.023   3.265 -0.5936 -0.3794  1.1275
    1PA     C19 9269   0.418   1.089   3.143  0.0583  0.8341 -0.1533
    1PA     H9R 9270   0.519   1.130   3.149 -0.2185  1.6296 -0.9091
    1PA     H9S 9271   0.408   0.997   3.085 -1.7865  1.2680 -0.5884
    1PA     C18 9272   0.325   1.186   3.069 -0.5963  0.4187  0.1054
    1PA     H8R 9273   0.219   1.164   3.077 -0.5073 -0.1920 -0.3405
    1PA     H8S 9274   0.329   1.287   3.111  1.1457  0.1673  0.6358
    1PA     C17 9275   0.365   1.187   2.921 -0.3923  0.1179  0.1576
    1PA     H7R 9276   0.464   1.232   2.908 -0.0364 -0.5413  0.5277
    1PA     H7S 9277   0.379   1.086   2.880  0.0943  0.1157  0.3150
    1PA     C16 9278   0.257   1.254   2.835 -0.2131 -0.0239 -0.1839
    1PA     H6R 9279   0.162   1.204   2.857 -1.9983  3.1235 -0.1497
    1PA     H6S 9280   0.238   1.356   2.868 -2.9802 -0.3302 -0.5407
    1PA     C15 9281   0.285   1.250   2.685 -0.1570 -0.3913 -0.1666
    1PA     H5R 9282   0.375   1.307   2.660 -0.3872 -0.4171 -1.1167
    1PA     H5S 9283   0.296   1.149   2.647 -0.2765 -0.1978 -0.7296
    1PA     C14 9284   0.168   1.319   2.612  0.0974 -0.1495 -0.3489
    1PA     H4R 9285   0.083   1.253   2.626 -0.2208  0.4169  0.4395
    1PA     H4S 9286   0.143   1.421   2.643 -2.5544 -0.9580  0.4653
    1PA     C13 9287   0.190   1.311   2.460 -0.1114 -0.4742 -0.3642
    1PA     H3R 9288   0.296   1.327   2.438  0.1287 -1.3027  0.1446
    1PA     H3S 9289   0.170   1.211   2.423  1.2657 -0.6040 -0.8320
    1PA     C12 9290   0.098   1.414   2.393  0.8417  0.4274 -0.3186
    1PA     H2R 9291   0.001   1.407   2.441  0.6579  0.9145 -0.6132
    1PA     H2S 9292   0.135   1.515   2.410 -1.3563  1.0908  0.8525
    2PC     C11 9293   0.085   1.398   2.243  0.2332  0.1365 -0.2343
    2PC     O12 9294   0.150   1.317   2.182  0.3893  0.0534  0.0390
    2PC     O11 9295   0.001   1.486   2.184 -0.7060 -0.1983  0.5683
    2PC      C1 9296  -0.024   1.490   2.043  0.1568 -0.0655  0.4160
    2PC      HR 9297  -0.088   1.572   2.011 -1.8616 -1.7427 -0.0142
    2PC      HS 9298   0.070   1.485   1.987 -0.3438 -1.8279 -0.3391
    2PC      C2 9299  -0.093   1.360   2.000 -0.0053  0.3273 -0.5487
    2PC      HX 9300  -0.046   1.273   2.047  0.4553  1.8140  1.9637
    2PC      C3 9301  -0.089   1.348   1.847 -0.3547 -0.3024 -0.5096
    2PC      HA 9302  -0.155   1.417   1.795 -2.8163 -1.6157  0.6754
    2PC      HB 9303   0.016   1.360   1.820  0.1811 -1.7499  0.7571
    2PC     O31 9304  -0.112   1.210   1.812 -0.6409 -0.4171  0.1159
    2PC     P31 9305  -0.134   1.175   1.657 -0.2658 -0.3480  0.0468
    2PC     O32 9306  -0.257   1.264   1.607 -0.3577 -0.3896  0.1966
    2PC     C31 9307  -0.388   1.216   1.645 -0.4854  0.1999  0.5011
    2PC     H1A 9308  -0.408   1.116   1.608  1.7621 -0.7402  1.6392
    2PC     H1B 9309  -0.402   1.218   1.753 -1.4841 -1.9149  0.4525
    2PC     C32 9310  -0.494   1.307   1.581 -0.4572 -0.0345  0.1172
    2PC     H2A 9311  -0.592   1.263   1.598 -0.6143  0.1826 -0.2273
    2PC     H2B 9312  -0.494   1.404   1.632 -0.8265  0.1509 -0.2293
    2PC     N31 9313  -0.495   1.323   1.432 -0.2548 -0.5835  0.0548
    2PC     C33 9314  -0.394   1.426   1.390 -0.5786 -0.3101 -0.0595
    2PC     H3A 9315  -0.372   1.413   1.284  0.8350 -0.2756  0.2130
    2PC     H3B 9316  -0.435   1.525   1.406 -1.1007 -0.7760  1.7312
    2PC     H3C 9317  -0.299   1.405   1.438 -1.0100 -2.2451  0.0481
    2PC     C34 9318  -0.452   1.194   1.370  0.9905 -0.2316  0.1670
    2PC     H4A 9319  -0.349   1.171   1.399  1.0782  2.8863  2.9174
    2PC     H4B 9320  -0.525   1.115   1.390  1.1088 -1.2599 -2.8563
    2PC     H4C 9321  -0.455   1.205   1.262 -0.9761  1.7082  0.3598
    2PC     C35 9322  -0.635   1.353   1.389  0.0680  0.3777 -0.3511
    2PC     H5A 9323  -0.665   1.437   1.453  1.5615  0.7892 -0.1670
    2PC     H5B 9324  -0.701   1.270   1.415  2.1299 -0.7643  1.5953
    2PC     H5C 9325  -0.628   1.379   1.283 -2.4279 -0.7914 -0.8689
    2PC     O33 9326  -0.011   1.220   1.587 -0.2878 -0.3008  0.0385
    2PC     O34 9327  -0.152   1.032   1.622 -0.1257 -0.4574  0.4176
    2PC     O21 9328  -0.232   1.376   2.034  0.1523 -0.1216  0.3330
    2PC     C21 9329  -0.269   1.354   2.161 -0.0954  0.9397  0.4508
    2PC     O22 9330  -0.210   1.286   2.242  0.2496  0.5602 -0.1150
    3OL     C12 9331  -0.407   1.413   2.181 -0.6424 -0.0581 -0.2929
    3OL     H2R 9332  -0.483   1.334   2.179  0.2088 -0.9385  0.8120
    3OL     H2S 9333  -0.434   1.475   2.095 -1.1724 -0.1241 -0.1781
    3OL     C13 9334  -0.417   1.518   2.292  0.1301  0.1513 -0.4146
    3OL     H3R 9335  -0.399   1.467   2.387 -1.0154  0.3367 -0.0830
    3OL     H3S 9336  -0.519   1.557   2.298  0.2809  0.6562 -1.0764
    3OL     C14 9337  -0.310   1.627   2.282  0.1066  0.1927 -0.2144
    3OL     H4R 9338  -0.294   1.660   2.179  0.6843 -1.2206 -0.6019
    3OL     H4S 9339  -0.214   1.581   2.306  0.9567  1.9625 -0.0320
    3OL     C15 9340  -0.331   1.756   2.363  0.1657  0.0629  0.0052
    3OL     H5R 9341  -0.432   1.792   2.346 -0.5691 -1.6620  0.5142
    3OL     H5S 9342  -0.269   1.837   2.325 -0.0684 -0.2882 -1.1618
    3OL     C16 9343  -0.302   1.733   2.512  0.0278  0.4155  0.0864
    3OL     H6R 9344  -0.339   1.633   2.536  2.0003  0.0649  2.0906
    3OL     H6S 9345  -0.360   1.810   2.563  0.1682  1.4684 -1.2778
    3OL     C17 9346  -0.152   1.747   2.543  0.1449  0.0641 -0.3222
    3OL     H7R 9347  -0.114   1.842   2.504  0.4605 -0.0708 -0.3502
    3OL     H7S 9348  -0.098   1.674   2.482  0.1235 -0.5332  0.3578
    3OL     C18 9349  -0.133   1.730   2.694  0.2271 -0.4866 -0.3919
    3OL     H8R 9350  -0.175   1.632   2.716 -2.3599  0.2023 -1.7979
    3OL     H8S 9351  -0.190   1.805   2.749 -0.2929 -1.3840  0.3023
    3OL     C19 9352   0.015   1.719   2.723  0.2928  0.3719 -0.3558
    3OL     H9R 9353   0.066   1.641   2.667 -0.4807 -1.1023  0.8699
    3OL    C110 9354   0.077   1.786   2.819 -0.5148  0.3684  0.1850
    3OL    H10R 9355   0.185   1.777   2.826  0.1699  4.9623 -1.3987
    3OL    C111 9356   0.013   1.884   2.913  0.3145  0.8595  0.2434
    3OL    H11R 9357  -0.081   1.923   2.874 -0.5580 -1.1231  0.2449
    3OL    H11S 9358   0.070   1.978   2.915 -0.2049  1.1755  0.3337
    3OL    C112 9359   0.001   1.821   3.053  0.6711  0.2446  0.0028
    3OL    H12R 9360  -0.068   1.738   3.066 -3.1066  2.8760 -1.2893
    3OL    H12S 9361  -0.042   1.902   3.113 -0.6141  1.3538 -2.2579
    3OL    C113 9362   0.133   1.803   3.128  0.2396 -0.4332  0.6087
    3OL    H13R 9363   0.185   1.717   3.086  0.9315  0.8314 -1.2423
    3OL    H13S 9364   0.114   1.781   3.234 -0.7851 -0.7151  0.3792
    3OL    C114 9365   0.224   1.926   3.118 -0.3816 -0.0070  0.1675
    3OL    H14R 9366   0.244   1.947   3.012  0.0373  3.8675  0.8800
    3OL    H14S 9367   0.321   1.898   3.159  1.0350  2.4847 -1.2156
    3OL    C115 9368   0.160   2.037   3.201  0.3419 -0.0107  0.7395
    3OL    H15R 9369   0.148   2.015   3.308 -0.0369  2.2939  1.2418
    3OL    H15S 9370   0.060   2.065   3.167  0.4505 -1.3497 -0.7707
    3OL    C116 9371   0.240   2.168   3.192  0.9647 -0.4328  0.1370
    3OL    H16R 9372   0.223   2.200   3.089 -2.3366 -1.6754  0.1637
    3OL    H16S 9373   0.347   2.147   3.200  0.8915 -1.1455 -0.5782
    3OL    C117 9374   0.211   2.280   3.293 -0.2060 -0.5118 -0.0991
    3OL    H17R 9375   0.102   2.289   3.292 -0.1288  0.5561  0.3422
    3OL    H17S 9376   0.248   2.377   3.261  0.0540 -0.7188 -0.4413
    3OL    C118 9377   0.275   2.251   3.429  0.4362  0.0741 -0.2729
    3OL    H18R 9378   0.225   2.317   3.500  1.2039  0.6653 -0.2663
    3OL    H18S 9379   0.382   2.267   3.442  0.2243  2.6179 -1.1566
    3OL    H18T 9380   0.262   2.148   3.464  1.7224  0.8061  2.7050
    1PA    C116 9381   3.277   1.056   3.601  0.5350 -0.1228 -0.3359
    1PA    H16R 9382   3.300   1.024   3.703  1.3836 -2.7220 -1.2693
    1PA    H16S 9383   3.314   0.981   3.531  0.2646  0.3607 -1.0126
    1PA    H16T 9384   3.170   1.048   3.580  0.1228  3.3894 -0.1413
    1PA    C115 9385   3.317   1.202   3.575  0.2758 -0.0534 -0.3478
    1PA    H15R 9386   3.249   1.265   3.632  0.8058 -1.0777  1.4954
    1PA    H15S 9387   3.416   1.217   3.619  0.4442  1.0267 -1.0360
    1PA    C114 9388   3.327   1.247   3.428  0.2276  0.3251 -0.2368
    1PA    H14R 9389   3.363   1.161   3.371  0.9858  0.9317 -0.6971
    1PA    H14S 9390   3.232   1.267   3.378  0.7320 -0.2071 -1.4630
    1PA    C113 9391   3.427   1.363   3.413  0.0777  0.4024 -0.6461
    1PA    H13R 9392   3.517   1.344   3.472  0.0922  2.5301  0.0897
    1PA    H13S 9393   3.453   1.374   3.308 -3.1889 -0.6883 -1.6880
    1PA    C112 9394   3.369   1.495   3.465 -0.3202 -0.1270  0.2808
    1PA    H12R 9395   3.297   1.465   3.542  1.3995  0.3663  2.1823
    1PA    H12S 9396   3.446   1.552   3.517 -0.1220  1.2526 -1.4402
    1PA    C111 9397   3.284   1.562   3.356 -0.2671 -0.7032 -0.1133
    1PA    H11R 9398   3.226   1.487   3.302 -0.5913 -0.3841 -0.2085
    1PA    H11S 9399   3.221   1.641   3.396 -1.5213 -1.2119 -1.0130
    1PA    C110 9400   3.366   1.634   3.247 -0.3493 -0.7475 -0.2044
    1PA    H10R 9401   3.426   1.712   3.293 -0.4192 -1.5693  1.3629
    1PA    H10S 9402   3.424   1.562   3.189  0.6074  2.2102 -3.2275
    1PA     C19 9403   3.262   1.709   3.162  0.3949  0.0164 -0.4441
    1PA     H9R 9404   3.179   1.646   3.130 -0.5402  1.5010 -1.0500
    1PA     H9S 9405   3.213   1.786   3.223  1.6587  1.2219 -0.8725
    1PA     C18 9406   3.330   1.778   3.043 -0.1009  0.3228 -0.5490
    1PA     H8R 9407   3.416   1.840   3.068 -0.0464 -0.4634  1.3980
    1PA     H8S 9408   3.361   1.698   2.977 -1.8018 -0.1972 -0.7774
    1PA     C17 9409   3.226   1.858   2.962 -1.0408  0.2488  0.5582
    1PA     H7R 9410   3.255   1.842   2.858  1.0279  0.7138  1.0147
    1PA     H7S 9411   3.125   1.821   2.980 -0.0532 -2.1873  1.5716
    1PA     C16 9412   3.238   2.007   2.997 -0.4592  0.3065  0.1267
    1PA     H6R 9413   3.236   2.021   3.106  0.5768 -1.9940  0.5001
    1PA     H6S 9414   3.340   2.039   2.973 -0.7924  0.9992 -0.4066
    1PA     C15 9415   3.134   2.097   2.929 -0.6347 -0.0616 -0.0904
    1PA     H5R 9416   3.036   2.061   2.962 -0.7621  0.2245 -0.1527
    1PA     H5S 9417   3.146   2.202   2.954 -2.0374 -0.0415  0.6160
    1PA     C14 9418   3.136   2.084   2.776  0.3967  0.3484 -0.1183
    1PA     H4R 9419   3.242   2.097   2.752  1.0483 -1.5926  1.4327
    1PA     H4S 9420   3.104   1.982   2.752 -2.1977  0.8634  0.8878
    1PA     C13 9421   3.037   2.182   2.713 -0.5294 -0.6468 -0.2508
    1PA     H3R 9422   2.936   2.143   2.726 -0.6208 -1.1657 -2.1441
    1PA     H3S 9423   3.055   2.279   2.761  1.3049 -2.2441  2.5375
    1PA     C12 9424   3.066   2.175   2.562  0.1210 -0.5430 -0.1354
    1PA     H2R 9425   3.008   2.255   2.515 -2.6252 -0.6768  2.7164
    1PA     H2S 9426   3.173   2.188   2.545  0.1378  1.0861  0.9157
    2PC     C11 9427   3.019   2.046   2.500 -0.2508 -0.2638 -0.4463
    2PC     O12 9428   2.917   1.986   2.527 -0.2697 -0.3771 -0.7667
    2PC     O11 9429   3.106   1.998   2.409  0.4519  0.3734 -0.1236
    2PC      C1 9430   3.081   1.877   2.336 -0.5552  0.4490  0.0752
    2PC      HR 9431   2.977   1.874   2.303 -1.0173  1.3782  1.3841
    2PC      HS 9432   3.139   1.865   2.244 -0.0306 -0.3861  0.5013
    2PC      C2 9433   3.118   1.749   2.412 -0.0675  0.3529 -0.3189
    2PC      HX 9434   3.220   1.761   2.449  0.0353 -0.1141 -0.4439
    2PC      C3 9435   3.112   1.631   2.313  0.2102  0.0373  0.0359
    2PC      HA 9436   3.012   1.589   2.299  0.4205  0.3101 -2.8292
    2PC      HB 9437   3.152   1.668   2.219  0.2360 -1.2117 -0.4553
    2PC     O31 9438   3.191   1.524   2.366 -0.1472 -0.1992  0.0906
    2PC     P31 9439   3.180   1.376   2.304 -0.2717 -0.1492 -0.0055
    2PC     O32 9440   3.308   1.365   2.208 -0.3853  0.1437 -0.1918
    2PC     C31 9441   3.430   1.313   2.263 -0.5803 -0.0593  0.0508
    2PC     H1A 9442   3.451   1.374   2.351 -0.4085  0.4684 -0.3480
    2PC     H1B 9443   3.420   1.206   2.282 -0.9162 -0.9631 -4.2141
    2PC     C32 9444   3.536   1.352   2.160 -0.3834 -0.5171  0.0794
    2PC     H2A 9445   3.579   1.257   2.125 -0.2000 -1.1464  1.9182
    2PC     H2B 9446   3.484   1.402   2.077 -0.7587 -2.5119 -0.9601
    2PC     N31 9447   3.652   1.430   2.214 -0.1292 -0.6298 -0.2953
    2PC     C33 9448   3.726   1.353   2.318 -0.3402 -0.1864  0.1914
    2PC     H3A 9449   3.662   1.354   2.406 -0.3371 -1.5629  0.2366
    2PC     H3B 9450   3.730   1.248   2.288  0.2881 -0.1012 -0.0526
    2PC     H3C 9451   3.815   1.405   2.352  0.0097 -1.2584  0.9771
    2PC     C34 9452   3.758   1.468   2.116 -0.0726 -0.1092 -0.0363
    2PC     H4A 9453   3.830   1.387   2.109 -0.0110 -0.1833  1.2415
    2PC     H4B 9454   3.713   1.490   2.019 -1.1052 -0.7230  0.2966
    2PC     H4C 9455   3.798   1.565   2.146 -1.3205 -0.2922  2.4417
    2PC     C35 9456   3.610   1.562   2.273  0.0839 -0.5560 -0.3106
    2PC     H5A 9457   3.561   1.537   2.367  1.3955  1.1758  0.8866
    2PC     H5B 9458   3.536   1.613   2.211  1.4444  3.3262  0.9347
    2PC     H5C 9459   3.693   1.631   2.288 -2.0726  1.8644  1.2704
    2PC     O33 9460   3.175   1.259   2.395  0.0691 -0.0609  0.1276
    2PC     O34 9461   3.065   1.359   2.212  0.0273  0.3458 -0.4729
    2PC     O21 9462   3.026   1.728   2.520 -0.1441  0.1307 -0.4257
    2PC     C21 9463   2.895   1.700   2.511 -0.0628 -0.4218  0.0015
    2PC     O22 9464   2.825   1.700   2.412 -0.2246 -0.2225  0.1125
    3OL     C12 9465   2.837   1.667   2.646 -0.3021  0.1769  0.0490
    3OL     H2R 9466   2.888   1.578   2.684 -0.8591 -0.2668 -0.2334
    3OL     H2S 9467   2.729   1.651   2.642 -0.7572  1.9275  2.5473
    3OL     C13 9468   2.849   1.775   2.755 -0.6673  0.1779  0.0886
    3OL     H3R 9469   2.816   1.872   2.719  0.6988  1.0156  1.0070
    3OL     H3S 9470   2.956   1.793   2.768 -0.4950 -1.2477  0.8960
    3OL     C14 9471   2.796   1.742   2.895 -0.0136  0.0094  0.3022
    3OL     H4R 9472   2.692   1.712   2.881  0.2135 -0.0423 -1.3668
    3OL     H4S 9473   2.802   1.832   2.958 -0.3821 -1.0228  1.8881
    3OL     C15 9474   2.872   1.623   2.953  0.0516 -0.1433 -0.0992
    3OL     H5R 9475   2.979   1.644   2.941  0.3218 -2.5489 -3.2255
    3OL     H5S 9476   2.827   1.536   2.905  0.4901  0.1724 -1.1129
    3OL     C16 9477   2.850   1.616   3.105  0.2755 -0.3455 -0.0750
    3OL     H6R 9478   2.742   1.606   3.119  0.0654  1.2605 -0.3249
    3OL     H6S 9479   2.874   1.709   3.156  1.2291 -1.2091  1.1108
    3OL     C17 9480   2.927   1.497   3.164 -0.0664 -0.2909  0.4924
    3OL     H7R 9481   3.034   1.522   3.157 -0.5884  2.3003  0.7276
    3OL     H7S 9482   2.905   1.408   3.105  1.5311  0.1296 -0.8399
    3OL     C18 9483   2.897   1.482   3.313 -0.2550 -0.0748  0.4761
    3OL     H8R 9484   2.788   1.480   3.320 -0.2533 -1.9622  0.4385
    3OL     H8S 9485   2.932   1.565   3.375  0.1258  0.7050 -0.7563
    3OL     C19 9486   2.948   1.349   3.363 -0.1431 -0.0615  0.3961
    3OL     H9R 9487   3.048   1.357   3.404  0.2315  0.3816 -0.5677
    3OL    C110 9488   2.887   1.232   3.364  0.4989 -0.4133 -0.4125
    3OL    H10R 9489   2.939   1.145   3.404  0.5663  0.5459  1.7452
    3OL    C111 9490   2.748   1.210   3.309 -0.0482  0.8824  0.3963
    3OL    H11R 9491   2.756   1.128   3.237 -1.4141 -0.8329  2.0833
    3OL    H11S 9492   2.706   1.287   3.246 -0.9061 -0.8215 -1.2114
    3OL    C112 9493   2.643   1.165   3.412  0.0746  0.4386  0.3335
    3OL    H12R 9494   2.621   1.251   3.476 -0.9120  0.3911  0.0694
    3OL    H12S 9495   2.684   1.090   3.480  2.5614  1.5668  0.1864
    3OL    C113 9496   2.513   1.120   3.345  0.6308 -0.0388 -0.4387
    3OL    H13R 9497   2.527   1.025   3.294 -0.9393 -1.5208  1.6790
    3OL    H13S 9498   2.489   1.191   3.265 -0.1828 -0.8139 -0.9002
    3OL    C114 9499   2.393   1.114   3.441  0.5809  0.4510 -0.4699
    3OL    H14R 9500   2.299   1.084   3.395  1.4337  0.0661 -2.0021
    3OL    H14S 9501   2.382   1.208   3.497 -0.2189 -0.3714  0.8052
    3OL    C115 9502   2.423   1.011   3.550 -0.4928  0.0982 -0.5055
    3OL    H15R 9503   2.505   1.036   3.617 -0.7106 -1.2409  0.3102
    3OL    H15S 9504   2.458   0.915   3.512  3.6120  1.6646 -1.0934
    3OL    C116 9505   2.292   0.987   3.628 -0.2879  0.0355 -0.1792
    3OL    H16R 9506   2.241   0.908   3.573  1.0624  0.3075 -1.9116
    3OL    H16S 9507   2.239   1.080   3.646  0.3945  0.4747 -0.3901
    3OL    C117 9508   2.326   0.925   3.765  0.1811 -0.7306 -0.6309
    3OL    H17R 9509   2.242   0.921   3.835 -0.0537  1.1019 -0.7542
    3OL    H17S 9510   2.404   0.980   3.817  1.0588 -1.5239 -1.0988
    3OL    C118 9511   2.386   0.786   3.745 -0.1451 -0.9801  0.1052
    3OL    H18R 9512   2.350   0.735   3.656 -0.2615  2.4679 -1.9717
    3OL    H18S 9513   2.367   0.727   3.835 -2.7350  0.1216  0.3541
    3OL    H18T 9514   2.495   0.797   3.748 -0.3777  2.9168 -0.6871
    1PA    C116 9515   2.078   1.852   2.804 -0.1406 -0.4736  0.2352
    1PA    H16R 9516   2.129   1.927   2.743  0.0464 -0.5917  0.2449
    1PA    H16S 9517   2.135   1.839   2.897  1.0597 -1.5513 -0.6183
    1PA    H16T 9518   1.984   1.903   2.826  1.1169  1.2378  2.0796
    1PA    C115 9519   2.066   1.715   2.736 -0.0888 -0.4070  0.0919
    1PA    H15R 9520   2.005   1.651   2.800 -0.0908  0.2234  0.7322
    1PA    H15S 9521   2.021   1.725   2.637 -1.5884 -0.6482  0.7234
    1PA    C114 9522   2.204   1.647   2.726  0.0826  0.0707 -0.8521
    1PA    H14R 9523   2.244   1.700   2.639 -0.0461 -0.1360 -1.0393
    1PA    H14S 9524   2.261   1.679   2.813  0.4766  0.3292 -1.1985
    1PA    C113 9525   2.195   1.495   2.714  0.1480  0.0284 -0.3899
    1PA    H13R 9526   2.139   1.462   2.801 -1.1083  0.5629 -0.9773
    1PA    H13S 9527   2.126   1.479   2.630 -1.9652  2.9866  0.6136
    1PA    C112 9528   2.338   1.443   2.689  0.0030 -0.5335 -0.0744
    1PA    H12R 9529   2.326   1.360   2.620 -0.2082 -0.1795 -0.4683
    1PA    H12S 9530   2.385   1.527   2.637  1.4395 -1.1636  0.1820
    1PA    C111 9531   2.402   1.407   2.823  0.6025 -0.4673 -0.3415
    1PA    H11R 9532   2.411   1.493   2.890  1.5979  0.8099 -2.0467
    1PA    H11S 9533   2.331   1.335   2.865  0.7655 -1.8557 -2.2967
    1PA    C110 9534   2.531   1.323   2.824  0.7063 -0.3096  0.0093
    1PA    H10R 9535   2.517   1.241   2.752  2.4593  0.2391 -1.0280
    1PA    H10S 9536   2.615   1.386   2.795  1.3833 -0.5202  1.4503
    1PA     C19 9537   2.571   1.260   2.958 -0.0177 -0.0307  0.3623
    1PA     H9R 9538   2.620   1.330   3.026  0.7198  0.0537 -0.2417
    1PA     H9S 9539   2.481   1.223   3.007 -1.0375  0.9328 -0.7153
    1PA     C18 9540   2.648   1.130   2.931 -0.6297 -0.1458 -0.9190
    1PA     H8R 9541   2.686   1.109   3.031 -1.0989  0.4402 -0.6105
    1PA     H8S 9542   2.577   1.052   2.905 -1.4274  0.0514  0.5747
    1PA     C17 9543   2.769   1.135   2.836 -0.2546  0.6846 -0.4116
    1PA     H7R 9544   2.819   1.038   2.827 -0.4547  0.7612 -2.6649
    1PA     H7S 9545   2.745   1.159   2.733  2.0009 -1.4040 -1.5341
    1PA     C16 9546   2.880   1.228   2.886  0.6068 -0.5341  0.0134
    1PA     H6R 9547   2.838   1.329   2.896  0.2517 -0.5613 -1.0909
    1PA     H6S 9548   2.905   1.214   2.992 -1.4524  0.0966  0.6300
    1PA     C15 9549   3.005   1.236   2.797  0.2886 -0.0410 -0.3975
    1PA     H5R 9550   3.043   1.136   2.776  0.0117  0.3743 -3.2078
    1PA     H5S 9551   2.977   1.286   2.704 -0.7658  2.1761  1.0345
    1PA     C14 9552   3.119   1.307   2.870  0.0823  0.0708 -0.1834
    1PA     H4R 9553   3.082   1.408   2.893 -0.7989 -0.1798 -0.4518
    1PA     H4S 9554   3.135   1.261   2.968  1.6560  1.1158  0.0934
    1PA     C13 9555   3.246   1.331   2.788 -0.0967  0.3650 -0.3789
    1PA     H3R 9556   3.305   1.239   2.775 -1.7729 -0.8012 -0.0234
    1PA     H3S 9557   3.228   1.377   2.691 -0.0861 -0.5876 -0.8518
    1PA     C12 9558   3.324   1.447   2.850 -0.3985  0.3959 -0.0589
    1PA     H2R 9559   3.263   1.538   2.852 -0.0711  0.6160  0.5912
    1PA     H2S 9560   3.355   1.425   2.952  1.2448  0.8195 -0.4385
    2PC     C11 9561   3.445   1.476   2.765 -0.3595  0.3538 -0.0183
    2PC     O12 9562   3.476   1.415   2.665 -0.3323  0.2958  0.0260
    2PC     O11 9563   3.516   1.583   2.805 -0.1652  0.2939 -0.2028
    2PC      C1 9564   3.605   1.638   2.706 -0.0644  0.1032 -0.2176
    2PC      HR 9565   3.688   1.566   2.710  1.8573  2.2585  0.9202
    2PC      HS 9566   3.553   1.639   2.610 -1.1734  1.3185  0.3665
    2PC      C2 9567   3.642   1.779   2.752  0.3116 -0.1992  0.4136
    2PC      HX 9568   3.547   1.826   2.776  0.0749  0.0367 -0.9543
    2PC      C3 9569   3.709   1.860   2.641 -0.0774 -0.4975 -0.0384
    2PC      HA 9570   3.626   1.885   2.574  0.0214 -0.2817 -0.0825
    2PC      HB 9571   3.759   1.951   2.674 -0.3997 -0.5731  0.6604
    2PC     O31 9572   3.805   1.775   2.573  0.2592 -0.3512  0.2512
    2PC     P31 9573   3.848   1.814   2.424 -0.3748  0.0968  0.1763
    2PC     O32 9574   3.976   1.900   2.468 -0.1179  0.0287 -0.4227
    2PC     C31 9575   3.987   2.033   2.414 -0.0485  0.1691 -0.0659
    2PC     H1A 9576   3.889   2.081   2.419  0.8943  2.0956  1.0513
    2PC     H1B 9577   4.060   2.096   2.465 -0.7335  1.2261 -0.3580
    2PC     C32 9578   4.039   2.020   2.270  0.1343 -0.6120  0.0643
    2PC     H2A 9579   3.990   1.954   2.199  1.5728 -1.7471  0.0909
    2PC     H2B 9580   4.031   2.123   2.235 -2.3752 -0.4001  1.0433
    2PC     N31 9581   4.183   1.980   2.258  0.1685 -0.3726 -0.3305
    2PC     C33 9582   4.272   2.076   2.330 -0.1798  0.0451 -0.4526
    2PC     H3A 9583   4.371   2.029   2.324 -0.2153  0.0076 -0.7898
    2PC     H3B 9584   4.265   2.180   2.298 -1.4340  0.1642  0.1619
    2PC     H3C 9585   4.241   2.063   2.433  0.1309 -1.3683 -0.5097
    2PC     C34 9586   4.203   1.839   2.306 -0.2973 -0.3466 -0.0527
    2PC     H4A 9587   4.308   1.813   2.294 -0.1506  0.6737 -1.2753
    2PC     H4B 9588   4.174   1.831   2.411  0.0309 -1.2310 -0.0238
    2PC     H4C 9589   4.142   1.778   2.239 -0.2218  0.1387 -0.5751
    2PC     C35 9590   4.224   1.989   2.114  0.3899 -0.1563 -0.2539
    2PC     H5A 9591   4.168   1.915   2.055  1.3163 -0.3035 -0.9754
    2PC     H5B 9592   4.331   1.968   2.102  1.0354  1.1381  2.5379
    2PC     H5C 9593   4.193   2.086   2.076  0.4636 -0.0935 -0.1550
    2PC     O33 9594   3.887   1.703   2.334  0.1301  0.2124  0.2473
    2PC     O34 9595   3.740   1.881   2.349  0.1956  0.1843 -0.5835
    2PC     O21 9596   3.732   1.759   2.863  0.1872  0.0807  0.5687
    2PC     C21 9597   3.740   1.853   2.958  0.0547  0.2514  0.4107
    2PC     O22 9598   3.664   1.948   2.962  0.0848  0.2921  0.0575
    3OL     C12 9599   3.850   1.826   3.058  0.2257 -0.4094  0.0509
    3OL     H2R 9600   3.915   1.914   3.057  1.2896 -1.1537 -1.8392
    3OL     H2S 9601   3.911   1.742   3.024  1.4914  0.6312 -0.3244
    3OL     C13 9602   3.800   1.819   3.203  0.1075 -0.5302  0.0046
    3OL     H3R 9603   3.718   1.889   3.215  0.9707  0.5800 -0.4254
    3OL     H3S 9604   3.878   1.848   3.274  0.0478 -0.1919 -0.0669
    3OL     C14 9605   3.748   1.678   3.235 -0.6340 -0.0252  1.0749
    3OL     H4R 9606   3.695   1.643   3.146  1.7469 -1.1889  0.0172
    3OL     H4S 9607   3.680   1.675   3.321 -2.1694  1.1082 -0.0380
    3OL     C15 9608   3.864   1.581   3.263 -0.1999  0.0767 -0.2935
    3OL     H5R 9609   3.928   1.617   3.344 -0.3355 -0.5502  0.1015
    3OL     H5S 9610   3.921   1.570   3.171 -0.5307  1.8777 -0.7580
    3OL     C16 9611   3.818   1.439   3.300  0.0587 -0.0304 -0.3866
    3OL     H6R 9612   3.904   1.374   3.282 -0.2393 -0.7506  0.7024
    3OL     H6S 9613   3.737   1.406   3.235 -0.9986  0.4670  0.6534
    3OL     C17 9614   3.786   1.423   3.449 -0.1325 -0.0191 -0.4267
    3OL     H7R 9615   3.685   1.459   3.471 -0.5098 -0.8517 -0.7731
    3OL     H7S 9616   3.871   1.472   3.498  0.8718 -2.5926  0.5418
    3OL     C18 9617   3.784   1.275   3.488 -0.5881  0.0346 -0.2355
    3OL     H8R 9618   3.884   1.230   3.479 -0.2468  0.1898  2.1220
    3OL     H8S 9619   3.711   1.218   3.431  0.0526 -0.4174 -0.6169
    3OL     C19 9620   3.744   1.262   3.633  2.3289 -0.5700  0.5823
    3OL     H9R 9621   3.719   1.360   3.672 -0.4293 -0.4199 -1.2724
    3OL    C110 9622   3.723   1.152   3.704  0.3106 -0.5934  0.0168
    3OL    H10R 9623   3.691   1.144   3.807  1.2539 -0.4588  0.3350
    3OL    C111 9624   3.760   1.015   3.653  0.3911 -0.6986  0.3580
    3OL    H11R 9625   3.864   0.984   3.665  0.0672 -1.8231  0.3526
    3OL    H11S 9626   3.733   1.025   3.548 -1.1562  0.2995  0.8202
    3OL    C112 9627   3.674   0.900   3.708  0.0591 -0.9627 -0.6901
    3OL    H12R 9628   3.694   0.808   3.654  1.2519 -1.4917  0.5670
    3OL    H12S 9629   3.572   0.931   3.686  0.5834  1.5719  0.1383
    3OL    C113 9630   3.692   0.861   3.856 -0.4695  0.0064 -0.3556
    3OL    H13R 9631   3.595   0.827   3.891 -0.3625 -1.2151 -1.1591
    3OL    H13S 9632   3.724   0.944   3.919 -0.2204 -0.9686  0.8538
    3OL    C114 9633   3.796   0.750   3.883 -0.1667  0.3265 -0.2034
    3OL    H14R 9634   3.895   0.793   3.868 -1.5168  3.8313 -0.0241
    3OL    H14S 9635   3.784   0.668   3.812  1.0710 -0.0649  0.0284
    3OL    C115 9636   3.783   0.695   4.026 -0.1300 -0.3863 -0.4743
    3OL    H15R 9637   3.678   0.685   4.052 -1.2958  1.4814 -3.8721
    3OL    H15S 9638   3.820   0.773   4.093 -3.7894  0.9321  0.2229
    3OL    C116 9639   3.850   0.561   4.060 -0.0873 -0.2067  0.1627
    3OL    H16R 9640   3.847   0.562   4.169 -0.8498 -0.7454  0.1538
    3OL    H16S 9641   3.952   0.582   4.026 -0.0196 -0.9150 -0.0961
    3OL    C117 9642   3.790   0.436   3.994 -0.4269 -0.1888  0.4356
    3OL    H17R 9643   3.865   0.357   4.010  1.0454  0.9345 -0.6664
    3OL    H17S 9644   3.790   0.440   3.885  4.3128  1.6031  0.2567
    3OL    C118 9645   3.655   0.391   4.050 -0.8034 -0.7279 -0.8735
    3OL    H18R 9646   3.673   0.382   4.157  0.6297  2.7988 -0.6770
    3OL    H18S 9647   3.629   0.302   3.993 -0.3710  0.7544 -3.5476
    3OL    H18T 9648   3.575   0.461   4.022  1.0010  0.2646 -4.0410
    1PA    C116 9649   0.083   4.256   3.920  0.0367 -0.9829 -0.4565
    1PA    H16R 9650   0.131   4.217   3.831 -0.5181 -0.2484 -1.0933
    1PA    H16S 9651   0.081   4.181   3.999  1.5751 -0.6963 -0.1141
    1PA    H16T 9652   0.143   4.342   3.950 -1.7781  0.6515 -1.2987
    1PA    C115 9653  -0.057   4.311   3.889  0.2410 -0.3957 -0.3428
    1PA    H15R 9654  -0.132   4.236   3.863  0.1514 -0.3520 -0.2171
    1PA    H15S 9655  -0.096   4.354   3.982  1.9029  0.0772  0.1665
    1PA    C114 9656  -0.062   4.432   3.795 -0.1405  0.0382  0.2217
    1PA    H14R 9657  -0.169   4.453   3.781 -0.2363  0.6930  1.7643
    1PA    H14S 9658  -0.021   4.519   3.845  1.6279 -0.6127 -0.0476
    1PA    C113 9659   0.015   4.398   3.666  0.4114  0.4697  0.4370
    1PA    H13R 9660   0.123   4.392   3.683  0.2735 -2.0109  0.8324
    1PA    H13S 9661  -0.022   4.305   3.623  0.4066  0.9526 -0.6382
    1PA    C112 9662  -0.011   4.510   3.564  0.1205  0.1680  0.1789
    1PA    H12R 9663  -0.116   4.519   3.534  0.9469  1.9443 -2.5378
    1PA    H12S 9664   0.017   4.602   3.616 -0.5791 -0.9658  2.7432
    1PA    C111 9665   0.083   4.496   3.444 -0.2631 -0.4442 -0.0545
    1PA    H11R 9666   0.185   4.520   3.475 -0.4054  0.0009  0.0728
    1PA    H11S 9667   0.091   4.392   3.411 -1.6689 -0.3647 -0.7173
    1PA    C110 9668   0.037   4.577   3.322  0.1308 -0.0790  0.0368
    1PA    H10R 9669  -0.070   4.565   3.303 -0.1608  1.8876  0.1676
    1PA    H10S 9670   0.057   4.683   3.340 -0.5459  0.1357 -0.4059
    1PA     C19 9671   0.112   4.530   3.197  0.1796  0.4467 -0.1351
    1PA     H9R 9672   0.217   4.558   3.189  0.0619  1.0440  0.3724
    1PA     H9S 9673   0.115   4.422   3.180  0.3415  0.5932 -1.1134
    1PA     C18 9674   0.053   4.604   3.076 -0.5265  0.2642  0.0952
    1PA     H8R 9675  -0.052   4.575   3.069 -0.1872 -1.6424  1.7412
    1PA     H8S 9676   0.044   4.709   3.105 -0.5851  0.1330  0.5628
    1PA     C17 9677   0.135   4.590   2.948 -0.6396 -0.1845  0.0692
    1PA     H7R 9678   0.084   4.657   2.878  0.5396  0.0858 -0.5644
    1PA     H7S 9679   0.237   4.627   2.961 -0.8161 -0.5311  3.2613
    1PA     C16 9680   0.141   4.445   2.899 -0.4981 -0.1414 -0.0441
    1PA     H6R 9681   0.162   4.375   2.980 -2.7331 -1.1303 -0.2334
    1PA     H6S 9682   0.040   4.415   2.866 -1.3911  2.1982  0.4029
    1PA     C15 9683   0.242   4.419   2.787 -0.4898 -0.2807 -0.0051
    1PA     H5R 9684   0.328   4.481   2.815 -0.3351  1.0834 -3.0240
    1PA     H5S 9685   0.265   4.313   2.776  2.3008  0.1996  0.4276
    1PA     C14 9686   0.196   4.475   2.651  0.2079  0.6279  0.1215
    1PA     H4R 9687   0.098   4.433   2.631  0.9558 -1.0230 -0.3056
    1PA     H4S 9688   0.185   4.583   2.655 -1.1180  0.5469 -0.9077
    1PA     C13 9689   0.283   4.426   2.534  0.0314 -0.4618  0.4376
    1PA     H3R 9690   0.386   4.457   2.549  0.1428 -0.9445  0.7083
    1PA     H3S 9691   0.278   4.318   2.514  1.4895 -0.1791 -1.7542
    1PA     C12 9692   0.235   4.493   2.405  0.3629 -0.3424  0.3776
    1PA     H2R 9693   0.149   4.437   2.369  0.4603 -0.7340  0.7520
    1PA     H2S 9694   0.210   4.596   2.431  0.4654  0.4136 -2.2078
    2PC     C11 9695   0.338   4.502   2.295  0.5585 -0.4049  0.5553
    2PC     O12 9696   0.438   4.433   2.283  0.2204 -0.6817 -0.8528
    2PC     O11 9697   0.309   4.599   2.207  0.2303 -0.7695  0.2597
    2PC      C1 9698   0.400   4.617   2.098 -0.2258  0.5049  0.0749
    2PC      HR 9699   0.500   4.643   2.135  1.2051 -1.6661 -1.9501
    2PC      HS 9700   0.391   4.530   2.033 -4.3213 -0.4081  1.6028
    2PC      C2 9701   0.360   4.745   2.022 -0.2638  0.2102 -0.4053
    2PC      HX 9702   0.252   4.745   2.036 -0.1769 -1.4611  0.5684
    2PC      C3 9703   0.403   4.745   1.874  0.2057  0.5409 -0.2706
    2PC      HA 9704   0.346   4.670   1.819  1.0817 -2.3338  2.3780
    2PC      HB 9705   0.382   4.848   1.848  0.1608  1.1449  1.9497
    2PC     O31 9706   0.543   4.713   1.863  0.1445  0.1339  0.0643
    2PC     P31 9707   0.602   4.688   1.716 -0.2040  0.1346 -0.0755
    2PC     O32 9708   0.746   4.623   1.741  0.0034  0.4040 -0.5487
    2PC     C31 9709   0.789   4.542   1.630 -0.2337 -0.4669 -0.0130
    2PC     H1A 9710   0.721   4.458   1.612 -0.5639 -0.3226  0.5398
    2PC     H1B 9711   0.822   4.605   1.547  1.1192  1.4315  1.8773
    2PC     C32 9712   0.908   4.460   1.682  0.1495  0.3738  0.4384
    2PC     H2A 9713   0.953   4.407   1.598 -2.5544  1.8766 -2.1392
    2PC     H2B 9714   0.989   4.531   1.703  0.1855  0.3121  0.5114
    2PC     N31 9715   0.886   4.363   1.794  0.0732 -0.0164  0.0874
    2PC     C33 9716   1.006   4.275   1.810  0.0722 -0.0302  0.0202
    2PC     H3A 9717   1.007   4.201   1.730 -0.0859  1.7894 -1.7393
    2PC     H3B 9718   1.099   4.331   1.818 -1.4345  2.5007  1.2757
    2PC     H3C 9719   0.985   4.217   1.900 -0.7930 -0.8814 -0.7110
    2PC     C34 9720   0.868   4.439   1.923  0.3678  0.7012 -0.2868
    2PC     H4A 9721   0.776   4.497   1.917 -0.5667 -0.8649 -2.9037
    2PC     H4B 9722   0.842   4.362   1.996  1.3994 -1.0497 -1.6637
    2PC     H4C 9723   0.957   4.491   1.957  0.0351  1.2330 -0.2208
    2PC     C35 9724   0.765   4.279   1.764  0.3104 -0.2273 -0.2724
    2PC     H5A 9725   0.750   4.230   1.860 -0.9548 -1.4922 -1.0909
    2PC     H5B 9726   0.790   4.209   1.684 -0.7589  0.2310 -1.0257
    2PC     H5C 9727   0.687   4.352   1.742 -0.7282 -0.1450  3.1029
    2PC     O33 9728   0.514   4.588   1.651 -0.8538  0.7606 -0.1848
    2PC     O34 9729   0.614   4.806   1.627 -0.5737 -0.3948 -0.8382
    2PC     O21 9730   0.422   4.854   2.093  0.2942 -0.1454 -0.3315
    2PC     C21 9731   0.386   4.981   2.065 -0.4529 -0.0481  0.9871
    2PC     O22 9732   0.290   5.002   1.994  0.4304 -0.2447 -0.3096
    3OL     C12 9733   0.469   5.081   2.140  0.2315 -0.1006  0.3110
    3OL     H2R 9734   0.554   5.113   2.079 -1.3490  0.2312 -1.8321
    3OL     H2S 9735   0.500   5.045   2.238 -2.5690 -0.8230  1.0082
    3OL     C13 9736   0.384   5.208   2.159  0.2602  0.0354 -0.4402
    3OL     H3R 9737   0.301   5.175   2.221  1.9510 -0.8942  1.4424
    3OL     H3S 9738   0.340   5.249   2.068 -2.2073  3.4821  2.0388
    3OL     C14 9739   0.452   5.324   2.233  0.3266 -0.2022 -0.1276
    3OL     H4R 9740   0.386   5.411   2.237  1.4494  0.6318  1.2795
    3OL     H4S 9741   0.544   5.353   2.183 -0.5705  0.6251 -1.3681
    3OL     C15 9742   0.482   5.295   2.381  0.4957  1.0630  0.0974
    3OL     H5R 9743   0.568   5.358   2.405  1.2363 -0.0328  0.4267
    3OL     H5S 9744   0.509   5.190   2.394 -2.5255  0.4863  3.5800
    3OL     C16 9745   0.370   5.332   2.479  0.2000  0.4302  0.0014
    3OL     H6R 9746   0.277   5.289   2.441  0.5004 -0.8037  0.6081
    3OL     H6S 9747   0.358   5.440   2.477  1.1065  0.5334 -1.6606
    3OL     C17 9748   0.392   5.264   2.615  0.0873  0.6373  0.1234
    3OL     H7R 9749   0.497   5.268   2.645 -0.1855 -0.7893  1.4077
    3OL     H7S 9750   0.363   5.160   2.601  0.7973  0.5781 -1.0431
    3OL     C18 9751   0.302   5.331   2.720 -0.7458 -0.3151  0.0262
    3OL     H8R 9752   0.199   5.295   2.717 -0.5951 -0.8711  0.9855
    3OL     H8S 9753   0.308   5.440   2.717  0.2766 -0.3518  0.2668
    3OL     C19 9754   0.351   5.290   2.857  0.6471 -0.4049 -0.4860
    3OL     H9R 9755   0.412   5.201   2.873 -1.0850 -1.4153  0.8384
    3OL    C110 9756   0.305   5.346   2.967  0.5152 -0.4056 -0.5403
    3OL    H10R 9757   0.330   5.294   3.060 -0.1917 -2.0059 -1.2063
    3OL    C111 9758   0.211   5.462   2.982  0.0247 -0.9189  0.4806
    3OL    H11R 9759   0.118   5.442   2.927 -0.0372 -2.0717  0.9909
    3OL    H11S 9760   0.251   5.563   2.968  2.7441 -1.6877  2.1025
    3OL    C112 9761   0.159   5.460   3.127 -0.1153 -0.3675  0.4427
    3OL    H12R 9762   0.251   5.477   3.184  1.0699  1.5245 -1.8206
    3OL    H12S 9763   0.109   5.365   3.141 -1.5149  0.3368  0.3385
    3OL    C113 9764   0.064   5.572   3.168 -0.6633 -0.7386  0.1929
    3OL    H13R 9765  -0.028   5.567   3.109  0.0017  0.6855 -1.0128
    3OL    H13S 9766   0.111   5.666   3.140  1.8218 -1.4598  1.6376
    3OL    C114 9767   0.024   5.576   3.317 -0.5994  0.2450  0.1913
    3OL    H14R 9768   0.009   5.672   3.367 -0.4968 -0.1938  1.0766
    3OL    H14S 9769   0.100   5.531   3.381 -1.0497  0.7155  1.0671
    3OL    C115 9770  -0.106   5.500   3.344 -0.8918  0.5396 -0.3721
    3OL    H15R 9771  -0.115   5.402   3.296  2.0820 -0.8085  1.5587
    3OL    H15S 9772  -0.181   5.565   3.298 -1.8783 -0.1861  0.1721
    3OL    C116 9773  -0.134   5.492   3.495 -0.1922  0.3068 -0.2509
    3OL    H16R 9774  -0.147   5.591   3.540 -2.7498 -0.0630  0.0074
    3OL    H16S 9775  -0.056   5.440   3.551 -1.5772  0.8914  2.3721
    3OL    C117 9776  -0.269   5.422   3.518  0.0593  0.0288  0.3703
    3OL    H17R 9777  -0.273   5.332   3.456  0.4500 -0.5142  1.1106
    3OL    H17S 9778  -0.353   5.481   3.483 -0.4716 -0.3081  1.0533
    3OL    C118 9779  -0.313   5.376   3.658 -0.5057  0.5908  0.3793
    3OL    H18R 9780  -0.247   5.298   3.698  1.2948  1.8273 -0.0215
    3OL    H18S 9781  -0.417   5.345   3.658  0.0179 -1.3338  0.9560
    3OL    H18T 9782  -0.307   5.466   3.720 -1.2792 -0.2059  1.6426
    1PA    C116 9783   6.203   4.835   4.174 -0.6316 -0.0014  0.4100
    1PA    H16R 9784   6.138   4.909   4.221  1.3539  1.1473  1.4845
    1PA    H16S 9785   6.303   4.877   4.164 -0.6587  0.0701  0.4406
    1PA    H16T 9786   6.199   4.766   4.259 -1.5039  0.8989  1.1220
    1PA    C115 9787   6.137   4.789   4.043  0.0550  0.0426  0.0437
    1PA    H15R 9788   6.207   4.736   3.979 -0.3840 -1.1541  0.5328
    1PA    H15S 9789   6.060   4.713   4.055  1.9277 -1.9147  0.2988
    1PA    C114 9790   6.093   4.909   3.959 -0.0540 -0.0698 -0.0596
    1PA    H14R 9791   6.014   4.956   4.017  1.8190 -0.0851  2.6668
    1PA    H14S 9792   6.173   4.984   3.958  0.8527 -1.0106  0.5514
    1PA    C113 9793   6.039   4.866   3.822  0.1159 -0.2126 -0.0812
    1PA    H13R 9794   6.112   4.794   3.782  0.7700  0.1033  0.5271
    1PA    H13S 9795   5.947   4.807   3.831 -0.4706  0.8841  1.4802
    1PA    C112 9796   6.024   4.996   3.742 -0.0001 -0.1105  0.1056
    1PA    H12R 9797   5.947   5.056   3.791 -0.7072 -0.8636 -0.0467
    1PA    H12S 9798   6.122   5.042   3.729 -0.4392  1.1202  1.0237
    1PA    C111 9799   5.972   4.966   3.600  0.7356  0.3427 -0.2626
    1PA    H11R 9800   6.032   4.894   3.544 -2.0534 -0.7565 -2.0532
    1PA    H11S 9801   5.877   4.915   3.613  1.1783 -0.5160 -0.3421
    1PA    C110 9802   5.943   5.091   3.515 -0.6315  0.2980  0.1149
    1PA    H10R 9803   5.866   5.148   3.567 -2.6489 -0.7077 -1.6610
    1PA    H10S 9804   6.037   5.147   3.509 -2.1088  2.7652 -1.6398
    1PA     C19 9805   5.896   5.051   3.375 -0.0697 -0.0797  0.0294
    1PA     H9R 9806   5.976   5.002   3.319 -1.4274 -0.1476 -1.9391
    1PA     H9S 9807   5.822   4.971   3.384  0.0036 -0.2419 -0.6949
    1PA     C18 9808   5.852   5.175   3.296 -0.5037  0.2166  0.7333
    1PA     H8R 9809   5.771   5.234   3.340 -0.8820  1.5192 -1.5619
    1PA     H8S 9810   5.931   5.248   3.275 -2.3941  1.7881 -1.4524
    1PA     C17 9811   5.811   5.131   3.155 -0.1182  0.7473  0.4503
    1PA     H7R 9812   5.765   5.033   3.168 -1.1218  1.0401 -0.7381
    1PA     H7S 9813   5.741   5.202   3.111  0.2775  1.0376  0.2822
    1PA     C16 9814   5.931   5.118   3.060 -0.1317 -0.1564  0.5473
    1PA     H6R 9815   5.962   5.219   3.032  1.1681 -0.6005  0.3142
    1PA     H6S 9816   6.019   5.080   3.112  0.1000 -0.4390 -0.0492
    1PA     C15 9817   5.915   5.046   2.926  0.2150  0.1496  0.3401
    1PA     H5R 9818   5.828   5.055   2.861  1.7787 -2.2447 -2.3421
    1PA     H5S 9819   5.997   5.084   2.865 -1.0849  2.0033 -0.3530
    1PA     C14 9820   5.942   4.896   2.946 -0.0924  0.1079  0.4507
    1PA     H4R 9821   6.045   4.887   2.981 -0.1006  2.2962  1.1870
    1PA     H4S 9822   5.881   4.852   3.025  2.2971 -3.0611  0.7316
    1PA     C13 9823   5.917   4.814   2.819  0.3210  0.4788  0.1253
    1PA     H3R 9824   5.951   4.712   2.837  0.8880  0.5729 -0.3908
    1PA     H3S 9825   5.809   4.802   2.809  0.3340  0.4456  0.0161
    1PA     C12 9826   5.992   4.870   2.697  0.0589 -0.2341 -0.3740
    1PA     H2R 9827   5.958   4.968   2.663  1.2721 -0.3697 -2.0916
    1PA     H2S 9828   6.097   4.876   2.728 -0.4105  2.9706  1.0082
    2PC     C11 9829   5.982   4.787   2.572 -0.3439 -0.3351 -0.2754
    2PC     O12 9830   6.032   4.679   2.548  0.0867 -0.2726  0.3020
    2PC     O11 9831   5.913   4.849   2.475  0.1324  0.8907  0.1466
    2PC      C1 9832   5.866   4.781   2.357 -0.5363  0.6245  0.5594
    2PC      HR 9833   5.828   4.854   2.285  0.9155  0.5179 -0.3492
    2PC      HS 9834   5.953   4.728   2.319 -2.1508 -1.4267 -0.4906
    2PC      C2 9835   5.756   4.677   2.386  0.0911 -0.2302 -0.0976
    2PC      HX 9836   5.777   4.624   2.479 -3.2132 -1.0766  0.2767
    2PC      C3 9837   5.759   4.576   2.270 -0.5138 -0.0041 -0.3126
    2PC      HA 9838   5.855   4.525   2.276  0.0001  0.4053 -3.4649
    2PC      HB 9839   5.679   4.503   2.284 -0.4959 -0.2256 -1.2596
    2PC     O31 9840   5.756   4.640   2.141 -0.8714 -0.3164 -0.4600
    2PC     P31 9841   5.780   4.542   2.017 -0.2263 -0.2537 -0.3858
    2PC     O32 9842   5.633   4.571   1.961 -0.2112  0.2986 -0.1493
    2PC     C31 9843   5.576   4.480   1.865  0.5505 -0.3953  0.0445
    2PC     H1A 9844   5.598   4.505   1.761  0.0480 -1.1952 -0.2628
    2PC     H1B 9845   5.627   4.384   1.875  0.6411 -0.3369  0.1410
    2PC     C32 9846   5.424   4.489   1.878  0.5845  0.4378 -0.1215
    2PC     H2A 9847   5.388   4.493   1.981 -0.0905  2.4225 -0.3879
    2PC     H2B 9848   5.396   4.581   1.826  1.1130 -0.3729 -1.8922
    2PC     N31 9849   5.349   4.382   1.805  0.4485  0.6270 -0.2592
    2PC     C33 9850   5.383   4.379   1.659  0.5568 -0.3770 -0.2165
    2PC     H3A 9851   5.492   4.382   1.651  0.9772 -0.4233  3.6242
    2PC     H3B 9852   5.333   4.290   1.619  1.3010 -1.6823  1.6135
    2PC     H3C 9853   5.339   4.474   1.628 -0.3844  0.8212  4.1764
    2PC     C34 9854   5.378   4.249   1.867  0.3274  0.3450 -0.7974
    2PC     H4A 9855   5.347   4.169   1.800 -0.9517 -0.9454  1.2139
    2PC     H4B 9856   5.485   4.230   1.868  1.0318  3.7048 -0.5546
    2PC     H4C 9857   5.322   4.241   1.960 -1.1838  0.2169 -1.6837
    2PC     C35 9858   5.201   4.403   1.825  0.1947 -0.8310 -0.5546
    2PC     H5A 9859   5.162   4.329   1.895  0.8448 -0.6887 -0.0335
    2PC     H5B 9860   5.165   4.384   1.723 -0.9270 -1.0664 -0.1220
    2PC     H5C 9861   5.189   4.508   1.851 -3.1911 -1.6990  1.9876
    2PC     O33 9862   5.896   4.571   1.929 -0.3300 -0.0752 -0.4638
    2PC     O34 9863   5.789   4.400   2.058 -0.2742 -0.1637 -0.0632
    2PC     O21 9864   5.628   4.742   2.373  0.1546 -0.1287 -0.2257
    2PC     C21 9865   5.533   4.703   2.460  0.2908 -0.0434 -0.0371
    2PC     O22 9866   5.540   4.601   2.525 -0.1388 -0.1903 -0.2166
    3OL     C12 9867   5.403   4.779   2.450 -0.0175 -0.6600 -0.7545
    3OL     H2R 9868   5.373   4.781   2.345  0.4704  0.8075 -0.8816
    3OL     H2S 9869   5.419   4.883   2.478  2.7743 -1.6120  1.6047
    3OL     C13 9870   5.291   4.726   2.541  0.0840  0.1457 -0.1541
    3OL     H3R 9871   5.316   4.725   2.647 -3.7154  2.1828  0.9481
    3OL     H3S 9872   5.273   4.621   2.517 -0.5156  0.5708 -1.6863
    3OL     C14 9873   5.150   4.786   2.534  0.0408  0.1049  0.4065
    3OL     H4R 9874   5.084   4.726   2.598  0.7738  1.1670  2.2579
    3OL     H4S 9875   5.112   4.780   2.432 -1.5170 -0.4425  0.9710
    3OL     C15 9876   5.141   4.929   2.588 -0.2795  0.2650 -0.0697
    3OL     H5R 9877   5.191   4.999   2.519  1.0807 -1.2996 -0.7348
    3OL     H5S 9878   5.192   4.938   2.684  0.1040  4.1088 -0.4351
    3OL     C16 9879   4.996   4.975   2.604 -0.5456 -0.8262  0.7244
    3OL     H6R 9880   4.934   4.935   2.523 -1.7052  0.5427  0.8855
    3OL     H6S 9881   4.980   5.083   2.608  0.3274 -0.7043  1.0352
    3OL     C17 9882   4.928   4.912   2.726 -0.0337 -0.3305  1.2667
    3OL     H7R 9883   4.989   4.930   2.815  0.1132 -0.2747  1.1538
    3OL     H7S 9884   4.933   4.809   2.691  0.6260  0.1653 -0.1852
    3OL     C18 9885   4.783   4.955   2.752 -0.1134  0.0622  0.1960
    3OL     H8R 9886   4.759   4.993   2.652 -0.0199 -1.5468 -0.4771
    3OL     H8S 9887   4.780   5.040   2.820  0.7062 -1.0570  1.6736
    3OL     C19 9888   4.699   4.834   2.786  0.6362 -0.4615  0.2193
    3OL     H9R 9889   4.694   4.761   2.706  1.8750  0.7759 -1.0708
    3OL    C110 9890   4.657   4.799   2.906 -0.8025  0.4090 -0.0017
    3OL    H10R 9891   4.620   4.697   2.919 -0.8080  0.1398 -1.9010
    3OL    C111 9892   4.651   4.894   3.023 -0.3610 -0.0510  0.4028
    3OL    H11R 9893   4.725   4.974   3.020  0.2887 -0.6542  0.3339
    3OL    H11S 9894   4.677   4.838   3.113 -1.1280  0.4713  0.9679
    3OL    C112 9895   4.513   4.962   3.027 -0.5906 -0.4975  0.1282
    3OL    H12R 9896   4.427   4.895   3.023 -0.5975 -0.5955 -4.5979
    3OL    H12S 9897   4.521   5.018   2.933  4.2363 -2.6629 -1.0654
    3OL    C113 9898   4.501   5.043   3.156 -0.6046 -0.4109  0.0721
    3OL    H13R 9899   4.459   5.141   3.132  0.4959 -0.0557 -0.4974
    3OL    H13S 9900   4.599   5.075   3.194 -0.7539 -2.0919  2.0744
    3OL    C114 9901   4.422   4.983   3.273 -0.9242  0.5030  0.3361
    3OL    H14R 9902   4.428   4.874   3.283 -1.5194  0.4178 -0.2135
    3OL    H14S 9903   4.319   5.019   3.269 -1.1417 -0.2283 -1.0585
    3OL    C115 9904   4.488   5.027   3.405  0.0579  0.0998 -0.0081
    3OL    H15R 9905   4.473   5.135   3.403 -1.1346 -0.0510 -0.0473
    3OL    H15S 9906   4.596   5.016   3.398  0.6647  3.7719  1.3189
    3OL    C116 9907   4.435   4.956   3.530 -0.3351  0.2645 -0.0793
    3OL    H16R 9908   4.460   4.850   3.524  1.9885  0.6642  1.3075
    3OL    H16S 9909   4.326   4.969   3.536 -0.5269 -0.0399 -2.2525
    3OL    C117 9910   4.501   5.018   3.654 -0.2440 -0.2623  0.1377
    3OL    H17R 9911   4.462   4.971   3.745  1.0483 -1.0965  0.2921
    3OL    H17S 9912   4.487   5.126   3.647  3.3304  0.2751 -1.2696
    3OL    C118 9913   4.654   5.001   3.646 -0.2102  0.0586  0.1135
    3OL    H18R 9914   4.695   5.075   3.577  1.6927 -1.9844 -1.0344
    3OL    H18S 9915   4.678   4.900   3.615 -2.6281 -0.7481  0.6647
    3OL    H18T 9916   4.698   5.015   3.745 -1.6850 -1.8270  1.1051
    1PA    C116 9917   4.964   4.536   2.901 -0.6790 -0.0535  0.1268
    1PA    H16R 9918   4.945   4.551   3.007  1.6345 -0.1872  0.6055
    1PA    H16S 9919   4.972   4.428   2.882 -1.4593 -0.5907  2.4892
    1PA    H16T 9920   4.881   4.579   2.844 -0.4100  0.4715  0.1233
    1PA    C115 9921   5.097   4.596   2.853 -0.7674 -0.2175 -0.3333
    1PA    H15R 9922   5.112   4.556   2.753 -1.3490 -0.7745 -0.2100
    1PA    H15S 9923   5.106   4.704   2.845 -3.1900  0.1393  0.7090
    1PA    C114 9924   5.220   4.541   2.926 -0.4883  0.2658 -0.4418
    1PA    H14R 9925   5.203   4.435   2.945 -1.2181  0.4443 -0.0827
    1PA    H14S 9926   5.311   4.561   2.869  1.5443 -1.3220  1.9891
    1PA    C113 9927   5.244   4.613   3.060 -0.2683  0.1930 -0.4419
    1PA    H13R 9928   5.161   4.580   3.122 -0.2118  1.0036  0.0806
    1PA    H13S 9929   5.330   4.570   3.113  1.1617  3.8458  0.5147
    1PA    C112 9930   5.274   4.764   3.060 -0.0437  0.1482 -0.2001
    1PA    H12R 9931   5.184   4.813   3.023 -2.0689 -1.8828  1.7104
    1PA    H12S 9932   5.289   4.802   3.162  0.6377  0.9420 -0.5929
    1PA    C111 9933   5.397   4.791   2.973  0.1651  0.2020  0.1072
    1PA    H11R 9934   5.476   4.719   2.997  0.2350  0.1538 -0.2640
    1PA    H11S 9935   5.359   4.769   2.873  0.4100 -0.4006  0.1468
    1PA    C110 9936   5.443   4.935   2.999  0.3640  0.0823  0.4230
    1PA    H10R 9937   5.349   4.989   2.984  0.7620  0.6663 -0.0178
    1PA    H10S 9938   5.476   4.955   3.101 -2.4045  2.1599  1.0183
    1PA     C19 9939   5.548   4.978   2.895  0.1060 -0.2279  0.0330
    1PA     H9R 9940   5.596   5.071   2.926  1.5151 -1.1488  0.7178
    1PA     H9S 9941   5.629   4.905   2.899  0.6802  0.3812 -0.4714
    1PA     C18 9942   5.496   4.989   2.751 -0.0459 -0.0328  0.1021
    1PA     H8R 9943   5.477   4.885   2.722 -2.1329 -0.1171  1.5603
    1PA     H8S 9944   5.408   5.053   2.745  1.3759  1.8928 -2.2553
    1PA     C17 9945   5.600   5.030   2.646  0.3191  0.0040  0.4765
    1PA     H7R 9946   5.698   4.994   2.680  0.5363  0.5023  0.3840
    1PA     H7S 9947   5.577   4.977   2.553 -1.9962  2.4340 -0.4572
    1PA     C16 9948   5.607   5.180   2.614 -0.0694 -0.1105 -0.1534
    1PA     H6R 9949   5.511   5.217   2.578 -1.5543 -1.1072  2.5153
    1PA     H6S 9950   5.618   5.242   2.703 -1.0515 -1.1936  0.7567
    1PA     C15 9951   5.716   5.216   2.512 -0.1086  0.0650 -0.1332
    1PA     H5R 9952   5.809   5.187   2.562  0.2175  1.6799  0.2247
    1PA     H5S 9953   5.705   5.162   2.417 -0.0022 -0.9930  0.4422
    1PA     C14 9954   5.721   5.363   2.468 -0.2663  0.0535 -0.1917
    1PA     H4R 9955   5.625   5.392   2.424  0.5029  3.0983 -0.0499
    1PA     H4S 9956   5.752   5.429   2.550 -0.3271 -0.4475  0.2409
    1PA     C13 9957   5.831   5.380   2.363  0.1960 -0.2899  0.2347
    1PA     H3R 9958   5.932   5.352   2.395 -0.3458 -1.7413  0.7768
    1PA     H3S 9959   5.812   5.316   2.277  0.1784  0.0200  0.0087
    1PA     C12 9960   5.836   5.522   2.307  0.1577 -0.2895  0.2327
    1PA     H2R 9961   5.736   5.556   2.277  0.6513  4.7271  3.1502
    1PA     H2S 9962   5.857   5.609   2.369 -0.4647 -0.7900  1.1625
    2PC     C11 9963   5.911   5.517   2.176  0.2460  0.4018  0.2507
    2PC     O12 9964   5.872   5.568   2.073 -0.4274 -0.4185  0.0864
    2PC     O11 9965   6.027   5.450   2.191 -0.1542 -0.4949 -0.5536
    2PC      C1 9966   6.116   5.437   2.079 -0.1392 -0.1373 -0.5857
    2PC      HR 9967   6.195   5.366   2.105 -1.1419 -1.0595  0.0200
    2PC      HS 9968   6.063   5.401   1.990  0.5689  0.1330 -1.1296
    2PC      C2 9969   6.174   5.576   2.054 -0.2001  0.0867  0.5028
    2PC      HX 9970   6.095   5.651   2.068  0.6029  0.9787  0.4080
    2PC      C3 9971   6.234   5.581   1.913  0.3032  0.2593  0.7177
    2PC      HA 9972   6.336   5.542   1.916 -0.7364 -2.5837  2.2247
    2PC      HB 9973   6.173   5.519   1.847 -1.4722 -1.8179  4.0336
    2PC     O31 9974   6.229   5.719   1.870  0.2179  0.1651  0.4212
    2PC     P31 9975   6.296   5.752   1.729 -0.3946  0.0897  0.1066
    2PC     O32 9976   6.230   5.658   1.618  0.2245 -0.2055 -0.0165
    2PC     C31 9977   6.235   5.707   1.483  0.0478  0.3861  0.1868
    2PC     H1A 9978   6.195   5.808   1.475 -1.2609 -0.2415 -3.9172
    2PC     H1B 9979   6.337   5.705   1.444 -0.4887  1.0056 -1.3157
    2PC     C32 9980   6.152   5.621   1.386  0.2062  0.7978 -0.3160
    2PC     H2A 9981   6.063   5.579   1.433  2.3110 -1.0321  2.2866
    2PC     H2B 9982   6.133   5.680   1.296  1.1398  0.1072 -0.9777
    2PC     N31 9983   6.202   5.494   1.326 -0.3592  0.4584 -0.0827
    2PC     C33 9984   6.319   5.509   1.233 -0.2979 -0.3063 -0.1349
    2PC     H3A 9985   6.335   5.412   1.185  0.0699 -1.0890  1.4973
    2PC     H3B 9986   6.298   5.582   1.155 -0.2716 -1.2009 -1.0049
    2PC     H3C 9987   6.399   5.543   1.300 -1.1695 -1.1946  1.4197
    2PC     C34 9988   6.245   5.407   1.440  0.1482  0.6765 -0.1044
    2PC     H4A 9989   6.314   5.465   1.502 -1.3736  1.2342  1.1178
    2PC     H4B 9990   6.158   5.387   1.502 -1.1979 -0.8035 -2.3364
    2PC     H4C 9991   6.286   5.312   1.404 -2.5651 -0.4476 -0.4532
    2PC     C35 9992   6.088   5.436   1.247 -0.4563 -0.3617  0.6493
    2PC     H5A 9993   6.046   5.502   1.171  2.7237  0.9376 -0.1521
    2PC     H5B 9994   6.009   5.399   1.313 -0.5913 -3.6112 -1.1414
    2PC     H5C 9995   6.125   5.347   1.196 -0.9688  0.6766 -1.6355
    2PC     O33 9996   6.278   5.897   1.703 -0.0680  0.0712 -0.2295
    2PC     O34 9997   6.443   5.733   1.730 -0.3782  0.1936 -0.2454
    2PC     O21 9998   6.271   5.600   2.158 -0.0040  0.4889  0.2277
    2PC     C21 9999   6.312   5.724   2.189 -0.0403  0.3778  0.7159
    2PC     O2210000   6.264   5.817   2.127 -0.5963 -0.0375  0.5165
    3OL     C1210001   6.405   5.738   2.307 -0.0944 -0.4276  0.8554
    3OL     H2R10002   6.510   5.735   2.278 -0.5874 -1.3147 -0.9679
    3OL     H2S10003   6.392   5.651   2.373  1.6099 -0.6023  1.0222
    3OL     C1310004   6.385   5.872   2.378  0.0436 -0.1887  0.4450
    3OL     H3R10005   6.394   5.952   2.305  1.1277 -0.4616  0.2561
    3OL     H3S10006   6.467   5.885   2.450  2.2112 -0.1853 -1.8984
    3OL     C1410007   6.249   5.880   2.449 -0.2436 -0.3637 -0.0900
    3OL     H4R10008   6.179   5.829   2.382  0.7981  1.2054 -2.5124
    3OL     H4S10009   6.218   5.984   2.453  0.5601 -0.1157 -0.1228
    3OL     C1510010   6.245   5.829   2.593 -0.0249  0.1176  0.0864
    3OL     H5R10011   6.320   5.888   2.646 -1.6646  2.5130 -0.0577
    3OL     H5S10012   6.265   5.722   2.602 -1.4028 -0.5038 -2.9592
    3OL     C1610013   6.102   5.842   2.648 -0.0381 -0.3472  0.1607
    3OL     H6R10014   6.071   5.946   2.641 -0.7034 -0.5704 -0.3854
    3OL     H6S10015   6.098   5.812   2.753  0.9217  0.7923  0.5339
    3OL     C1710016   5.994   5.768   2.567 -0.1570 -0.1516  0.1392
    3OL     H7R10017   6.034   5.700   2.491 -0.4097 -1.3268  1.0191
    3OL     H7S10018   5.947   5.847   2.509 -0.0352 -0.1674  0.0185
    3OL     C1810019   5.881   5.700   2.645 -0.2674 -0.2399 -0.0982
    3OL     H8R10020   5.787   5.691   2.590 -0.4142  0.7657 -0.0209
    3OL     H8S10021   5.861   5.767   2.729 -0.2004  0.6878 -0.8201
    3OL     C1910022   5.947   5.570   2.685 -0.2495 -0.2546 -0.1775
    3OL     H9R10023   6.013   5.529   2.609 -1.9910 -1.6952 -0.9841
    3OL    C11010024   5.933   5.505   2.799 -0.3126  0.5407  0.2763
    3OL    H10R10025   5.990   5.414   2.817  0.8256  1.0935 -0.4382
    3OL    C11110026   5.840   5.545   2.911 -0.7539  0.1337  0.0604
    3OL    H11R10027   5.798   5.645   2.897 -0.5276  0.3310  0.7837
    3OL    H11S10028   5.888   5.557   3.008 -1.4350  2.3211  0.1948
    3OL    C11210029   5.729   5.439   2.914  0.2355 -0.8960  1.1409
    3OL    H12R10030   5.761   5.335   2.917  0.2331 -1.1155 -2.4819
    3OL    H12S10031   5.671   5.456   2.823  2.6145 -2.2095 -0.7176
    3OL    C11310032   5.650   5.460   3.044 -0.4164  1.1496  0.4565
    3OL    H13R10033   5.629   5.565   3.067 -1.5143  0.5842  2.1877
    3OL    H13S10034   5.707   5.418   3.128  1.3051 -0.2091 -1.3046
    3OL    C11410035   5.506   5.413   3.024  0.0529  0.0308 -0.3850
    3OL    H14R10036   5.507   5.311   2.985  1.3075  0.3634 -1.2617
    3OL    H14S10037   5.464   5.480   2.949 -0.9089 -1.3871 -1.1716
    3OL    C11510038   5.420   5.420   3.151  0.2987  0.2294 -0.2305
    3OL    H15R10039   5.313   5.404   3.142 -0.5887  1.5077  4.7015
    3OL    H15S10040   5.425   5.517   3.202 -3.1378 -1.0802  3.0679
    3OL    C11610041   5.462   5.314   3.254  0.3169  0.3529 -0.1099
    3OL    H16R10042   5.568   5.322   3.278  0.4886 -0.3555 -0.5882
    3OL    H16S10043   5.459   5.209   3.223  2.4071  0.5351 -1.1216
    3OL    C11710044   5.384   5.334   3.385  0.4060 -0.4287  0.0712
    3OL    H17R10045   5.278   5.351   3.361 -0.3417 -2.0674  2.0184
    3OL    H17S10046   5.422   5.429   3.423 -0.7389  0.0069  0.1616
    3OL    C11810047   5.395   5.217   3.483  0.4216 -0.1167  0.4407
    3OL    H18R10048   5.352   5.233   3.582  1.5950 -0.5083  1.0325
    3OL    H18S10049   5.341   5.132   3.443  2.6435 -1.7381  0.6848
    3OL    H18T10050   5.500   5.187   3.484  0.6383  0.4030 -1.8229
    1PA    C11610051   2.051   1.920   4.049 -0.2705  0.1980 -0.4205
    1PA    H16R10052   2.042   1.840   4.123 -0.7381  0.2961 -0.3650
    1PA    H16S10053   2.157   1.947   4.047  0.9339 -3.8388  0.4395
    1PA    H16T10054   1.984   2.000   4.081 -0.2537  1.0712 -2.3983
    1PA    C11510055   2.006   1.858   3.916  0.2461  0.2768 -0.6351
    1PA    H15R10056   1.903   1.822   3.918 -0.3761  1.9528  0.4292
    1PA    H15S10057   1.993   1.945   3.850 -1.6941  1.0155  0.6063
    1PA    C11410058   2.108   1.759   3.860 -0.4777 -0.6878 -0.2685
    1PA    H14R10059   2.211   1.778   3.889 -0.0874  0.0258 -1.9801
    1PA    H14S10060   2.081   1.663   3.905 -0.6578  0.7757  3.0641
    1PA    C11310061   2.111   1.763   3.706  0.0573 -0.2511 -0.2475
    1PA    H13R10062   2.162   1.853   3.671  0.6465 -0.4012  0.1970
    1PA    H13S10063   2.172   1.682   3.667  1.0612 -0.2480  1.2395
    1PA    C11210064   1.977   1.730   3.639 -0.1904  0.5904 -0.1882
    1PA    H12R10065   1.954   1.630   3.678 -1.2301  0.3078 -1.4564
    1PA    H12S10066   1.900   1.799   3.673 -0.2540 -0.5477  2.2701
    1PA    C11110067   1.977   1.722   3.486  0.5111  0.1094 -0.1700
    1PA    H11R10068   1.991   1.822   3.445 -2.2160  0.2060 -1.0324
    1PA    H11S10069   2.052   1.657   3.440 -1.0249 -0.1738 -2.4758
    1PA    C11010070   1.837   1.683   3.437  0.2410  1.1052 -0.2181
    1PA    H10R10071   1.810   1.580   3.463  1.7984  0.5176 -0.8268
    1PA    H10S10072   1.755   1.747   3.470  0.1094  1.6322 -1.5375
    1PA     C1910073   1.837   1.691   3.284  0.1145 -0.0785 -0.2912
    1PA     H9R10074   1.847   1.794   3.251  0.7785 -0.3937 -1.1047
    1PA     H9S10075   1.924   1.645   3.237  0.9823 -0.8760  1.9561
    1PA     C1810076   1.705   1.630   3.234 -0.2274  0.3876  0.0386
    1PA     H8R10077   1.672   1.544   3.293  0.1806 -0.0342 -0.3388
    1PA     H8S10078   1.625   1.704   3.239 -1.0919 -0.2633 -2.5433
    1PA     C1710079   1.697   1.585   3.088  0.1002  0.3487  0.0325
    1PA     H7R10080   1.742   1.486   3.079 -1.5379 -0.3456 -0.8576
    1PA     H7S10081   1.591   1.570   3.070  0.0589 -0.2697  0.7577
    1PA     C1610082   1.746   1.681   2.978  0.1791 -0.0167 -0.2506
    1PA     H6R10083   1.701   1.779   2.991  0.2854 -0.0646  0.5184
    1PA     H6S10084   1.854   1.694   2.990  0.0982  0.1050  0.3570
    1PA     C1510085   1.708   1.631   2.838 -0.5572 -0.6153  0.1561
    1PA     H5R10086   1.600   1.620   2.823 -0.6127 -1.0427  0.8400
    1PA     H5S10087   1.753   1.703   2.769 -0.6913 -1.0184 -0.3679
    1PA     C1410088   1.776   1.498   2.803 -0.1267 -0.3546 -0.0081
    1PA     H4R10089   1.872   1.504   2.855 -0.7691  0.6908  1.0809
    1PA     H4S10090   1.714   1.425   2.856  1.3131 -0.4131  1.6923
    1PA     C1310091   1.782   1.467   2.653 -0.5815 -0.3492 -0.0292
    1PA     H3R10092   1.683   1.465   2.608 -0.2907  0.9934 -0.7745
    1PA     H3S10093   1.837   1.548   2.604  2.3681 -1.2883  1.5070
    1PA     C1210094   1.860   1.338   2.620 -0.0113 -0.0225  0.0336
    1PA     H2R10095   1.962   1.346   2.659 -0.0446  1.0664 -0.0581
    1PA     H2S10096   1.825   1.250   2.674 -2.0764  0.8249  0.1852
    2PC     C1110097   1.856   1.322   2.470  0.1166  0.0292  0.0246
    2PC     O1210098   1.763   1.271   2.411 -0.2938  0.5511  0.2107
    2PC     O1110099   1.963   1.372   2.405 -0.0175  0.2530 -0.0245
    2PC      C110100   1.975   1.366   2.262 -0.0275 -0.1081 -0.0112
    2PC      HR10101   2.082   1.388   2.255  0.0329  0.3979  1.9864
    2PC      HS10102   1.960   1.264   2.227  1.0196 -0.2862  0.0011
    2PC      C210103   1.890   1.479   2.202  0.6067  0.2719 -0.2124
    2PC      HX10104   1.782   1.462   2.205  0.5768  0.5736  1.6946
    2PC      C310105   1.927   1.502   2.055  0.4560  0.7501 -0.1797
    2PC      HA10106   1.918   1.414   1.990  0.7277  0.6600 -0.0996
    2PC      HB10107   1.872   1.583   2.007 -0.8836  1.4907  2.4149
    2PC     O3110108   2.065   1.542   2.064  0.6880 -0.1402  0.4055
    2PC     P3110109   2.144   1.597   1.936 -0.5178  0.1567 -0.2287
    2PC     O3210110   2.275   1.505   1.942 -0.6123  0.0784  0.8931
    2PC     C3110111   2.277   1.380   1.871 -0.1300  0.5242  0.1043
    2PC     H1A10112   2.223   1.302   1.924  0.6215 -1.9470 -2.5388
    2PC     H1B10113   2.225   1.386   1.775  2.7640 -0.6211 -1.6717
    2PC     C3210114   2.426   1.344   1.856 -0.4114 -0.4124 -0.5438
    2PC     H2A10115   2.476   1.370   1.950 -0.2875  0.3538 -0.8115
    2PC     H2B10116   2.441   1.238   1.835  3.0785 -0.4535  1.3268
    2PC     N3110117   2.501   1.408   1.743  0.2015 -0.3953 -0.1290
    2PC     C3310118   2.649   1.381   1.746  0.2430 -0.1576 -0.0251
    2PC     H3A10119   2.708   1.438   1.819  1.7916 -1.2436 -0.3795
    2PC     H3B10120   2.658   1.274   1.767 -0.7973  0.1321  2.2840
    2PC     H3C10121   2.684   1.402   1.645  1.3402 -0.6198  0.2454
    2PC     C3410122   2.442   1.364   1.613  0.8515 -0.0248 -0.5522
    2PC     H4A10123   2.445   1.255   1.616 -2.8499 -0.2334 -0.6742
    2PC     H4B10124   2.342   1.406   1.602  0.5339 -0.7107 -0.3145
    2PC     H4C10125   2.503   1.402   1.530 -0.3016  0.5287 -1.1751
    2PC     C3510126   2.488   1.556   1.756 -0.1218 -0.4194 -0.1797
    2PC     H5A10127   2.522   1.592   1.854 -1.6527  0.6215  0.0085
    2PC     H5B10128   2.382   1.578   1.744  0.4646  1.6947 -2.1005
    2PC     H5C10129   2.542   1.604   1.675  0.8112 -0.8272  0.1904
    2PC     O3310130   2.066   1.594   1.810 -0.2124  1.3105 -0.4604
    2PC     O3410131   2.191   1.737   1.934 -0.3335  0.0990 -0.0202
    2PC     O2110132   1.906   1.598   2.282 -0.4561 -0.0765  0.5503
    2PC     C2110133   1.843   1.709   2.240  0.4588  0.0365 -0.5831
    2PC     O2210134   1.738   1.709   2.178  0.1665 -0.0505 -0.0916
    3OL     C1210135   1.905   1.827   2.312 -0.2358  0.0326  0.0290
    3OL     H2R10136   1.964   1.885   2.241 -1.5698 -0.6226 -1.7023
    3OL     H2S10137   1.971   1.787   2.389  1.5359  0.4527 -1.2094
    3OL     C1310138   1.797   1.904   2.390 -0.1893  0.3382 -0.2085
    3OL     H3R10139   1.761   1.848   2.477 -1.1308  1.5173  0.1879
    3OL     H3S10140   1.713   1.914   2.321  0.2508  0.7398 -0.6892
    3OL     C1410141   1.859   2.036   2.435  0.5865 -0.1831  0.2767
    3OL     H4R10142   1.883   2.095   2.346 -2.0201  2.8480  1.3919
    3OL     H4S10143   1.951   2.016   2.491  0.4571 -0.7508  0.2938
    3OL     C1510144   1.761   2.116   2.522  0.2487 -0.1575 -0.1221
    3OL     H5R10145   1.661   2.107   2.482  0.9602  0.1523 -2.0605
    3OL     H5S10146   1.787   2.222   2.524 -1.4521  0.3240  3.0045
    3OL     C1610147   1.762   2.059   2.665  0.3945  0.3125  0.0676
    3OL     H6R10148   1.865   2.048   2.700 -0.0788 -1.6071  0.9640
    3OL     H6S10149   1.728   1.956   2.674  1.2058 -0.1122 -1.2961
    3OL     C1710150   1.689   2.149   2.765 -0.3760 -0.1847 -0.0423
    3OL     H7R10151   1.590   2.170   2.724 -0.9657 -1.4129  0.7080
    3OL     H7S10152   1.729   2.251   2.773 -1.4319  0.2392  0.0466
    3OL     C1810153   1.687   2.090   2.906  0.4103 -0.0004  0.0517
    3OL     H8R10154   1.779   2.040   2.937 -0.6788 -1.1260  1.6949
    3OL     H8S10155   1.622   2.002   2.904  1.7805 -1.1069  1.4369
    3OL     C1910156   1.642   2.187   3.012 -0.4680  0.2588 -0.5458
    3OL     H9R10157   1.534   2.201   3.016 -0.2592  1.7122  1.3320
    3OL    C11010158   1.717   2.226   3.114 -0.3607 -0.7592 -0.2288
    3OL    H10R10159   1.671   2.279   3.197  0.7657  1.1285 -0.7513
    3OL    C11110160   1.868   2.222   3.119 -0.3414 -0.0118 -0.1833
    3OL    H11R10161   1.907   2.139   3.060 -1.0367 -1.2318  1.0178
    3OL    H11S10162   1.898   2.205   3.223  0.2030  3.1857  0.3008
    3OL    C11210163   1.935   2.354   3.077 -0.0064 -0.0104  0.3514
    3OL    H12R10164   1.922   2.372   2.970 -0.2440  1.7738  0.6572
    3OL    H12S10165   2.043   2.346   3.095  0.8214  1.8149 -2.9434
    3OL    C11310166   1.894   2.474   3.163 -0.3569  0.0353  0.1209
    3OL    H13R10167   1.929   2.459   3.265  1.4553 -0.2795 -0.5035
    3OL    H13S10168   1.785   2.477   3.160 -0.4459 -1.4147  1.2351
    3OL    C11410169   1.948   2.601   3.095  0.1680 -0.2711 -0.0338
    3OL    H14R10170   1.917   2.619   2.992  1.5157 -0.6844 -0.5372
    3OL    H14S10171   2.056   2.597   3.075  0.0192  1.8995 -1.6419
    3OL    C11510172   1.896   2.725   3.169  0.0133 -0.0600 -0.4931
    3OL    H15R10173   1.792   2.705   3.194  1.0137 -0.3926  4.1620
    3OL    H15S10174   1.893   2.814   3.106 -4.2756 -0.3075 -0.9473
    3OL    C11610175   1.973   2.746   3.300 -0.4378  0.0115 -0.2402
    3OL    H16R10176   2.080   2.730   3.285 -0.6559 -1.1142 -0.6748
    3OL    H16S10177   1.936   2.671   3.370 -0.4885  1.4685  1.3766
    3OL    C11710178   1.938   2.881   3.365  0.0280 -0.0373  0.1139
    3OL    H17R10179   1.838   2.870   3.407  0.1070 -1.0101  0.0624
    3OL    H17S10180   1.945   2.958   3.288  0.7860  0.6013  0.8028
    3OL    C11810181   2.038   2.906   3.479  0.4186  0.2263 -0.2804
    3OL    H18R10182   1.997   2.962   3.564 -0.3999 -0.0969 -0.4548
    3OL    H18S10183   2.126   2.955   3.437  0.7919  1.9528  2.2633
    3OL    H18T10184   2.059   2.811   3.529  2.3545  0.0875 -1.2735
    1PA    C11610185   5.911   1.595   3.494  0.3684 -0.2243  0.0596
    1PA    H16R10186   5.923   1.546   3.591  1.5892 -2.2427 -1.0416
    1PA    H16S10187   5.826   1.545   3.446  0.0854  0.7438 -0.4754
    1PA    H16T10188   5.891   1.702   3.506  0.5376 -0.2936  0.9750
    1PA    C11510189   6.046   1.578   3.423  0.1485 -0.2681 -0.3504
    1PA    H15R10190   6.034   1.599   3.316 -0.0957 -0.4959 -0.3695
    1PA    H15S10191   6.124   1.642   3.463  0.4828 -1.9109  1.8508
    1PA    C11410192   6.092   1.432   3.438 -0.1763 -0.3299  0.0587
    1PA    H14R10193   6.195   1.424   3.403 -0.7000 -1.0362 -1.4257
    1PA    H14S10194   6.101   1.409   3.544  0.4340 -1.2007 -0.1740
    1PA    C11310195   6.007   1.322   3.371  0.0544 -0.0225 -0.7486
    1PA    H13R10196   6.077   1.239   3.361 -0.1505 -0.6198  2.0637
    1PA    H13S10197   5.921   1.290   3.429  1.3057 -0.0342  1.2112
    1PA    C11210198   5.961   1.369   3.232 -1.0594  0.3626 -0.2545
    1PA    H12R10199   5.898   1.456   3.253  2.2795  2.6624  1.1279
    1PA    H12S10200   6.044   1.400   3.170 -1.2344  2.0438  0.3059
    1PA    C11110201   5.888   1.246   3.177 -0.5696 -0.2667  0.4794
    1PA    H11R10202   5.837   1.188   3.254 -0.9024  2.6485  2.5868
    1PA    H11S10203   5.802   1.285   3.122  0.1449  2.3407  1.1063
    1PA    C11010204   5.963   1.147   3.086 -0.3607  0.0434  0.3131
    1PA    H10R10205   5.990   1.191   2.990 -1.9077 -0.7617 -0.5175
    1PA    H10S10206   6.055   1.116   3.137 -0.6039 -1.4293 -0.0858
    1PA     C1910207   5.888   1.018   3.052 -0.0331 -0.1792  0.4258
    1PA     H9R10208   5.963   0.968   2.991  1.0765  0.6799  1.0464
    1PA     H9S10209   5.863   0.965   3.145  0.1117 -2.1618 -0.6102
    1PA     C1810210   5.763   1.031   2.965  0.2018  0.2290  0.1482
    1PA     H8R10211   5.734   0.932   2.928  0.3827 -0.2163  1.1904
    1PA     H8S10212   5.677   1.067   3.021 -1.3200 -1.3669 -1.0214
    1PA     C1710213   5.774   1.113   2.836  0.2646  0.0218  0.0209
    1PA     H7R10214   5.788   1.217   2.867 -1.5283  0.5581 -0.8321
    1PA     H7S10215   5.864   1.097   2.776 -0.1517  1.8385 -1.1862
    1PA     C1610216   5.650   1.100   2.747  0.6408 -0.6487 -0.4118
    1PA     H6R10217   5.645   1.004   2.693  0.8606 -0.1557 -1.3335
    1PA     H6S10218   5.559   1.101   2.808  0.3768 -4.1067 -0.5341
    1PA     C1510219   5.641   1.198   2.629 -0.1532 -0.2346 -0.0172
    1PA     H5R10220   5.736   1.248   2.609 -0.4912  0.4594  0.0775
    1PA     H5S10221   5.617   1.136   2.542 -1.6876 -1.1454  1.0180
    1PA     C1410222   5.534   1.303   2.662  0.0282  0.0564 -0.3481
    1PA     H4R10223   5.435   1.266   2.685 -0.0518  0.8165  0.5928
    1PA     H4S10224   5.578   1.351   2.750  0.8209 -1.9477  0.4024
    1PA     C1310225   5.520   1.407   2.550  0.7139  0.7666  0.2084
    1PA     H3R10226   5.612   1.465   2.545 -0.7181  3.0849 -1.3527
    1PA     H3S10227   5.510   1.367   2.449 -1.6550  2.2689 -0.2243
    1PA     C1210228   5.409   1.507   2.586 -0.0062  0.0280  0.0710
    1PA     H2R10229   5.312   1.457   2.591 -0.1485 -0.0223 -2.1844
    1PA     H2S10230   5.419   1.554   2.684  0.2990  0.6780 -0.2644
    2PC     C1110231   5.416   1.621   2.488 -0.1643 -0.0846 -0.0724
    2PC     O1210232   5.492   1.628   2.393  0.0097  0.7876  0.1231
    2PC     O1110233   5.326   1.717   2.515  0.1900  0.0980  0.4734
    2PC      C110234   5.295   1.819   2.419 -0.2343 -0.3319  0.1460
    2PC      HR10235   5.229   1.892   2.466 -1.0334 -0.5409 -0.6110
    2PC      HS10236   5.386   1.878   2.403  0.6904 -0.9013  2.7751
    2PC      C210237   5.229   1.763   2.292 -0.8432  0.0991  0.2694
    2PC      HX10238   5.308   1.706   2.244 -0.1425 -1.0517  2.6198
    2PC      C310239   5.182   1.872   2.195 -0.4190  0.0666  0.0292
    2PC      HA10240   5.083   1.906   2.226 -0.0041 -0.9607  2.6835
    2PC      HB10241   5.252   1.956   2.189 -0.5173  0.2149  0.8432
    2PC     O3110242   5.176   1.817   2.062  0.2070  0.1629 -0.0461
    2PC     P3110243   5.119   1.903   1.939 -0.1088  0.0183 -0.0038
    2PC     O3210244   5.081   1.785   1.837  0.0269 -0.1539  0.1436
    2PC     C3110245   4.958   1.714   1.861 -0.0351 -0.1420 -0.1415
    2PC     H1A10246   4.960   1.672   1.962 -0.2577  1.2282  0.4533
    2PC     H1B10247   4.877   1.787   1.850 -0.1955 -0.3463 -0.3392
    2PC     C3210248   4.943   1.594   1.766 -0.3463 -0.4752  0.3254
    2PC     H2A10249   4.847   1.554   1.799 -0.1158 -2.1322 -0.8728
    2PC     H2B10250   4.924   1.630   1.664  2.7360  1.3453  0.2819
    2PC     N3110251   5.049   1.489   1.773 -0.1630 -0.3299 -0.1869
    2PC     C3310252   5.149   1.537   1.673 -0.2589  0.1017 -0.0752
    2PC     H3A10253   5.115   1.540   1.569  0.7250 -2.3009 -0.5262
    2PC     H3B10254   5.191   1.633   1.702  2.5610 -0.8567 -0.7120
    2PC     H3C10255   5.230   1.465   1.680  0.5454  0.8534 -1.2033
    2PC     C3410256   5.110   1.463   1.908  0.3632  0.2296 -0.3160
    2PC     H4A10257   5.206   1.413   1.894  1.1438  1.4577  0.4079
    2PC     H4B10258   5.121   1.560   1.958 -2.4206 -0.4812  1.9505
    2PC     H4C10259   5.036   1.417   1.973 -1.2102 -0.4566 -2.4879
    2PC     C3510260   4.988   1.363   1.718  0.0922 -0.5109 -0.0566
    2PC     H5A10261   5.068   1.289   1.708 -0.4811 -1.3314  1.2155
    2PC     H5B10262   4.953   1.387   1.618  0.0740  1.8718  0.4499
    2PC     H5C10263   4.907   1.343   1.788 -1.7866  1.0330 -1.6835
    2PC     O3310264   4.998   1.983   1.966 -0.0039 -0.1738  1.0585
    2PC     O3410265   5.231   1.987   1.889 -0.0588 -0.1233 -0.1311
    2PC     O2110266   5.117   1.678   2.323 -0.6668 -0.3230 -0.2481
    2PC     C2110267   5.121   1.544   2.320  0.0312 -0.3065 -0.2844
    2PC     O2210268   5.206   1.466   2.281  0.2749 -0.1409 -0.0848
    3OL     C1210269   4.983   1.497   2.360  0.1948 -0.0362  0.6224
    3OL     H2R10270   4.935   1.456   2.271  0.7058 -2.0311  1.2171
    3OL     H2S10271   4.926   1.582   2.398  2.0436  1.6549 -0.2231
    3OL     C1310272   4.989   1.387   2.467 -0.0584 -0.7589 -0.1000
    3OL     H3R10273   5.047   1.426   2.550 -0.1433  0.3855 -0.5646
    3OL     H3S10274   5.048   1.305   2.426  0.4097  0.1352 -1.2609
    3OL     C1410275   4.854   1.335   2.519 -0.1782  0.1404  0.4965
    3OL     H4R10276   4.795   1.293   2.438  0.5511 -0.3437  0.2023
    3OL     H4S10277   4.797   1.407   2.578  0.7426 -0.3938  2.1174
    3OL     C1510278   4.871   1.203   2.597 -0.0118 -0.1156  0.0296
    3OL     H5R10279   4.936   1.134   2.543  0.3651 -0.4770  0.9449
    3OL     H5S10280   4.776   1.152   2.612 -1.8372  2.7218 -0.9571
    3OL     C1610281   4.949   1.217   2.728 -0.3619  0.2300  0.2032
    3OL     H6R10282   4.920   1.307   2.783  2.3090  1.9729 -1.0230
    3OL     H6S10283   5.057   1.228   2.722 -0.2371  1.1913  2.9857
    3OL     C1710284   4.943   1.092   2.817 -0.3806 -0.3648 -0.6239
    3OL     H7R10285   4.993   1.009   2.765 -0.9583 -0.9828 -0.2162
    3OL     H7S10286   4.838   1.063   2.828 -0.2437 -0.8090 -0.4452
    3OL     C1810287   5.018   1.109   2.950 -0.3205 -0.4907 -0.6414
    3OL     H8R10288   4.985   1.198   3.003  1.2055  0.6586 -1.5166
    3OL     H8S10289   5.122   1.144   2.942 -0.5500  0.2330 -0.5354
    3OL     C1910290   5.002   0.993   3.044  0.1814 -0.2354 -0.2376
    3OL     H9R10291   4.989   0.895   2.999 -2.1517 -0.3653  0.6093
    3OL    C11010292   5.000   1.004   3.176 -0.0599 -0.6285 -0.2078
    3OL    H10R10293   4.992   0.913   3.236 -1.5510  0.4479  1.3212
    3OL    C11110294   5.028   1.130   3.253 -0.9604 -0.5605  0.0156
    3OL    H11R10295   4.944   1.194   3.225 -1.0108 -1.2990 -1.6258
    3OL    H11S10296   5.116   1.183   3.217 -0.7481  0.1686  1.5003
    3OL    C11210297   5.041   1.114   3.405 -0.2766 -0.3019 -0.0139
    3OL    H12R10298   4.952   1.076   3.455 -0.0931  0.2487  0.7622
    3OL    H12S10299   5.061   1.215   3.442  0.9488 -0.0990 -1.1434
    3OL    C11310300   5.166   1.032   3.440  0.0411  0.0506 -0.3089
    3OL    H13R10301   5.246   1.090   3.394 -1.1973  1.9212 -0.2268
    3OL    H13S10302   5.160   0.934   3.392  2.0777  0.3378 -1.2646
    3OL    C11410303   5.196   1.025   3.591  0.5844 -0.2113 -0.4284
    3OL    H14R10304   5.137   1.100   3.643 -2.0268 -2.3905 -0.0219
    3OL    H14S10305   5.304   1.032   3.607  0.2607  0.3599  1.8537
    3OL    C11510306   5.159   0.889   3.650 -0.0969  0.1993  0.0924
    3OL    H15R10307   5.222   0.806   3.616 -0.2252 -0.5676  1.5976
    3OL    H15S10308   5.053   0.867   3.634  0.2121 -1.2764 -0.1283
    3OL    C11610309   5.184   0.890   3.802  0.3274  0.1468  0.0239
    3OL    H16R10310   5.099   0.952   3.832  1.4461  1.7156  0.0690
    3OL    H16S10311   5.280   0.938   3.821  1.6076 -2.2111 -0.2201
    3OL    C11710312   5.181   0.752   3.867 -0.0809  0.1479  0.0143
    3OL    H17R10313   5.096   0.693   3.832  1.2935 -1.4679 -0.7485
    3OL    H17S10314   5.173   0.766   3.975 -1.3838  0.3543 -0.0925
    3OL    C11810315   5.310   0.673   3.840  0.0638  0.6907 -0.9430
    3OL    H18R10316   5.301   0.571   3.878  0.1447  1.0958  0.2244
    3OL    H18S10317   5.402   0.721   3.875  0.2362  0.6738 -1.3762
    3OL    H18T10318   5.323   0.652   3.734  0.1466  0.5724 -0.9101
    1PA    C11610319   1.136   0.666   3.661 -0.4664  0.9069 -0.7630
    1PA    H16R10320   1.197   0.610   3.733 -1.1313 -0.3523 -1.1547
    1PA    H16S10321   1.038   0.621   3.678 -0.3730  1.9082  3.6099
    1PA    H16T10322   1.146   0.771   3.687  0.2361  0.7628 -0.4227
    1PA    C11510323   1.179   0.632   3.518 -0.1389 -0.6252 -0.3272
    1PA    H15R10324   1.281   0.670   3.510 -0.1199 -0.7214 -0.5604
    1PA    H15S10325   1.177   0.525   3.498  0.0719 -0.3733 -1.8609
    1PA    C11410326   1.089   0.706   3.417 -0.0827  0.3425  0.3173
    1PA    H14R10327   1.091   0.814   3.430  0.5019  0.7286 -2.3937
    1PA    H14S10328   1.129   0.687   3.317 -3.2035 -1.7406 -0.6763
    1PA    C11310329   0.947   0.648   3.414 -0.0181  0.2033  0.0006
    1PA    H13R10330   0.964   0.540   3.418  0.2496  0.2099 -0.7223
    1PA    H13S10331   0.896   0.671   3.507 -3.5995  0.2906 -1.8267
    1PA    C11210332   0.863   0.714   3.304  0.0386 -0.5974 -0.5416
    1PA    H12R10333   0.873   0.823   3.308 -2.5922 -0.3006  2.2858
    1PA    H12S10334   0.895   0.678   3.207 -0.0588  2.1956 -1.6887
    1PA    C11110335   0.719   0.664   3.321 -0.2062  0.1931 -0.2200
    1PA    H11R10336   0.711   0.557   3.300  0.6283  0.1297 -0.2472
    1PA    H11S10337   0.686   0.677   3.425 -1.1737 -0.8195 -0.3749
    1PA    C11010338   0.622   0.737   3.227 -0.1793 -0.0626 -0.4483
    1PA    H10R10339   0.527   0.725   3.279 -1.3346  1.0546 -2.1864
    1PA    H10S10340   0.641   0.845   3.233 -0.7907  0.2176 -2.6388
    1PA     C1910341   0.613   0.687   3.082 -0.7022 -0.3161 -0.3286
    1PA     H9R10342   0.536   0.747   3.032 -0.3180  1.5537  1.1923
    1PA     H9S10343   0.707   0.712   3.033 -1.2922  2.1108 -0.3626
    1PA     C1810344   0.582   0.538   3.064 -0.1029 -0.5132  0.2140
    1PA     H8R10345   0.650   0.483   3.129 -0.2209 -2.7874 -1.4824
    1PA     H8S10346   0.479   0.523   3.097 -0.0603 -2.3422 -0.3555
    1PA     C1710347   0.604   0.492   2.919 -0.1851  0.3621 -0.0841
    1PA     H7R10348   0.524   0.532   2.857 -0.6676 -1.2832 -0.5780
    1PA     H7S10349   0.702   0.524   2.882  0.8578 -1.5549  0.8329
    1PA     C1610350   0.585   0.341   2.897 -0.3389  0.3862 -0.1166
    1PA     H6R10351   0.664   0.290   2.953 -0.3261  0.5247 -0.0068
    1PA     H6S10352   0.491   0.308   2.940 -0.4212  1.4249  0.5350
    1PA     C1510353   0.595   0.312   2.746 -0.1344  0.3316 -0.0928
    1PA     H5R10354   0.524   0.383   2.703 -0.7112  1.3935  2.3981
    1PA     H5S10355   0.690   0.345   2.703 -0.3992  1.5461  0.2264
    1PA     C1410356   0.545   0.173   2.704  0.2305 -0.0454  0.6948
    1PA     H4R10357   0.608   0.095   2.747  1.6703 -0.0579 -1.3452
    1PA     H4S10358   0.442   0.165   2.741  0.2403  0.5855  0.8643
    1PA     C1310359   0.535   0.166   2.551  0.5974 -0.6294  0.6932
    1PA     H3R10360   0.481   0.078   2.516 -0.1445  0.9891 -2.6482
    1PA     H3S10361   0.473   0.243   2.505  0.3279 -1.7185 -0.8154
    1PA     C1210362   0.671   0.170   2.480  0.2342 -0.4118  0.0018
    1PA     H2R10363   0.735   0.257   2.498  0.3935 -0.4375 -0.4461
    1PA     H2S10364   0.713   0.080   2.525 -1.4114 -1.5547 -0.6579
    2PC     C1110365   0.651   0.154   2.332  0.7542 -0.7141 -0.0359
    2PC     O1210366   0.696   0.232   2.250  0.2090 -0.1451  0.1968
    2PC     O1110367   0.578   0.046   2.300 -0.0585 -0.2530  0.2388
    2PC      C110368   0.555   0.004   2.164 -0.3907 -0.2100  0.2816
    2PC      HR10369   0.479  -0.074   2.165 -0.4760 -0.1284  1.0992
    2PC      HS10370   0.514   0.088   2.107  0.0995 -0.6930 -0.8149
    2PC      C210371   0.682  -0.051   2.098 -0.4988  0.3925 -0.4467
    2PC      HX10372   0.769  -0.001   2.139  0.0735 -1.5190  0.8140
    2PC      C310373   0.668  -0.047   1.945 -0.4137  0.4001 -0.4542
    2PC      HA10374   0.622   0.048   1.916  0.8990  0.4300 -2.7004
    2PC      HB10375   0.760  -0.055   1.887  0.5626 -2.3314  1.2680
    2PC     O3110376   0.578  -0.153   1.907 -0.1329  0.0511 -0.1648
    2PC     P3110377   0.573  -0.195   1.752  0.0796 -0.2286 -0.0954
    2PC     O3210378   0.413  -0.200   1.740  0.0674 -0.3604  0.1116
    2PC     C3110379   0.360  -0.289   1.641 -0.3532 -0.2207  0.2096
    2PC     H1A10380   0.387  -0.248   1.544 -0.2619  0.6361  0.5929
    2PC     H1B10381   0.416  -0.383   1.650  2.5803  1.4024 -0.0245
    2PC     C3210382   0.208  -0.313   1.648 -0.5136  0.6089 -0.2929
    2PC     H2A10383   0.175  -0.349   1.551 -3.0406  3.8761 -0.8049
    2PC     H2B10384   0.196  -0.383   1.731 -1.2499 -0.3004 -1.1422
    2PC     N3110385   0.125  -0.196   1.693 -0.4236  0.4517  0.2858
    2PC     C3310386   0.145  -0.161   1.838 -0.3838  0.0678  0.3755
    2PC     H3A10387   0.107  -0.257   1.873 -1.2673 -0.3212 -1.5010
    2PC     H3B10388   0.252  -0.150   1.852 -0.4649  1.5913  0.0205
    2PC     H3C10389   0.087  -0.076   1.874 -0.2565 -1.0254  3.4772
    2PC     C3410390   0.160  -0.084   1.601  0.5415  0.1305  0.2424
    2PC     H4A10391   0.081  -0.010   1.616 -0.6599 -0.2696 -3.2413
    2PC     H4B10392   0.258  -0.053   1.637 -0.9071  2.4511  2.4857
    2PC     H4C10393   0.161  -0.105   1.494 -0.9553  2.4587 -0.3108
    2PC     C3510394  -0.019  -0.234   1.677 -0.2079 -0.1099 -0.3716
    2PC     H5A10395  -0.049  -0.232   1.572 -0.3713 -1.0933 -0.3486
    2PC     H5B10396  -0.071  -0.165   1.743  2.4567  1.0066  0.7044
    2PC     H5C10397  -0.025  -0.335   1.718  3.1974 -0.4115 -0.3343
    2PC     O3310398   0.638  -0.091   1.670 -0.3288  0.0136 -0.1183
    2PC     O3410399   0.639  -0.324   1.722 -0.0898 -0.5847  1.0241
    2PC     O2110400   0.699  -0.186   2.147  0.0781  0.4868 -0.3882
    2PC     C2110401   0.810  -0.251   2.109 -0.2996  0.1000 -0.8457
    2PC     O2210402   0.912  -0.205   2.060 -0.0471 -0.1902 -0.5943
    3OL     C1210403   0.796  -0.397   2.140  0.0504  0.1667 -0.3605
    3OL     H2R10404   0.820  -0.441   2.043  0.4089 -1.4022  0.4044
    3OL     H2S10405   0.694  -0.432   2.160  0.0091  0.4843  0.0045
    3OL     C1310406   0.895  -0.444   2.247 -0.4572  0.1626  0.1153
    3OL     H3R10407   0.999  -0.430   2.216 -0.2309  1.2447  1.2418
    3OL     H3S10408   0.896  -0.553   2.245  0.2326  0.1698 -2.1110
    3OL     C1410409   0.870  -0.376   2.383  0.0468  0.2120  0.1872
    3OL     H4R10410   0.763  -0.362   2.397  0.4430  1.1707  2.7109
    3OL     H4S10411   0.908  -0.274   2.379 -1.2438  0.6934 -0.1836
    3OL     C1510412   0.933  -0.451   2.501 -0.5776 -0.1244  0.3099
    3OL     H5R10413   1.042  -0.441   2.502 -0.4940 -0.9171  1.5321
    3OL     H5S10414   0.905  -0.557   2.498 -0.8753 -0.1486  2.3235
    3OL     C1610415   0.880  -0.420   2.642  0.0935 -0.7690  0.7130
    3OL     H6R10416   0.780  -0.464   2.647  0.0842 -0.8452  0.0478
    3OL     H6S10417   0.861  -0.313   2.657  1.6469 -0.4264  0.4552
    3OL     C1710418   0.972  -0.473   2.752  0.8875 -0.0160  0.4306
    3OL     H7R10419   1.074  -0.434   2.744  0.0798  1.7899 -2.2792
    3OL     H7S10420   0.978  -0.580   2.729  1.2845  0.3691 -1.3952
    3OL     C1810421   0.917  -0.440   2.892 -0.5081  0.3119 -0.1821
    3OL     H8R10422   0.916  -0.535   2.945 -0.8286 -0.9198 -2.2814
    3OL     H8S10423   0.817  -0.396   2.894 -0.7342 -0.2056  0.0760
    3OL     C1910424   1.008  -0.349   2.970  0.0379 -0.1053 -0.3270
    3OL     H9R10425   1.094  -0.403   3.007  0.0556  0.6880  0.8245
    3OL    C11010426   1.000  -0.218   2.986  0.1169 -0.1520  0.0994
    3OL    H10R10427   1.076  -0.161   3.039  0.9324 -1.0503 -0.0766
    3OL    C11110428   0.891  -0.130   2.930  0.4383  0.3148  0.1988
    3OL    H11R10429   0.821  -0.089   3.003 -1.5803 -0.2762 -1.3153
    3OL    H11S10430   0.840  -0.185   2.851 -0.6865  1.6680 -0.0596
    3OL    C11210431   0.945  -0.004   2.862  0.9250  0.0135  0.0253
    3OL    H12R10432   1.011   0.050   2.930  0.9927 -1.8143  1.4855
    3OL    H12S10433   0.858   0.058   2.839  1.7332  0.8923 -0.8001
    3OL    C11310434   1.035  -0.028   2.740  0.4316 -0.6310 -0.2096
    3OL    H13R10435   0.972  -0.093   2.677  0.6238 -0.8318 -0.1964
    3OL    H13S10436   1.121  -0.087   2.771  0.7605  1.1041  2.4219
    3OL    C11410437   1.068   0.110   2.681  0.4878 -0.2976  0.5938
    3OL    H14R10438   1.132   0.166   2.749  0.8421  0.6997 -0.5355
    3OL    H14S10439   0.984   0.175   2.657  1.7782  1.3727  0.4181
    3OL    C11510440   1.138   0.083   2.547 -0.3028  0.6378 -0.0173
    3OL    H15R10441   1.224   0.020   2.569 -1.0555  0.2037  1.8633
    3OL    H15S10442   1.184   0.180   2.524 -0.7577  0.9888  0.5293
    3OL    C11610443   1.052   0.031   2.431  0.8358 -0.3196 -0.4474
    3OL    H16R10444   0.959   0.087   2.424  2.5617  2.6445 -1.1299
    3OL    H16S10445   1.021  -0.071   2.456  0.8025  0.0054  0.9515
    3OL    C11710446   1.123   0.021   2.295 -0.2490  0.3906 -1.0715
    3OL    H17R10447   1.144   0.121   2.254 -0.2160  1.0123  0.3956
    3OL    H17S10448   1.041  -0.013   2.231 -1.1986 -0.0553  0.3286
    3OL    C11810449   1.233  -0.086   2.301 -0.6756  0.0050  0.1255
    3OL    H18R10450   1.187  -0.166   2.359 -1.4149  1.9183  2.3840
    3OL    H18S10451   1.322  -0.050   2.354 -0.8524 -0.2193  0.5790
    3OL    H18T10452   1.260  -0.113   2.199 -0.4532 -1.3477  0.5225
    1PA    C11610453   5.318   1.271   3.866  0.0279 -0.0302 -0.1005
    1PA    H16R10454   5.308   1.175   3.816 -0.1963  0.5887 -1.2809
    1PA    H16S10455   5.224   1.287   3.919 -0.6234  0.6760 -1.4278
    1PA    H16T10456   5.396   1.275   3.943  1.8730 -0.3116 -1.8714
    1PA    C11510457   5.339   1.396   3.779  0.0045  0.3801  0.4753
    1PA    H15R10458   5.360   1.478   3.848 -0.2530  1.3789 -0.5964
    1PA    H15S10459   5.428   1.393   3.716 -1.2619  2.4226 -1.5480
    1PA    C11410460   5.215   1.431   3.696  0.1270 -0.1660  0.0625
    1PA    H14R10461   5.177   1.339   3.651  0.7214 -1.5583  2.2437
    1PA    H14S10462   5.136   1.462   3.764  0.4387  0.8879 -0.0510
    1PA    C11310463   5.240   1.543   3.594 -0.1810 -0.2204 -0.0737
    1PA    H13R10464   5.217   1.644   3.629  0.5079  0.2956 -1.0670
    1PA    H13S10465   5.346   1.544   3.569 -0.3086 -1.6139 -0.7771
    1PA    C11210466   5.160   1.514   3.466 -0.2481  0.2418 -0.1374
    1PA    H12R10467   5.205   1.584   3.395  0.5571  0.9849  1.0654
    1PA    H12S10468   5.185   1.410   3.443 -0.0077 -0.1166  1.6105
    1PA    C11110469   5.009   1.537   3.481 -0.2547  0.0296  0.1205
    1PA    H11R10470   4.964   1.469   3.553 -0.2586  1.4189  1.4894
    1PA    H11S10471   5.002   1.639   3.519 -0.4488 -0.0113  0.1922
    1PA    C11010472   4.931   1.535   3.349 -0.1997 -0.0393  0.0886
    1PA    H10R10473   4.983   1.604   3.281  3.6480 -2.7255 -0.0403
    1PA    H10S10474   4.934   1.433   3.312  0.0106  0.2394 -0.6977
    1PA     C1910475   4.782   1.569   3.361 -0.0064  0.7893  0.2304
    1PA     H9R10476   4.727   1.493   3.417  2.2287 -0.2589  1.1542
    1PA     H9S10477   4.768   1.665   3.411 -0.7970  1.1628 -0.6779
    1PA     C1810478   4.721   1.585   3.221  0.0776  0.2749  0.1308
    1PA     H8R10479   4.619   1.621   3.236 -1.6685 -3.3089 -1.8802
    1PA     H8S10480   4.774   1.658   3.160  0.3105 -1.6130 -2.0282
    1PA     C1710481   4.708   1.459   3.135  0.1286  0.0724  0.4168
    1PA     H7R10482   4.658   1.500   3.047 -2.7133  1.9490  2.7288
    1PA     H7S10483   4.807   1.424   3.105 -0.5100 -0.8523 -0.6960
    1PA     C1610484   4.617   1.350   3.192 -0.3879  0.2216 -0.1121
    1PA     H6R10485   4.686   1.300   3.261  0.4858  1.4059 -0.0923
    1PA     H6S10486   4.528   1.397   3.233 -0.2694  1.8272 -1.5753
    1PA     C1510487   4.574   1.254   3.080 -0.1402 -0.4863  0.3913
    1PA     H5R10488   4.661   1.236   3.017 -0.0846  1.0387  0.0131
    1PA     H5S10489   4.544   1.154   3.114  0.8807 -1.8977 -2.4825
    1PA     C1410490   4.463   1.315   2.993  0.3165 -0.1485  0.0379
    1PA     H4R10491   4.366   1.265   3.007  0.3250 -0.2111 -0.1267
    1PA     H4S10492   4.460   1.423   3.006 -0.7013 -0.1190 -0.3085
    1PA     C1310493   4.502   1.282   2.849  0.5001  0.0210  0.0491
    1PA     H3R10494   4.603   1.311   2.817  0.3449 -1.6084 -2.2157
    1PA     H3S10495   4.500   1.174   2.827 -1.5382  0.5162 -2.9164
    1PA     C1210496   4.407   1.338   2.742  0.3988 -0.0665  0.0934
    1PA     H2R10497   4.309   1.294   2.763  1.1607 -1.1546  1.5968
    1PA     H2S10498   4.390   1.445   2.755 -2.3937 -0.2776 -1.0224
    2PC     C1110499   4.461   1.315   2.603 -0.7865 -0.3358 -0.3393
    2PC     O1210500   4.499   1.209   2.558 -0.1263 -0.3387  0.1969
    2PC     O1110501   4.455   1.430   2.534 -0.0386  0.0671  0.2514
    2PC      C110502   4.503   1.431   2.399 -0.7742 -0.3760 -0.0182
    2PC      HR10503   4.607   1.397   2.395 -0.7045 -0.0776 -1.5332
    2PC      HS10504   4.437   1.362   2.345  0.9249 -1.7727 -0.3989
    2PC      C210505   4.501   1.578   2.353  0.5521 -0.3340  0.0201
    2PC      HX10506   4.405   1.623   2.381  1.5663  1.4192  0.8319
    2PC      C310507   4.526   1.586   2.202 -0.1620  0.2454 -0.0725
    2PC      HA10508   4.627   1.546   2.187  0.2533  0.9294  0.7506
    2PC      HB10509   4.450   1.527   2.152  0.5607  0.2153 -1.1797
    2PC     O3110510   4.514   1.723   2.160  0.1235  0.3410  0.1513
    2PC     P3110511   4.536   1.739   2.002  0.0916 -0.1613  0.0963
    2PC     O3210512   4.534   1.897   1.979  0.1242 -0.0927  0.5620
    2PC     C3110513   4.661   1.958   2.007  0.3022 -0.1844 -0.0456
    2PC     H1A10514   4.683   1.953   2.114 -0.2387  0.3294  0.0923
    2PC     H1B10515   4.743   1.914   1.949 -0.4879 -1.1174 -0.4882
    2PC     C3210516   4.636   2.102   1.958  1.2408 -0.1419 -0.4342
    2PC     H2A10517   4.536   2.141   1.981  1.3770 -0.3938  0.6636
    2PC     H2B10518   4.710   2.174   1.992  1.0627 -0.0295 -0.2777
    2PC     N3110519   4.643   2.138   1.813  0.3029 -0.0301 -0.4590
    2PC     C3310520   4.543   2.058   1.734  0.5196 -0.1190 -0.6443
    2PC     H3A10521   4.554   2.063   1.626 -0.8130  1.7025 -0.7361
    2PC     H3B10522   4.546   1.953   1.764 -1.3099 -0.2290 -0.7311
    2PC     H3C10523   4.439   2.084   1.755 -0.4648 -2.6463 -2.0372
    2PC     C3410524   4.619   2.285   1.799 -0.5515 -0.1588 -0.4310
    2PC     H4A10525   4.600   2.302   1.693  1.4335  1.0697 -0.6425
    2PC     H4B10526   4.528   2.320   1.847  0.6329 -1.6292  3.2208
    2PC     H4C10527   4.713   2.330   1.832 -0.4192  0.2028 -1.2651
    2PC     C3510528   4.780   2.105   1.763  0.0375 -0.5300 -0.8703
    2PC     H5A10529   4.783   1.996   1.762  1.7652 -0.5625 -3.4865
    2PC     H5B10530   4.854   2.155   1.827 -1.8198  1.8960 -0.4602
    2PC     H5C10531   4.787   2.143   1.661  0.6956  0.5996 -0.4281
    2PC     O3310532   4.663   1.676   1.960  0.0246 -0.5546  0.4740
    2PC     O3410533   4.432   1.662   1.929 -0.4265  0.3699  0.2639
    2PC     O2110534   4.605   1.651   2.421  0.4727 -0.4068  0.2231
    2PC     C2110535   4.595   1.780   2.455  0.1034 -0.4315  0.2162
    2PC     O2210536   4.498   1.848   2.430 -0.1682 -0.6641  0.6323
    3OL     C1210537   4.716   1.826   2.533  0.0519 -0.3033  0.2219
    3OL     H2R10538   4.713   1.933   2.555 -0.7610 -0.7023  2.2219
    3OL     H2S10539   4.807   1.797   2.480  1.2321  2.7063  0.3686
    3OL     C1310540   4.710   1.753   2.668  0.6222 -0.3711  0.2144
    3OL     H3R10541   4.696   1.646   2.656  3.4161 -0.8083  0.1104
    3OL     H3S10542   4.624   1.802   2.715  0.7833  1.6268 -1.4131
    3OL     C1410543   4.842   1.787   2.739  0.3532  1.0291  0.0861
    3OL     H4R10544   4.808   1.766   2.841 -1.3356 -0.8111 -0.7844
    3OL     H4S10545   4.871   1.892   2.733  0.6212  0.9128 -0.7790
    3OL     C1510546   4.958   1.698   2.691 -0.4375 -0.4035  0.7637
    3OL     H5R10547   4.983   1.715   2.586  0.0724 -2.8247  0.4470
    3OL     H5S10548   4.923   1.595   2.702  0.8299 -0.7899  1.3327
    3OL     C1610549   5.092   1.714   2.764 -0.0121 -0.0945 -0.0682
    3OL     H6R10550   5.114   1.821   2.764  1.6365 -0.4068 -0.5353
    3OL     H6S10551   5.174   1.658   2.720 -0.2519  0.6025 -1.4482
    3OL     C1710552   5.086   1.688   2.915  0.2613 -0.3129 -0.0944
    3OL     H7R10553   5.003   1.754   2.942  0.6204  0.6315 -1.2266
    3OL     H7S10554   5.171   1.738   2.963 -0.2538 -0.3998  0.9564
    3OL     C1810555   5.065   1.540   2.947 -0.1953 -0.1983  0.1536
    3OL     H8R10556   4.967   1.510   2.910  0.2427 -0.2444 -1.0018
    3OL     H8S10557   5.074   1.528   3.055 -0.8104  0.6698  0.3041
    3OL     C1910558   5.171   1.458   2.879 -0.0147 -0.2279  0.4681
    3OL     H9R10559   5.149   1.438   2.774  0.7732 -1.6927  0.5409
    3OL    C11010560   5.260   1.384   2.943 -0.3721 -0.3547  0.8170
    3OL    H10R10561   5.329   1.327   2.881 -0.9288  0.2582 -0.3993
    3OL    C11110562   5.295   1.403   3.089  0.1372  0.2201  0.6206
    3OL    H11R10563   5.204   1.409   3.149  0.1344 -1.8600  0.8757
    3OL    H11S10564   5.362   1.490   3.092  2.7337 -1.6303 -0.2466
    3OL    C11210565   5.386   1.290   3.139  0.4816  0.3207  0.2302
    3OL    H12R10566   5.478   1.276   3.082  0.1037 -3.1671  0.2523
    3OL    H12S10567   5.327   1.198   3.132 -1.8315  1.7996 -1.2207
    3OL    C11310568   5.422   1.297   3.288 -0.5536 -0.3048  0.5210
    3OL    H13R10569   5.323   1.298   3.334 -1.3782  0.6654 -1.1499
    3OL    H13S10570   5.471   1.394   3.296 -1.4037  0.0971  1.0590
    3OL    C11410571   5.515   1.184   3.334 -0.3630 -0.4397 -0.1746
    3OL    H14R10572   5.600   1.184   3.267  0.6413  2.2448  0.9439
    3OL    H14S10573   5.468   1.086   3.323  1.8855 -1.6073  0.1315
    3OL    C11510574   5.560   1.214   3.478  0.0401  0.4897 -0.4847
    3OL    H15R10575   5.471   1.207   3.541 -0.2592  1.3977 -0.7999
    3OL    H15S10576   5.589   1.319   3.476  3.3519 -0.2520  1.2206
    3OL    C11610577   5.676   1.131   3.534 -0.5042 -0.1979 -0.3576
    3OL    H16R10578   5.758   1.140   3.463 -0.1799 -0.6974 -0.0550
    3OL    H16S10579   5.657   1.025   3.553  0.5925 -0.5128 -0.9188
    3OL    C11710580   5.720   1.189   3.670  0.1256 -0.1150 -0.5904
    3OL    H17R10581   5.630   1.185   3.732  0.2516  1.5614 -0.2446
    3OL    H17S10582   5.753   1.293   3.666 -0.3309  0.1745  1.7116
    3OL    C11810583   5.826   1.095   3.728 -0.4682 -0.7208 -0.4707
    3OL    H18R10584   5.919   1.096   3.671  0.6110 -1.0189  1.2352
    3OL    H18S10585   5.788   0.993   3.738  3.2928 -2.0683  2.7920
    3OL    H18T10586   5.866   1.127   3.825  1.7540  0.6954 -1.7663
    1PA    C11610587   1.691   3.348   3.513 -0.0674 -0.7195 -0.1959
    1PA    H16R10588   1.585   3.373   3.502  0.2116  1.3570  1.3263
    1PA    H16S10589   1.733   3.421   3.582  2.0166 -1.6935 -0.3362
    1PA    H16T10590   1.695   3.251   3.564  2.2612  0.6382  2.4561
    1PA    C11510591   1.763   3.349   3.378  0.1636  0.4692 -0.0705
    1PA    H15R10592   1.742   3.443   3.327 -2.2206 -0.0861 -0.2193
    1PA    H15S10593   1.871   3.342   3.393  0.1916  1.3702  0.1986
    1PA    C11410594   1.718   3.237   3.283  0.0858  0.4505 -0.0110
    1PA    H14R10595   1.735   3.152   3.349  1.7223  1.0972  0.4407
    1PA    H14S10596   1.611   3.229   3.262  0.4281 -2.4346 -1.0919
    1PA    C11310597   1.813   3.211   3.166 -0.0159 -0.1546  0.0387
    1PA    H13R10598   1.910   3.175   3.202 -0.8191  0.5096  3.0961
    1PA    H13S10599   1.778   3.125   3.108 -0.0786 -0.4956  0.5766
    1PA    C11210600   1.826   3.325   3.064 -0.1662 -0.2076 -0.0407
    1PA    H12R10601   1.857   3.417   3.114  0.3986 -1.0216  1.1662
    1PA    H12S10602   1.905   3.305   2.992 -0.8528  1.0308 -1.1750
    1PA    C11110603   1.702   3.340   2.974 -0.0711  0.0575 -0.1275
    1PA    H11R10604   1.677   3.253   2.915  1.1288  0.8526 -1.8904
    1PA    H11S10605   1.621   3.365   3.043 -1.0622 -2.1399 -0.4274
    1PA    C11010606   1.722   3.453   2.871 -0.5596  0.0812 -0.1976
    1PA    H10R10607   1.745   3.548   2.919 -2.4502  0.8113 -0.6820
    1PA    H10S10608   1.810   3.433   2.810 -0.9340  1.7679 -1.3344
    1PA     C1910609   1.602   3.480   2.780 -0.4732  0.0062 -0.3338
    1PA     H9R10610   1.511   3.504   2.837 -1.7509 -0.3772 -2.1198
    1PA     H9S10611   1.618   3.575   2.729  1.3314 -0.5782 -0.9235
    1PA     C1810612   1.589   3.377   2.667  0.0080 -0.5667  0.1236
    1PA     H8R10613   1.679   3.398   2.608  0.3198 -1.5983  0.2285
    1PA     H8S10614   1.586   3.271   2.693 -4.3164 -1.2814 -2.2488
    1PA     C1710615   1.473   3.418   2.575  0.3116 -0.6201 -0.2881
    1PA     H7R10616   1.382   3.394   2.630  0.5709  0.0361  0.4520
    1PA     H7S10617   1.461   3.522   2.545 -0.2960 -0.5218  0.2776
    1PA     C1610618   1.477   3.333   2.447 -0.2265 -0.2693 -0.5431
    1PA     H6R10619   1.506   3.233   2.480  1.6220  0.8592  1.5848
    1PA     H6S10620   1.377   3.326   2.405 -1.7059  2.2417  2.1462
    1PA     C1510621   1.570   3.395   2.342  0.0366 -0.3745 -0.3727
    1PA     H5R10622   1.547   3.500   2.323 -0.6449 -0.1477  1.4386
    1PA     H5S10623   1.675   3.389   2.372  0.7667  0.5453 -2.5913
    1PA     C1410624   1.567   3.310   2.215 -0.3405 -0.1921 -0.4862
    1PA     H4R10625   1.662   3.327   2.164  0.2600  1.7164  1.1544
    1PA     H4S10626   1.572   3.207   2.250 -1.9227 -0.3287 -0.5865
    1PA     C1310627   1.450   3.332   2.118 -0.4667  0.0185 -0.2874
    1PA     H3R10628   1.371   3.277   2.169 -0.1975 -0.4434 -0.3662
    1PA     H3S10629   1.424   3.438   2.111  1.1049  0.3687 -1.4891
    1PA     C1210630   1.475   3.270   1.980 -0.5051 -0.2409 -0.1788
    1PA     H2R10631   1.520   3.172   1.994  0.0877  0.1992  1.1357
    1PA     H2S10632   1.382   3.251   1.926 -0.3924 -1.8417  0.1570
    2PC     C1110633   1.553   3.367   1.894 -0.0282 -0.0513  0.4660
    2PC     O1210634   1.674   3.378   1.887 -0.0435  0.2869  0.7083
    2PC     O1110635   1.477   3.425   1.801  0.1753 -0.5550 -0.0161
    2PC      C110636   1.522   3.534   1.719 -0.0051 -0.4457  0.0302
    2PC      HR10637   1.626   3.520   1.689 -0.3116 -1.7653 -0.4923
    2PC      HS10638   1.461   3.530   1.628  2.9109  1.2475 -2.1630
    2PC      C210639   1.491   3.668   1.787 -0.2742 -0.5366  0.0903
    2PC      HX10640   1.399   3.660   1.845  0.0321 -3.0596  0.3588
    2PC      C310641   1.468   3.792   1.699 -0.0498 -0.4405  0.1662
    2PC      HA10642   1.369   3.789   1.653  0.8162  0.5938 -1.8945
    2PC      HB10643   1.471   3.883   1.760  0.5748 -1.1648  1.2644
    2PC     O3110644   1.569   3.801   1.596 -0.6735 -0.0808 -0.4184
    2PC     P3110645   1.570   3.912   1.480 -0.3922 -0.1641 -0.4950
    2PC     O3210646   1.667   3.843   1.373 -0.0062 -0.0997 -0.1903
    2PC     C3110647   1.615   3.752   1.274 -0.2197 -0.2451  0.0549
    2PC     H1A10648   1.550   3.684   1.329  0.2781  0.0298  1.0163
    2PC     H1B10649   1.556   3.802   1.197  1.0099 -1.2285 -1.5908
    2PC     C3210650   1.730   3.672   1.211  0.6085  0.7959  0.2023
    2PC     H2A10651   1.767   3.607   1.291 -3.1750 -1.8086  0.1178
    2PC     H2B10652   1.696   3.607   1.130 -0.0275  2.9833 -1.3891
    2PC     N3110653   1.843   3.746   1.147  0.1443  0.8570 -0.5683
    2PC     C3310654   1.780   3.838   1.048 -0.6009  0.1512 -0.7605
    2PC     H3A10655   1.701   3.790   0.989 -0.8019  0.3612 -0.6645
    2PC     H3B10656   1.737   3.926   1.098 -2.1443 -0.8233 -0.3021
    2PC     H3C10657   1.868   3.863   0.988  1.1507 -0.2203  1.4990
    2PC     C3410658   1.920   3.821   1.251  0.0617 -0.0435  0.1571
    2PC     H4A10659   1.860   3.902   1.294  1.8274  1.2233  0.3671
    2PC     H4B10660   1.945   3.755   1.334  3.2623  1.9184  0.9464
    2PC     H4C10661   2.017   3.846   1.207  0.3391  1.3754  1.4622
    2PC     C3510662   1.934   3.644   1.084 -0.1490  0.0689  0.2634
    2PC     H5A10663   2.025   3.696   1.056 -0.0122  0.8330  1.9612
    2PC     H5B10664   1.885   3.594   1.000 -1.6463 -0.3392  1.3324
    2PC     H5C10665   1.960   3.571   1.160  1.7680  1.2660  0.8349
    2PC     O3310666   1.433   3.931   1.428 -0.5219 -0.2751 -0.1970
    2PC     O3410667   1.623   4.040   1.533 -0.4099 -0.5318  0.4390
    2PC     O2110668   1.603   3.706   1.870 -0.4600  0.4291 -0.0851
    2PC     C2110669   1.606   3.690   2.003  0.3594  0.1330 -0.1342
    2PC     O2210670   1.505   3.660   2.065  0.2921  0.0129 -0.3026
    3OL     C1210671   1.734   3.731   2.072  0.2282 -0.1664  0.2962
    3OL     H2R10672   1.698   3.796   2.152 -0.7148  0.9302 -0.9647
    3OL     H2S10673   1.799   3.789   2.007  2.5508 -1.6158  1.2067
    3OL     C1310674   1.807   3.604   2.117  0.3121 -0.0513  0.4851
    3OL     H3R10675   1.857   3.563   2.030  1.1286 -0.3427  1.0830
    3OL     H3S10676   1.730   3.536   2.154  0.9085 -0.2515  1.3916
    3OL     C1410677   1.905   3.635   2.231  0.7997 -0.3727  0.1541
    3OL     H4R10678   1.978   3.712   2.204  0.0563  0.6292  0.9337
    3OL     H4S10679   1.958   3.540   2.232 -1.4922 -1.7679 -1.2956
    3OL     C1510680   1.849   3.660   2.372  0.5498 -0.1198  0.0107
    3OL     H5R10681   1.794   3.567   2.390  0.7980 -0.3519 -0.3925
    3OL     H5S10682   1.790   3.751   2.363  1.1073  0.2333 -0.1337
    3OL     C1610683   1.962   3.687   2.472  0.3229  0.2015  0.1800
    3OL     H6R10684   1.998   3.790   2.470 -0.6513  0.5749  0.8838
    3OL     H6S10685   2.041   3.618   2.444  0.8498  0.9732 -0.2618
    3OL     C1710686   1.938   3.641   2.617  0.2904  0.1910  0.1714
    3OL     H7R10687   1.909   3.535   2.619  0.4205  0.1630  0.4758
    3OL     H7S10688   1.845   3.694   2.641 -1.6714 -2.5013 -0.8851
    3OL     C1810689   2.054   3.680   2.709  0.2981 -0.6186  0.5151
    3OL     H8R10690   2.078   3.785   2.687  1.0009 -1.0477 -0.9079
    3OL     H8S10691   2.133   3.607   2.689  0.1210 -0.4899 -0.7629
    3OL     C1910692   2.002   3.678   2.850  0.3766 -0.5870  0.5447
    3OL     H9R10693   1.955   3.582   2.874  0.9994 -1.8525 -2.7696
    3OL    C11010694   2.012   3.768   2.947  0.7195 -0.6704  0.5889
    3OL    H10R10695   1.971   3.746   3.045  2.6436  2.3804  2.2198
    3OL    C11110696   2.050   3.913   2.936  0.1948 -0.5650  0.1270
    3OL    H11R10697   1.963   3.979   2.947 -0.3409 -0.6813 -2.5744
    3OL    H11S10698   2.079   3.943   2.835  1.1547  0.8581  0.7869
    3OL    C11210699   2.155   3.974   3.029  0.4361 -0.3954 -0.2558
    3OL    H12R10700   2.124   3.970   3.133 -1.7477 -0.5089 -0.8754
    3OL    H12S10701   2.181   4.071   2.986  1.5336 -0.3947  0.3733
    3OL    C11310702   2.287   3.895   3.022  0.3762 -0.4925 -0.2855
    3OL    H13R10703   2.264   3.789   3.029 -0.1323 -0.2757  2.6918
    3OL    H13S10704   2.338   3.906   3.118  0.9338  0.1772 -0.6462
    3OL    C11410705   2.384   3.935   2.910  0.3985 -1.0414 -0.4612
    3OL    H14R10706   2.475   3.874   2.911 -0.0259 -1.7938  2.2099
    3OL    H14S10707   2.414   4.039   2.918  0.0457 -0.9271 -0.6248
    3OL    C11510708   2.336   3.921   2.765 -0.2258  0.3473 -0.3965
    3OL    H15R10709   2.252   3.990   2.753 -0.7341 -0.1680  0.1435
    3OL    H15S10710   2.292   3.826   2.735 -3.5144  1.8506 -0.7758
    3OL    C11610711   2.442   3.957   2.660  0.2476  0.1204 -0.0004
    3OL    H16R10712   2.525   3.890   2.683  0.7297  0.5513 -0.4659
    3OL    H16S10713   2.476   4.059   2.676 -0.2675  0.3792 -0.5413
    3OL    C11710714   2.379   3.936   2.521 -0.6153  0.0786  0.3893
    3OL    H17R10715   2.439   3.988   2.446  0.6698  0.5209  1.6774
    3OL    H17S10716   2.282   3.985   2.515 -1.6166 -1.7798  0.7378
    3OL    C11810717   2.357   3.788   2.485  0.0913  0.0197  0.1929
    3OL    H18R10718   2.445   3.727   2.509  0.2399  0.3239  0.4404
    3OL    H18S10719   2.327   3.785   2.380 -1.6389  0.2245  0.6508
    3OL    H18T10720   2.271   3.752   2.541 -1.4081  1.4421 -1.1018
    1PA    C11610721   6.205   5.554   3.087  1.1053  0.5050  0.3830
    1PA    H16R10722   6.216   5.514   3.188 -0.6131 -0.2873  0.2842
    1PA    H16S10723   6.286   5.523   3.019  1.8758  1.1841  0.9745
    1PA    H16T10724   6.112   5.522   3.039  0.4418 -0.6010  2.3086
    1PA    C11510725   6.187   5.706   3.098  0.1125  0.4624 -0.5361
    1PA    H15R10726   6.151   5.749   3.004  1.9502  1.2461 -0.9266
    1PA    H15S10727   6.107   5.732   3.168 -0.3786 -0.3551 -0.7656
    1PA    C11410728   6.312   5.784   3.140  0.4395 -0.3426  0.0138
    1PA    H14R10729   6.290   5.829   3.237  1.0675  0.2316 -0.1020
    1PA    H14S10730   6.400   5.721   3.148  2.4865  2.4729  1.1911
    1PA    C11310731   6.345   5.906   3.053  0.3950 -0.3838 -0.0616
    1PA    H13R10732   6.257   5.969   3.036  0.0757 -0.7388  0.2515
    1PA    H13S10733   6.421   5.963   3.109  0.7183 -1.1209  0.2633
    1PA    C11210734   6.394   5.865   2.914 -0.0431 -0.3009 -0.2401
    1PA    H12R10735   6.305   5.828   2.862 -0.5719 -0.8188  0.9811
    1PA    H12S10736   6.432   5.954   2.863  0.5654 -0.1188  0.5185
    1PA    C11110737   6.508   5.762   2.907  0.2094 -0.0266 -0.1649
    1PA    H11R10738   6.571   5.784   2.993 -1.5700  1.1650  0.9164
    1PA    H11S10739   6.459   5.665   2.916  1.1783 -0.3914  1.9243
    1PA    C11010740   6.583   5.780   2.775 -0.0071 -0.1473 -0.3039
    1PA    H10R10741   6.505   5.755   2.703 -0.3897  0.6552 -0.1736
    1PA    H10S10742   6.607   5.884   2.753 -1.7494  0.3508 -0.0235
    1PA     C1910743   6.700   5.682   2.756 -0.1604 -0.3813 -0.0517
    1PA     H9R10744   6.773   5.694   2.835  0.8207  1.7532 -1.2042
    1PA     H9S10745   6.657   5.582   2.766 -1.8985  0.2686 -0.4861
    1PA     C1810746   6.778   5.687   2.624  0.1471  0.5110  0.1566
    1PA     H8R10747   6.809   5.791   2.615 -1.1433  0.9236  0.2021
    1PA     H8S10748   6.877   5.643   2.632  1.8139  3.4981 -1.8113
    1PA     C1710749   6.690   5.651   2.503  0.3084  0.1882  0.1358
    1PA     H7R10750   6.608   5.723   2.499  0.8171  0.8630  1.2778
    1PA     H7S10751   6.754   5.678   2.419 -1.8976  2.3730 -0.9428
    1PA     C1610752   6.652   5.502   2.498  0.2138  0.2129  0.1120
    1PA     H6R10753   6.734   5.452   2.551  0.4723  1.5635  1.0293
    1PA     H6S10754   6.566   5.467   2.554  1.3188 -1.5188  0.8157
    1PA     C1510755   6.646   5.438   2.358 -0.1375  0.0631  0.1958
    1PA     H5R10756   6.598   5.511   2.292 -1.1805 -0.0933  0.7606
    1PA     H5S10757   6.746   5.417   2.322  0.9122  1.7784  1.9185
    1PA     C1410758   6.569   5.306   2.350  0.3163 -0.1898  0.0159
    1PA     H4R10759   6.634   5.219   2.361  1.0987  0.5262  1.2563
    1PA     H4S10760   6.495   5.303   2.430 -0.9779  0.6982 -1.1087
    1PA     C1310761   6.497   5.304   2.215  0.0188  0.2520  0.1668
    1PA     H3R10762   6.443   5.209   2.210  0.8662 -0.4888  3.2043
    1PA     H3S10763   6.424   5.386   2.211 -2.3293 -1.5901  2.1196
    1PA     C1210764   6.590   5.316   2.093 -0.1752 -0.9793 -0.1182
    1PA     H2R10765   6.654   5.402   2.110 -0.3853 -0.6141 -1.0844
    1PA     H2S10766   6.654   5.228   2.098  0.0669 -0.7305  2.1846
    2PC     C1110767   6.521   5.307   1.959  0.6870 -0.9219 -0.5735
    2PC     O1210768   6.546   5.382   1.868  0.1342 -0.0818 -0.0456
    2PC     O1110769   6.426   5.212   1.952 -0.1220 -0.1489 -0.2495
    2PC      C110770   6.337   5.208   1.839 -0.6467  0.1931  0.1432
    2PC      HR10771   6.289   5.306   1.834 -0.0206  0.5346  0.6636
    2PC      HS10772   6.404   5.185   1.756 -2.4969  0.1828 -1.4103
    2PC      C210773   6.238   5.096   1.871  0.0760 -0.4857  0.0470
    2PC      HX10774   6.289   5.000   1.859  1.0605  0.3089 -2.9612
    2PC      C310775   6.126   5.093   1.765  0.1293  0.0556 -0.0272
    2PC      HA10776   6.167   5.070   1.666 -1.7803 -1.8616 -0.4380
    2PC      HB10777   6.049   5.022   1.795 -1.0478  0.9051 -0.9212
    2PC     O3110778   6.069   5.224   1.749  0.4680  0.2217  0.1081
    2PC     P3110779   5.951   5.253   1.644  0.3027  0.1820  0.2819
    2PC     O3210780   5.940   5.413   1.638 -0.1829  0.1276 -0.3718
    2PC     C3110781   5.857   5.475   1.738  0.3937  0.0843  0.1400
    2PC     H1A10782   5.760   5.431   1.763  0.5506 -0.7102 -0.5801
    2PC     H1B10783   5.912   5.463   1.832  0.5729  2.3612  0.3736
    2PC     C3210784   5.840   5.622   1.699 -0.4251  0.0826  0.4687
    2PC     H2A10785   5.820   5.686   1.785 -0.2405  1.1580 -0.2699
    2PC     H2B10786   5.939   5.647   1.660  0.0885  0.1481  1.7838
    2PC     N3110787   5.732   5.644   1.596 -0.0888 -0.0753  0.0804
    2PC     C3310788   5.724   5.535   1.493  0.5443  0.1562 -0.2207
    2PC     H3A10789   5.825   5.524   1.454  1.5559 -0.5751  2.3580
    2PC     H3B10790   5.701   5.443   1.547 -1.7197  0.5176 -0.4559
    2PC     H3C10791   5.661   5.559   1.408 -1.4295 -1.1624  0.7898
    2PC     C3410792   5.596   5.635   1.659  0.4722  0.2175  1.3800
    2PC     H4A10793   5.590   5.717   1.730 -0.2705 -1.6657  3.6151
    2PC     H4B10794   5.526   5.651   1.577  0.5196  0.6544  1.4225
    2PC     H4C10795   5.575   5.543   1.714 -1.6319  0.1264  0.5032
    2PC     C3510796   5.747   5.781   1.537  0.8381 -0.5638 -0.8497
    2PC     H5A10797   5.821   5.766   1.458  1.0494 -0.7152 -0.6281
    2PC     H5B10798   5.774   5.851   1.616 -0.7017  0.9923 -1.6418
    2PC     H5C10799   5.652   5.814   1.495 -0.2775 -1.2109  1.0317
    2PC     O3310800   5.999   5.208   1.512 -0.4293  0.0074  0.0726
    2PC     O3410801   5.827   5.178   1.673  0.4254 -0.0607  0.1821
    2PC     O2110802   6.185   5.125   2.002  0.0476 -0.0946 -0.0483
    2PC     C2110803   6.133   5.023   2.073 -0.2357 -0.0529 -0.1932
    2PC     O2210804   6.142   4.909   2.032  0.2921  0.1573 -0.6743
    3OL     C1210805   6.074   5.063   2.206 -0.2376  0.2490 -0.2832
    3OL     H2R10806   5.978   5.013   2.215 -0.4768  0.7531  0.0075
    3OL     H2S10807   6.039   5.165   2.190  0.3023  0.7595  1.5129
    3OL     C1310808   6.177   5.047   2.319 -0.0555  0.0612 -0.4745
    3OL     H3R10809   6.276   5.075   2.282  0.7655 -1.4448  0.4766
    3OL     H3S10810   6.178   4.942   2.347 -1.5816  0.1631  0.0750
    3OL     C1410811   6.132   5.120   2.446  0.5373 -0.1148 -0.1635
    3OL     H4R10812   6.047   5.069   2.491  0.9647  0.4082  1.2969
    3OL     H4S10813   6.112   5.222   2.414 -0.2396 -0.0776  0.4182
    3OL     C1510814   6.239   5.129   2.557 -0.2986 -0.4492  0.6851
    3OL     H5R10815   6.329   5.146   2.498 -0.9060  0.7347  0.0496
    3OL     H5S10816   6.253   5.033   2.606  0.8467 -0.4002  0.4817
    3OL     C1610817   6.216   5.239   2.661  0.2988  0.2975  0.0464
    3OL     H6R10818   6.148   5.200   2.738  2.4417 -2.0965  0.8602
    3OL     H6S10819   6.169   5.327   2.618  1.2720 -0.5150 -2.8770
    3OL     C1710820   6.345   5.298   2.718  0.2862 -0.1237  0.5258
    3OL     H7R10821   6.313   5.387   2.773  1.0137  0.4399  0.0575
    3OL     H7S10822   6.415   5.326   2.639 -0.4241 -1.2162 -0.5148
    3OL     C1810823   6.410   5.192   2.808  0.1772 -0.0561  0.6851
    3OL     H8R10824   6.484   5.149   2.741  1.0401 -0.1256  1.6558
    3OL     H8S10825   6.330   5.120   2.823 -0.9556  1.1837  0.7963
    3OL     C1910826   6.468   5.246   2.936 -0.1247  0.8287  0.4574
    3OL     H9R10827   6.528   5.336   2.921  0.8993 -0.0118 -0.7213
    3OL    C11010828   6.457   5.178   3.049  0.0305  0.0301  0.0005
    3OL    H10R10829   6.505   5.215   3.139  0.8842  0.8334 -0.7676
    3OL    C11110830   6.376   5.054   3.074  0.3462 -0.1785 -0.0134
    3OL    H11R10831   6.434   4.962   3.061 -0.4616 -0.7258  0.1720
    3OL    H11S10832   6.292   5.063   3.005  0.0625  0.8252  0.4351
    3OL    C11210833   6.316   5.061   3.216 -0.3802  0.3739 -0.3411
    3OL    H12R10834   6.240   4.985   3.235  2.6356 -2.8211  0.1329
    3OL    H12S10835   6.255   5.151   3.211 -0.1412  0.5530 -0.0497
    3OL    C11310836   6.426   5.056   3.323  0.0265 -0.4757 -0.7875
    3OL    H13R10837   6.465   5.156   3.342  1.3688 -0.8031 -1.6245
    3OL    H13S10838   6.504   4.984   3.298  0.6471  0.3915 -1.3999
    3OL    C11410839   6.376   5.002   3.457  0.4034 -0.6512 -0.7146
    3OL    H14R10840   6.320   4.911   3.436 -1.9900 -0.0293  2.2225
    3OL    H14S10841   6.302   5.066   3.507  2.9478  2.2074 -0.3187
    3OL    C11510842   6.491   4.986   3.557 -0.0595 -0.1576 -0.0842
    3OL    H15R10843   6.510   5.092   3.575 -4.4864  1.6810 -4.1201
    3OL    H15S10844   6.585   4.940   3.525 -0.4652 -1.2986  0.3201
    3OL    C11610845   6.434   4.916   3.681 -0.3888 -0.4097 -0.3755
    3OL    H16R10846   6.405   4.816   3.649  0.2133 -0.2256 -1.5839
    3OL    H16S10847   6.344   4.964   3.719  1.2872  2.4841  0.2907
    3OL    C11710848   6.549   4.897   3.781 -0.2992  0.2945 -0.3412
    3OL    H17R10849   6.599   4.988   3.815  2.3588 -1.6090  1.2084
    3OL    H17S10850   6.631   4.837   3.741  0.9033  0.8885  1.1598
    3OL    C11810851   6.501   4.814   3.900 -0.0800  0.6567  0.0039
    3OL    H18R10852   6.581   4.793   3.971  1.6536 -1.0956 -2.3270
    3OL    H18S10853   6.477   4.714   3.862  0.1477  1.1871 -1.5957
    3OL    H18T10854   6.421   4.852   3.964  0.1942 -0.4314  1.0277
    1PA    C11610855   6.043   3.036   3.406 -0.3451  0.4263  0.5294
    1PA    H16R10856   6.095   3.078   3.492 -0.5726  1.8853 -0.0145
    1PA    H16S10857   5.975   3.112   3.368  0.4618  0.9523  0.0867
    1PA    H16T10858   6.116   3.009   3.329 -0.3865 -0.7738  0.8886
    1PA    C11510859   5.966   2.912   3.453 -0.2870  0.3377  0.3909
    1PA    H15R10860   5.923   2.947   3.547 -1.5664  2.1396 -0.8121
    1PA    H15S10861   5.884   2.906   3.381 -1.8640 -0.0107  2.1607
    1PA    C11410862   6.041   2.780   3.478 -0.4078  0.2147  0.1068
    1PA    H14R10863   6.137   2.799   3.526 -0.3820 -1.4470  0.7533
    1PA    H14S10864   5.986   2.711   3.543  0.7890 -1.9733 -1.0872
    1PA    C11310865   6.069   2.707   3.346  0.2565 -0.0186  0.3744
    1PA    H13R10866   5.977   2.672   3.300 -1.0963  0.1021  2.8251
    1PA    H13S10867   6.114   2.782   3.280  0.9812 -0.3579  0.4763
    1PA    C11210868   6.164   2.587   3.358  0.0003 -0.2138  0.4600
    1PA    H12R10869   6.259   2.617   3.404 -0.3653  3.3117 -0.7744
    1PA    H12S10870   6.118   2.520   3.431 -0.4265 -1.4894 -0.9426
    1PA    C11110871   6.180   2.525   3.219  0.3868  0.1933  0.3219
    1PA    H11R10872   6.091   2.466   3.197 -0.0944  0.1605  2.2155
    1PA    H11S10873   6.177   2.605   3.144 -0.4323 -0.6342 -0.5600
    1PA    C11010874   6.314   2.455   3.192  0.0661 -0.2817 -0.0576
    1PA    H10R10875   6.385   2.538   3.197 -0.8831  0.4881  1.1349
    1PA    H10S10876   6.327   2.386   3.276  0.9017 -0.9693 -0.7276
    1PA     C1910877   6.318   2.379   3.059  0.5858  0.4704 -0.4771
    1PA     H9R10878   6.235   2.309   3.055 -0.4539  1.5267  1.3378
    1PA     H9S10879   6.305   2.442   2.971  1.2807 -0.0034 -0.9326
    1PA     C1810880   6.445   2.295   3.039  0.2809 -0.0024 -0.4526
    1PA     H8R10881   6.530   2.360   3.059 -0.4062  0.4508  1.1008
    1PA     H8S10882   6.452   2.212   3.109 -0.6298 -0.9417 -1.4278
    1PA     C1710883   6.454   2.256   2.891  0.5350 -0.1207 -0.4058
    1PA     H7R10884   6.476   2.341   2.826 -0.3478  0.0469 -0.4993
    1PA     H7S10885   6.539   2.189   2.875  2.3574  1.6720  1.3202
    1PA     C1610886   6.322   2.190   2.847  0.3680  0.1436 -0.3009
    1PA     H6R10887   6.291   2.115   2.920 -0.3212 -0.7274 -1.4647
    1PA     H6S10888   6.246   2.266   2.830  0.6054  0.4814  0.1192
    1PA     C1510889   6.332   2.111   2.716  0.5660  0.0098 -0.2055
    1PA     H5R10890   6.431   2.063   2.711  1.2001  1.0745  1.3175
    1PA     H5S10891   6.260   2.029   2.717 -0.1899  0.6070  2.6261
    1PA     C1410892   6.312   2.192   2.588 -0.1945  0.4683  0.1948
    1PA     H4R10893   6.208   2.211   2.564 -0.2765 -1.2028 -0.9502
    1PA     H4S10894   6.367   2.285   2.605  1.9443 -0.6980  0.1086
    1PA     C1310895   6.357   2.114   2.463  0.4510  0.7113  0.2684
    1PA     H3R10896   6.352   2.011   2.497  1.5598  1.3503  2.5747
    1PA     H3S10897   6.282   2.140   2.387 -0.4102  0.0187  0.8594
    1PA     C1210898   6.495   2.161   2.416  0.5253  0.0695 -0.1719
    1PA     H2R10899   6.495   2.269   2.401  0.1852  0.1006  0.0480
    1PA     H2S10900   6.563   2.138   2.498 -0.6515  2.1564  1.5140
    2PC     C1110901   6.544   2.091   2.292 -1.0511 -0.6429 -0.4151
    2PC     O1210902   6.569   2.150   2.188 -0.2090 -0.2119  0.0172
    2PC     O1110903   6.559   1.959   2.312 -0.1771 -0.4428  0.3278
    2PC      C110904   6.597   1.881   2.198 -0.0132  0.0949  0.0085
    2PC      HR10905   6.590   1.773   2.216  1.3391 -0.0514 -0.2000
    2PC      HS10906   6.539   1.900   2.107 -1.9470 -2.2488  0.6445
    2PC      C210907   6.748   1.901   2.175  0.0706 -0.5658 -0.0674
    2PC      HX10908   6.776   2.007   2.169 -0.8650 -0.2963  0.0245
    2PC      C310909   6.794   1.820   2.053 -0.2628 -0.5057 -0.2353
    2PC      HA10910   6.903   1.823   2.041  0.2507 -2.4193  2.8354
    2PC      HB10911   6.780   1.718   2.089  1.5149 -0.1741  1.5915
    2PC     O3110912   6.707   1.836   1.940 -0.6040  0.0897  0.1050
    2PC     P3110913   6.738   1.757   1.804 -0.1711  0.3722  0.0403
    2PC     O3210914   6.868   1.831   1.747  0.0473 -0.1931 -0.1930
    2PC     C3110915   7.002   1.782   1.767  0.1069 -0.1167 -0.4036
    2PC     H1A10916   7.032   1.791   1.872 -1.5430 -0.5754  0.1317
    2PC     H1B10917   7.017   1.680   1.730 -1.0100 -0.6843  0.6646
    2PC     C3210918   7.095   1.873   1.684  0.0147 -0.1569 -0.5513
    2PC     H2A10919   7.080   1.838   1.582 -0.1864  0.8596 -0.8763
    2PC     H2B10920   7.067   1.978   1.692 -0.1112 -0.1349 -1.2215
    2PC     N3110921   7.243   1.862   1.705  0.0192  0.2429 -0.3627
    2PC     C3310922   7.279   1.945   1.824  0.1200  0.2534 -0.4007
    2PC     H3A10923   7.269   2.049   1.793 -2.1793 -0.0597 -0.8759
    2PC     H3B10924   7.202   1.932   1.900  1.4969  0.7874  1.1466
    2PC     H3C10925   7.379   1.915   1.857  0.1342  0.4572 -0.2588
    2PC     C3410926   7.291   1.721   1.721 -0.5835  0.0602 -0.1459
    2PC     H4A10927   7.399   1.736   1.730 -0.7636  0.6929  1.4549
    2PC     H4B10928   7.244   1.681   1.811 -0.0370  0.7215  0.4457
    2PC     H4C10929   7.277   1.661   1.632  0.1384  1.2754 -1.1033
    2PC     C3510930   7.299   1.914   1.576  0.6262  0.0439 -0.1793
    2PC     H5A10931   7.251   1.862   1.493 -1.0315  0.8604  0.2404
    2PC     H5B10932   7.407   1.898   1.576  0.9214  1.8461 -0.4007
    2PC     H5C10933   7.270   2.019   1.577 -0.1080 -0.1617  0.3546
    2PC     O3310934   6.771   1.614   1.823 -0.5963  0.4009  1.1165
    2PC     O3410935   6.634   1.746   1.700 -0.0271 -0.1005 -0.0536
    2PC     O2110936   6.817   1.849   2.289  0.1566 -0.3970 -0.0414
    2PC     C2110937   6.844   1.932   2.391 -0.3077  0.0245 -0.2626
    2PC     O2210938   6.817   2.050   2.399  0.3436  0.1750 -0.2268
    3OL     C1210939   6.906   1.851   2.502 -0.2983 -0.0416 -0.3161
    3OL     H2R10940   7.000   1.801   2.475 -0.8393 -0.7952 -0.8291
    3OL     H2S10941   6.839   1.766   2.516 -0.1301 -0.0944  0.1692
    3OL     C1310942   6.903   1.922   2.638  0.2610 -0.5111 -0.0505
    3OL     H3R10943   6.919   1.851   2.718  0.2289  1.2754  1.6122
    3OL     H3S10944   6.799   1.955   2.653  0.5525  0.5437 -0.2315
    3OL     C1410945   6.985   2.052   2.646  0.4777 -0.6566  0.0738
    3OL     H4R10946   6.945   2.124   2.575  1.3563 -0.9260 -0.7264
    3OL     H4S10947   7.089   2.043   2.614  0.7838 -0.2543  0.9236
    3OL     C1510948   6.978   2.121   2.783  0.6027  0.1324 -0.3123
    3OL     H5R10949   6.980   2.050   2.866  0.1241  0.5345  0.0564
    3OL     H5S10950   6.884   2.173   2.802  1.7405  2.3090 -0.3684
    3OL     C1610951   7.085   2.230   2.796 -0.2050  0.9529 -0.4084
    3OL     H6R10952   7.064   2.308   2.723  1.5643  1.9319  0.0749
    3OL     H6S10953   7.182   2.191   2.765 -1.1040 -1.4691 -0.4442
    3OL     C1710954   7.082   2.293   2.936  0.0569 -0.2279  0.1407
    3OL     H7R10955   7.097   2.220   3.016 -1.2099  0.1421  0.7381
    3OL     H7S10956   6.983   2.332   2.957 -0.3039  0.4831 -2.5445
    3OL     C1810957   7.178   2.413   2.932  0.6453 -0.6871  0.2192
    3OL     H8R10958   7.153   2.490   2.858 -0.4417 -0.6210  0.6403
    3OL     H8S10959   7.279   2.382   2.908  1.4614  3.0190 -1.8660
    3OL     C1910960   7.203   2.470   3.069  0.2077  0.1153 -0.0297
    3OL     H9R10961   7.281   2.421   3.126 -0.0780 -1.0992 -0.6580
    3OL    C11010962   7.121   2.557   3.126 -0.1615 -0.3378  0.1310
    3OL    H10R10963   7.151   2.596   3.223 -0.9154  1.3919 -0.2891
    3OL    C11110964   7.006   2.629   3.061  0.0472  0.0927  0.2351
    3OL    H11R10965   6.928   2.561   3.026  1.0711 -1.2695  0.5394
    3OL    H11S10966   7.039   2.676   2.968  1.8837 -3.2128 -0.9343
    3OL    C11210967   6.937   2.736   3.146 -0.6189 -0.0802 -0.0778
    3OL    H12R10968   6.875   2.799   3.082 -1.1030 -0.1995  0.2634
    3OL    H12S10969   7.016   2.803   3.182 -0.6345 -0.5741  0.8987
    3OL    C11310970   6.859   2.682   3.267 -0.3124  0.1477  0.2250
    3OL    H13R10971   6.920   2.610   3.321 -2.5569  0.4864  3.5130
    3OL    H13S10972   6.773   2.626   3.229 -2.0620  0.9629  2.6871
    3OL    C11410973   6.800   2.793   3.355 -0.6992  0.4308 -0.3807
    3OL    H14R10974   6.746   2.870   3.301 -3.1323  0.4177  1.8431
    3OL    H14S10975   6.882   2.854   3.394  0.6459 -0.4165 -1.7684
    3OL    C11510976   6.722   2.724   3.468  0.0072  0.5234  0.1736
    3OL    H15R10977   6.698   2.801   3.541 -1.1217  1.6960 -1.3475
    3OL    H15S10978   6.777   2.649   3.524  1.2614  0.9113 -0.5015
    3OL    C11610979   6.581   2.680   3.427  0.3029 -0.5541  0.3008
    3OL    H16R10980   6.595   2.604   3.349 -0.1839 -1.1409  0.7770
    3OL    H16S10981   6.514   2.752   3.381 -0.7102 -1.3869  0.4316
    3OL    C11710982   6.509   2.625   3.551 -0.0003 -0.1515  0.3052
    3OL    H17R10983   6.408   2.666   3.548 -0.4715 -1.2078  1.0146
    3OL    H17S10984   6.560   2.664   3.639  1.1592 -0.9467  0.0078
    3OL    C11810985   6.500   2.472   3.568  0.2700 -0.3124 -0.8813
    3OL    H18R10986   6.601   2.432   3.573 -0.2343 -1.4808  0.5620
    3OL    H18S10987   6.442   2.422   3.489 -1.1953 -0.7592  0.4174
    3OL    H18T10988   6.449   2.458   3.663  1.9832  0.4974  0.2004
    1PA    C11610989   0.609   3.067   3.426  0.0166  0.3476 -0.4373
    1PA    H16R10990   0.627   2.960   3.424 -0.7681  0.1124  1.9592
    1PA    H16S10991   0.589   3.100   3.323  0.8871  0.4061 -0.5956
    1PA    H16T10992   0.515   3.084   3.479  0.4024  0.0665  0.3380
    1PA    C11510993   0.709   3.145   3.513  0.2698 -0.4415 -0.0190
    1PA    H15R10994   0.676   3.141   3.617  0.5205  2.3537  0.2318
    1PA    H15S10995   0.808   3.101   3.507  0.6957  0.2508  1.4891
    1PA    C11410996   0.697   3.292   3.470 -0.0464 -0.4242  0.1229
    1PA    H14R10997   0.720   3.296   3.363 -2.3658 -2.7951 -0.5665
    1PA    H14S10998   0.593   3.323   3.483  0.8407  2.6206  0.7557
    1PA    C11310999   0.794   3.373   3.557 -0.2682  0.0115 -0.0311
    1PA    H13R11000   0.748   3.381   3.656 -0.7624  2.2848 -0.3973
    1PA    H13S11001   0.894   3.329   3.569 -0.0020  0.8117  0.7842
    1PA    C11211002   0.821   3.517   3.514  0.7804 -0.1649 -0.0032
    1PA    H12R11003   0.733   3.560   3.465 -0.1567 -0.1973  1.5829
    1PA    H12S11004   0.849   3.574   3.603  1.3542  0.9326 -0.8590
    1PA    C11111005   0.943   3.527   3.422  0.4002 -0.5814 -0.5540
    1PA    H11R11006   1.036   3.502   3.474  0.3322  0.2158 -0.0267
    1PA    H11S11007   0.929   3.448   3.347 -0.2661  0.1104 -1.1854
    1PA    C11011008   0.948   3.668   3.360  0.0054 -0.4733 -0.3402
    1PA    H10R11009   0.933   3.751   3.429  0.0884  0.0693 -0.9752
    1PA    H10S11010   1.051   3.675   3.325  0.0867 -0.6201 -0.1338
    1PA     C1911011   0.852   3.694   3.244 -0.4897  0.5209  0.2797
    1PA     H9R11012   0.872   3.618   3.168  0.7987  0.8137  0.3174
    1PA     H9S11013   0.746   3.683   3.270 -0.5901  0.1555 -0.2692
    1PA     C1811014   0.866   3.837   3.190 -0.0901  0.2916 -0.2261
    1PA     H8R11015   0.838   3.900   3.275 -1.7179 -0.7172  0.0257
    1PA     H8S11016   0.969   3.846   3.155  0.5304 -0.2367  1.3642
    1PA     C1711017   0.771   3.860   3.071 -0.4786  0.1910  0.0646
    1PA     H7R11018   0.726   3.769   3.031  0.8777 -0.9036  0.9407
    1PA     H7S11019   0.690   3.928   3.097 -0.8402  0.0436 -0.6746
    1PA     C1611020   0.848   3.937   2.963 -0.1675  0.5052  0.5075
    1PA     H6R11021   0.887   4.023   3.019  2.1665 -0.6448  0.7695
    1PA     H6S11022   0.928   3.866   2.938 -0.8112 -0.5624  1.3935
    1PA     C1511023   0.773   3.973   2.834  0.7381  0.2360 -0.1033
    1PA     H5R11024   0.669   3.994   2.857  0.1376 -0.4322 -2.0500
    1PA     H5S11025   0.829   4.052   2.783  2.0530 -0.2704  0.4988
    1PA     C1411026   0.782   3.853   2.739 -0.5397 -0.1151  0.2025
    1PA     H4R11027   0.887   3.850   2.709 -0.1935  0.3656  1.3264
    1PA     H4S11028   0.745   3.760   2.783  0.7277 -1.2717 -1.0547
    1PA     C1311029   0.693   3.873   2.616 -0.2601  0.7631  0.1344
    1PA     H3R11030   0.722   3.957   2.553  2.1854  0.4721  0.7913
    1PA     H3S11031   0.716   3.787   2.552 -1.6730 -0.9513  1.8147
    1PA     C1211032   0.544   3.874   2.651 -0.2139  0.1256  0.3579
    1PA     H2R11033   0.518   3.773   2.686  0.9759 -1.2301 -2.3504
    1PA     H2S11034   0.522   3.943   2.732  2.5496 -0.2213  1.4868
    2PC     C1111035   0.453   3.900   2.534 -0.2961  0.4296  0.4904
    2PC     O1211036   0.488   3.975   2.444 -0.7882  0.0982  0.0176
    2PC     O1111037   0.334   3.837   2.534  0.0417 -0.2217  0.1097
    2PC      C111038   0.241   3.858   2.427 -0.1311 -0.3038  0.2433
    2PC      HR11039   0.145   3.818   2.459  0.4209 -1.1103  0.9090
    2PC      HS11040   0.246   3.965   2.405  0.6878  0.1625  2.4867
    2PC      C211041   0.300   3.785   2.305  0.2510  0.3140  0.0547
    2PC      HX11042   0.390   3.842   2.281  0.3548  0.6863  1.2342
    2PC      C311043   0.211   3.797   2.181 -0.5516  0.0893  0.5997
    2PC      HA11044   0.171   3.899   2.176 -0.6615  0.0204 -0.0451
    2PC      HB11045   0.278   3.783   2.095 -1.9826 -0.3254 -0.4837
    2PC     O3111046   0.103   3.702   2.189 -0.0769 -0.5088  0.0325
    2PC     P3111047  -0.027   3.735   2.101 -0.0537 -0.1547  0.1296
    2PC     O3211048  -0.111   3.836   2.194 -0.1436  0.1572 -0.2887
    2PC     C3111049  -0.237   3.787   2.243  0.2243 -0.3094  0.2112
    2PC     H1A11050  -0.218   3.695   2.298 -0.1828 -0.9189 -0.6366
    2PC     H1B11051  -0.276   3.868   2.305 -1.5681 -0.0875 -1.1236
    2PC     C3211052  -0.340   3.771   2.130 -0.1281 -0.9019  0.6148
    2PC     H2A11053  -0.288   3.697   2.070  0.4707 -1.5020  1.8322
    2PC     H2B11054  -0.435   3.733   2.170  0.4270 -1.5447  1.3591
    2PC     N3111055  -0.370   3.884   2.037  0.3965 -0.3990  1.0495
    2PC     C3311056  -0.463   3.823   1.937 -0.2908  0.7450  0.9623
    2PC     H3A11057  -0.558   3.780   1.969  0.2052 -0.1304  1.2842
    2PC     H3B11058  -0.499   3.906   1.876 -3.6629  0.1377  1.9229
    2PC     H3C11059  -0.395   3.752   1.889  0.7726  2.3580  0.0028
    2PC     C3411060  -0.453   3.987   2.108  0.2692 -0.0644  0.4255
    2PC     H4A11061  -0.480   4.063   2.034  2.2256  1.2144  0.9372
    2PC     H4B11062  -0.539   3.953   2.165 -0.0781  0.8745  0.4886
    2PC     H4C11063  -0.379   4.027   2.178 -0.0217  0.7916  0.2635
    2PC     C3511064  -0.254   3.950   1.968 -1.1959  0.2871 -1.0925
    2PC     H5A11065  -0.188   3.994   2.042  0.1843 -1.9659 -0.8782
    2PC     H5B11066  -0.288   4.031   1.903  2.2098  0.1399 -3.3363
    2PC     H5C11067  -0.201   3.873   1.912  0.2934 -0.0003  0.6428
    2PC     O3311068   0.021   3.787   1.971  0.1478 -0.0426  0.2476
    2PC     O3411069  -0.110   3.618   2.067  0.0040 -0.2432  0.2889
    2PC     O2111070   0.323   3.646   2.335  0.0635  0.2436 -0.1279
    2PC     C2111071   0.404   3.575   2.256 -0.1759  0.1497 -0.2910
    2PC     O2211072   0.464   3.618   2.159 -0.0849 -0.4406 -0.5044
    3OL     C1211073   0.425   3.430   2.295  0.3243  0.2623 -0.1317
    3OL     H2R11074   0.432   3.366   2.206 -2.4458 -1.5787  0.8510
    3OL     H2S11075   0.342   3.392   2.354  0.9660 -1.6819 -0.4252
    3OL     C1311076   0.560   3.408   2.365 -0.0647  0.4418  0.6808
    3OL     H3R11077   0.568   3.489   2.439  2.0816  2.0551 -1.1630
    3OL     H3S11078   0.635   3.412   2.286 -1.1254 -1.6079 -0.5087
    3OL     C1411079   0.561   3.268   2.427 -0.6543  0.4091  0.6218
    3OL     H4R11080   0.541   3.192   2.351  2.5716 -0.4475  0.5041
    3OL     H4S11081   0.484   3.264   2.504 -0.2886  0.4342  0.9864
    3OL     C1511082   0.701   3.245   2.486 -0.3082  0.0385 -0.3246
    3OL     H5R11083   0.686   3.157   2.549  2.0509  1.3754  2.2854
    3OL     H5S11084   0.728   3.331   2.546  0.5541  2.0015 -3.2872
    3OL     C1611085   0.813   3.209   2.387 -0.3742 -0.9517 -0.0517
    3OL     H6R11086   0.821   3.286   2.310  2.0754 -0.5401  0.5264
    3OL     H6S11087   0.790   3.112   2.342  0.3766 -2.6401  2.9434
    3OL     C1711088   0.950   3.199   2.456 -0.1103 -0.0972 -0.4445
    3OL     H7R11089   0.944   3.125   2.535 -0.1526  1.0499  0.6609
    3OL     H7S11090   0.985   3.284   2.515 -0.5635 -1.6532  2.2056
    3OL     C1811091   1.060   3.166   2.354  0.2627  0.1957 -0.1380
    3OL     H8R11092   1.077   3.248   2.284  1.6041  0.7251  0.7516
    3OL     H8S11093   1.029   3.079   2.296  0.5525 -0.3265  0.4726
    3OL     C1911094   1.192   3.142   2.424  0.4318  0.8464 -0.2292
    3OL     H9R11095   1.200   3.202   2.515 -2.5050  1.7116 -0.4214
    3OL    C11011096   1.286   3.059   2.382 -0.1667  0.1138 -0.1446
    3OL    H10R11097   1.375   3.046   2.443  0.6162 -0.4983 -1.3755
    3OL    C11111098   1.268   2.947   2.283  0.0564 -0.3159  0.2982
    3OL    H11R11099   1.356   2.921   2.223 -0.6261 -0.7430 -0.5335
    3OL    H11S11100   1.197   2.973   2.204  0.8225  2.4022  0.4077
    3OL    C11211101   1.217   2.827   2.364 -0.2422  0.0726  0.6895
    3OL    H12R11102   1.194   2.748   2.291 -1.0397  0.1826  0.8133
    3OL    H12S11103   1.125   2.848   2.419 -1.0258  0.3135 -0.6681
    3OL    C11311104   1.328   2.772   2.454  0.0604 -0.4035  0.0324
    3OL    H13R11105   1.357   2.842   2.533 -0.2702 -0.1354 -0.0798
    3OL    H13S11106   1.412   2.766   2.384 -1.9604 -1.3351 -2.4866
    3OL    C11411107   1.308   2.629   2.506  0.3388 -0.4282  0.0754
    3OL    H14R11108   1.228   2.619   2.580 -2.1137 -0.9242 -2.4833
    3OL    H14S11109   1.402   2.596   2.551  0.9501 -1.2487 -1.7375
    3OL    C11511110   1.294   2.530   2.390 -0.5567 -0.4301  0.1739
    3OL    H15R11111   1.341   2.438   2.425  0.5433  0.4602  1.1591
    3OL    H15S11112   1.350   2.567   2.303  0.3325 -2.4606 -0.1786
    3OL    C11611113   1.150   2.491   2.355 -0.6455  0.4096 -0.4451
    3OL    H16R11114   1.090   2.571   2.313 -1.9086 -0.2447  0.0565
    3OL    H16S11115   1.114   2.459   2.454  0.6003  2.5926  0.7856
    3OL    C11711116   1.129   2.369   2.264  0.3566  0.0070 -0.1570
    3OL    H17R11117   1.027   2.333   2.279  1.0444 -1.1124  2.3565
    3OL    H17S11118   1.200   2.293   2.297  0.4347 -0.2907 -0.9979
    3OL    C11811119   1.146   2.416   2.119 -0.6078  0.5448 -0.1035
    3OL    H18R11120   1.249   2.435   2.088 -0.8269  2.8532  0.4659
    3OL    H18S11121   1.095   2.512   2.107  0.4613  1.1415  0.0691
    3OL    H18T11122   1.106   2.342   2.048  3.5479 -0.6029 -1.5060
    1PA    C11611123   3.267   2.373   3.443 -0.4153  0.0816 -1.1843
    1PA    H16R11124   3.178   2.411   3.491  0.4181 -0.4343  0.8792
    1PA    H16S11125   3.266   2.408   3.339  1.0553  0.0058 -1.2560
    1PA    H16T11126   3.356   2.402   3.498 -0.0808  0.5920 -1.9711
    1PA    C11511127   3.249   2.220   3.442 -0.4880  0.0735  0.2280
    1PA    H15R11128   3.345   2.171   3.424  0.8904  1.8908  2.0606
    1PA    H15S11129   3.217   2.199   3.545 -0.0764  1.8131  0.7539
    1PA    C11411130   3.141   2.156   3.355 -0.3925 -0.0164  0.1753
    1PA    H14R11131   3.157   2.190   3.252 -0.3672  2.3472  0.9045
    1PA    H14S11132   3.152   2.048   3.370  0.3033  0.0510  0.1557
    1PA    C11311133   2.999   2.196   3.398 -0.3291 -0.4468  0.7946
    1PA    H13R11134   2.997   2.180   3.506  0.1333 -0.4187  0.8092
    1PA    H13S11135   2.978   2.302   3.382  0.5816 -0.3644  0.0798
    1PA    C11211136   2.896   2.101   3.334  0.0010 -0.1906 -0.1283
    1PA    H12R11137   2.945   2.005   3.317  1.6111  0.6501 -0.4334
    1PA    H12S11138   2.813   2.092   3.404 -0.8845  0.9624 -0.9866
    1PA    C11111139   2.853   2.154   3.196 -0.1110  0.3856  0.1225
    1PA    H11R11140   2.815   2.255   3.213  1.4319  1.2525 -1.3203
    1PA    H11S11141   2.947   2.157   3.141  0.8985  1.4737  1.8249
    1PA    C11011142   2.747   2.069   3.124  0.7027 -0.1728 -0.4283
    1PA    H10R11143   2.774   1.963   3.123  1.0650 -0.0816 -1.4691
    1PA    H10S11144   2.654   2.073   3.180 -1.0794 -0.4151 -3.1737
    1PA     C1911145   2.714   2.126   2.985 -0.0343 -0.4134 -0.3567
    1PA     H9R11146   2.719   2.234   2.994  1.5398 -0.4825 -0.0327
    1PA     H9S11147   2.805   2.109   2.927 -0.0327 -0.9609 -0.2032
    1PA     C1811148   2.595   2.057   2.915  0.1795 -0.6242 -0.5160
    1PA     H8R11149   2.633   1.957   2.897  0.2580 -1.1775  2.2093
    1PA     H8S11150   2.509   2.057   2.981 -1.0943  0.3507 -2.1064
    1PA     C1711151   2.567   2.116   2.776  0.3125 -0.0241 -0.2941
    1PA     H7R11152   2.581   2.224   2.778  2.9761 -0.2894  1.8348
    1PA     H7S11153   2.645   2.075   2.712 -1.1957 -1.4354 -1.3205
    1PA     C1611154   2.431   2.081   2.715  0.0940  0.3525 -0.0297
    1PA     H6R11155   2.428   1.975   2.686 -0.1089 -0.3902  2.4589
    1PA     H6S11156   2.345   2.085   2.783 -0.5148 -1.3256 -0.6369
    1PA     C1511157   2.408   2.160   2.586  0.4703  0.2799 -0.1427
    1PA     H5R11158   2.413   2.267   2.605  1.2798  0.1497  0.3851
    1PA     H5S11159   2.491   2.144   2.518  1.1958  3.0751 -0.0303
    1PA     C1411160   2.278   2.123   2.512  0.0271  0.6295  0.4545
    1PA     H4R11161   2.262   2.015   2.523 -0.4329  0.7729  1.3722
    1PA     H4S11162   2.199   2.176   2.566  0.2059  0.9621  0.3881
    1PA     C1311163   2.275   2.162   2.364 -0.2615 -0.2628  0.2169
    1PA     H3R11164   2.377   2.163   2.324 -0.4694 -2.1775 -0.4360
    1PA     H3S11165   2.231   2.082   2.304  0.9748  1.0951 -2.6554
    1PA     C1211166   2.214   2.301   2.337  0.2086 -0.1027 -0.0280
    1PA     H2R11167   2.112   2.311   2.375 -0.0175 -0.9233 -0.3749
    1PA     H2S11168   2.270   2.375   2.394  1.8435 -0.4268 -1.1417
    2PC     C1111169   2.227   2.338   2.191 -0.1024 -0.3253 -0.1147
    2PC     O1211170   2.139   2.324   2.109 -0.0622 -0.2113 -0.1777
    2PC     O1111171   2.347   2.392   2.165 -0.2031 -0.1291 -0.1774
    2PC      C111172   2.378   2.429   2.029  0.3310  0.0323 -0.0157
    2PC      HR11173   2.486   2.423   2.011  0.3756 -2.7591  0.7716
    2PC      HS11174   2.334   2.361   1.956 -1.6597 -0.4381  1.5302
    2PC      C211175   2.341   2.573   1.991  0.1933 -0.0788 -0.3074
    2PC      HX11176   2.233   2.581   1.986 -0.0771 -0.8812  2.4264
    2PC      C311177   2.400   2.619   1.857  0.2462  0.5606 -0.0713
    2PC      HA11178   2.340   2.587   1.771  0.7517  0.7570 -0.5054
    2PC      HB11179   2.401   2.728   1.856  0.4284  0.5550 -0.8556
    2PC     O3111180   2.533   2.566   1.843  0.0060 -0.0680 -0.0017
    2PC     P3111181   2.607   2.577   1.701 -0.0299  0.0561 -0.0104
    2PC     O3211182   2.501   2.497   1.612 -0.2540 -0.2372  0.5143
    2PC     C3111183   2.473   2.356   1.627 -0.3278 -0.3176 -0.3070
    2PC     H1A11184   2.564   2.298   1.610  0.0027  0.3647 -0.9243
    2PC     H1B11185   2.450   2.347   1.734 -2.0870  0.8123 -0.5369
    2PC     C3211186   2.346   2.312   1.553 -0.3501 -0.2722 -0.2961
    2PC     H2A11187   2.324   2.214   1.594 -2.3069  0.5897  0.8398
    2PC     H2B11188   2.261   2.377   1.576  0.6405  1.1841 -0.5668
    2PC     N3111189   2.340   2.301   1.404 -0.4314 -0.2833 -0.2919
    2PC     C3311190   2.235   2.204   1.358 -0.0630 -0.6907 -0.2810
    2PC     H3A11191   2.251   2.173   1.255  1.3779  0.0554 -0.3129
    2PC     H3B11192   2.230   2.120   1.427 -1.6084 -1.3175 -1.0952
    2PC     H3C11193   2.144   2.263   1.371  0.2003 -0.4936  0.7336
    2PC     C3411194   2.307   2.434   1.344 -0.3377 -0.1795 -0.1128
    2PC     H4A11195   2.309   2.432   1.235 -0.9370  0.4633 -0.1449
    2PC     H4B11196   2.205   2.461   1.370 -0.5267  0.6563 -1.5765
    2PC     H4C11197   2.384   2.504   1.377  1.2753 -1.7073 -0.5209
    2PC     C3511198   2.473   2.258   1.349  0.0858  0.1859  0.5885
    2PC     H5A11199   2.492   2.282   1.245 -0.8390  1.8302  0.7559
    2PC     H5B11200   2.483   2.151   1.364  1.4425  0.1020 -0.6684
    2PC     H5C11201   2.556   2.314   1.394  1.7267 -0.5999 -1.3037
    2PC     O3311202   2.624   2.718   1.657 -0.1367 -0.0909 -0.5251
    2PC     O3411203   2.738   2.511   1.687 -0.1507 -0.1202 -0.3135
    2PC     O2111204   2.389   2.654   2.100 -0.0854 -0.1308 -0.1466
    2PC     C2111205   2.329   2.675   2.219  0.3650 -0.4723  0.1479
    2PC     O2211206   2.215   2.640   2.244  0.1185  0.1259 -0.1137
    3OL     C1211207   2.415   2.758   2.310  0.2241  0.3268 -0.4359
    3OL     H2R11208   2.486   2.808   2.244 -0.1413  2.8981  0.9709
    3OL     H2S11209   2.471   2.699   2.382 -0.1179  1.3703  0.7300
    3OL     C1311210   2.334   2.867   2.383  0.1383 -0.2007  0.2630
    3OL     H3R11211   2.262   2.821   2.451 -1.2813  1.0544 -0.3384
    3OL     H3S11212   2.280   2.933   2.315 -0.4222 -0.3632  0.5432
    3OL     C1411213   2.431   2.951   2.467 -0.2680  0.3670  0.1646
    3OL     H4R11214   2.371   3.022   2.526 -2.1194  1.1281 -2.4693
    3OL     H4S11215   2.498   3.003   2.399 -1.5027  1.2584 -0.4250
    3OL     C1511216   2.504   2.870   2.575 -0.3803 -0.1075 -0.1123
    3OL     H5R11217   2.593   2.823   2.534 -0.0012 -1.6997  2.3064
    3OL     H5S11218   2.439   2.796   2.622 -2.0462  0.2642 -1.7333
    3OL     C1611219   2.560   2.971   2.676 -0.3552 -0.6363  0.4072
    3OL     H6R11220   2.481   3.021   2.732  0.2120  0.6600  0.0828
    3OL     H6S11221   2.624   3.041   2.622  2.9339 -1.1640  3.2406
    3OL     C1711222   2.654   2.908   2.780  0.5856  0.2326  0.1042
    3OL     H7R11223   2.733   2.855   2.725  1.8157  1.4266  0.6722
    3OL     H7S11224   2.599   2.834   2.839  0.9723 -0.2226 -0.0946
    3OL     C1811225   2.712   3.008   2.881 -0.7793  0.7338  0.4157
    3OL     H8R11226   2.636   3.081   2.910 -0.8354  0.5218  0.8159
    3OL     H8S11227   2.790   3.067   2.832  0.6459 -1.2016  0.2244
    3OL     C1911228   2.774   2.935   2.998  0.4183 -0.1873 -0.7620
    3OL     H9R11229   2.796   2.830   2.984  2.1474  0.2012 -1.2184
    3OL    C11011230   2.810   2.986   3.115 -0.2796 -0.4561 -0.4298
    3OL    H10R11231   2.842   2.916   3.192  0.9294 -0.5021 -0.9508
    3OL    C11111232   2.786   3.128   3.158  0.5050 -0.4595  0.0246
    3OL    H11R11233   2.790   3.140   3.267  1.6443  0.8662 -0.1350
    3OL    H11S11234   2.692   3.165   3.116  0.3901 -1.5109 -0.6686
    3OL    C11211235   2.906   3.218   3.125 -0.2495  0.3955 -0.4165
    3OL    H12R11236   2.925   3.211   3.017 -2.0066 -0.8736 -0.6960
    3OL    H12S11237   2.994   3.173   3.171 -0.4042  0.7851  0.2676
    3OL    C11311238   2.892   3.361   3.179  0.4530  0.1039  0.5600
    3OL    H13R11239   2.804   3.394   3.122  0.5937  0.5701  0.6115
    3OL    H13S11240   2.973   3.417   3.133 -1.0700  1.0237 -1.1591
    3OL    C11411241   2.870   3.368   3.331  0.1913 -0.3366  0.5434
    3OL    H14R11242   2.950   3.315   3.383 -1.3072 -0.7773  2.5033
    3OL    H14S11243   2.771   3.329   3.354 -0.6194  0.8319 -0.8098
    3OL    C11511244   2.861   3.517   3.364  0.0338 -0.2273  0.0249
    3OL    H15R11245   2.780   3.556   3.303  0.2508 -2.3571 -1.7237
    3OL    H15S11246   2.954   3.559   3.326  1.3786 -1.5875  1.6438
    3OL    C11611247   2.837   3.542   3.514 -0.6300  0.2503 -0.1574
    3OL    H16R11248   2.924   3.502   3.567 -0.9345 -0.5844 -0.2771
    3OL    H16S11249   2.752   3.487   3.554  1.2181 -1.9565  1.0059
    3OL    C11711250   2.827   3.692   3.547 -0.0230  0.1946  0.3053
    3OL    H17R11251   2.757   3.736   3.475  1.1488 -1.1318 -1.7229
    3OL    H17S11252   2.924   3.737   3.527 -0.8571  1.2457 -1.7547
    3OL    C11811253   2.770   3.721   3.687 -0.5486  0.2049  0.0920
    3OL    H18R11254   2.668   3.684   3.703 -0.6830  1.2685  1.9946
    3OL    H18S11255   2.762   3.829   3.698 -1.0635  0.2137 -0.3250
    3OL    H18T11256   2.837   3.685   3.766 -0.1178  2.4961  0.8316
    1PA    C11611257   1.871   0.434   3.690  0.4023  0.0626 -0.2454
    1PA    H16R11258   1.888   0.512   3.765  0.7863 -1.4087  1.2423
    1PA    H16S11259   1.967   0.423   3.639  0.9102  3.9207 -0.4442
    1PA    H16T11260   1.855   0.345   3.751 -0.9262  0.3553 -0.1327
    1PA    C11511261   1.754   0.457   3.593  0.1313 -0.1089  0.0404
    1PA    H15R11262   1.673   0.507   3.646  0.6125 -0.4193  1.0951
    1PA    H15S11263   1.790   0.518   3.509  0.1499 -0.4165 -0.1772
    1PA    C11411264   1.705   0.328   3.525  0.4452 -0.1819 -0.0491
    1PA    H14R11265   1.659   0.256   3.592 -0.6964 -0.0974 -0.7031
    1PA    H14S11266   1.630   0.352   3.449  0.0776  0.3560  0.4777
    1PA    C11311267   1.820   0.256   3.452  0.3852 -0.0427 -0.2850
    1PA    H13R11268   1.848   0.311   3.362 -2.5649 -1.5881 -2.3206
    1PA    H13S11269   1.904   0.242   3.520  0.4225 -0.9250 -0.4977
    1PA    C11211270   1.768   0.120   3.404  0.4484 -0.2964  0.3537
    1PA    H12R11271   1.761   0.051   3.488 -1.1885  1.3520  1.6714
    1PA    H12S11272   1.666   0.129   3.367 -0.2204 -2.8578  1.3712
    1PA    C11111273   1.851   0.059   3.290 -0.0853 -0.2017 -0.0919
    1PA    H11R11274   1.956   0.067   3.320 -0.0962  0.1206 -0.1368
    1PA    H11S11275   1.822  -0.046   3.287  0.2412 -0.3548  1.3602
    1PA    C11011276   1.825   0.123   3.153 -0.4942  0.0778  0.1126
    1PA    H10R11277   1.718   0.108   3.138 -0.4831  0.4170 -0.3050
    1PA    H10S11278   1.843   0.229   3.172  1.3057  0.2034 -1.8576
    1PA     C1911279   1.905   0.072   3.032  0.0187  0.2831  0.3632
    1PA     H9R11280   2.006   0.069   3.074  0.3970  1.7363 -0.3535
    1PA     H9S11281   1.874  -0.030   3.009  0.0109  0.6921 -1.6263
    1PA     C1811282   1.901   0.176   2.919  0.0816  0.1840  0.2704
    1PA     H8R11283   1.839   0.131   2.841  1.2752 -0.6158 -0.2556
    1PA     H8S11284   1.854   0.271   2.945 -1.1549  0.3412 -2.2206
    1PA     C1711285   2.035   0.208   2.851 -0.4246  0.6984 -0.4918
    1PA     H7R11286   2.026   0.295   2.784 -0.2636  0.6680 -0.5538
    1PA     H7S11287   2.112   0.229   2.925 -0.8426 -1.7024  0.7132
    1PA     C1611288   2.093   0.094   2.767  0.2347  0.2986  0.4969
    1PA     H6R11289   2.081  -0.002   2.819  1.0027 -0.0181  0.1116
    1PA     H6S11290   2.029   0.078   2.680 -1.1072  0.7853  1.3597
    1PA     C1511291   2.242   0.122   2.741  0.2733  0.1405  0.5471
    1PA     H5R11292   2.245   0.218   2.690  0.6857 -0.1194  0.0834
    1PA     H5S11293   2.277   0.130   2.844 -1.2899  0.9811  1.0553
    1PA     C1411294   2.307   0.011   2.657  0.0158 -0.0924  0.6502
    1PA     H4R11295   2.408   0.001   2.699 -0.7474 -2.4298  2.1116
    1PA     H4S11296   2.254  -0.081   2.682  0.2881 -0.6242 -0.6765
    1PA     C1311297   2.318   0.039   2.507  0.4815 -0.3669  0.6312
    1PA     H3R11298   2.326  -0.059   2.459 -1.2255  0.1084 -0.7097
    1PA     H3S11299   2.225   0.087   2.476  0.7577 -0.5761 -0.5810
    1PA     C1211300   2.451   0.111   2.479  0.3242 -0.3600 -0.1183
    1PA     H2R11301   2.464   0.196   2.546 -2.2329  2.5502 -2.9391
    1PA     H2S11302   2.535   0.043   2.493 -0.3028 -1.0491  0.3586
    2PC     C1111303   2.463   0.158   2.336 -0.2766 -0.3294 -0.1621
    2PC     O1211304   2.408   0.116   2.236 -0.7173  0.2262 -0.1568
    2PC     O1111305   2.555   0.255   2.335 -0.5663 -0.0533 -0.2055
    2PC      C111306   2.580   0.339   2.221 -0.2861  0.1349 -0.0104
    2PC      HR11307   2.663   0.402   2.251 -0.3064  1.1037 -1.8472
    2PC      HS11308   2.601   0.274   2.135  0.3641 -1.4973  1.3340
    2PC      C211309   2.470   0.442   2.188 -0.0517  0.3487 -0.1263
    2PC      HX11310   2.383   0.383   2.158  0.4759  0.3623 -1.7917
    2PC      C311311   2.501   0.536   2.071  0.1363  0.2919 -0.1240
    2PC      HA11312   2.496   0.476   1.981  3.3433 -0.3431  0.0233
    2PC      HB11313   2.420   0.610   2.073 -1.3244 -1.1336 -2.3446
    2PC     O3111314   2.633   0.591   2.091  0.3174  0.0046 -0.5306
    2PC     P3111315   2.672   0.715   1.999  0.0578  0.3227 -0.2133
    2PC     O3211316   2.746   0.801   2.112 -0.2356  0.4014 -0.0779
    2PC     C3111317   2.658   0.865   2.206 -0.4807 -0.2900  0.1753
    2PC     H1A11318   2.621   0.958   2.160  0.8078  0.7742  1.2019
    2PC     H1B11319   2.579   0.796   2.235 -2.2059  1.3467 -0.4493
    2PC     C3211320   2.741   0.909   2.327 -0.1564 -0.2917 -0.0428
    2PC     H2A11321   2.835   0.956   2.297 -0.8154 -0.7650 -3.2202
    2PC     H2B11322   2.678   0.977   2.385  0.0267  1.5329 -1.8716
    2PC     N3111323   2.775   0.798   2.422 -0.3403 -0.1109  0.2394
    2PC     C3311324   2.666   0.704   2.465 -0.5194 -0.2261 -0.4542
    2PC     H3A11325   2.710   0.631   2.533 -0.4836 -1.0504 -1.3355
    2PC     H3B11326   2.594   0.762   2.522  0.3921 -0.2559  0.7491
    2PC     H3C11327   2.621   0.660   2.376  0.0773 -0.8179 -0.4751
    2PC     C3411328   2.877   0.710   2.356 -0.3718  0.2343 -0.2746
    2PC     H4A11329   2.830   0.653   2.276 -0.8586 -0.4101  0.4554
    2PC     H4B11330   2.954   0.772   2.308  0.4976 -1.6405 -1.4158
    2PC     H4C11331   2.922   0.641   2.427 -1.4175 -0.6162 -0.4248
    2PC     C3511332   2.829   0.865   2.545 -0.0385  0.2529 -0.0881
    2PC     H5A11333   2.754   0.933   2.586  0.6875  0.2723  1.2554
    2PC     H5B11334   2.911   0.931   2.518 -0.6649  0.7674 -0.7983
    2PC     H5C11335   2.853   0.788   2.618 -1.9164  0.6092  0.9659
    2PC     O3311336   2.752   0.688   1.878 -0.3679 -0.0928 -0.4052
    2PC     O3411337   2.546   0.790   1.974  0.1002  0.3377 -0.3850
    2PC     O2111338   2.438   0.518   2.306  0.1497  0.4656 -0.1477
    2PC     C2111339   2.320   0.580   2.321  0.1343  0.3383  0.2498
    2PC     O2211340   2.224   0.565   2.248  0.2542 -0.2124  0.1958
    3OL     C1211341   2.302   0.641   2.458 -0.6688 -0.2092  0.3959
    3OL     H2R11342   2.211   0.701   2.452 -0.5472 -0.1119 -0.6349
    3OL     H2S11343   2.375   0.713   2.495 -0.6609  1.1554 -2.0736
    3OL     C1311344   2.272   0.539   2.569 -1.2759 -0.4249  0.0407
    3OL     H3R11345   2.363   0.483   2.592 -0.2646  0.8912 -0.5802
    3OL     H3S11346   2.195   0.467   2.542  1.0350 -4.0825  2.2908
    3OL     C1411347   2.218   0.608   2.695 -0.1215  0.5965 -0.0064
    3OL     H4R11348   2.175   0.529   2.756 -1.0864  0.2465 -1.1140
    3OL     H4S11349   2.142   0.680   2.664 -1.1217 -0.4452 -0.0237
    3OL     C1511350   2.329   0.676   2.777 -0.1115  0.0011  0.4762
    3OL     H5R11351   2.381   0.746   2.711 -0.0777  0.4190  0.9403
    3OL     H5S11352   2.397   0.601   2.817 -1.1383 -0.2698  1.7935
    3OL     C1611353   2.267   0.754   2.893 -0.3346 -0.2652  0.5390
    3OL     H6R11354   2.225   0.688   2.969 -1.0374 -1.3869 -0.7923
    3OL     H6S11355   2.185   0.821   2.864  0.6996  0.9283  0.2572
    3OL     C1711356   2.382   0.842   2.945 -0.0817 -0.2351 -0.0662
    3OL     H7R11357   2.423   0.909   2.869  1.7479 -0.6447  0.5028
    3OL     H7S11358   2.469   0.779   2.966 -0.1095 -0.8662 -1.6813
    3OL     C1811359   2.359   0.919   3.076  0.0695  0.1264 -0.2505
    3OL     H8R11360   2.281   0.994   3.063 -1.9375 -1.8428 -0.2033
    3OL     H8S11361   2.446   0.976   3.106  0.5759 -1.7471  2.1218
    3OL     C1911362   2.325   0.823   3.187  0.4083 -0.3784 -0.5802
    3OL     H9R11363   2.224   0.792   3.210  0.4669 -0.6278 -0.6537
    3OL    C11011364   2.412   0.760   3.264 -0.0156  0.2127  0.3903
    3OL    H10R11365   2.373   0.689   3.337 -1.4855  0.8454  0.2596
    3OL    C11111366   2.562   0.776   3.260 -0.0646  0.4632 -0.4491
    3OL    H11R11367   2.592   0.806   3.360  1.7429 -2.4683 -0.0046
    3OL    H11S11368   2.597   0.852   3.190  1.1749  0.2275 -0.1046
    3OL    C11211369   2.629   0.644   3.220 -0.0682  0.2410  0.2787
    3OL    H12R11370   2.599   0.612   3.120 -2.0844  1.1353  0.5447
    3OL    H12S11371   2.603   0.568   3.295 -3.3357  0.5973 -0.3570
    3OL    C11311372   2.782   0.650   3.235 -0.0137 -0.4045  0.0184
    3OL    H13R11373   2.833   0.566   3.188 -0.1770  0.4873 -1.8379
    3OL    H13S11374   2.794   0.630   3.342 -2.2948  1.5876  0.7433
    3OL    C11411375   2.852   0.780   3.194 -0.7399  0.1165  0.3976
    3OL    H14R11376   2.824   0.853   3.270 -1.4947 -0.1023  0.3395
    3OL    H14S11377   2.822   0.811   3.094  2.4023 -0.8123 -0.9596
    3OL    C11511378   3.005   0.769   3.203 -0.6987  0.5409  0.2495
    3OL    H15R11379   3.029   0.699   3.123 -1.8756 -0.7827  1.0019
    3OL    H15S11380   3.030   0.724   3.300  0.2529  1.8733  0.6500
    3OL    C11611381   3.071   0.906   3.186  0.4569 -0.0283  0.0633
    3OL    H16R11382   3.171   0.909   3.232  0.3859  2.0173  0.2048
    3OL    H16S11383   3.023   0.978   3.253  0.7665  0.0879  0.1634
    3OL    C11711384   3.087   0.955   3.042  0.1126 -0.0974  0.0016
    3OL    H17R11385   3.091   1.063   3.060  0.0507  0.1008 -1.0588
    3OL    H17S11386   2.998   0.943   2.980 -1.6672  2.4757  1.8306
    3OL    C11811387   3.222   0.913   2.981  0.1723 -0.0598  0.1087
    3OL    H18R11388   3.295   0.935   3.060 -1.5177  1.8420  1.2522
    3OL    H18S11389   3.241   0.978   2.896 -0.6077  1.7075  1.2191
    3OL    H18T11390   3.206   0.806   2.967 -3.7557  0.2694  0.8294
    1PA    C11611391   2.043   4.154   3.569 -0.2156 -0.7445  0.1719
    1PA    H16R11392   1.963   4.205   3.622 -0.2199 -1.4182  0.8208
    1PA    H16S11393   2.070   4.073   3.637 -0.3411 -0.3682  0.6763
    1PA    H16T11394   1.993   4.125   3.476 -1.4121  1.4352  0.0742
    1PA    C11511395   2.163   4.247   3.546 -0.4244 -0.5227 -0.0382
    1PA    H15R11396   2.139   4.321   3.470 -1.2453  0.5256  1.2165
    1PA    H15S11397   2.182   4.303   3.638 -1.4280  0.6002 -0.4912
    1PA    C11411398   2.289   4.166   3.510 -0.1039 -0.2280  0.4077
    1PA    H14R11399   2.305   4.094   3.591 -2.5341  0.7186  1.8516
    1PA    H14S11400   2.258   4.132   3.411  0.1497 -0.4376  0.4010
    1PA    C11311401   2.410   4.258   3.490 -0.4059  0.0120 -0.3532
    1PA    H13R11402   2.399   4.320   3.401  1.8626 -1.3812 -1.7035
    1PA    H13S11403   2.417   4.320   3.579 -2.0908  1.5333 -1.2195
    1PA    C11211404   2.544   4.183   3.485 -0.4184 -0.0553  0.1875
    1PA    H12R11405   2.629   4.246   3.457 -1.4303  1.2399 -0.0659
    1PA    H12S11406   2.560   4.126   3.576 -1.4236  0.9473  1.0215
    1PA    C11111407   2.548   4.080   3.371 -0.1091 -0.0191  0.1662
    1PA    H11R11408   2.473   4.001   3.379 -2.5893  2.3961  3.0605
    1PA    H11S11409   2.507   4.132   3.285 -2.9214 -0.4043  1.1638
    1PA    C11011410   2.688   4.020   3.350 -0.0382  0.1577  0.1284
    1PA    H10R11411   2.753   4.101   3.316  2.8651 -1.1298  2.1403
    1PA    H10S11412   2.734   3.984   3.443 -1.9610  3.9538  2.8508
    1PA     C1911413   2.685   3.908   3.245 -0.0383 -0.0563  0.3555
    1PA     H9R11414   2.637   3.819   3.287 -0.7630  0.6360  1.0329
    1PA     H9S11415   2.620   3.929   3.160  1.4384 -0.2104 -0.8544
    1PA     C1811416   2.824   3.880   3.185  0.2365  0.2803  0.8235
    1PA     H8R11417   2.875   3.966   3.142  1.0861 -0.4089  0.4112
    1PA     H8S11418   2.890   3.845   3.265  1.4751  0.8288  0.0583
    1PA     C1711419   2.811   3.774   3.075 -0.2363  0.2239  0.9288
    1PA     H7R11420   2.744   3.692   3.104 -3.2890  1.2762 -2.4498
    1PA     H7S11421   2.754   3.821   2.995  1.0804  1.5946  0.7567
    1PA     C1611422   2.944   3.718   3.022 -0.5708 -0.0042  0.3107
    1PA     H6R11423   3.002   3.801   2.979  1.6006 -1.5490  0.0734
    1PA     H6S11424   3.015   3.668   3.089  2.4283  0.0053 -2.5984
    1PA     C1511425   2.928   3.607   2.918 -0.3996  0.0708  0.2020
    1PA     H5R11426   2.882   3.520   2.966 -0.0937  0.7559  1.8120
    1PA     H5S11427   2.858   3.634   2.839 -0.4252  0.1732  0.2600
    1PA     C1411428   3.063   3.558   2.865 -0.2445  0.3204  0.3637
    1PA     H4R11429   3.128   3.643   2.844  0.4465 -0.4643 -0.7639
    1PA     H4S11430   3.121   3.507   2.943  1.5487  1.3199 -0.2627
    1PA     C1311431   3.040   3.468   2.743 -0.1833  0.0737  0.5328
    1PA     H3R11432   2.954   3.401   2.749 -1.2243  1.2935 -0.1452
    1PA     H3S11433   3.020   3.531   2.656 -3.6146 -2.8846 -1.0590
    1PA     C1211434   3.165   3.382   2.721 -0.1774  0.3256 -0.4729
    1PA     H2R11435   3.251   3.449   2.724 -1.0541  1.5447 -1.4459
    1PA     H2S11436   3.167   3.306   2.800 -1.0247  1.4318  0.6538
    2PC     C1111437   3.171   3.317   2.585  0.4206 -0.3546 -0.1300
    2PC     O1211438   3.078   3.293   2.511  0.6233 -0.0789 -0.4842
    2PC     O1111439   3.300   3.288   2.559  0.4779 -0.3726  0.1754
    2PC      C111440   3.335   3.239   2.428 -0.2591 -0.1120 -0.1214
    2PC      HR11441   3.427   3.181   2.434 -0.1724  0.1098  0.9061
    2PC      HS11442   3.256   3.169   2.401 -0.6160  0.1523  0.2197
    2PC      C211443   3.348   3.352   2.324  0.3466  0.0065  0.0791
    2PC      HX11444   3.245   3.381   2.300 -0.6140 -1.4784  2.0553
    2PC      C311445   3.416   3.298   2.198  0.5829 -0.2279  0.3046
    2PC      HA11446   3.342   3.235   2.147 -1.1165  0.9269  1.2577
    2PC      HB11447   3.441   3.385   2.136  0.8630 -1.0625 -0.7925
    2PC     O3111448   3.533   3.220   2.229  0.5010 -0.1888  0.7147
    2PC     P3111449   3.585   3.120   2.114 -0.3094  0.3074 -0.0943
    2PC     O3211450   3.677   3.018   2.196 -0.2803  0.2454 -0.2049
    2PC     C3111451   3.700   2.897   2.122  0.6254  0.2164  0.1186
    2PC     H1A11452   3.614   2.831   2.109  0.2442  0.6775  0.2962
    2PC     H1B11453   3.735   2.917   2.021 -0.3423 -1.3291 -0.5665
    2PC     C3211454   3.815   2.815   2.183  0.1588  0.0477  0.7863
    2PC     H2A11455   3.899   2.883   2.201 -0.1873  1.1607 -1.4882
    2PC     H2B11456   3.775   2.782   2.279 -1.4496  0.7615  0.3948
    2PC     N3111457   3.855   2.685   2.119  0.1689  0.3776  0.1177
    2PC     C3311458   3.891   2.704   1.974 -0.4294  0.0315 -0.0768
    2PC     H3A11459   3.914   2.607   1.930 -3.6569 -1.1263  0.4754
    2PC     H3B11460   3.805   2.751   1.926 -0.1555 -0.0737 -0.6768
    2PC     H3C11461   3.973   2.775   1.975 -0.9545  0.6562  1.2180
    2PC     C3411462   3.976   2.635   2.192 -0.2139 -0.1671  0.3797
    2PC     H4A11463   3.994   2.528   2.186  0.2706 -0.0364 -0.6906
    2PC     H4B11464   4.065   2.681   2.149  0.3939 -0.8952  0.8334
    2PC     H4C11465   3.975   2.676   2.293  2.5690  1.9239 -0.3255
    2PC     C3511466   3.749   2.580   2.127  0.4145  0.1496  0.3787
    2PC     H5A11467   3.800   2.489   2.096  0.6005  0.8395 -1.4067
    2PC     H5B11468   3.665   2.614   2.066  0.8229 -0.0237 -0.2772
    2PC     H5C11469   3.713   2.575   2.230  1.2549  0.9417  0.7276
    2PC     O3311470   3.488   3.045   2.031  0.2067 -0.3754 -0.0803
    2PC     O3411471   3.666   3.189   2.011 -0.1495  0.1190 -0.0931
    2PC     O2111472   3.430   3.456   2.380 -0.1418  0.3786  0.1119
    2PC     C2111473   3.376   3.558   2.448 -0.1254  0.4935 -0.0458
    2PC     O2211474   3.258   3.560   2.475 -0.1564 -0.4638 -0.0695
    3OL     C1211475   3.465   3.676   2.478  0.2558  0.1656  0.1272
    3OL     H2R11476   3.499   3.658   2.580  2.3234  0.9783 -0.3593
    3OL     H2S11477   3.400   3.763   2.473 -0.5715 -0.5064 -1.5504
    3OL     C1311478   3.586   3.699   2.386  0.3237  0.3505  0.2612
    3OL     H3R11479   3.556   3.713   2.282 -1.2619  0.0595  0.6406
    3OL     H3S11480   3.643   3.607   2.384  1.7615  1.1985  0.9846
    3OL     C1411481   3.687   3.805   2.433  0.1301  0.1474  1.1587
    3OL     H4R11482   3.780   3.790   2.378 -0.4123  0.0550  0.2406
    3OL     H4S11483   3.714   3.796   2.538  0.1587  1.8276  1.3178
    3OL     C1511484   3.647   3.945   2.382  0.1358 -0.3442 -0.2616
    3OL     H5R11485   3.548   3.963   2.425 -0.7630 -1.2728 -1.8388
    3OL     H5S11486   3.638   3.948   2.274  0.4614  1.7782 -0.2638
    3OL     C1611487   3.744   4.056   2.425 -0.1788 -0.1528 -0.0401
    3OL     H6R11488   3.842   4.032   2.383  0.0425 -2.2898  1.5381
    3OL     H6S11489   3.741   4.073   2.532 -1.2310  2.0988 -0.3709
    3OL     C1711490   3.722   4.192   2.358  0.2756 -0.3152 -0.5297
    3OL     H7R11491   3.757   4.193   2.254  0.5057  0.8444 -0.4542
    3OL     H7S11492   3.782   4.265   2.413 -1.0515  0.4296 -0.0209
    3OL     C1811493   3.575   4.235   2.371  0.3101 -0.4716  0.4012
    3OL     H8R11494   3.517   4.151   2.332  1.0054 -0.4631 -0.6824
    3OL     H8S11495   3.546   4.322   2.312 -1.2872 -0.2043  1.4979
    3OL     C1911496   3.526   4.267   2.510 -0.1981 -0.2303  0.1675
    3OL     H9R11497   3.599   4.321   2.570  0.4442  0.1735 -0.9521
    3OL    C11011498   3.406   4.248   2.562 -0.3064 -0.0279 -0.0037
    3OL    H10R11499   3.392   4.285   2.664 -0.4623  1.9759 -0.7232
    3OL    C11111500   3.290   4.177   2.497  0.2708 -0.1370 -0.9182
    3OL    H11R11501   3.258   4.096   2.562 -0.1995  0.3417 -0.5531
    3OL    H11S11502   3.311   4.127   2.402  1.1391 -0.1609 -0.7244
    3OL    C11211503   3.167   4.268   2.482  0.1455 -0.2238 -0.4339
    3OL    H12R11504   3.164   4.338   2.566  3.4766  1.5147 -1.5791
    3OL    H12S11505   3.075   4.211   2.490 -0.2727  0.7005  2.4877
    3OL    C11311506   3.171   4.361   2.360 -0.1621  0.1791 -0.1391
    3OL    H13R11507   3.139   4.305   2.272 -0.0713 -0.0752 -0.0100
    3OL    H13S11508   3.276   4.390   2.350  0.3469 -0.8523  1.8168
    3OL    C11411509   3.086   4.486   2.384 -0.1546  0.2267 -0.3565
    3OL    H14R11510   3.118   4.554   2.305  0.1835  0.7674  0.2299
    3OL    H14S11511   3.113   4.540   2.475 -2.8131  1.4147 -0.1827
    3OL    C11511512   2.934   4.465   2.389 -0.0992 -0.0304  0.2748
    3OL    H15R11513   2.925   4.378   2.455 -0.4247 -1.0797 -1.1043
    3OL    H15S11514   2.894   4.432   2.293  0.5949 -1.6049  0.4786
    3OL    C11611515   2.869   4.595   2.439  0.2595  0.1982  0.1464
    3OL    H16R11516   2.920   4.646   2.521  0.2625  0.6390 -0.1255
    3OL    H16S11517   2.766   4.567   2.462  0.6401 -1.3509  0.0867
    3OL    C11711518   2.851   4.690   2.320  0.0305 -0.6298 -0.4913
    3OL    H17R11519   2.799   4.642   2.236  0.6846  1.0887 -1.9280
    3OL    H17S11520   2.954   4.703   2.287  0.2690 -2.2041 -0.4384
    3OL    C11811521   2.776   4.821   2.348  0.6686 -0.4345  0.3341
    3OL    H18R11522   2.670   4.796   2.356  0.6665 -0.5011  0.1100
    3OL    H18S11523   2.798   4.893   2.268  0.5424 -1.1170 -0.3191
    3OL    H18T11524   2.798   4.862   2.447  1.7976 -0.9543  0.3148
    1PA    C11611525   4.186   0.116   3.965  0.2267 -0.2653 -0.3432
    1PA    H16R11526   4.288   0.119   4.004  0.7121  1.3601 -1.5862
    1PA    H16S11527   4.180   0.062   3.871  0.4778  0.9682 -1.0977
    1PA    H16T11528   4.119   0.072   4.039 -0.4506 -0.2571 -0.9413
    1PA    C11511529   4.139   0.261   3.946  0.0677 -0.2683  0.0349
    1PA    H15R11530   4.033   0.262   3.919 -0.1098 -2.1783  0.5338
    1PA    H15S11531   4.145   0.319   4.039 -1.9400  1.4140 -0.7992
    1PA    C11411532   4.218   0.333   3.836  0.0782 -0.3389 -0.0037
    1PA    H14R11533   4.323   0.330   3.867  0.0282 -2.1033  0.0873
    1PA    H14S11534   4.217   0.277   3.743 -2.1226 -0.6416  0.1519
    1PA    C11311535   4.173   0.478   3.815  0.4282 -0.2110  0.1071
    1PA    H13R11536   4.065   0.485   3.798 -0.4021 -0.9734  4.1494
    1PA    H13S11537   4.196   0.541   3.901  0.1114  1.3873 -0.9311
    1PA    C11211538   4.244   0.524   3.687 -0.4270 -0.0696 -0.3303
    1PA    H12R11539   4.351   0.503   3.697 -0.3467  0.3845 -0.2066
    1PA    H12S11540   4.208   0.469   3.600 -2.8106 -0.4807  0.8322
    1PA    C11111541   4.213   0.673   3.674 -0.8343 -0.0946  0.3176
    1PA    H11R11542   4.105   0.682   3.675 -0.8684 -0.3672 -0.6743
    1PA    H11S11543   4.250   0.728   3.762  0.8527 -0.6160 -0.0243
    1PA    C11011544   4.266   0.730   3.542  0.2466 -0.0200  0.7648
    1PA    H10R11545   4.373   0.711   3.542  0.1088 -0.9013 -0.2217
    1PA    H10S11546   4.228   0.682   3.451  2.0772  0.4094 -0.2717
    1PA     C1911547   4.243   0.882   3.540 -0.6308 -0.1501  0.5505
    1PA     H9R11548   4.266   0.922   3.639  2.6134  0.5140 -0.3540
    1PA     H9S11549   4.306   0.932   3.467  0.8371 -0.3901  1.6182
    1PA     C1811550   4.100   0.924   3.502 -0.5606  0.0204  0.4708
    1PA     H8R11551   4.026   0.866   3.559 -1.7006 -0.3492 -1.2999
    1PA     H8S11552   4.092   1.024   3.544  0.7797 -0.0364  0.8958
    1PA     C1711553   4.063   0.901   3.355  0.0635  0.0814  0.3025
    1PA     H7R11554   4.082   0.798   3.325 -2.5089 -0.4918  0.4280
    1PA     H7S11555   3.956   0.905   3.335  0.0064 -1.1344  0.3116
    1PA     C1611556   4.134   1.003   3.265  0.2703 -0.7618 -0.5004
    1PA     H6R11557   4.133   1.103   3.307 -1.4841 -1.8452  2.2909
    1PA     H6S11558   4.242   0.987   3.258  0.5684  0.6512  0.5646
    1PA     C1511559   4.087   1.022   3.120 -1.2256 -0.3844  0.0183
    1PA     H5R11560   3.982   1.051   3.113 -0.4432  2.4272 -1.4854
    1PA     H5S11561   4.140   1.110   3.081 -0.8787 -0.6033 -0.0077
    1PA     C1411562   4.124   0.903   3.031  0.1367  0.3026 -0.3590
    1PA     H4R11563   4.229   0.878   3.047 -0.3416 -1.2548  0.5365
    1PA     H4S11564   4.066   0.814   3.055 -0.2501  0.2418 -1.4393
    1PA     C1311565   4.082   0.928   2.885 -0.1929 -0.2776 -0.3693
    1PA     H3R11566   3.975   0.943   2.878 -0.0806  1.2037  0.5881
    1PA     H3S11567   4.118   1.029   2.862 -0.5485  0.5448  2.3210
    1PA     C1211568   4.134   0.820   2.789  0.3068 -0.5103  0.1561
    1PA     H2R11569   4.240   0.802   2.810  0.1323 -1.3051  0.3800
    1PA     H2S11570   4.087   0.722   2.797  0.1614 -0.5316 -0.8497
    2PC     C1111571   4.117   0.865   2.646  0.3288  0.0783  0.3359
    2PC     O1211572   4.185   0.953   2.598  0.3917  0.0182  0.3147
    2PC     O1111573   4.030   0.794   2.574  0.0731  0.4932  0.2299
    2PC      C111574   4.012   0.820   2.433 -0.1804 -0.1656  0.1340
    2PC      HR11575   4.026   0.927   2.417  0.4793 -0.4597 -1.3801
    2PC      HS11576   4.082   0.768   2.368 -1.9063  1.7347 -3.5717
    2PC      C211577   3.879   0.772   2.374 -0.3198  0.5303 -0.1329
    2PC      HX11578   3.871   0.665   2.394 -0.3037  0.8543  1.8272
    2PC      C311579   3.865   0.805   2.225  0.3381  0.0739 -0.3034
    2PC      HA11580   3.948   0.760   2.171 -0.0071 -0.4173 -0.4318
    2PC      HB11581   3.776   0.764   2.176  0.5851  0.9176 -1.5148
    2PC     O3111582   3.865   0.949   2.210  0.0406  0.0762 -0.2952
    2PC     P3111583   3.815   1.021   2.076 -0.2595  0.0851 -0.1791
    2PC     O3211584   3.908   1.150   2.094 -0.0236 -0.0852 -0.1700
    2PC     C3111585   4.050   1.128   2.089 -0.1022 -0.5490 -0.4607
    2PC     H1A11586   4.090   1.131   2.191  1.7053  1.4238 -1.1323
    2PC     H1B11587   4.078   1.040   2.031 -0.1553 -0.6136 -0.3887
    2PC     C3211588   4.110   1.258   2.034 -0.9747  0.2808  0.4866
    2PC     H2A11589   4.077   1.346   2.088 -0.1692  1.2995 -0.6168
    2PC     H2B11590   4.219   1.262   2.042 -0.8940  0.5390 -0.5938
    2PC     N3111591   4.087   1.299   1.891  0.3606 -0.1105  0.1402
    2PC     C3311592   4.184   1.401   1.839  0.5757 -0.2683  0.2295
    2PC     H3A11593   4.154   1.492   1.891 -2.9312 -1.1756  0.0838
    2PC     H3B11594   4.291   1.390   1.856  0.8384  2.3861  0.7530
    2PC     H3C11595   4.163   1.396   1.732  1.0794 -0.3023  0.1323
    2PC     C3411596   4.109   1.174   1.811 -0.3000  0.0357 -0.2801
    2PC     H4A11597   4.203   1.129   1.842 -0.4502 -1.7447 -2.2228
    2PC     H4B11598   4.027   1.104   1.828 -0.7944 -0.4752 -4.0860
    2PC     H4C11599   4.117   1.199   1.706  0.5018  0.1079 -0.2090
    2PC     C3511600   3.948   1.352   1.873  0.0465 -0.7072  0.7537
    2PC     H5A11601   3.870   1.283   1.906 -2.9200  2.3853  0.8340
    2PC     H5B11602   3.937   1.373   1.766 -2.8547  1.9837  1.4425
    2PC     H5C11603   3.937   1.445   1.929  3.1813  0.3172 -0.1314
    2PC     O3311604   3.844   0.922   1.969 -0.3860 -0.3315  0.1696
    2PC     O3411605   3.671   1.050   2.061 -0.3100 -0.8043 -1.5873
    2PC     O2111606   3.771   0.836   2.444 -0.3731 -0.2692  0.5278
    2PC     C2111607   3.643   0.799   2.421 -0.3931  0.4325 -0.5230
    2PC     O2211608   3.608   0.715   2.341  0.0328  0.0749 -0.3355
    3OL     C1211609   3.547   0.859   2.520 -0.2832  0.2167 -0.2854
    3OL     H2R11610   3.461   0.917   2.486 -0.4598  0.5898  0.7462
    3OL     H2S11611   3.605   0.936   2.572  0.0440  1.1099 -1.8986
    3OL     C1311612   3.477   0.751   2.602 -0.0688  0.0553 -0.3139
    3OL     H3R11613   3.417   0.674   2.553 -0.4595 -0.5477  1.0359
    3OL     H3S11614   3.405   0.808   2.662 -1.3997 -2.5828  0.7746
    3OL     C1411615   3.580   0.681   2.692  0.2498  0.7221 -0.1514
    3OL     H4R11616   3.659   0.636   2.632  0.2120 -0.1705  0.4346
    3OL     H4S11617   3.531   0.602   2.750  1.6897 -0.9326 -1.0967
    3OL     C1511618   3.640   0.768   2.803 -0.1662 -0.1069  0.7381
    3OL     H5R11619   3.565   0.820   2.863  1.4340  1.5677  1.3821
    3OL     H5S11620   3.712   0.837   2.760 -0.3110 -0.2793  0.2152
    3OL     C1611621   3.707   0.683   2.912  0.4382 -0.0744  0.3900
    3OL     H6R11622   3.628   0.632   2.967 -1.6028  1.2237 -1.1966
    3OL     H6S11623   3.768   0.749   2.974  1.5396  0.6399 -1.3741
    3OL     C1711624   3.812   0.588   2.852  0.5049  0.4709 -0.3654
    3OL     H7R11625   3.872   0.639   2.775  0.1607  3.2876  1.0841
    3OL     H7S11626   3.774   0.496   2.808  0.3402 -0.9840  2.5895
    3OL     C1811627   3.894   0.536   2.970 -0.6949 -0.9419 -0.1409
    3OL     H8R11628   3.840   0.455   3.021  0.4648 -0.5816  1.7946
    3OL     H8S11629   3.909   0.609   3.050  3.6776 -0.9113 -0.7689
    3OL     C1911630   4.029   0.474   2.946 -0.3335 -0.2318  0.0477
    3OL     H9R11631   4.038   0.412   2.857  0.4815  0.5220 -0.4159
    3OL    C11011632   4.143   0.483   3.014 -0.1469  0.1098 -0.3063
    3OL    H10R11633   4.233   0.430   2.985  1.2329  2.4412 -0.6064
    3OL    C11111634   4.157   0.538   3.154  0.0214  0.1256 -0.3293
    3OL    H11R11635   4.072   0.508   3.217 -0.1866  1.7985  0.2345
    3OL    H11S11636   4.158   0.647   3.157 -0.6181  0.1193  1.9320
    3OL    C11211637   4.289   0.487   3.215 -0.0024 -0.0994 -0.4642
    3OL    H12R11638   4.312   0.534   3.311  0.2784 -0.6142 -0.2806
    3OL    H12S11639   4.365   0.509   3.140 -0.0532  1.5911 -0.0583
    3OL    C11311640   4.298   0.338   3.249  0.4155 -0.1995 -0.9959
    3OL    H13R11641   4.302   0.286   3.153  4.5669  1.0646 -1.6721
    3OL    H13S11642   4.213   0.309   3.311 -0.2934  0.4991 -1.6194
    3OL    C11411643   4.429   0.297   3.317 -0.3705 -0.3948  0.4403
    3OL    H14R11644   4.514   0.350   3.273 -2.2013  1.5135 -0.9884
    3OL    H14S11645   4.452   0.191   3.309  3.0558  0.2885 -0.6358
    3OL    C11511646   4.439   0.335   3.466  0.0319  0.4008  0.2147
    3OL    H15R11647   4.359   0.287   3.523  2.2192 -1.8220  1.5885
    3OL    H15S11648   4.430   0.442   3.488 -1.3468  0.0963  1.2134
    3OL    C11611649   4.567   0.271   3.520  0.1700  0.4341 -0.0736
    3OL    H16R11650   4.663   0.295   3.473  1.1230 -0.8385  1.1287
    3OL    H16S11651   4.551   0.164   3.512 -1.1126  0.6111  0.0070
    3OL    C11711652   4.589   0.311   3.666  0.2046  0.3043 -0.0432
    3OL    H17R11653   4.492   0.307   3.716  0.0149 -1.2281 -0.4793
    3OL    H17S11654   4.616   0.417   3.670  0.8547  0.1317  0.2779
    3OL    C11811655   4.701   0.237   3.739  0.1951  0.4223  0.0920
    3OL    H18R11656   4.793   0.267   3.688  0.3356 -2.2145 -1.4066
    3OL    H18S11657   4.690   0.129   3.724 -2.5837  0.7995 -1.0532
    3OL    H18T11658   4.692   0.265   3.844 -0.7839  0.8223 -0.0915
    1PA    C11611659   5.328   4.770   3.517 -0.0467 -0.0553  0.0877
    1PA    H16R11660   5.254   4.800   3.592  0.9251 -0.1525  1.1023
    1PA    H16S11661   5.337   4.662   3.530 -3.3440 -0.5499 -0.6828
    1PA    H16T11662   5.293   4.791   3.415  1.3219 -0.2844 -0.4422
    1PA    C11511663   5.454   4.852   3.546 -0.0693 -0.0921  0.2939
    1PA    H15R11664   5.455   4.955   3.510 -1.8790  0.1986  1.0026
    1PA    H15S11665   5.458   4.861   3.654 -0.8685 -1.8295  0.4945
    1PA    C11411666   5.578   4.770   3.504 -0.2434 -0.1790 -0.0557
    1PA    H14R11667   5.663   4.818   3.553 -1.0824  1.3917 -0.0471
    1PA    H14S11668   5.573   4.668   3.543  1.1126  0.0057  0.6716
    1PA    C11311669   5.614   4.771   3.355  0.1728  0.3096  0.0472
    1PA    H13R11670   5.527   4.723   3.311  0.9260 -1.6582  0.6156
    1PA    H13S11671   5.623   4.867   3.304  0.1527 -0.7575 -2.0627
    1PA    C11211672   5.735   4.686   3.315 -0.3484 -0.3420 -0.1495
    1PA    H12R11673   5.822   4.752   3.317  0.1149 -0.9233 -0.4067
    1PA    H12S11674   5.743   4.595   3.375  2.2918 -1.7066 -2.3078
    1PA    C11111675   5.744   4.656   3.164  0.1062 -0.1226 -0.1695
    1PA    H11R11676   5.708   4.742   3.108  0.6363  0.5401  0.4987
    1PA    H11S11677   5.848   4.648   3.133  0.1808  2.4175 -0.7297
    1PA    C11011678   5.662   4.535   3.115  0.1021 -0.0647 -0.3039
    1PA    H10R11679   5.707   4.443   3.151  0.8551 -0.1477 -1.4303
    1PA    H10S11680   5.561   4.532   3.158  0.8201 -1.6860  1.4113
    1PA     C1911681   5.664   4.520   2.963  0.4205  0.5714 -0.3651
    1PA     H9R11682   5.584   4.455   2.928  0.6151  0.8185 -1.3138
    1PA     H9S11683   5.654   4.617   2.913 -2.0490  1.3394  1.4319
    1PA     C1811684   5.792   4.455   2.909 -0.0146 -0.6107  0.0138
    1PA     H8R11685   5.869   4.526   2.942 -1.0530  0.6124 -0.1542
    1PA     H8S11686   5.814   4.360   2.960  0.5558  0.2562  1.4566
    1PA     C1711687   5.792   4.433   2.757 -0.5191 -0.4294 -0.0130
    1PA     H7R11688   5.706   4.375   2.721 -1.6674  2.3359 -2.0845
    1PA     H7S11689   5.795   4.526   2.700  1.2722  0.1104  0.9040
    1PA     C1611690   5.926   4.365   2.727 -0.1803  0.0816  0.3278
    1PA     H6R11691   5.962   4.397   2.629  0.0832  1.4545  0.8483
    1PA     H6S11692   5.997   4.393   2.805  0.1247  0.6275 -0.1356
    1PA     C1511693   5.914   4.212   2.725  0.3463  0.0420 -0.3436
    1PA     H5R11694   5.924   4.161   2.822  0.0851 -0.9399 -0.8255
    1PA     H5S11695   5.811   4.192   2.696  0.5808 -1.5211 -0.1762
    1PA     C1411696   6.012   4.163   2.617  0.0572  0.0449 -0.6052
    1PA     H4R11697   5.991   4.205   2.518 -3.5257  1.0834  0.4269
    1PA     H4S11698   6.114   4.196   2.637  0.0929 -0.1290 -0.4928
    1PA     C1311699   6.008   4.011   2.597  0.1814 -0.0714  0.2186
    1PA     H3R11700   6.041   3.968   2.692 -0.6908 -1.6285 -0.1509
    1PA     H3S11701   5.909   3.977   2.568  0.1674  0.3286 -0.2100
    1PA     C1211702   6.111   3.972   2.490  0.4242 -0.1418  0.4748
    1PA     H2R11703   6.075   4.013   2.395 -3.3975 -1.4900  1.1684
    1PA     H2S11704   6.213   4.007   2.506  1.0535 -0.4537 -2.2547
    2PC     C1111705   6.109   3.823   2.472 -0.0097 -0.0946  0.1027
    2PC     O1211706   6.205   3.750   2.490  0.0921  0.1083  0.3832
    2PC     O1111707   5.991   3.788   2.419  0.0363  0.0894 -0.1241
    2PC      C111708   5.971   3.647   2.403  0.0873 -0.0303  0.7884
    2PC      HR11709   6.027   3.613   2.315  0.4492  0.2736  0.9013
    2PC      HS11710   6.021   3.589   2.481  1.3284 -1.2271 -0.8184
    2PC      C211711   5.822   3.611   2.389  0.1510  0.0823 -0.3055
    2PC      HX11712   5.815   3.504   2.372  1.7202  0.1649 -1.7776
    2PC      C311713   5.744   3.685   2.280  0.5970 -0.1268 -0.7682
    2PC      HA11714   5.717   3.784   2.317 -1.0762 -0.9069  0.2118
    2PC      HB11715   5.804   3.701   2.190  1.2947  4.3033  0.2478
    2PC     O3111716   5.624   3.609   2.257  0.3073  0.0948 -0.0111
    2PC     P3111717   5.620   3.521   2.123  0.0396  0.1829 -0.0613
    2PC     O3211718   5.716   3.400   2.164  0.1937  0.1523 -0.5108
    2PC     C3111719   5.682   3.260   2.152  0.1781  0.1057  0.0802
    2PC     H1A11720   5.589   3.255   2.209 -0.7030  2.8163 -0.9700
    2PC     H1B11721   5.653   3.231   2.051 -0.7922  0.4560  0.2448
    2PC     C3211722   5.784   3.161   2.209  0.0378 -0.2068 -0.2142
    2PC     H2A11723   5.823   3.210   2.298  0.6811 -0.7675 -0.1766
    2PC     H2B11724   5.739   3.065   2.233  0.4136 -0.6592 -1.2365
    2PC     N3111725   5.905   3.140   2.123  0.0505 -0.6014 -0.1015
    2PC     C3311726   5.971   3.267   2.080  0.2465 -0.5787  0.2550
    2PC     H3A11727   5.884   3.323   2.042 -0.1357 -2.2483 -1.5067
    2PC     H3B11728   6.023   3.319   2.160  2.2392  0.8752 -1.8583
    2PC     H3C11729   6.042   3.244   2.000  0.6603 -2.6627  1.1698
    2PC     C3411730   5.998   3.057   2.207  0.1677 -0.1730  0.1961
    2PC     H4A11731   6.074   3.011   2.145 -0.4515 -3.0078  1.3713
    2PC     H4B11732   6.044   3.110   2.290  2.2177 -3.2677  1.2098
    2PC     H4C11733   5.942   2.977   2.257  0.0696 -0.0368  0.3051
    2PC     C3511734   5.874   3.058   2.002 -0.4407  0.1496 -0.4906
    2PC     H5A11735   5.968   3.030   1.953 -0.2417  1.5680 -0.9666
    2PC     H5B11736   5.805   3.109   1.935 -0.5890 -0.4904 -0.8447
    2PC     H5C11737   5.834   2.964   2.040  1.1104 -0.0408  0.7839
    2PC     O3311738   5.492   3.466   2.073  0.0498  0.1050 -0.0027
    2PC     O3411739   5.662   3.600   2.005  0.6484 -0.3417 -0.2032
    2PC     O2111740   5.756   3.642   2.513 -0.2664 -0.6292 -0.3447
    2PC     C2111741   5.781   3.564   2.620 -0.1485 -0.2148 -0.0660
    2PC     O2211742   5.865   3.476   2.618 -0.1600 -0.2315  0.2003
    3OL     C1211743   5.702   3.605   2.742 -0.0279  0.1567 -0.1101
    3OL     H2R11744   5.607   3.551   2.747  0.2743 -0.2679  1.9733
    3OL     H2S11745   5.686   3.712   2.748  2.3934  0.5333  0.7559
    3OL     C1311746   5.787   3.574   2.866 -0.1800 -0.4730 -0.1582
    3OL     H3R11747   5.881   3.627   2.855 -0.0159 -0.9490 -1.1319
    3OL     H3S11748   5.809   3.467   2.872 -1.0026 -0.7734 -1.8842
    3OL     C1411749   5.719   3.625   2.994  0.0789 -0.1583 -0.1464
    3OL     H4R11750   5.624   3.574   3.011 -0.4205  0.7172 -0.2662
    3OL     H4S11751   5.685   3.727   2.974 -1.2711 -0.8214 -1.3287
    3OL     C1511752   5.810   3.615   3.118  0.0105  0.3334 -0.0521
    3OL     H5R11753   5.901   3.675   3.115 -0.3467  0.8612 -0.8106
    3OL     H5S11754   5.842   3.510   3.114 -0.1255  0.2979 -3.9818
    3OL     C1611755   5.731   3.643   3.246 -0.3275 -0.5450 -0.0580
    3OL     H6R11756   5.643   3.579   3.252 -2.8075  2.7002  0.8733
    3OL     H6S11757   5.694   3.746   3.244 -0.7176 -0.6360  1.2932
    3OL     C1711758   5.814   3.626   3.375 -0.0870 -0.2350 -0.1701
    3OL     H7R11759   5.912   3.674   3.371 -0.8861  1.5919  0.9560
    3OL     H7S11760   5.836   3.522   3.397  0.3024 -0.3120 -0.8759
    3OL     C1811761   5.753   3.694   3.498  0.2649  0.1656 -0.2162
    3OL     H8R11762   5.743   3.801   3.479 -1.9536  0.3702  1.6444
    3OL     H8S11763   5.814   3.690   3.588 -1.2189  1.0625  0.8867
    3OL     C1911764   5.619   3.642   3.544  0.3320  0.3604  0.2105
    3OL     H9R11765   5.625   3.550   3.601  2.1404 -0.8839 -1.7815
    3OL    C11011766   5.496   3.687   3.523  0.2249 -0.1947 -0.3961
    3OL    H10R11767   5.409   3.631   3.555  0.9961 -1.5562 -0.5891
    3OL    C11111768   5.461   3.810   3.445  0.2078 -0.3419 -0.6227
    3OL    H11R11769   5.541   3.875   3.407 -1.4726  2.0195 -0.3897
    3OL    H11S11770   5.404   3.874   3.514 -0.1538 -0.1439 -1.0905
    3OL    C11211771   5.360   3.777   3.334 -0.2574  0.2048 -0.3706
    3OL    H12R11772   5.269   3.731   3.373 -0.6656  0.5687 -0.8684
    3OL    H12S11773   5.403   3.707   3.262  4.0407  1.3997  0.7341
    3OL    C11311774   5.304   3.895   3.253 -0.2577  0.2858 -0.2526
    3OL    H13R11775   5.390   3.942   3.204 -0.1369 -0.2237 -0.5350
    3OL    H13S11776   5.261   3.969   3.321 -0.0043 -0.3783  0.6452
    3OL    C11411777   5.195   3.849   3.155 -0.0182 -1.3154  0.2103
    3OL    H14R11778   5.216   3.744   3.132  1.6236 -0.7557 -1.1494
    3OL    H14S11779   5.201   3.912   3.066  1.5764 -1.5922  0.0906
    3OL    C11511780   5.057   3.869   3.219  0.2657  0.1105  0.4103
    3OL    H15R11781   5.041   3.970   3.255 -0.7320 -0.4088  1.4888
    3OL    H15S11782   5.056   3.806   3.308  0.4290  1.0073  1.0502
    3OL    C11611783   4.945   3.827   3.123  0.5504 -0.1729  0.1993
    3OL    H16R11784   4.943   3.719   3.105 -1.5647 -0.1767  0.2204
    3OL    H16S11785   4.945   3.883   3.029 -4.6431 -0.8420 -0.5069
    3OL    C11711786   4.811   3.876   3.179  0.2195 -0.6094 -0.2020
    3OL    H17R11787   4.735   3.864   3.101  0.0924  0.0879 -0.1888
    3OL    H17S11788   4.814   3.984   3.191  0.1696 -0.4757 -1.3049
    3OL    C11811789   4.773   3.811   3.313  0.1909 -0.4004 -0.1083
    3OL    H18R11790   4.772   3.702   3.314  2.6864 -0.4952 -0.9397
    3OL    H18S11791   4.671   3.844   3.336  0.1421  0.1199 -1.0151
    3OL    H18T11792   4.845   3.840   3.390 -0.0907  0.7885 -0.2716
    1PA    C11611793   4.565   5.909   3.470 -1.0844 -0.1068 -0.0054
    1PA    H16R11794   4.468   5.952   3.492 -1.9138 -1.9907  0.2048
    1PA    H16S11795   4.644   5.975   3.433 -2.6248  1.7556 -0.0990
    1PA    H16T11796   4.603   5.862   3.561  1.3668  1.5965 -0.0453
    1PA    C11511797   4.544   5.791   3.373  0.1378 -0.0336 -0.3870
    1PA    H15R11798   4.639   5.740   3.380  0.4688  0.5025 -0.8976
    1PA    H15S11799   4.464   5.731   3.417  0.2177  2.0743  2.9812
    1PA    C11411800   4.514   5.809   3.224 -0.3199  0.0543 -0.2881
    1PA    H14R11801   4.595   5.874   3.188 -1.7095  1.5406 -0.8368
    1PA    H14S11802   4.522   5.714   3.172 -1.1999  0.6608 -1.5969
    1PA    C11311803   4.375   5.863   3.190 -0.2158  0.4923 -0.0366
    1PA    H13R11804   4.346   5.941   3.261  0.0769  0.8720 -0.3270
    1PA    H13S11805   4.379   5.911   3.092  1.1672  1.4537  0.4663
    1PA    C11211806   4.265   5.756   3.194 -0.2218  0.5030  0.1097
    1PA    H12R11807   4.272   5.705   3.290  1.4006 -2.2321 -1.3230
    1PA    H12S11808   4.168   5.805   3.203 -0.4198  0.0822  0.3253
    1PA    C11111809   4.265   5.647   3.085  0.0427  0.8350 -0.2262
    1PA    H11R11810   4.309   5.680   2.991  1.2053 -0.5560 -0.2185
    1PA    H11S11811   4.324   5.561   3.121  2.9417  2.9748  0.5388
    1PA    C11011812   4.118   5.616   3.056  0.1843  0.1362 -0.2360
    1PA    H10R11813   4.074   5.574   3.146 -0.2715  2.0166  0.4699
    1PA    H10S11814   4.059   5.705   3.032 -0.5053 -0.0910  0.5622
    1PA     C1911815   4.103   5.517   2.940 -0.1988  0.0936 -0.1515
    1PA     H9R11816   4.005   5.534   2.895 -0.1203  2.9179  0.5143
    1PA     H9S11817   4.175   5.538   2.861 -0.9855 -0.7148 -1.1179
    1PA     C1811818   4.120   5.371   2.983 -0.3231  0.1316  0.0253
    1PA     H8R11819   4.223   5.362   3.020  1.0502  5.3078 -1.6780
    1PA     H8S11820   4.045   5.344   3.057 -0.7490  2.0081  0.3298
    1PA     C1711821   4.117   5.278   2.861 -0.2512 -0.3343  0.3733
    1PA     H7R11822   4.024   5.299   2.808  0.6401  0.8489 -0.7961
    1PA     H7S11823   4.200   5.300   2.794  1.1262 -3.5245  0.8707
    1PA     C1611824   4.120   5.132   2.906  1.1416 -0.4449 -0.0516
    1PA     H6R11825   4.218   5.121   2.955  1.5038 -0.4204 -0.7572
    1PA     H6S11826   4.045   5.106   2.981 -0.3643 -2.0040 -1.9707
    1PA     C1511827   4.121   5.042   2.782  0.2395 -0.1662 -0.2682
    1PA     H5R11828   4.036   5.052   2.715  0.1683 -2.7897 -0.6736
    1PA     H5S11829   4.216   5.064   2.731  0.7913  1.4649  1.3552
    1PA     C1411830   4.117   4.895   2.827  0.6864 -0.0503  0.1565
    1PA     H4R11831   4.181   4.872   2.913  0.3846 -0.7676  0.1922
    1PA     H4S11832   4.014   4.881   2.858  0.3885 -0.6467 -1.0339
    1PA     C1311833   4.143   4.803   2.707  0.3223  0.4655 -0.3264
    1PA     H3R11834   4.097   4.706   2.724  0.3515  0.5243  0.1129
    1PA     H3S11835   4.105   4.847   2.615 -0.3516  1.5954  0.4612
    1PA     C1211836   4.294   4.789   2.679  0.3035  0.0467 -0.2209
    1PA     H2R11837   4.336   4.887   2.658  0.1417 -0.2600 -2.1306
    1PA     H2S11838   4.357   4.762   2.764 -1.8135  0.3042  1.5134
    2PC     C1111839   4.304   4.705   2.554 -0.0720 -0.0605 -0.1810
    2PC     O1211840   4.310   4.584   2.546  0.3328 -0.0539  0.0178
    2PC     O1111841   4.301   4.784   2.446  0.4712  0.1820 -0.0210
    2PC      C111842   4.286   4.718   2.319  0.7830 -0.3443  0.2097
    2PC      HR11843   4.303   4.790   2.238  1.8944 -0.6749  0.1288
    2PC      HS11844   4.352   4.633   2.303  0.2605 -0.3909 -2.1033
    2PC      C211845   4.138   4.677   2.309  0.7186 -0.1932  0.5420
    2PC      HX11846   4.106   4.626   2.401 -1.3741 -1.4587 -0.8136
    2PC      C311847   4.096   4.586   2.193  0.0694  0.3278  0.3664
    2PC      HA11848   4.134   4.485   2.212 -1.1351 -0.0854  0.7050
    2PC      HB11849   3.987   4.577   2.187  0.1114  0.8757 -2.3685
    2PC     O3111850   4.138   4.631   2.063  0.3339 -0.2403  0.2524
    2PC     P3111851   4.110   4.536   1.937 -0.1963  0.1612  0.0681
    2PC     O3211852   4.255   4.549   1.872 -0.0827 -0.1738  0.2566
    2PC     C3111853   4.281   4.653   1.776 -0.1336 -0.1655  0.2513
    2PC     H1A11854   4.238   4.748   1.806  0.5076  1.0933 -2.4895
    2PC     H1B11855   4.389   4.663   1.763 -0.0688  0.0176  0.9158
    2PC     C3211856   4.230   4.616   1.636  0.2012 -0.3477  0.1748
    2PC     H2A11857   4.122   4.626   1.628  0.3886  0.4985 -2.2035
    2PC     H2B11858   4.282   4.685   1.569  2.0993 -1.2183  0.6688
    2PC     N3111859   4.274   4.484   1.582  0.5138  0.0422 -0.5461
    2PC     C3311860   4.226   4.475   1.440 -0.3850  0.1243 -0.2547
    2PC     H3A11861   4.259   4.560   1.379  1.2291 -1.0310 -1.0403
    2PC     H3B11862   4.269   4.389   1.389 -0.6061  0.9896 -1.9771
    2PC     H3C11863   4.118   4.462   1.445 -0.4966  1.1151  0.3380
    2PC     C3411864   4.423   4.474   1.573  0.5392 -0.0864 -0.0244
    2PC     H4A11865   4.450   4.379   1.528  0.6111  0.1318 -0.4517
    2PC     H4B11866   4.451   4.554   1.504  1.5060 -1.0468 -0.7850
    2PC     H4C11867   4.473   4.491   1.668 -1.3933 -0.4272  1.1028
    2PC     C3511868   4.217   4.366   1.655  0.4133  0.3662 -0.0994
    2PC     H5A11869   4.206   4.379   1.763 -0.3500 -1.6382  0.1100
    2PC     H5B11870   4.277   4.277   1.631  0.2466  0.6376 -1.5976
    2PC     H5C11871   4.119   4.350   1.611  1.1294 -0.1223 -1.5589
    2PC     O3311872   4.092   4.394   1.973  0.3539  0.0956  0.0841
    2PC     O3411873   3.995   4.580   1.855  0.0107  0.1370 -0.2327
    2PC     O2111874   4.070   4.800   2.280 -0.3656 -0.9711 -0.2690
    2PC     C2111875   3.939   4.810   2.309 -0.1277 -0.1068  0.5485
    2PC     O2211876   3.879   4.713   2.350 -0.5960  0.0393  0.2182
    3OL     C1211877   3.883   4.946   2.276  0.7347  0.0351 -0.3681
    3OL     H2R11878   3.849   4.944   2.172 -1.4964 -1.6467  0.3198
    3OL     H2S11879   3.964   5.019   2.282  2.1100 -1.4675 -0.0151
    3OL     C1311880   3.765   4.994   2.362  0.5160  0.5168 -0.9282
    3OL     H3R11881   3.684   4.922   2.372  1.4087 -0.2773  1.3551
    3OL     H3S11882   3.722   5.090   2.336 -2.5404  0.1444  2.1208
    3OL     C1411883   3.822   5.025   2.501 -0.5310 -0.1305 -0.3463
    3OL     H4R11884   3.889   5.110   2.489  0.2000 -0.7785 -0.9660
    3OL     H4S11885   3.879   4.941   2.540 -1.5283 -0.5977  0.1618
    3OL     C1511886   3.705   5.064   2.594 -0.2404 -0.3030  0.0965
    3OL     H5R11887   3.632   4.984   2.608  0.0223 -0.8436 -1.3348
    3OL     H5S11888   3.660   5.154   2.553  0.9387 -0.1700 -0.9958
    3OL     C1611889   3.755   5.105   2.733 -0.2686 -0.6644  0.2148
    3OL     H6R11890   3.826   5.186   2.717 -0.1763 -0.7495  0.1957
    3OL     H6S11891   3.824   5.035   2.780  1.2957  0.7996  0.1866
    3OL     C1711892   3.646   5.148   2.833  0.1363  0.3739  0.2196
    3OL     H7R11893   3.570   5.070   2.838 -1.8668  2.1722 -0.3892
    3OL     H7S11894   3.599   5.234   2.784 -0.2436 -0.3409 -0.6911
    3OL     C1811895   3.697   5.187   2.972  0.5461  1.3132 -0.1851
    3OL     H8R11896   3.770   5.269   2.967  1.9182  0.0514 -2.5167
    3OL     H8S11897   3.751   5.100   3.010  0.4212  0.5981 -1.6150
    3OL     C1911898   3.581   5.221   3.061  0.2795  0.1288 -0.0740
    3OL     H9R11899   3.476   5.205   3.036 -0.8679  4.0711  1.4073
    3OL    C11011900   3.582   5.282   3.179  0.3933 -0.7158  0.3713
    3OL    H10R11901   3.489   5.306   3.229  1.1736  2.0940  0.6421
    3OL    C11111902   3.707   5.341   3.241  0.1067 -0.0189  0.2916
    3OL    H11R11903   3.764   5.391   3.163  1.3030 -2.3385 -0.4157
    3OL    H11S11904   3.765   5.253   3.268 -1.1702 -0.9527  0.1324
    3OL    C11211905   3.682   5.412   3.375 -0.2744  0.2022  0.1069
    3OL    H12R11906   3.659   5.340   3.454 -0.3316  0.8904  0.7303
    3OL    H12S11907   3.597   5.479   3.364 -0.9269 -0.8573 -1.6378
    3OL    C11311908   3.814   5.482   3.413  0.0546  0.0072 -0.6517
    3OL    H13R11909   3.838   5.555   3.335 -0.5953  2.3290  1.1942
    3OL    H13S11910   3.881   5.398   3.427  0.8629  1.0099  1.9193
    3OL    C11411911   3.796   5.561   3.543 -0.3896 -0.2179 -0.5743
    3OL    H14R11912   3.693   5.596   3.553 -0.2247  0.0294  0.3906
    3OL    H14S11913   3.856   5.652   3.545 -1.5068  0.5356 -0.0407
    3OL    C11511914   3.825   5.473   3.665  0.2475  0.2602 -0.3738
    3OL    H15R11915   3.930   5.467   3.694  0.4997 -0.8708 -1.4302
    3OL    H15S11916   3.791   5.371   3.644 -0.3086  0.7508 -1.9524
    3OL    C11611917   3.744   5.525   3.785  0.8326 -0.2924  0.2661
    3OL    H16R11918   3.648   5.561   3.748  0.4930 -3.2760 -2.1735
    3OL    H16S11919   3.794   5.615   3.822 -0.4162  0.6570 -0.2922
    3OL    C11711920   3.718   5.423   3.897  0.1065 -0.2654  0.1264
    3OL    H17R11921   3.819   5.402   3.935  0.0730  1.6087  1.3684
    3OL    H17S11922   3.685   5.329   3.853  0.9979 -0.5530  0.0520
    3OL    C11811923   3.630   5.476   4.011 -0.0674 -0.3503  0.0314
    3OL    H18R11924   3.547   5.532   3.966  0.1217  0.1525  0.3013
    3OL    H18S11925   3.688   5.548   4.069  2.3172 -2.0343 -0.1425
    3OL    H18T11926   3.599   5.391   4.072 -1.0982 -1.0571 -1.4138
    1PA    C11611927   1.561   4.439   3.621 -0.2816 -0.5105 -0.4326
    1PA    H16R11928   1.636   4.465   3.696  0.6004  2.5201 -2.1797
    1PA    H16S11929   1.467   4.414   3.670 -0.8709 -0.5163 -1.5346
    1PA    H16T11930   1.550   4.529   3.559 -0.6971  0.3722  0.8604
    1PA    C11511931   1.608   4.325   3.531  0.0233 -0.9755  0.3048
    1PA    H15R11932   1.632   4.234   3.585 -0.3624 -1.5677 -0.4874
    1PA    H15S11933   1.519   4.299   3.472 -0.2458  0.8888 -0.1716
    1PA    C11411934   1.730   4.383   3.459 -0.6184  0.0317  0.0070
    1PA    H14R11935   1.729   4.491   3.445 -2.0922  0.0004 -0.2741
    1PA    H14S11936   1.819   4.372   3.521 -0.1839 -0.9358 -0.7658
    1PA    C11311937   1.752   4.310   3.326  0.0194  0.1443  0.0455
    1PA    H13R11938   1.755   4.203   3.348 -0.3843  0.3901  1.4039
    1PA    H13S11939   1.668   4.328   3.258 -0.3622 -0.1985  0.4153
    1PA    C11211940   1.879   4.348   3.248  0.2989 -0.7131  0.0698
    1PA    H12R11941   1.897   4.455   3.242  0.4663 -0.7066  0.6175
    1PA    H12S11942   1.958   4.317   3.317  0.4245 -0.6152 -0.0310
    1PA    C11111943   1.887   4.294   3.105 -0.1514 -0.4350 -0.0606
    1PA    H11R11944   1.888   4.186   3.120 -1.5227 -0.6232 -1.0593
    1PA    H11S11945   1.794   4.321   3.053  0.9310 -0.3973 -2.0554
    1PA    C11011946   2.010   4.336   3.023  0.1939 -0.7196  0.3087
    1PA    H10R11947   2.015   4.445   3.029 -0.3096 -0.6458 -0.3860
    1PA    H10S11948   2.101   4.304   3.074  1.6099  0.4305 -1.3775
    1PA     C1911949   1.997   4.282   2.880 -0.5699 -0.3626  0.2386
    1PA     H9R11950   2.005   4.173   2.875 -0.0805 -0.2862 -0.9661
    1PA     H9S11951   1.897   4.305   2.842  0.5900  3.5653 -0.9875
    1PA     C1811952   2.108   4.346   2.795 -0.4520 -0.6568  0.1706
    1PA     H8R11953   2.101   4.454   2.780  0.0411 -0.4188  1.4863
    1PA     H8S11954   2.204   4.322   2.841  0.6912  1.4884 -0.9494
    1PA     C1711955   2.117   4.286   2.654  0.3508 -0.1064 -0.0145
    1PA     H7R11956   2.209   4.311   2.601  0.1976  1.0601  0.2253
    1PA     H7S11957   2.121   4.178   2.669  0.1182 -0.1706 -0.4075
    1PA     C1611958   2.001   4.340   2.569  0.1559 -0.2687  0.1489
    1PA     H6R11959   1.905   4.322   2.618 -0.5534  1.6283 -0.4541
    1PA     H6S11960   1.990   4.448   2.559  1.2263 -0.1964 -0.3349
    1PA     C1511961   1.998   4.285   2.426  0.2492 -0.0981  0.0805
    1PA     H5R11962   1.910   4.323   2.375  2.0373  3.0737 -0.8679
    1PA     H5S11963   2.092   4.313   2.378  0.9265 -1.3718  0.5793
    1PA     C1411964   1.991   4.131   2.426 -0.1179 -0.0819  0.1316
    1PA     H4R11965   2.079   4.073   2.455 -0.0310  0.6981  1.4961
    1PA     H4S11966   1.918   4.091   2.495 -1.3355 -0.6455 -1.4155
    1PA     C1311967   1.955   4.085   2.284  0.3059  0.2910 -0.1013
    1PA     H3R11968   1.885   4.001   2.288  1.2991 -0.5408  3.0410
    1PA     H3S11969   1.894   4.160   2.232 -1.5792 -1.5357 -0.6939
    1PA     C1211970   2.084   4.037   2.216  0.1177  0.1780 -0.3820
    1PA     H2R11971   2.165   4.110   2.210  2.0244 -1.5418  2.2572
    1PA     H2S11972   2.124   3.965   2.287  2.1424  0.0114 -1.6042
    2PC     C1111973   2.066   3.973   2.080  0.1445  0.4689 -0.5238
    2PC     O1211974   1.955   3.960   2.033  0.1504  0.6036 -0.5746
    2PC     O1111975   2.178   3.928   2.021  0.4557  0.4831  0.0473
    2PC      C111976   2.170   3.861   1.894  0.6370  0.4036  0.0767
    2PC      HR11977   2.081   3.797   1.891  1.0973 -0.3105  1.2300
    2PC      HS11978   2.163   3.935   1.814  0.5749  1.0938  0.7055
    2PC      C211979   2.294   3.772   1.884  0.2061 -0.2025  0.0395
    2PC      HX11980   2.382   3.816   1.932  0.3975  0.5065 -0.9233
    2PC      C311981   2.317   3.732   1.737 -0.0784 -0.5558  0.0925
    2PC      HA11982   2.234   3.670   1.703 -0.5604  0.8164 -1.3094
    2PC      HB11983   2.313   3.819   1.672 -0.5241 -0.4918  0.2073
    2PC     O3111984   2.441   3.669   1.700  0.0849 -0.2347  0.0895
    2PC     P3111985   2.493   3.643   1.551 -0.0541 -0.3473  0.0598
    2PC     O3211986   2.446   3.491   1.534 -0.7109 -0.1163 -0.2548
    2PC     C3111987   2.495   3.405   1.639 -0.2026  0.3241 -0.1268
    2PC     H1A11988   2.597   3.375   1.613 -0.1778  1.2626 -1.1793
    2PC     H1B11989   2.495   3.453   1.738  0.0766  0.9052 -0.4011
    2PC     C3211990   2.406   3.281   1.642  0.1453  0.0811  0.3331
    2PC     H2A11991   2.418   3.226   1.549 -2.2405  0.2939 -0.1648
    2PC     H2B11992   2.458   3.213   1.710  0.9321 -1.4292 -1.6612
    2PC     N3111993   2.260   3.286   1.678  0.1135  0.2452  0.1841
    2PC     C3311994   2.247   3.364   1.805  0.1948  0.2756  0.1738
    2PC     H3A11995   2.142   3.348   1.826 -0.2113 -0.1070 -1.9518
    2PC     H3B11996   2.316   3.322   1.879  1.1660 -0.3326 -1.0387
    2PC     H3C11997   2.266   3.470   1.786 -1.9822  0.6813  0.0635
    2PC     C3411998   2.188   3.357   1.568  0.0801  0.4018  0.3068
    2PC     H4A11999   2.199   3.294   1.480  0.9278 -0.3865  0.9615
    2PC     H4B12000   2.082   3.376   1.588 -0.2384 -0.9346  0.0112
    2PC     H4C12001   2.240   3.447   1.534 -1.4622  0.7161 -1.3753
    2PC     C3512002   2.194   3.151   1.686 -0.3053  0.4362 -0.0378
    2PC     H5A12003   2.211   3.092   1.596 -1.4948 -0.5162  0.3385
    2PC     H5B12004   2.089   3.170   1.705 -0.4775  0.4525 -0.9335
    2PC     H5C12005   2.222   3.097   1.776 -3.1152 -1.3276 -0.1253
    2PC     O3312006   2.424   3.739   1.461 -0.1646 -0.1690  0.3327
    2PC     O3412007   2.639   3.658   1.529 -0.0193 -0.2524  0.3600
    2PC     O2112008   2.266   3.645   1.945 -0.2798 -0.1174 -0.0019
    2PC     C2112009   2.249   3.622   2.076 -0.9310 -0.2055 -0.0982
    2PC     O2212010   2.281   3.706   2.158  0.2520 -0.7241 -0.0079
    3OL     C1212011   2.208   3.483   2.118  0.0223 -0.3591  0.3804
    3OL     H2R12012   2.262   3.407   2.062  0.3743 -0.0437  0.2856
    3OL     H2S12013   2.102   3.469   2.094 -0.3659  0.3675  1.5826
    3OL     C1312014   2.221   3.471   2.270  0.2547 -0.2310  0.3713
    3OL     H3R12015   2.174   3.553   2.325 -2.2948 -0.4550 -1.2614
    3OL     H3S12016   2.323   3.448   2.301  1.0907 -1.0860 -2.6880
    3OL     C1412017   2.152   3.340   2.312 -0.0065 -0.1506  0.1948
    3OL     H4R12018   2.193   3.260   2.249  1.1210  1.3181 -1.0137
    3OL     H4S12019   2.045   3.344   2.291  0.3367  0.1191 -1.7653
    3OL     C1512020   2.177   3.323   2.462  0.4328 -0.1342  0.1247
    3OL     H5R12021   2.148   3.417   2.509  0.8762  0.7986 -1.4052
    3OL     H5S12022   2.285   3.314   2.479  0.0295 -1.5834  2.3850
    3OL     C1612023   2.107   3.201   2.524  0.0362 -0.2310 -0.4992
    3OL     H6R12024   2.128   3.182   2.630 -1.0832 -1.4802 -0.4813
    3OL     H6S12025   2.160   3.119   2.476  1.6173  2.3161 -3.4542
    3OL     C1712026   1.955   3.215   2.511  0.0682  0.1394 -0.5024
    3OL     H7R12027   1.928   3.210   2.406  1.1516 -0.5100 -0.7647
    3OL     H7S12028   1.927   3.309   2.559  2.7548 -0.8852  3.6012
    3OL     C1812029   1.874   3.104   2.580  0.4006  0.1253 -0.1262
    3OL     H8R12030   1.879   3.006   2.532 -1.3324 -0.4944  0.8423
    3OL     H8S12031   1.769   3.124   2.557  0.3928  1.3719  0.9164
    3OL     C1912032   1.887   3.115   2.729  0.1656  0.1644 -0.1077
    3OL     H9R12033   1.842   3.200   2.780  0.5270 -0.4573  1.3059
    3OL    C11012034   1.941   3.023   2.808 -0.9492 -0.7981 -0.4538
    3OL    H10R12035   1.951   3.045   2.913  0.4776 -0.9095 -0.5578
    3OL    C11112036   2.002   2.891   2.765  0.6153 -0.0638 -0.5280
    3OL    H11R12037   1.985   2.885   2.658 -0.0767  2.2934 -0.6197
    3OL    H11S12038   1.949   2.815   2.823  1.2946  1.3764  2.1861
    3OL    C11212039   2.148   2.892   2.813  0.4488 -0.1213 -0.0071
    3OL    H12R12040   2.205   2.971   2.763 -0.6709  0.0216 -1.1247
    3OL    H12S12041   2.199   2.803   2.775  0.0055  0.0807 -1.1072
    3OL    C11312042   2.164   2.886   2.965 -0.0074  0.4073  0.0649
    3OL    H13R12043   2.119   2.796   3.008 -0.6048  0.9528  0.6082
    3OL    H13S12044   2.115   2.975   3.006  2.7814  1.9587  0.2562
    3OL    C11412045   2.312   2.889   3.004  0.0569 -0.3091 -0.1192
    3OL    H14R12046   2.350   2.988   2.979 -0.5154 -1.0754 -5.0180
    3OL    H14S12047   2.373   2.818   2.947  1.3032  2.0025 -1.8358
    3OL    C11512048   2.334   2.865   3.154 -0.0305 -0.5571 -0.1443
    3OL    H15R12049   2.293   2.768   3.182 -1.4535 -0.2511 -1.0913
    3OL    H15S12050   2.272   2.936   3.210 -1.8556 -3.0619  1.2219
    3OL    C11612051   2.483   2.876   3.190 -0.0620  0.0776 -0.1928
    3OL    H16R12052   2.501   2.984   3.186  0.0354  0.0431 -3.5267
    3OL    H16S12053   2.538   2.820   3.114 -0.9489  0.3179 -1.0224
    3OL    C11712054   2.511   2.833   3.335 -0.0059  0.4744 -0.0841
    3OL    H17R12055   2.610   2.788   3.349 -0.3986 -0.0422  1.1421
    3OL    H17S12056   2.440   2.754   3.360  1.1946  0.2188  2.9049
    3OL    C11812057   2.515   2.943   3.442  0.4494  0.4962 -0.1214
    3OL    H18R12058   2.517   2.906   3.545 -0.8351  1.2139  0.1829
    3OL    H18S12059   2.426   3.005   3.439  0.4465  0.5031  0.0581
    3OL    H18T12060   2.593   3.014   3.413 -1.6478  2.7539 -0.4759
    1PA    C11612061   3.983   3.627   3.181 -0.2067 -0.4837 -0.2212
    1PA    H16R12062   3.995   3.628   3.073  3.7628 -3.2472 -0.0351
    1PA    H16S12063   3.980   3.522   3.209  2.5942 -0.2623  1.2311
    1PA    H16T12064   4.065   3.675   3.236 -0.1187  2.3943 -2.6264
    1PA    C11512065   3.855   3.703   3.217 -0.0163 -0.2563 -0.0178
    1PA    H15R12066   3.874   3.807   3.190 -2.9909  0.8827  1.7248
    1PA    H15S12067   3.771   3.656   3.165  1.0432 -1.0622 -1.0413
    1PA    C11412068   3.825   3.690   3.367 -0.3813 -0.1135 -0.0779
    1PA    H14R12069   3.790   3.588   3.385  1.0152 -0.6285 -0.1528
    1PA    H14S12070   3.915   3.712   3.424 -0.7897  0.3939  0.3944
    1PA    C11312071   3.716   3.780   3.427 -0.2767 -0.2889  0.3820
    1PA    H13R12072   3.631   3.796   3.359  0.2714  4.0422  0.3874
    1PA    H13S12073   3.679   3.735   3.519  1.6822  0.2804  1.4896
    1PA    C11212074   3.765   3.920   3.466 -0.8196  0.1524 -0.4689
    1PA    H12R12075   3.717   3.968   3.552  1.0843  0.3509  0.5397
    1PA    H12S12076   3.867   3.907   3.505 -0.5908  0.6201 -0.9002
    1PA    C11112077   3.777   4.029   3.359  0.4736  0.1477 -0.3478
    1PA    H11R12078   3.863   4.002   3.296  0.5690  1.2867 -0.7218
    1PA    H11S12079   3.685   4.025   3.300  1.2067 -0.1653 -1.5120
    1PA    C11012080   3.792   4.167   3.423 -0.3060  0.0544  0.0413
    1PA    H10R12081   3.701   4.178   3.482  0.2794 -1.7159  1.3534
    1PA    H10S12082   3.868   4.163   3.501 -1.5587 -3.9924  1.3275
    1PA     C1912083   3.810   4.279   3.319  0.2766  0.4324  0.5423
    1PA     H9R12084   3.734   4.253   3.245  0.2989  0.6585  0.4390
    1PA     H9S12085   3.782   4.375   3.361  0.6672 -0.0047  1.8759
    1PA     C1812086   3.943   4.286   3.243  0.0298  0.3826  0.1070
    1PA     H8R12087   4.020   4.311   3.316  0.4331  0.7023 -0.4185
    1PA     H8S12088   3.973   4.197   3.187 -0.7261  1.4847 -2.1859
    1PA     C1712089   3.944   4.396   3.135  0.0032  0.0614 -0.2220
    1PA     H7R12090   3.892   4.476   3.187  2.0054 -1.1584  4.1952
    1PA     H7S12091   4.051   4.413   3.117 -0.2096 -0.6034 -2.3885
    1PA     C1612092   3.886   4.345   3.002 -0.0410  0.0456 -0.1966
    1PA     H6R12093   3.938   4.255   2.971 -1.7515 -0.9621 -0.2541
    1PA     H6S12094   3.784   4.309   3.013 -0.1195  0.2684 -0.1987
    1PA     C1512095   3.890   4.455   2.895  0.2567 -0.3734 -0.6207
    1PA     H5R12096   3.814   4.524   2.933  0.0322 -0.9495 -0.0074
    1PA     H5S12097   3.987   4.506   2.895 -1.4405  3.1411 -0.9610
    1PA     C1412098   3.844   4.403   2.759 -0.5276  0.5594 -0.7246
    1PA     H4R12099   3.757   4.338   2.776  1.5155 -2.8129 -2.1771
    1PA     H4S12100   3.827   4.481   2.685 -0.1385 -0.3925 -1.8449
    1PA     C1312101   3.955   4.322   2.691 -0.3016 -0.0855  0.3761
    1PA     H3R12102   4.011   4.271   2.769 -0.4211  1.1665  1.3050
    1PA     H3S12103   3.905   4.250   2.626  1.7059 -0.1532 -1.2043
    1PA     C1212104   4.048   4.413   2.608 -0.0029 -0.5058  0.2501
    1PA     H2R12105   3.995   4.493   2.558  3.0256  0.6907 -1.2861
    1PA     H2S12106   4.111   4.469   2.677  0.0372 -0.7208  0.3909
    2PC     C1112107   4.133   4.329   2.517 -0.2650 -0.2503 -0.2310
    2PC     O1212108   4.134   4.340   2.396  0.5306 -0.1000 -0.2144
    2PC     O1112109   4.202   4.235   2.583  0.1861  0.3677  0.1835
    2PC      C112110   4.274   4.137   2.504  0.0429  0.2895  0.1498
    2PC      HR12111   4.204   4.073   2.450 -0.0130  0.2668  0.2481
    2PC      HS12112   4.337   4.193   2.435  0.4173  0.9510  0.9948
    2PC      C212113   4.367   4.054   2.594  0.1119  0.1529 -0.0489
    2PC      HX12114   4.410   4.122   2.668 -0.2810 -0.1246  0.4369
    2PC      C312115   4.464   3.974   2.506  0.0508  0.0612 -0.0326
    2PC      HA12116   4.547   4.041   2.482  0.1067  0.9470  2.4134
    2PC      HB12117   4.514   3.892   2.558  1.6221  0.1216 -1.3525
    2PC     O3112118   4.404   3.916   2.388 -0.2229  0.3179 -0.0210
    2PC     P3112119   4.498   3.867   2.268  0.0237  0.2846  0.1829
    2PC     O3212120   4.549   4.012   2.223  0.1278  0.0339 -0.5166
    2PC     C3112121   4.473   4.107   2.145 -0.4298  0.1038  0.1056
    2PC     H1A12122   4.467   4.072   2.042  1.4986  1.2912 -0.4688
    2PC     H1B12123   4.377   4.125   2.194 -1.7906 -1.1084 -1.9930
    2PC     C3212124   4.562   4.232   2.152  0.1124 -0.2754  0.0963
    2PC     H2A12125   4.590   4.255   2.255 -1.7078  0.4030  0.4772
    2PC     H2B12126   4.656   4.212   2.101  0.0144 -2.4437  0.6582
    2PC     N3112127   4.506   4.354   2.084  0.1704 -0.1809  0.2192
    2PC     C3312128   4.496   4.335   1.936 -0.2683 -0.6294  0.3050
    2PC     H3A12129   4.451   4.426   1.898  0.8122 -0.1025  0.2580
    2PC     H3B12130   4.596   4.315   1.896 -0.6552 -1.1225 -0.4374
    2PC     H3C12131   4.432   4.248   1.918  0.3657 -1.2206  0.8353
    2PC     C3412132   4.373   4.385   2.146  0.2430  0.6180 -0.0188
    2PC     H4A12133   4.346   4.477   2.094  0.1679  0.7166  0.1937
    2PC     H4B12134   4.310   4.302   2.113  2.6526 -0.2013 -3.1250
    2PC     H4C12135   4.386   4.395   2.253 -0.3105  0.7582  0.0384
    2PC     C3512136   4.605   4.465   2.102 -0.7147  0.5179  0.8642
    2PC     H5A12137   4.702   4.438   2.059 -1.2477 -1.4715  0.7991
    2PC     H5B12138   4.612   4.489   2.208  0.1953 -1.1296  1.2104
    2PC     H5C12139   4.571   4.551   2.044  0.7483  0.6001  0.0787
    2PC     O3312140   4.583   3.751   2.300 -0.3291  0.2461  0.9910
    2PC     O3412141   4.417   3.799   2.164  0.5677 -0.2167  0.0806
    2PC     O2112142   4.283   3.963   2.667  0.2572  0.1605  0.1292
    2PC     C2112143   4.325   3.906   2.781 -0.1924  0.1503  0.2933
    2PC     O2212144   4.434   3.926   2.831  0.0211 -0.6230  0.1481
    3OL     C1212145   4.228   3.810   2.844 -0.4836  0.2411 -0.0096
    3OL     H2R12146   4.278   3.740   2.912  0.3788  1.5137  0.7021
    3OL     H2S12147   4.192   3.744   2.764  1.3645 -0.3659 -0.3925
    3OL     C1312148   4.110   3.879   2.913 -0.6051 -0.6300  0.6754
    3OL     H3R12149   4.132   3.965   2.978 -1.2820 -0.1976  0.3509
    3OL     H3S12150   4.071   3.802   2.980  0.1622 -0.0063  1.8851
    3OL     C1412151   3.998   3.915   2.815 -0.1602 -0.2189  0.3115
    3OL     H4R12152   3.981   3.836   2.740 -0.4141  1.6064 -1.6538
    3OL     H4S12153   4.037   3.995   2.752 -0.3903 -1.6926 -1.8305
    3OL     C1512154   3.872   3.941   2.898 -0.2927  0.0948  0.0133
    3OL     H5R12155   3.895   4.000   2.987  2.0830 -1.8782  0.8247
    3OL     H5S12156   3.833   3.842   2.919 -1.0446  0.3963  0.0964
    3OL     C1612157   3.754   4.010   2.827  0.0985  0.8559  0.0836
    3OL     H6R12158   3.753   3.943   2.740  0.9549  0.5448  0.3008
    3OL     H6S12159   3.766   4.114   2.798  0.2390  0.7596 -0.2062
    3OL     C1712160   3.624   3.993   2.907 -0.0114 -0.5257 -0.3637
    3OL     H7R12161   3.617   4.059   2.993 -0.9611 -0.6796 -0.3087
    3OL     H7S12162   3.602   3.899   2.958  0.0169  0.3070  1.2315
    3OL     C1812163   3.501   4.028   2.823 -0.0277  0.0560 -0.0984
    3OL     H8R12164   3.517   3.991   2.721 -0.2779  1.7404 -0.7873
    3OL     H8S12165   3.503   4.137   2.812 -1.5983  0.0714 -0.6432
    3OL     C1912166   3.370   3.968   2.868  0.7917 -1.2990  0.5196
    3OL     H9R12167   3.341   3.867   2.840 -2.2288 -1.1054  2.4497
    3OL    C11012168   3.274   4.025   2.939  0.9518  0.2059 -0.4403
    3OL    H10R12169   3.181   3.973   2.960 -1.1218  3.7662 -0.0705
    3OL    C11112170   3.280   4.169   2.984 -0.3599  0.0738  0.2211
    3OL    H11R12171   3.358   4.218   2.924  1.4679 -0.6100  1.9086
    3OL    H11S12172   3.314   4.168   3.087 -1.3867  0.0134  0.5651
    3OL    C11212173   3.143   4.236   2.973 -0.0660  0.6465  0.0150
    3OL    H12R12174   3.076   4.195   3.048 -0.7338 -1.5596 -1.6774
    3OL    H12S12175   3.090   4.214   2.880 -1.1256  0.9047  0.5428
    3OL    C11312176   3.154   4.389   2.989  0.0878  0.7434 -0.9222
    3OL    H13R12177   3.216   4.419   2.905  0.2254 -1.8186 -1.8430
    3OL    H13S12178   3.202   4.414   3.084 -0.1275 -1.8308 -0.0363
    3OL    C11412179   3.016   4.450   2.964 -0.4899  0.1295  0.6521
    3OL    H14R12180   2.938   4.404   3.025 -0.4152  0.0270  0.6709
    3OL    H14S12181   2.982   4.424   2.864 -2.2400 -0.3904  1.3349
    3OL    C11512182   3.005   4.603   2.974 -0.2813  0.1744  0.2149
    3OL    H15R12183   3.076   4.648   2.904 -0.8599 -0.2559 -0.6511
    3OL    H15S12184   3.046   4.631   3.072 -1.7791 -2.5968  1.7589
    3OL    C11612185   2.864   4.663   2.968 -0.3687  0.0020  0.5237
    3OL    H16R12186   2.878   4.768   2.995 -1.0201  0.1183  0.4229
    3OL    H16S12187   2.803   4.625   3.050 -0.8435 -0.4527 -0.0353
    3OL    C11712188   2.808   4.652   2.826  0.3650 -0.5214  0.2682
    3OL    H17R12189   2.788   4.549   2.796 -2.3037 -0.6563  2.1354
    3OL    H17S12190   2.884   4.694   2.761 -0.3032  0.6612  0.2204
    3OL    C11812191   2.679   4.735   2.812  0.6252 -0.1134  0.2888
    3OL    H18R12192   2.691   4.842   2.792  0.2493 -0.1446 -0.1037
    3OL    H18S12193   2.621   4.722   2.903  0.6307 -1.7115  0.0982
    3OL    H18T12194   2.609   4.696   2.739 -1.4094  1.7081  1.1683
    1PA    C11612195   5.004   1.662   4.021  0.1755  0.7311 -0.1529
    1PA    H16R12196   5.109   1.691   4.015  0.2314  0.9137  1.2733
    1PA    H16S12197   5.010   1.553   4.029  0.6669  0.7382 -0.3639
    1PA    H16T12198   4.974   1.714   4.112  0.1838  1.1620 -0.3953
    1PA    C11512199   4.917   1.709   3.904 -0.3357  0.0262 -0.0665
    1PA    H15R12200   4.928   1.632   3.828 -0.2853 -0.2064  0.1742
    1PA    H15S12201   4.813   1.717   3.934 -0.4908  0.4294 -0.7048
    1PA    C11412202   4.958   1.843   3.841  0.0221  0.1334  0.3873
    1PA    H14R12203   5.063   1.832   3.813 -0.0011  0.0606  0.3332
    1PA    H14S12204   4.907   1.862   3.746  0.8005 -0.5449 -0.1806
    1PA    C11312205   4.936   1.968   3.928  0.2703  0.4022  0.0691
    1PA    H13R12206   4.827   1.970   3.936  0.1324  0.2461 -1.5713
    1PA    H13S12207   4.977   1.952   4.028  1.3748  3.0917  0.1173
    1PA    C11212208   4.991   2.092   3.857  0.1248  0.1719 -0.4498
    1PA    H12R12209   4.933   2.115   3.768  1.1561  3.2970 -0.4190
    1PA    H12S12210   4.970   2.177   3.922  1.3874 -1.3534  2.0998
    1PA    C11112211   5.143   2.084   3.840  0.2188 -0.0181  0.4215
    1PA    H11R12212   5.194   2.043   3.927 -0.0892 -1.1692  0.0724
    1PA    H11S12213   5.170   2.024   3.753  0.2907  1.7399 -0.8321
    1PA    C11012214   5.206   2.221   3.809  0.3477 -0.1729 -0.0048
    1PA    H10R12215   5.165   2.303   3.867  2.4622  0.1291  1.1629
    1PA    H10S12216   5.314   2.228   3.824  0.2990  1.3568 -0.1963
    1PA     C1912217   5.180   2.247   3.660 -0.1073  0.3001  0.1553
    1PA     H9R12218   5.235   2.171   3.603 -0.6305  1.7706 -2.4576
    1PA     H9S12219   5.075   2.234   3.632 -0.5297  0.6243  1.5142
    1PA     C1812220   5.217   2.389   3.615  0.0817  0.1297 -0.2390
    1PA     H8R12221   5.177   2.453   3.695 -1.6483  0.9925 -1.7203
    1PA     H8S12222   5.326   2.382   3.623 -0.0596 -0.2715  2.0748
    1PA     C1712223   5.180   2.411   3.468 -0.0451 -0.9254 -0.3704
    1PA     H7R12224   5.253   2.461   3.403 -0.5719 -2.0811 -1.9244
    1PA     H7S12225   5.177   2.313   3.419 -1.5071  0.6048 -3.6156
    1PA     C1612226   5.044   2.477   3.445  0.2478 -0.2049 -0.0487
    1PA     H6R12227   4.965   2.431   3.505  0.1710 -1.0080 -0.7508
    1PA     H6S12228   5.052   2.579   3.486  0.3248 -0.7367  1.3195
    1PA     C1512229   5.000   2.483   3.298 -0.6700 -0.5254  0.2099
    1PA     H5R12230   5.083   2.516   3.236  0.0577 -1.5521  0.6061
    1PA     H5S12231   4.962   2.387   3.263 -2.2935  0.1467  0.0432
    1PA     C1412232   4.878   2.573   3.274 -0.3115 -0.0830  0.0368
    1PA     H4R12233   4.778   2.539   3.303 -1.0383  1.9156  0.0496
    1PA     H4S12234   4.891   2.665   3.331 -0.5576 -0.5939  0.9321
    1PA     C1312235   4.885   2.610   3.125 -0.1668 -0.3183 -0.0158
    1PA     H3R12236   4.978   2.663   3.103  0.2125  0.1807  2.4422
    1PA     H3S12237   4.878   2.522   3.062 -0.1607 -1.1988  1.1773
    1PA     C1212238   4.762   2.697   3.098  0.2100  0.3025  0.2244
    1PA     H2R12239   4.670   2.646   3.127  1.1463 -1.0109  0.9653
    1PA     H2S12240   4.771   2.790   3.154 -0.4879 -0.4689  1.6550
    2PC     C1112241   4.765   2.722   2.949 -0.1577 -0.0536  0.1558
    2PC     O1212242   4.811   2.821   2.896 -0.1404 -0.2080 -0.1210
    2PC     O1112243   4.710   2.617   2.885  0.0831  0.1267 -0.3533
    2PC      C112244   4.726   2.620   2.742 -1.4379  0.1133 -0.5399
    2PC      HR12245   4.649   2.677   2.691 -1.1562  0.9315 -0.0700
    2PC      HS12246   4.825   2.662   2.723 -1.6128 -0.7447 -4.0359
    2PC      C212247   4.723   2.479   2.682 -0.7266 -0.0832 -0.1320
    2PC      HX12248   4.797   2.411   2.724 -0.7492 -0.2329 -0.3305
    2PC      C312249   4.756   2.488   2.532  0.2783 -0.0298  0.0868
    2PC      HA12250   4.855   2.532   2.517  0.0875 -0.0892 -1.4361
    2PC      HB12251   4.757   2.388   2.488 -1.6899  0.0741 -0.2614
    2PC     O3112252   4.659   2.574   2.470  0.0381 -0.0953  0.3675
    2PC     P3112253   4.715   2.670   2.354 -0.0018 -0.4623  0.0459
    2PC     O3212254   4.799   2.780   2.434 -0.3102 -0.1048 -0.1195
    2PC     C3112255   4.731   2.900   2.475  0.2525  0.1702  0.0198
    2PC     H1A12256   4.689   2.952   2.388  1.1376  0.8386 -0.0199
    2PC     H1B12257   4.651   2.864   2.541  0.8877 -2.8857 -0.7342
    2PC     C3212258   4.830   2.986   2.554  0.3969  0.4715 -0.4806
    2PC     H2A12259   4.864   2.931   2.643  0.1203  1.8233  0.4923
    2PC     H2B12260   4.922   2.998   2.497  1.3840 -0.3888  0.8588
    2PC     N3112261   4.778   3.117   2.606 -0.1716  0.1493 -0.2255
    2PC     C3312262   4.791   3.215   2.494  0.4921 -0.0117 -0.2952
    2PC     H3A12263   4.718   3.190   2.417  0.9993  1.7181 -1.4082
    2PC     H3B12264   4.768   3.313   2.537  0.4436 -0.6558  1.2021
    2PC     H3C12265   4.896   3.206   2.465 -0.4099 -3.1688 -3.3572
    2PC     C3412266   4.638   3.110   2.658 -0.3680  0.5417 -0.7001
    2PC     H4A12267   4.626   3.027   2.727  1.1150 -0.0088 -1.0779
    2PC     H4B12268   4.616   3.204   2.710 -0.4136 -0.1963  0.6561
    2PC     H4C12269   4.562   3.097   2.580 -0.5420  0.0238 -0.4451
    2PC     C3512270   4.865   3.158   2.720 -0.1190 -0.0679 -0.1864
    2PC     H5A12271   4.869   3.078   2.794  0.1805  1.1218  1.1344
    2PC     H5B12272   4.823   3.247   2.768 -1.7236 -1.3100  0.8166
    2PC     H5C12273   4.965   3.171   2.678  0.3787 -0.9887  0.6700
    2PC     O3312274   4.803   2.590   2.265  0.6654  0.0240  0.2602
    2PC     O3412275   4.620   2.729   2.256  0.5059 -0.1656 -0.2731
    2PC     O2112276   4.594   2.426   2.716 -0.5315 -0.3790  0.1535
    2PC     C2112277   4.577   2.294   2.732  0.0933 -0.4356  0.3741
    2PC     O2212278   4.654   2.206   2.698  0.2569 -0.3002  0.3921
    3OL     C1212279   4.440   2.272   2.790  0.1374  0.3470  0.7817
    3OL     H2R12280   4.390   2.368   2.776  0.6107  0.3177 -1.3378
    3OL     H2S12281   4.460   2.248   2.895  2.5151 -1.9942 -0.0947
    3OL     C1312282   4.345   2.173   2.721  0.0470  0.9451  0.0501
    3OL     H3R12283   4.348   2.194   2.613 -0.1729 -1.3437 -0.4361
    3OL     H3S12284   4.242   2.177   2.758 -1.0978 -0.6643 -2.6331
    3OL     C1412285   4.389   2.029   2.748  0.2647  0.8259 -0.8952
    3OL     H4R12286   4.389   1.996   2.852 -1.4381 -2.8711 -1.8764
    3OL     H4S12287   4.494   2.022   2.721  0.6227  0.7558  0.4252
    3OL     C1512288   4.303   1.922   2.679  0.8362 -0.3285  0.1474
    3OL     H5R12289   4.312   1.954   2.575  3.9791  0.9910  0.6893
    3OL     H5S12290   4.203   1.948   2.713  1.0743 -1.3251  1.7397
    3OL     C1612291   4.330   1.775   2.714  0.3715 -0.5004 -0.2104
    3OL     H6R12292   4.314   1.761   2.821 -0.5437  1.8858  0.0186
    3OL     H6S12293   4.430   1.741   2.686 -0.1801 -3.0950  0.6236
    3OL     C1712294   4.233   1.675   2.649  0.1898 -1.0458  0.8691
    3OL     H7R12295   4.268   1.573   2.662  0.6410 -0.8869  0.9222
    3OL     H7S12296   4.226   1.688   2.540 -0.8166  0.3925  1.0679
    3OL     C1812297   4.088   1.693   2.697 -0.1161 -0.5865 -0.1850
    3OL     H8R12298   4.043   1.785   2.660 -0.7736 -0.6272  0.4863
    3OL     H8S12299   4.089   1.695   2.806  0.1832  3.0174 -0.1488
    3OL     C1912300   4.013   1.569   2.656 -0.2027 -0.5273 -0.2059
    3OL     H9R12301   3.987   1.570   2.550 -0.5000  0.3936 -0.1342
    3OL    C11012302   3.970   1.474   2.738  0.3093 -0.5248  0.0658
    3OL    H10R12303   3.924   1.387   2.692 -1.9172 -0.9492  2.8423
    3OL    C11112304   3.983   1.455   2.887  0.1409 -0.3683  0.1002
    3OL    H11R12305   4.019   1.545   2.938 -0.8175  0.4550 -0.6353
    3OL    H11S12306   4.057   1.376   2.899  1.7095  1.0038 -0.1059
    3OL    C11212307   3.840   1.419   2.929 -0.0264 -0.6708 -0.7121
    3OL    H12R12308   3.782   1.511   2.932  1.8237  0.5695  2.7372
    3OL    H12S12309   3.844   1.388   3.034 -0.8971  1.6049  0.0459
    3OL    C11312310   3.764   1.311   2.851 -0.1777 -0.7565 -0.4476
    3OL    H13R12311   3.823   1.231   2.806 -1.9764 -1.4624 -1.6637
    3OL    H13S12312   3.716   1.355   2.763  0.5266 -0.7996 -0.8606
    3OL    C11412313   3.662   1.246   2.946 -0.4705 -0.0584 -0.2735
    3OL    H14R12314   3.582   1.207   2.883 -0.9356  1.6916 -0.8241
    3OL    H14S12315   3.616   1.312   3.019  0.9742 -0.0462  0.6579
    3OL    C11512316   3.716   1.125   3.024 -0.2042  0.6473  0.6437
    3OL    H15R12317   3.780   1.141   3.111 -0.8417 -1.8989  1.6617
    3OL    H15S12318   3.768   1.056   2.957  0.8944  1.1067  0.9937
    3OL    C11612319   3.597   1.035   3.058 -0.0813  0.5575  0.8379
    3OL    H16R12320   3.569   0.992   2.961 -0.0957 -2.1940  1.9752
    3OL    H16S12321   3.507   1.084   3.094 -0.0031  0.3710  1.2944
    3OL    C11712322   3.640   0.921   3.152  0.2728  0.0610  0.0908
    3OL    H17R12323   3.748   0.907   3.142  0.4663 -1.3107  3.0003
    3OL    H17S12324   3.601   0.823   3.126  0.7592  0.1786 -1.1216
    3OL    C11812325   3.626   0.942   3.304  0.4410 -0.5469  0.1932
    3OL    H18R12326   3.521   0.952   3.330  1.0454 -2.2869  3.8273
    3OL    H18S12327   3.684   1.029   3.338  0.8027 -1.3957  1.8409
    3OL    H18T12328   3.663   0.856   3.359 -2.1134 -0.8428  1.5929
    1PA    C11612329   4.492   0.568   4.075 -0.4724  0.1046  0.5273
    1PA    H16R12330   4.430   0.554   4.164 -1.0863  0.6059  0.1954
    1PA    H16S12331   4.595   0.575   4.109  0.6347 -2.3675 -1.9770
    1PA    H16T12332   4.479   0.472   4.025  0.5112 -0.1563  0.7558
    1PA    C11512333   4.451   0.686   3.985 -0.2072 -0.1332  0.0920
    1PA    H15R12334   4.343   0.688   3.971 -0.7322  2.2887  3.4079
    1PA    H15S12335   4.487   0.779   4.030  0.9613 -1.9332  3.1784
    1PA    C11412336   4.518   0.677   3.847 -0.0899  0.1213  0.1311
    1PA    H14R12337   4.523   0.570   3.824 -3.2920 -0.0058 -0.5107
    1PA    H14S12338   4.448   0.722   3.775 -1.2373 -0.9760  0.5132
    1PA    C11312339   4.653   0.748   3.850 -0.3769  0.6680  0.2780
    1PA    H13R12340   4.628   0.854   3.855  0.2021  0.9047 -1.3360
    1PA    H13S12341   4.699   0.718   3.945  0.1989  2.2430  0.5441
    1PA    C11212342   4.741   0.723   3.726 -0.7801 -0.0578  0.1357
    1PA    H12R12343   4.837   0.773   3.740 -2.6011  3.5204  1.2467
    1PA    H12S12344   4.749   0.615   3.713 -2.0924 -0.3457  1.3675
    1PA    C11112345   4.675   0.775   3.597 -0.4180 -0.1561 -0.0888
    1PA    H11R12346   4.568   0.758   3.586 -0.9015  0.8541  2.2862
    1PA    H11S12347   4.688   0.884   3.605  1.3692 -0.3602  0.3573
    1PA    C11012348   4.741   0.717   3.472  0.0361  0.0828  0.0368
    1PA    H10R12349   4.836   0.770   3.457 -0.1524  1.2520  2.4728
    1PA    H10S12350   4.743   0.608   3.474  1.5511  0.0768 -0.3379
    1PA     C1912351   4.660   0.742   3.344  0.0522 -0.5474 -0.0990
    1PA     H9R12352   4.560   0.699   3.347 -0.1540 -0.0551  0.2263
    1PA     H9S12353   4.654   0.850   3.327 -1.8084 -0.4908  0.6395
    1PA     C1812354   4.724   0.690   3.215  0.5543 -0.0033 -0.0695
    1PA     H8R12355   4.819   0.742   3.195  0.3920 -0.4817 -2.3193
    1PA     H8S12356   4.744   0.584   3.230  0.8859 -0.0460 -0.7476
    1PA     C1712357   4.642   0.707   3.087 -0.6373  0.5537  0.7554
    1PA     H7R12358   4.708   0.681   3.004 -1.5965  0.4491  0.0072
    1PA     H7S12359   4.564   0.631   3.084 -1.1415  1.0748 -0.3025
    1PA     C1612360   4.574   0.842   3.055 -0.0898  0.6818  0.0955
    1PA     H6R12361   4.466   0.825   3.057 -0.3160  1.3764 -2.6085
    1PA     H6S12362   4.595   0.918   3.131  1.8036 -0.5340  0.8848
    1PA     C1512363   4.617   0.889   2.916 -0.0642  0.7193  0.1159
    1PA     H5R12364   4.596   0.996   2.908 -0.2381  0.6281 -0.7308
    1PA     H5S12365   4.723   0.866   2.915 -0.3187 -0.5296  0.2001
    1PA     C1412366   4.548   0.819   2.798  0.0690  0.1137  0.3954
    1PA     H4R12367   4.545   0.712   2.817  0.6178 -0.0084 -0.1484
    1PA     H4S12368   4.444   0.847   2.781 -0.1324 -1.3277 -0.9075
    1PA     C1312369   4.626   0.841   2.667 -0.2504 -0.2099  0.1487
    1PA     H3R12370   4.631   0.948   2.646  0.5603  0.3890  2.9867
    1PA     H3S12371   4.729   0.812   2.685  1.1042  1.2687 -4.0201
    1PA     C1212372   4.555   0.766   2.554 -0.3009  0.0632 -0.0025
    1PA     H2R12373   4.523   0.665   2.581  2.8933 -0.9801  0.3272
    1PA     H2S12374   4.468   0.824   2.523 -0.6158 -0.0520  0.6524
    2PC     C1112375   4.645   0.745   2.435 -0.0049  0.1266  0.2117
    2PC     O1212376   4.598   0.708   2.330 -0.1999 -0.1693  0.4017
    2PC     O1112377   4.773   0.778   2.460  0.2230 -0.7481  0.2416
    2PC      C112378   4.861   0.768   2.346 -0.4713  0.1465 -0.3822
    2PC      HR12379   4.899   0.666   2.342  0.6925  0.3443  2.9777
    2PC      HS12380   4.804   0.802   2.258  0.2706  1.3150 -0.4383
    2PC      C212381   4.979   0.865   2.361 -0.3066 -0.0593 -0.3596
    2PC      HX12382   4.933   0.950   2.411 -1.3531 -0.0833 -1.2602
    2PC      C312383   5.059   0.909   2.238  0.0824  0.5388  0.1019
    2PC      HA12384   4.990   0.939   2.158 -0.7056  0.6785  0.8161
    2PC      HB12385   5.127   0.992   2.261  1.4671 -0.5556  0.0627
    2PC     O3112386   5.132   0.800   2.179 -0.0841  0.3918  0.1666
    2PC     P3112387   5.213   0.831   2.044 -0.6055 -0.0289 -0.2514
    2PC     O3212388   5.309   0.942   2.109  0.0521 -0.6308 -0.1831
    2PC     C3112389   5.428   0.895   2.176 -0.0213 -0.2093  0.2445
    2PC     H1A12390   5.395   0.828   2.255 -2.8630 -0.0205 -0.6508
    2PC     H1B12391   5.494   0.840   2.109  0.6476  0.3058  0.4708
    2PC     C3212392   5.500   1.013   2.244 -0.2194  0.1024 -0.0809
    2PC     H2A12393   5.429   1.096   2.252 -0.4310 -0.0984  0.1471
    2PC     H2B12394   5.529   0.990   2.347 -1.4718  3.5869  1.2049
    2PC     N3112395   5.629   1.063   2.187 -0.0628 -0.3116 -0.0965
    2PC     C3312396   5.642   1.206   2.232  0.0840 -0.4307  0.2402
    2PC     H3A12397   5.738   1.249   2.202 -0.6917  1.2723  0.1207
    2PC     H3B12398   5.550   1.259   2.206  0.5424 -0.4367 -1.5126
    2PC     H3C12399   5.635   1.199   2.340 -1.7467 -1.1367  0.1173
    2PC     C3412400   5.747   0.977   2.216  0.1140 -0.1038 -0.1956
    2PC     H4A12401   5.827   1.040   2.177 -1.6917  2.7347  0.4045
    2PC     H4B12402   5.753   0.967   2.324 -1.6364 -0.2458 -0.0830
    2PC     H4C12403   5.729   0.882   2.164 -1.3696  0.0415  0.0167
    2PC     C3512404   5.618   1.063   2.037  0.3189  0.5529 -0.1305
    2PC     H5A12405   5.715   1.097   2.000  0.9858  2.8368  3.2792
    2PC     H5B12406   5.537   1.131   2.011  0.2301  0.1546 -0.9105
    2PC     H5C12407   5.592   0.961   2.010  0.2774  0.5574 -0.1086
    2PC     O3312408   5.286   0.714   1.990 -0.0049  0.1200  0.2168
    2PC     O3412409   5.116   0.885   1.947 -0.5791 -0.3549 -0.4596
    2PC     O2112410   5.072   0.802   2.452 -0.3732  0.0696 -0.2028
    2PC     C2112411   5.150   0.875   2.533  0.1424 -0.3684 -0.3009
    2PC     O2212412   5.136   0.995   2.546  0.2010 -0.4400  0.5117
    3OL     C1212413   5.244   0.800   2.625 -0.2416 -0.1220  0.2997
    3OL     H2R12414   5.342   0.790   2.579 -1.1163  0.0822 -1.7097
    3OL     H2S12415   5.205   0.698   2.624  2.5665 -1.2762 -0.7648
    3OL     C1312416   5.259   0.872   2.760 -0.0090 -0.4256  0.4357
    3OL     H3R12417   5.167   0.856   2.816 -0.6166 -0.1417 -0.4559
    3OL     H3S12418   5.268   0.979   2.741  2.5039 -0.7581 -0.7149
    3OL     C1412419   5.381   0.815   2.833  0.4008 -0.3913 -0.2146
    3OL     H4R12420   5.474   0.843   2.783  0.9067  1.0964  1.4626
    3OL     H4S12421   5.384   0.706   2.825  1.6849 -0.5809  1.9569
    3OL     C1512422   5.388   0.852   2.982 -0.2445 -0.0616 -0.2662
    3OL     H5R12423   5.289   0.835   3.025  0.2792  0.0361  1.0244
    3OL     H5S12424   5.400   0.960   2.994 -1.6368  0.0986 -0.0815
    3OL     C1612425   5.501   0.782   3.058 -0.2713 -0.0818 -0.2451
    3OL     H6R12426   5.600   0.814   3.025 -0.6524  0.6588 -0.6830
    3OL     H6S12427   5.481   0.679   3.027  0.1915  0.0243 -0.9296
    3OL     C1712428   5.474   0.797   3.208  0.0280 -0.5702 -0.1397
    3OL     H7R12429   5.373   0.765   3.236 -0.9648  2.0548 -0.4233
    3OL     H7S12430   5.479   0.902   3.236  0.2608 -1.3625  3.1830
    3OL     C1812431   5.573   0.724   3.300  0.2519  0.2412  0.2716
    3OL     H8R12432   5.670   0.744   3.252 -0.1531  0.2746 -0.5517
    3OL     H8S12433   5.554   0.617   3.312 -2.3624  0.8141  1.7913
    3OL     C1912434   5.566   0.776   3.441  0.6801  0.1549  0.3274
    3OL     H9R12435   5.486   0.847   3.459 -0.0380 -0.4431 -0.4139
    3OL    C11012436   5.623   0.722   3.548  0.1978 -0.2232  0.3981
    3OL    H10R12437   5.595   0.770   3.642 -1.7924  1.4350 -0.9351
    3OL    C11112438   5.737   0.624   3.549  0.2528 -0.1716 -0.1915
    3OL    H11R12439   5.764   0.618   3.444 -0.7279  2.9452 -0.7156
    3OL    H11S12440   5.706   0.528   3.590 -2.9907  0.8702  0.0665
    3OL    C11212441   5.848   0.688   3.635  0.2092 -0.0516 -0.2253
    3OL    H12R12442   5.921   0.613   3.664  0.9216  1.2565  1.5028
    3OL    H12S12443   5.804   0.732   3.724  0.5274 -2.1563  1.0420
    3OL    C11312444   5.929   0.784   3.546  0.4451  0.2223  0.2828
    3OL    H13R12445   5.861   0.863   3.512 -0.0810 -0.2120  0.3024
    3OL    H13S12446   5.965   0.736   3.455  0.5264  1.2743 -0.2497
    3OL    C11412447   6.045   0.854   3.617  0.5531  0.2355  0.0942
    3OL    H14R12448   6.124   0.788   3.653 -0.2160 -0.3388  0.7791
    3OL    H14S12449   6.005   0.908   3.703 -0.3832  0.6385 -0.5756
    3OL    C11512450   6.108   0.956   3.522 -0.0439  0.5915  0.0747
    3OL    H15R12451   6.022   1.013   3.486 -2.3110 -2.0020  1.0624
    3OL    H15S12452   6.160   0.919   3.433  0.2605  3.7781 -1.2192
    3OL    C11612453   6.201   1.058   3.591  0.1020  0.0660  0.6631
    3OL    H16R12454   6.155   1.089   3.685  1.8437  0.1468  1.5147
    3OL    H16S12455   6.210   1.151   3.535  0.8883 -0.0298  0.6262
    3OL    C11712456   6.336   1.002   3.638  0.1596 -0.3846 -0.0226
    3OL    H17R12457   6.382   0.942   3.559  0.1559 -0.2356 -0.1371
    3OL    H17S12458   6.326   0.931   3.721  1.7143 -3.0672 -1.9701
    3OL    C11812459   6.425   1.112   3.696  0.5307 -0.3334 -0.6760
    3OL    H18R12460   6.384   1.150   3.790 -0.1995 -1.6965 -0.4290
    3OL    H18S12461   6.423   1.197   3.627  0.0189  0.8165  0.6935
    3OL    H18T12462   6.529   1.083   3.710  1.4530  1.9750 -2.0940
    1PA    C11612463   1.568   1.217   4.044 -0.0096 -0.5630 -0.0629
    1PA    H16R12464   1.641   1.298   4.040  0.0011 -0.4018  2.2858
    1PA    H16S12465   1.620   1.121   4.047 -1.9033 -1.6314  0.0480
    1PA    H16T12466   1.521   1.211   4.142  1.5754 -0.4822  0.7327
    1PA    C11512467   1.468   1.228   3.927 -0.4025  0.4006  0.3552
    1PA    H15R12468   1.413   1.134   3.923 -0.3274  0.3777 -0.2476
    1PA    H15S12469   1.407   1.316   3.947 -0.7465  0.2639 -0.0795
    1PA    C11412470   1.546   1.251   3.797  0.1155  0.9584  0.7572
    1PA    H14R12471   1.611   1.339   3.801 -0.8968  1.8934 -1.7452
    1PA    H14S12472   1.600   1.157   3.783  0.0829  0.6292  2.5952
    1PA    C11312473   1.447   1.264   3.681  0.6369  0.4789  0.2533
    1PA    H13R12474   1.387   1.174   3.697 -0.2489  0.7551 -1.3190
    1PA    H13S12475   1.377   1.345   3.699 -0.6170 -1.0348  2.7758
    1PA    C11212476   1.525   1.275   3.549 -0.0090 -0.1924 -0.1904
    1PA    H12R12477   1.604   1.350   3.555  0.9148 -1.2255  1.3174
    1PA    H12S12478   1.581   1.182   3.531  0.9261  0.4012 -0.4000
    1PA    C11112479   1.424   1.288   3.434  0.0032  0.1323 -0.1655
    1PA    H11R12480   1.353   1.205   3.444  0.2849 -0.1734 -0.6702
    1PA    H11S12481   1.363   1.378   3.439  0.6350  0.5284  0.6248
    1PA    C11012482   1.478   1.272   3.291  0.1194  0.0766 -0.1155
    1PA    H10R12483   1.576   1.319   3.293  0.1292  0.0436  0.2009
    1PA    H10S12484   1.497   1.165   3.280 -2.7777 -0.6578  1.1280
    1PA     C1912485   1.395   1.323   3.172  0.3711  0.1049 -0.2797
    1PA     H9R12486   1.288   1.299   3.172  0.0633  1.1878 -2.6491
    1PA     H9S12487   1.395   1.430   3.190  0.4143 -0.2906  2.5643
    1PA     C1812488   1.452   1.301   3.031  0.8347 -0.0494 -0.0706
    1PA     H8R12489   1.552   1.343   3.030  1.6419 -1.8905 -0.6900
    1PA     H8S12490   1.473   1.199   2.999  0.9332 -0.0622  0.0330
    1PA     C1712491   1.356   1.367   2.931  0.4247  0.3177  0.5570
    1PA     H7R12492   1.260   1.316   2.929 -0.5629  2.0986 -1.6803
    1PA     H7S12493   1.348   1.472   2.961  0.3977  0.3029  0.6015
    1PA     C1612494   1.411   1.359   2.788 -0.0494  0.3494  0.3710
    1PA     H6R12495   1.504   1.416   2.788 -0.6763  1.3949  0.2662
    1PA     H6S12496   1.433   1.256   2.760 -2.6767  0.2918 -1.8262
    1PA     C1512497   1.310   1.421   2.691 -0.1427 -0.1232  0.1643
    1PA     H5R12498   1.211   1.380   2.712 -0.9329  0.2869 -2.3904
    1PA     H5S12499   1.295   1.528   2.705  1.3212  0.2540 -0.9733
    1PA     C1412500   1.349   1.396   2.545 -0.0305 -0.1347  0.1964
    1PA     H4R12501   1.452   1.431   2.534 -0.6323  2.2828  1.4406
    1PA     H4S12502   1.344   1.290   2.522  1.3779 -0.0402 -0.6799
    1PA     C1312503   1.255   1.465   2.444  0.2035  0.5488  0.4378
    1PA     H3R12504   1.158   1.419   2.464  1.5846 -3.0760 -0.3872
    1PA     H3S12505   1.246   1.570   2.471 -0.3691  0.2337  1.5403
    1PA     C1212506   1.306   1.442   2.301  0.1510  0.6632  0.4016
    1PA     H2R12507   1.407   1.482   2.299  0.1037  0.9169  1.8840
    1PA     H2S12508   1.307   1.337   2.273 -0.2815  0.4050  1.3386
    2PC     C1112509   1.217   1.514   2.203 -0.5641 -0.1274  0.4572
    2PC     O1212510   1.240   1.626   2.162 -0.1896 -0.1311  0.6554
    2PC     O1112511   1.106   1.445   2.173 -0.6113  0.1074  0.0788
    2PC      C112512   1.031   1.480   2.055  0.2415 -0.1094 -0.5404
    2PC      HR12513   0.980   1.577   2.062 -1.4871 -0.8909 -1.7489
    2PC      HS12514   1.096   1.490   1.968 -0.3819  0.8736 -0.9111
    2PC      C212515   0.928   1.369   2.032  0.0303  0.0223 -0.2357
    2PC      HX12516   0.974   1.271   2.029 -0.5794 -0.4138  2.2291
    2PC      C312517   0.854   1.387   1.899 -0.5944 -0.7373 -0.0024
    2PC      HA12518   0.832   1.493   1.884 -1.1564 -0.9991 -1.1821
    2PC      HB12519   0.923   1.371   1.815 -1.1502  0.9733 -0.8490
    2PC     O3112520   0.732   1.312   1.894 -0.7157 -0.5723  0.4195
    2PC     P3112521   0.644   1.350   1.765  0.2055  0.0069 -0.0510
    2PC     O3212522   0.600   1.202   1.722 -0.0522  0.0504  0.0616
    2PC     C3112523   0.707   1.116   1.679  0.2893  0.3702  0.2710
    2PC     H1A12524   0.784   1.173   1.626  0.9517  0.0735  0.8933
    2PC     H1B12525   0.762   1.077   1.765  1.1038 -0.1493 -0.4713
    2PC     C3212526   0.652   1.006   1.588  0.4039  0.4130  0.1492
    2PC     H2A12527   0.721   0.921   1.583  2.9541  2.2191  1.9720
    2PC     H2B12528   0.570   0.963   1.646 -2.8419  2.0511 -2.8817
    2PC     N3112529   0.600   1.049   1.455  0.3495  0.1203  0.0741
    2PC     C3312530   0.478   1.136   1.464  0.6269  0.4769  0.4507
    2PC     H3A12531   0.454   1.164   1.361  0.4035  1.1218  0.6725
    2PC     H3B12532   0.390   1.084   1.503  0.2241  1.0994  0.3822
    2PC     H3C12533   0.502   1.225   1.521 -0.0250  0.9110  0.0698
    2PC     C3412534   0.712   1.114   1.379  0.2797 -0.2755 -0.3730
    2PC     H4A12535   0.728   1.199   1.446 -2.4396  0.8387 -0.9965
    2PC     H4B12536   0.798   1.048   1.368  0.4701  0.0246 -0.6999
    2PC     H4C12537   0.674   1.145   1.282 -1.5497 -0.0788  0.3548
    2PC     C3512538   0.552   0.928   1.380  0.4936  0.0238  0.1372
    2PC     H5A12539   0.638   0.866   1.357  0.3113  0.4864 -1.9354
    2PC     H5B12540   0.500   0.963   1.290  0.5718 -0.1801  0.0140
    2PC     H5C12541   0.475   0.870   1.432 -0.9509 -0.5092 -2.4336
    2PC     O3312542   0.521   1.432   1.775  0.6028  0.6731 -0.5253
    2PC     O3412543   0.714   1.411   1.650 -0.6945  0.5282 -0.3383
    2PC     O2112544   0.832   1.368   2.139  0.3448  0.2624  0.0510
    2PC     C2112545   0.741   1.466   2.154 -0.3484 -0.4014  0.2754
    2PC     O2212546   0.736   1.565   2.085  0.6420 -0.5297  0.0085
    3OL     C1212547   0.647   1.452   2.272 -0.4689  0.2251  0.2579
    3OL     H2R12548   0.664   1.349   2.307  0.3893  0.4478  0.5316
    3OL     H2S12549   0.547   1.461   2.230 -0.8188 -0.2039  0.9772
    3OL     C1312550   0.668   1.553   2.385  0.0300  0.4707 -0.0495
    3OL     H3R12551   0.666   1.653   2.342  2.2092  1.1177  1.1794
    3OL     H3S12552   0.765   1.531   2.430 -0.7714 -1.2687  0.9410
    3OL     C1412553   0.569   1.530   2.500  0.6043 -0.1901  0.3229
    3OL     H4R12554   0.565   1.427   2.535  0.0704  0.1828  1.4282
    3OL     H4S12555   0.466   1.550   2.469  0.5571  0.0061  0.5923
    3OL     C1512556   0.609   1.619   2.619  0.2672 -0.3084  0.5248
    3OL     H5R12557   0.622   1.723   2.587  1.4051 -0.9811 -1.3479
    3OL     H5S12558   0.702   1.571   2.650  1.0028 -0.6141 -1.9240
    3OL     C1612559   0.506   1.601   2.731 -0.2208  0.1754  0.1626
    3OL     H6R12560   0.501   1.493   2.747 -1.2098  0.1591 -0.2141
    3OL     H6S12561   0.406   1.633   2.701 -0.1052  0.8599  0.4922
    3OL     C1712562   0.551   1.684   2.853  0.4912 -0.0985  0.0886
    3OL     H7R12563   0.556   1.784   2.812 -2.0330 -0.3154 -0.9280
    3OL     H7S12564   0.647   1.649   2.891  0.7924  0.4455 -0.1722
    3OL     C1812565   0.454   1.672   2.972 -0.0590  0.1595 -0.3280
    3OL     H8R12566   0.349   1.673   2.945 -0.7405 -3.2693  1.5730
    3OL     H8S12567   0.480   1.758   3.034 -0.5872  1.3549 -1.6918
    3OL     C1912568   0.487   1.544   3.044 -0.6410  0.3609  0.2976
    3OL     H9R12569   0.460   1.454   2.990  1.6050 -1.3081  1.7450
    3OL    C11012570   0.546   1.532   3.162 -0.7424 -0.3222  0.2839
    3OL    H10R12571   0.564   1.432   3.202  2.2922  0.1560  0.4163
    3OL    C11112572   0.579   1.644   3.257 -0.0284 -0.1909 -0.1125
    3OL    H11R12573   0.533   1.738   3.224  1.6126  0.3294 -1.0635
    3OL    H11S12574   0.687   1.659   3.262  0.3343 -2.6604  0.5713
    3OL    C11212575   0.547   1.613   3.403 -0.2175 -0.4606 -0.2121
    3OL    H12R12576   0.581   1.512   3.426  1.0835  0.2268  1.0575
    3OL    H12S12577   0.438   1.619   3.414 -0.2675  0.8737 -1.2538
    3OL    C11312578   0.619   1.701   3.506 -0.3382 -0.2956 -0.2679
    3OL    H13R12579   0.727   1.701   3.494 -0.0756  0.1551  1.6919
    3OL    H13S12580   0.598   1.656   3.604  0.2777 -0.5201 -0.2331
    3OL    C11412581   0.571   1.847   3.505  0.4729 -0.0263 -0.2457
    3OL    H14R12582   0.602   1.887   3.408 -0.7666  0.5944 -0.4052
    3OL    H14S12583   0.624   1.907   3.579 -0.9022  0.6994  0.1801
    3OL    C11512584   0.422   1.859   3.540  0.2696 -0.6786 -0.8505
    3OL    H15R12585   0.366   1.818   3.456 -1.2684  1.8833 -1.1894
    3OL    H15S12586   0.405   1.967   3.534  0.3353 -0.5750  0.5785
    3OL    C11612587   0.388   1.796   3.676 -0.0290  0.1634 -0.5273
    3OL    H16R12588   0.462   1.828   3.749 -0.3655 -0.9274  0.3058
    3OL    H16S12589   0.373   1.688   3.679 -1.2126  0.3431  1.4594
    3OL    C11712590   0.256   1.860   3.721 -0.4354 -0.8019 -0.3329
    3OL    H17R12591   0.179   1.823   3.653 -0.4842  0.4114 -0.9571
    3OL    H17S12592   0.259   1.969   3.715 -1.1139 -0.7236  0.5916
    3OL    C11812593   0.206   1.821   3.861  0.1831 -0.7663 -0.0990
    3OL    H18R12594   0.299   1.801   3.915  0.8565 -1.6930 -1.5357
    3OL    H18S12595   0.156   1.724   3.856 -1.6189  0.0622  0.8132
    3OL    H18T12596   0.137   1.887   3.914  0.8342  0.7005 -1.0102
    1PA    C11612597   0.288   0.601   4.163  0.4143 -0.3452 -0.2883
    1PA    H16R12598   0.359   0.527   4.126  2.7054  0.6078  1.8403
    1PA    H16S12599   0.186   0.565   4.175  0.3869 -0.3409 -0.5095
    1PA    H16T12600   0.322   0.633   4.262 -0.7228  1.0444 -0.3237
    1PA    C11512601   0.293   0.719   4.066  0.4770 -0.3580 -0.3007
    1PA    H15R12602   0.202   0.777   4.079  0.7240  0.0143 -0.1863
    1PA    H15S12603   0.381   0.774   4.100  0.0830  0.9810 -1.3343
    1PA    C11412604   0.294   0.682   3.917 -0.0162  0.1896 -0.4470
    1PA    H14R12605   0.392   0.637   3.895  1.2158  2.2699  0.5112
    1PA    H14S12606   0.210   0.618   3.889 -1.0397  1.5489 -0.5240
    1PA    C11312607   0.300   0.809   3.831  0.0498  0.4957  0.0070
    1PA    H13R12608   0.204   0.860   3.845 -0.4328 -0.6232  1.0453
    1PA    H13S12609   0.373   0.879   3.871  0.7036 -0.1652 -0.0109
    1PA    C11212610   0.337   0.786   3.684 -0.0919 -0.1089  0.0616
    1PA    H12R12611   0.352   0.888   3.647  1.6907 -0.6604 -0.8580
    1PA    H12S12612   0.436   0.739   3.686  0.9908  2.0172  0.2837
    1PA    C11112613   0.227   0.715   3.605 -0.2241  0.6110 -0.4138
    1PA    H11R12614   0.208   0.618   3.652 -1.3893  1.1011  0.1802
    1PA    H11S12615   0.133   0.770   3.607  0.6580  2.2306 -1.5704
    1PA    C11012616   0.281   0.695   3.463  0.3575  0.3932 -0.1671
    1PA    H10R12617   0.316   0.790   3.420  0.3076  1.2229  1.5576
    1PA    H10S12618   0.371   0.634   3.467 -0.5049 -0.9536 -0.6304
    1PA     C1912619   0.174   0.640   3.367 -0.3105  0.6350  0.4254
    1PA     H9R12620   0.171   0.534   3.389  0.1371 -0.0681 -2.4125
    1PA     H9S12621   0.076   0.687   3.379  0.1038  1.4876  0.5722
    1PA     C1812622   0.224   0.664   3.223 -0.3777 -0.0286  0.2887
    1PA     H8R12623   0.256   0.765   3.198 -1.5886  0.3353  0.1495
    1PA     H8S12624   0.312   0.602   3.208  0.4107  0.7951  1.2848
    1PA     C1712625   0.110   0.626   3.127  0.0361 -0.3915 -0.0623
    1PA     H7R12626   0.073   0.524   3.140 -4.7326  0.8803 -1.6144
    1PA     H7S12627   0.023   0.685   3.156  0.0102 -0.6151  0.3229
    1PA     C1612628   0.132   0.668   2.981  0.2242  0.4566  0.2052
    1PA     H6R12629   0.208   0.598   2.945  1.2816  2.0322 -0.7559
    1PA     H6S12630   0.037   0.660   2.928 -0.2278  1.9485  0.7292
    1PA     C1512631   0.183   0.813   2.970  0.0969  0.5166  0.3995
    1PA     H5R12632   0.147   0.879   3.049 -1.5161  0.5185 -0.2914
    1PA     H5S12633   0.290   0.804   2.986  0.0421  0.0173  0.5076
    1PA     C1412634   0.144   0.857   2.828 -0.0695 -0.4282  0.1409
    1PA     H4R12635   0.039   0.839   2.807 -0.4384 -0.8745  2.1690
    1PA     H4S12636   0.160   0.965   2.821 -2.3251 -0.0933 -0.5394
    1PA     C1312637   0.232   0.795   2.718  0.2809  0.2657  0.0209
    1PA     H3R12638   0.313   0.868   2.712 -0.0500  0.9019  2.1940
    1PA     H3S12639   0.275   0.701   2.753  1.9393  1.1084  0.3365
    1PA     C1212640   0.158   0.793   2.584 -0.7993  0.1018  0.6015
    1PA     H2R12641   0.115   0.888   2.553 -0.6552  0.3963  1.2865
    1PA     H2S12642   0.231   0.770   2.506 -0.5846  1.4831  0.3683
    2PC     C1112643   0.054   0.687   2.561 -0.5658 -0.0656  0.2981
    2PC     O1212644   0.040   0.588   2.630 -0.4119 -0.1326  0.2332
    2PC     O1112645  -0.007   0.705   2.443 -0.1543  0.5617  0.1804
    2PC      C112646  -0.115   0.617   2.410  0.2884  0.1529 -0.1800
    2PC      HR12647  -0.134   0.623   2.302  0.4023  0.1565 -0.1999
    2PC      HS12648  -0.090   0.515   2.442  2.9379  0.3239 -1.4422
    2PC      C212649  -0.240   0.672   2.480  0.4554  0.2287  0.0584
    2PC      HX12650  -0.242   0.672   2.589 -0.4419 -2.1126  0.1078
    2PC      C312651  -0.362   0.594   2.429  0.2689  0.7121 -0.2393
    2PC      HA12652  -0.361   0.491   2.467  3.9797 -0.1226 -2.1750
    2PC      HB12653  -0.457   0.639   2.458  1.0842  0.3306  3.5077
    2PC     O3112654  -0.356   0.592   2.285  0.0482 -0.2750 -0.2469
    2PC     P3112655  -0.492   0.563   2.207 -0.0441 -0.0204 -0.1831
    2PC     O3212656  -0.524   0.415   2.260  0.3878  0.0203  0.1971
    2PC     C3112657  -0.565   0.319   2.161 -0.2798  0.0814  0.4084
    2PC     H1A12658  -0.516   0.332   2.064 -2.0784  0.9106 -0.4254
    2PC     H1B12659  -0.539   0.218   2.195 -1.6243  0.2491  2.0348
    2PC     C3212660  -0.716   0.340   2.144 -0.2614 -0.1214 -0.0191
    2PC     H2A12661  -0.719   0.449   2.146 -2.5179 -0.1308  1.5696
    2PC     H2B12662  -0.756   0.296   2.052 -0.7946 -1.7936  0.9600
    2PC     N3112663  -0.795   0.289   2.261  0.2085 -0.2218  0.2598
    2PC     C3312664  -0.936   0.339   2.246  0.1745 -0.4111 -0.0704
    2PC     H3A12665  -0.964   0.320   2.142 -0.9156  2.6804 -0.4740
    2PC     H3B12666  -0.992   0.286   2.322 -0.0598 -0.7652 -0.4863
    2PC     H3C12667  -0.940   0.448   2.258  0.3032 -0.0674 -2.5791
    2PC     C3412668  -0.796   0.139   2.253 -0.2354 -0.1914 -0.3925
    2PC     H4A12669  -0.832   0.089   2.344 -1.5581 -0.2534 -0.9294
    2PC     H4B12670  -0.865   0.120   2.170  0.0648  2.4205 -1.3165
    2PC     H4C12671  -0.702   0.088   2.230 -1.0307 -1.7685 -0.3197
    2PC     C3512672  -0.746   0.326   2.397  0.2481  0.0521  0.1701
    2PC     H5A12673  -0.651   0.272   2.398  0.1953 -0.0676 -0.6425
    2PC     H5B12674  -0.816   0.294   2.475  1.1136 -1.1241  0.4933
    2PC     H5C12675  -0.720   0.432   2.392  1.5235 -0.2783 -0.9520
    2PC     O3312676  -0.579   0.679   2.240 -0.3426 -0.0446 -0.8744
    2PC     O3412677  -0.483   0.569   2.060 -0.7036 -0.2139 -0.2363
    2PC     O2112678  -0.258   0.807   2.435  0.2868  0.1584 -0.0899
    2PC     C2112679  -0.332   0.891   2.510  0.4072  0.4733 -0.3220
    2PC     O2212680  -0.404   0.852   2.600  0.0477  0.2727 -0.6957
    3OL     C1212681  -0.309   1.039   2.492  0.0101  0.6142  0.3211
    3OL     H2R12682  -0.400   1.089   2.528 -2.1069  0.4367 -4.1626
    3OL     H2S12683  -0.288   1.054   2.386  1.4582  3.1182  0.8972
    3OL     C1312684  -0.181   1.096   2.554  0.4885 -0.3359  0.2152
    3OL     H3R12685  -0.139   1.178   2.496 -1.2480  0.9868  0.7460
    3OL     H3S12686  -0.111   1.012   2.567 -0.9425 -1.5400  0.3941
    3OL     C1412687  -0.213   1.148   2.695  0.5981 -0.0025  0.1186
    3OL     H4R12688  -0.125   1.166   2.757 -0.6518  2.7882  1.2357
    3OL     H4S12689  -0.271   1.077   2.755 -0.5684 -2.0279 -3.1561
    3OL     C1512690  -0.289   1.281   2.688  0.6137 -0.0015 -0.0346
    3OL     H5R12691  -0.387   1.257   2.646 -0.2834 -0.5899  2.2654
    3OL     H5S12692  -0.224   1.339   2.621  1.7958 -0.7620  0.4166
    3OL     C1612693  -0.314   1.354   2.821  0.0900  0.1016 -0.1884
    3OL     H6R12694  -0.382   1.291   2.878 -1.3672  1.5470 -0.2623
    3OL     H6S12695  -0.375   1.445   2.815 -0.2570  0.2617  3.5135
    3OL     C1712696  -0.181   1.375   2.896  0.0633  0.2516 -0.1817
    3OL     H7R12697  -0.109   1.426   2.831  1.3101  0.3794  1.2583
    3OL     H7S12698  -0.143   1.275   2.917  0.5798 -0.1202 -2.5656
    3OL     C1812699  -0.204   1.437   3.034  0.4605 -0.2816  0.1254
    3OL     H8R12700  -0.259   1.531   3.030 -1.2578 -1.1852  1.3717
    3OL     H8S12701  -0.105   1.458   3.077  1.1460  1.4677 -2.0595
    3OL     C1912702  -0.281   1.349   3.129  0.2677 -0.0447  0.1897
    3OL     H9R12703  -0.389   1.358   3.127  0.1773 -1.1062 -0.1677
    3OL    C11012704  -0.228   1.273   3.223 -0.0471 -0.3312  0.1377
    3OL    H10R12705  -0.295   1.209   3.281  0.1956 -0.2057  0.5594
    3OL    C11112706  -0.079   1.254   3.241  0.0229 -0.0465 -0.1484
    3OL    H11R12707  -0.025   1.291   3.154 -0.5408  2.8320  0.6390
    3OL    H11S12708  -0.054   1.152   3.272 -1.8289 -0.7284 -0.7102
    3OL    C11212709  -0.040   1.330   3.368 -0.1396  0.3396 -0.3280
    3OL    H12R12710   0.069   1.329   3.378  0.0002 -2.2372 -1.4220
    3OL    H12S12711  -0.070   1.272   3.455  0.1702 -0.1423 -0.5384
    3OL    C11312712  -0.096   1.472   3.387 -0.1383  0.2641  0.2572
    3OL    H13R12713  -0.205   1.462   3.391 -0.0031 -1.2281  1.0382
    3OL    H13S12714  -0.067   1.534   3.302 -0.0062 -0.9743 -0.6262
    3OL    C11412715  -0.031   1.533   3.512 -0.2933  0.8431  0.0585
    3OL    H14R12716   0.078   1.532   3.523 -0.1186  0.0275 -1.4518
    3OL    H14S12717  -0.071   1.476   3.596 -1.6406  1.0850 -0.3917
    3OL    C11512718  -0.068   1.681   3.531  0.1026  0.9925 -0.3105
    3OL    H15R12719   0.003   1.740   3.473 -0.0504  0.8244 -0.6732
    3OL    H15S12720  -0.052   1.708   3.635 -0.4750 -0.0105  0.0569
    3OL    C11612721  -0.218   1.703   3.506 -0.0502  0.5907  0.2315
    3OL    H16R12722  -0.277   1.629   3.562  2.0219  0.6049  2.5885
    3OL    H16S12723  -0.247   1.686   3.402 -0.8634 -0.4047  0.5979
    3OL    C11712724  -0.271   1.843   3.538 -1.0557  0.3798 -0.4605
    3OL    H17R12725  -0.374   1.836   3.503 -0.8557 -0.9510 -0.8258
    3OL    H17S12726  -0.214   1.913   3.476 -1.0233  0.7420 -0.0263
    3OL    C11812727  -0.255   1.885   3.685  0.1093  0.1118 -0.4991
    3OL    H18R12728  -0.313   1.821   3.751  0.4046 -1.0472 -1.3375
    3OL    H18S12729  -0.275   1.992   3.697  1.2017  0.3108 -0.4292
    3OL    H18T12730  -0.154   1.867   3.720  0.7274 -0.8899 -2.5970
    1PA    C11612731   6.210   0.351   4.368 -0.5371 -0.0317 -0.0892
    1PA    H16R12732   6.255   0.390   4.277 -1.0117  0.4067 -0.1385
    1PA    H16S12733   6.295   0.335   4.435 -0.7199  1.1006  0.4455
    1PA    H16T12734   6.146   0.425   4.417  0.2869 -1.2203  3.0006
    1PA    C11512735   6.138   0.225   4.321 -0.0016 -0.2327 -0.3808
    1PA    H15R12736   6.094   0.180   4.411  1.4831 -2.4464 -0.6847
    1PA    H15S12737   6.054   0.251   4.256 -0.9473  1.6713  1.4852
    1PA    C11412738   6.230   0.126   4.247  0.0234 -0.4053 -0.1214
    1PA    H14R12739   6.314   0.096   4.309 -0.5261  1.1263  1.4677
    1PA    H14S12740   6.178   0.032   4.227  0.8653 -0.9571  0.2350
    1PA    C11312741   6.274   0.184   4.112  0.0831  0.0596  0.0941
    1PA    H13R12742   6.189   0.238   4.070 -0.4735  1.4395  2.7608
    1PA    H13S12743   6.349   0.263   4.113 -0.7788  0.9343 -1.0417
    1PA    C11212744   6.314   0.075   4.011 -0.4962 -0.4904  0.4504
    1PA    H12R12745   6.380   0.006   4.063 -1.7321 -1.5382  0.6725
    1PA    H12S12746   6.223   0.022   3.980 -2.2573  2.1276  0.7745
    1PA    C11112747   6.378   0.143   3.889 -0.8973 -0.4339  0.2671
    1PA    H11R12748   6.312   0.222   3.855 -0.4685 -0.2107 -0.0588
    1PA    H11S12749   6.472   0.191   3.919 -2.1170  0.4966  2.8888
    1PA    C11012750   6.413   0.048   3.774  0.2846  0.3269 -0.0173
    1PA    H10R12751   6.483  -0.025   3.815  0.7321  1.7310  1.8748
    1PA    H10S12752   6.322  -0.008   3.753  0.4395 -0.0515  0.3055
    1PA     C1912753   6.459   0.124   3.649  0.8870 -0.2213 -0.1367
    1PA     H9R12754   6.372   0.188   3.629  0.4024 -0.2025  1.8991
    1PA     H9S12755   6.548   0.185   3.662 -0.0391  1.5253 -1.4543
    1PA     C1812756   6.487   0.027   3.533  0.1634 -0.1636 -0.3673
    1PA     H8R12757   6.569  -0.041   3.556 -0.6905 -1.0989 -0.0266
    1PA     H8S12758   6.406  -0.045   3.526 -1.1472  1.4196 -2.7046
    1PA     C1712759   6.505   0.090   3.394  0.1946  0.3061 -0.1559
    1PA     H7R12760   6.585   0.163   3.398  0.6134 -0.1735  0.3238
    1PA     H7S12761   6.545   0.011   3.330 -2.1209 -2.3898  1.4845
    1PA     C1612762   6.372   0.138   3.333  0.0840  0.2925  0.0718
    1PA     H6R12763   6.301   0.056   3.329 -1.5655  1.6602  0.3294
    1PA     H6S12764   6.332   0.224   3.386  1.3497  0.6471  0.4991
    1PA     C1512765   6.385   0.179   3.185 -0.1831 -0.4491 -0.1620
    1PA     H5R12766   6.448   0.266   3.166 -1.3748  0.2936 -0.8355
    1PA     H5S12767   6.417   0.092   3.128 -1.1895 -1.0027  0.0953
    1PA     C1412768   6.248   0.219   3.129 -0.2256  0.0938  0.3213
    1PA     H4R12769   6.178   0.135   3.134 -2.0619  1.4634 -0.9319
    1PA     H4S12770   6.204   0.299   3.189 -2.8500 -0.1905 -1.0782
    1PA     C1312771   6.258   0.256   2.981 -0.3139 -0.4150  0.1875
    1PA     H3R12772   6.294   0.358   2.970  0.5114 -0.7931 -0.8149
    1PA     H3S12773   6.338   0.197   2.935  0.9475  1.0473  0.4574
    1PA     C1212774   6.125   0.246   2.904 -0.4051  0.3930  0.2316
    1PA     H2R12775   6.076   0.148   2.910  0.2805  0.0802  0.9420
    1PA     H2S12776   6.063   0.323   2.950 -1.2999  0.2378 -0.6841
    2PC     C1112777   6.125   0.282   2.758 -0.9110 -0.4475  0.0139
    2PC     O1212778   6.118   0.398   2.723  0.2954 -0.5872 -0.7685
    2PC     O1112779   6.139   0.180   2.673  0.9753 -0.2029 -0.0104
    2PC      C112780   6.190   0.201   2.540  0.3160  0.8600 -0.1042
    2PC      HR12781   6.151   0.131   2.465 -1.1821 -0.3740  1.7376
    2PC      HS12782   6.162   0.302   2.510 -0.2999  1.1748  1.4434
    2PC      C212783   6.343   0.207   2.552  0.3601 -0.2495 -0.0177
    2PC      HX12784   6.361   0.289   2.621 -1.0175  0.6039 -0.6186
    2PC      C312785   6.402   0.242   2.415  0.2893  0.4364  0.1243
    2PC      HA12786   6.391   0.349   2.394  0.3122  0.1575 -1.4368
    2PC      HB12787   6.505   0.207   2.429 -0.2350 -1.2318  0.0299
    2PC     O3112788   6.345   0.144   2.325  0.3287  0.1690  0.3901
    2PC     P3112789   6.401   0.145   2.175 -0.1321  0.1113  0.2155
    2PC     O3212790   6.342   0.291   2.146 -0.0273  0.0245 -0.4448
    2PC     C3112791   6.403   0.366   2.040 -0.3882  0.7485 -0.1435
    2PC     H1A12792   6.381   0.470   2.065 -2.8681  0.1298  0.4907
    2PC     H1B12793   6.510   0.343   2.038 -0.7461 -0.9511 -0.9326
    2PC     C3212794   6.332   0.322   1.911  0.2386 -0.1354 -0.1921
    2PC     H2A12795   6.320   0.214   1.914 -0.8198 -0.0640 -1.3263
    2PC     H2B12796   6.239   0.378   1.905  1.5534  2.4483  1.4599
    2PC     N3112797   6.407   0.339   1.782  0.3555 -0.3089 -0.1477
    2PC     C3312798   6.538   0.268   1.773  0.3124 -0.3543 -0.4251
    2PC     H3A12799   6.527   0.164   1.803  3.8538 -0.1938  2.0368
    2PC     H3B12800   6.552   0.280   1.665 -0.2450 -2.9787 -0.8405
    2PC     H3C12801   6.615   0.324   1.828 -0.3169  1.0633 -0.9402
    2PC     C3412802   6.316   0.282   1.677 -0.2290 -0.3065  0.3471
    2PC     H4A12803   6.374   0.280   1.584  1.7907  0.7704  1.5081
    2PC     H4B12804   6.278   0.184   1.708  0.1503 -0.3130  0.8097
    2PC     H4C12805   6.230   0.343   1.649  0.9533  1.0620 -0.4368
    2PC     C3512806   6.420   0.487   1.763  0.4725 -0.3009 -0.0064
    2PC     H5A12807   6.329   0.546   1.774  0.0924 -0.6662 -1.0478
    2PC     H5B12808   6.451   0.514   1.662 -0.5253  0.7440 -0.0570
    2PC     H5C12809   6.500   0.515   1.832  0.3423 -2.3503  1.0528
    2PC     O3312810   6.546   0.122   2.151 -0.2633 -0.4462 -0.0641
    2PC     O3412811   6.340   0.041   2.089 -0.0382  0.2370 -0.0025
    2PC     O2112812   6.394   0.078   2.592 -0.0482 -0.4691 -0.1917
    2PC     C2112813   6.500   0.079   2.674 -0.4102  0.3539  0.2874
    2PC     O2212814   6.553   0.179   2.717  0.2011  0.0231  0.3137
    3OL     C1212815   6.548  -0.055   2.724  0.4707  0.2895 -0.6845
    3OL     H2R12816   6.632  -0.095   2.667  0.3293 -2.1056  0.6311
    3OL     H2S12817   6.465  -0.125   2.708  0.7643  0.1682 -1.7202
    3OL     C1312818   6.582  -0.053   2.874 -0.1712  0.9315 -0.5439
    3OL     H3R12819   6.608  -0.155   2.900 -0.2973  1.5386  2.2223
    3OL     H3S12820   6.490  -0.033   2.930 -0.0740 -1.1629  0.4553
    3OL     C1412821   6.699   0.032   2.924  0.4951 -0.0783 -0.3609
    3OL     H4R12822   6.666   0.135   2.939  3.5118  1.0933 -1.0130
    3OL     H4S12823   6.782   0.032   2.854  0.6797 -2.7103 -0.2453
    3OL     C1512824   6.762  -0.015   3.056  0.6162  0.2068 -0.3149
    3OL     H5R12825   6.780  -0.123   3.065 -0.0631 -0.1092 -2.3213
    3OL     H5S12826   6.699   0.019   3.139  0.1304 -0.6788 -0.2988
    3OL     C1612827   6.897   0.054   3.079  0.2219  0.9738 -0.2611
    3OL     H6R12828   6.893   0.163   3.086  3.6482  1.1160  1.3999
    3OL     H6S12829   6.965   0.025   2.999  0.8793  1.9791 -0.0732
    3OL     C1712830   6.961   0.015   3.213 -0.6140  0.0092 -0.1285
    3OL     H7R12831   6.981  -0.092   3.222 -1.4484 -0.0684  0.9519
    3OL     H7S12832   6.897   0.039   3.297  0.2642 -1.2200  0.9344
    3OL     C1812833   7.091   0.093   3.234 -0.6909  0.0612  0.1521
    3OL     H8R12834   7.150   0.080   3.143 -0.0353 -2.7155  0.8856
    3OL     H8S12835   7.146   0.043   3.315 -1.0219  0.3525  0.5591
    3OL     C1912836   7.084   0.242   3.255  0.6288  0.1469  0.0741
    3OL     H9R12837   7.101   0.307   3.170 -0.5743  1.6313  0.9076
    3OL    C11012838   7.085   0.304   3.372 -0.4623  0.1132  0.1077
    3OL    H10R12839   7.062   0.410   3.366 -0.0489  0.1205 -2.7615
    3OL    C11112840   7.078   0.240   3.508  0.0845 -0.3709 -0.0902
    3OL    H11R12841   7.168   0.259   3.567 -0.2087 -1.4898  0.7596
    3OL    H11S12842   7.064   0.131   3.509 -1.2674 -0.2108  0.8903
    3OL    C11212843   6.957   0.303   3.579 -0.3637 -0.6869 -0.5631
    3OL    H12R12844   6.872   0.298   3.512 -0.0083 -1.2884 -0.9817
    3OL    H12S12845   6.974   0.410   3.590 -1.1277 -0.4467 -1.6466
    3OL    C11312846   6.932   0.233   3.713  0.0845 -0.3254 -0.2865
    3OL    H13R12847   7.025   0.197   3.758  1.6609  0.4155 -2.7663
    3OL    H13S12848   6.871   0.144   3.697  0.7415 -1.5726  3.2663
    3OL    C11412849   6.856   0.318   3.817 -0.3152 -0.3708 -0.5389
    3OL    H14R12850   6.786   0.373   3.755 -2.3437 -2.4729 -0.2545
    3OL    H14S12851   6.929   0.392   3.851 -0.4116 -1.4856  2.3557
    3OL    C11512852   6.788   0.252   3.938  0.4851 -0.1076  0.0677
    3OL    H15R12853   6.697   0.201   3.904  0.9106 -3.0138  2.8316
    3OL    H15S12854   6.752   0.327   4.008  0.4974  1.8029 -1.8540
    3OL    C11612855   6.875   0.143   4.001  0.2677 -0.4788 -0.2684
    3OL    H16R12856   6.977   0.166   3.972  0.3716 -2.3248 -1.5334
    3OL    H16S12857   6.856   0.043   3.961  3.5933 -0.8271 -1.2726
    3OL    C11712858   6.878   0.145   4.155  0.0885 -0.1912 -0.2683
    3OL    H17R12859   6.941   0.229   4.184  0.8434 -0.7584 -0.2309
    3OL    H17S12860   6.936   0.058   4.185 -0.0363 -0.6145 -1.2129
    3OL    C11812861   6.741   0.148   4.224  0.5139  0.1550  0.5674
    3OL    H18R12862   6.669   0.100   4.158  0.5015  0.4934  0.3384
    3OL    H18S12863   6.709   0.252   4.224  0.8975  0.3138 -1.7859
    3OL    H18T12864   6.755   0.112   4.326  0.7795  2.5129  1.4279
    1PA    C11612865   6.141   2.419   3.772 -0.7126  0.5883  0.9832
    1PA    H16R12866   6.110   2.495   3.845  0.3547  2.0827 -0.0551
    1PA    H16S12867   6.121   2.467   3.676  0.8692  1.4106  1.0310
    1PA    H16T12868   6.247   2.392   3.767 -0.9251 -0.2545  0.9447
    1PA    C11512869   6.069   2.283   3.776  0.0878  0.1214 -0.1360
    1PA    H15R12870   6.100   2.245   3.873  2.7224  0.3642 -0.8102
    1PA    H15S12871   5.962   2.305   3.783  0.1492  0.3362  0.1425
    1PA    C11412872   6.099   2.181   3.666  0.1658 -0.3975  0.3658
    1PA    H14R12873   6.197   2.202   3.623 -0.0831  2.4118  0.9804
    1PA    H14S12874   6.093   2.080   3.708 -0.6432  0.1422  1.5851
    1PA    C11312875   6.000   2.197   3.549  0.3655 -0.1115  0.2363
    1PA    H13R12876   5.900   2.222   3.586  0.7900  1.7778  0.2367
    1PA    H13S12877   6.038   2.278   3.487  0.9689  0.9666  1.9213
    1PA    C11212878   6.002   2.066   3.470 -0.0635 -0.1423  0.2755
    1PA    H12R12879   6.028   1.982   3.534  3.2231 -1.2324 -2.2356
    1PA    H12S12880   5.900   2.052   3.434 -0.3561  0.4703  0.8389
    1PA    C11112881   6.089   2.087   3.346 -0.7944  0.3642 -0.1590
    1PA    H11R12882   6.049   2.169   3.285  1.5681  1.6025 -0.1954
    1PA    H11S12883   6.194   2.104   3.374 -1.2970 -0.7186  2.7002
    1PA    C11012884   6.096   1.960   3.261 -0.0875  0.1719  0.1791
    1PA    H10R12885   6.134   1.882   3.329  2.0915  1.7752  0.9043
    1PA    H10S12886   5.996   1.932   3.227 -0.0553  1.1861 -0.7706
    1PA     C1912887   6.196   1.982   3.147 -0.3051 -0.7305 -0.1992
    1PA     H9R12888   6.163   2.058   3.077 -1.2399  1.1119  2.0848
    1PA     H9S12889   6.289   2.022   3.189 -1.7496  1.2423  1.3311
    1PA     C1812890   6.222   1.846   3.081  0.4738 -0.6830 -0.0085
    1PA     H8R12891   6.323   1.849   3.039  0.8601  1.2177  0.9473
    1PA     H8S12892   6.231   1.767   3.157 -1.8815 -0.1526  0.9322
    1PA     C1712893   6.131   1.821   2.960 -0.5724 -0.2768  0.6794
    1PA     H7R12894   6.031   1.865   2.969 -0.6602 -0.0130 -1.0904
    1PA     H7S12895   6.172   1.874   2.873  1.7961  1.4848  2.7173
    1PA     C1612896   6.134   1.674   2.917  0.1162 -0.0722  0.0119
    1PA     H6R12897   6.238   1.648   2.895  0.0532  0.4360 -0.9848
    1PA     H6S12898   6.093   1.616   3.000 -2.8126  2.0241  0.1921
    1PA     C1512899   6.054   1.664   2.786 -0.3576  0.0256  0.2900
    1PA     H5R12900   6.029   1.766   2.756  0.5085  0.4282  0.8724
    1PA     H5S12901   6.119   1.625   2.706  1.2385  0.8285  1.1445
    1PA     C1412902   5.932   1.573   2.805 -0.1624 -0.3515 -0.2178
    1PA     H4R12903   5.943   1.474   2.849 -1.9839 -0.6266 -0.2817
    1PA     H4S12904   5.867   1.623   2.877  1.6487  0.3744  0.9864
    1PA     C1312905   5.868   1.553   2.667 -0.0644 -0.2285 -0.2818
    1PA     H3R12906   5.766   1.516   2.683 -0.8123  1.4561 -0.9406
    1PA     H3S12907   5.860   1.640   2.602  1.0032 -0.4992 -0.7951
    1PA     C1212908   5.938   1.447   2.580 -0.0354 -0.3447 -0.1181
    1PA     H2R12909   6.047   1.454   2.574 -0.1786  0.7477 -2.4594
    1PA     H2S12910   5.911   1.350   2.622 -0.6178  0.4872  1.5051
    2PC     C1112911   5.876   1.453   2.443 -0.7999 -0.1326  0.2298
    2PC     O1212912   5.865   1.356   2.370 -0.8853 -0.1137  0.2179
    2PC     O1112913   5.850   1.578   2.400 -0.3886 -0.1977 -0.2209
    2PC      C112914   5.816   1.603   2.263 -0.0615 -0.1038 -0.2856
    2PC      HR12915   5.899   1.587   2.194  1.7369 -0.4038  1.8565
    2PC      HS12916   5.722   1.551   2.242 -0.8404  0.9324  0.4955
    2PC      C212917   5.764   1.748   2.260  0.5374  0.1140 -0.2682
    2PC      HX12918   5.691   1.756   2.341  1.8917 -1.5543  1.2116
    2PC      C312919   5.683   1.781   2.134  0.1839  0.0722 -0.0541
    2PC      HA12920   5.589   1.725   2.128  0.6417 -0.5285 -2.4965
    2PC      HB12921   5.647   1.884   2.145 -2.8256 -1.0464  1.9444
    2PC     O3112922   5.773   1.756   2.024  0.4864 -0.0422  0.2159
    2PC     P3112923   5.711   1.786   1.879  0.0918  0.2083  0.4343
    2PC     O3212924   5.808   1.902   1.826 -0.1096  0.1756 -0.0050
    2PC     C3112925   5.770   1.978   1.710 -0.7075  0.1910  0.1967
    2PC     H1A12926   5.789   1.913   1.624 -0.2932 -0.7042  0.9574
    2PC     H1B12927   5.667   2.013   1.719 -0.5126  0.8902 -0.2336
    2PC     C3212928   5.863   2.100   1.704 -1.0223  0.4250  0.0416
    2PC     H2A12929   5.833   2.170   1.783 -2.0836  0.4433 -0.3607
    2PC     H2B12930   5.966   2.076   1.727 -0.7141  3.2176  2.1624
    2PC     N3112931   5.862   2.188   1.582 -0.2866 -0.1941 -0.4143
    2PC     C3312932   5.926   2.320   1.612 -0.3045 -0.2389 -0.1784
    2PC     H3A12933   5.928   2.389   1.528  2.6256  0.7238  0.5651
    2PC     H3B12934   5.880   2.362   1.702  0.0090 -1.2312  0.4722
    2PC     H3C12935   6.027   2.302   1.649 -1.3480 -0.5712  2.8238
    2PC     C3412936   5.934   2.115   1.472  0.6337  0.0178  0.0341
    2PC     H4A12937   5.898   2.012   1.473  1.5338 -0.2967  0.3646
    2PC     H4B12938   5.910   2.165   1.378  0.7179  0.3486  0.1884
    2PC     H4C12939   6.040   2.103   1.493  0.1163 -0.0190  3.1948
    2PC     C3512940   5.720   2.213   1.541 -0.6239 -0.5948  0.4784
    2PC     H5A12941   5.682   2.119   1.499 -0.6226 -1.2199  1.8300
    2PC     H5B12942   5.712   2.285   1.460 -1.4221 -2.3980 -1.1287
    2PC     H5C12943   5.678   2.236   1.638 -0.7685  3.4609 -0.4011
    2PC     O3312944   5.700   1.675   1.782  0.1720  0.0007  0.6610
    2PC     O3412945   5.569   1.824   1.893 -0.1389 -0.3791 -0.2748
    2PC     O2112946   5.870   1.841   2.287  0.2717  0.5251 -0.6383
    2PC     C2112947   5.831   1.962   2.332 -0.4560  0.0953 -0.0929
    2PC     O2212948   5.715   1.994   2.345 -0.4311  0.1036  0.1106
    3OL     C1212949   5.946   2.041   2.388  0.0500 -0.4500 -0.3534
    3OL     H2R12950   5.917   2.143   2.412 -1.6599 -0.9771 -0.1057
    3OL     H2S12951   6.035   2.037   2.324  1.0533 -1.1279  1.0292
    3OL     C1312952   5.991   1.969   2.516 -0.1298  0.1946  0.0758
    3OL     H3R12953   6.094   1.998   2.540 -0.0661 -0.1298  0.1972
    3OL     H3S12954   5.995   1.862   2.495 -3.0481 -0.1059  0.6463
    3OL     C1412955   5.895   1.998   2.632 -0.2817 -0.0224  0.0044
    3OL     H4R12956   5.876   1.904   2.685 -0.3773  1.0368  1.9427
    3OL     H4S12957   5.796   2.022   2.591  0.3167 -1.2051 -2.3088
    3OL     C1512958   5.946   2.118   2.713  0.8880 -0.2545 -0.3790
    3OL     H5R12959   5.947   2.204   2.646 -0.0406  0.3422  0.3482
    3OL     H5S12960   6.049   2.093   2.739  0.7517 -0.7615 -0.3195
    3OL     C1612961   5.855   2.138   2.835  0.5119 -0.2334 -0.6596
    3OL     H6R12962   5.818   2.046   2.881  0.4017 -0.5335 -1.3288
    3OL     H6S12963   5.769   2.196   2.802 -0.0930 -0.6388  0.1679
    3OL     C1712964   5.918   2.232   2.939 -0.6015 -0.5007  0.2721
    3OL     H7R12965   5.950   2.321   2.885  0.9804 -0.4113  1.2880
    3OL     H7S12966   6.007   2.173   2.966 -1.0666 -1.6766 -0.6488
    3OL     C1812967   5.823   2.280   3.050 -0.0789  0.8206  0.1595
    3OL     H8R12968   5.728   2.317   3.012 -0.8484 -1.4357 -0.2841
    3OL     H8S12969   5.867   2.360   3.109 -1.2653  1.1721  0.5893
    3OL     C1912970   5.795   2.160   3.137 -0.2329  0.9072  0.2280
    3OL     H9R12971   5.883   2.104   3.167 -0.3558 -1.1028 -2.7548
    3OL    C11012972   5.680   2.105   3.174  0.3345 -0.4981 -0.0437
    3OL    H10R12973   5.678   2.022   3.244  1.5977 -1.0315 -0.6229
    3OL    C11112974   5.544   2.170   3.159  0.0682 -1.0516 -0.0324
    3OL    H11R12975   5.468   2.114   3.104 -2.4646  1.7700  0.3819
    3OL    H11S12976   5.548   2.267   3.109  0.5263 -0.9159  0.2558
    3OL    C11212977   5.500   2.197   3.304  0.0769 -0.4899 -0.1355
    3OL    H12R12978   5.485   2.099   3.349 -3.9822 -0.3063 -0.7862
    3OL    H12S12979   5.405   2.250   3.294 -0.6103 -1.6922 -0.0126
    3OL    C11312980   5.595   2.281   3.391 -0.0541 -0.1375 -0.3291
    3OL    H13R12981   5.696   2.241   3.391  0.9824  2.3305 -0.8033
    3OL    H13S12982   5.560   2.276   3.495  0.1721  2.7811 -0.0139
    3OL    C11412983   5.591   2.429   3.348  0.5105 -0.1678 -0.4835
    3OL    H14R12984   5.494   2.463   3.314  1.5093  1.0825 -2.2232
    3OL    H14S12985   5.657   2.426   3.261  0.9244 -2.1689 -0.1613
    3OL    C11512986   5.639   2.523   3.460  0.4952 -0.3490 -0.3243
    3OL    H15R12987   5.737   2.498   3.501  0.8243 -1.3652 -1.6313
    3OL    H15S12988   5.579   2.502   3.549  0.0223  0.1299 -0.5243
    3OL    C11612989   5.631   2.668   3.412  0.2604 -0.1636  0.2701
    3OL    H16R12990   5.539   2.676   3.353 -0.4238 -0.1692  1.3093
    3OL    H16S12991   5.713   2.699   3.347  0.9987 -0.7003  0.9223
    3OL    C11712992   5.631   2.774   3.524  0.3469  0.2252 -0.0951
    3OL    H17R12993   5.734   2.797   3.550  0.7895 -3.1448  1.6973
    3OL    H17S12994   5.586   2.739   3.617  0.5225  0.9955  0.2800
    3OL    C11812995   5.556   2.900   3.478 -0.0196  0.0286 -0.0458
    3OL    H18R12996   5.564   2.977   3.556 -0.2863  1.1220 -1.0714
    3OL    H18S12997   5.452   2.881   3.453  0.0857  0.1939 -0.6155
    3OL    H18T12998   5.605   2.943   3.391 -0.6291 -0.9749 -0.9034
    1PA    C11612999   5.949   5.460   3.459 -0.2971  0.0033  0.0560
    1PA    H16R13000   5.847   5.424   3.449 -0.1094 -0.1551 -1.5662
    1PA    H16S13001   5.974   5.418   3.557 -1.9794 -0.1712  0.4371
    1PA    H16T13002   6.019   5.408   3.393 -1.4010 -2.2784  0.5916
    1PA    C11513003   5.960   5.613   3.449  0.0567 -0.0060  0.2710
    1PA    H15R13004   6.064   5.645   3.447  0.0087  0.1641 -1.9588
    1PA    H15S13005   5.917   5.649   3.355 -1.7222  1.1643  1.4719
    1PA    C11413006   5.890   5.685   3.565 -0.0693  0.4958 -0.1152
    1PA    H14R13007   5.923   5.645   3.661  0.6911  0.6028 -0.3212
    1PA    H14S13008   5.919   5.791   3.562  1.5921  0.0496 -2.0600
    1PA    C11313009   5.739   5.668   3.544  0.0125 -0.1160 -0.2156
    1PA    H13R13010   5.716   5.708   3.446 -0.8424 -0.7405 -0.2860
    1PA    H13S13011   5.706   5.564   3.541  0.5159 -0.2745 -0.3116
    1PA    C11213012   5.670   5.748   3.656 -0.0743  0.1923 -0.4898
    1PA    H12R13013   5.695   5.710   3.755  0.4480 -0.7387 -0.9615
    1PA    H12S13014   5.697   5.853   3.643 -0.0050  0.1801 -0.4415
    1PA    C11113015   5.517   5.734   3.640  0.0338 -1.1518 -0.5166
    1PA    H11R13016   5.495   5.627   3.638  0.1552 -1.1764 -2.2456
    1PA    H11S13017   5.478   5.783   3.729 -0.0062 -0.1699 -1.0519
    1PA    C11013018   5.461   5.804   3.515  0.0467 -0.0274  0.0942
    1PA    H10R13019   5.508   5.901   3.501  1.8590 -0.9125 -0.2305
    1PA    H10S13020   5.471   5.733   3.433 -0.9910 -2.6468  2.0961
    1PA     C1913021   5.311   5.831   3.537  0.0545  0.3927 -0.3596
    1PA     H9R13022   5.284   5.840   3.642  0.1927  1.6561 -0.4147
    1PA     H9S13023   5.275   5.914   3.476  0.0530 -0.5225 -1.6364
    1PA     C1813024   5.228   5.714   3.483  0.2788  0.3004 -0.5042
    1PA     H8R13025   5.253   5.619   3.531 -3.1429 -0.7048 -0.4738
    1PA     H8S13026   5.125   5.728   3.516  0.3657  1.6600 -0.7875
    1PA     C1713027   5.247   5.679   3.335  0.4613  0.3618 -0.4963
    1PA     H7R13028   5.344   5.712   3.297  0.6360  1.0124  0.4762
    1PA     H7S13029   5.226   5.572   3.327 -2.9245  0.9330 -0.8453
    1PA     C1613030   5.135   5.743   3.252  0.5906  0.7092 -0.4034
    1PA     H6R13031   5.035   5.708   3.278 -0.0881  1.6814 -1.6045
    1PA     H6S13032   5.133   5.851   3.272  1.6455  0.8030 -0.7606
    1PA     C1513033   5.160   5.718   3.103  0.2264  0.0486 -0.3560
    1PA     H5R13034   5.253   5.769   3.079  0.5671 -0.4930 -0.1999
    1PA     H5S13035   5.171   5.610   3.097 -0.8951 -0.1308  0.4377
    1PA     C1413036   5.040   5.770   3.023  0.0207  0.2596  0.0865
    1PA     H4R13037   4.955   5.713   3.061  0.6845 -3.3891 -3.2856
    1PA     H4S13038   5.011   5.875   3.037 -1.7689 -0.1802 -0.0837
    1PA     C1313039   5.073   5.751   2.874  0.0544  0.0712  0.1180
    1PA     H3R13040   5.172   5.789   2.852  1.0264 -2.1434  0.4153
    1PA     H3S13041   5.094   5.647   2.851 -0.3070 -0.1603  0.8186
    1PA     C1213042   4.959   5.821   2.798 -0.3126 -0.1363  0.4721
    1PA     H2R13043   4.864   5.797   2.846  0.3203 -0.2107  1.7195
    1PA     H2S13044   4.979   5.928   2.801 -1.6796  0.1814 -0.6583
    2PC     C1113045   4.959   5.790   2.650 -0.6530 -0.6013  0.5654
    2PC     O1213046   4.868   5.805   2.572 -0.2118  0.1802  0.1897
    2PC     O1113047   5.078   5.740   2.613 -0.3376  0.4847  0.0761
    2PC      C113048   5.097   5.696   2.477  0.5438  0.4634  0.1980
    2PC      HR13049   5.014   5.638   2.435  0.7967  1.0102 -1.1177
    2PC      HS13050   5.107   5.790   2.422  1.9832 -0.5394 -1.3500
    2PC      C213051   5.225   5.613   2.481  0.1908 -0.0701  0.5718
    2PC      HX13052   5.301   5.673   2.530 -0.2480  0.1877  0.9379
    2PC      C313053   5.269   5.564   2.342  0.1188 -0.3513  0.6470
    2PC      HA13054   5.294   5.642   2.269  1.1436  0.3697  1.7292
    2PC      HB13055   5.357   5.499   2.350  1.5921  1.6500  1.6476
    2PC     O3113056   5.155   5.494   2.289  0.1109  0.1774 -0.0493
    2PC     P3113057   5.162   5.451   2.135 -0.1629 -0.1486  0.0278
    2PC     O3213058   5.178   5.589   2.054 -0.1803 -0.1022  0.1034
    2PC     C3113059   5.061   5.661   2.013 -0.0036  0.0588 -0.1229
    2PC     H1A13060   5.015   5.611   1.928 -1.4003  0.9883  0.0457
    2PC     H1B13061   4.988   5.653   2.095  1.8133 -3.7647  1.3460
    2PC     C3213062   5.092   5.804   1.965  0.2678  0.0332 -0.0245
    2PC     H2A13063   4.996   5.854   1.972 -0.2834 -0.2592 -3.5810
    2PC     H2B13064   5.156   5.867   2.027 -0.9144  0.5543  0.6873
    2PC     N3113065   5.131   5.820   1.821 -0.3283  0.0490 -0.1865
    2PC     C3313066   5.198   5.953   1.801  0.2100 -0.2536 -0.4300
    2PC     H3A13067   5.295   5.955   1.851  0.6219  0.9195 -1.2217
    2PC     H3B13068   5.219   5.945   1.694  0.5889  0.3202 -0.4036
    2PC     H3C13069   5.139   6.040   1.832  0.5760 -0.0288 -0.3584
    2PC     C3413070   5.214   5.707   1.769 -0.3014  0.0596 -0.1678
    2PC     H4A13071   5.244   5.721   1.665  2.0079  1.2354  0.5769
    2PC     H4B13072   5.306   5.741   1.817  0.1671  0.7569 -1.5194
    2PC     H4C13073   5.179   5.607   1.794 -0.9356  0.4276  0.4291
    2PC     C3513074   4.999   5.822   1.750 -0.7036 -0.0448  0.5066
    2PC     H5A13075   4.946   5.729   1.771 -3.3771  1.0606 -0.9324
    2PC     H5B13076   5.011   5.810   1.642  0.0600 -1.2870  0.7050
    2PC     H5C13077   4.938   5.908   1.778 -1.6324 -0.4976 -0.0913
    2PC     O3313078   5.265   5.345   2.142 -0.2049 -0.1843  0.1115
    2PC     O3413079   5.045   5.377   2.084 -0.1716  0.2910 -0.6041
    2PC     O2113080   5.212   5.493   2.560  0.0234 -0.5032 -0.1044
    2PC     C2113081   5.324   5.431   2.600 -0.0349 -0.3295  0.3307
    2PC     O2213082   5.438   5.470   2.585 -0.2813  0.4783  0.5046
    3OL     C1213083   5.295   5.313   2.690  0.3633 -0.1527  0.6954
    3OL     H2R13084   5.385   5.287   2.746  1.0507 -0.9810 -0.7101
    3OL     H2S13085   5.278   5.228   2.623  1.5539 -0.9454  1.3693
    3OL     C1313086   5.172   5.335   2.778 -0.3002  0.2953 -0.3212
    3OL     H3R13087   5.079   5.334   2.721 -0.4548  1.7990 -0.1255
    3OL     H3S13088   5.186   5.428   2.833  0.0095  0.7953 -1.2225
    3OL     C1413089   5.170   5.223   2.883  0.1307  0.2831 -0.3270
    3OL     H4R13090   5.256   5.233   2.950  0.1881  0.9596 -0.4988
    3OL     H4S13091   5.183   5.137   2.817 -3.6985 -1.1511  0.5635
    3OL     C1513092   5.044   5.226   2.970 -0.0681 -0.2042 -0.5977
    3OL     H5R13093   4.950   5.214   2.916 -1.7780  0.4605  2.0195
    3OL     H5S13094   5.043   5.323   3.018 -0.7123 -0.7257  0.4828
    3OL     C1613095   5.048   5.112   3.073 -0.4433  0.2324 -0.0930
    3OL     H6R13096   5.090   5.025   3.022 -0.0406  0.9006 -0.9289
    3OL     H6S13097   4.950   5.074   3.103  0.5930 -2.7587 -0.0943
    3OL     C1713098   5.131   5.145   3.197 -0.3025  0.0422 -0.1358
    3OL     H7R13099   5.110   5.247   3.230 -1.6431 -0.9814  2.5021
    3OL     H7S13100   5.237   5.136   3.174 -0.6864 -1.2278 -1.5524
    3OL     C1813101   5.115   5.037   3.305 -0.1881 -0.0591 -0.2194
    3OL     H8R13102   5.208   5.011   3.358 -1.9492 -0.8041  2.7565
    3OL     H8S13103   5.080   4.944   3.261 -0.2461 -0.4412  0.6138
    3OL     C1913104   5.032   5.089   3.420 -0.0284 -0.0808 -0.0928
    3OL     H9R13105   5.044   5.196   3.436  1.2666 -0.3047  0.5913
    3OL    C11013106   4.962   5.006   3.495 -0.0794  0.0129 -0.0368
    3OL    H10R13107   4.907   5.055   3.575  0.2455 -1.2620  0.9943
    3OL    C11113108   4.966   4.856   3.489 -0.3494 -0.0161  0.4712
    3OL    H11R13109   4.944   4.801   3.582  3.9281 -2.0340  0.5322
    3OL    H11S13110   5.066   4.819   3.467 -0.6089  0.4672 -1.6711
    3OL    C11213111   4.849   4.815   3.398 -0.0474 -0.1801  0.1594
    3OL    H12R13112   4.861   4.840   3.292 -1.1079  0.1484  0.1135
    3OL    H12S13113   4.763   4.879   3.419  0.6790  0.2975  1.7911
    3OL    C11313114   4.815   4.667   3.419 -0.0604 -0.2477 -0.3161
    3OL    H13R13115   4.716   4.637   3.383 -0.2795  0.4301 -0.2919
    3OL    H13S13116   4.813   4.639   3.525 -1.3981 -1.7245 -0.6887
    3OL    C11413117   4.923   4.577   3.358  0.3773  0.3001 -0.3552
    3OL    H14R13118   5.019   4.618   3.389  0.7143  0.1740 -1.1881
    3OL    H14S13119   4.922   4.592   3.249  1.2421 -0.4307 -0.4736
    3OL    C11513120   4.904   4.429   3.392  0.2684  0.2785 -0.5030
    3OL    H15R13121   4.812   4.386   3.352  0.4493 -1.0022  0.3793
    3OL    H15S13122   4.890   4.430   3.501 -0.9580  0.6106 -0.6566
    3OL    C11613123   5.025   4.343   3.353 -0.0015 -0.4860  0.3040
    3OL    H16R13124   5.055   4.262   3.420  3.7280 -0.1304 -0.6889
    3OL    H16S13125   5.110   4.411   3.368  1.4031 -2.0291 -0.3176
    3OL    C11713126   5.025   4.301   3.206  0.1002  0.6091 -0.0178
    3OL    H17R13127   4.991   4.389   3.152  0.6978  1.5502  1.1057
    3OL    H17S13128   4.947   4.224   3.202  0.8422 -0.2275  1.1435
    3OL    C11813129   5.162   4.244   3.168 -0.1807  0.1885 -0.4170
    3OL    H18R13130   5.162   4.184   3.077 -0.6704  2.2297 -1.8276
    3OL    H18S13131   5.186   4.179   3.252  1.7777  0.7152 -0.5289
    3OL    H18T13132   5.245   4.314   3.180 -1.5914  1.8583 -0.0681
    1PA    C11613133   6.156   3.482   3.733  0.4981 -0.5262  0.7681
    1PA    H16R13134   6.049   3.486   3.755  0.1435  1.1687 -0.9811
    1PA    H16S13135   6.200   3.581   3.745 -1.9665  0.6487  0.6757
    1PA    H16T13136   6.207   3.405   3.792  3.4135 -0.1740 -1.0937
    1PA    C11513137   6.178   3.433   3.589  0.1787  0.0836  0.5074
    1PA    H15R13138   6.268   3.372   3.582 -0.5880 -1.2077  1.2512
    1PA    H15S13139   6.092   3.372   3.559  0.6024  0.1396 -0.8741
    1PA    C11413140   6.169   3.559   3.502  0.9308  0.0560  0.3841
    1PA    H14R13141   6.067   3.598   3.503  0.3187 -1.1618 -2.7020
    1PA    H14S13142   6.234   3.639   3.538  1.7785 -0.4907  0.1132
    1PA    C11313143   6.190   3.532   3.353 -0.1108  0.0919  0.2226
    1PA    H13R13144   6.179   3.628   3.300  1.5762  0.4410  0.4569
    1PA    H13S13145   6.296   3.505   3.349 -0.0639 -0.0922  2.1093
    1PA    C11213146   6.106   3.422   3.287 -0.1592  0.0039  0.4315
    1PA    H12R13147   6.123   3.323   3.331  1.5013 -0.4919 -1.1650
    1PA    H12S13148   6.000   3.443   3.300 -0.9577 -2.9812 -0.3327
    1PA    C11113149   6.150   3.410   3.140  0.0489  0.3753  0.4626
    1PA    H11R13150   6.125   3.502   3.085  0.0277 -1.3342 -2.6059
    1PA    H11S13151   6.255   3.387   3.123  0.0857  1.7113 -1.5007
    1PA    C11013152   6.070   3.297   3.074 -0.2257  0.6507  0.3169
    1PA    H10R13153   6.101   3.198   3.108 -0.4449 -0.3563 -2.1532
    1PA    H10S13154   5.965   3.304   3.100  0.1826  2.3473  1.6731
    1PA     C1913155   6.085   3.289   2.921 -0.8804  0.6053  0.2517
    1PA     H9R13156   6.018   3.214   2.879  0.0818 -0.0836 -0.0847
    1PA     H9S13157   6.061   3.383   2.871 -2.4351 -0.6138 -1.4084
    1PA     C1813158   6.227   3.236   2.894 -1.2137 -0.4144  0.4480
    1PA     H8R13159   6.306   3.293   2.944 -1.3408 -1.2752  1.6751
    1PA     H8S13160   6.242   3.135   2.931  1.2552 -1.3866 -2.7317
    1PA     C1713161   6.256   3.230   2.743 -0.0156  0.4933  0.6274
    1PA     H7R13162   6.176   3.162   2.714 -1.1943  1.8380  0.6214
    1PA     H7S13163   6.237   3.324   2.691 -0.6846  0.4826  0.8448
    1PA     C1613164   6.398   3.180   2.714 -0.1057  0.4507  0.2656
    1PA     H6R13165   6.460   3.255   2.762 -0.0323  0.6820 -0.1788
    1PA     H6S13166   6.407   3.086   2.769 -0.0733  0.4481  0.2564
    1PA     C1513167   6.427   3.168   2.563  0.1633 -0.1164  0.3610
    1PA     H5R13168   6.378   3.253   2.517  1.5826  1.4185  1.5542
    1PA     H5S13169   6.533   3.182   2.537 -0.2538 -1.0960 -2.1328
    1PA     C1413170   6.357   3.042   2.510  0.1393 -0.1433  0.4570
    1PA     H4R13171   6.407   2.952   2.546  1.5528  1.1388  1.8734
    1PA     H4S13172   6.254   3.058   2.542  0.1593  1.4037 -0.1616
    1PA     C1313173   6.352   3.041   2.357  0.2412 -0.2553  0.4543
    1PA     H3R13174   6.277   3.110   2.317 -1.0250 -2.2835 -0.8565
    1PA     H3S13175   6.450   3.073   2.320 -0.3193 -1.3044 -2.1526
    1PA     C1213176   6.332   2.906   2.287 -0.4784  0.1313 -0.0994
    1PA     H2R13177   6.413   2.839   2.318 -1.6974 -2.1588 -1.5540
    1PA     H2S13178   6.235   2.861   2.308 -0.1592 -0.2364  0.6211
    2PC     C1113179   6.348   2.915   2.137  0.3242  0.1427 -0.0217
    2PC     O1213180   6.247   2.936   2.073 -0.3101 -0.0845  0.8812
    2PC     O1113181   6.473   2.906   2.091  0.3222  0.6949 -0.1433
    2PC      C113182   6.502   2.898   1.950  0.0545 -0.5428 -0.1389
    2PC      HR13183   6.446   2.817   1.903 -1.2569  1.0417 -1.4458
    2PC      HS13184   6.467   2.990   1.901  1.2210  0.3895  0.7162
    2PC      C213185   6.651   2.878   1.919  0.0314 -0.2625 -0.4408
    2PC      HX13186   6.711   2.962   1.956  1.1053 -0.9859 -0.5192
    2PC      C313187   6.667   2.868   1.767 -0.0414  0.3887 -0.4966
    2PC      HA13188   6.646   2.969   1.731 -0.1872  0.5744  0.0935
    2PC      HB13189   6.772   2.846   1.747  0.2478  2.1772 -1.0404
    2PC     O3113190   6.581   2.771   1.705 -0.3007  0.3860 -0.1378
    2PC     P3113191   6.570   2.779   1.545  0.0753 -0.1083 -0.1911
    2PC     O3213192   6.481   2.909   1.513  0.0510 -0.1551 -0.3159
    2PC     C3113193   6.343   2.908   1.554 -0.0331  0.2959 -0.5844
    2PC     H1A13194   6.297   2.814   1.522  0.9622 -0.5567  0.3866
    2PC     H1B13195   6.335   2.930   1.661  0.7225  0.9058 -0.6418
    2PC     C3213196   6.271   3.027   1.489 -0.4636  0.6620  0.5492
    2PC     H2A13197   6.191   3.053   1.558 -1.0947  0.9706 -0.2850
    2PC     H2B13198   6.331   3.115   1.468  0.1540  0.0110 -0.4736
    2PC     N3113199   6.205   2.992   1.360  0.3088  0.3422  0.2369
    2PC     C3313200   6.138   3.116   1.309 -0.1108  0.1132  0.2246
    2PC     H3A13201   6.217   3.191   1.309  0.7694 -0.7960  0.3496
    2PC     H3B13202   6.105   3.096   1.206 -0.5083 -2.3111  0.7558
    2PC     H3C13203   6.057   3.140   1.376 -0.3699  1.6057 -0.5906
    2PC     C3413204   6.297   2.943   1.252 -0.3858 -0.3276 -0.0618
    2PC     H4A13205   6.338   2.845   1.277 -4.8883 -2.3218  0.4644
    2PC     H4B13206   6.246   2.937   1.156 -0.9621 -1.6532  0.2920
    2PC     H4C13207   6.369   3.024   1.247 -1.2693  0.4228 -0.8940
    2PC     C3513208   6.111   2.876   1.380  0.2776  0.3415  0.0931
    2PC     H5A13209   6.047   2.861   1.294  3.8033 -1.6121 -2.4665
    2PC     H5B13210   6.049   2.868   1.469 -2.4425 -1.1512 -1.8064
    2PC     H5C13211   6.169   2.784   1.392 -0.7509 -0.3235  0.0449
    2PC     O3313212   6.704   2.800   1.485 -0.0403  0.4618 -0.2548
    2PC     O3413213   6.520   2.657   1.478  0.3424 -0.1256 -0.3633
    2PC     O2113214   6.693   2.754   1.978  0.0490 -0.1689 -0.2535
    2PC     C2113215   6.819   2.710   1.963  0.1967  0.0884  0.2354
    2PC     O2213216   6.910   2.777   1.917 -0.3172  0.5185 -0.1633
    3OL     C1213217   6.845   2.577   2.028 -0.1776 -0.2305 -0.2651
    3OL     H2R13218   6.948   2.550   2.005 -0.6648  0.6277 -3.9575
    3OL     H2S13219   6.772   2.504   1.992 -2.8713  2.4269 -0.6559
    3OL     C1313220   6.832   2.583   2.181  0.5505  0.5099 -0.2243
    3OL     H3R13221   6.725   2.578   2.204  0.3208  1.3683 -1.0811
    3OL     H3S13222   6.878   2.676   2.214 -0.0555 -0.1627  2.8504
    3OL     C1413223   6.895   2.455   2.238  0.0487  0.2766 -0.1842
    3OL     H4R13224   6.997   2.441   2.203 -0.1079 -0.3549 -0.4064
    3OL     H4S13225   6.853   2.367   2.190 -1.6652  0.8843  0.1311
    3OL     C1513226   6.884   2.443   2.391  0.3463  0.0658 -0.1779
    3OL     H5R13227   6.933   2.531   2.434  1.0271 -1.1080  1.5554
    3OL     H5S13228   6.945   2.358   2.421  0.3907  1.0676  2.8296
    3OL     C1613229   6.739   2.427   2.440  0.5478 -0.2381  0.3220
    3OL     H6R13230   6.690   2.347   2.384  1.9956  0.0624 -1.5097
    3OL     H6S13231   6.694   2.516   2.396  2.9203 -0.7222 -3.5724
    3OL     C1713232   6.732   2.425   2.593 -0.5425 -0.0001  0.2774
    3OL     H7R13233   6.788   2.341   2.635 -0.3595  0.0118  0.0570
    3OL     H7S13234   6.629   2.420   2.630  0.0313 -2.1633  1.7932
    3OL     C1813235   6.803   2.541   2.664 -0.3992 -0.2075  0.4751
    3OL     H8R13236   6.780   2.642   2.630  1.9300  1.5279  3.5805
    3OL     H8S13237   6.907   2.532   2.633 -0.4505  0.0905  0.2022
    3OL     C1913238   6.788   2.541   2.814 -0.0682 -0.1120  0.5097
    3OL     H9R13239   6.849   2.478   2.878 -0.5061 -1.2565 -0.1565
    3OL    C11013240   6.694   2.614   2.872 -0.0789  0.0089  0.3422
    3OL    H10R13241   6.679   2.611   2.980  0.6697  0.5258  0.4711
    3OL    C11113242   6.593   2.696   2.797  0.1152  0.1754  0.2617
    3OL    H11R13243   6.594   2.693   2.688 -2.3466  1.8559  0.1104
    3OL    H11S13244   6.624   2.800   2.813  0.5225 -0.2509  2.6460
    3OL    C11213245   6.452   2.674   2.853 -0.0728 -0.1730 -0.3461
    3OL    H12R13246   6.418   2.572   2.833 -0.3305  0.0380 -1.0037
    3OL    H12S13247   6.378   2.734   2.799 -1.3474 -1.3344  0.0502
    3OL    C11313248   6.435   2.713   3.001 -0.1001  0.4941 -0.5229
    3OL    H13R13249   6.521   2.670   3.053 -0.0613 -0.7509 -1.5640
    3OL    H13S13250   6.342   2.684   3.050 -0.6060  0.7923 -1.2864
    3OL    C11413251   6.442   2.865   3.021  0.7163  0.3442  0.4129
    3OL    H14R13252   6.354   2.907   2.971 -0.8243 -1.4684  1.4407
    3OL    H14S13253   6.523   2.913   2.966 -0.3764  1.4181 -0.3024
    3OL    C11513254   6.447   2.900   3.170 -0.3564  0.0280  0.5321
    3OL    H15R13255   6.542   2.858   3.202 -0.0824  0.7641  0.7072
    3OL    H15S13256   6.373   2.846   3.230  0.2153  0.0188  1.2379
    3OL    C11613257   6.451   3.049   3.208 -0.7101  0.0538  0.4717
    3OL    H16R13258   6.357   3.101   3.188 -0.1125  0.0899 -2.7375
    3OL    H16S13259   6.523   3.098   3.143 -2.2558  0.7001 -0.8388
    3OL    C11713260   6.496   3.076   3.352  0.1860  0.2496  0.1617
    3OL    H17R13261   6.537   3.177   3.361  0.4434  0.0898  0.8170
    3OL    H17S13262   6.581   3.019   3.390 -1.5312 -0.4285  3.3765
    3OL    C11813263   6.376   3.061   3.447  0.0787  0.1488  0.0103
    3OL    H18R13264   6.344   2.958   3.459 -0.5877  0.4124  0.5551
    3OL    H18S13265   6.291   3.124   3.419 -0.3104 -0.3849 -0.0306
    3OL    H18T13266   6.396   3.091   3.550  2.1371  4.5820 -1.4255
    1PA    C11613267   1.627   0.906   3.404 -0.1904 -0.1901 -0.2382
    1PA    H16R13268   1.687   0.889   3.494 -0.9622  1.1472  0.5535
    1PA    H16S13269   1.554   0.826   3.390  0.1764 -0.5802  0.0482
    1PA    H16T13270   1.579   1.004   3.409  0.4740  0.1574 -0.4817
    1PA    C11513271   1.718   0.910   3.279  0.4280 -0.1861  0.2065
    1PA    H15R13272   1.663   0.915   3.185  0.8956  1.5806 -0.0175
    1PA    H15S13273   1.772   1.005   3.288  0.5747 -0.3816  1.6916
    1PA    C11413274   1.816   0.793   3.275  0.6043 -0.0523  0.4927
    1PA    H14R13275   1.911   0.824   3.232  0.4008  1.1600  0.8913
    1PA    H14S13276   1.855   0.766   3.373  2.5939  0.8623 -0.0022
    1PA    C11313277   1.755   0.667   3.210  0.5621  0.3007 -0.1646
    1PA    H13R13278   1.669   0.642   3.272  2.1911 -1.1500  1.6499
    1PA    H13S13279   1.728   0.697   3.109  2.1531 -1.3824 -1.1599
    1PA    C11213280   1.862   0.558   3.194  0.1158 -0.1466 -0.1045
    1PA    H12R13281   1.897   0.540   3.296  0.7794  0.6874 -0.1765
    1PA    H12S13282   1.803   0.470   3.167 -1.0695  1.1422 -1.9534
    1PA    C11113283   1.970   0.580   3.087  0.7084  0.1846  0.5531
    1PA    H11R13284   1.918   0.600   2.993  0.0575  0.1673  0.9014
    1PA    H11S13285   2.024   0.671   3.114  0.8311 -0.1858  1.6090
    1PA    C11013286   2.060   0.456   3.076  0.1374 -0.2026  0.1957
    1PA    H10R13287   1.998   0.369   3.054  1.0796 -0.4879 -1.5245
    1PA    H10S13288   2.114   0.479   2.984 -0.5565  1.0123  0.0730
    1PA     C1913289   2.148   0.436   3.200  0.3097  0.3215  0.1606
    1PA     H9R13290   2.183   0.536   3.228  1.8613  0.2155 -1.2432
    1PA     H9S13291   2.084   0.395   3.278  1.9264  0.9748  1.8860
    1PA     C1813292   2.259   0.333   3.179 -0.6068 -0.6829  0.1417
    1PA     H8R13293   2.308   0.330   3.277  0.6113 -0.2329 -0.4360
    1PA     H8S13294   2.218   0.240   3.140 -2.9338  0.3024  0.0926
    1PA     C1713295   2.369   0.384   3.085 -0.5378 -0.4631  0.3397
    1PA     H7R13296   2.331   0.439   2.999  0.8109  1.0736  0.6925
    1PA     H7S13297   2.420   0.461   3.142  1.0566 -0.7931 -0.5749
    1PA     C1613298   2.463   0.267   3.053 -0.3675 -0.2272 -0.0351
    1PA     H6R13299   2.512   0.241   3.147 -0.5669 -1.4724 -0.2536
    1PA     H6S13300   2.411   0.179   3.014 -0.9042  1.2198 -2.7939
    1PA     C1513301   2.574   0.303   2.954 -0.6439  0.0722 -0.2358
    1PA     H5R13302   2.632   0.391   2.983 -2.4500  0.9633  0.8304
    1PA     H5S13303   2.638   0.214   2.951 -0.1741  0.4284 -1.4739
    1PA     C1413304   2.523   0.334   2.813 -0.5272  0.1693 -0.2577
    1PA     H4R13305   2.480   0.241   2.774  0.4207 -0.0861 -0.7452
    1PA     H4S13306   2.433   0.396   2.813 -1.1604 -0.6926  1.6854
    1PA     C1313307   2.621   0.396   2.712 -0.1014 -0.1999 -0.0746
    1PA     H3R13308   2.573   0.416   2.616  1.7334 -1.0316 -1.2226
    1PA     H3S13309   2.664   0.486   2.756 -2.5844  0.5489  0.9848
    1PA     C1213310   2.735   0.300   2.675  0.3068  0.2706 -0.0558
    1PA     H2R13311   2.804   0.298   2.759 -2.0287  1.5295  2.0372
    1PA     H2S13312   2.690   0.200   2.681  0.6038  0.0167 -1.7232
    2PC     C1113313   2.800   0.326   2.542  0.6690  0.0419  0.0753
    2PC     O1213314   2.803   0.439   2.499 -0.1136  0.0555  0.0483
    2PC     O1113315   2.846   0.212   2.488  0.0025 -0.0836 -0.2417
    2PC      C113316   2.896   0.213   2.353  0.4860 -0.1292 -0.0667
    2PC      HR13317   2.809   0.200   2.288 -0.2676 -0.9233  1.0797
    2PC      HS13318   2.940   0.311   2.332  0.5068 -0.0509  0.3298
    2PC      C213319   2.983   0.090   2.326  0.0784 -0.4879  0.2507
    2PC      HX13320   3.074   0.082   2.387  0.9944  1.8725 -0.6861
    2PC      C313321   3.014   0.093   2.176 -0.1686  0.1055  0.2127
    2PC      HA13322   3.054   0.190   2.143 -1.0670  0.2392 -0.5251
    2PC      HB13323   3.089   0.018   2.152 -0.9222 -0.9829  1.1493
    2PC     O3113324   2.889   0.070   2.108 -0.0915 -0.1560  0.1612
    2PC     P3113325   2.873   0.078   1.949  0.4016  0.2975  0.1292
    2PC     O3213326   2.995  -0.006   1.890  0.2980 -0.3460  0.8194
    2PC     C3113327   2.982  -0.150   1.898 -0.4659 -0.3108  0.2459
    2PC     H1A13328   3.081  -0.195   1.894 -0.2258  0.2436 -0.3560
    2PC     H1B13329   2.914  -0.170   1.981 -0.0606  2.2263  1.2804
    2PC     C3213330   2.916  -0.194   1.767 -0.2350 -0.3782  0.1515
    2PC     H2A13331   2.880  -0.296   1.783  1.1024 -0.5434  2.4135
    2PC     H2B13332   2.837  -0.123   1.741 -0.1767 -0.5732 -0.5775
    2PC     N3113333   2.999  -0.196   1.642 -0.0986 -0.0975  0.2379
    2PC     C3313334   3.117  -0.287   1.663  0.0736  0.0125 -0.2519
    2PC     H3A13335   3.170  -0.297   1.568 -0.7999 -2.0275 -0.5767
    2PC     H3B13336   3.185  -0.257   1.743  2.6960 -4.0741 -0.6679
    2PC     H3C13337   3.073  -0.383   1.688  0.8199 -0.5808 -1.1638
    2PC     C3413338   2.917  -0.252   1.530  0.2943  0.2746 -0.2391
    2PC     H4A13339   2.814  -0.215   1.531 -0.1507 -0.9248  0.9450
    2PC     H4B13340   2.970  -0.230   1.437 -0.6268 -1.6364 -1.2722
    2PC     H4C13341   2.919  -0.361   1.536  4.2312  0.3034  3.2362
    2PC     C3513342   3.047  -0.059   1.606 -0.4724  0.0364  0.2425
    2PC     H5A13343   3.125  -0.038   1.680 -1.8239  0.1531  1.6772
    2PC     H5B13344   2.967   0.014   1.616 -0.8403 -0.1577 -1.0997
    2PC     H5C13345   3.077  -0.070   1.501  0.3292 -1.3388  0.5867
    2PC     O3313346   2.735   0.038   1.913  0.4592 -0.0122  0.2493
    2PC     O3413347   2.882   0.217   1.900 -0.3880  0.2373 -0.2138
    2PC     O2113348   2.890  -0.018   2.348 -0.2204 -0.3151 -0.1727
    2PC     C2113349   2.932  -0.145   2.341  0.2247 -0.1579 -0.3861
    2PC     O2213350   3.047  -0.176   2.315  0.3940 -0.2209  0.4104
    3OL     C1213351   2.824  -0.247   2.366 -0.2651  0.3875 -0.2569
    3OL     H2R13352   2.881  -0.341   2.370  0.5152  0.8396 -0.5325
    3OL     H2S13353   2.750  -0.255   2.286 -2.1745 -0.2072  1.4714
    3OL     C1313354   2.753  -0.208   2.497 -0.1197  0.1540 -0.1067
    3OL     H3R13355   2.710  -0.110   2.479 -0.8291 -0.1642 -0.1799
    3OL     H3S13356   2.825  -0.204   2.579 -0.9775  1.5161  0.6103
    3OL     C1413357   2.635  -0.299   2.533  0.2019 -0.1488  0.1911
    3OL     H4R13358   2.657  -0.406   2.535  1.4396  0.1014  1.8607
    3OL     H4S13359   2.549  -0.286   2.467 -0.8021  2.0605  1.8207
    3OL     C1513360   2.584  -0.277   2.676 -0.3051  1.2494 -0.1835
    3OL     H5R13361   2.565  -0.172   2.699 -1.4446  1.5774 -2.3805
    3OL     H5S13362   2.647  -0.321   2.754 -0.9148  0.8474  0.0962
    3OL     C1613363   2.451  -0.352   2.692  0.3008  0.0979 -0.4241
    3OL     H6R13364   2.467  -0.458   2.670 -0.7952 -0.2073  0.1679
    3OL     H6S13365   2.386  -0.306   2.618  1.1873  0.6486 -0.8790
    3OL     C1713366   2.399  -0.354   2.837  0.4022 -0.8803 -0.3920
    3OL     H7R13367   2.374  -0.251   2.864 -0.3993 -0.6798 -1.7726
    3OL     H7S13368   2.467  -0.402   2.908 -1.1194  0.2047  1.9052
    3OL     C1813369   2.266  -0.429   2.845 -0.0153 -0.1055  0.0331
    3OL     H8R13370   2.280  -0.521   2.788  0.9479 -0.4297  0.7777
    3OL     H8S13371   2.179  -0.375   2.808 -1.2148 -1.2492  1.0727
    3OL     C1913372   2.220  -0.461   2.985  0.5091  0.5483  0.3588
    3OL     H9R13373   2.211  -0.567   3.007 -1.9650  0.2186 -1.7858
    3OL    C11013374   2.168  -0.374   3.069  0.3548  0.2219  0.6049
    3OL    H10R13375   2.125  -0.408   3.163  0.2192  1.0392  0.8507
    3OL    C11113376   2.148  -0.226   3.047  0.0330  0.0976  0.0680
    3OL    H11R13377   2.042  -0.202   3.037  0.1433  1.6571  2.0046
    3OL    H11S13378   2.208  -0.199   2.960  0.9493  0.5150  0.8106
    3OL    C11213379   2.211  -0.150   3.165  0.0865 -0.3578  0.3358
    3OL    H12R13380   2.202  -0.219   3.249 -4.3573  0.4313  0.7782
    3OL    H12S13381   2.144  -0.065   3.182 -3.0625 -2.3177 -1.2296
    3OL    C11313382   2.351  -0.097   3.132  0.0422 -0.2625  0.2989
    3OL    H13R13383   2.350  -0.021   3.053 -2.0681 -1.1739 -0.6478
    3OL    H13S13384   2.423  -0.172   3.099  0.0541  0.6931 -2.0711
    3OL    C11413385   2.417  -0.033   3.255  0.5900 -0.5869  0.1764
    3OL    H14R13386   2.348   0.030   3.312 -0.7760 -1.8333 -0.0339
    3OL    H14S13387   2.501   0.027   3.218  0.2789 -0.4875 -0.3907
    3OL    C11513388   2.466  -0.138   3.355 -0.0687 -1.1621 -0.0917
    3OL    H15R13389   2.545  -0.200   3.311 -1.6255 -1.4844 -2.5903
    3OL    H15S13390   2.381  -0.204   3.374 -0.6393 -0.7290 -1.0556
    3OL    C11613391   2.520  -0.074   3.484 -1.2680 -0.8700  0.2766
    3OL    H16R13392   2.444  -0.011   3.531 -1.5170 -3.6195  4.0762
    3OL    H16S13393   2.609  -0.027   3.442 -0.4024 -0.5008  2.4004
    3OL    C11713394   2.573  -0.176   3.585  0.0862 -0.2940  0.1685
    3OL    H17R13395   2.615  -0.124   3.671 -1.0381  0.2135  0.4162
    3OL    H17S13396   2.659  -0.228   3.541 -1.0750 -2.1467 -0.0458
    3OL    C11813397   2.465  -0.273   3.636 -0.0130 -0.1622  0.2085
    3OL    H18R13398   2.376  -0.217   3.665 -1.4238 -0.0486 -3.7520
    3OL    H18S13399   2.511  -0.327   3.719  1.8402  2.1762  0.8137
    3OL    H18T13400   2.436  -0.345   3.559 -3.7837 -1.3126  2.4268
    1PA    C11613401   0.785   4.941   3.407 -0.5566  0.0677 -0.1118
    1PA    H16R13402   0.772   4.834   3.389 -2.0029  0.2747 -0.4068
    1PA    H16S13403   0.696   4.963   3.466 -0.3632  0.4252  0.0502
    1PA    H16T13404   0.875   4.957   3.466 -0.8829 -0.3989  0.5376
    1PA    C11513405   0.792   5.029   3.282  0.0584 -0.0241 -0.1464
    1PA    H15R13406   0.746   5.128   3.290 -3.1757 -1.2649 -1.4020
    1PA    H15S13407   0.897   5.039   3.257  0.0263 -0.9930 -0.7419
    1PA    C11413408   0.726   4.948   3.169  0.4510 -0.2641 -0.2040
    1PA    H14R13409   0.758   4.844   3.174 -1.3972 -0.7929  3.3504
    1PA    H14S13410   0.617   4.945   3.177  0.0792  1.8641 -2.9286
    1PA    C11313411   0.766   5.008   3.033  0.7327  0.3007  0.1258
    1PA    H13R13412   0.871   5.033   3.050  0.2349  0.6785  3.4713
    1PA    H13S13413   0.743   4.938   2.953 -0.9310  0.7750  0.1615
    1PA    C11213414   0.683   5.136   3.015  0.0297 -0.1354  0.2220
    1PA    H12R13415   0.577   5.121   2.995 -0.3339 -0.9932  2.4866
    1PA    H12S13416   0.685   5.197   3.105 -1.3552  0.2121  0.0407
    1PA    C11113417   0.736   5.216   2.895 -0.7168 -0.3913 -0.2843
    1PA    H11R13418   0.671   5.303   2.884 -0.4982 -0.2503 -0.4734
    1PA    H11S13419   0.836   5.249   2.925 -0.2167 -1.0287 -1.1735
    1PA    C11013420   0.752   5.135   2.765  0.0926 -0.1755 -0.3257
    1PA    H10R13421   0.821   5.051   2.777  0.1791 -0.0265  0.2610
    1PA    H10S13422   0.653   5.093   2.744 -1.4277  2.3297  1.2570
    1PA     C1913423   0.806   5.235   2.662 -0.0390 -0.0150 -0.2411
    1PA     H9R13424   0.739   5.321   2.659  0.8985  0.7127 -2.0395
    1PA     H9S13425   0.905   5.273   2.687 -0.0251 -0.1148 -0.1437
    1PA     C1813426   0.812   5.176   2.520  0.1622  0.1063 -0.2837
    1PA     H8R13427   0.878   5.089   2.519 -2.5747 -2.2321  1.9445
    1PA     H8S13428   0.717   5.134   2.487 -2.0409  2.9013  2.0127
    1PA     C1713429   0.856   5.279   2.415  0.0561  0.5177  0.0727
    1PA     H7R13430   0.778   5.355   2.407  1.9819  2.4396 -1.6743
    1PA     H7S13431   0.942   5.341   2.442 -0.2040  0.9286 -0.0427
    1PA     C1613432   0.876   5.205   2.282 -0.3985 -0.3404  0.4699
    1PA     H6R13433   0.964   5.141   2.292 -1.2385 -1.6113 -0.0122
    1PA     H6S13434   0.792   5.138   2.262  0.5068 -1.3931  0.0912
    1PA     C1513435   0.885   5.305   2.165  0.6098 -0.4803  0.4203
    1PA     H5R13436   0.878   5.239   2.079  2.6290  0.0250 -0.1825
    1PA     H5S13437   0.801   5.375   2.168  1.0606  0.1228 -0.4963
    1PA     C1413438   1.022   5.373   2.173  0.0211  0.7499  0.2716
    1PA     H4R13439   1.017   5.452   2.248 -0.0845  0.2633  0.7841
    1PA     H4S13440   1.099   5.305   2.211 -0.3308 -0.1312 -0.5579
    1PA     C1313441   1.051   5.430   2.034  0.4258 -0.4315 -0.1402
    1PA     H3R13442   1.073   5.344   1.971  0.2722 -0.8325  0.3476
    1PA     H3S13443   0.962   5.483   1.998  0.8503 -0.5943 -1.4891
    1PA     C1213444   1.187   5.502   2.026  0.2817 -0.0225  0.9595
    1PA     H2R13445   1.196   5.577   2.104 -2.1959  0.5928  0.7650
    1PA     H2S13446   1.260   5.422   2.036 -1.4099 -1.8006 -0.1529
    2PC     C1113447   1.211   5.559   1.889  0.3706  0.1088  1.0299
    2PC     O1213448   1.163   5.517   1.786 -0.0448  0.1878  1.1874
    2PC     O1113449   1.299   5.661   1.889  0.1051  0.3439  0.6415
    2PC      C113450   1.340   5.723   1.766 -0.3262 -0.6446 -0.0130
    2PC      HR13451   1.409   5.805   1.786 -1.9090  0.9906 -0.9479
    2PC      HS13452   1.387   5.653   1.696  1.4139  0.5836 -0.1432
    2PC      C213453   1.227   5.796   1.692  0.1919  0.5120  0.3108
    2PC      HX13454   1.138   5.735   1.674  0.4681  0.6067 -1.5879
    2PC      C313455   1.264   5.851   1.554 -0.2727  0.9581  0.3613
    2PC      HA13456   1.348   5.920   1.555 -0.1880  0.8576  0.2450
    2PC      HB13457   1.298   5.761   1.501 -1.6954  0.7466 -0.2495
    2PC     O3113458   1.144   5.895   1.487 -0.3715 -0.1534 -0.2255
    2PC     P3113459   1.151   5.974   1.347 -0.1724  0.0109 -0.1238
    2PC     O3213460   1.024   6.071   1.348 -0.2132 -0.0338 -0.6636
    2PC     C3113461   1.026   6.194   1.423  0.0257 -0.7379  0.5100
    2PC     H1A13462   1.034   6.180   1.531  0.8447 -1.9117  0.3169
    2PC     H1B13463   1.106   6.255   1.381 -0.7331 -2.6466 -4.3748
    2PC     C3213464   0.888   6.253   1.393  0.5759  0.3215  0.0526
    2PC     H2A13465   0.860   6.235   1.289 -0.3935  0.9609  0.1855
    2PC     H2B13466   0.815   6.205   1.458 -1.1088  1.0181 -1.2303
    2PC     N3113467   0.867   6.402   1.397 -0.4953  0.1985 -0.4974
    2PC     C3313468   0.943   6.468   1.286 -0.2207  0.9633  0.1332
    2PC     H3A13469   0.948   6.576   1.300 -1.9164  1.2820 -1.3240
    2PC     H3B13470   1.038   6.415   1.277 -0.4456  0.6572 -0.5648
    2PC     H3C13471   0.882   6.443   1.199  0.4009 -0.2810  0.0298
    2PC     C3413472   0.727   6.446   1.367 -0.3183  0.8071 -0.4523
    2PC     H4A13473   0.665   6.393   1.441  1.3599  1.7883  1.7679
    2PC     H4B13474   0.717   6.553   1.383 -0.7619  0.4831  1.8161
    2PC     H4C13475   0.694   6.408   1.270 -0.8369 -0.1179  0.0645
    2PC     C3513476   0.915   6.479   1.516 -0.2436 -0.3033 -0.2719
    2PC     H5A13477   1.004   6.441   1.568 -0.2482  1.4174  1.0834
    2PC     H5B13478   0.830   6.469   1.583 -0.9369 -1.3122 -1.2664
    2PC     H5C13479   0.932   6.580   1.479 -0.2432 -0.5045 -0.8286
    2PC     O3313480   1.273   6.053   1.322  0.0516 -0.2934 -0.0059
    2PC     O3413481   1.153   5.879   1.233 -0.3928 -0.5809  0.3593
    2PC     O2113482   1.188   5.908   1.773 -0.5080  0.4328  0.0918
    2PC     C2113483   1.102   5.889   1.875 -0.2793 -0.1472  0.1800
    2PC     O2213484   1.038   5.787   1.891 -0.1439 -0.2850 -0.1297
    3OL     C1213485   1.090   6.006   1.970  0.2678 -0.0127  0.0894
    3OL     H2R13486   0.994   6.009   2.021 -1.2898 -1.2550 -2.5165
    3OL     H2S13487   1.095   6.096   1.909  0.8503  0.0754  0.2701
    3OL     C1313488   1.204   6.001   2.072  0.0223  0.3817  0.3826
    3OL     H3R13489   1.199   6.085   2.141  3.1071  1.0232 -0.0548
    3OL     H3S13490   1.296   6.018   2.016  0.3202 -1.2539  0.3382
    3OL     C1413491   1.231   5.873   2.153 -0.1556 -0.0089 -0.1672
    3OL     H4R13492   1.327   5.878   2.204 -0.7730 -3.2173  1.5520
    3OL     H4S13493   1.239   5.783   2.092  1.0614 -1.5055  2.0510
    3OL     C1513494   1.137   5.870   2.275 -0.0571 -0.1859 -0.0959
    3OL     H5R13495   1.033   5.855   2.243 -0.5024  0.5447  0.9490
    3OL     H5S13496   1.143   5.971   2.315 -0.4278  0.0211 -0.5537
    3OL     C1613497   1.178   5.754   2.367  0.3295 -0.0157 -0.0550
    3OL     H6R13498   1.284   5.765   2.392  0.4344 -0.5203 -0.2774
    3OL     H6S13499   1.172   5.653   2.326  1.1081  0.7038 -2.0493
    3OL     C1713500   1.100   5.754   2.499 -0.2671 -0.1843 -0.4019
    3OL     H7R13501   0.993   5.761   2.484 -0.2668 -1.3311 -1.0642
    3OL     H7S13502   1.132   5.839   2.559 -1.9488  1.4140 -1.6810
    3OL     C1813503   1.140   5.625   2.573  0.1941  0.1861  0.0030
    3OL     H8R13504   1.248   5.630   2.583  0.3306 -0.8668 -0.8567
    3OL     H8S13505   1.114   5.540   2.511  1.3107  2.1406 -3.3758
    3OL     C1913506   1.071   5.626   2.708 -0.0044  0.2586 -0.0985
    3OL     H9R13507   0.999   5.706   2.726  1.7071  1.8674 -0.0573
    3OL    C11013508   1.065   5.530   2.798 -0.3825 -0.2571 -0.6727
    3OL    H10R13509   0.999   5.554   2.881  0.9686  2.3606 -0.2739
    3OL    C11113510   1.156   5.411   2.809 -0.9767 -0.6414  0.2044
    3OL    H11R13511   1.258   5.450   2.811 -0.3282 -2.2067  2.3683
    3OL    H11S13512   1.140   5.344   2.725 -0.2061 -2.7643  1.6375
    3OL    C11213513   1.139   5.332   2.940 -0.2894 -0.4458  0.4155
    3OL    H12R13514   1.047   5.275   2.933 -1.3475  1.0479  1.4832
    3OL    H12S13515   1.133   5.395   3.029 -0.5438  2.1430 -1.3246
    3OL    C11313516   1.250   5.229   2.968  0.3195  0.1905  0.3818
    3OL    H13R13517   1.350   5.272   2.967 -0.0377  1.0665 -1.0718
    3OL    H13S13518   1.247   5.165   2.879 -2.3177  2.2357 -1.1592
    3OL    C11413519   1.232   5.146   3.096 -0.3033  0.1330  0.2590
    3OL    H14R13520   1.132   5.101   3.094 -2.3796  4.2743 -0.8968
    3OL    H14S13521   1.224   5.213   3.182  0.6564  0.9221 -0.2402
    3OL    C11513522   1.347   5.050   3.129 -0.3683 -0.0510 -0.0382
    3OL    H15R13523   1.438   5.106   3.108 -1.3458  0.5234 -3.1713
    3OL    H15S13524   1.353   4.961   3.067  1.5550  0.3301 -0.4638
    3OL    C11613525   1.333   5.003   3.275 -0.1312 -0.1955 -0.0616
    3OL    H16R13526   1.237   4.951   3.283 -0.4948  0.2785 -1.0769
    3OL    H16S13527   1.330   5.092   3.338 -0.1961  0.9375 -1.5868
    3OL    C11713528   1.447   4.913   3.323  0.4042  0.1884 -0.6039
    3OL    H17R13529   1.442   4.923   3.431 -0.6583  0.3114 -0.6538
    3OL    H17S13530   1.543   4.946   3.282  1.6462  1.3884  2.8699
    3OL    C11813531   1.413   4.766   3.295 -0.4761  0.1759  0.4909
    3OL    H18R13532   1.497   4.704   3.329 -1.2039 -0.5715  0.9623
    3OL    H18S13533   1.405   4.747   3.188 -2.6010  0.9771  0.4633
    3OL    H18T13534   1.319   4.730   3.338  0.3014 -0.8309  1.4117
    1PA    C11613535   3.861   1.608   3.749  0.6742  0.2746 -0.7317
    1PA    H16R13536   3.947   1.554   3.790  0.7467  1.4135  0.7097
    1PA    H16S13537   3.793   1.534   3.708 -0.2005  1.6347 -1.8144
    1PA    H16T13538   3.815   1.660   3.833 -1.4318 -1.7018 -0.5468
    1PA    C11513539   3.892   1.707   3.636 -0.0210  0.1837 -1.0079
    1PA    H15R13540   3.964   1.667   3.563  0.1082  0.2244 -0.9039
    1PA    H15S13541   3.794   1.736   3.598  0.1196  1.6806 -0.2808
    1PA    C11413542   3.975   1.822   3.695 -0.1350 -0.2689  0.0534
    1PA    H14R13543   3.908   1.856   3.773 -2.1636 -3.5374 -0.0624
    1PA    H14S13544   4.071   1.783   3.732 -0.6085 -2.7212 -1.0799
    1PA    C11313545   3.994   1.931   3.589  0.3373 -0.5850 -0.1925
    1PA    H13R13546   4.040   1.898   3.496 -0.7774  0.3720 -1.1201
    1PA    H13S13547   3.899   1.975   3.559 -0.3978 -0.5371  1.9924
    1PA    C11213548   4.076   2.046   3.648 -0.0737 -0.0946 -0.5658
    1PA    H12R13549   4.021   2.099   3.726  1.3543 -0.1139  0.5078
    1PA    H12S13550   4.173   2.021   3.691 -0.3232  0.7160  0.5256
    1PA    C11113551   4.109   2.149   3.539 -0.0350  0.0317 -0.4352
    1PA    H11R13552   4.160   2.093   3.462 -1.6643 -2.2125  0.0112
    1PA    H11S13553   4.016   2.187   3.494 -0.6747 -1.2811 -0.2694
    1PA    C11013554   4.191   2.267   3.593  0.6424 -0.5765 -0.1201
    1PA    H10R13555   4.128   2.317   3.667 -0.1492 -0.3557 -0.9327
    1PA    H10S13556   4.273   2.228   3.653  1.6181 -0.2337 -1.1970
    1PA     C1913557   4.238   2.364   3.483 -0.1140  0.2531  0.2759
    1PA     H9R13558   4.158   2.409   3.423 -1.3510 -2.4680 -0.2788
    1PA     H9S13559   4.275   2.452   3.536 -1.0162  0.4134  0.6571
    1PA     C1813560   4.349   2.301   3.399 -0.0113  0.0636  0.5520
    1PA     H8R13561   4.423   2.244   3.455 -1.5225 -1.9978  0.5803
    1PA     H8S13562   4.301   2.236   3.325  1.2049  2.5120 -2.6454
    1PA     C1713563   4.424   2.409   3.320 -0.2873 -0.2838 -0.2029
    1PA     H7R13564   4.460   2.494   3.379  2.2270 -0.8566 -0.7972
    1PA     H7S13565   4.505   2.357   3.270 -1.0036 -0.9932 -0.6443
    1PA     C1613566   4.327   2.464   3.214 -0.3966  0.5431  0.3100
    1PA     H6R13567   4.295   2.377   3.155 -2.1018 -0.6061  2.7286
    1PA     H6S13568   4.233   2.508   3.250 -2.2201 -1.7030 -1.3640
    1PA     C1513569   4.393   2.571   3.127  0.0066  0.1843  0.1708
    1PA     H5R13570   4.411   2.663   3.184  0.1698  1.9478 -2.5458
    1PA     H5S13571   4.486   2.525   3.093 -1.7092 -4.7513  1.2662
    1PA     C1413572   4.309   2.610   3.005  0.0023 -0.0971  0.0830
    1PA     H4R13573   4.289   2.521   2.945 -1.0888  0.8993 -1.0947
    1PA     H4S13574   4.216   2.661   3.033  0.4981  0.9796 -0.1820
    1PA     C1313575   4.374   2.715   2.914 -0.0975 -0.2704 -0.1885
    1PA     H3R13576   4.377   2.815   2.956 -1.1028 -0.4115  0.2411
    1PA     H3S13577   4.476   2.684   2.892 -0.2983  0.4457 -2.3916
    1PA     C1213578   4.284   2.722   2.789 -0.0475 -0.1445 -0.2175
    1PA     H2R13579   4.277   2.622   2.745  1.1058  0.0870 -0.9706
    1PA     H2S13580   4.185   2.758   2.816 -0.1387 -0.2095 -0.4687
    2PC     C1113581   4.341   2.812   2.683 -0.3378  0.3175  0.0179
    2PC     O1213582   4.455   2.854   2.678 -0.3569  0.3707  0.0331
    2PC     O1113583   4.249   2.841   2.589 -0.4287  0.3490  0.1169
    2PC      C113584   4.292   2.911   2.471 -0.3568  0.4861  0.2230
    2PC      HR13585   4.328   3.009   2.501  0.0818  0.1247  0.9005
    2PC      HS13586   4.372   2.849   2.430 -0.4005  0.7376 -0.2494
    2PC      C213587   4.174   2.931   2.375 -0.1630  0.2258 -0.0729
    2PC      HX13588   4.115   2.840   2.364  0.9662 -0.6558  0.9992
    2PC      C313589   4.218   2.972   2.233 -0.2333 -0.0229 -0.1669
    2PC      HA13590   4.268   3.069   2.237  1.1586 -0.7557  2.5015
    2PC      HB13591   4.279   2.896   2.185 -0.3659  0.7442 -1.5959
    2PC     O3113592   4.103   2.983   2.148 -0.0394 -0.3067 -0.4658
    2PC     P3113593   4.127   3.048   2.003 -0.0471 -0.0673 -0.3599
    2PC     O3213594   4.102   3.203   2.034 -0.1369 -0.1635  0.0660
    2PC     C3113595   3.968   3.245   2.063 -0.1481  0.0858 -0.3362
    2PC     H1A13596   3.894   3.221   1.986 -2.0675  0.8023  1.2114
    2PC     H1B13597   3.941   3.196   2.157 -0.5136  0.5643 -0.1894
    2PC     C3213598   3.987   3.396   2.079  0.5195 -0.0150 -0.1647
    2PC     H2A13599   4.095   3.410   2.077  0.7859 -1.3873 -4.5063
    2PC     H2B13600   3.955   3.446   1.988  0.1355 -0.3456 -0.2148
    2PC     N3113601   3.921   3.468   2.192  0.1553 -0.1967 -0.2592
    2PC     C3313602   4.000   3.445   2.318  0.2058  0.1707 -0.2224
    2PC     H3A13603   4.107   3.465   2.312  0.9059 -3.2766 -1.1786
    2PC     H3B13604   3.949   3.505   2.394 -0.9473  1.1662 -1.7123
    2PC     H3C13605   3.988   3.339   2.338 -0.2394  0.1689 -0.4935
    2PC     C3413606   3.915   3.615   2.164  0.6732 -0.1927 -0.3586
    2PC     H4A13607   4.018   3.649   2.153  0.8383 -0.7814 -0.6930
    2PC     H4B13608   3.850   3.623   2.076 -1.6649 -0.5851  1.2430
    2PC     H4C13609   3.865   3.673   2.242  1.5447 -0.2289  0.2377
    2PC     C3513610   3.777   3.435   2.216  0.1154  0.2964  0.2271
    2PC     H5A13611   3.775   3.329   2.188 -0.0010  0.3333  0.0941
    2PC     H5B13612   3.705   3.488   2.154 -1.0985  0.0379  1.3767
    2PC     H5C13613   3.757   3.458   2.321  1.6831  1.5082  0.2969
    2PC     O3313614   4.267   3.024   1.960  0.0614 -0.1571  0.0307
    2PC     O3413615   4.030   2.996   1.904 -0.1286  0.3614 -0.5057
    2PC     O2113616   4.096   3.039   2.430 -0.1561  0.1592  0.0677
    2PC     C2113617   3.973   3.012   2.476 -0.1310  0.3550  0.2470
    2PC     O2213618   3.926   2.901   2.482  0.5350  0.0671  0.1982
    3OL     C1213619   3.905   3.131   2.540 -0.0865  0.2809  0.4334
    3OL     H2R13620   3.976   3.210   2.514  0.0884 -0.0470 -0.1061
    3OL     H2S13621   3.895   3.122   2.648  1.7609  2.2523  0.8490
    3OL     C1313622   3.764   3.157   2.487  0.0306  0.4242  0.1889
    3OL     H3R13623   3.694   3.078   2.515  1.5442 -0.3286  2.0097
    3OL     H3S13624   3.780   3.163   2.379 -0.5265  0.9521  0.1279
    3OL     C1413625   3.708   3.290   2.539 -0.8743  0.1525 -0.0572
    3OL     H4R13626   3.618   3.312   2.481 -1.3663 -3.1204 -0.7096
    3OL     H4S13627   3.780   3.371   2.524 -1.5460  0.4007 -2.3762
    3OL     C1513628   3.674   3.284   2.689 -0.0922  0.2190  0.1280
    3OL     H5R13629   3.759   3.247   2.747 -2.3268  0.0823  3.5851
    3OL     H5S13630   3.603   3.205   2.710  2.9806 -2.2770  1.9773
    3OL     C1613631   3.615   3.413   2.748  0.0132  0.4792 -0.3226
    3OL     H6R13632   3.577   3.386   2.847  0.0326 -1.1291 -0.7338
    3OL     H6S13633   3.536   3.449   2.683 -0.2096 -0.0842 -0.3679
    3OL     C1713634   3.713   3.531   2.751  0.6618 -0.0458 -0.6129
    3OL     H7R13635   3.651   3.607   2.799 -2.7092 -1.3405 -2.5702
    3OL     H7S13636   3.747   3.561   2.652 -3.1176 -2.0632 -2.7094
    3OL     C1813637   3.830   3.499   2.846 -0.0648 -0.0866  0.2848
    3OL     H8R13638   3.785   3.438   2.925 -0.6102  1.0406  0.8605
    3OL     H8S13639   3.864   3.588   2.899 -0.0813  0.0055  0.1406
    3OL     C1913640   3.957   3.445   2.784 -0.0614 -0.0173  0.2323
    3OL     H9R13641   3.995   3.510   2.705 -1.1470  1.2318  0.7000
    3OL    C11013642   4.025   3.336   2.816  0.5367  0.1845 -0.3237
    3OL    H10R13643   4.119   3.316   2.766  1.5888  0.9035  1.2713
    3OL    C11113644   3.991   3.234   2.922  0.2634  0.4927 -0.1086
    3OL    H11R13645   3.994   3.135   2.876 -1.3446  0.4825 -0.2430
    3OL    H11S13646   3.889   3.238   2.959  0.1488  0.9446 -0.4663
    3OL    C11213647   4.083   3.238   3.045  0.0744  0.3503  0.0369
    3OL    H12R13648   4.068   3.151   3.109 -2.0403 -0.0602 -0.9214
    3OL    H12S13649   4.067   3.329   3.103 -0.3862 -0.5351  1.3410
    3OL    C11313650   4.232   3.245   3.009  0.1977  0.1933  0.5048
    3OL    H13R13651   4.287   3.278   3.097  1.7270  0.6550 -0.5866
    3OL    H13S13652   4.240   3.316   2.926 -3.8082  2.0844  1.4976
    3OL    C11413653   4.295   3.110   2.971  0.0769  0.3052 -0.1074
    3OL    H14R13654   4.241   3.076   2.882 -0.5144  0.5574  0.1497
    3OL    H14S13655   4.269   3.036   3.046 -2.7162  2.1524  0.9256
    3OL    C11513656   4.446   3.111   2.941  0.0609 -0.3555 -0.2046
    3OL    H15R13657   4.468   3.195   2.875 -1.6000  0.9482  0.8302
    3OL    H15S13658   4.481   3.018   2.895 -1.0071 -0.2104 -1.3738
    3OL    C11613659   4.539   3.138   3.060 -0.1728  0.1664 -0.1394
    3OL    H16R13660   4.532   3.064   3.140  0.9153 -0.0474 -0.2261
    3OL    H16S13661   4.514   3.227   3.118  0.9201 -0.8335  1.9986
    3OL    C11713662   4.683   3.140   3.008 -0.1170  0.2911  0.0200
    3OL    H17R13663   4.692   3.204   2.919 -1.1163 -2.1413 -1.9590
    3OL    H17S13664   4.714   3.043   2.969  2.0635  0.7072  0.5694
    3OL    C11813665   4.791   3.198   3.101  0.0392 -0.2371  0.1694
    3OL    H18R13666   4.893   3.179   3.067  0.2375  1.5606 -0.3673
    3OL    H18S13667   4.780   3.142   3.194  0.6985 -1.7388 -0.6154
    3OL    H18T13668   4.773   3.303   3.126  1.0426 -0.5615  2.5141
    1PA    C11613669   4.294   1.549   3.414  0.2172 -0.0942 -0.3668
    1PA    H16R13670   4.265   1.443   3.410 -1.1273  0.2680 -0.6285
    1PA    H16S13671   4.231   1.590   3.492 -0.1075 -0.3301 -0.5008
    1PA    H16T13672   4.397   1.560   3.448 -0.5453  2.1464  1.3933
    1PA    C11513673   4.264   1.614   3.278  0.0561  0.0372 -0.2673
    1PA    H15R13674   4.300   1.545   3.202 -2.2997 -1.5929 -0.0227
    1PA    H15S13675   4.155   1.620   3.267  0.2138 -0.3413 -2.3347
    1PA    C11413676   4.321   1.757   3.276  0.1800 -0.0102 -0.1354
    1PA    H14R13677   4.268   1.817   3.349  0.7632 -1.1316  1.2496
    1PA    H14S13678   4.422   1.757   3.316 -0.4397 -0.0130  1.4807
    1PA    C11313679   4.330   1.808   3.131  0.2421 -0.1858 -0.1936
    1PA    H13R13680   4.370   1.732   3.064  0.1937  0.0033 -0.4367
    1PA    H13S13681   4.235   1.838   3.087  0.4048  0.0205 -0.4037
    1PA    C11213682   4.424   1.929   3.137 -0.2216  0.1764 -0.2107
    1PA    H12R13683   4.387   1.996   3.060  1.2571  0.7484 -0.4526
    1PA    H12S13684   4.406   1.985   3.230  0.1475 -3.3105  2.1577
    1PA    C11113685   4.573   1.900   3.118 -0.1640  0.3487 -0.0335
    1PA    H11R13686   4.600   1.844   3.208  0.0459 -2.6795 -1.8212
    1PA    H11S13687   4.582   1.838   3.028 -1.1051  0.6317 -0.3316
    1PA    C11013688   4.647   2.032   3.097 -0.1566  0.2552 -0.6197
    1PA    H10R13689   4.606   2.083   3.009 -0.0686 -0.6499 -1.1995
    1PA    H10S13690   4.623   2.086   3.189 -1.8508 -1.6572  0.1335
    1PA     C1913691   4.795   1.993   3.080 -0.1123  0.1863 -0.0851
    1PA     H9R13692   4.831   1.927   3.159  0.8886 -1.9947 -2.2435
    1PA     H9S13693   4.803   1.931   2.991 -1.0487 -1.6415  1.0463
    1PA     C1813694   4.890   2.113   3.064  0.2177  0.0047  0.4892
    1PA     H8R13695   4.861   2.165   2.973  2.0162  1.2183  0.5749
    1PA     H8S13696   4.885   2.182   3.149 -2.7042 -1.9781  2.1179
    1PA     C1713697   5.035   2.071   3.040  0.1296  0.2201 -0.4369
    1PA     H7R13698   5.067   1.986   3.100  2.7781  0.4864 -1.3165
    1PA     H7S13699   5.043   2.033   2.938 -1.2608  1.7152 -1.1512
    1PA     C1613700   5.139   2.181   3.062  0.2630 -0.0093  0.0813
    1PA     H6R13701   5.128   2.216   3.165 -0.8270 -2.4352  0.8585
    1PA     H6S13702   5.243   2.149   3.050  1.0617  2.5344 -0.3804
    1PA     C1513703   5.125   2.302   2.969 -0.1397 -0.1140  0.0087
    1PA     H5R13704   5.115   2.267   2.866 -2.1384 -0.1376  0.1621
    1PA     H5S13705   5.039   2.366   2.991  1.2535  1.9378 -0.2497
    1PA     C1413706   5.249   2.390   2.988  0.1029 -0.4009 -0.2373
    1PA     H4R13707   5.238   2.451   3.078 -0.3519 -1.2636  0.3040
    1PA     H4S13708   5.345   2.338   2.994 -0.3415 -1.1420  1.1727
    1PA     C1313709   5.252   2.498   2.880 -0.1727  0.2021  0.3469
    1PA     H3R13710   5.248   2.459   2.777  2.4000 -1.7004  0.8526
    1PA     H3S13711   5.172   2.569   2.901  0.6106  1.2964 -0.3092
    1PA     C1213712   5.387   2.570   2.888 -0.2218  0.3859 -0.3819
    1PA     H2R13713   5.393   2.641   2.970 -2.1018  1.9438 -1.5337
    1PA     H2S13714   5.477   2.509   2.904  0.6294  1.2729 -1.5678
    2PC     C1113715   5.403   2.659   2.767 -0.1835  0.3609 -0.3952
    2PC     O1213716   5.318   2.675   2.682 -0.5033  0.2070 -0.1057
    2PC     O1113717   5.519   2.727   2.769 -0.1531  0.3045 -0.0283
    2PC      C113718   5.569   2.792   2.650  0.0312  0.3527  0.0762
    2PC      HR13719   5.489   2.834   2.589  0.5718 -0.1825 -1.0316
    2PC      HS13720   5.636   2.874   2.678  0.7553 -0.3884  0.5809
    2PC      C213721   5.657   2.691   2.575 -0.5614 -0.0886 -0.0343
    2PC      HX13722   5.734   2.667   2.649  0.0840  0.6785 -0.4298
    2PC      C313723   5.723   2.732   2.442 -0.1587 -0.1899  0.1308
    2PC      HA13724   5.791   2.816   2.459 -2.3099  2.1751 -2.0898
    2PC      HB13725   5.785   2.651   2.404 -2.2539 -2.2761  0.8747
    2PC     O3113726   5.632   2.758   2.333 -0.1024  0.1761  0.1702
    2PC     P3113727   5.628   2.660   2.206  0.1585  0.4747 -0.0708
    2PC     O3213728   5.524   2.555   2.268  0.3813  0.5048  0.3618
    2PC     C3113729   5.384   2.587   2.266  0.2230 -0.2033 -0.0922
    2PC     H1A13730   5.324   2.550   2.351 -0.8673 -1.6035 -1.4149
    2PC     H1B13731   5.380   2.696   2.259 -0.0201 -0.3283 -3.2143
    2PC     C3213732   5.323   2.532   2.136 -0.0111  0.5147 -0.2886
    2PC     H2A13733   5.215   2.544   2.127 -0.4265 -1.8124  0.8189
    2PC     H2B13734   5.363   2.584   2.049 -1.0837  0.4845 -0.8127
    2PC     N3113735   5.334   2.388   2.095 -0.1258  0.2978  0.4315
    2PC     C3313736   5.479   2.356   2.076 -0.1731 -0.0553  0.6704
    2PC     H3A13737   5.542   2.363   2.165 -0.9581 -2.4778  1.5136
    2PC     H3B13738   5.485   2.252   2.042  1.0770  0.0924  0.3908
    2PC     H3C13739   5.513   2.421   1.996  1.1620 -1.4230  0.0654
    2PC     C3413740   5.273   2.286   2.187  0.4492 -0.4520 -0.0113
    2PC     H4A13741   5.291   2.186   2.149 -0.6215 -2.0089  3.2269
    2PC     H4B13742   5.321   2.297   2.284 -0.7346 -0.8180  0.6295
    2PC     H4C13743   5.165   2.301   2.182  0.5802  0.8413  0.4428
    2PC     C3513744   5.272   2.372   1.960 -0.5555  1.1691  0.5147
    2PC     H5A13745   5.338   2.428   1.895  1.5746 -3.1370 -1.4507
    2PC     H5B13746   5.164   2.391   1.964 -1.5204 -2.8423 -1.3606
    2PC     H5C13747   5.283   2.269   1.926  1.5600  2.0480 -1.7166
    2PC     O3313748   5.558   2.722   2.091  0.0318  0.2870 -0.0942
    2PC     O3413749   5.753   2.594   2.163 -0.1835 -0.0901 -0.1958
    2PC     O2113750   5.568   2.580   2.558 -0.5494 -0.1305  0.1685
    2PC     C2113751   5.621   2.459   2.536  0.0631  0.2045 -0.2285
    2PC     O2213752   5.740   2.435   2.524 -0.0127 -0.1836 -0.2376
    3OL     C1213753   5.520   2.347   2.531  0.5932 -0.3278  0.6592
    3OL     H2R13754   5.542   2.292   2.440  0.4812  0.5561  0.0843
    3OL     H2S13755   5.420   2.392   2.530  1.0705  0.8713  2.2784
    3OL     C1313756   5.525   2.261   2.658  0.1472 -0.2170  0.7536
    3OL     H3R13757   5.518   2.330   2.742  1.4314  0.2066  0.5253
    3OL     H3S13758   5.621   2.211   2.654  1.0026  1.3994 -2.8272
    3OL     C1413759   5.408   2.161   2.656 -0.2194  0.2196 -0.2431
    3OL     H4R13760   5.388   2.115   2.559 -2.1145 -0.9279  0.6283
    3OL     H4S13761   5.316   2.217   2.674  0.2181  0.5847  0.9569
    3OL     C1513762   5.413   2.059   2.771 -0.2003  0.3661 -0.1137
    3OL     H5R13763   5.320   2.002   2.767  0.3446 -0.7418  2.0412
    3OL     H5S13764   5.414   2.108   2.868 -1.7857  0.9977 -0.3781
    3OL     C1613765   5.512   1.942   2.762 -0.3533  0.2361 -0.1175
    3OL     H6R13766   5.615   1.979   2.776 -0.2504  0.1374 -0.5912
    3OL     H6S13767   5.498   1.906   2.660 -0.9043  1.7661 -0.6180
    3OL     C1713768   5.485   1.822   2.853  1.0784  0.1202  0.1817
    3OL     H7R13769   5.406   1.760   2.811  0.8563  0.8266 -0.4747
    3OL     H7S13770   5.456   1.860   2.951  0.1006 -1.5750  0.5837
    3OL     C1813771   5.607   1.729   2.848  0.4405 -0.7116 -0.3058
    3OL     H8R13772   5.695   1.792   2.864 -1.9261  2.7422  0.2265
    3OL     H8S13773   5.618   1.692   2.746 -0.8109 -1.3489 -0.2235
    3OL     C1913774   5.598   1.604   2.932  0.2318 -0.4052  0.1342
    3OL     H9R13775   5.568   1.515   2.877  1.8334 -0.7337 -0.2598
    3OL    C11013776   5.635   1.584   3.057 -0.1633  0.2230  0.3597
    3OL    H10R13777   5.609   1.487   3.100 -0.2027  0.2706  0.4429
    3OL    C11113778   5.697   1.686   3.149 -0.0264  0.4276  0.0434
    3OL    H11R13779   5.738   1.770   3.094 -0.0601  1.6228  1.7811
    3OL    H11S13780   5.787   1.641   3.192  0.8034  0.0096 -2.0513
    3OL    C11213781   5.608   1.735   3.265  0.0866  0.5930  0.0600
    3OL    H12R13782   5.651   1.819   3.320 -2.9626  1.5777  1.1196
    3OL    H12S13783   5.599   1.654   3.337  0.2279 -0.4042 -1.0040
    3OL    C11313784   5.468   1.780   3.222 -0.0311 -0.2453 -0.4574
    3OL    H13R13785   5.426   1.694   3.169  1.4825 -1.1036 -0.3295
    3OL    H13S13786   5.469   1.862   3.151  0.4344 -0.4306 -0.6673
    3OL    C11413787   5.389   1.809   3.350 -0.2778 -0.0479 -0.6536
    3OL    H14R13788   5.458   1.864   3.413  0.7872 -2.1810  0.1572
    3OL    H14S13789   5.375   1.719   3.412  1.5637  0.1434  0.0982
    3OL    C11513790   5.259   1.886   3.320 -0.0886  0.3014 -0.5770
    3OL    H15R13791   5.207   1.823   3.248 -0.3379 -1.6388  1.1756
    3OL    H15S13792   5.289   1.981   3.277  0.0746  0.5585  0.0925
    3OL    C11613793   5.170   1.917   3.441 -0.0173  0.0796 -0.4674
    3OL    H16R13794   5.223   1.976   3.515  2.7353 -3.0384  0.3134
    3OL    H16S13795   5.143   1.828   3.500 -2.3722 -0.5770 -2.3786
    3OL    C11713796   5.038   1.979   3.395 -0.4073 -0.7913 -0.5584
    3OL    H17R13797   4.997   1.935   3.304 -1.5615 -1.8618  0.4444
    3OL    H17S13798   5.056   2.084   3.367  0.4141 -1.3406 -2.2251
    3OL    C11813799   4.935   1.967   3.508  0.0307  0.3940 -0.0090
    3OL    H18R13800   4.922   1.859   3.524  3.9628 -0.0256  1.2807
    3OL    H18S13801   4.842   2.013   3.473 -0.1631 -0.5641 -0.8124
    3OL    H18T13802   4.973   2.004   3.603  1.2026 -1.6403  0.3695
    1PA    C11613803   2.190   4.994   3.010 -0.5552 -0.0092 -0.2447
    1PA    H16R13804   2.217   5.022   2.908  1.2200  0.6839  0.3741
    1PA    H16S13805   2.188   5.089   3.065 -0.3185 -0.3013  0.2747
    1PA    H16T13806   2.090   4.950   3.000 -1.3361  1.3060  1.1921
    1PA    C11513807   2.293   4.895   3.064 -0.5191  0.3296  0.3167
    1PA    H15R13808   2.389   4.947   3.059 -0.7520  0.6474 -2.5725
    1PA    H15S13809   2.277   4.865   3.168 -0.4872 -0.8966 -0.0169
    1PA    C11413810   2.298   4.772   2.972  0.1590  0.1444  0.5956
    1PA    H14R13811   2.195   4.737   2.970 -0.3438  1.5742 -1.6333
    1PA    H14S13812   2.333   4.786   2.870  0.8552 -1.0408  0.6425
    1PA    C11313813   2.390   4.673   3.047  0.7059 -0.0191 -0.2734
    1PA    H13R13814   2.480   4.722   3.083 -1.1724  1.6892  2.5128
    1PA    H13S13815   2.339   4.638   3.137 -2.2357  2.1367 -0.9286
    1PA    C11213816   2.408   4.547   2.962 -0.3299 -0.3710  0.0154
    1PA    H12R13817   2.309   4.501   2.954 -0.1612 -0.7935  0.3636
    1PA    H12S13818   2.440   4.576   2.862  3.3953  1.4031  1.5550
    1PA    C11113819   2.502   4.453   3.039  0.9224  0.2532 -0.7257
    1PA    H11R13820   2.596   4.505   3.060 -0.0496  1.5159  0.6890
    1PA    H11S13821   2.453   4.421   3.131  0.9533  0.6570 -0.5677
    1PA    C11013822   2.548   4.336   2.950  0.3019 -0.2780 -0.3546
    1PA    H10R13823   2.464   4.275   2.916 -0.8637  0.3934  1.1579
    1PA    H10S13824   2.582   4.375   2.854 -3.0089  1.4688 -0.9692
    1PA     C1913825   2.643   4.242   3.025 -0.1976  0.0542  0.7251
    1PA     H9R13826   2.684   4.300   3.108  0.1175 -0.2247  0.7686
    1PA     H9S13827   2.591   4.158   3.070  0.5291 -0.3306  0.8710
    1PA     C1813828   2.762   4.209   2.933 -0.1476  0.7031  0.5527
    1PA     H8R13829   2.793   4.296   2.875 -1.9703  1.5125  0.7168
    1PA     H8S13830   2.846   4.184   2.997  1.0685  1.2611 -0.7606
    1PA     C1713831   2.735   4.088   2.843  0.5294  0.3260  0.8547
    1PA     H7R13832   2.700   4.005   2.905  1.8372 -0.7360  0.2168
    1PA     H7S13833   2.662   4.109   2.764  2.1076  4.3867  0.2582
    1PA     C1613834   2.874   4.056   2.787  0.4746  0.4302  0.6590
    1PA     H6R13835   2.908   4.146   2.736  0.7995  1.1958  2.1884
    1PA     H6S13836   2.928   4.033   2.879 -0.9568  0.0587  1.4405
    1PA     C1513837   2.865   3.936   2.691  0.6772  0.4897  0.5655
    1PA     H5R13838   2.856   3.845   2.752 -1.8313  0.6725  0.5763
    1PA     H5S13839   2.785   3.948   2.618  0.3494 -2.0357  0.4035
    1PA     C1413840   3.003   3.919   2.625  0.7000 -0.5545  0.8580
    1PA     H4R13841   3.028   4.009   2.568 -1.9503 -1.4813 -2.0552
    1PA     H4S13842   3.084   3.894   2.694  1.8876 -2.9106 -1.2334
    1PA     C1313843   3.012   3.796   2.534  0.0115 -0.1848  0.2695
    1PA     H3R13844   3.114   3.780   2.498  0.4001  1.1400  0.7349
    1PA     H3S13845   2.995   3.707   2.595  1.3577 -1.0393 -0.5446
    1PA     C1213846   2.920   3.797   2.412  0.2480  0.2509  0.0934
    1PA     H2R13847   2.919   3.695   2.373  0.9593 -0.2720  1.3821
    1PA     H2S13848   2.818   3.819   2.443 -0.2620  0.3825 -1.5698
    2PC     C1113849   2.973   3.887   2.303  0.1061 -0.1459 -0.3054
    2PC     O1213850   3.074   3.952   2.319  0.2170 -0.4292  0.1593
    2PC     O1113851   2.910   3.871   2.185 -0.4244  0.1848 -0.0717
    2PC      C113852   2.924   3.965   2.077 -0.5761  0.3204  0.0263
    2PC      HR13853   2.831   4.021   2.065 -0.1072  1.4937  1.5799
    2PC      HS13854   3.014   4.028   2.076  0.4287 -1.0383  0.5431
    2PC      C213855   2.946   3.884   1.948 -0.0566  0.2197  0.1741
    2PC      HX13856   3.026   3.815   1.977 -1.3750 -1.2679  0.4360
    2PC      C313857   3.007   3.959   1.829 -0.6208  0.2056 -0.1279
    2PC      HA13858   2.938   4.027   1.779  1.4519  1.4522 -1.4592
    2PC      HB13859   3.092   4.020   1.861 -0.6105  1.1743 -1.8867
    2PC     O3113860   3.045   3.853   1.740 -0.3503  0.5926 -0.4765
    2PC     P3113861   3.149   3.885   1.622  0.1002  0.0127 -0.2457
    2PC     O3213862   3.055   3.922   1.497 -0.1884 -0.4588 -0.1684
    2PC     C3113863   3.112   3.950   1.368  0.4677  0.0535  0.2285
    2PC     H1A13864   3.151   4.052   1.366  1.0880 -0.1890 -1.5228
    2PC     H1B13865   3.183   3.872   1.340 -0.1887 -0.4658 -0.0148
    2PC     C3213866   3.004   3.943   1.260  0.6327  0.1829  0.0556
    2PC     H2A13867   3.048   3.935   1.160  1.4898  0.0687  0.4348
    2PC     H2B13868   2.939   3.857   1.279 -3.1914  2.5157 -1.2649
    2PC     N3113869   2.916   4.064   1.251 -0.1714 -0.3598  0.5495
    2PC     C3313870   2.860   4.094   1.387  0.5021 -0.1957  0.7948
    2PC     H3A13871   2.790   4.178   1.381  1.4883  0.6772  1.2063
    2PC     H3B13872   2.817   4.007   1.436 -1.2793 -0.4076 -1.0145
    2PC     H3C13873   2.943   4.141   1.441  1.2874 -0.4118 -0.1994
    2PC     C3413874   2.986   4.187   1.204 -0.2441 -0.3124  0.5646
    2PC     H4A13875   2.974   4.180   1.095 -0.6635 -2.2329  0.7038
    2PC     H4B13876   2.934   4.273   1.247  0.7946  1.2477 -1.1048
    2PC     H4C13877   3.092   4.198   1.227  0.3958 -2.7048 -0.8894
    2PC     C3513878   2.798   4.033   1.164 -0.1336  0.1673  0.3136
    2PC     H5A13879   2.739   4.124   1.147 -2.9756 -1.7298 -0.7307
    2PC     H5B13880   2.735   3.961   1.215 -0.4890  0.0963 -0.2195
    2PC     H5C13881   2.840   4.002   1.068  0.3275 -1.3798  0.9914
    2PC     O3313882   3.247   3.993   1.651 -0.4631  0.4679 -0.0122
    2PC     O3413883   3.231   3.766   1.592  0.0866 -0.0898  0.1182
    2PC     O2113884   2.829   3.811   1.908 -0.0835 -0.0738  0.7680
    2PC     C2113885   2.821   3.677   1.913 -0.1828 -0.1046 -0.0575
    2PC     O2213886   2.912   3.604   1.946 -0.2486 -0.3261 -0.3535
    3OL     C1213887   2.683   3.629   1.875  0.0761 -0.1078 -1.0140
    3OL     H2R13888   2.682   3.600   1.769  0.9363 -2.4372 -0.4496
    3OL     H2S13889   2.615   3.711   1.897  2.3199  1.4295  0.6721
    3OL     C1313890   2.644   3.509   1.962 -0.2186  0.5932 -0.1689
    3OL     H3R13891   2.710   3.426   1.936 -1.1093  0.3455 -1.7967
    3OL     H3S13892   2.546   3.465   1.944  1.2152 -2.1705 -1.8068
    3OL     C1413893   2.657   3.543   2.111  0.1917 -0.4633  0.0460
    3OL     H4R13894   2.588   3.626   2.130 -2.8139 -2.5384 -1.0355
    3OL     H4S13895   2.753   3.588   2.136  0.5145 -1.2825  0.3012
    3OL     C1513896   2.631   3.429   2.211 -0.0024 -0.1593  0.3451
    3OL     H5R13897   2.704   3.351   2.190  0.2884  0.4449 -1.0401
    3OL     H5S13898   2.532   3.385   2.196  0.5888 -1.2138 -0.6146
    3OL     C1613899   2.665   3.473   2.354  0.1004  0.0447  0.2590
    3OL     H6R13900   2.628   3.574   2.373 -1.3975 -0.2099 -1.0773
    3OL     H6S13901   2.773   3.483   2.358 -0.1023  2.7858  0.6064
    3OL     C1713902   2.618   3.379   2.466  0.0318  0.1846  0.3480
    3OL     H7R13903   2.639   3.277   2.432  1.2843  0.7443 -0.6283
    3OL     H7S13904   2.509   3.386   2.478  0.0582  1.4379 -0.0055
    3OL     C1813905   2.692   3.405   2.597  0.3215 -0.1979  0.2635
    3OL     H8R13906   2.801   3.395   2.591  0.5016  1.5104  0.0065
    3OL     H8S13907   2.649   3.330   2.664 -2.7882 -0.9401 -2.3148
    3OL     C1913908   2.675   3.550   2.637  0.2400 -0.2321  0.3531
    3OL     H9R13909   2.754   3.614   2.597 -0.1362 -1.4744 -2.6597
    3OL    C11013910   2.585   3.595   2.723 -0.1760  0.1509 -0.2778
    3OL    H10R13911   2.600   3.698   2.756  0.6618 -0.4884  1.4471
    3OL    C11113912   2.482   3.518   2.801 -0.2987  0.7190  0.1292
    3OL    H11R13913   2.494   3.413   2.773 -1.4638  0.4213  0.6898
    3OL    H11S13914   2.386   3.552   2.763  0.4006  0.5250 -1.9588
    3OL    C11213915   2.517   3.527   2.950  0.2782  0.1741  0.0313
    3OL    H12R13916   2.485   3.623   2.991 -1.9227 -1.4762  2.5232
    3OL    H12S13917   2.624   3.517   2.970  0.5218  1.6637 -0.3922
    3OL    C11313918   2.450   3.414   3.030  0.5151  0.8010  1.1415
    3OL    H13R13919   2.469   3.428   3.136 -1.3152  2.0225  1.3365
    3OL    H13S13920   2.484   3.314   3.000 -0.7774  0.7746 -0.3334
    3OL    C11413921   2.297   3.418   3.018  0.5624  0.2740  0.3037
    3OL    H14R13922   2.263   3.400   2.915  2.0124  1.5685 -0.4476
    3OL    H14S13923   2.278   3.518   3.057  0.4761  0.5387 -0.3957
    3OL    C11513924   2.223   3.315   3.104  0.3255  0.3627  0.2061
    3OL    H15R13925   2.254   3.214   3.075  0.7102  0.4536  0.3003
    3OL    H15S13926   2.114   3.317   3.093  0.3517  0.1248 -0.1305
    3OL    C11613927   2.263   3.324   3.251  0.7407  0.2455  0.1011
    3OL    H16R13928   2.255   3.427   3.284  0.0115 -0.0039  0.7270
    3OL    H16S13929   2.364   3.288   3.274  0.3127 -1.8114 -1.0103
    3OL    C11713930   2.175   3.234   3.339  0.4023  0.5464  0.0693
    3OL    H17R13931   2.186   3.129   3.310  0.5160  0.2824  1.0569
    3OL    H17S13932   2.067   3.243   3.321  0.4658  1.5669  0.1426
    3OL    C11813933   2.202   3.259   3.487 -0.3713  0.3540  0.2466
    3OL    H18R13934   2.175   3.363   3.510 -0.3803 -0.1078  2.6797
    3OL    H18S13935   2.304   3.244   3.522 -0.3187 -1.5064 -0.6090
    3OL    H18T13936   2.142   3.185   3.540  0.6011 -1.2746 -0.8622
    1PA    C11613937   4.624   2.743   3.476 -0.0514 -0.1554  0.5749
    1PA    H16R13938   4.733   2.743   3.463 -0.0974  0.6484  0.1098
    1PA    H16S13939   4.576   2.690   3.393 -1.8079 -1.3318  2.2660
    1PA    H16T13940   4.613   2.690   3.570 -1.1110 -1.7938 -0.4131
    1PA    C11513941   4.579   2.889   3.485  0.2395 -0.0357  0.1363
    1PA    H15R13942   4.624   2.950   3.564 -0.1578  1.1917 -0.5512
    1PA    H15S13943   4.619   2.940   3.396 -0.2336 -1.6750 -1.0556
    1PA    C11413944   4.429   2.905   3.509  0.2081  0.5124 -0.3975
    1PA    H14R13945   4.406   2.845   3.598  1.7323 -0.8709 -0.8911
    1PA    H14S13946   4.408   3.009   3.532 -1.2433 -0.1785  1.7460
    1PA    C11313947   4.346   2.864   3.386  0.3098  0.1047 -0.3349
    1PA    H13R13948   4.363   2.932   3.302  0.9210  1.0311  0.5164
    1PA    H13S13949   4.383   2.765   3.363 -0.4182 -0.1736 -0.3541
    1PA    C11213950   4.194   2.861   3.409  0.3359 -0.5058 -0.2456
    1PA    H12R13951   4.175   2.775   3.473  1.8195  0.0561  1.0225
    1PA    H12S13952   4.167   2.951   3.465  1.3482 -0.6569  0.5163
    1PA    C11113953   4.121   2.848   3.275  0.1107  0.4887 -0.2256
    1PA    H11R13954   4.131   2.948   3.232  0.5791  0.2474 -0.6835
    1PA    H11S13955   4.181   2.779   3.215  1.3372  1.6620 -0.4086
    1PA    C11013956   3.972   2.814   3.293  0.1715  0.1675 -0.3273
    1PA    H10R13957   3.962   2.751   3.382  0.2816  0.0948 -0.3659
    1PA    H10S13958   3.917   2.906   3.311 -0.2282 -0.0601 -0.3862
    1PA     C1913959   3.910   2.746   3.171 -0.3995  0.2558 -0.0861
    1PA     H9R13960   3.986   2.671   3.148  0.3816  0.5640  1.4204
    1PA     H9S13961   3.825   2.680   3.192  1.5129 -2.2930  0.2434
    1PA     C1813962   3.868   2.847   3.063  0.8697  0.6675 -0.2001
    1PA     H8R13963   3.799   2.913   3.116 -0.2920 -1.5723  1.2420
    1PA     H8S13964   3.948   2.911   3.025 -0.9794  2.3967 -1.3657
    1PA     C1713965   3.811   2.764   2.947  0.7458  0.0798  0.2735
    1PA     H7R13966   3.893   2.710   2.898  1.1009 -0.4622  1.4336
    1PA     H7S13967   3.737   2.691   2.980 -0.9333  1.1743 -0.8952
    1PA     C1613968   3.736   2.845   2.840  0.0252  0.0035  0.7157
    1PA     H6R13969   3.664   2.917   2.879  1.1930  2.1995 -0.9293
    1PA     H6S13970   3.813   2.902   2.787  0.3816 -0.6300  0.5427
    1PA     C1513971   3.670   2.747   2.742 -0.1584  0.3531  0.4905
    1PA     H5R13972   3.739   2.674   2.701 -0.0134 -0.7754  2.6381
    1PA     H5S13973   3.591   2.689   2.790 -0.1774  0.3533  0.4596
    1PA     C1413974   3.603   2.830   2.631 -0.3110 -0.3505  0.0495
    1PA     H4R13975   3.551   2.911   2.683  1.7156 -0.5006  2.5510
    1PA     H4S13976   3.686   2.860   2.567  0.4910 -0.2819  1.0814
    1PA     C1313977   3.506   2.753   2.541 -0.6858 -0.0577  0.2014
    1PA     H3R13978   3.551   2.659   2.509 -0.3945  0.2315 -0.2510
    1PA     H3S13979   3.428   2.719   2.610 -0.4203 -2.9417 -0.7801
    1PA     C1213980   3.459   2.827   2.415  0.3716 -0.4416 -0.4309
    1PA     H2R13981   3.387   2.907   2.437  0.8525  0.4661 -2.0157
    1PA     H2S13982   3.538   2.874   2.356 -0.6537 -0.5555 -1.9291
    2PC     C1113983   3.398   2.724   2.324  0.2166 -0.5581 -0.1968
    2PC     O1213984   3.446   2.701   2.215 -0.1185 -1.0355 -0.2474
    2PC     O1113985   3.291   2.668   2.383 -0.0594  0.0812 -0.0901
    2PC      C113986   3.218   2.568   2.311  0.1809  0.0593 -0.3007
    2PC      HR13987   3.135   2.537   2.374  2.0040 -2.2265  1.1669
    2PC      HS13988   3.184   2.616   2.218  0.5390  0.2989 -0.3111
    2PC      C213989   3.306   2.446   2.278  0.5790  0.2706 -0.0290
    2PC      HX13990   3.388   2.476   2.212  1.1167 -1.0016  0.0323
    2PC      C313991   3.234   2.330   2.207  0.2153  0.1302  0.5603
    2PC      HA13992   3.146   2.298   2.263 -1.6201  1.1072 -1.5945
    2PC      HB13993   3.207   2.378   2.113 -1.3423  3.3147  2.4529
    2PC     O3113994   3.314   2.212   2.189 -0.0137  0.0219  0.2496
    2PC     P3113995   3.260   2.103   2.084 -0.3977  0.1247  0.3410
    2PC     O3213996   3.107   2.095   2.130 -0.3441 -0.1316  0.4770
    2PC     C3113997   3.001   2.144   2.046  0.1555 -0.2712 -0.2446
    2PC     H1A13998   3.004   2.253   2.058  1.0751 -0.3677  0.5676
    2PC     H1B13999   3.009   2.112   1.942 -0.1418 -0.3714 -0.2380
    2PC     C3214000   2.867   2.108   2.112  0.1750  0.1395  0.0260
    2PC     H2A14001   2.874   2.004   2.145 -0.0230 -0.4665 -1.7033
    2PC     H2B14002   2.836   2.178   2.189 -1.4856 -0.2776 -0.2029
    2PC     N3114003   2.747   2.112   2.021  0.1736 -0.1813  0.0106
    2PC     C3314004   2.770   2.013   1.912 -0.8598 -0.6989  0.2551
    2PC     H3A14005   2.850   2.060   1.855  1.2399 -1.8468  2.0656
    2PC     H3B14006   2.795   1.917   1.959  0.0578 -1.6192 -1.9307
    2PC     H3C14007   2.678   2.002   1.854 -0.8399  1.3934 -0.2291
    2PC     C3414008   2.621   2.058   2.082  0.1369 -0.3941 -0.2558
    2PC     H4A14009   2.662   1.966   2.126 -0.7235 -0.8481 -0.3883
    2PC     H4B14010   2.580   2.115   2.164 -3.6216 -0.7095 -1.7313
    2PC     H4C14011   2.545   2.039   2.006 -0.0044 -0.1799 -0.1653
    2PC     C3514012   2.715   2.254   1.986  0.3542 -0.0221  0.4742
    2PC     H5A14013   2.797   2.299   1.930 -0.0961  2.1689  1.4619
    2PC     H5B14014   2.696   2.318   2.073 -3.1007  0.0131 -0.1354
    2PC     H5C14015   2.619   2.258   1.934 -0.2347  0.7008  1.5731
    2PC     O3314016   3.269   2.160   1.948 -0.3151 -0.0030  0.2932
    2PC     O3414017   3.349   1.985   2.076  0.2771  0.6330  0.2573
    2PC     O2114018   3.356   2.391   2.401 -0.4073 -0.2603  0.1405
    2PC     C2114019   3.479   2.339   2.401  0.0404  0.7866  0.1553
    2PC     O2214020   3.572   2.374   2.330  0.2656  0.3457  0.2297
    3OL     C1214021   3.493   2.240   2.514  0.7905  0.7901  0.0743
    3OL     H2R14022   3.453   2.144   2.481  2.1134  0.4851 -0.6873
    3OL     H2S14023   3.434   2.277   2.599 -0.4982  0.6497 -0.7310
    3OL     C1314024   3.632   2.204   2.568  0.3769  0.1032  0.6970
    3OL     H3R14025   3.693   2.169   2.485 -0.1544  1.2334 -0.1955
    3OL     H3S14026   3.628   2.131   2.649  1.2224 -0.0416  0.6145
    3OL     C1414027   3.698   2.330   2.626  0.1931  0.6088 -0.1756
    3OL     H4R14028   3.632   2.382   2.696  0.5639  0.3999  0.3427
    3OL     H4S14029   3.721   2.402   2.547  1.7400 -1.8132 -2.0665
    3OL     C1514030   3.827   2.281   2.694 -0.2766 -0.1689  0.1647
    3OL     H5R14031   3.888   2.228   2.621 -1.4204 -1.6843  0.2644
    3OL     H5S14032   3.809   2.214   2.779 -2.9300  0.7111  0.4117
    3OL     C1614033   3.906   2.407   2.731 -0.2717 -0.1561  0.1108
    3OL     H6R14034   3.865   2.469   2.812 -0.6007 -1.0245  0.6192
    3OL     H6S14035   3.930   2.473   2.647 -1.8323  1.1097  0.6131
    3OL     C1714036   4.044   2.369   2.788  0.0096  0.4975 -0.1220
    3OL     H7R14037   4.089   2.466   2.808  2.6340  0.0194 -2.9478
    3OL     H7S14038   4.105   2.320   2.712 -0.2803  1.6561 -1.1307
    3OL     C1814039   4.034   2.290   2.919  0.1232  0.2786 -0.2439
    3OL     H8R14040   4.135   2.252   2.938 -0.1270 -0.3647 -0.2116
    3OL     H8S14041   3.980   2.198   2.900  2.5903 -1.4045  0.4646
    3OL     C1914042   3.989   2.375   3.036  0.3223 -0.4205  0.3505
    3OL     H9R14043   4.026   2.476   3.020  1.5818 -1.1618 -2.0029
    3OL    C11014044   3.898   2.341   3.126 -0.0559  0.0325  0.1471
    3OL    H10R14045   3.863   2.412   3.200 -0.4540  2.2829 -2.0677
    3OL    C11114046   3.837   2.204   3.143 -0.4476  0.1095 -0.6110
    3OL    H11R14047   3.885   2.143   3.220 -2.3337  0.3004  0.7679
    3OL    H11S14048   3.849   2.141   3.055 -0.4030 -2.4963  1.1598
    3OL    C11214049   3.691   2.220   3.186 -0.2123  0.4413  0.0814
    3OL    H12R14050   3.678   2.276   3.279 -0.5621  0.4452  0.0319
    3OL    H12S14051   3.664   2.114   3.196  2.7375 -0.6777 -2.2956
    3OL    C11314052   3.607   2.279   3.072  0.0582  0.0991 -0.2992
    3OL    H13R14053   3.607   2.215   2.984  0.2491 -0.7792  0.3340
    3OL    H13S14054   3.660   2.371   3.045  3.0683 -1.2243  0.7090
    3OL    C11414055   3.466   2.315   3.120  0.3005  0.5245  0.1033
    3OL    H14R14056   3.485   2.386   3.201  1.0758  0.9222 -0.4147
    3OL    H14S14057   3.409   2.236   3.169  1.3691  0.9287  2.0909
    3OL    C11514058   3.381   2.372   3.006 -0.0350 -0.4667 -0.1524
    3OL    H15R14059   3.278   2.395   3.034 -1.1943 -1.8848 -2.8786
    3OL    H15S14060   3.371   2.293   2.932 -2.2333 -0.9268  0.5513
    3OL    C11614061   3.439   2.502   2.948 -0.7010 -0.1846 -0.1968
    3OL    H16R14062   3.537   2.492   2.901 -1.2548  2.1284 -2.0254
    3OL    H16S14063   3.447   2.576   3.029 -0.9129  0.4299 -0.7264
    3OL    C11714064   3.340   2.559   2.846 -0.0645  0.0564 -0.6820
    3OL    H17R14065   3.357   2.664   2.822 -2.0597  0.7247  0.5631
    3OL    H17S14066   3.248   2.559   2.905  0.2920  1.1832 -0.1036
    3OL    C11814067   3.317   2.463   2.728  0.4319 -0.6219 -0.2317
    3OL    H18R14068   3.235   2.515   2.678 -0.7150  0.0244  2.1633
    3OL    H18S14069   3.289   2.362   2.759  1.4691 -0.7104  0.4725
    3OL    H18T14070   3.405   2.460   2.664  0.2267 -3.3222 -0.5308
    1PA    C11614071   3.612   2.997   3.424 -0.1362  0.0869  0.3055
    1PA    H16R14072   3.711   3.038   3.404 -0.1691  0.3102  0.5931
    1PA    H16S14073   3.594   2.989   3.532  0.0095  2.1107  0.5069
    1PA    H16T14074   3.526   3.052   3.387  0.5728 -0.3810 -2.2467
    1PA    C11514075   3.603   2.857   3.360  0.0427 -0.0699  0.6193
    1PA    H15R14076   3.594   2.865   3.252 -2.0956  0.4279  0.7834
    1PA    H15S14077   3.689   2.799   3.394  0.8130  0.8764  0.3443
    1PA    C11414078   3.474   2.789   3.406 -0.0926 -0.2889 -0.0802
    1PA    H14R14079   3.490   2.681   3.418 -0.5112 -0.3735 -0.2434
    1PA    H14S14080   3.451   2.824   3.507 -1.9066 -1.8701  0.1376
    1PA    C11314081   3.356   2.813   3.311 -0.0860 -0.0183 -0.0211
    1PA    H13R14082   3.333   2.919   3.299  2.0048  0.4359 -0.4563
    1PA    H13S14083   3.391   2.777   3.214  4.0529  1.0509  0.9005
    1PA    C11214084   3.236   2.731   3.361 -0.0701 -0.1281 -0.1612
    1PA    H12R14085   3.262   2.625   3.372  1.7297 -0.3377 -4.3714
    1PA    H12S14086   3.192   2.769   3.453  1.1179  0.1599  0.3084
    1PA    C11114087   3.127   2.720   3.253  0.0793  0.3147 -0.3569
    1PA    H11R14088   3.068   2.807   3.225 -2.5320 -1.5833 -1.0751
    1PA    H11S14089   3.187   2.682   3.170  1.7030  0.5923  0.6330
    1PA    C11014090   3.025   2.610   3.282  0.3934 -0.0115 -0.4855
    1PA    H10R14091   3.067   2.509   3.287  0.6297  0.1011 -0.1739
    1PA    H10S14092   2.992   2.634   3.383  2.2785 -0.6206  0.3269
    1PA     C1914093   2.905   2.608   3.186  0.1223  0.0891 -0.1481
    1PA     H9R14094   2.824   2.547   3.228 -2.0118  1.5577 -1.8681
    1PA     H9S14095   2.864   2.709   3.175  1.8264  0.6856 -1.2730
    1PA     C1814096   2.933   2.541   3.051  0.1608 -0.2302  0.0169
    1PA     H8R14097   3.015   2.600   3.009 -0.9701 -0.3963 -2.5973
    1PA     H8S14098   2.978   2.442   3.061  1.0735  0.2856  1.2327
    1PA     C1714099   2.810   2.539   2.960 -0.0114 -1.0026  0.2557
    1PA     H7R14100   2.733   2.478   3.009 -1.4198 -0.6048 -1.3508
    1PA     H7S14101   2.770   2.641   2.953 -1.6840 -1.6655 -0.3645
    1PA     C1614102   2.837   2.477   2.823 -0.3164 -0.0663 -0.2368
    1PA     H6R14103   2.938   2.499   2.788  0.3990  1.0845  2.3232
    1PA     H6S14104   2.833   2.371   2.845 -0.2432  0.6156  3.6413
    1PA     C1514105   2.734   2.528   2.721 -0.8004 -0.3115  0.1291
    1PA     H5R14106   2.636   2.524   2.770 -0.8136 -0.4779  0.0903
    1PA     H5S14107   2.751   2.636   2.711 -0.5386 -0.1915  1.6237
    1PA     C1414108   2.742   2.459   2.584 -0.1501 -0.0061  0.0108
    1PA     H4R14109   2.841   2.482   2.545  1.5981 -3.2817  2.1345
    1PA     H4S14110   2.728   2.352   2.593  1.3193 -0.4905 -2.4921
    1PA     C1314111   2.631   2.517   2.495 -0.1470  0.1997  0.1388
    1PA     H3R14112   2.541   2.519   2.556 -1.0860 -1.1496 -1.1320
    1PA     H3S14113   2.647   2.620   2.461  0.2204  0.0513 -0.1541
    1PA     C1214114   2.616   2.431   2.369  0.5351 -0.1790  0.3123
    1PA     H2R14115   2.607   2.327   2.402 -1.6367  0.0983  0.7453
    1PA     H2S14116   2.533   2.470   2.310  1.9093  2.6771  0.0850
    2PC     C1114117   2.731   2.465   2.277  0.1229 -0.4824 -0.3247
    2PC     O1214118   2.825   2.391   2.258  0.5653 -0.0178  0.0058
    2PC     O1114119   2.702   2.580   2.214 -0.3557 -0.2824  0.2529
    2PC      C114120   2.798   2.632   2.121 -0.6320  0.0419  0.1463
    2PC      HR14121   2.900   2.627   2.161 -1.3349  0.6727  2.1533
    2PC      HS14122   2.801   2.575   2.028  3.1700  0.2642 -0.0315
    2PC      C214123   2.761   2.780   2.098 -0.1192  0.1294 -0.1415
    2PC      HX14124   2.652   2.789   2.090 -0.0845 -0.2503 -1.2495
    2PC      C314125   2.838   2.827   1.974  0.2522  0.4088  0.1944
    2PC      HA14126   2.805   2.758   1.896 -0.5732 -0.1610  1.0181
    2PC      HB14127   2.809   2.925   1.934  1.3257  0.7458  0.1963
    2PC     O3114128   2.981   2.818   1.989  0.2384  0.1857  0.1971
    2PC     P3114129   3.079   2.795   1.865 -0.1135 -0.0666 -0.0337
    2PC     O3214130   3.023   2.899   1.757  0.1977 -0.2113 -0.3383
    2PC     C3114131   3.107   3.009   1.718 -0.0347  0.3308  0.6511
    2PC     H1A14132   3.156   3.058   1.802 -0.3630  2.4716 -0.3493
    2PC     H1B14133   3.189   2.977   1.654  0.3622 -0.6729  1.6202
    2PC     C3214134   3.019   3.103   1.634  0.3209 -0.0613 -0.1736
    2PC     H2A14135   2.927   3.054   1.602  0.9506 -1.9356  0.7393
    2PC     H2B14136   2.982   3.175   1.707  0.5038  0.0612 -0.2016
    2PC     N3114137   3.075   3.171   1.513  0.0613  0.0110 -0.2537
    2PC     C3314138   2.967   3.243   1.438 -0.3296  0.5568  0.8064
    2PC     H3A14139   3.019   3.289   1.354  1.5210 -0.5793  1.2503
    2PC     H3B14140   2.891   3.169   1.411 -0.0287  0.8523 -1.0147
    2PC     H3C14141   2.925   3.319   1.503 -1.7650  0.8368 -0.3939
    2PC     C3414142   3.168   3.283   1.547  0.1649 -0.0230 -0.4266
    2PC     H4A14143   3.235   3.248   1.625 -0.7545 -0.7364  0.0550
    2PC     H4B14144   3.227   3.290   1.455 -2.4365  0.1628 -2.1858
    2PC     H4C14145   3.114   3.375   1.569 -0.6833 -0.5029 -0.4633
    2PC     C3514146   3.145   3.074   1.423 -0.0527  0.2063 -0.5526
    2PC     H5A14147   3.065   3.006   1.394 -0.8320 -0.1094  2.1185
    2PC     H5B14148   3.220   3.015   1.476 -1.6019  0.4092  2.0282
    2PC     H5C14149   3.177   3.125   1.331  0.1236  0.5328 -0.3124
    2PC     O3314150   3.221   2.814   1.901 -0.0668 -0.3245 -0.0767
    2PC     O3414151   3.071   2.652   1.824  0.3673 -0.1435  0.1420
    2PC     O2114152   2.810   2.845   2.216 -0.0516  0.0750 -0.1396
    2PC     C2114153   2.790   2.975   2.242 -0.8485 -0.1411  0.3697
    2PC     O2214154   2.714   3.046   2.179 -0.1828  0.3268  0.0814
    3OL     C1214155   2.866   3.031   2.360 -0.3598  0.1389 -0.0744
    3OL     H2R14156   2.794   3.064   2.435 -0.2088 -3.0940  1.6389
    3OL     H2S14157   2.924   3.118   2.327  0.2777 -0.2177  0.1004
    3OL     C1314158   2.957   2.923   2.419 -0.1253  0.1301 -0.4450
    3OL     H3R14159   3.009   2.871   2.339 -0.6359 -1.5248  0.2642
    3OL     H3S14160   2.889   2.844   2.453  2.8242 -1.7113  1.7110
    3OL     C1414161   3.027   2.973   2.546 -0.2106 -0.3933 -0.1887
    3OL     H4R14162   2.948   3.019   2.607  0.8495 -0.3472  1.2129
    3OL     H4S14163   3.096   3.048   2.506 -0.2115 -0.5209 -0.4281
    3OL     C1514164   3.093   2.858   2.624 -0.0907 -0.2420 -0.0654
    3OL     H5R14165   3.133   2.789   2.550 -1.0014 -0.4752 -0.3552
    3OL     H5S14166   3.015   2.806   2.679  1.4299 -1.6603  0.8179
    3OL     C1614167   3.200   2.905   2.723 -0.3995  0.2168  0.0549
    3OL     H6R14168   3.255   2.990   2.682  2.8571 -1.9815 -0.5520
    3OL     H6S14169   3.274   2.826   2.737 -1.0044  0.0129  2.5519
    3OL     C1714170   3.139   2.934   2.861 -0.0659  0.0888  0.2314
    3OL     H7R14171   3.053   2.872   2.883  2.1899 -3.6570 -0.6352
    3OL     H7S14172   3.107   3.038   2.852 -3.8757 -0.9756 -0.1550
    3OL     C1814173   3.236   2.934   2.979  0.2793 -0.3471 -0.0494
    3OL     H8R14174   3.254   2.831   3.010  0.1568 -0.7901 -1.3960
    3OL     H8S14175   3.189   3.002   3.051  1.2410  0.5960 -0.2864
    3OL     C1914176   3.373   2.986   2.943 -0.0778  0.3526 -0.4026
    3OL     H9R14177   3.431   2.928   2.872  1.4397 -0.0174  1.0867
    3OL    C11014178   3.433   3.096   2.988 -0.0566  0.0360  0.3586
    3OL    H10R14179   3.533   3.123   2.952 -1.1353  0.9808 -2.2060
    3OL    C11114180   3.370   3.197   3.079 -0.2108  0.0803  0.2018
    3OL    H11R14181   3.317   3.144   3.158  0.4370 -0.3602  0.3467
    3OL    H11S14182   3.291   3.252   3.026 -0.6417 -0.9204 -0.2172
    3OL    C11214183   3.480   3.284   3.141  0.1447  0.0488 -0.3741
    3OL    H12R14184   3.555   3.307   3.066 -0.4242 -0.7911 -1.2202
    3OL    H12S14185   3.533   3.215   3.206 -0.2749  0.1930  0.1310
    3OL    C11314186   3.424   3.395   3.232  0.3057 -0.0398 -0.1659
    3OL    H13R14187   3.490   3.407   3.318 -0.4614  1.5382  0.2403
    3OL    H13S14188   3.329   3.358   3.269  0.5111 -0.0420  0.3613
    3OL    C11414189   3.394   3.524   3.155  0.0774 -0.2185 -0.3778
    3OL    H14R14190   3.316   3.512   3.079  0.3228  3.3824 -1.4150
    3OL    H14S14191   3.478   3.555   3.093  1.5658 -1.4722  0.9428
    3OL    C11514192   3.361   3.640   3.250  0.1051 -0.3576 -0.1974
    3OL    H15R14193   3.436   3.648   3.329 -0.1652 -0.0982  0.0368
    3OL    H15S14194   3.265   3.626   3.300  0.1499 -2.8236 -0.6883
    3OL    C11614195   3.363   3.775   3.176  0.0934 -0.2850 -0.0655
    3OL    H16R14196   3.298   3.774   3.088 -0.8419 -0.2021  0.6089
    3OL    H16S14197   3.465   3.795   3.144  0.6689  0.8959  2.2647
    3OL    C11714198   3.316   3.886   3.271  0.8882  0.0978 -0.1113
    3OL    H17R14199   3.341   3.986   3.234 -0.0975  0.7490  0.8802
    3OL    H17S14200   3.369   3.881   3.366  0.4594 -0.5229  0.1025
    3OL    C11814201   3.164   3.891   3.295  0.7556 -0.1326 -0.8772
    3OL    H18R14202   3.134   3.986   3.339 -1.4369 -0.9847 -0.4209
    3OL    H18S14203   3.134   3.810   3.362  0.6148 -0.0116 -0.7942
    3OL    H18T14204   3.105   3.879   3.204  0.3721 -1.2954 -0.4928
    1PA    C11614205   3.436   4.523   3.696 -0.5962 -0.3828  0.1040
    1PA    H16R14206   3.507   4.445   3.726 -1.0860 -0.8994 -0.0500
    1PA    H16S14207   3.356   4.513   3.769 -0.6311 -1.7232 -0.0809
    1PA    H16T14208   3.482   4.620   3.717 -0.9579 -0.3150  0.5756
    1PA    C11514209   3.381   4.510   3.553  0.0062  0.2774 -0.1909
    1PA    H15R14210   3.345   4.409   3.538 -0.7874  0.3701  1.0006
    1PA    H15S14211   3.297   4.579   3.548 -0.3346 -0.2199 -2.8340
    1PA    C11414212   3.489   4.557   3.454  0.4320 -0.1912  0.0430
    1PA    H14R14213   3.492   4.666   3.461 -1.3654 -0.1676  1.2736
    1PA    H14S14214   3.585   4.510   3.473  0.3983  0.3675  1.7988
    1PA    C11314215   3.450   4.525   3.309  0.1838  0.4861 -0.0453
    1PA    H13R14216   3.470   4.419   3.293 -0.8742  0.1645  0.6716
    1PA    H13S14217   3.343   4.532   3.288 -0.1406 -1.0386  0.9557
    1PA    C11214218   3.536   4.599   3.205  0.4026  0.1373 -0.1137
    1PA    H12R14219   3.516   4.706   3.216  0.2927  0.6792 -4.2056
    1PA    H12S14220   3.643   4.578   3.216  0.7329  1.8531  0.2008
    1PA    C11114221   3.489   4.552   3.067  0.1228 -0.3979  0.1593
    1PA    H11R14222   3.509   4.447   3.048 -0.0119 -0.6244  1.2343
    1PA    H11S14223   3.381   4.568   3.074  0.3877  0.8071  2.7606
    1PA    C11014224   3.551   4.642   2.959  0.4097 -0.4831  0.2530
    1PA    H10R14225   3.539   4.749   2.978  4.1959  0.0645  0.5010
    1PA    H10S14226   3.660   4.649   2.969  0.3348  3.2761 -0.1120
    1PA     C1914227   3.498   4.595   2.822  0.2076 -0.2409  0.2479
    1PA     H9R14228   3.529   4.492   2.801 -2.8317 -0.9560 -1.1331
    1PA     H9S14229   3.389   4.589   2.824  0.1228  0.3945 -1.5104
    1PA     C1814230   3.546   4.683   2.706 -0.5308  0.2431  0.3018
    1PA     H8R14231   3.512   4.787   2.709 -2.2075 -0.2470 -0.6165
    1PA     H8S14232   3.655   4.687   2.713 -0.3840 -0.8699 -0.9817
    1PA     C1714233   3.498   4.624   2.573 -0.1163  0.2177  0.1611
    1PA     H7R14234   3.582   4.642   2.506  2.6754 -1.7126  2.8398
    1PA     H7S14235   3.501   4.514   2.574 -1.2072  0.1801  0.1837
    1PA     C1614236   3.365   4.681   2.523 -0.0989 -0.1191 -0.2722
    1PA     H6R14237   3.341   4.624   2.433  2.6456  0.8652 -1.7630
    1PA     H6S14238   3.292   4.670   2.603  0.5855 -0.5595  0.2943
    1PA     C1514239   3.380   4.828   2.483  0.0230 -0.0234  0.1276
    1PA     H5R14240   3.397   4.894   2.569 -2.0123  1.6663 -0.6698
    1PA     H5S14241   3.454   4.847   2.406 -0.2256  1.4229  0.1982
    1PA     C1414242   3.242   4.863   2.425 -0.0202  0.5840  0.5795
    1PA     H4R14243   3.222   4.783   2.353 -0.0890 -0.0196  1.2559
    1PA     H4S14244   3.168   4.851   2.505 -1.5615 -2.5179 -1.1130
    1PA     C1314245   3.238   5.003   2.362 -0.0669  0.4652  0.3169
    1PA     H3R14246   3.240   5.083   2.436 -2.4716 -1.1698  2.3217
    1PA     H3S14247   3.332   5.007   2.307 -0.0356 -0.8950  0.2332
    1PA     C1214248   3.114   5.019   2.273  0.1748 -0.0852 -0.1280
    1PA     H2R14249   3.028   4.964   2.313  2.0187 -1.4703  2.2155
    1PA     H2S14250   3.086   5.125   2.270  1.1837  0.1668 -1.2817
    2PC     C1114251   3.140   4.986   2.128  0.2498  0.2253 -0.1861
    2PC     O1214252   3.213   5.052   2.056 -0.1561  0.6408 -0.2243
    2PC     O1114253   3.086   4.872   2.082  0.7208  0.2067 -0.6903
    2PC      C114254   3.103   4.841   1.942 -0.0919  0.3072 -0.8174
    2PC      HR14255   3.055   4.907   1.869  1.5300 -0.5866 -2.8006
    2PC      HS14256   3.210   4.840   1.920 -0.0764  0.3398 -0.7451
    2PC      C214257   3.052   4.699   1.917 -0.2432  0.3037 -0.4888
    2PC      HX14258   3.099   4.631   1.988 -0.2860  0.8489  0.0721
    2PC      C314259   3.069   4.659   1.770 -0.0893  0.6545 -0.5668
    2PC      HA14260   3.173   4.672   1.740  0.5396 -1.3141  0.5669
    2PC      HB14261   3.049   4.553   1.756  1.2684  0.3921 -0.6610
    2PC     O3114262   2.986   4.743   1.688 -0.5693  0.4321 -0.3163
    2PC     P3114263   2.944   4.685   1.544 -0.0537  0.0857 -0.3307
    2PC     O3214264   3.035   4.787   1.460  0.0792  0.0944 -0.1765
    2PC     C3114265   3.132   4.725   1.374 -0.0842 -0.2740 -0.0999
    2PC     H1A14266   3.198   4.673   1.444 -0.0785 -0.4575 -0.2429
    2PC     H1B14267   3.082   4.659   1.303  0.9368 -0.8370 -0.3233
    2PC     C3214268   3.206   4.839   1.303 -0.6381  0.0990 -0.0860
    2PC     H2A14269   3.299   4.801   1.261 -0.4923 -1.4819  1.5547
    2PC     H2B14270   3.146   4.882   1.223 -1.0327 -0.6804 -0.2118
    2PC     N3114271   3.251   4.958   1.383  0.0172 -0.0623 -0.2019
    2PC     C3314272   3.339   5.043   1.297 -0.0448  0.2657  0.0532
    2PC     H3A14273   3.298   5.065   1.198 -0.4195  1.7107  0.5098
    2PC     H3B14274   3.387   5.128   1.345  2.4350 -1.4943  0.8993
    2PC     H3C14275   3.428   4.983   1.277 -0.0191 -0.6073  2.4801
    2PC     C3414276   3.134   5.044   1.422 -0.0254 -0.1339 -0.1711
    2PC     H4A14277   3.164   5.148   1.433 -0.7894  0.4258 -2.7418
    2PC     H4B14278   3.073   5.037   1.332  0.4725 -1.0487 -0.4448
    2PC     H4C14279   3.081   4.999   1.506  0.1958  1.2739  0.7578
    2PC     C3514280   3.330   4.910   1.501 -1.0004 -0.6460  0.2529
    2PC     H5A14281   3.262   4.854   1.566 -1.0103  0.0521  0.8548
    2PC     H5B14282   3.383   4.995   1.542  0.5350 -2.6660  2.7754
    2PC     H5C14283   3.404   4.841   1.460  0.3036 -0.3138  1.9394
    2PC     O3314284   2.947   4.538   1.523 -0.3609  0.1184 -0.6049
    2PC     O3414285   2.802   4.714   1.517 -0.1880 -0.6342 -0.4136
    2PC     O2114286   2.912   4.713   1.951 -0.3041  0.3411 -0.7578
    2PC     C2114287   2.840   4.600   1.952  0.2054  0.0157 -0.0653
    2PC     O2214288   2.888   4.489   1.964  0.3639  0.0109 -0.6996
    3OL     C1214289   2.693   4.634   1.951  0.1897 -0.0503 -0.0922
    3OL     H2R14290   2.670   4.639   1.844  1.1641 -1.4246 -0.3997
    3OL     H2S14291   2.684   4.733   1.997 -0.4148 -0.6871  1.1816
    3OL     C1314292   2.592   4.541   2.019  0.0895 -0.1911 -0.4279
    3OL     H3R14293   2.613   4.541   2.127 -0.3349  1.3653 -0.3202
    3OL     H3S14294   2.599   4.441   1.976 -0.1950  0.8305 -2.9997
    3OL     C1414295   2.456   4.609   1.997 -0.0348 -0.2618  0.1129
    3OL     H4R14296   2.416   4.614   1.896 -2.0887 -1.9748  0.7503
    3OL     H4S14297   2.445   4.706   2.046 -1.2267  0.7492 -2.0221
    3OL     C1514298   2.343   4.529   2.064  0.1159 -0.1021  0.5646
    3OL     H5R14299   2.368   4.498   2.166  1.0659 -0.4640  0.2374
    3OL     H5S14300   2.334   4.436   2.007  0.2989 -0.6084  1.3450
    3OL     C1614301   2.205   4.595   2.054  0.1425 -0.1766 -0.4378
    3OL     H6R14302   2.177   4.603   1.949 -0.2991  0.3599 -0.2877
    3OL     H6S14303   2.212   4.697   2.093 -0.0553 -0.3459  0.0469
    3OL     C1714304   2.100   4.511   2.128  0.1369  0.0020 -0.2410
    3OL     H7R14305   2.129   4.540   2.229  1.4213  3.7703 -1.5152
    3OL     H7S14306   2.115   4.404   2.114 -0.6265 -0.1821  0.2883
    3OL     C1814307   1.959   4.564   2.100 -0.0371 -0.1800  0.2807
    3OL     H8R14308   1.958   4.574   1.991  1.6394 -0.4612  0.2217
    3OL     H8S14309   1.946   4.664   2.143  0.3427  0.0406 -0.1123
    3OL     C1914310   1.846   4.471   2.137 -0.1101 -0.2742 -0.1666
    3OL     H9R14311   1.858   4.372   2.095  0.7845  1.0153 -3.2364
    3OL    C11014312   1.735   4.500   2.204  0.4562 -0.0292  0.6916
    3OL    H10R14313   1.670   4.414   2.216 -0.5981  0.4064 -1.2965
    3OL    C11114314   1.687   4.637   2.244  0.0238  0.1539 -0.4088
    3OL    H11R14315   1.595   4.658   2.189 -1.5846 -1.8488  1.3347
    3OL    H11S14316   1.763   4.713   2.224  0.0892 -0.2066 -1.5731
    3OL    C11214317   1.646   4.640   2.392  0.6938  0.6777 -0.2289
    3OL    H12R14318   1.565   4.569   2.404  0.1766  1.2294 -0.4091
    3OL    H12S14319   1.611   4.743   2.407 -0.3639  0.6786 -2.3697
    3OL    C11314320   1.769   4.606   2.477  0.4110 -0.0026 -0.0865
    3OL    H13R14321   1.856   4.666   2.448  0.3383 -0.3621 -1.0896
    3OL    H13S14322   1.796   4.503   2.455 -0.3113 -0.1452 -0.3229
    3OL    C11414323   1.750   4.625   2.628 -0.8494  0.1524 -0.2567
    3OL    H14R14324   1.720   4.728   2.648 -0.9382  0.4731 -1.8726
    3OL    H14S14325   1.845   4.604   2.678 -1.4175 -2.5973 -0.1936
    3OL    C11514326   1.649   4.531   2.695 -0.8225 -0.0264 -0.4660
    3OL    H15R14327   1.675   4.425   2.687 -0.3299 -0.1446  1.9651
    3OL    H15S14328   1.552   4.541   2.646 -0.8137 -0.9454 -0.6992
    3OL    C11614329   1.649   4.545   2.848 -0.0533  0.2271 -0.4828
    3OL    H16R14330   1.629   4.648   2.879 -0.9514  0.2334 -1.0127
    3OL    H16S14331   1.746   4.510   2.883 -0.1138 -0.4981 -1.0288
    3OL    C11714332   1.538   4.460   2.911  0.1995  0.1921 -0.0830
    3OL    H17R14333   1.546   4.352   2.893 -1.1230  0.1144 -0.3121
    3OL    H17S14334   1.448   4.508   2.872  1.1419  2.3352  0.2532
    3OL    C11814335   1.537   4.486   3.062  0.2104 -0.0330 -0.0439
    3OL    H18R14336   1.498   4.403   3.121  0.8833 -0.0073  0.4462
    3OL    H18S14337   1.480   4.574   3.090 -0.1903 -0.7008  1.3177
    3OL    H18T14338   1.639   4.503   3.098  0.9227 -3.1477 -0.2578
    1PA    C11614339   2.630   1.735   3.595  1.1952 -0.0991 -0.3217
    1PA    H16R14340   2.696   1.648   3.594  0.7454 -0.4915  1.0050
    1PA    H16S14341   2.549   1.715   3.666  0.6940  1.7821 -0.3107
    1PA    H16T14342   2.688   1.820   3.631  1.9605 -0.9630  0.5764
    1PA    C11514343   2.561   1.759   3.461 -0.1682 -0.3539  0.3143
    1PA    H15R14344   2.493   1.843   3.447  0.0970 -0.1789  0.0799
    1PA    H15S14345   2.642   1.780   3.391 -0.2713  0.4172  0.4245
    1PA    C11414346   2.488   1.630   3.421 -0.2028 -0.0997 -0.4677
    1PA    H14R14347   2.481   1.636   3.312 -2.2942  1.5189 -0.2926
    1PA    H14S14348   2.564   1.552   3.429  2.3104  2.1768 -0.7250
    1PA    C11314349   2.351   1.601   3.483  0.2447 -0.5234  0.3503
    1PA    H13R14350   2.369   1.577   3.588 -1.5149  3.7326  1.8817
    1PA    H13S14351   2.285   1.689   3.482 -0.0044 -0.6322  2.3852
    1PA    C11214352   2.283   1.484   3.410 -0.7551 -0.0673  0.5300
    1PA    H12R14353   2.367   1.415   3.403  0.0973  0.8294  1.5783
    1PA    H12S14354   2.209   1.433   3.471 -1.7758  1.4388  0.6196
    1PA    C11114355   2.227   1.508   3.269 -0.2547  0.5900  0.4344
    1PA    H11R14356   2.137   1.568   3.282 -0.7406  0.0319 -0.2823
    1PA    H11S14357   2.300   1.561   3.207  0.0364  1.8369  1.7913
    1PA    C11014358   2.195   1.372   3.204 -0.0937  0.2463  1.0640
    1PA    H10R14359   2.296   1.349   3.168 -0.2774 -0.0752  0.7518
    1PA    H10S14360   2.161   1.298   3.276  1.1073 -0.7888  0.6084
    1PA     C1914361   2.108   1.389   3.079  0.3018 -0.0905  0.7398
    1PA     H9R14362   2.015   1.439   3.105  0.3946  1.1004 -0.9914
    1PA     H9S14363   2.158   1.461   3.013  0.0422 -1.1455 -0.6368
    1PA     C1814364   2.099   1.252   3.011 -0.5649  0.1450  0.3736
    1PA     H8R14365   2.073   1.274   2.907 -1.2198  0.1412  0.5309
    1PA     H8S14366   2.193   1.198   3.023 -1.7235 -2.0945 -0.0724
    1PA     C1714367   1.986   1.164   3.067 -0.0920 -0.5561  0.2280
    1PA     H7R14368   2.010   1.140   3.171 -1.2605 -1.6296  0.2749
    1PA     H7S14369   1.886   1.205   3.061 -0.5622 -1.5617  0.8838
    1PA     C1614370   1.984   1.030   2.992  0.0265 -0.3965 -0.0612
    1PA     H6R14371   2.088   0.997   2.978  1.4511  3.5213  0.0183
    1PA     H6S14372   1.938   0.954   3.055  0.3280 -0.0437  0.5928
    1PA     C1514373   1.909   1.026   2.858  0.1065 -0.2047 -0.1111
    1PA     H5R14374   1.898   1.128   2.820 -1.1322 -0.2007  0.2292
    1PA     H5S14375   1.970   0.971   2.786  1.0812  0.8704 -0.1413
    1PA     C1414376   1.777   0.948   2.866 -0.0717  0.1269  0.2097
    1PA     H4R14377   1.787   0.843   2.895  0.8062 -0.3044 -1.5247
    1PA     H4S14378   1.713   0.993   2.942 -0.1990  0.2899  0.0033
    1PA     C1314379   1.703   0.959   2.732  0.0019  0.1397  0.1699
    1PA     H3R14380   1.712   1.063   2.700  0.0739  0.5898  1.5465
    1PA     H3S14381   1.752   0.898   2.656  1.3254  0.8239  0.4337
    1PA     C1214382   1.552   0.938   2.746 -0.0294  0.3458  0.1547
    1PA     H2R14383   1.527   0.848   2.803  2.3846  0.0061  0.7717
    1PA     H2S14384   1.518   1.031   2.792  0.4400  0.3063  0.5868
    2PC     C1114385   1.508   0.935   2.602 -0.1585 -0.1503  0.2005
    2PC     O1214386   1.478   1.041   2.550  1.1920  0.0113 -0.2949
    2PC     O1114387   1.507   0.818   2.535 -0.1734 -0.1026  0.1170
    2PC      C114388   1.471   0.818   2.396 -0.2559  1.0906  0.1238
    2PC      HR14389   1.438   0.719   2.365  1.1640  0.9095 -0.9225
    2PC      HS14390   1.397   0.896   2.377 -0.2831  1.1044  0.2810
    2PC      C214391   1.589   0.852   2.304 -0.0696 -0.3916 -0.2191
    2PC      HX14392   1.648   0.939   2.338 -1.3470 -0.0504  1.2475
    2PC      C314393   1.536   0.887   2.164 -0.3403  0.1874  0.0206
    2PC      HA14394   1.483   0.982   2.164  0.2745  0.5579 -1.8947
    2PC      HB14395   1.616   0.914   2.095 -0.6535  2.0176  0.3344
    2PC     O3114396   1.456   0.783   2.104 -0.6202  0.0358  0.6441
    2PC     P3114397   1.413   0.811   1.952  0.4345 -0.1339  0.3020
    2PC     O3214398   1.288   0.710   1.948  0.1976  0.1796 -0.4018
    2PC     C3114399   1.167   0.756   2.011  0.4243  0.1506  0.0633
    2PC     H1A14400   1.183   0.791   2.113  0.0278  0.8351 -0.1010
    2PC     H1B14401   1.142   0.843   1.950  0.0904  1.2874  1.7664
    2PC     C3214402   1.054   0.652   2.003 -0.0402  0.6263  0.3600
    2PC     H2A14403   1.079   0.574   2.074 -0.4029  0.2056  0.0306
    2PC     H2B14404   0.952   0.681   2.027 -1.1106 -0.0166 -2.9030
    2PC     N3114405   1.041   0.576   1.874  0.2635  0.2573  0.5439
    2PC     C3314406   1.059   0.668   1.757  0.0989 -0.1370  0.2071
    2PC     H3A14407   1.013   0.766   1.770 -0.1856 -0.2353 -0.0341
    2PC     H3B14408   1.166   0.684   1.746 -0.4075  2.1710 -2.3481
    2PC     H3C14409   1.016   0.605   1.679 -1.9207 -0.7317  1.7318
    2PC     C3414410   1.134   0.459   1.868  0.1356  0.1947 -0.3784
    2PC     H4A14411   1.239   0.489   1.859  0.2257 -0.6105 -3.0279
    2PC     H4B14412   1.106   0.403   1.957 -2.5696 -0.4364 -1.5241
    2PC     H4C14413   1.101   0.393   1.788  0.7608 -2.7798  1.6288
    2PC     C3514414   0.899   0.527   1.870  0.3581 -0.0128  0.4442
    2PC     H5A14415   0.879   0.486   1.771  2.3107 -0.0597  0.0227
    2PC     H5B14416   0.830   0.609   1.891 -0.6736  0.0054 -2.6134
    2PC     H5C14417   0.889   0.435   1.928 -0.9411 -0.9573 -1.1971
    2PC     O3314418   1.384   0.955   1.936 -0.0378 -0.2632 -0.0528
    2PC     O3414419   1.526   0.786   1.860  0.2352  0.2027 -0.0375
    2PC     O2114420   1.674   0.736   2.302 -0.0483 -0.3718 -0.4290
    2PC     C2114421   1.784   0.737   2.378 -0.5250  0.0823  0.2669
    2PC     O2214422   1.831   0.840   2.424 -0.3248 -0.0852  0.4406
    3OL     C1214423   1.857   0.605   2.377 -0.6004  0.0420 -0.2653
    3OL     H2R14424   1.958   0.619   2.337 -1.6265 -0.2758 -3.2152
    3OL     H2S14425   1.813   0.544   2.299  1.8290  0.5643 -2.1911
    3OL     C1314426   1.866   0.534   2.513 -0.0800  0.5413 -0.0347
    3OL     H3R14427   1.913   0.604   2.583 -0.4055  0.5876  0.1380
    3OL     H3S14428   1.925   0.443   2.497  0.4257  1.0787 -1.3799
    3OL     C1414429   1.727   0.493   2.561 -0.0551  0.3413 -0.1329
    3OL     H4R14430   1.681   0.425   2.489 -1.2190 -0.2078  1.0653
    3OL     H4S14431   1.661   0.578   2.583 -0.0983  0.0617  0.8634
    3OL     C1514432   1.746   0.400   2.682 -0.0971 -0.7196 -0.9301
    3OL     H5R14433   1.806   0.452   2.756  1.2136 -1.1248 -1.6747
    3OL     H5S14434   1.811   0.321   2.645  2.7049  0.9847  0.0634
    3OL     C1614435   1.612   0.338   2.728 -0.2963  0.4978  0.1827
    3OL     H6R14436   1.629   0.257   2.799 -0.1343 -0.7961 -1.2879
    3OL     H6S14437   1.557   0.294   2.644  1.0906 -0.4881 -0.2484
    3OL     C1714438   1.510   0.438   2.783 -0.5359  0.2431  0.1997
    3OL     H7R14439   1.422   0.379   2.811 -0.9115 -0.0434 -1.4344
    3OL     H7S14440   1.481   0.504   2.700 -0.8842  0.6829  0.6576
    3OL     C1814441   1.568   0.516   2.902 -0.2869  0.3362  0.0187
    3OL     H8R14442   1.643   0.589   2.872  0.9170  0.9809  4.0172
    3OL     H8S14443   1.633   0.449   2.959 -0.6407  0.1389  0.2001
    3OL     C1914444   1.467   0.588   2.987  0.2603  0.4665  0.5687
    3OL     H9R14445   1.431   0.683   2.946  0.6334  1.5953  2.7131
    3OL    C11014446   1.426   0.553   3.108 -0.1886  0.0884  0.3129
    3OL    H10R14447   1.352   0.613   3.160  1.6756  1.0633  1.9853
    3OL    C11114448   1.444   0.411   3.155 -0.2054 -0.0976 -0.2296
    3OL    H11R14449   1.521   0.414   3.232 -1.6982  2.5023  1.3224
    3OL    H11S14450   1.475   0.344   3.075 -2.1460 -2.3033  0.7376
    3OL    C11214451   1.314   0.349   3.210 -0.1838  0.2022  0.1648
    3OL    H12R14452   1.232   0.337   3.140  1.3683  0.4697 -1.7866
    3OL    H12S14453   1.272   0.424   3.277 -0.9884  1.0925 -1.2824
    3OL    C11314454   1.352   0.222   3.286 -0.3507  0.1280  0.1244
    3OL    H13R14455   1.260   0.188   3.334 -1.2061 -0.1191 -1.6374
    3OL    H13S14456   1.430   0.233   3.362  1.0723  1.5202 -1.4620
    3OL    C11414457   1.399   0.112   3.190  0.0187 -0.1288  0.5933
    3OL    H14R14458   1.488   0.157   3.145 -2.3062  3.3177 -0.9495
    3OL    H14S14459   1.328   0.101   3.108 -3.2755 -0.2217  3.2269
    3OL    C11514460   1.432  -0.024   3.255 -0.1731 -0.2542  0.4275
    3OL    H15R14461   1.494  -0.027   3.344  0.2568 -0.9307  0.1084
    3OL    H15S14462   1.487  -0.078   3.177 -0.0016  2.0085 -1.1212
    3OL    C11614463   1.296  -0.095   3.271  0.1059 -0.7614  0.5704
    3OL    H16R14464   1.246  -0.111   3.175  1.8692 -1.8452 -0.2194
    3OL    H16S14465   1.226  -0.035   3.330  0.4323  0.4752 -0.2417
    3OL    C11714466   1.317  -0.223   3.352  0.1460 -0.7911  0.5138
    3OL    H17R14467   1.346  -0.191   3.453  0.4959 -2.3667  0.9385
    3OL    H17S14468   1.398  -0.277   3.304 -0.0885  0.7473 -1.7415
    3OL    C11814469   1.191  -0.307   3.374 -0.2654 -0.0502  1.0466
    3OL    H18R14470   1.158  -0.349   3.279  1.9111  0.1376  0.1623
    3OL    H18S14471   1.112  -0.246   3.419  1.1307  0.5472  2.7728
    3OL    H18T14472   1.199  -0.392   3.442  0.7832 -1.0882 -0.3242
    1PA    C11614473   5.265   6.489   3.508  0.3337  0.0172  0.0971
    1PA    H16R14474   5.335   6.458   3.430 -2.9786 -3.1079 -1.9604
    1PA    H16S14475   5.187   6.413   3.514  0.5802 -0.3086 -0.6885
    1PA    H16T14476   5.300   6.502   3.610  0.0769 -4.0981  0.8652
    1PA    C11514477   5.184   6.611   3.463 -0.2677 -0.3991  0.0451
    1PA    H15R14478   5.115   6.644   3.542  0.8390  0.8104  0.5475
    1PA    H15S14479   5.257   6.690   3.441 -0.3934 -0.2641  0.1050
    1PA    C11414480   5.101   6.581   3.338  0.2740 -0.1784 -0.3722
    1PA    H14R14481   5.175   6.560   3.261  0.6777 -1.3937  0.3189
    1PA    H14S14482   5.040   6.496   3.370  1.0400 -0.9383 -0.8713
    1PA    C11314483   5.015   6.704   3.307  0.3583  0.1633  0.7097
    1PA    H13R14484   4.963   6.745   3.394 -0.0279  2.1022 -0.3679
    1PA    H13S14485   5.076   6.789   3.276 -0.3604 -0.2644 -2.1198
    1PA    C11214486   4.914   6.669   3.196  0.2241 -0.0392  0.8950
    1PA    H12R14487   4.975   6.636   3.111 -0.2828  1.2650 -0.0012
    1PA    H12S14488   4.855   6.589   3.242 -1.8121  1.4555  0.9951
    1PA    C11114489   4.824   6.790   3.168  0.6194  0.0032 -0.2443
    1PA    H11R14490   4.761   6.815   3.253  1.6757  0.7599  0.3541
    1PA    H11S14491   4.890   6.872   3.140 -0.4248  0.3107 -1.9083
    1PA    C11014492   4.730   6.752   3.053  0.0894 -0.0692  0.2086
    1PA    H10R14493   4.779   6.708   2.966 -1.2033 -1.0488 -0.0569
    1PA    H10S14494   4.656   6.678   3.083 -1.2946  0.3069 -2.0320
    1PA     C1914495   4.645   6.869   3.003 -0.4525 -0.6045 -0.1334
    1PA     H9R14496   4.569   6.898   3.076 -0.2772  2.0988 -0.8980
    1PA     H9S14497   4.721   6.946   2.988 -0.3165 -0.6080  0.5034
    1PA     C1814498   4.590   6.830   2.865 -0.2627 -0.2940 -0.3001
    1PA     H8R14499   4.672   6.804   2.798 -0.9041 -2.0233 -0.4848
    1PA     H8S14500   4.525   6.742   2.874 -1.8153  0.9829  2.2217
    1PA     C1714501   4.508   6.944   2.804  0.2154  0.1231 -0.1683
    1PA     H7R14502   4.426   6.970   2.872  0.7108  2.6391 -0.4530
    1PA     H7S14503   4.576   7.028   2.789  0.5097  0.0727  0.7996
    1PA     C1614504   4.452   6.910   2.665 -0.3909 -0.0751  0.1189
    1PA     H6R14505   4.525   6.893   2.586 -2.8753  1.3485 -2.6575
    1PA     H6S14506   4.388   6.821   2.667 -0.7090  0.0949 -1.5152
    1PA     C1514507   4.357   7.020   2.616 -0.0446  0.3415  0.3755
    1PA     H5R14508   4.390   7.118   2.650  1.1413  0.1114 -0.0708
    1PA     H5S14509   4.361   7.021   2.507 -0.9064 -0.6493  0.3128
    1PA     C1414510   4.210   7.001   2.655 -0.3100 -0.0677 -0.7846
    1PA     H4R14511   4.201   6.928   2.735 -1.0651  0.6496 -0.1877
    1PA     H4S14512   4.164   7.093   2.693  2.0555 -0.0170  2.3158
    1PA     C1314513   4.126   6.936   2.545 -0.1568 -0.1542 -0.8493
    1PA     H3R14514   4.120   7.009   2.464 -1.9112 -1.2889 -1.8168
    1PA     H3S14515   4.182   6.847   2.513  2.0016 -0.4088  3.0777
    1PA     C1214516   3.983   6.909   2.594  0.2595 -0.0184  0.4553
    1PA     H2R14517   4.004   6.825   2.660 -0.0479  0.2584  0.9127
    1PA     H2S14518   3.939   6.996   2.644 -2.5136 -1.3502  0.4812
    2PC     C1114519   3.883   6.872   2.488  0.4003  0.0135  0.3110
    2PC     O1214520   3.897   6.786   2.404  0.3911  0.0594  0.2627
    2PC     O1114521   3.766   6.936   2.507  0.2978 -0.0641 -0.0488
    2PC      C114522   3.673   6.962   2.400 -0.1820  0.2389  0.4400
    2PC      HR14523   3.627   7.061   2.402 -1.9100 -0.5219  0.0694
    2PC      HS14524   3.734   6.963   2.310  0.5678 -4.2750  0.6557
    2PC      C214525   3.572   6.848   2.383  0.1174  0.0254  0.0837
    2PC      HX14526   3.621   6.751   2.375  0.0177 -0.1220  1.1464
    2PC      C314527   3.497   6.864   2.250 -0.0755 -0.7690  0.0938
    2PC      HA14528   3.568   6.905   2.178 -1.7395  3.4740  0.5671
    2PC      HB14529   3.456   6.772   2.207  1.3741 -0.6612 -1.6038
    2PC     O3114530   3.394   6.964   2.258  0.6249 -0.0172 -0.1433
    2PC     P3114531   3.306   6.993   2.127 -0.1417 -0.4221  0.2704
    2PC     O3214532   3.417   7.052   2.027 -0.1344 -0.1432  0.4448
    2PC     C3114533   3.372   7.124   1.911  0.5342  0.6203  0.6528
    2PC     H1A14534   3.317   7.058   1.844 -0.1192  0.8656  0.9407
    2PC     H1B14535   3.304   7.209   1.922  0.8521  0.8071  1.1967
    2PC     C3214536   3.492   7.169   1.826  0.1687 -0.0449 -0.2272
    2PC     H2A14537   3.539   7.085   1.774  1.9415 -0.2263  1.5521
    2PC     H2B14538   3.468   7.247   1.754  1.5723  0.8072  0.2003
    2PC     N3114539   3.605   7.233   1.901 -0.1080 -0.0822  0.2241
    2PC     C3314540   3.711   7.276   1.804 -0.2657  0.0948  0.1295
    2PC     H3A14541   3.736   7.181   1.756  0.6842  0.3346  0.1325
    2PC     H3B14542   3.672   7.351   1.734 -0.6529 -0.3126 -0.1001
    2PC     H3C14543   3.790   7.323   1.863  1.4544  1.0405 -2.7162
    2PC     C3414544   3.571   7.362   1.969  0.4103  0.0491  0.2379
    2PC     H4A14545   3.473   7.358   2.018  0.3064 -0.1189  0.0174
    2PC     H4B14546   3.648   7.389   2.041  0.1452 -0.1029  0.5844
    2PC     H4C14547   3.563   7.440   1.893  2.2248 -1.4095 -1.5277
    2PC     C3514548   3.680   7.141   1.992  0.4386  0.0241 -0.1126
    2PC     H5A14549   3.616   7.122   2.078  2.2070  0.3697  1.3467
    2PC     H5B14550   3.773   7.189   2.024 -0.2730  0.7548  0.9541
    2PC     H5C14551   3.704   7.046   1.945  1.1666 -0.0386  0.3699
    2PC     O3314552   3.252   6.864   2.078  0.4103 -0.4289 -0.3501
    2PC     O3414553   3.190   7.078   2.160  0.1806 -0.2308  0.9200
    2PC     O2114554   3.488   6.861   2.499  0.0411  0.5958 -0.0340
    2PC     C2114555   3.380   6.782   2.510  0.3545  0.1604 -0.0529
    2PC     O2214556   3.350   6.695   2.431  0.9422  0.1398 -0.2588
    3OL     C1214557   3.314   6.813   2.642  0.6699  0.4202  0.0449
    3OL     H2R14558   3.268   6.911   2.649 -0.7392 -0.2368  0.3104
    3OL     H2S14559   3.394   6.800   2.716 -1.3154 -1.3314  2.0248
    3OL     C1314560   3.202   6.715   2.680  0.7914  0.3085  0.1144
    3OL     H3R14561   3.242   6.614   2.668 -0.6901 -0.2724 -0.1763
    3OL     H3S14562   3.116   6.739   2.618  0.4565 -0.6779  0.1799
    3OL     C1414563   3.162   6.730   2.827 -0.2051 -0.5145 -0.0572
    3OL     H4R14564   3.135   6.832   2.854 -1.6697 -0.9541  0.2362
    3OL     H4S14565   3.242   6.694   2.893  2.3715  1.9916 -1.5696
    3OL     C1514566   3.036   6.645   2.848 -0.1331 -0.6041  0.0157
    3OL     H5R14567   3.045   6.540   2.824  0.1837 -0.8327  1.0686
    3OL     H5S14568   2.959   6.685   2.782 -1.1412 -2.0318  0.2980
    3OL     C1614569   2.995   6.646   2.996 -0.4244 -0.3032 -0.0657
    3OL     H6R14570   3.072   6.612   3.066 -0.6799  0.9188  0.8424
    3OL     H6S14571   2.918   6.568   2.997  0.8190 -1.5557  0.6315
    3OL     C1714572   2.938   6.778   3.049  0.2579 -0.2379  0.5176
    3OL     H7R14573   2.878   6.835   2.977  3.0645  1.4959 -0.6399
    3OL     H7S14574   3.023   6.846   3.065 -0.0102  0.6490 -1.5260
    3OL     C1814575   2.865   6.740   3.178 -0.3002  0.2597  0.3544
    3OL     H8R14576   2.937   6.696   3.247  1.2111 -1.0503 -1.9358
    3OL     H8S14577   2.786   6.670   3.150  0.3017 -0.9096  1.4926
    3OL     C1914578   2.795   6.857   3.243  0.6215  0.9753  0.0767
    3OL     H9R14579   2.725   6.903   3.174  1.7650  1.3872 -0.8493
    3OL    C11014580   2.823   6.915   3.359  0.1991  0.5447  0.3947
    3OL    H10R14581   2.763   7.001   3.388  1.0795  1.6920 -1.0668
    3OL    C11114582   2.922   6.881   3.468  0.2126 -0.1578  0.1728
    3OL    H11R14583   3.002   6.956   3.478  0.9388 -1.0195  0.9874
    3OL    H11S14584   2.969   6.785   3.447 -1.2831 -1.2855  1.8155
    3OL    C11214585   2.837   6.857   3.593 -0.0696  0.3918  0.0903
    3OL    H12R14586   2.770   6.775   3.569 -0.1833  0.6432 -0.4548
    3OL    H12S14587   2.779   6.948   3.612  0.7665  1.0632 -0.4605
    3OL    C11314588   2.925   6.821   3.714 -0.3349 -0.4481  0.0394
    3OL    H13R14589   3.025   6.864   3.710  0.2058 -1.7490 -2.1313
    3OL    H13S14590   2.940   6.714   3.700  0.7711 -0.0701 -2.1596
    3OL    C11414591   2.850   6.844   3.846  0.4237  0.1768  0.3716
    3OL    H14R14592   2.801   6.941   3.846 -0.7095 -0.3285 -1.4928
    3OL    H14S14593   2.920   6.834   3.929  0.4394 -1.2999  0.2190
    3OL    C11514594   2.746   6.732   3.863  0.3977  0.0591 -0.5072
    3OL    H15R14595   2.790   6.632   3.862  1.9499  0.6354  2.0818
    3OL    H15S14596   2.676   6.725   3.780 -1.2234 -2.0022  0.9508
    3OL    C11614597   2.671   6.734   3.996 -0.6053 -0.0752 -1.0627
    3OL    H16R14598   2.616   6.826   4.014 -0.9417 -0.7022  1.5852
    3OL    H16S14599   2.740   6.710   4.078  1.1479 -0.5314 -2.6176
    3OL    C11714600   2.560   6.627   3.996 -0.8724  0.1662  0.5380
    3OL    H17R14601   2.595   6.529   3.963 -0.1590  0.3926  0.6125
    3OL    H17S14602   2.480   6.641   3.923  0.0480  0.3461 -0.4668
    3OL    C11814603   2.502   6.600   4.135 -0.6311 -0.5114  0.5092
    3OL    H18R14604   2.477   6.696   4.180  1.8957  0.4790 -0.0707
    3OL    H18S14605   2.584   6.553   4.189  0.2957 -1.9519 -1.9802
    3OL    H18T14606   2.420   6.528   4.130 -0.2909 -0.8053 -1.9469
    1PA    C11614607   0.999   5.412   3.679  0.3283  0.0738  0.2288
    1PA    H16R14608   1.069   5.413   3.762  0.9775 -1.5522 -0.2714
    1PA    H16S14609   1.055   5.473   3.608  0.2408 -0.8310 -0.6355
    1PA    H16T14610   0.983   5.309   3.647 -0.5116  0.8865 -2.2235
    1PA    C11514611   0.867   5.482   3.715  0.2135 -0.1064  0.1575
    1PA    H15R14612   0.818   5.459   3.810 -0.8455  2.9736  0.4763
    1PA    H15S14613   0.881   5.589   3.704  0.4320 -0.1993 -0.5349
    1PA    C11414614   0.759   5.450   3.610  0.4157  0.2679 -0.1689
    1PA    H14R14615   0.740   5.342   3.612  0.8925  0.1641 -0.9713
    1PA    H14S14616   0.667   5.500   3.641  0.6431 -1.3047  3.6795
    1PA    C11314617   0.797   5.497   3.469  0.5110  0.6546 -0.0153
    1PA    H13R14618   0.817   5.604   3.475  0.5033  0.5863  2.1508
    1PA    H13S14619   0.885   5.449   3.427 -0.3408 -2.8652  1.8304
    1PA    C11214620   0.678   5.476   3.374  0.5810 -0.6312  0.1680
    1PA    H12R14621   0.656   5.369   3.365  0.6327 -0.7070  0.8602
    1PA    H12S14622   0.589   5.513   3.425 -0.7727 -1.8557 -1.1739
    1PA    C11114623   0.705   5.549   3.242 -0.6554 -0.0846  0.2007
    1PA    H11R14624   0.800   5.603   3.231 -0.5061 -0.7551 -2.6747
    1PA    H11S14625   0.726   5.474   3.165  1.9309 -0.0451  0.7423
    1PA    C11014626   0.596   5.653   3.214 -0.4399  0.1170  0.1071
    1PA    H10R14627   0.510   5.599   3.176  0.6798 -0.4884 -1.7022
    1PA    H10S14628   0.576   5.694   3.313 -0.0915 -1.0205  0.6663
    1PA     C1914629   0.618   5.769   3.116 -0.0231  0.1324  0.2150
    1PA     H9R14630   0.524   5.825   3.119 -0.5059 -0.4738 -1.8336
    1PA     H9S14631   0.703   5.829   3.150  0.9613 -0.2515 -1.4190
    1PA     C1814632   0.655   5.729   2.972  0.1280 -0.1557  0.3323
    1PA     H8R14633   0.671   5.823   2.919 -1.4152  0.1824  0.4164
    1PA     H8S14634   0.742   5.663   2.963 -0.2248 -0.6284  0.3279
    1PA     C1714635   0.542   5.666   2.889  0.1876 -0.2703  0.3377
    1PA     H7R14636   0.513   5.570   2.933 -0.1148 -0.1860  0.3253
    1PA     H7S14637   0.451   5.727   2.891  0.3753  0.1060 -1.1901
    1PA     C1614638   0.596   5.619   2.753 -0.1521  0.2435  0.0192
    1PA     H6R14639   0.691   5.564   2.754 -0.5896 -0.5403 -0.7719
    1PA     H6S14640   0.524   5.547   2.714 -0.1219  0.0390  0.3318
    1PA     C1514641   0.600   5.725   2.643 -0.1636  0.5614  0.3223
    1PA     H5R14642   0.505   5.780   2.640 -1.6308 -1.8259  0.8260
    1PA     H5S14643   0.682   5.794   2.666  0.0902  0.9989 -1.6691
    1PA     C1414644   0.637   5.657   2.510 -0.5554  0.2575  0.3691
    1PA     H4R14645   0.735   5.612   2.521  0.1433  1.9021  1.2152
    1PA     H4S14646   0.553   5.589   2.498  0.1680 -0.4148 -1.0920
    1PA     C1314647   0.640   5.750   2.388 -0.6843 -0.5728 -0.2766
    1PA     H3R14648   0.541   5.789   2.362 -1.1294 -0.5601  1.3078
    1PA     H3S14649   0.692   5.839   2.422 -1.5598 -1.0565  2.6302
    1PA     C1214650   0.707   5.685   2.266 -0.7522 -0.5751 -0.3131
    1PA     H2R14651   0.815   5.675   2.285 -1.1015 -1.0728  1.6164
    1PA     H2S14652   0.662   5.586   2.263 -4.6002  0.8918  1.8977
    2PC     C1114653   0.685   5.756   2.135  0.4941  0.4895  0.0214
    2PC     O1214654   0.709   5.692   2.034  0.2189  0.3510  0.0427
    2PC     O1114655   0.635   5.880   2.135  0.1421  0.3469  0.2470
    2PC      C114656   0.610   5.950   2.012  0.1667  0.0436  0.0674
    2PC      HR14657   0.580   6.054   2.031 -0.1013  0.0156 -0.1979
    2PC      HS14658   0.694   5.942   1.943 -1.4055  0.6587 -1.9994
    2PC      C214659   0.490   5.889   1.939  0.1516  0.2245 -0.0592
    2PC      HX14660   0.515   5.786   1.916  0.5842 -0.1098  1.7609
    2PC      C314661   0.460   5.958   1.805  0.2882 -0.0366 -0.2243
    2PC      HA14662   0.424   6.057   1.835  0.6054  0.2427 -0.7336
    2PC      HB14663   0.548   5.971   1.741  0.0821  0.7494 -0.3628
    2PC     O3114664   0.353   5.879   1.752 -0.4347  0.6499  0.1887
    2PC     P3114665   0.303   5.896   1.601 -0.4095 -0.0476  0.0950
    2PC     O3214666   0.327   5.754   1.531  0.4962  0.0939  0.0967
    2PC     C3114667   0.317   5.635   1.612 -0.2514  0.2866  0.2991
    2PC     H1A14668   0.365   5.641   1.710 -1.7395  2.2227  0.9701
    2PC     H1B14669   0.211   5.625   1.635 -0.2262 -1.1116 -0.1096
    2PC     C3214670   0.357   5.519   1.520  0.0118  0.3949  0.2777
    2PC     H2A14671   0.307   5.430   1.558 -1.1555  0.6720 -0.5774
    2PC     H2B14672   0.316   5.529   1.420 -2.0751 -1.5207  0.8562
    2PC     N3114673   0.504   5.492   1.503 -0.2298 -0.8370  0.0849
    2PC     C3314674   0.557   5.439   1.633 -0.3379 -0.2005  0.3930
    2PC     H3A14675   0.549   5.516   1.709  0.3435 -0.8848  1.1830
    2PC     H3B14676   0.507   5.346   1.660 -1.5221  1.0386  2.7487
    2PC     H3C14677   0.660   5.409   1.611 -0.8271 -0.4369 -1.7632
    2PC     C3414678   0.537   5.391   1.397 -0.1000  0.3181 -0.9971
    2PC     H4A14679   0.502   5.421   1.298 -1.4204 -1.3751 -1.0960
    2PC     H4B14680   0.644   5.369   1.400 -0.6311 -2.8093 -1.2222
    2PC     H4C14681   0.482   5.300   1.423 -0.9658  1.3570  1.0607
    2PC     C3514682   0.586   5.612   1.467 -0.3980 -0.7345  0.0443
    2PC     H5A14683   0.686   5.577   1.443 -0.7678 -1.1499 -0.9143
    2PC     H5B14684   0.575   5.690   1.543  2.3238 -1.4025  1.2237
    2PC     H5C14685   0.548   5.658   1.376  0.7231 -1.2835 -0.7143
    2PC     O3314686   0.164   5.946   1.591 -0.2812  0.2289 -0.3416
    2PC     O3414687   0.388   5.998   1.534 -0.2157 -0.3998 -0.1952
    2PC     O2114688   0.372   5.894   2.022  0.1775  0.0764 -0.0140
    2PC     C2114689   0.335   5.788   2.096 -0.0170  0.0076 -0.2087
    2PC     O2214690   0.386   5.678   2.090  0.1598  0.0599  0.2977
    3OL     C1214691   0.212   5.819   2.178 -0.1231 -0.0591 -0.3428
    3OL     H2R14692   0.147   5.733   2.198 -0.3663  0.3525  0.6880
    3OL     H2S14693   0.136   5.880   2.129 -1.8889 -1.9838 -0.1637
    3OL     C1314694   0.252   5.882   2.312  0.4810 -0.1671 -0.4698
    3OL     H3R14695   0.313   5.817   2.376  0.1873  0.8665  0.9038
    3OL     H3S14696   0.164   5.892   2.375  1.5286 -1.0332  1.2190
    3OL     C1414697   0.319   6.019   2.300  0.3215  0.0021  0.4701
    3OL     H4R14698   0.248   6.077   2.240  3.4132  3.3974 -0.2628
    3OL     H4S14699   0.414   6.029   2.247  0.1147  0.5088  0.1866
    3OL     C1514700   0.350   6.084   2.435  0.1833 -0.2373  0.6183
    3OL     H5R14701   0.441   6.041   2.477  0.5882 -1.0249 -1.0025
    3OL     H5S14702   0.260   6.069   2.495 -0.3411  1.1874  0.2447
    3OL     C1614703   0.376   6.236   2.425 -0.2280 -0.1841  0.3556
    3OL     H6R14704   0.284   6.276   2.382 -1.3425 -0.1640  2.5750
    3OL     H6S14705   0.462   6.258   2.362 -1.0949  0.8911 -0.5004
    3OL     C1714706   0.375   6.300   2.564 -0.1404  0.3631  0.1035
    3OL     H7R14707   0.279   6.280   2.612  0.4565 -1.1579  0.7205
    3OL     H7S14708   0.373   6.406   2.536 -0.3666  0.1178 -0.8272
    3OL     C1814709   0.502   6.264   2.643  0.3816  0.5415 -0.6420
    3OL     H8R14710   0.590   6.278   2.580 -0.0745  1.8604 -1.0306
    3OL     H8S14711   0.503   6.156   2.655 -2.7091  0.0640 -3.2964
    3OL     C1914712   0.522   6.340   2.772 -0.3916  0.3912 -0.4227
    3OL     H9R14713   0.573   6.435   2.756 -0.8505  0.7261  0.1149
    3OL    C11014714   0.482   6.307   2.893 -0.7477 -0.0119 -0.6481
    3OL    H10R14715   0.503   6.369   2.980 -1.4390 -1.7883  0.8562
    3OL    C11114716   0.431   6.172   2.937 -0.1647  0.0932  0.3761
    3OL    H11R14717   0.456   6.155   3.042  0.1640  2.6237  0.7780
    3OL    H11S14718   0.474   6.098   2.869  0.1401  2.1425 -1.7762
    3OL    C11214719   0.279   6.166   2.920 -0.1578  0.3693  0.2066
    3OL    H12R14720   0.231   6.160   2.822  1.2227 -1.4120 -0.4176
    3OL    H12S14721   0.247   6.261   2.963 -2.1937 -0.3597  0.4210
    3OL    C11314722   0.207   6.048   2.987 -0.4040  0.4657  0.1148
    3OL    H13R14723   0.252   5.959   2.942  2.8147  1.6410  0.7456
    3OL    H13S14724   0.101   6.050   2.960 -0.0852 -0.9559 -1.3534
    3OL    C11414725   0.225   6.046   3.140 -0.5452  0.0433  0.1286
    3OL    H14R14726   0.330   6.052   3.169 -0.4209 -2.7604  0.5216
    3OL    H14S14727   0.193   5.950   3.180  0.2049 -0.9869 -1.5957
    3OL    C11514728   0.164   6.169   3.209 -0.2257  0.3195 -0.0747
    3OL    H15R14729   0.057   6.183   3.198 -0.2940  0.1377  0.3448
    3OL    H15S14730   0.216   6.258   3.172 -0.7013  0.7099  0.1954
    3OL    C11614731   0.183   6.164   3.361 -0.1361  0.3438 -0.0848
    3OL    H16R14732   0.288   6.143   3.384 -0.0290  0.1212 -0.7748
    3OL    H16S14733   0.127   6.079   3.402  1.8387 -1.4820 -1.0094
    3OL    C11714734   0.139   6.300   3.416  0.6379  0.6217 -0.1454
    3OL    H17R14735   0.037   6.328   3.388  0.3126  1.6047  1.8288
    3OL    H17S14736   0.205   6.377   3.375 -1.2450  3.1121  1.1983
    3OL    C11814737   0.153   6.300   3.569  0.2381  0.3332 -0.1074
    3OL    H18R14738   0.259   6.278   3.586  0.9060  2.1456 -1.6112
    3OL    H18S14739   0.090   6.224   3.617 -1.0013  0.2184 -1.8157
    3OL    H18T14740   0.131   6.392   3.623 -2.4540 -1.5200  2.2849
    1PA    C11614741   5.985   0.767   4.074  0.0687 -0.2615 -0.3720
    1PA    H16R14742   6.071   0.754   4.140  1.6076  0.0061 -2.2497
    1PA    H16S14743   5.897   0.715   4.112 -1.0163  0.2155 -2.1092
    1PA    H16T14744   5.964   0.873   4.058  0.0549  0.2227  2.3245
    1PA    C11514745   6.036   0.697   3.947  0.4353  0.4265 -0.6070
    1PA    H15R14746   5.948   0.707   3.883 -0.4199 -4.8249 -0.6381
    1PA    H15S14747   6.112   0.762   3.903 -0.8352  2.1315 -0.4308
    1PA    C11414748   6.064   0.549   3.975  0.1631  0.5606  0.4116
    1PA    H14R14749   6.138   0.543   4.056 -1.8738  1.2137  2.4233
    1PA    H14S14750   5.975   0.497   4.012  0.2952  0.4704  0.6079
    1PA    C11314751   6.105   0.484   3.843 -0.6065  0.2645  0.3152
    1PA    H13R14752   6.123   0.560   3.766  1.6813  1.9348  2.3605
    1PA    H13S14753   6.202   0.435   3.855 -0.9438 -0.4863  0.0578
    1PA    C11214754   6.012   0.375   3.788  0.2906 -0.2273 -0.2668
    1PA    H12R14755   6.031   0.284   3.844 -0.6786  0.3269  1.0177
    1PA    H12S14756   5.908   0.402   3.810  0.0414 -2.0207  0.9860
    1PA    C11114757   6.050   0.352   3.641 -0.4601 -0.3463 -0.4489
    1PA    H11R14758   6.017   0.436   3.580  0.3136 -0.2563 -0.7488
    1PA    H11S14759   6.158   0.337   3.634 -0.4778 -0.4962 -0.4024
    1PA    C11014760   5.976   0.226   3.592  0.3297 -0.9181 -0.1991
    1PA    H10R14761   6.026   0.137   3.629  0.9430  0.1144  1.5959
    1PA    H10S14762   5.874   0.229   3.631  0.9320 -2.7642  1.6841
    1PA     C1914763   5.982   0.219   3.439 -0.3202 -0.4853 -0.2490
    1PA     H9R14764   5.947   0.311   3.391 -1.1239 -1.8814 -2.5015
    1PA     H9S14765   6.088   0.207   3.418  0.0525 -0.5870  1.5107
    1PA     C1814766   5.896   0.099   3.397 -0.4336 -0.5241  0.0862
    1PA     H8R14767   5.939   0.001   3.416 -0.3414 -0.5129 -0.0593
    1PA     H8S14768   5.810   0.115   3.462 -0.6681  0.9812 -0.5402
    1PA     C1714769   5.872   0.105   3.245 -0.4773 -0.3388  0.1005
    1PA     H7R14770   5.850   0.208   3.216  2.3386 -0.1522 -1.6848
    1PA     H7S14771   5.971   0.080   3.207 -0.1857  0.4412  0.3156
    1PA     C1614772   5.770   0.010   3.180 -0.6558 -0.1873  0.1562
    1PA     H6R14773   5.812  -0.090   3.192  1.8677  0.4803 -1.9867
    1PA     H6S14774   5.678   0.009   3.238  0.2656  0.2578  1.6624
    1PA     C1514775   5.754   0.033   3.029 -0.0707  0.3361  0.1668
    1PA     H5R14776   5.705   0.130   3.017 -0.1709  0.6929  2.9068
    1PA     H5S14777   5.850   0.039   2.977  0.6262  0.4902  1.4398
    1PA     C1414778   5.671  -0.079   2.964  0.0717  0.3101  0.0304
    1PA     H4R14779   5.710  -0.180   2.973 -1.4970 -0.2418  0.8976
    1PA     H4S14780   5.568  -0.080   3.000  0.8680 -1.9657  2.4968
    1PA     C1314781   5.679  -0.051   2.813  0.1343  0.9423  0.1456
    1PA     H3R14782   5.660   0.055   2.795 -2.9114  0.9043  2.2032
    1PA     H3S14783   5.775  -0.082   2.771 -1.0038 -1.7788 -0.7171
    1PA     C1214784   5.566  -0.129   2.744  0.5453  0.4630  0.0107
    1PA     H2R14785   5.579  -0.237   2.757 -2.2084  0.0295 -0.1219
    1PA     H2S14786   5.466  -0.119   2.787  0.4437  0.5131 -0.2350
    2PC     C1114787   5.556  -0.106   2.595  0.2801 -0.1755 -0.0736
    2PC     O1214788   5.642  -0.064   2.520 -0.5627 -0.0405 -0.9851
    2PC     O1114789   5.431  -0.131   2.554  0.2304 -0.0578  0.0039
    2PC      C114790   5.397  -0.131   2.414  0.5372 -0.0332 -0.0713
    2PC      HR14791   5.401  -0.028   2.377  3.0544  1.2522  3.2844
    2PC      HS14792   5.475  -0.191   2.367  0.7865 -0.0172  0.3188
    2PC      C214793   5.258  -0.194   2.391  0.3308  0.3344  0.1576
    2PC      HX14794   5.247  -0.292   2.437 -0.9888  0.6962  0.6520
    2PC      C314795   5.227  -0.185   2.241  0.1670  0.3595  0.1932
    2PC      HA14796   5.268  -0.267   2.182  1.8600  0.9658  0.4559
    2PC      HB14797   5.120  -0.205   2.237  0.1885 -1.5079  4.1989
    2PC     O3114798   5.247  -0.051   2.191  0.2570  0.3464  0.1960
    2PC     P3114799   5.213  -0.031   2.035 -0.1893 -0.0128  0.2445
    2PC     O3214800   5.053  -0.032   2.040 -0.1735 -1.0781  0.7743
    2PC     C3114801   4.974  -0.075   1.928  0.0205  0.7171 -0.0909
    2PC     H1A14802   4.962   0.000   1.850 -1.3528 -0.8261 -1.4324
    2PC     H1B14803   5.020  -0.163   1.882 -1.4237 -1.7549  2.8452
    2PC     C3214804   4.834  -0.106   1.983  0.1232  0.3198 -0.0464
    2PC     H2A14805   4.770  -0.137   1.900  0.8271  1.8301 -1.2052
    2PC     H2B14806   4.825  -0.187   2.055 -1.6199  0.5290  0.0007
    2PC     N3114807   4.758   0.004   2.050 -0.4308 -0.1747  0.1436
    2PC     C3314808   4.758   0.129   1.967 -0.6084 -0.5435 -0.4172
    2PC     H3A14809   4.858   0.173   1.966 -1.4683  1.6517  1.2771
    2PC     H3B14810   4.738   0.100   1.864  0.7858 -0.6012 -0.6901
    2PC     H3C14811   4.690   0.200   2.014 -0.9941  0.6286 -2.6141
    2PC     C3414812   4.616  -0.042   2.043 -0.4117 -0.1913 -0.1481
    2PC     H4A14813   4.619  -0.143   2.085 -1.2903  0.2034  0.9277
    2PC     H4B14814   4.560   0.025   2.109 -0.2665  0.4735 -0.6896
    2PC     H4C14815   4.573  -0.049   1.943 -2.9023  0.9394  0.7673
    2PC     C3514816   4.799   0.030   2.192 -0.5224 -0.7687  0.2811
    2PC     H5A14817   4.790  -0.063   2.249 -1.6483 -0.3345  0.8381
    2PC     H5B14818   4.740   0.105   2.246 -0.0324 -0.6534  0.6657
    2PC     H5C14819   4.898   0.077   2.196 -1.2553  1.1702 -2.0708
    2PC     O3314820   5.266   0.097   1.982  0.3625 -0.5332 -0.4635
    2PC     O3414821   5.275  -0.120   1.935 -0.5353  0.3613 -0.3078
    2PC     O2114822   5.158  -0.121   2.463  0.1882 -0.2120  0.5179
    2PC     C2114823   5.029  -0.159   2.470  0.0035  0.3401  0.1892
    2PC     O2214824   4.986  -0.260   2.419  0.6522  0.0442  0.2155
    3OL     C1214825   4.951  -0.069   2.562 -0.5733  0.2225 -0.1781
    3OL     H2R14826   4.864  -0.037   2.505 -0.6785 -0.2689 -0.2954
    3OL     H2S14827   5.013   0.021   2.573  1.7124 -1.0741 -1.6885
    3OL     C1314828   4.925  -0.126   2.702  0.1325  0.3534  0.0108
    3OL     H3R14829   4.875  -0.222   2.686  0.1571  0.3199  0.1299
    3OL     H3S14830   4.850  -0.058   2.744  1.1948  0.4580  1.8782
    3OL     C1414831   5.046  -0.131   2.797  0.4113  0.3335 -0.3461
    3OL     H4R14832   5.117  -0.194   2.742 -1.5596 -1.0750 -1.4127
    3OL     H4S14833   5.031  -0.192   2.886  1.4574  0.4197 -0.1033
    3OL     C1514834   5.089   0.007   2.849 -0.2255  0.3386  0.1806
    3OL     H5R14835   5.002   0.062   2.884  0.3290  1.0027  0.5343
    3OL     H5S14836   5.125   0.065   2.764  0.1023 -0.0863  0.0246
    3OL     C1614837   5.205   0.002   2.950  0.0242 -0.4299 -0.1356
    3OL     H6R14838   5.290  -0.046   2.901  0.3104  0.0089 -0.0745
    3OL     H6S14839   5.163  -0.061   3.028 -0.0125 -3.5023 -2.4063
    3OL     C1714840   5.241   0.144   2.993  0.1331 -0.5173  0.0621
    3OL     H7R14841   5.147   0.187   3.027 -0.0536 -1.0952  0.2880
    3OL     H7S14842   5.273   0.211   2.912  0.1191 -0.2082  0.3072
    3OL     C1814843   5.347   0.156   3.104 -0.0681  0.7072  0.1431
    3OL     H8R14844   5.439   0.124   3.055 -0.4045  2.7826 -2.0025
    3OL     H8S14845   5.314   0.082   3.178 -0.9224  0.6459 -0.2860
    3OL     C1914846   5.371   0.298   3.149  0.3080  0.6512  0.1239
    3OL     H9R14847   5.333   0.379   3.088  0.5812  1.1646  0.6347
    3OL    C11014848   5.437   0.336   3.257  0.8477  0.2261 -0.0508
    3OL    H10R14849   5.437   0.442   3.283  2.5557 -0.0190  1.0968
    3OL    C11114850   5.511   0.253   3.359 -0.1325 -0.0504  0.4426
    3OL    H11R14851   5.617   0.277   3.350  0.5389 -3.1044 -0.8997
    3OL    H11S14852   5.496   0.146   3.340 -3.1062  0.1648  1.0058
    3OL    C11214853   5.468   0.296   3.500 -0.6307 -0.0139  0.2811
    3OL    H12R14854   5.359   0.306   3.492 -0.3797  2.2770 -1.3758
    3OL    H12S14855   5.516   0.390   3.526  0.8661 -0.8803  0.7536
    3OL    C11314856   5.519   0.189   3.597 -0.3077  0.1219  0.2609
    3OL    H13R14857   5.628   0.188   3.593 -0.2858 -2.2512  0.1122
    3OL    H13S14858   5.485   0.089   3.568 -1.6965 -0.0174  2.1547
    3OL    C11414859   5.489   0.227   3.743 -0.0993 -0.4236  0.4477
    3OL    H14R14860   5.554   0.166   3.806  0.1922 -0.5534  0.0281
    3OL    H14S14861   5.384   0.211   3.770 -0.0647 -0.3003  0.6614
    3OL    C11514862   5.522   0.371   3.785 -0.1388 -0.3807  0.3320
    3OL    H15R14863   5.469   0.446   3.726  2.6363  0.6628 -1.0510
    3OL    H15S14864   5.628   0.385   3.759  0.0592 -1.1268  0.6971
    3OL    C11614865   5.492   0.409   3.930 -0.1892 -0.4442  0.3380
    3OL    H16R14866   5.390   0.387   3.962  0.6187 -2.7542  1.6484
    3OL    H16S14867   5.507   0.517   3.933  0.1349 -0.4508 -0.6582
    3OL    C11714868   5.590   0.351   4.034  0.8343  0.2001 -0.2542
    3OL    H17R14869   5.602   0.245   4.009 -1.7581  0.1331 -1.5528
    3OL    H17S14870   5.545   0.353   4.133 -2.2366 -4.1139 -1.2677
    3OL    C11814871   5.728   0.418   4.036  0.7059  0.4567  0.1400
    3OL    H18R14872   5.763   0.439   3.935  0.9506  1.0541  0.3441
    3OL    H18S14873   5.801   0.352   4.085 -1.2233 -3.3344 -1.6807
    3OL    H18T14874   5.709   0.514   4.084  3.0385  0.6669  0.7639
    1PA    C11614875   2.360   5.179   3.403 -0.1042  0.2035 -0.3586
    1PA    H16R14876   2.329   5.078   3.374 -1.4247  0.6997 -0.7538
    1PA    H16S14877   2.434   5.164   3.482 -0.2178 -1.2652 -0.4945
    1PA    H16T14878   2.409   5.222   3.315  0.5557 -2.0271 -1.1589
    1PA    C11514879   2.244   5.253   3.470 -0.1520 -0.1346 -0.0649
    1PA    H15R14880   2.215   5.194   3.557 -1.1798 -0.5938 -0.7034
    1PA    H15S14881   2.298   5.340   3.509 -1.6743  0.5926  0.5250
    1PA    C11414882   2.122   5.299   3.388  0.5151  0.2226 -0.8656
    1PA    H14R14883   2.078   5.383   3.442  0.1251 -0.9478  0.6985
    1PA    H14S14884   2.155   5.327   3.287 -0.6925 -1.8219 -1.8985
    1PA    C11314885   2.030   5.178   3.370  0.2589  0.2373  0.2657
    1PA    H13R14886   2.091   5.093   3.337 -0.5960 -0.4820  0.5037
    1PA    H13S14887   1.991   5.149   3.468  0.6298  0.3431  0.4464
    1PA    C11214888   1.907   5.200   3.282  0.4810 -0.6913 -0.2962
    1PA    H12R14889   1.842   5.112   3.276  0.1260 -0.4040 -0.7455
    1PA    H12S14890   1.851   5.271   3.344 -0.9846 -1.7007 -0.3908
    1PA    C11114891   1.939   5.255   3.142  0.1241 -0.3381 -0.2429
    1PA    H11R14892   2.000   5.345   3.147  0.9363 -0.8838 -0.1095
    1PA    H11S14893   2.009   5.188   3.092  0.6941 -0.2141  0.3667
    1PA    C11014894   1.808   5.275   3.066 -0.0494 -0.2089  0.0887
    1PA    H10R14895   1.757   5.178   3.068  0.2488 -0.3506  1.3822
    1PA    H10S14896   1.755   5.345   3.131  0.7412 -1.7504  2.5350
    1PA     C1914897   1.822   5.317   2.919 -0.3459 -0.1701  0.0703
    1PA     H9R14898   1.725   5.359   2.892  0.0839  0.4413 -0.5572
    1PA     H9S14899   1.843   5.226   2.862 -2.3112 -0.4140 -0.3573
    1PA     C1814900   1.927   5.424   2.889  0.1566 -0.7090 -0.1161
    1PA     H8R14901   1.895   5.523   2.922 -0.4371 -0.8598 -0.2309
    1PA     H8S14902   2.019   5.402   2.943 -0.2828  0.1896  1.0408
    1PA     C1714903   1.952   5.435   2.738 -0.4639  0.1788 -0.1638
    1PA     H7R14904   1.998   5.346   2.695 -3.1213  0.1796 -3.4066
    1PA     H7S14905   1.854   5.442   2.691 -0.4902 -0.2454 -0.1763
    1PA     C1614906   2.029   5.560   2.695 -1.0152  0.6479  0.1978
    1PA     H6R14907   1.969   5.648   2.717  0.2243  1.4667  0.3855
    1PA     H6S14908   2.121   5.570   2.753  1.1351 -0.6578 -2.6960
    1PA     C1514909   2.074   5.570   2.548  0.1926  0.4600  0.5410
    1PA     H5R14910   2.141   5.486   2.527 -1.5833 -0.6443 -1.0653
    1PA     H5S14911   1.988   5.569   2.481  0.7543 -2.9186 -0.3379
    1PA     C1414912   2.146   5.703   2.523 -0.0299  0.5366  0.3073
    1PA     H4R14913   2.085   5.785   2.562 -0.4560  1.1688 -1.5887
    1PA     H4S14914   2.244   5.707   2.571  0.8200 -1.0935 -1.1694
    1PA     C1314915   2.153   5.735   2.373  0.4333 -0.1293  0.1833
    1PA     H3R14916   2.217   5.658   2.329 -0.7401 -1.9908  1.5622
    1PA     H3S14917   2.054   5.730   2.327  0.1807  1.3018  0.5318
    1PA     C1214918   2.215   5.872   2.345  0.3871 -0.1866 -0.1953
    1PA     H2R14919   2.179   5.949   2.414  1.0909 -1.0626  1.1901
    1PA     H2S14920   2.322   5.875   2.363  0.0714  0.3280  1.8767
    2PC     C1114921   2.190   5.917   2.203 -0.0701 -0.3151 -0.1577
    2PC     O1214922   2.145   6.027   2.175  0.0875 -0.2224 -0.0499
    2PC     O1114923   2.221   5.811   2.127  0.8276  0.1164 -0.4126
    2PC      C114924   2.209   5.828   1.984 -0.2285  0.1609 -0.3311
    2PC      HR14925   2.103   5.835   1.960 -0.7384 -0.4082  1.5715
    2PC      HS14926   2.257   5.921   1.950 -0.3020 -0.0957 -1.1593
    2PC      C214927   2.265   5.709   1.906 -0.1787 -0.0103 -0.0342
    2PC      HX14928   2.373   5.692   1.917 -0.3572 -0.3593  1.4396
    2PC      C314929   2.226   5.724   1.758 -0.6484  0.4176  0.1325
    2PC      HA14930   2.119   5.739   1.747 -0.7935  0.0571  0.9550
    2PC      HB14931   2.278   5.809   1.712  1.5891 -0.6663  0.4972
    2PC     O3114932   2.283   5.614   1.684 -0.2210  0.5189  0.3064
    2PC     P3114933   2.248   5.588   1.530 -0.0669 -0.2342  0.3981
    2PC     O3214934   2.346   5.682   1.447  0.0063  0.0501  0.8027
    2PC     C3114935   2.486   5.648   1.451 -0.0359 -0.1899  0.3175
    2PC     H1A14936   2.521   5.668   1.552 -0.8338  0.7643  0.4231
    2PC     H1B14937   2.504   5.545   1.420  0.5651 -0.9181  2.8811
    2PC     C3214938   2.570   5.741   1.362 -0.1208 -0.1067  0.3232
    2PC     H2A14939   2.674   5.707   1.366 -0.8228 -3.0268 -2.1787
    2PC     H2B14940   2.551   5.739   1.254  2.2736  4.3014 -0.4196
    2PC     N3114941   2.583   5.885   1.400 -0.4851  0.3041 -1.0312
    2PC     C3314942   2.629   5.960   1.279  0.1823  0.4336 -0.7037
    2PC     H3A14943   2.728   5.920   1.254  1.0577  0.4423  2.3321
    2PC     H3B14944   2.552   5.948   1.202  0.6806 -0.8588 -1.0287
    2PC     H3C14945   2.635   6.067   1.297 -1.7653  0.5084 -0.3208
    2PC     C3414946   2.459   5.957   1.443 -0.1056  0.3263  0.0500
    2PC     H4A14947   2.491   6.056   1.477  2.1155  0.2035 -1.5012
    2PC     H4B14948   2.390   5.943   1.360  0.5275  0.0484 -0.4394
    2PC     H4C14949   2.415   5.914   1.533  1.2707  0.4743  0.8362
    2PC     C3514950   2.685   5.901   1.509 -0.7745 -0.1609 -0.6891
    2PC     H5A14951   2.649   5.850   1.599  0.5235 -3.3531 -1.8331
    2PC     H5B14952   2.706   6.007   1.526  0.4273 -0.5675  0.5273
    2PC     H5C14953   2.770   5.839   1.479  0.3093  0.9644 -0.0234
    2PC     O3314954   2.257   5.444   1.496 -0.4912 -0.0492 -0.5109
    2PC     O3414955   2.111   5.629   1.492  0.2005  0.0346 -0.2875
    2PC     O2114956   2.197   5.592   1.956 -0.2123  0.0635  0.0930
    2PC     C2114957   2.266   5.491   2.011 -0.3135 -0.0583 -0.0034
    2PC     O2214958   2.387   5.489   2.020 -0.3395 -0.3735  0.3157
    3OL     C1214959   2.174   5.378   2.049 -0.4316 -0.0066 -0.1385
    3OL     H2R14960   2.226   5.283   2.033  1.0229  0.9048 -0.9878
    3OL     H2S14961   2.092   5.375   1.977 -1.3269 -0.6439  0.8743
    3OL     C1314962   2.109   5.379   2.188  0.2664 -0.2411  0.1948
    3OL     H3R14963   2.044   5.466   2.197 -0.7047 -1.1462  2.8219
    3OL     H3S14964   2.189   5.387   2.262  1.7112 -1.3136 -1.1845
    3OL     C1414965   2.027   5.252   2.210 -0.0424 -0.0253  0.2966
    3OL     H4R14966   2.078   5.164   2.168  0.0043 -1.0610  2.3928
    3OL     H4S14967   1.936   5.263   2.151  0.1563 -0.3462 -0.0732
    3OL     C1514968   1.991   5.217   2.355 -0.2813  0.2048  0.2938
    3OL     H5R14969   1.921   5.287   2.401  0.5360  2.3527 -1.5798
    3OL     H5S14970   2.087   5.228   2.405 -1.0575  2.0940  1.4612
    3OL     C1614971   1.933   5.076   2.378 -0.7490  0.2934 -0.3237
    3OL     H6R14972   1.994   4.996   2.334 -1.9519 -0.9261  0.1532
    3OL     H6S14973   1.841   5.061   2.321 -1.6970 -0.4195  1.3348
    3OL     C1714974   1.894   5.044   2.522  0.3430 -0.1481 -0.1170
    3OL     H7R14975   1.823   4.961   2.523  1.8255 -1.4863 -0.7106
    3OL     H7S14976   1.839   5.127   2.567 -1.7590 -0.2199 -2.3668
    3OL     C1814977   2.021   5.007   2.601  0.2501  0.0029  0.1033
    3OL     H8R14978   2.061   5.090   2.660 -0.0686  0.8149 -0.8053
    3OL     H8S14979   2.098   4.966   2.536 -0.4640 -1.5394  0.1991
    3OL     C1914980   1.999   4.893   2.697 -0.0577  0.0548  0.0974
    3OL     H9R14981   1.915   4.912   2.764 -0.0767  1.0009 -0.1764
    3OL    C11014982   2.053   4.772   2.699 -0.0281  0.0632 -0.2056
    3OL    H10R14983   1.997   4.702   2.761 -0.7811  1.7026  1.0623
    3OL    C11114984   2.189   4.730   2.650  0.1123  0.8690 -0.5292
    3OL    H11R14985   2.214   4.646   2.716  2.1205  1.7003 -0.1677
    3OL    H11S14986   2.272   4.797   2.673  1.5931 -0.9275 -0.3710
    3OL    C11214987   2.191   4.688   2.502  0.2052 -0.8714 -0.0609
    3OL    H12R14988   2.168   4.771   2.435  0.3975  0.0565  1.0018
    3OL    H12S14989   2.109   4.623   2.471  0.9466 -0.8844 -2.1652
    3OL    C11314990   2.329   4.640   2.457  0.4099 -0.0729 -0.3012
    3OL    H13R14991   2.400   4.709   2.502 -0.8503  0.9765  0.1308
    3OL    H13S14992   2.333   4.646   2.348 -3.3493  1.8548 -0.4762
    3OL    C11414993   2.369   4.500   2.508  0.7605 -0.0432 -0.4905
    3OL    H14R14994   2.316   4.426   2.447 -0.6591 -2.3424  3.2198
    3OL    H14S14995   2.337   4.488   2.612  1.0212  0.0134 -0.4041
    3OL    C11514996   2.521   4.479   2.509  0.7598 -0.0423 -0.3668
    3OL    H15R14997   2.570   4.551   2.575 -1.3568  1.0476  0.1210
    3OL    H15S14998   2.553   4.508   2.408  0.2410 -0.2923 -0.6059
    3OL    C11614999   2.569   4.339   2.548  0.5023 -0.0217  0.0223
    3OL    H16R15000   2.519   4.325   2.645 -0.6579 -1.7183 -0.7631
    3OL    H16S15001   2.676   4.342   2.566  0.4080 -1.3362  1.0138
    3OL    C11715002   2.536   4.222   2.454 -0.1969  0.0417  0.1817
    3OL    H17R15003   2.428   4.216   2.435  0.0222 -0.8608 -0.8594
    3OL    H17S15004   2.560   4.127   2.503 -0.3500  0.7152  1.6335
    3OL    C11815005   2.610   4.220   2.320 -1.0713 -0.0872 -0.3066
    3OL    H18R15006   2.574   4.289   2.243 -0.7813 -0.0734 -0.4312
    3OL    H18S15007   2.609   4.121   2.275  1.1723  0.7912 -2.4997
    3OL    H18T15008   2.714   4.242   2.346 -1.5531 -0.5325  2.2699
    1PA    C11615009   1.057   4.592   3.282  0.2094  0.0017 -0.0223
    1PA    H16R15010   1.013   4.679   3.331 -1.0379 -0.9171  0.5476
    1PA    H16S15011   1.165   4.593   3.295  0.1693 -2.7940  1.1465
    1PA    H16T15012   1.009   4.504   3.325 -0.0188 -0.7589 -1.7628
    1PA    C11515013   1.007   4.616   3.139  0.6103 -0.3090 -0.2182
    1PA    H15R15014   1.041   4.532   3.079  1.3443 -0.0091 -0.2342
    1PA    H15S15015   0.897   4.617   3.142  0.5325 -1.6431 -1.5605
    1PA    C11415016   1.053   4.749   3.077  0.0925  0.0465  0.1465
    1PA    H14R15017   1.036   4.839   3.136 -1.5669  1.3004 -2.0800
    1PA    H14S15018   1.156   4.745   3.040 -1.3755 -1.1354 -4.4861
    1PA    C11315019   0.969   4.772   2.950 -0.0050 -0.5327  0.1022
    1PA    H13R15020   0.864   4.761   2.976  0.1335  0.6080  1.2525
    1PA    H13S15021   0.963   4.879   2.928  0.1604 -0.1420  1.7811
    1PA    C11215022   1.006   4.694   2.823 -0.1156  0.0685 -0.3050
    1PA    H12R15023   1.106   4.653   2.841 -0.3634 -0.8146 -0.8809
    1PA    H12S15024   0.946   4.604   2.807  1.6649 -1.1378 -0.6080
    1PA    C11115025   1.020   4.783   2.700  0.2510  0.1673 -0.1952
    1PA    H11R15026   0.944   4.862   2.704 -0.4363 -0.4244 -1.0802
    1PA    H11S15027   1.118   4.830   2.707  2.0135 -3.3572  0.9041
    1PA    C11015028   1.002   4.708   2.567 -0.2819  0.2316 -0.1623
    1PA    H10R15029   1.072   4.625   2.579 -0.8494 -0.1311  0.7637
    1PA    H10S15030   0.905   4.658   2.557 -0.6006  0.6722  0.6557
    1PA     C1915031   1.031   4.788   2.439  0.3171  0.5268  0.1545
    1PA     H9R15032   0.999   4.728   2.353 -3.2695  0.3073  1.4625
    1PA     H9S15033   0.973   4.880   2.447  0.0365  0.3526  0.1283
    1PA     C1815034   1.179   4.828   2.427  0.4155  0.1959  0.2518
    1PA     H8R15035   1.198   4.892   2.514 -2.5213 -0.4974  1.5319
    1PA     H8S15036   1.242   4.739   2.438 -0.0872 -0.2839 -0.6327
    1PA     C1715037   1.210   4.909   2.300 -0.1276 -0.0423 -0.0354
    1PA     H7R15038   1.172   4.866   2.207 -2.2150 -0.0349  0.7478
    1PA     H7S15039   1.167   5.008   2.318  1.9688  1.0656 -0.8170
    1PA     C1615040   1.362   4.921   2.288 -0.1422  0.2942  0.1251
    1PA     H6R15041   1.414   4.988   2.358  0.3784 -0.4508  0.4576
    1PA     H6S15042   1.407   4.822   2.290 -1.9536 -0.6623 -2.2140
    1PA     C1515043   1.390   4.972   2.146 -0.1042 -0.1664 -0.0339
    1PA     H5R15044   1.348   4.906   2.070  0.4507 -1.7566  0.9825
    1PA     H5S15045   1.348   5.072   2.130 -0.4429 -0.0242  1.5322
    1PA     C1415046   1.541   4.970   2.119  0.0231  0.1513  0.6394
    1PA     H4R15047   1.596   5.014   2.203 -1.5544  4.5652 -0.3811
    1PA     H4S15048   1.573   4.866   2.116 -1.3037 -0.2828  0.9313
    1PA     C1315049   1.586   5.046   1.994 -0.0324 -0.3293  0.3265
    1PA     H3R15050   1.563   4.978   1.912  0.2383  1.1801 -1.0504
    1PA     H3S15051   1.528   5.139   1.988  2.2796  1.1101 -1.2013
    1PA     C1215052   1.735   5.080   1.988 -0.1519  0.1566  0.0068
    1PA     H2R15053   1.768   5.147   1.909  1.5241 -1.3031 -0.6235
    1PA     H2S15054   1.749   5.142   2.077 -2.3508  1.0868 -0.2331
    2PC     C1115055   1.830   4.963   1.975 -0.1810  0.0995  0.3066
    2PC     O1215056   1.797   4.852   1.939 -0.1365  0.1334  0.1614
    2PC     O1115057   1.958   4.997   2.000 -0.1101  0.5365 -0.6207
    2PC      C115058   2.061   4.908   1.953  0.0410  0.4542 -0.1404
    2PC      HR15059   2.068   4.814   2.009 -0.8257 -0.3824 -1.3746
    2PC      HS15060   2.036   4.888   1.848 -0.5432 -0.0788  0.0953
    2PC      C215061   2.199   4.975   1.954  0.2983 -0.0649 -0.2469
    2PC      HX15062   2.169   5.080   1.942 -0.5862 -0.4767 -2.0496
    2PC      C315063   2.289   4.946   1.833 -0.2378  0.0968 -0.6907
    2PC      HA15064   2.241   5.002   1.753 -3.8839 -1.2700  0.3279
    2PC      HB15065   2.387   4.985   1.860 -1.3398  3.4730 -1.0700
    2PC     O3115066   2.266   4.806   1.808  0.2735 -0.2365  0.6294
    2PC     P3115067   2.292   4.745   1.662 -0.2030  0.3195  0.3103
    2PC     O3215068   2.274   4.589   1.696 -0.0492  0.2742  0.1837
    2PC     C3115069   2.148   4.521   1.687 -0.3063  0.7291  0.3139
    2PC     H1A15070   2.077   4.574   1.751 -0.4892  0.6941  0.1400
    2PC     H1B15071   2.110   4.519   1.585 -0.2529 -1.9073  0.2745
    2PC     C3215072   2.174   4.376   1.731  0.2930  0.6190 -0.3913
    2PC     H2A15073   2.220   4.383   1.830  1.2424  2.0895 -0.9033
    2PC     H2B15074   2.078   4.326   1.735  0.9489 -0.7207 -1.0052
    2PC     N3115075   2.281   4.295   1.665  0.0569  0.1750 -0.2319
    2PC     C3315076   2.255   4.157   1.718  0.3403  0.2427  0.0899
    2PC     H3A15077   2.146   4.162   1.723  0.3670  3.2377 -0.2557
    2PC     H3B15078   2.287   4.081   1.646  3.3163 -0.2935  1.8223
    2PC     H3C15079   2.302   4.144   1.815  0.2805 -1.5795 -0.0901
    2PC     C3415080   2.272   4.291   1.515 -0.2582 -0.1085 -0.2072
    2PC     H4A15081   2.309   4.380   1.464  1.3873 -0.9453 -0.5734
    2PC     H4B15082   2.337   4.214   1.472  1.3548  1.8307 -1.4469
    2PC     H4C15083   2.167   4.267   1.497 -0.9598 -1.9235  4.6637
    2PC     C3515084   2.418   4.347   1.695  0.0638 -0.1318  0.2794
    2PC     H5A15085   2.421   4.455   1.681 -1.0019  0.0768  1.4962
    2PC     H5B15086   2.481   4.293   1.623  1.4060 -0.6570  1.7813
    2PC     H5C15087   2.439   4.314   1.797  0.2781 -3.2964 -0.6878
    2PC     O3315088   2.196   4.799   1.562 -0.4312 -0.7297 -0.0455
    2PC     O3415089   2.427   4.768   1.606 -0.6772  0.4400 -0.8064
    2PC     O2115090   2.245   4.939   2.085  0.1128 -0.1437 -0.2026
    2PC     C2115091   2.356   4.986   2.143  0.1988 -0.0648 -0.4302
    2PC     O2215092   2.436   5.065   2.096 -0.1467  0.2751 -0.4519
    3OL     C1215093   2.381   4.933   2.282 -0.0284 -0.2471 -0.4585
    3OL     H2R15094   2.431   4.839   2.259  0.1048 -0.6921  1.4122
    3OL     H2S15095   2.286   4.917   2.333  0.7131 -1.0613  0.7162
    3OL     C1315096   2.473   5.018   2.372  0.2551 -0.4660 -0.5428
    3OL     H3R15097   2.554   5.052   2.308  0.5558  1.0141  0.5864
    3OL     H3S15098   2.519   4.946   2.441  0.9123  1.2132  0.8380
    3OL     C1415099   2.390   5.116   2.456  0.5671 -0.2375 -0.4994
    3OL     H4R15100   2.312   5.067   2.515 -0.6671  0.8317 -1.1831
    3OL     H4S15101   2.339   5.178   2.382  0.1910 -0.6051 -0.5591
    3OL     C1515102   2.480   5.214   2.533  0.3524 -0.0514 -0.4842
    3OL     H5R15103   2.548   5.268   2.468  0.1756 -0.1725 -0.7732
    3OL     H5S15104   2.544   5.157   2.600 -1.2808  0.6339  1.7957
    3OL     C1615105   2.402   5.310   2.624 -0.2569 -0.5721 -0.4412
    3OL     H6R15106   2.308   5.329   2.572 -0.3138  0.5457  0.0466
    3OL     H6S15107   2.463   5.401   2.622 -0.7933 -0.1952 -0.0314
    3OL     C1715108   2.369   5.249   2.761  0.2243 -0.4997 -0.2891
    3OL     H7R15109   2.324   5.151   2.746  0.0295 -0.6190  0.9965
    3OL     H7S15110   2.294   5.321   2.797  1.1330  0.5062 -0.3368
    3OL     C1815111   2.489   5.242   2.856  0.1346  0.0505 -0.1280
    3OL     H8R15112   2.572   5.306   2.823  0.7993 -0.8256 -0.1961
    3OL     H8S15113   2.525   5.140   2.842  0.5307  0.2829 -0.9019
    3OL     C1915114   2.444   5.268   2.997 -0.2719 -0.2760 -0.1942
    3OL     H9R15115   2.356   5.214   3.030 -0.1096 -1.2109 -1.2328
    3OL    C11015116   2.498   5.359   3.077  0.1783 -0.6564 -0.0557
    3OL    H10R15117   2.463   5.367   3.180  2.8098 -1.3405  0.9558
    3OL    C11115118   2.602   5.461   3.039 -0.3335  0.1226  0.5872
    3OL    H11R15119   2.563   5.562   3.049 -0.2843  0.0298  1.9221
    3OL    H11S15120   2.630   5.442   2.935  1.2109  0.9157  0.8279
    3OL    C11215121   2.719   5.451   3.138  0.2282 -0.3210 -0.1109
    3OL    H12R15122   2.799   5.516   3.100  1.7377 -1.4602  1.0058
    3OL    H12S15123   2.750   5.347   3.136  0.7488 -0.2022  0.9224
    3OL    C11315124   2.680   5.484   3.283  0.2787  0.0649 -0.1822
    3OL    H13R15125   2.623   5.404   3.332  1.9608 -1.8509 -1.1876
    3OL    H13S15126   2.622   5.576   3.289 -0.3157 -0.2596 -0.7478
    3OL    C11415127   2.812   5.509   3.356  0.2506 -0.2172 -0.0332
    3OL    H14R15128   2.867   5.587   3.303 -1.6167  2.3478  1.5946
    3OL    H14S15129   2.868   5.415   3.356 -2.8656 -2.2625  1.8438
    3OL    C11515130   2.787   5.551   3.501 -0.3733 -0.7844  0.0303
    3OL    H15R15131   2.726   5.469   3.539 -0.8491  0.2810  1.6888
    3OL    H15S15132   2.726   5.641   3.496  1.0282  0.1675 -0.9101
    3OL    C11615133   2.913   5.569   3.587 -0.2019 -0.2523 -0.3242
    3OL    H16R15134   2.968   5.659   3.559  1.7615 -1.7533 -1.5562
    3OL    H16S15135   2.974   5.481   3.563 -0.4119 -0.8289  1.1505
    3OL    C11715136   2.875   5.570   3.736  0.4002 -0.3334 -0.1656
    3OL    H17R15137   2.792   5.501   3.753  0.1878  0.1194  0.6685
    3OL    H17S15138   2.824   5.666   3.743  1.1550  0.0168  0.7125
    3OL    C11815139   2.992   5.554   3.835  0.0738 -0.3184  0.2252
    3OL    H18R15140   2.956   5.553   3.938 -2.4881 -2.4760 -0.5435
    3OL    H18S15141   3.067   5.632   3.827 -0.9244  1.2193  3.9073
    3OL    H18T15142   3.033   5.457   3.806  2.7795  0.5071  1.0406
    1PA    C11615143   4.625   3.966   3.821 -0.1545  0.2803 -0.4516
    1PA    H16R15144   4.561   4.024   3.888 -0.9811 -0.1395 -0.8554
    1PA    H16S15145   4.717   3.933   3.869 -0.5297  1.3101  1.0772
    1PA    H16T15146   4.570   3.872   3.808  0.1559  0.2705 -1.8402
    1PA    C11515147   4.649   4.037   3.688  0.2831  0.6576 -0.1726
    1PA    H15R15148   4.739   4.098   3.694 -0.8191  2.2206  1.5707
    1PA    H15S15149   4.671   3.964   3.610 -0.8955  0.9395 -0.7970
    1PA    C11415150   4.535   4.131   3.645  0.1725  0.6290  0.0559
    1PA    H14R15151   4.567   4.164   3.546  0.8941 -0.8060 -0.2315
    1PA    H14S15152   4.449   4.068   3.619  0.5350  0.1836 -0.0753
    1PA    C11315153   4.506   4.252   3.735 -0.5492  0.1663  0.4571
    1PA    H13R15154   4.469   4.227   3.834 -2.8861  0.8596 -0.1810
    1PA    H13S15155   4.605   4.299   3.740 -0.1402 -0.4944 -0.9060
    1PA    C11215156   4.403   4.342   3.667 -0.1743  0.3521  0.1347
    1PA    H12R15157   4.303   4.303   3.684 -0.2418  0.8621  0.9602
    1PA    H12S15158   4.426   4.435   3.720  0.3575  0.2984  0.0048
    1PA    C11115159   4.426   4.359   3.516 -0.1652  0.2016  0.1187
    1PA    H11R15160   4.524   4.400   3.492 -0.8213  2.7038  1.3817
    1PA    H11S15161   4.399   4.279   3.446 -1.8156 -0.4615  1.4436
    1PA    C11015162   4.317   4.458   3.470 -0.4266 -0.0797  0.1316
    1PA    H10R15163   4.218   4.419   3.496  0.0539 -1.6617 -0.2775
    1PA    H10S15164   4.324   4.563   3.496 -1.6863  0.1844 -0.4997
    1PA     C1915165   4.312   4.470   3.317  0.4687 -0.5325  0.0608
    1PA     H9R15166   4.307   4.367   3.279 -2.0542 -0.2316 -0.5853
    1PA     H9S15167   4.219   4.520   3.290  1.2646  1.0077  0.0835
    1PA     C1815168   4.427   4.548   3.251 -0.0034 -0.4755 -0.7170
    1PA     H8R15169   4.430   4.647   3.298 -1.4555 -1.8579  2.6641
    1PA     H8S15170   4.514   4.483   3.265 -2.6172 -4.2951 -0.7334
    1PA     C1715171   4.403   4.555   3.100  0.2254  0.1952 -0.7243
    1PA     H7R15172   4.297   4.578   3.088  0.7762  1.6428 -4.0875
    1PA     H7S15173   4.449   4.647   3.064 -0.7700  1.2161  0.5359
    1PA     C1615174   4.463   4.436   3.023 -0.2064 -0.2435 -0.3878
    1PA     H6R15175   4.427   4.356   3.088 -0.6856 -0.7411 -1.2444
    1PA     H6S15176   4.420   4.439   2.922  1.2294  1.5354 -1.0057
    1PA     C1515177   4.616   4.442   3.023 -0.2039 -0.2649  0.3234
    1PA     H5R15178   4.653   4.497   2.936  2.0889 -0.6052  1.0089
    1PA     H5S15179   4.652   4.501   3.107 -1.0136  0.0719  0.4401
    1PA     C1415180   4.675   4.301   3.040  0.1084 -0.2068 -0.2629
    1PA     H4R15181   4.766   4.312   3.099 -1.3788  2.8043  1.6976
    1PA     H4S15182   4.607   4.237   3.096  0.9191 -1.0148 -0.1693
    1PA     C1315183   4.713   4.248   2.901  0.6254  0.3116 -0.3224
    1PA     H3R15184   4.633   4.245   2.827  1.4482 -1.5636 -1.2152
    1PA     H3S15185   4.785   4.328   2.878 -1.5926  2.9477  1.2844
    1PA     C1215186   4.777   4.109   2.909  0.1939  0.1239 -0.1478
    1PA     H2R15187   4.846   4.098   2.993 -0.1953 -0.2822  0.1252
    1PA     H2S15188   4.697   4.034   2.916 -0.0777  0.4240 -0.0054
    2PC     C1115189   4.863   4.081   2.788  0.0964  0.3414 -0.2664
    2PC     O1215190   4.982   4.063   2.799 -0.1007 -0.8350  0.0577
    2PC     O1115191   4.785   4.076   2.679 -0.5191 -0.5243  0.1965
    2PC      C115192   4.836   4.064   2.545 -0.3776 -0.1427  0.2158
    2PC      HR15193   4.896   3.973   2.540 -0.9173 -0.6182  1.8475
    2PC      HS15194   4.749   4.065   2.480 -0.6201 -2.8222  0.4145
    2PC      C215195   4.907   4.197   2.512 -0.5893  0.0654  0.5970
    2PC      HX15196   4.848   4.274   2.563 -0.6478 -0.7257  1.7661
    2PC      C315197   4.920   4.225   2.362  0.3417 -0.1378  0.6312
    2PC      HA15198   4.825   4.235   2.309  1.0389  1.7598 -0.3581
    2PC      HB15199   4.969   4.316   2.327 -2.3586  0.5800 -1.6971
    2PC     O3115200   4.988   4.111   2.308 -0.3435 -0.1884 -0.1356
    2PC     P3115201   5.039   4.106   2.156 -0.1326  0.0119 -0.0718
    2PC     O3215202   4.981   3.959   2.126 -0.4881  0.2368 -0.5091
    2PC     C3115203   4.842   3.929   2.142 -0.2937 -0.4807 -0.1108
    2PC     H1A15204   4.827   3.940   2.250  0.1774  0.1166 -0.1032
    2PC     H1B15205   4.779   3.999   2.085  1.1922 -0.0210 -1.2383
    2PC     C3215206   4.818   3.786   2.090 -0.3772 -0.2953 -0.5856
    2PC     H2A15207   4.870   3.721   2.160 -2.5930 -1.1814  0.3271
    2PC     H2B15208   4.711   3.769   2.081 -0.4712  0.5452 -1.1963
    2PC     N3115209   4.863   3.748   1.952  0.2832  0.3891 -0.5698
    2PC     C3315210   4.770   3.801   1.847 -0.7774  0.1019  0.1997
    2PC     H3A15211   4.788   3.908   1.839 -0.0148 -0.1067 -1.3069
    2PC     H3B15212   4.811   3.750   1.759 -0.0312 -1.1124  1.2204
    2PC     H3C15213   4.668   3.771   1.872 -0.6441 -0.0279  0.6043
    2PC     C3415214   5.001   3.786   1.909  0.5546 -0.0265 -0.0738
    2PC     H4A15215   5.039   3.740   1.818 -1.0494 -2.1654  0.2603
    2PC     H4B15216   5.010   3.895   1.909  0.0093  0.0278 -1.4279
    2PC     H4C15217   5.062   3.753   1.994 -0.7204  2.1273  1.7740
    2PC     C3515218   4.861   3.598   1.946  0.0999  0.3528  0.2394
    2PC     H5A15219   4.920   3.569   1.859 -0.1229 -0.5915  0.3960
    2PC     H5B15220   4.758   3.573   1.922  0.3617  0.6015 -1.2119
    2PC     H5C15221   4.898   3.573   2.046  1.5167  1.6807  0.0959
    2PC     O3315222   4.989   4.216   2.071 -0.4361 -0.0419  0.0367
    2PC     O3415223   5.187   4.105   2.147 -0.1410  0.3307 -0.2751
    2PC     O2115224   5.044   4.207   2.557 -0.3203 -0.5346 -0.0710
    2PC     C2115225   5.094   4.331   2.567 -0.5387 -0.4316 -0.2377
    2PC     O2215226   5.046   4.440   2.543 -0.6290 -0.5810 -0.7414
    3OL     C1215227   5.241   4.317   2.600 -0.5258 -0.4889 -0.3164
    3OL     H2R15228   5.293   4.413   2.612 -1.4235  0.0906 -0.9105
    3OL     H2S15229   5.291   4.272   2.515  0.5046 -0.2146  0.1276
    3OL     C1315230   5.262   4.232   2.726  0.0280  0.2642  0.1129
    3OL     H3R15231   5.215   4.133   2.718  0.5511 -0.2256  2.3858
    3OL     H3S15232   5.206   4.270   2.811 -1.4881 -1.0499 -0.2384
    3OL     C1415233   5.407   4.196   2.761  0.0385  0.3068  0.1111
    3OL     H4R15234   5.458   4.289   2.787  1.9301 -0.5025 -0.5644
    3OL     H4S15235   5.450   4.147   2.674 -0.1029  1.0838 -0.4052
    3OL     C1515236   5.402   4.089   2.871 -0.3801  0.0348 -0.1689
    3OL     H5R15237   5.333   4.011   2.838 -1.3683  1.6374 -2.1189
    3OL     H5S15238   5.368   4.134   2.964  2.0328 -1.2489  1.4411
    3OL     C1615239   5.542   4.030   2.895 -0.3577  0.0658 -0.2261
    3OL     H6R15240   5.594   4.010   2.801 -0.4102 -1.7435  0.0827
    3OL     H6S15241   5.532   3.931   2.940 -0.8884  0.3668  0.3416
    3OL     C1715242   5.641   4.108   2.982 -0.4334 -0.2295  0.1282
    3OL     H7R15243   5.622   4.215   2.982  0.2022 -0.1158  0.0204
    3OL     H7S15244   5.744   4.090   2.951 -0.3935  3.0049 -2.0683
    3OL     C1815245   5.628   4.069   3.130  0.2595  0.2498  0.3229
    3OL     H8R15246   5.658   3.964   3.141 -0.9796 -0.3973 -1.7779
    3OL     H8S15247   5.521   4.081   3.151 -0.2181 -2.0064 -0.4708
    3OL     C1915248   5.717   4.148   3.222  0.3778 -0.0079  0.4310
    3OL     H9R15249   5.824   4.145   3.199  0.1553 -1.1329 -0.5868
    3OL    C11015250   5.665   4.221   3.319 -0.0335  0.8370 -0.4075
    3OL    H10R15251   5.731   4.279   3.383 -0.3412  1.2796 -0.4888
    3OL    C11115252   5.523   4.233   3.370  0.1585  0.2822  0.2748
    3OL    H11R15253   5.512   4.192   3.471  0.0467  0.1408  0.2043
    3OL    H11S15254   5.443   4.196   3.306 -2.2707  2.7754  1.6493
    3OL    C11215255   5.479   4.379   3.385  0.6622  0.4050  0.5936
    3OL    H12R15256   5.446   4.411   3.286  2.0691 -0.0365 -0.0571
    3OL    H12S15257   5.567   4.436   3.419  0.7569 -0.3808  1.7012
    3OL    C11315258   5.362   4.386   3.483 -0.4009  0.5252 -0.6559
    3OL    H13R15259   5.302   4.295   3.480 -0.2457  0.2742  1.6994
    3OL    H13S15260   5.303   4.475   3.461 -0.7132  0.4734 -0.0477
    3OL    C11415261   5.408   4.405   3.629 -0.6765  0.0198 -0.5018
    3OL    H14R15262   5.463   4.496   3.649  2.9686 -2.2758  0.8427
    3OL    H14S15263   5.482   4.325   3.640  1.8295  2.1345 -1.0186
    3OL    C11515264   5.300   4.391   3.737  0.0093 -0.0663  0.1762
    3OL    H15R15265   5.350   4.407   3.833 -1.7123  2.4901  0.7479
    3OL    H15S15266   5.266   4.288   3.725 -1.0113  0.1977  0.6775
    3OL    C11615267   5.188   4.494   3.718 -0.0569 -0.2261 -0.3066
    3OL    H16R15268   5.139   4.483   3.621 -0.0069  2.2638 -0.6808
    3OL    H16S15269   5.228   4.595   3.730  0.0390 -0.5809  3.8067
    3OL    C11715270   5.087   4.464   3.830  0.1449 -0.7371 -0.2570
    3OL    H17R15271   5.011   4.542   3.820 -0.4285 -1.3713 -0.9639
    3OL    H17S15272   5.136   4.471   3.928 -0.4309 -0.1690  0.0045
    3OL    C11815273   5.005   4.337   3.804 -0.3699 -0.3803 -0.4035
    3OL    H18R15274   4.965   4.342   3.703 -1.5425 -3.4198 -0.1841
    3OL    H18S15275   4.934   4.332   3.886  2.4750  3.8397  2.7693
    3OL    H18T15276   5.076   4.255   3.817  2.0384  1.9788  3.4683
    1PA    C11615277   5.870   6.464   3.678  0.2864 -0.0621  0.8270
    1PA    H16R15278   5.850   6.565   3.641 -0.1007 -1.0491 -1.9394
    1PA    H16S15279   5.928   6.408   3.604 -0.3969 -0.5951  0.6837
    1PA    H16T15280   5.923   6.467   3.773 -0.5830 -0.6027  1.3459
    1PA    C11515281   5.738   6.388   3.697  0.4235 -0.4803  0.1512
    1PA    H15R15282   5.764   6.284   3.717 -3.1075 -1.4102  0.6129
    1PA    H15S15283   5.686   6.428   3.785 -0.4524 -2.4581  0.5939
    1PA    C11415284   5.639   6.399   3.580  0.5355  0.2284  0.1166
    1PA    H14R15285   5.545   6.350   3.605  0.4183  0.5282  0.2688
    1PA    H14S15286   5.623   6.505   3.563  1.6493  0.2709 -0.7679
    1PA    C11315287   5.685   6.329   3.452 -0.1557 -0.1596  0.0715
    1PA    H13R15288   5.761   6.387   3.398  1.7853  0.2765  3.0727
    1PA    H13S15289   5.739   6.235   3.467  0.0011 -0.4557 -1.9835
    1PA    C11215290   5.577   6.307   3.345 -0.0494  0.4781 -0.1722
    1PA    H12R15291   5.530   6.398   3.306 -0.5388 -0.6968 -2.5407
    1PA    H12S15292   5.634   6.284   3.254 -0.7266  0.0398 -0.4876
    1PA    C11115293   5.476   6.200   3.387  0.2878  0.0516 -0.4384
    1PA    H11R15294   5.522   6.105   3.417 -0.7830 -0.3814 -0.1313
    1PA    H11S15295   5.415   6.241   3.467  0.2208  1.0175 -0.9701
    1PA    C11015296   5.394   6.154   3.266  0.6138 -0.2798 -0.5354
    1PA    H10R15297   5.457   6.107   3.189  1.0010 -1.6020  0.5445
    1PA    H10S15298   5.320   6.078   3.292  1.4559 -2.2139 -3.3226
    1PA     C1915299   5.312   6.262   3.193  0.4112  0.1932  0.3881
    1PA     H9R15300   5.240   6.297   3.268 -0.5085 -1.2493  0.2259
    1PA     H9S15301   5.370   6.342   3.148  0.5085 -0.4433 -0.6544
    1PA     C1815302   5.230   6.190   3.085  0.5552  0.3038  0.2058
    1PA     H8R15303   5.201   6.090   3.118  0.4785  0.5530  0.9189
    1PA     H8S15304   5.134   6.240   3.072  0.6474  0.2682 -0.7040
    1PA     C1715305   5.299   6.195   2.948  0.3143  0.0874  0.0759
    1PA     H7R15306   5.282   6.299   2.917 -0.9216 -0.3153 -0.6746
    1PA     H7S15307   5.406   6.176   2.962  0.0438 -0.9345  0.8501
    1PA     C1615308   5.226   6.104   2.849  0.5883 -0.2133  0.1502
    1PA     H6R15309   5.240   6.003   2.888  0.0461 -0.6848 -0.8338
    1PA     H6S15310   5.118   6.116   2.848  0.3294 -2.2264 -0.0423
    1PA     C1515311   5.282   6.123   2.707 -0.3580  0.7987 -0.0922
    1PA     H5R15312   5.222   6.071   2.632  0.2298 -2.7890  1.7076
    1PA     H5S15313   5.284   6.228   2.676  0.4525  0.4937 -1.1338
    1PA     C1415314   5.425   6.070   2.691 -0.4838  0.5068 -0.2481
    1PA     H4R15315   5.468   6.101   2.595 -0.1335 -1.1940 -0.6766
    1PA     H4S15316   5.497   6.100   2.767  0.3547 -2.0156  0.0557
    1PA     C1315317   5.420   5.917   2.683  0.2171  0.4544  0.2947
    1PA     H3R15318   5.410   5.884   2.787  2.3013 -0.9699  0.1092
    1PA     H3S15319   5.335   5.879   2.626  0.4903 -0.4484  0.4710
    1PA     C1215320   5.552   5.859   2.629  0.0978  0.3082  0.1585
    1PA     H2R15321   5.646   5.885   2.678 -0.3326  0.0783  1.1395
    1PA     H2S15322   5.533   5.753   2.649 -2.6317  0.4738 -1.0952
    2PC     C1115323   5.566   5.879   2.481 -0.0614 -0.0876  0.0881
    2PC     O1215324   5.470   5.897   2.408  0.1038 -0.8522 -0.3289
    2PC     O1115325   5.692   5.879   2.435 -0.0257 -0.1355  0.1859
    2PC      C115326   5.713   5.909   2.296  0.2539  0.0247  0.2613
    2PC      HR15327   5.805   5.869   2.252 -1.0313 -0.5515 -2.1082
    2PC      HS15328   5.630   5.863   2.242 -1.1668 -0.1594  2.4895
    2PC      C215329   5.691   6.060   2.281  0.1319 -0.0490 -0.3472
    2PC      HX15330   5.599   6.093   2.331  0.0960 -1.2887  0.4295
    2PC      C315331   5.693   6.114   2.137 -0.2032 -0.4565 -0.5074
    2PC      HA15332   5.591   6.122   2.101 -0.2249  0.5924 -0.2623
    2PC      HB15333   5.731   6.217   2.141  1.6607 -0.9938 -2.4648
    2PC     O3115334   5.782   6.034   2.057  0.3974 -0.1641 -0.1476
    2PC     P3115335   5.820   6.098   1.915  0.1230  0.1919 -0.0606
    2PC     O3215336   5.947   6.007   1.879  0.0187  0.1507 -0.3260
    2PC     C3115337   6.071   6.015   1.951 -0.1595 -0.1867  0.0242
    2PC     H1A15338   6.052   5.985   2.054 -1.0503  0.3893  0.0414
    2PC     H1B15339   6.155   5.955   1.915  2.2242  1.5006  2.3697
    2PC     C3215340   6.123   6.160   1.951  0.2469 -0.3314 -0.2088
    2PC     H2A15341   6.152   6.190   1.850  1.3751 -2.8843 -0.7374
    2PC     H2B15342   6.047   6.228   1.990 -0.3624 -0.6429 -0.8180
    2PC     N3115343   6.239   6.185   2.042 -0.1978 -0.0147  0.2751
    2PC     C3315344   6.210   6.143   2.183 -0.8788  0.3497  0.2453
    2PC     H3A15345   6.297   6.180   2.237 -0.1292  2.4209 -2.1808
    2PC     H3B15346   6.122   6.185   2.233 -0.1225  0.3906  1.5871
    2PC     H3C15347   6.204   6.034   2.186  0.2443  0.1637 -2.0267
    2PC     C3415348   6.363   6.117   1.992 -0.4566 -0.1806 -0.1513
    2PC     H4A15349   6.452   6.150   2.046  1.0451 -4.5345  0.4541
    2PC     H4B15350   6.360   6.010   2.015 -0.9014  0.4753  3.3418
    2PC     H4C15351   6.372   6.141   1.886  2.5445  2.9603  0.6081
    2PC     C3515352   6.260   6.333   2.033 -0.2201 -0.0276  0.0162
    2PC     H5A15353   6.269   6.354   1.926 -1.7743 -0.3618 -0.2023
    2PC     H5B15354   6.359   6.348   2.076  0.2960 -0.4256 -0.9923
    2PC     H5C15355   6.176   6.385   2.078 -0.5171 -0.3258 -0.1832
    2PC     O3315356   5.717   6.100   1.809  0.1952 -0.3169 -0.1424
    2PC     O3415357   5.858   6.242   1.915  0.4240  0.1131 -0.1232
    2PC     O2115358   5.809   6.117   2.340 -0.3507  0.4987  0.1081
    2PC     C2115359   5.817   6.168   2.464 -0.3897  0.7296  0.0173
    2PC     O2215360   5.715   6.161   2.530 -0.2593  0.0033  0.1573
    3OL     C1215361   5.952   6.229   2.488  0.2020 -0.8218  0.7836
    3OL     H2R15362   5.977   6.300   2.409 -1.4582 -1.5050 -0.4057
    3OL     H2S15363   6.030   6.153   2.489  0.3544 -0.6994 -0.4522
    3OL     C1315364   5.947   6.308   2.620  0.2212  0.2426  0.1588
    3OL     H3R15365   5.923   6.243   2.704 -0.9850  2.3251  1.5022
    3OL     H3S15366   5.862   6.375   2.606  1.4360  1.6748 -0.6991
    3OL     C1415367   6.079   6.388   2.627  0.6641 -0.4315 -0.3088
    3OL     H4R15368   6.069   6.473   2.560  0.5531  1.6533  2.2110
    3OL     H4S15369   6.164   6.329   2.591  1.5133  0.0254  0.9026
    3OL     C1515370   6.096   6.448   2.767  0.0284  0.0866 -0.4515
    3OL     H5R15371   6.002   6.489   2.805  0.6282  0.8351  0.2658
    3OL     H5S15372   6.165   6.532   2.756  0.2403 -0.0396 -0.0968
    3OL     C1615373   6.166   6.346   2.857  0.1536  0.1493 -0.4772
    3OL     H6R15374   6.243   6.286   2.808  0.8999 -0.3927  1.2771
    3OL     H6S15375   6.086   6.278   2.889  0.2088  1.3032  2.3715
    3OL     C1715376   6.226   6.411   2.983  0.2972  0.1245 -0.5329
    3OL     H7R15377   6.143   6.455   3.038 -0.8002  0.0793 -2.0545
    3OL     H7S15378   6.301   6.486   2.958 -0.5940  1.5623  0.9382
    3OL     C1815379   6.290   6.301   3.069  0.5958  0.5148 -0.2604
    3OL     H8R15380   6.371   6.256   3.011 -0.7418  1.2506 -2.8326
    3OL     H8S15381   6.224   6.219   3.096  3.5012 -2.0054 -0.2405
    3OL     C1915382   6.341   6.349   3.203  0.2783 -0.6984  0.3062
    3OL     H9R15383   6.442   6.389   3.200 -0.2587  0.7239  0.6173
    3OL    C11015384   6.278   6.345   3.319 -0.0803 -0.1334  0.1382
    3OL    H10R15385   6.320   6.387   3.410 -1.8461  3.3059 -0.4918
    3OL    C11115386   6.142   6.286   3.348 -0.3240  0.3523 -0.0224
    3OL    H11R15387   6.062   6.336   3.293 -1.7229  0.2819  1.8574
    3OL    H11S15388   6.122   6.314   3.452 -2.7099 -0.9817 -0.0440
    3OL    C11215389   6.149   6.133   3.344  0.3406  0.3741  0.1502
    3OL    H12R15390   6.224   6.094   3.412 -0.3790 -1.7748 -0.2094
    3OL    H12S15391   6.191   6.107   3.247  0.5396 -0.3949  0.4367
    3OL    C11315392   6.013   6.063   3.361  0.3893  0.2962  0.2216
    3OL    H13R15393   5.959   6.095   3.450  0.1292 -0.0636  0.1918
    3OL    H13S15394   6.026   5.956   3.377  0.8600  0.5080  1.3541
    3OL    C11415395   5.920   6.085   3.241  0.1933 -0.5806  0.2084
    3OL    H14R15396   5.984   6.065   3.154  2.4828 -0.1830  1.7002
    3OL    H14S15397   5.880   6.186   3.233  1.1775 -0.1033  1.1065
    3OL    C11515398   5.816   5.973   3.250 -0.4303  0.0089  0.3737
    3OL    H15R15399   5.749   5.988   3.335 -1.4073 -0.9207 -0.1904
    3OL    H15S15400   5.862   5.874   3.255 -0.5535 -0.0771 -0.1361
    3OL    C11615401   5.718   5.979   3.131  0.2862 -0.6054 -0.2601
    3OL    H16R15402   5.783   5.991   3.045  3.3521 -1.4725  1.7547
    3OL    H16S15403   5.660   6.072   3.134  1.8731  0.4597 -1.0096
    3OL    C11715404   5.632   5.852   3.137 -0.1954 -0.2663  0.0493
    3OL    H17R15405   5.549   5.856   3.208 -0.7884 -2.1367 -0.4869
    3OL    H17S15406   5.688   5.760   3.154  0.0780 -0.1591 -0.2724
    3OL    C11815407   5.581   5.844   2.993  0.0499 -1.0557  0.0064
    3OL    H18R15408   5.559   5.745   2.950  0.5844 -0.6999 -1.1053
    3OL    H18S15409   5.659   5.885   2.929  0.8234 -0.9684  0.9833
    3OL    H18T15410   5.493   5.908   2.999  0.0482 -1.1903  2.5800
    1PA    C11615411   6.351   0.699   2.951 -0.0272  0.1855 -0.1020
    1PA    H16R15412   6.378   0.600   2.989 -1.9685  0.8371  3.3238
    1PA    H16S15413   6.421   0.736   2.875  1.8911 -0.9682  1.0040
    1PA    H16T15414   6.260   0.680   2.894  0.1739  0.6765 -0.5910
    1PA    C11515415   6.340   0.800   3.066  0.0714  0.3588 -0.2433
    1PA    H15R15416   6.433   0.856   3.064  1.0527 -1.2026 -1.9288
    1PA    H15S15417   6.262   0.872   3.043  1.0408  1.5985  0.2360
    1PA    C11415418   6.310   0.731   3.200  0.3908 -0.4360 -0.5739
    1PA    H14R15419   6.395   0.668   3.229  0.1823 -0.3827  0.1589
    1PA    H14S15420   6.295   0.808   3.275 -1.8047  0.4080 -1.7989
    1PA    C11315421   6.181   0.648   3.194  0.1478 -0.0932 -0.1165
    1PA    H13R15422   6.191   0.573   3.115 -0.5804  0.4768 -0.7590
    1PA    H13S15423   6.166   0.593   3.288 -0.5233 -2.2563 -1.4223
    1PA    C11215424   6.060   0.736   3.162  0.1198 -0.1230 -0.0933
    1PA    H12R15425   6.060   0.822   3.230  2.3390 -1.4510  1.7245
    1PA    H12S15426   6.072   0.760   3.056  1.7817 -0.0864  0.0805
    1PA    C11115427   5.926   0.664   3.178 -0.2421  0.5599 -0.0066
    1PA    H11R15428   5.917   0.635   3.283  1.6436 -2.5096 -0.5595
    1PA    H11S15429   5.845   0.732   3.151 -1.5685 -0.6524  0.7837
    1PA    C11015430   5.911   0.543   3.085  0.5688  0.3736  0.1014
    1PA    H10R15431   5.931   0.580   2.985 -0.4983 -0.6208 -0.5073
    1PA    H10S15432   5.990   0.470   3.105  1.5429  1.2013 -0.6620
    1PA     C1915433   5.766   0.498   3.109  0.4061  0.6635 -0.3308
    1PA     H9R15434   5.772   0.441   3.202  3.3515 -0.7559 -1.2388
    1PA     H9S15435   5.693   0.579   3.113  0.5745  1.1166 -3.5781
    1PA     C1815436   5.729   0.396   3.000 -0.3041  0.5575  0.0038
    1PA     H8R15437   5.812   0.325   3.002 -1.0568 -0.3609  2.6954
    1PA     H8S15438   5.642   0.342   3.036 -1.0548  1.5633 -0.2462
    1PA     C1715439   5.695   0.457   2.864  0.2055 -0.3812 -0.5521
    1PA     H7R15440   5.621   0.536   2.877 -1.8286 -2.3999  0.8801
    1PA     H7S15441   5.782   0.507   2.820 -0.7914  0.5962 -1.4898
    1PA     C1615442   5.640   0.350   2.769 -0.4447 -0.2814 -0.2876
    1PA     H6R15443   5.724   0.285   2.745 -1.1992 -0.7945 -1.6152
    1PA     H6S15444   5.568   0.289   2.825  1.2633  0.0283  2.4486
    1PA     C1515445   5.577   0.412   2.644  0.6304 -0.0041 -0.7023
    1PA     H5R15446   5.519   0.503   2.659 -0.9690 -0.8931 -1.1579
    1PA     H5S15447   5.660   0.452   2.586  1.1800 -0.0608  0.0401
    1PA     C1415448   5.497   0.304   2.569 -0.5395  0.5702 -0.3072
    1PA     H4R15449   5.480   0.347   2.469 -0.8290  0.1050 -0.4606
    1PA     H4S15450   5.565   0.220   2.562 -1.5152 -0.2645  0.0556
    1PA     C1315451   5.362   0.269   2.632  0.3537 -0.3219  1.1426
    1PA     H3R15452   5.371   0.213   2.726 -1.7339 -2.3614  0.2423
    1PA     H3S15453   5.313   0.363   2.658 -1.7674 -1.7000  2.4899
    1PA     C1215454   5.258   0.207   2.537  0.7318  0.3356  0.2914
    1PA     H2R15455   5.280   0.103   2.511 -0.1522 -0.1235  1.3152
    1PA     H2S15456   5.155   0.213   2.572  0.9357  2.4260  0.6751
    2PC     C1115457   5.254   0.284   2.407  0.6943  0.6343  0.4690
    2PC     O1215458   5.310   0.241   2.308  0.2276  0.1442  0.4121
    2PC     O1115459   5.184   0.398   2.418  0.3200  0.4875 -0.3236
    2PC      C115460   5.171   0.473   2.296 -0.6442  0.8165 -0.0227
    2PC      HR15461   5.149   0.576   2.326 -1.7921  0.3410  0.8853
    2PC      HS15462   5.268   0.476   2.246  0.8101  1.6940  2.6587
    2PC      C215463   5.054   0.408   2.220 -0.2304  0.0735 -0.0287
    2PC      HX15464   5.081   0.305   2.198 -2.4263 -0.5307 -0.1088
    2PC      C315465   5.018   0.492   2.097 -0.0540  0.5621  0.2503
    2PC      HA15466   4.959   0.579   2.128 -0.8249  0.2081 -0.2032
    2PC      HB15467   5.107   0.534   2.048  0.3808  0.1337  0.6642
    2PC     O3115468   4.951   0.407   2.002  0.1396  0.1876  0.4472
    2PC     P3115469   4.895   0.469   1.865  0.5462  0.2168  0.2920
    2PC     O3215470   4.773   0.565   1.907  0.0761 -0.2102 -0.0896
    2PC     C3115471   4.660   0.495   1.961  0.5451 -0.4151  0.6500
    2PC     H1A15472   4.633   0.408   1.900  0.0477 -0.3284  0.7385
    2PC     H1B15473   4.695   0.472   2.061 -1.6437  2.4912  2.2638
    2PC     C3215474   4.540   0.591   1.964  0.1688 -0.8313 -0.4455
    2PC     H2A15475   4.458   0.545   2.018  1.3210  1.0903  3.3219
    2PC     H2B15476   4.567   0.683   2.017  1.6811  0.0950 -2.6624
    2PC     N3115477   4.482   0.621   1.829 -0.2878 -0.0458 -0.0848
    2PC     C3315478   4.579   0.686   1.735  0.7673 -0.4993  0.6644
    2PC     H3A15479   4.652   0.612   1.703  0.4028 -1.5012  2.0492
    2PC     H3B15480   4.525   0.729   1.650  1.5116 -1.6169 -0.4125
    2PC     H3C15481   4.631   0.762   1.793 -2.1740  0.3358  2.4233
    2PC     C3415482   4.427   0.496   1.768 -0.4970  0.2981 -0.6073
    2PC     H4A15483   4.386   0.505   1.667  0.0071 -1.2047 -0.9751
    2PC     H4B15484   4.505   0.420   1.768 -0.8271 -0.0556  0.3315
    2PC     H4C15485   4.347   0.462   1.835  0.6414 -0.9382  0.1773
    2PC     C3515486   4.365   0.713   1.850 -0.2854  0.0389 -0.4395
    2PC     H5A15487   4.387   0.790   1.924  2.9570 -1.5821  0.5058
    2PC     H5B15488   4.293   0.661   1.912 -0.4755  0.6289 -0.1621
    2PC     H5C15489   4.333   0.754   1.754  0.0378  2.4811  0.4260
    2PC     O3315490   4.990   0.546   1.781  0.0049  0.1751 -0.3692
    2PC     O3415491   4.847   0.363   1.774 -0.6810  0.6287  0.4381
    2PC     O2115492   4.940   0.411   2.306  0.3160  0.1228  0.7053
    2PC     C2115493   4.913   0.308   2.389  0.0201 -0.0233  0.4294
    2PC     O2215494   4.965   0.199   2.387 -0.7354 -0.3747 -0.5955
    3OL     C1215495   4.794   0.328   2.479 -0.3118  0.5494 -0.1234
    3OL     H2R15496   4.777   0.234   2.532  1.2226 -0.8952 -2.0518
    3OL     H2S15497   4.703   0.344   2.421 -0.6106 -1.4399 -0.2664
    3OL     C1315498   4.809   0.442   2.581 -0.2006  0.4892 -0.0729
    3OL     H3R15499   4.715   0.451   2.636  1.0342  2.3866  1.9328
    3OL     H3S15500   4.836   0.535   2.532 -0.2791  0.8418  0.5374
    3OL     C1415501   4.915   0.402   2.685 -0.3259 -0.2403 -0.2187
    3OL     H4R15502   5.011   0.378   2.638 -1.2105 -1.4864 -1.4370
    3OL     H4S15503   4.881   0.311   2.735 -0.5240 -1.6542 -2.7908
    3OL     C1515504   4.953   0.516   2.781  0.0871 -0.4436 -0.1380
    3OL     H5R15505   4.864   0.549   2.836 -0.3176 -4.2270  1.7934
    3OL     H5S15506   4.993   0.599   2.722 -0.9504  0.4381  0.3599
    3OL     C1615507   5.050   0.478   2.893  0.2425  0.2189 -0.0415
    3OL     H6R15508   5.141   0.460   2.835 -0.3179  1.7915 -1.4568
    3OL     H6S15509   5.016   0.384   2.939 -2.6982 -0.2209 -2.7807
    3OL     C1715510   5.055   0.594   2.994 -0.4560  0.0938  0.1440
    3OL     H7R15511   4.956   0.611   3.036  0.0768 -1.0772  2.0044
    3OL     H7S15512   5.094   0.682   2.943 -0.1324 -0.5417 -0.7505
    3OL     C1815513   5.139   0.574   3.121 -0.4644 -0.0661  0.1243
    3OL     H8R15514   5.247   0.577   3.102 -0.6409  1.4744 -0.8127
    3OL     H8S15515   5.113   0.475   3.160 -0.3391 -0.1124  0.0916
    3OL     C1915516   5.098   0.682   3.218  0.4655  0.3581  0.0616
    3OL     H9R15517   5.080   0.775   3.166  0.6095 -0.7257 -2.0366
    3OL    C11015518   5.105   0.677   3.350 -0.2269 -0.0729  0.0924
    3OL    H10R15519   5.082   0.760   3.417 -1.4332 -1.1831  1.1044
    3OL    C11115520   5.139   0.557   3.434  0.1851  0.1053  0.1819
    3OL    H11R15521   5.205   0.589   3.516 -1.0508  1.5695  0.6538
    3OL    H11S15522   5.187   0.483   3.369 -0.7901  0.0832 -0.5303
    3OL    C11215523   5.012   0.495   3.492  0.0158  0.5190  0.2573
    3OL    H12R15524   4.941   0.484   3.410  0.6499  1.1121 -0.3793
    3OL    H12S15525   4.965   0.548   3.576 -0.6483 -0.0138  0.2329
    3OL    C11315526   5.048   0.357   3.549 -0.1251  0.4182  0.1038
    3OL    H13R15527   5.134   0.315   3.497  0.1952  0.7882  0.3322
    3OL    H13S15528   4.960   0.292   3.543 -1.0231  1.4912  1.2391
    3OL    C11415529   5.088   0.365   3.697 -0.3688  0.2838  0.1772
    3OL    H14R15530   5.017   0.426   3.754 -0.9828 -0.7825  0.5942
    3OL    H14S15531   5.185   0.414   3.704 -0.2797  0.6097 -2.5444
    3OL    C11515532   5.085   0.226   3.763  0.3974  0.0558 -0.2557
    3OL    H15R15533   5.160   0.165   3.713 -1.1864 -0.2795 -2.3868
    3OL    H15S15534   4.988   0.179   3.745  0.1151  0.8863 -1.0070
    3OL    C11615535   5.105   0.232   3.915  0.7980  0.2990 -0.3176
    3OL    H16R15536   5.038   0.305   3.960  1.6836  0.2701  1.1569
    3OL    H16S15537   5.207   0.269   3.929  0.8664  0.3593 -0.9759
    3OL    C11715538   5.094   0.091   3.976 -0.0943  0.7794  0.6673
    3OL    H17R15539   5.189   0.041   3.956  0.3354  0.9450  2.1697
    3OL    H17S15540   5.011   0.034   3.936  1.6477 -1.9953  0.7385
    3OL    C11815541   5.097   0.101   4.129  0.0637  0.0896  0.7117
    3OL    H18R15542   5.196   0.135   4.158  0.7607 -2.8419  2.1711
    3OL    H18S15543   5.090   0.002   4.176  1.1233 -0.1651  0.3716
    3OL    H18T15544   5.016   0.162   4.168  0.7651 -0.2988  2.9481
    1PA    C11615545   4.183   4.058   3.462  0.3530  0.0832  0.4785
    1PA    H16R15546   4.163   4.106   3.558 -1.9741 -0.3509  0.2744
    1PA    H16S15547   4.098   4.071   3.395  1.7290 -0.1363 -1.4128
    1PA    H16T15548   4.264   4.110   3.410 -0.0485  2.1423  1.8045
    1PA    C11515549   4.221   3.909   3.474 -0.4892 -0.1715  0.0700
    1PA    H15R15550   4.182   3.865   3.382 -0.8379 -0.7410  0.4869
    1PA    H15S15551   4.329   3.893   3.473 -0.1912  1.5638  0.2578
    1PA    C11415552   4.161   3.828   3.589 -0.3934 -0.0148  0.2321
    1PA    H14R15553   4.192   3.861   3.688  1.1790 -3.6625  1.1309
    1PA    H14S15554   4.052   3.842   3.584 -0.5799 -1.5505 -0.7985
    1PA    C11315555   4.202   3.680   3.594 -0.1302  0.0640  0.4206
    1PA    H13R15556   4.151   3.637   3.680  1.2546  0.5646  1.5344
    1PA    H13S15557   4.163   3.638   3.501  2.0695 -0.2940 -0.4067
    1PA    C11215558   4.353   3.656   3.606 -0.0069  0.3218 -0.4793
    1PA    H12R15559   4.409   3.695   3.520  4.0981 -0.4155  1.5841
    1PA    H12S15560   4.385   3.706   3.698 -0.5956  0.0201 -0.1085
    1PA    C11115561   4.394   3.509   3.620 -0.1400  0.3393  0.1362
    1PA    H11R15562   4.359   3.488   3.721 -1.2255 -2.3788 -0.7012
    1PA    H11S15563   4.336   3.443   3.556 -1.4807  0.1015  1.5502
    1PA    C11015564   4.546   3.491   3.609 -0.2307  0.0576 -0.7456
    1PA    H10R15565   4.597   3.585   3.635 -0.1480 -0.3795  0.7426
    1PA    H10S15566   4.591   3.424   3.682 -0.3531  0.3239 -0.4229
    1PA     C1915567   4.585   3.443   3.468  0.5158  0.3082 -0.6338
    1PA     H9R15568   4.523   3.357   3.441 -0.7452  0.9482  0.0991
    1PA     H9S15569   4.556   3.524   3.400  1.5995  0.4798 -0.8954
    1PA     C1815570   4.736   3.420   3.453  0.4965 -0.1277 -0.1686
    1PA     H8R15571   4.748   3.391   3.349 -1.4090  2.7590 -1.3394
    1PA     H8S15572   4.774   3.522   3.455  1.7703 -0.5489 -1.3928
    1PA     C1715573   4.801   3.319   3.548  0.2004  0.3874  0.5959
    1PA     H7R15574   4.799   3.360   3.649  1.3006  0.3541  0.6486
    1PA     H7S15575   4.742   3.227   3.541  0.7597  0.0796 -0.3229
    1PA     C1615576   4.942   3.281   3.501 -0.0265  0.0322  0.1911
    1PA     H6R15577   4.983   3.204   3.566  2.3406  2.4474  1.7964
    1PA     H6S15578   4.941   3.246   3.397  1.9165 -1.6093  0.6542
    1PA     C1515579   5.041   3.399   3.507  0.3520 -0.2666 -0.1382
    1PA     H5R15580   4.993   3.493   3.479  2.0170  0.7861  0.3617
    1PA     H5S15581   5.069   3.413   3.611  0.2203 -0.6274 -0.0529
    1PA     C1415582   5.171   3.380   3.427  0.1560  0.0316 -0.5325
    1PA     H4R15583   5.239   3.456   3.466  1.0141 -0.9318 -0.1095
    1PA     H4S15584   5.211   3.281   3.448  1.9613 -0.1403 -4.0945
    1PA     C1315585   5.152   3.414   3.278 -0.3514  0.4550 -0.3745
    1PA     H3R15586   5.064   3.356   3.253  0.2647 -0.8171  0.2711
    1PA     H3S15587   5.132   3.520   3.262  0.0204  0.8804  1.6565
    1PA     C1215588   5.280   3.379   3.201 -0.4131  0.2329 -0.3762
    1PA     H2R15589   5.367   3.427   3.246  0.3598  0.5211 -2.0986
    1PA     H2S15590   5.299   3.272   3.198  0.9342  0.4365  0.1853
    2PC     C1115591   5.266   3.426   3.058  0.1035 -0.6011 -0.7075
    2PC     O1215592   5.337   3.507   3.003 -0.2591 -0.0455 -0.3642
    2PC     O1115593   5.160   3.378   2.991 -0.5671  0.3037 -0.3112
    2PC      C115594   5.122   3.432   2.863 -0.2108 -0.0435 -0.5650
    2PC      HR15595   5.021   3.396   2.843  0.3538 -2.0205 -0.1123
    2PC      HS15596   5.124   3.541   2.870 -0.5809 -0.0729  0.1023
    2PC      C215597   5.212   3.371   2.755  0.1195  0.0785 -0.3622
    2PC      HX15598   5.311   3.394   2.794 -0.9416  0.4072  2.3267
    2PC      C315599   5.194   3.435   2.617 -0.0577  0.5243 -0.1339
    2PC      HA15600   5.214   3.543   2.618 -0.5927  0.6183  0.3502
    2PC      HB15601   5.256   3.380   2.546 -0.8279  0.3435 -0.6798
    2PC     O3115602   5.056   3.422   2.578 -0.1349  0.0537  0.2878
    2PC     P3115603   4.976   3.530   2.491 -0.4007 -0.1006  0.3413
    2PC     O3215604   5.101   3.601   2.421 -0.5503  0.2109  0.3898
    2PC     C3115605   5.113   3.744   2.433 -0.4508  0.2812 -0.4676
    2PC     H1A15606   5.026   3.802   2.401 -0.9218 -0.8473 -1.2830
    2PC     H1B15607   5.116   3.757   2.542 -1.7167 -0.9526 -0.2513
    2PC     C3215608   5.245   3.771   2.361  0.1537  0.1031  0.5568
    2PC     H2A15609   5.303   3.679   2.354  0.2268 -0.0508  2.5869
    2PC     H2B15610   5.214   3.804   2.262 -1.8019 -2.7316  0.1108
    2PC     N3115611   5.339   3.871   2.423 -0.2050  0.6663  0.1980
    2PC     C3315612   5.272   3.994   2.476 -0.5015  0.5901  0.0016
    2PC     H3A15613   5.210   3.974   2.563  1.1694  0.1096  1.1004
    2PC     H3B15614   5.340   4.076   2.497  1.1996 -0.5944 -0.6870
    2PC     H3C15615   5.197   4.020   2.401  0.5161  1.4839 -0.7383
    2PC     C3415616   5.429   3.803   2.522  0.0128 -0.4636 -0.7538
    2PC     H4A15617   5.492   3.875   2.573  0.8530 -2.1819  0.7375
    2PC     H4B15618   5.368   3.759   2.601  0.5882  1.3134  0.7575
    2PC     H4C15619   5.482   3.726   2.466  1.3598  0.8188 -1.3209
    2PC     C3515620   5.436   3.913   2.316  0.1750  0.6035  0.5181
    2PC     H5A15621   5.518   3.975   2.354  0.3171 -0.1357  1.4762
    2PC     H5B15622   5.391   3.973   2.237  0.0273 -0.3608 -0.1452
    2PC     H5C15623   5.483   3.827   2.268 -0.3484  0.6399 -0.0692
    2PC     O3315624   4.897   3.476   2.377  0.5216 -0.0783 -0.3172
    2PC     O3415625   4.891   3.628   2.562 -0.1196 -0.1721  0.7776
    2PC     O2115626   5.184   3.230   2.748 -0.1604  0.1357 -0.4250
    2PC     C2115627   5.281   3.144   2.711  0.1751  0.3864 -0.1449
    2PC     O2215628   5.396   3.176   2.693  0.1434  0.2796 -0.5486
    3OL     C1215629   5.230   3.002   2.697 -0.5701  0.6767 -0.4512
    3OL     H2R15630   5.319   2.943   2.674  0.2382  0.8896  1.8147
    3OL     H2S15631   5.153   2.997   2.620 -1.9978 -1.4433  1.0198
    3OL     C1315632   5.167   2.953   2.828 -0.0301  0.8567 -0.1163
    3OL     H3R15633   5.122   2.853   2.819  0.8752  0.5314 -1.1973
    3OL     H3S15634   5.082   3.017   2.852 -1.4789 -1.2586  0.7449
    3OL     C1415635   5.261   2.951   2.949 -0.0495 -0.2654 -0.1086
    3OL     H4R15636   5.291   3.054   2.968 -1.2028  0.3122 -1.2162
    3OL     H4S15637   5.347   2.888   2.923  0.1338  0.1771 -0.5988
    3OL     C1515638   5.182   2.900   3.070  0.1952 -0.7954 -0.1665
    3OL     H5R15639   5.133   2.807   3.040  0.6464 -0.9517 -0.4186
    3OL     H5S15640   5.100   2.971   3.087  1.1986 -0.0139  1.7604
    3OL     C1615641   5.267   2.886   3.196 -0.5917 -0.1160  0.4552
    3OL     H6R15642   5.314   2.980   3.225  2.0626 -0.9876 -0.6604
    3OL     H6S15643   5.341   2.810   3.170 -1.2048 -0.7214  0.4615
    3OL     C1715644   5.176   2.826   3.304 -0.3176 -1.0515  0.1762
    3OL     H7R15645   5.238   2.766   3.372 -0.0563  0.3622  1.2455
    3OL     H7S15646   5.093   2.767   3.264 -0.8509  1.4917 -2.8795
    3OL     C1815647   5.115   2.931   3.398  0.5767 -0.0975 -0.2848
    3OL     H8R15648   5.036   2.997   3.361  1.9325  2.7807  1.5911
    3OL     H8S15649   5.200   2.993   3.425  1.4184 -0.7686 -1.3484
    3OL     C1915650   5.056   2.862   3.519  0.1708  0.1088 -0.3615
    3OL     H9R15651   4.971   2.803   3.485 -1.9709  2.0625  1.3003
    3OL    C11015652   5.086   2.877   3.647  0.0859 -0.2993 -0.2942
    3OL    H10R15653   5.040   2.825   3.731 -0.0362  0.5135  0.1529
    3OL    C11115654   5.195   2.959   3.711 -0.2134 -0.1252 -0.0124
    3OL    H11R15655   5.251   3.010   3.633 -0.5030 -2.6967 -1.9945
    3OL    H11S15656   5.257   2.891   3.769  0.9107 -0.1170 -1.1673
    3OL    C11215657   5.139   3.067   3.806 -0.2908 -0.4531  0.3187
    3OL    H12R15658   5.094   3.013   3.889 -0.2999 -1.6619 -0.4497
    3OL    H12S15659   5.058   3.120   3.754  0.6217  0.0720 -0.6200
    3OL    C11315660   5.252   3.157   3.858 -1.0046  0.3582  0.4814
    3OL    H13R15661   5.296   3.227   3.788 -1.0786  0.5755  0.6501
    3OL    H13S15662   5.331   3.083   3.875 -0.8154 -0.1992 -2.3735
    3OL    C11415663   5.190   3.235   3.976  0.3904  0.7390  0.9826
    3OL    H14R15664   5.083   3.227   3.956  0.7710  0.1577 -1.1927
    3OL    H14S15665   5.223   3.339   3.981 -0.4316  1.1280 -0.7718
    3OL    C11515666   5.226   3.160   4.105  0.3838  0.2006  0.6769
    3OL    H15R15667   5.333   3.174   4.121  1.2955 -2.5645 -1.9295
    3OL    H15S15668   5.207   3.054   4.088  2.0939  0.2959 -2.5707
    3OL    C11615669   5.153   3.212   4.230 -0.7313 -0.6263  0.3865
    3OL    H16R15670   5.046   3.217   4.213 -0.6866  1.2314  0.4528
    3OL    H16S15671   5.178   3.318   4.240  1.2244 -0.7838 -1.9183
    3OL    C11715672   5.187   3.116   4.345 -0.0642 -0.3289  0.4419
    3OL    H17R15673   5.294   3.121   4.368  0.0637 -0.1479 -0.1529
    3OL    H17S15674   5.155   3.018   4.311 -0.1353  0.0687 -0.7076
    3OL    C11815675   5.098   3.153   4.464 -0.1834  0.2565  0.1757
    3OL    H18R15676   4.994   3.132   4.440  0.3928 -0.5073 -1.8755
    3OL    H18S15677   5.103   3.258   4.496 -3.3871  0.5574 -0.0173
    3OL    H18T15678   5.148   3.096   4.543  1.8840  0.3318 -1.0041
    1PA    C11615679   1.327   5.541   3.425  0.8011  0.4096 -0.4424
    1PA    H16R15680   1.253   5.470   3.462  1.2189 -0.0672 -0.5034
    1PA    H16S15681   1.266   5.599   3.355 -2.1743 -2.2231 -0.2552
    1PA    H16T15682   1.354   5.601   3.512  1.0905 -0.8556  0.3583
    1PA    C11515683   1.452   5.462   3.381  0.4838 -0.2888 -0.1102
    1PA    H15R15684   1.501   5.453   3.478  0.1516 -1.3886 -0.0397
    1PA    H15S15685   1.439   5.362   3.339 -0.5021 -0.2530  0.0739
    1PA    C11415686   1.538   5.552   3.291  0.5991 -0.9429 -0.6636
    1PA    H14R15687   1.519   5.655   3.322 -0.8206 -1.5468  0.6148
    1PA    H14S15688   1.643   5.532   3.315  0.7721  0.3136 -0.2955
    1PA    C11315689   1.514   5.529   3.141  0.0455 -0.3945 -0.6627
    1PA    H13R15690   1.556   5.430   3.124 -0.6062 -0.6944 -0.5381
    1PA    H13S15691   1.407   5.525   3.121 -0.6720  0.5324  2.3832
    1PA    C11215692   1.580   5.630   3.047  0.0270  0.5813  0.3475
    1PA    H12R15693   1.561   5.727   3.095  2.2594  0.5936  1.3448
    1PA    H12S15694   1.687   5.608   3.054 -0.3827 -1.3957  0.9281
    1PA    C11115695   1.530   5.617   2.902 -0.3901  0.5712  0.4930
    1PA    H11R15696   1.536   5.515   2.863  0.2340  0.1478  1.6462
    1PA    H11S15697   1.422   5.636   2.899 -1.2226 -3.4645 -2.0723
    1PA    C11015698   1.607   5.717   2.815 -0.3858  0.4398  0.3459
    1PA    H10R15699   1.602   5.822   2.845 -0.8903  0.4273  0.3270
    1PA    H10S15700   1.710   5.683   2.810 -0.0141  1.6342 -0.6225
    1PA     C1915701   1.558   5.711   2.669  0.1518  0.3298  0.1681
    1PA     H9R15702   1.546   5.613   2.623  0.3532  0.8991 -1.1170
    1PA     H9S15703   1.460   5.756   2.654 -0.0289 -0.0468  0.2095
    1PA     C1815704   1.650   5.781   2.569  0.2551 -0.1757 -0.0949
    1PA     H8R15705   1.678   5.884   2.593  0.6389  0.5434 -3.2113
    1PA     H8S15706   1.747   5.730   2.568 -0.4399 -1.5305  0.1642
    1PA     C1715707   1.598   5.780   2.425 -0.1519  0.3941  0.0432
    1PA     H7R15708   1.559   5.678   2.418  2.8154 -0.8471  0.2706
    1PA     H7S15709   1.510   5.844   2.423 -0.4726 -0.0261  0.5007
    1PA     C1615710   1.696   5.817   2.313  0.0261 -0.1478  0.0162
    1PA     H6R15711   1.735   5.916   2.338 -1.7611  1.4576 -2.9651
    1PA     H6S15712   1.785   5.754   2.314 -0.1428 -0.4307 -1.0639
    1PA     C1515713   1.632   5.805   2.174  0.0207 -0.4629  0.0448
    1PA     H5R15714   1.583   5.708   2.181 -1.1621  0.1117 -0.0538
    1PA     H5S15715   1.553   5.881   2.178 -0.4729 -0.9685  0.0396
    1PA     C1415716   1.731   5.820   2.058  0.1590  0.1426  0.2375
    1PA     H4R15717   1.786   5.914   2.069  0.3173  0.1067 -0.2009
    1PA     H4S15718   1.800   5.735   2.058 -0.1790 -0.1317  0.8329
    1PA     C1315719   1.661   5.814   1.921 -0.0031 -0.1080  0.3314
    1PA     H3R15720   1.603   5.721   1.921 -0.1097 -0.0413  0.3595
    1PA     H3S15721   1.592   5.897   1.912 -0.9254 -0.8878  0.0784
    1PA     C1215722   1.757   5.806   1.801  0.2228  0.1922  0.4913
    1PA     H2R15723   1.843   5.743   1.825  0.0260  0.3040  1.5327
    1PA     H2S15724   1.707   5.768   1.712 -0.9395 -0.0693  1.2319
    2PC     C1115725   1.825   5.936   1.766  0.3225  0.0439  0.1316
    2PC     O1215726   1.945   5.953   1.762  0.1845  0.9470 -0.6246
    2PC     O1115727   1.737   6.034   1.742 -0.0183 -0.3133 -0.0859
    2PC      C115728   1.783   6.165   1.703 -0.5328 -0.2371 -0.4489
    2PC      HR15729   1.864   6.195   1.770 -0.9521 -1.1182  0.4760
    2PC      HS15730   1.819   6.165   1.600  0.2609 -0.0226 -0.1813
    2PC      C215731   1.665   6.263   1.709 -0.3384 -0.0428  0.3163
    2PC      HX15732   1.573   6.209   1.686 -1.1549  0.4368  2.2434
    2PC      C315733   1.670   6.378   1.608 -0.2499 -0.1979  0.1439
    2PC      HA15734   1.686   6.337   1.508  0.1373  0.7200 -0.1865
    2PC      HB15735   1.577   6.433   1.590  0.1354  0.5847  0.4846
    2PC     O3115736   1.786   6.460   1.634 -0.2723 -0.0515 -0.2039
    2PC     P3115737   1.876   6.495   1.507  0.2559 -0.3778  0.0809
    2PC     O3215738   1.825   6.632   1.444 -0.3396 -0.7872 -0.3374
    2PC     C3115739   1.812   6.645   1.301 -0.0872  0.3385 -0.2697
    2PC     H1A15740   1.910   6.629   1.257 -0.3855 -0.3574 -0.7066
    2PC     H1B15741   1.737   6.570   1.273 -0.7568  0.6735  0.5659
    2PC     C3215742   1.748   6.784   1.287 -0.7554  0.0847  0.2026
    2PC     H2A15743   1.703   6.828   1.376 -0.9317  1.3824 -0.4982
    2PC     H2B15744   1.829   6.854   1.268 -1.6823  1.1198 -0.0549
    2PC     N3115745   1.652   6.801   1.173 -0.7005  0.0304  0.1491
    2PC     C3315746   1.721   6.753   1.048 -0.2610 -0.4166  0.5534
    2PC     H3A15747   1.740   6.647   1.062  0.4674 -0.0415  2.7848
    2PC     H3B15748   1.659   6.775   0.961  0.9203  0.1903 -0.1638
    2PC     H3C15749   1.815   6.808   1.042 -1.3603  1.4508 -0.5770
    2PC     C3415750   1.528   6.719   1.190 -0.3765 -0.4518  0.2186
    2PC     H4A15751   1.487   6.764   1.280 -0.6838 -0.5310  0.1202
    2PC     H4B15752   1.469   6.726   1.098 -1.4077 -0.7784  0.8456
    2PC     H4C15753   1.561   6.616   1.207 -1.6323 -0.9659 -0.2746
    2PC     C3515754   1.616   6.946   1.169  0.6202  0.3747 -0.0182
    2PC     H5A15755   1.587   6.966   1.273 -2.6986 -0.2032 -0.7003
    2PC     H5B15756   1.526   6.963   1.109 -0.5060  0.1092  1.5101
    2PC     H5C15757   1.698   7.011   1.139  0.3666  0.6372 -0.1494
    2PC     O3315758   2.017   6.520   1.545  0.2194  0.0778 -0.0854
    2PC     O3415759   1.912   6.381   1.419 -0.0731 -0.7425  0.4176
    2PC     O2115760   1.642   6.319   1.839 -0.1613  0.0640  0.3017
    2PC     C2115761   1.544   6.265   1.913 -0.0585  0.0274  0.4109
    2PC     O2215762   1.456   6.188   1.881  0.1994 -0.2303  0.3150
    3OL     C1215763   1.549   6.313   2.056  0.4633 -0.0401  0.4174
    3OL     H2R15764   1.518   6.417   2.066  0.5939  0.0311  0.1063
    3OL     H2S15765   1.654   6.305   2.086  0.0405  0.2440  2.1039
    3OL     C1315766   1.452   6.239   2.149  0.3186 -0.0317  0.2738
    3OL     H3R15767   1.467   6.134   2.121  0.4592  0.4473 -1.5418
    3OL     H3S15768   1.352   6.267   2.117  0.5241 -0.7688 -1.0805
    3OL     C1415769   1.477   6.245   2.301 -0.5137  0.2799  0.3998
    3OL     H4R15770   1.476   6.351   2.328 -0.3701  0.4005 -0.0582
    3OL     H4S15771   1.581   6.214   2.309 -0.3072  0.4257 -1.2910
    3OL     C1515772   1.377   6.156   2.376 -0.2626  0.2088  0.6456
    3OL     H5R15773   1.394   6.050   2.352 -0.2643  0.2182  0.6026
    3OL     H5S15774   1.276   6.192   2.359  0.1950  0.5859 -1.5509
    3OL     C1615775   1.416   6.151   2.525 -0.1661  0.3085  0.6241
    3OL     H6R15776   1.386   6.253   2.550  0.1266  0.3323  0.8775
    3OL     H6S15777   1.520   6.136   2.557 -0.3926  0.9748  1.7124
    3OL     C1715778   1.338   6.038   2.594  0.2224 -0.5510 -0.3070
    3OL     H7R15779   1.357   5.941   2.548 -2.8321 -0.6869 -1.4883
    3OL     H7S15780   1.235   6.049   2.558 -0.0303  1.9702  0.9748
    3OL     C1815781   1.350   6.048   2.747 -0.2868  0.1874 -0.3087
    3OL     H8R15782   1.313   6.144   2.782 -1.1286 -0.5959  1.0454
    3OL     H8S15783   1.455   6.033   2.774 -0.5647 -3.1581 -0.6304
    3OL     C1915784   1.272   5.933   2.805 -0.6205  0.4026 -0.3277
    3OL     H9R15785   1.238   5.860   2.732  0.2981  0.5955 -0.9568
    3OL    C11015786   1.247   5.916   2.934  0.0987  0.2738 -0.2011
    3OL    H10R15787   1.202   5.823   2.967  0.6560 -0.0057 -0.2298
    3OL    C11115788   1.297   6.000   3.049  0.3728  0.0257 -0.1383
    3OL    H11R15789   1.219   6.044   3.112  0.3555 -0.6576  0.3214
    3OL    H11S15790   1.343   6.093   3.013  0.4559 -0.1371 -0.4532
    3OL    C11215791   1.398   5.922   3.134  0.6709  0.0990 -0.4212
    3OL    H12R15792   1.481   5.902   3.066 -0.6562  2.0522 -2.7951
    3OL    H12S15793   1.339   5.836   3.167 -1.1519  1.7664  0.9297
    3OL    C11315794   1.431   6.010   3.255 -0.2719  0.1633 -0.2017
    3OL    H13R15795   1.337   6.055   3.286 -0.6241  0.0687 -1.1197
    3OL    H13S15796   1.505   6.087   3.233  0.9230 -0.9667 -0.2525
    3OL    C11415797   1.488   5.914   3.361 -0.3100  0.5227  0.1491
    3OL    H14R15798   1.585   5.877   3.326  0.1660  1.2482  0.6670
    3OL    H14S15799   1.416   5.834   3.376  0.3852  0.0355  0.9706
    3OL    C11515800   1.504   5.985   3.496  0.0782 -0.1393  0.4533
    3OL    H15R15801   1.548   6.083   3.479 -2.5470  1.2592  1.2292
    3OL    H15S15802   1.574   5.929   3.559  0.0727 -0.8561 -0.1598
    3OL    C11615803   1.374   5.995   3.577 -0.0434  0.5380  0.1806
    3OL    H16R15804   1.322   5.900   3.589 -2.6943  1.6031 -1.9681
    3OL    H16S15805   1.312   6.060   3.516 -2.0975 -3.1063 -1.9417
    3OL    C11715806   1.415   6.061   3.709  0.2920  0.8764 -0.0920
    3OL    H17R15807   1.439   6.164   3.683  0.2364  0.4528 -1.9218
    3OL    H17S15808   1.507   6.013   3.744  1.6393  2.2144 -1.6044
    3OL    C11815809   1.301   6.046   3.810 -0.0608 -0.9841 -0.7255
    3OL    H18R15810   1.210   6.095   3.774  0.1236 -0.4268 -0.4532
    3OL    H18S15811   1.326   6.081   3.911 -0.3412 -0.8739 -0.6939
    3OL    H18T15812   1.276   5.940   3.820  3.3357 -1.8105  0.6077
    1PA    C11615813   1.825   4.821   3.152  0.3808  0.7105  0.0187
    1PA    H16R15814   1.889   4.909   3.164  0.3008  1.0796 -1.9134
    1PA    H16S15815   1.872   4.740   3.097 -3.1547 -2.3228  1.0463
    1PA    H16T15816   1.796   4.774   3.246  2.1182  1.0079  0.7452
    1PA    C11515817   1.700   4.865   3.075  0.0142  0.3836  0.4229
    1PA    H15R15818   1.619   4.791   3.080  2.4323 -2.4010  0.7211
    1PA    H15S15819   1.665   4.950   3.134 -1.0766 -1.5540  2.7310
    1PA    C11415820   1.725   4.918   2.933 -0.0043 -0.1819  0.2053
    1PA    H14R15821   1.806   4.991   2.940 -0.8291  0.5838  2.9785
    1PA    H14S15822   1.757   4.840   2.863  1.7940  1.6443 -1.1159
    1PA    C11315823   1.594   4.974   2.875  0.1580  0.4473  0.4406
    1PA    H13R15824   1.528   4.889   2.860  2.1183 -1.4359  1.7689
    1PA    H13S15825   1.542   5.039   2.946  0.2612 -1.8171  2.7295
    1PA    C11215826   1.619   5.040   2.739 -0.1219 -0.0029  0.1681
    1PA    H12R15827   1.702   5.111   2.739 -0.7214  0.8289 -2.4404
    1PA    H12S15828   1.654   4.959   2.675  1.3454  0.1659  0.7279
    1PA    C11115829   1.495   5.118   2.692 -0.1092 -0.1096 -0.0448
    1PA    H11R15830   1.410   5.049   2.689 -1.0690  1.0374  0.0348
    1PA    H11S15831   1.469   5.185   2.774  1.4211  0.7911 -0.2603
    1PA    C11015832   1.512   5.202   2.565 -0.0952 -0.6040 -0.3708
    1PA    H10R15833   1.581   5.284   2.588 -1.1820 -0.0997  1.1686
    1PA    H10S15834   1.562   5.152   2.481  0.9142  1.2412 -0.9117
    1PA     C1915835   1.372   5.245   2.521 -0.1669 -0.6238 -0.1598
    1PA     H9R15836   1.291   5.171   2.519 -1.4462  0.5774  2.4928
    1PA     H9S15837   1.342   5.325   2.589  0.2514 -0.9953  0.4672
    1PA     C1815838   1.382   5.310   2.382  0.2515  0.6488  0.4501
    1PA     H8R15839   1.440   5.239   2.323  1.9250  0.5704  2.0738
    1PA     H8S15840   1.279   5.331   2.351  0.6939 -0.0260 -1.6409
    1PA     C1715841   1.464   5.438   2.364  0.3028  0.5019 -0.3911
    1PA     H7R15842   1.398   5.509   2.314  0.0135  0.4851 -0.0357
    1PA     H7S15843   1.500   5.482   2.458 -1.0410  0.9288 -0.0566
    1PA     C1615844   1.591   5.413   2.281  0.6664  0.6669  0.1091
    1PA     H6R15845   1.665   5.492   2.295 -0.3211  1.6746 -0.1757
    1PA     H6S15846   1.633   5.317   2.314  0.3463  0.5413  0.1543
    1PA     C1515847   1.547   5.397   2.135  0.1125 -0.1320  0.3531
    1PA     H5R15848   1.499   5.300   2.123  0.6506 -0.3531 -0.0087
    1PA     H5S15849   1.474   5.478   2.122 -0.7418 -1.1770 -1.8916
    1PA     C1415850   1.648   5.430   2.025 -0.1902  0.0143  0.1163
    1PA     H4R15851   1.706   5.521   2.044  0.9658 -0.4025 -1.1895
    1PA     H4S15852   1.724   5.351   2.024  0.3540  0.4534  2.3784
    1PA     C1315853   1.577   5.439   1.889 -0.0579 -0.6369  0.0028
    1PA     H3R15854   1.504   5.358   1.876 -1.6804  0.8495 -0.5764
    1PA     H3S15855   1.522   5.533   1.886  1.5413  0.4596  2.3171
    1PA     C1215856   1.665   5.440   1.763 -0.6529 -0.4640 -0.4160
    1PA     H2R15857   1.752   5.505   1.772  1.9395 -3.7515  0.5539
    1PA     H2S15858   1.707   5.340   1.751  0.2351 -0.1851  0.2229
    2PC     C1115859   1.587   5.469   1.638 -0.1900  0.2805 -0.5340
    2PC     O1215860   1.590   5.578   1.583 -0.4077  0.3131 -0.4851
    2PC     O1115861   1.520   5.364   1.589 -0.0065 -0.0800 -0.0082
    2PC      C115862   1.460   5.372   1.459 -0.0585  0.4909  0.0513
    2PC      HR15863   1.389   5.455   1.459  1.6431  2.0283  0.1297
    2PC      HS15864   1.533   5.402   1.382  0.1184  0.9492  0.3911
    2PC      C215865   1.379   5.245   1.432 -0.0631  0.4081  0.4546
    2PC      HX15866   1.445   5.157   1.427 -0.3444  0.2015  0.3842
    2PC      C315867   1.297   5.257   1.303 -0.1660 -0.2857  0.4476
    2PC      HA15868   1.241   5.351   1.312 -0.5044 -0.5085  0.6846
    2PC      HB15869   1.370   5.281   1.225 -2.9899  4.8418 -1.1429
    2PC     O3115870   1.214   5.142   1.279 -0.1476 -0.2289  0.1084
    2PC     P3115871   1.130   5.128   1.143  0.4330 -0.1051 -0.2674
    2PC     O3215872   1.030   5.005   1.163  0.3659 -0.0688 -0.3817
    2PC     C3115873   0.923   4.976   1.071  0.1886 -0.1652 -0.1471
    2PC     H1A15874   0.857   5.062   1.055  0.3571 -0.2695 -1.4378
    2PC     H1B15875   0.970   4.936   0.981 -1.5058 -1.6158 -0.4505
    2PC     C3215876   0.836   4.866   1.134 -0.5528  0.2724 -0.3998
    2PC     H2A15877   0.742   4.854   1.079  0.3324 -1.5145 -1.5992
    2PC     H2B15878   0.887   4.770   1.139  2.9313  1.9611 -0.8892
    2PC     N3115879   0.769   4.886   1.267 -0.0168 -0.3389 -0.0323
    2PC     C3315880   0.872   4.891   1.375 -0.5826  0.2358  0.4910
    2PC     H3A15881   0.825   4.849   1.465  0.0794 -0.0515  0.7078
    2PC     H3B15882   0.962   4.831   1.361 -0.1200  0.8255  0.9057
    2PC     H3C15883   0.900   4.996   1.387  2.0772 -0.4661  1.0869
    2PC     C3415884   0.688   5.012   1.272  0.5631  0.0398 -0.1449
    2PC     H4A15885   0.649   5.034   1.172 -0.4977  2.7771  0.7610
    2PC     H4B15886   0.598   5.006   1.333  0.7148  1.6393  0.2994
    2PC     H4C15887   0.730   5.103   1.315 -0.6949  1.1629 -1.1707
    2PC     C3515888   0.676   4.769   1.278  0.1552 -0.4857 -0.1334
    2PC     H5A15889   0.628   4.771   1.376  3.2821  0.2306  1.5079
    2PC     H5B15890   0.737   4.680   1.271  1.3132  0.1340  1.6021
    2PC     H5C15891   0.594   4.765   1.206  0.3587 -0.3530 -0.3725
    2PC     O3315892   1.047   5.247   1.114 -0.6634 -0.6478  0.5533
    2PC     O3415893   1.226   5.108   1.033 -0.0380 -0.4132 -0.6253
    2PC     O2115894   1.287   5.222   1.540 -0.2051 -0.2615  0.1978
    2PC     C2115895   1.324   5.137   1.638  0.5961  0.2361  0.3364
    2PC     O2215896   1.419   5.062   1.644  0.1406 -0.4521 -0.7432
    3OL     C1215897   1.217   5.136   1.744 -0.0638 -0.3919 -0.3258
    3OL     H2R15898   1.126   5.179   1.703 -1.2109 -1.6723  0.7858
    3OL     H2S15899   1.252   5.205   1.822 -0.3770 -0.9645  0.3366
    3OL     C1315900   1.202   4.999   1.812 -0.4748 -0.2655 -0.1596
    3OL     H3R15901   1.288   4.984   1.876  1.4628  0.4362 -2.4522
    3OL     H3S15902   1.205   4.909   1.750  1.4876 -1.2874  1.3189
    3OL     C1415903   1.078   4.990   1.903 -0.1294  0.5154  0.3999
    3OL     H4R15904   1.064   5.083   1.957 -1.1758  0.3862  0.3723
    3OL     H4S15905   1.101   4.908   1.971 -1.6919 -1.5667 -1.4316
    3OL     C1515906   0.948   4.954   1.830  0.2367 -0.2389  0.0959
    3OL     H5R15907   0.958   4.861   1.775  1.4855  1.0346 -1.9381
    3OL     H5S15908   0.917   5.024   1.752 -3.8577 -1.8890 -0.0140
    3OL     C1615909   0.826   4.936   1.923 -0.3239  0.1199 -0.5578
    3OL     H6R15910   0.740   4.908   1.863  1.3374 -1.6371 -2.2882
    3OL     H6S15911   0.802   5.029   1.974 -1.8250 -0.0153 -0.9799
    3OL     C1715912   0.862   4.829   2.027 -0.0463  0.5383 -0.2179
    3OL     H7R15913   0.949   4.854   2.087 -0.0781  0.3299 -0.0838
    3OL     H7S15914   0.876   4.731   1.979 -2.0170 -0.6359  1.4470
    3OL     C1815915   0.752   4.819   2.133 -0.0654 -0.2342 -0.2984
    3OL     H8R15916   0.657   4.819   2.079 -0.4036 -2.2038  0.2187
    3OL     H8S15917   0.746   4.910   2.194 -0.4077 -0.7974  0.5184
    3OL     C1915918   0.762   4.700   2.225 -0.1340  0.2499  0.3427
    3OL     H9R15919   0.785   4.601   2.188 -1.8132  0.1350 -0.4340
    3OL    C11015920   0.713   4.696   2.348 -0.1546  0.3291  0.3371
    3OL    H10R15921   0.708   4.607   2.410 -2.7828  1.5976  2.1401
    3OL    C11115922   0.671   4.819   2.424 -0.2490  0.3730  0.2134
    3OL    H11R15923   0.698   4.918   2.386 -0.4206  0.7217  0.9765
    3OL    H11S15924   0.728   4.810   2.517  3.0123 -0.1078 -1.6718
    3OL    C11215925   0.519   4.825   2.446 -0.3206  0.1415 -0.2135
    3OL    H12R15926   0.478   4.725   2.453  0.1449 -0.0189  0.2954
    3OL    H12S15927   0.492   4.877   2.354 -1.0510  1.3329  0.6421
    3OL    C11315928   0.493   4.901   2.577  0.7643 -0.0313  0.1161
    3OL    H13R15929   0.387   4.927   2.586  0.4920 -0.6096 -1.1772
    3OL    H13S15930   0.554   4.990   2.590  1.2048 -0.5278  1.6004
    3OL    C11415931   0.536   4.827   2.705 -0.1070 -0.2374  0.3018
    3OL    H14R15932   0.644   4.824   2.724 -0.1546 -0.4462  0.5377
    3OL    H14S15933   0.493   4.727   2.697 -2.5339  0.7323  0.2976
    3OL    C11515934   0.479   4.885   2.834 -0.7906 -0.0645 -0.0741
    3OL    H15R15935   0.509   4.990   2.835 -2.1182  0.3415 -0.2831
    3OL    H15S15936   0.522   4.837   2.922 -0.5988 -0.4506 -0.3781
    3OL    C11615937   0.325   4.886   2.838 -0.7888 -0.4975  0.0944
    3OL    H16R15938   0.278   4.794   2.802 -1.2329 -0.0699 -0.4214
    3OL    H16S15939   0.280   4.965   2.778 -0.1908 -1.5615 -1.8461
    3OL    C11715940   0.281   4.911   2.983 -0.4364 -0.1044  0.1353
    3OL    H17R15941   0.340   4.993   3.026 -0.5536 -0.3063  0.6989
    3OL    H17S15942   0.313   4.824   3.042  1.4290  0.6860  0.3518
    3OL    C11815943   0.132   4.938   3.004 -0.3822  0.1482  0.1951
    3OL    H18R15944   0.072   4.864   2.950  2.6818 -2.9101  0.6343
    3OL    H18S15945   0.101   5.040   2.979  1.1072  0.3391 -0.9741
    3OL    H18T15946   0.100   4.939   3.108 -2.0563 -2.1076 -0.2281
    1PA    C11615947   3.153   5.830   3.372 -0.3047 -0.5833  0.1465
    1PA    H16R15948   3.125   5.830   3.477 -2.1822 -0.0035 -0.3199
    1PA    H16S15949   3.241   5.891   3.350  0.3547 -1.9687 -1.3185
    1PA    H16T15950   3.169   5.723   3.355 -0.5645 -0.5967 -0.0209
    1PA    C11515951   3.032   5.871   3.287 -0.1457  0.1040  0.2410
    1PA    H15R15952   2.948   5.811   3.324  0.4795  0.7264  2.9011
    1PA    H15S15953   3.006   5.976   3.298 -0.8780  0.5203 -3.8305
    1PA    C11415954   3.050   5.882   3.135 -0.3761  0.1285  0.2143
    1PA    H14R15955   2.955   5.902   3.085 -0.2087 -1.6515 -0.9093
    1PA    H14S15956   3.120   5.965   3.119 -0.0943 -0.0743  0.3804
    1PA    C11315957   3.109   5.754   3.074 -0.0044  0.4136 -0.0347
    1PA    H13R15958   3.206   5.737   3.121  0.5198 -0.8775 -1.4914
    1PA    H13S15959   3.045   5.668   3.092  1.2970 -0.7677 -0.8893
    1PA    C11215960   3.131   5.762   2.923 -0.2706 -0.4999 -0.1258
    1PA    H12R15961   3.034   5.771   2.872  0.2320 -0.0928 -1.0360
    1PA    H12S15962   3.195   5.845   2.894 -0.7165 -0.6892 -1.7910
    1PA    C11115963   3.201   5.639   2.864  0.0730 -0.2613 -0.2134
    1PA    H11R15964   3.295   5.624   2.917  0.4442 -0.2829 -0.8621
    1PA    H11S15965   3.135   5.554   2.876 -0.0817  0.0183  1.0868
    1PA    C11015966   3.231   5.661   2.715  0.8153  0.5443  0.0442
    1PA    H10R15967   3.136   5.677   2.664 -0.1313  0.6770  1.7758
    1PA    H10S15968   3.305   5.737   2.689  3.5383 -2.7693 -3.1833
    1PA     C1915969   3.304   5.537   2.660 -0.2743 -0.3168  0.5023
    1PA     H9R15970   3.385   5.515   2.731  0.5781 -1.5731 -0.7944
    1PA     H9S15971   3.249   5.443   2.666 -0.4792 -0.2004  0.4243
    1PA     C1815972   3.352   5.565   2.517 -0.2460 -0.1406  0.5454
    1PA     H8R15973   3.272   5.602   2.453 -1.6763  0.0198  2.3687
    1PA     H8S15974   3.420   5.650   2.513 -1.1146  0.5033 -0.8313
    1PA     C1715975   3.413   5.444   2.444 -0.0124  0.1635  0.2362
    1PA     H7R15976   3.346   5.359   2.450  2.7342 -2.2776 -0.9248
    1PA     H7S15977   3.428   5.470   2.339  0.2672 -2.2433 -0.3807
    1PA     C1615978   3.549   5.402   2.503  0.4631  0.0411 -0.9127
    1PA     H6R15979   3.532   5.362   2.603 -3.3474  3.4057  0.0773
    1PA     H6S15980   3.576   5.315   2.442 -0.0404 -2.1510  1.7773
    1PA     C1515981   3.653   5.515   2.501  0.0668  0.4302 -0.1163
    1PA     H5R15982   3.647   5.553   2.399 -1.0560  2.7473  0.7347
    1PA     H5S15983   3.627   5.596   2.569 -1.9529 -0.9049  0.8136
    1PA     C1415984   3.794   5.462   2.529  0.1398  0.1589 -0.9794
    1PA     H4R15985   3.790   5.421   2.630  1.1267  1.1256 -0.5372
    1PA     H4S15986   3.835   5.383   2.465  1.1776 -1.1700  1.1999
    1PA     C1315987   3.901   5.572   2.529 -0.0135  0.3091 -0.1911
    1PA     H3R15988   3.893   5.618   2.430 -0.6469 -1.6750 -1.1053
    1PA     H3S15989   3.875   5.646   2.605 -0.4147  0.6581 -0.6636
    1PA     C1215990   4.048   5.530   2.545 -0.2678 -0.4804  0.1304
    1PA     H2R15991   4.101   5.623   2.523 -1.6753  0.0508 -1.2071
    1PA     H2S15992   4.057   5.496   2.648  0.5024 -1.0278 -0.1154
    2PC     C1115993   4.084   5.422   2.446  0.3539 -0.0520 -0.1180
    2PC     O1215994   4.087   5.438   2.326 -0.1530 -0.3244 -0.1704
    2PC     O1115995   4.103   5.304   2.508  0.0799 -0.0115  0.0473
    2PC      C115996   4.156   5.189   2.440  0.2889  0.0772  0.0583
    2PC      HR15997   4.134   5.104   2.506  1.0708  1.2985  1.9739
    2PC      HS15998   4.105   5.186   2.344  1.1212 -0.0565 -0.3826
    2PC      C215999   4.308   5.198   2.419  0.3027  0.5749  0.3499
    2PC      HX16000   4.341   5.289   2.369 -1.4201  1.0503 -0.0135
    2PC      C316001   4.356   5.091   2.320 -0.1095  0.2751  0.4691
    2PC      HA16002   4.336   4.993   2.364  0.0812 -0.3908 -0.8578
    2PC      HB16003   4.320   5.109   2.219  0.3256 -0.3998  0.1822
    2PC     O3116004   4.500   5.099   2.314 -0.0946 -0.2268  0.0814
    2PC     P3116005   4.564   5.024   2.187 -0.0271  0.0459 -0.0473
    2PC     O3216006   4.706   5.097   2.197  0.0418 -0.1051  0.0743
    2PC     C3116007   4.812   5.040   2.276 -0.1308 -0.3202  0.1544
    2PC     H1A16008   4.881   5.124   2.290 -0.6402 -0.0440  1.1479
    2PC     H1B16009   4.769   5.018   2.374  1.8911  1.0104  1.4227
    2PC     C3216010   4.870   4.916   2.208  0.2102  0.0010 -0.1466
    2PC     H2A16011   4.939   4.872   2.280  0.3525  0.9324  0.2941
    2PC     H2B16012   4.793   4.848   2.171  2.8232 -3.4040  0.2080
    2PC     N3116013   4.948   4.950   2.085  0.2573  0.6555  0.0629
    2PC     C3316014   4.856   4.995   1.976  0.4893 -0.0744 -0.4439
    2PC     H3A16015   4.811   5.093   1.996 -1.4807 -0.3723 -2.8276
    2PC     H3B16016   4.911   5.002   1.882 -1.5360 -2.6740 -1.9727
    2PC     H3C16017   4.775   4.928   1.945  1.0073 -0.3867 -1.1436
    2PC     C3416018   5.058   5.050   2.108  0.6647  0.3252 -0.4083
    2PC     H4A16019   5.117   5.046   2.017  0.2826 -1.0364 -0.6155
    2PC     H4B16020   5.024   5.152   2.128  2.5008  1.0385 -0.7015
    2PC     H4C16021   5.114   5.008   2.191 -1.8036 -0.3889  1.0212
    2PC     C3516022   5.021   4.831   2.030 -0.8934 -0.0608  0.0553
    2PC     H5A16023   5.097   4.858   1.957 -0.9736 -2.2864 -0.9312
    2PC     H5B16024   4.950   4.757   1.994  0.0819 -0.8377 -0.2974
    2PC     H5C16025   5.081   4.796   2.114 -1.1357  1.8627  1.0797
    2PC     O3316026   4.555   4.877   2.201  0.1850  0.0679  0.3370
    2PC     O3416027   4.494   5.056   2.060 -0.3040  0.3431  0.1768
    2PC     O2116028   4.379   5.185   2.543  0.5525 -0.3862  0.1179
    2PC     C2116029   4.400   5.295   2.617 -0.1386 -0.1189 -0.0775
    2PC     O2216030   4.372   5.409   2.584  0.1117 -0.1782 -0.5070
    3OL     C1216031   4.462   5.265   2.751 -0.5149  0.4440  0.2294
    3OL     H2R16032   4.478   5.157   2.764  1.7834  0.9649  2.4003
    3OL     H2S16033   4.396   5.285   2.835 -1.7460  0.6163 -0.7519
    3OL     C1316034   4.593   5.345   2.755  0.3900 -0.9736 -0.1957
    3OL     H3R16035   4.575   5.449   2.728 -1.9187 -1.2827 -0.0707
    3OL     H3S16036   4.663   5.297   2.687  0.2040  0.4213 -1.4229
    3OL     C1416037   4.656   5.353   2.895 -0.2347 -0.8466  0.0843
    3OL     H4R16038   4.750   5.409   2.883 -0.6704 -0.4156 -1.7720
    3OL     H4S16039   4.669   5.257   2.945  0.7354 -0.9515 -0.3390
    3OL     C1516040   4.586   5.455   2.985  0.1823 -0.5270  0.0528
    3OL     H5R16041   4.477   5.443   2.985  0.2411 -1.1279 -0.9919
    3OL     H5S16042   4.614   5.554   2.948  0.4457 -0.9756 -0.9811
    3OL     C1616043   4.626   5.437   3.132  0.1656 -0.0199  0.1211
    3OL     H6R16044   4.626   5.329   3.150 -0.6278  0.1030  0.9319
    3OL     H6S16045   4.549   5.487   3.191  0.1896  1.9022 -1.3698
    3OL     C1716046   4.763   5.494   3.173  0.5636 -0.4827 -0.5417
    3OL     H7R16047   4.760   5.598   3.204  0.9484 -0.6080 -0.0689
    3OL     H7S16048   4.836   5.482   3.093  1.0494  2.2503 -0.5826
    3OL     C1816049   4.810   5.426   3.303 -0.2540  0.4762  0.2770
    3OL     H8R16050   4.828   5.319   3.285  2.6370  1.2578 -2.4979
    3OL     H8S16051   4.722   5.431   3.367  0.2854  1.1187  0.9762
    3OL     C1916052   4.942   5.472   3.359 -0.2311 -0.0532  0.6690
    3OL     H9R16053   5.014   5.501   3.282  0.0366 -0.3097  0.8221
    3OL    C11016054   4.975   5.462   3.486  0.4413 -0.1034  0.4949
    3OL    H10R16055   5.075   5.491   3.517 -0.3382  0.7528  2.3636
    3OL    C11116056   4.874   5.413   3.588  0.0886  0.1450  0.2680
    3OL    H11R16057   4.824   5.325   3.547  0.5489 -1.1672  2.3410
    3OL    H11S16058   4.811   5.499   3.609  3.0325  2.3665  0.6827
    3OL    C11216059   4.950   5.369   3.714 -0.0217  0.0224  0.2915
    3OL    H12R16060   5.009   5.457   3.741 -0.2028 -0.0802  1.0501
    3OL    H12S16061   5.014   5.286   3.685 -0.2163  0.7140 -2.3300
    3OL    C11316062   4.858   5.341   3.834 -1.0706  0.3190 -0.4255
    3OL    H13R16063   4.796   5.254   3.811 -1.4129  0.0968  1.2258
    3OL    H13S16064   4.796   5.430   3.849  0.0265  1.1848 -0.8859
    3OL    C11416065   4.937   5.315   3.963 -0.6536 -0.2139 -0.7855
    3OL    H14R16066   4.871   5.301   4.049  1.0985 -2.5561  0.3200
    3OL    H14S16067   5.008   5.396   3.979 -1.1078 -0.1748  1.2998
    3OL    C11516068   5.013   5.181   3.958 -0.0398  0.1056 -0.1935
    3OL    H15R16069   5.097   5.192   4.027 -1.2802  1.3310  1.2204
    3OL    H15S16070   5.051   5.167   3.857  0.0322  1.5129 -0.3795
    3OL    C11616071   4.923   5.064   4.001  0.1447 -0.0359 -0.1926
    3OL    H16R16072   4.842   5.053   3.929  1.8188 -4.0046 -1.7307
    3OL    H16S16073   4.869   5.083   4.094  1.9874  1.7100  0.5981
    3OL    C11716074   4.989   4.926   4.014  0.3172  0.0771  0.1559
    3OL    H17R16075   4.909   4.864   4.053  0.1224  0.4146  0.2977
    3OL    H17S16076   5.060   4.929   4.096 -0.2756 -0.4492  0.6994
    3OL    C11816077   5.045   4.866   3.884  0.3910 -0.7459  0.5627
    3OL    H18R16078   5.111   4.944   3.845 -1.3353  0.5561  0.1326
    3OL    H18S16079   4.971   4.832   3.811  0.6842  2.1127 -1.2439
    3OL    H18T16080   5.107   4.778   3.903  1.1508 -0.7963 -1.8623
    1PA    C11616081   1.326   2.801   3.672  0.1078 -0.3596 -0.4398
    1PA    H16R16082   1.305   2.711   3.731 -1.4454 -0.1204 -0.5892
    1PA    H16S16083   1.233   2.847   3.637  0.0520  0.8465  1.1535
    1PA    H16T16084   1.376   2.871   3.740  1.3719 -1.7420  0.1090
    1PA    C11516085   1.408   2.768   3.547  0.4496 -0.5861 -0.1568
    1PA    H15R16086   1.402   2.854   3.480 -2.3332  1.7627  2.8012
    1PA    H15S16087   1.511   2.735   3.562  1.6025  1.7124 -2.2899
    1PA    C11416088   1.352   2.644   3.476 -0.4512 -0.2384 -0.0607
    1PA    H14R16089   1.354   2.550   3.533 -1.9540 -0.2165  0.0848
    1PA    H14S16090   1.247   2.662   3.452 -0.7383 -2.7729 -0.9738
    1PA    C11316091   1.434   2.622   3.349 -0.2247 -0.3403  0.1040
    1PA    H13R16092   1.445   2.719   3.302  0.8784 -0.8055 -0.6599
    1PA    H13S16093   1.536   2.587   3.368 -0.4323  0.1455  2.3970
    1PA    C11216094   1.370   2.515   3.259 -0.0251 -0.1645 -0.2516
    1PA    H12R16095   1.277   2.555   3.217 -0.1835 -0.6354 -0.3513
    1PA    H12S16096   1.438   2.513   3.174  0.3302 -1.9231  0.0378
    1PA    C11116097   1.361   2.376   3.323  0.6984 -0.1246 -0.0559
    1PA    H11R16098   1.459   2.353   3.365  0.9423 -0.0557 -0.5728
    1PA    H11S16099   1.293   2.393   3.406 -0.3692  1.3590 -1.1825
    1PA    C11016100   1.310   2.271   3.223  0.2243 -0.0089  0.0614
    1PA    H10R16101   1.212   2.307   3.191  0.4157  0.4015 -0.0660
    1PA    H10S16102   1.377   2.271   3.137  2.2593 -1.2095  1.5618
    1PA     C1916103   1.306   2.127   3.277  0.1116 -0.1486 -0.3163
    1PA     H9R16104   1.412   2.110   3.294  0.1472  1.3887  1.2284
    1PA     H9S16105   1.253   2.130   3.373  2.1930  0.9108  0.8498
    1PA     C1816106   1.235   2.029   3.182  0.1240 -0.3334 -0.1353
    1PA     H8R16107   1.203   1.943   3.242 -1.0126  1.3380  1.7951
    1PA     H8S16108   1.145   2.064   3.131 -0.1880  0.6508  1.0289
    1PA     C1716109   1.339   1.990   3.076 -0.2623  0.3929 -0.7945
    1PA     H7R16110   1.347   2.080   3.015 -3.8429  1.1060 -0.4169
    1PA     H7S16111   1.435   1.958   3.118  1.3131  2.1864 -2.8088
    1PA     C1616112   1.277   1.876   2.995 -0.2407  0.2275 -0.5800
    1PA     H6R16113   1.288   1.784   3.053  2.0745 -0.5112 -2.0681
    1PA     H6S16114   1.170   1.885   2.974 -0.1164 -0.8312 -1.8188
    1PA     C1516115   1.351   1.862   2.861 -0.0689 -0.8821 -0.3813
    1PA     H5R16116   1.460   1.864   2.874 -0.0917 -0.0339 -0.2190
    1PA     H5S16117   1.319   1.766   2.822 -1.0216 -1.1816  1.0598
    1PA     C1416118   1.316   1.972   2.760 -0.5864 -0.5110  0.1892
    1PA     H4R16119   1.209   1.965   2.738 -1.0866  0.9511  1.9436
    1PA     H4S16120   1.333   2.071   2.802 -0.4728 -0.2874 -0.3728
    1PA     C1316121   1.397   1.951   2.630 -0.1190  0.3247  0.3360
    1PA     H3R16122   1.499   1.980   2.656 -0.6457  0.1621  2.8401
    1PA     H3S16123   1.393   1.847   2.596  3.5580  0.2689 -0.3295
    1PA     C1216124   1.355   2.055   2.526  0.0068  0.2826  0.2431
    1PA     H2R16125   1.251   2.029   2.503  0.3924 -0.4012 -0.8127
    1PA     H2S16126   1.365   2.159   2.559  1.2380 -0.2331  1.5936
    2PC     C1116127   1.418   2.038   2.390  0.5327  0.1301  0.5069
    2PC     O1216128   1.446   1.930   2.341  0.8170  0.4094  0.0503
    2PC     O1116129   1.450   2.152   2.328 -0.1711  0.2829  0.4210
    2PC      C116130   1.508   2.148   2.196  0.0873 -0.6127  0.5597
    2PC      HR16131   1.606   2.102   2.211  1.6394  2.1970 -0.2268
    2PC      HS16132   1.436   2.089   2.139  0.0742  0.4043 -0.4861
    2PC      C216133   1.514   2.291   2.141  0.8038 -0.7185  0.3467
    2PC      HX16134   1.416   2.338   2.150  1.1696  0.6016 -1.8493
    2PC      C316135   1.568   2.296   1.997  0.3160  0.1581  0.1881
    2PC      HA16136   1.676   2.281   1.989  0.1312 -0.7010 -0.8709
    2PC      HB16137   1.514   2.221   1.939 -0.0752  0.0928  0.6207
    2PC     O3116138   1.540   2.427   1.945  0.1267  0.0974  0.1362
    2PC     P3116139   1.611   2.485   1.814 -0.2351  0.2637  0.0123
    2PC     O3216140   1.608   2.361   1.712  0.2701 -0.0669  0.3950
    2PC     C3116141   1.487   2.348   1.635  0.1571  0.0482  0.5503
    2PC     H1A16142   1.403   2.349   1.704 -0.9457 -0.5964 -0.7471
    2PC     H1B16143   1.476   2.439   1.575  1.4647  0.8122  1.4105
    2PC     C3216144   1.485   2.221   1.549 -0.1691  0.9608 -0.8336
    2PC     H2A16145   1.515   2.138   1.614  0.4019  1.2131 -0.7763
    2PC     H2B16146   1.383   2.210   1.512 -0.4778  0.1025  0.2178
    2PC     N3116147   1.578   2.214   1.432  0.2016 -0.0267 -0.4923
    2PC     C3316148   1.549   2.087   1.359  0.3108 -0.5855  0.4232
    2PC     H3A16149   1.630   2.075   1.287 -0.7830 -0.8420 -0.7876
    2PC     H3B16150   1.526   2.004   1.426 -0.2736  1.2930  2.6747
    2PC     H3C16151   1.452   2.101   1.311 -0.8825 -1.8796  2.3102
    2PC     C3416152   1.565   2.332   1.341 -0.0403  0.1747 -0.1995
    2PC     H4A16153   1.625   2.313   1.252 -1.7562 -5.0695 -0.5514
    2PC     H4B16154   1.466   2.343   1.297 -0.5794  0.4872  1.0470
    2PC     H4C16155   1.599   2.423   1.391  0.0614  0.8529 -1.4648
    2PC     C3516156   1.718   2.207   1.484 -0.0566 -0.0696  0.2067
    2PC     H5A16157   1.737   2.295   1.546  0.2689  0.7360 -1.0053
    2PC     H5B16158   1.793   2.214   1.405 -1.1971  0.3248 -0.8535
    2PC     H5C16159   1.742   2.117   1.541  2.2244 -0.1029 -0.6817
    2PC     O3316160   1.531   2.596   1.757 -0.0905 -0.0545 -0.8255
    2PC     O3416161   1.745   2.545   1.831 -0.1469  0.0239  0.1682
    2PC     O2116162   1.609   2.351   2.230  0.3794 -0.1390  0.4191
    2PC     C2116163   1.638   2.481   2.245 -0.1241 -0.0007  0.2134
    2PC     O2216164   1.572   2.569   2.195 -0.1457 -0.0487  0.1588
    3OL     C1216165   1.759   2.500   2.333  0.0731  0.0134 -0.0603
    3OL     H2R16166   1.818   2.580   2.288 -0.7617 -0.7087 -2.5685
    3OL     H2S16167   1.815   2.406   2.329  1.6420  0.9462 -1.8657
    3OL     C1316168   1.730   2.535   2.480  0.9334 -0.1465  0.1580
    3OL     H3R16169   1.702   2.442   2.529 -2.6382  0.9128  0.4229
    3OL     H3S16170   1.641   2.599   2.476  1.6435  0.8304 -1.9485
    3OL     C1416171   1.842   2.594   2.566  1.0190 -0.2374  0.1084
    3OL     H4R16172   1.793   2.607   2.663 -1.3479 -1.4918 -0.8308
    3OL     H4S16173   1.868   2.688   2.517 -0.4770 -0.9603 -2.2037
    3OL     C1516174   1.959   2.495   2.575  0.8510 -0.5208 -0.7335
    3OL     H5R16175   2.017   2.490   2.482  1.6830 -1.0583 -0.2008
    3OL     H5S16176   1.925   2.392   2.590  1.4339 -0.5127  0.9105
    3OL     C1616177   2.055   2.532   2.689 -0.5069 -0.8236  0.5282
    3OL     H6R16178   1.995   2.540   2.780 -0.5645  3.0871  0.3309
    3OL     H6S16179   2.099   2.630   2.669 -0.2989 -0.9940  0.1593
    3OL     C1716180   2.170   2.436   2.722 -0.1619 -0.5561  0.0964
    3OL     H7R16181   2.235   2.408   2.638 -1.4680  1.1849 -1.6112
    3OL     H7S16182   2.137   2.341   2.763  2.7142 -1.1599  1.2934
    3OL     C1816183   2.252   2.487   2.842  0.4258 -0.3476 -0.3814
    3OL     H8R16184   2.189   2.490   2.931  0.5325  0.0594 -0.3214
    3OL     H8S16185   2.284   2.589   2.822  0.9535 -0.2436  0.8914
    3OL     C1916186   2.378   2.409   2.868  0.3466 -0.2516  0.3121
    3OL     H9R16187   2.410   2.344   2.787  1.7554 -2.1077  2.2343
    3OL    C11016188   2.459   2.415   2.973  0.0513  0.0731  0.5238
    3OL    H10R16189   2.557   2.368   2.966 -1.2624 -2.8303  0.3578
    3OL    C11116190   2.450   2.519   3.082 -0.6018 -0.0412  0.5803
    3OL    H11R16191   2.355   2.572   3.070 -0.8512 -0.9531 -2.4175
    3OL    H11S16192   2.537   2.578   3.053 -0.5541 -0.1180  0.5658
    3OL    C11216193   2.448   2.454   3.221 -0.3392 -0.7410  0.2611
    3OL    H12R16194   2.418   2.527   3.296  1.3812  0.2303  0.0575
    3OL    H12S16195   2.551   2.432   3.251 -0.3767  1.1486  1.9720
    3OL    C11316196   2.365   2.326   3.239 -0.6302 -0.5692  0.1481
    3OL    H13R16197   2.378   2.254   3.159 -0.9101  1.3384 -1.6943
    3OL    H13S16198   2.259   2.351   3.241 -0.6391 -0.6219  0.5992
    3OL    C11416199   2.423   2.261   3.366 -0.2104 -0.1008  0.2023
    3OL    H14R16200   2.379   2.319   3.447 -1.7072 -0.1322 -0.5425
    3OL    H14S16201   2.531   2.272   3.369 -0.3979  3.4958 -0.9213
    3OL    C11516202   2.383   2.113   3.379  0.1182 -0.1720  0.3980
    3OL    H15R16203   2.446   2.072   3.458 -0.6544 -0.2786  0.9593
    3OL    H15S16204   2.405   2.052   3.291 -0.2887  1.1174 -0.6414
    3OL    C11616205   2.235   2.101   3.415 -0.0320 -0.1283 -0.1853
    3OL    H16R16206   2.195   2.199   3.442  0.5177  0.1658 -0.4407
    3OL    H16S16207   2.213   2.042   3.505  0.0030  0.1843  0.0325
    3OL    C11716208   2.141   2.044   3.308 -0.1665 -0.3404  0.0431
    3OL    H17R16209   2.135   2.116   3.226 -1.9275  0.9628  1.2535
    3OL    H17S16210   2.039   2.052   3.345  0.1155 -2.0439  1.2958
    3OL    C11816211   2.175   1.902   3.261  0.6179 -0.2047  0.1874
    3OL    H18R16212   2.091   1.860   3.206 -0.4230 -1.8880  2.8479
    3OL    H18S16213   2.190   1.832   3.344  1.1566  0.7765  0.9539
    3OL    H18T16214   2.266   1.894   3.200  0.6851 -0.2905  0.2976
    1PA    C11616215   1.819   6.082   3.713  0.5359  0.3263  0.3637
    1PA    H16R16216   1.797   6.012   3.794  1.4659  0.9854  1.2303
    1PA    H16S16217   1.738   6.091   3.641  1.3036  2.3990 -0.3178
    1PA    H16T16218   1.830   6.183   3.756  0.9214 -0.1859  1.5232
    1PA    C11516219   1.942   6.045   3.629  0.5667 -0.6938  0.8434
    1PA    H15R16220   1.940   6.121   3.551 -0.8453  0.0019  1.5147
    1PA    H15S16221   2.028   6.055   3.696  0.9912 -2.8298  0.6780
    1PA    C11416222   1.938   5.899   3.583 -0.9675 -0.2004 -0.7229
    1PA    H14R16223   1.973   5.849   3.674  1.6366 -0.7923 -1.9534
    1PA    H14S16224   1.837   5.878   3.547 -0.4416  0.3893 -2.6421
    1PA    C11316225   2.041   5.866   3.473  0.2814 -0.2232  0.4190
    1PA    H13R16226   2.015   5.907   3.375  0.1221 -2.8008 -0.7033
    1PA    H13S16227   2.137   5.898   3.512  0.0094  0.2578  0.7063
    1PA    C11216228   2.057   5.715   3.450  0.2113 -0.1082 -0.4217
    1PA    H12R16229   2.086   5.669   3.545  0.2319  0.5397 -0.1067
    1PA    H12S16230   1.956   5.674   3.442 -0.1451  0.6794 -0.1502
    1PA    C11116231   2.150   5.678   3.335 -0.0438 -0.3375 -0.5556
    1PA    H11R16232   2.247   5.729   3.337  1.6602 -3.2502 -1.3960
    1PA    H11S16233   2.187   5.575   3.336  0.9511  0.0144 -0.0417
    1PA    C11016234   2.079   5.704   3.201 -0.3974  0.1143 -0.2810
    1PA    H10R16235   1.983   5.654   3.198 -0.0778 -0.5234 -0.0406
    1PA    H10S16236   2.077   5.811   3.177 -0.5408  0.2824  0.4389
    1PA     C1916237   2.161   5.650   3.084 -0.0215 -0.0736  0.0658
    1PA     H9R16238   2.190   5.546   3.100  2.0471  0.1507 -1.6913
    1PA     H9S16239   2.095   5.643   2.997 -1.9471  1.3557  1.3343
    1PA     C1816240   2.284   5.738   3.058  0.1591 -0.4704 -0.4500
    1PA     H8R16241   2.256   5.843   3.061  0.9817 -0.2536 -0.1207
    1PA     H8S16242   2.363   5.714   3.129  1.1768  1.5631 -0.8269
    1PA     C1716243   2.344   5.702   2.921  0.9477 -0.4909 -0.1080
    1PA     H7R16244   2.375   5.597   2.919 -0.9270 -1.1019  0.4200
    1PA     H7S16245   2.265   5.714   2.846 -0.2912 -2.0119  0.8835
    1PA     C1616246   2.461   5.795   2.888  0.6862 -0.0779  0.1273
    1PA     H6R16247   2.429   5.899   2.900 -1.9901 -0.7664 -0.4741
    1PA     H6S16248   2.530   5.774   2.970  0.8600  0.1682  0.0481
    1PA     C1516249   2.527   5.789   2.750 -0.5914 -0.7440 -0.4653
    1PA     H5R16250   2.546   5.686   2.717  0.9902 -0.6497  0.0774
    1PA     H5S16251   2.459   5.826   2.672 -0.8735 -2.5622 -1.1510
    1PA     C1416252   2.657   5.867   2.730 -0.7036 -0.4027  0.1359
    1PA     H4R16253   2.647   5.971   2.761  1.2272 -0.3442  0.6955
    1PA     H4S16254   2.750   5.827   2.772  0.0429 -0.8699 -1.8468
    1PA     C1316255   2.692   5.875   2.581 -0.2460 -0.0659  0.2580
    1PA     H3R16256   2.613   5.923   2.524 -0.4936 -0.9869 -0.1911
    1PA     H3S16257   2.777   5.944   2.576 -0.7312  0.4453 -2.2346
    1PA     C1216258   2.724   5.747   2.502  0.2357  0.0111  0.3235
    1PA     H2R16259   2.777   5.690   2.579 -2.6209 -1.4872  1.3216
    1PA     H2S16260   2.630   5.703   2.466  1.1113 -0.7685 -1.1266
    2PC     C1116261   2.813   5.768   2.382  0.0357 -0.2421  0.1300
    2PC     O1216262   2.817   5.871   2.317  0.6780 -0.3193  0.0419
    2PC     O1116263   2.903   5.669   2.375 -0.0020 -0.2948  0.4014
    2PC      C116264   3.003   5.676   2.272 -0.1321 -0.7712  0.2380
    2PC      HR16265   3.023   5.780   2.243 -3.2474 -0.0921  0.2294
    2PC      HS16266   3.095   5.624   2.301  0.4774  0.7825  1.2386
    2PC      C216267   2.947   5.600   2.151 -0.0124 -0.2204 -0.1702
    2PC      HX16268   3.030   5.559   2.093 -1.4189 -3.1584 -0.2981
    2PC      C316269   2.876   5.700   2.058 -0.3069  0.0311  0.3180
    2PC      HA16270   2.779   5.737   2.090 -0.2859  0.2807  0.0917
    2PC      HB16271   2.935   5.791   2.044 -1.6795  0.9147  0.1411
    2PC     O3116272   2.870   5.638   1.929 -0.7563  0.0516  0.3300
    2PC     P3116273   2.816   5.721   1.803 -0.1153  0.2903  0.2102
    2PC     O3216274   2.725   5.612   1.729  0.5931 -0.1271 -0.0490
    2PC     C3116275   2.596   5.584   1.786  0.6630 -0.5144 -0.0788
    2PC     H1A16276   2.602   5.587   1.895  0.2150  1.7071 -0.0711
    2PC     H1B16277   2.531   5.666   1.754  0.1857 -0.7887  0.1755
    2PC     C3216278   2.554   5.443   1.741 -0.0735 -0.3480  0.0786
    2PC     H2A16279   2.450   5.429   1.771 -0.4387 -0.5265 -1.2013
    2PC     H2B16280   2.554   5.431   1.633 -1.5874 -3.2684  0.3001
    2PC     N3116281   2.630   5.323   1.789  0.1609 -0.2204  0.0296
    2PC     C3316282   2.567   5.194   1.745 -0.0273 -0.1215  0.0078
    2PC     H3A16283   2.537   5.206   1.641  0.2479 -1.3424 -0.2255
    2PC     H3B16284   2.637   5.111   1.758  0.4110 -0.1240 -2.0546
    2PC     H3C16285   2.471   5.178   1.794 -0.4696  0.3612 -0.6896
    2PC     C3416286   2.772   5.332   1.741  0.1279 -0.2417 -0.0730
    2PC     H4A16287   2.769   5.369   1.639 -2.0550 -0.5048 -0.1623
    2PC     H4B16288   2.825   5.396   1.812 -2.6086  2.3331 -0.1680
    2PC     H4C16289   2.807   5.229   1.734  0.1287 -0.2981  0.6463
    2PC     C3516290   2.633   5.325   1.938 -0.2312 -0.1963  0.0394
    2PC     H5A16291   2.641   5.428   1.973 -2.6557 -0.4862  1.7040
    2PC     H5B16292   2.726   5.280   1.975 -1.0998 -0.3123  2.2236
    2PC     H5C16293   2.552   5.269   1.984  0.7444 -0.3855  1.6411
    2PC     O3316294   2.753   5.852   1.832 -0.5380  0.2209 -0.3720
    2PC     O3416295   2.928   5.743   1.709 -0.2455  0.5976  0.1257
    2PC     O2116296   2.849   5.503   2.193 -0.1880  0.1113  0.1976
    2PC     C2116297   2.895   5.388   2.245 -0.1988 -0.4968 -1.0905
    2PC     O2216298   3.012   5.355   2.251 -0.0336  0.1615 -0.6143
    3OL     C1216299   2.773   5.318   2.300  0.0692 -0.0996  0.0329
    3OL     H2R16300   2.717   5.276   2.216  0.8781  0.0541 -0.6022
    3OL     H2S16301   2.705   5.378   2.360  0.6584 -0.9285  1.5930
    3OL     C1316302   2.814   5.209   2.400 -0.0907 -0.4442 -0.2778
    3OL     H3R16303   2.894   5.152   2.353  0.8420  0.5025  0.1354
    3OL     H3S16304   2.727   5.144   2.416 -0.6477  0.5996  1.1009
    3OL     C1416305   2.852   5.267   2.536  0.0057 -0.2076 -0.4060
    3OL     H4R16306   2.773   5.329   2.578  1.2794  0.6674  0.8353
    3OL     H4S16307   2.939   5.332   2.519  0.0976  0.0107  0.7641
    3OL     C1516308   2.887   5.167   2.647  0.0300  0.1204 -0.1142
    3OL     H5R16309   2.800   5.102   2.659 -0.3408  1.0374  3.0846
    3OL     H5S16310   2.896   5.225   2.739  1.3580 -1.4053  0.7652
    3OL     C1616311   3.010   5.076   2.628 -0.1159 -0.0794 -0.1080
    3OL     H6R16312   3.097   5.141   2.619  1.3411 -2.0899 -1.2919
    3OL     H6S16313   3.017   5.013   2.539  1.9132  0.9847 -0.7635
    3OL     C1716314   3.005   4.983   2.750 -0.3820 -0.6958 -0.5852
    3OL     H7R16315   2.932   4.907   2.724 -1.1759  0.0889 -0.6818
    3OL     H7S16316   2.961   5.036   2.834  1.1722  0.3048 -0.3593
    3OL     C1816317   3.143   4.929   2.792 -0.2367  0.1582  0.0520
    3OL     H8R16318   3.178   4.845   2.732  0.2671  0.2241  0.2480
    3OL     H8S16319   3.128   4.877   2.887 -0.2597 -1.0419 -0.5929
    3OL     C1916320   3.247   5.038   2.803  0.1213 -0.1566 -0.2072
    3OL     H9R16321   3.325   5.038   2.727  1.5944  2.4995  1.1823
    3OL    C11016322   3.247   5.128   2.900 -0.2904 -0.5227  0.1385
    3OL    H10R16323   3.335   5.191   2.910 -0.4549 -0.4959  1.5047
    3OL    C11116324   3.143   5.158   3.005 -0.0610  1.2094 -0.0989
    3OL    H11R16325   3.089   5.071   3.043  1.5342  1.0503  1.9702
    3OL    H11S16326   3.079   5.234   2.960 -0.8180 -0.3029 -1.6896
    3OL    C11216327   3.207   5.223   3.129 -0.3535 -0.7199  1.1054
    3OL    H12R16328   3.242   5.324   3.107  0.6281 -0.9761  1.4855
    3OL    H12S16329   3.294   5.169   3.166 -0.7255 -2.2014 -0.0658
    3OL    C11316330   3.095   5.215   3.234 -1.0273 -0.0880  0.4479
    3OL    H13R16331   3.045   5.118   3.237 -1.7723  0.2518 -0.4488
    3OL    H13S16332   3.013   5.281   3.205 -1.4286 -1.3393 -1.4241
    3OL    C11416333   3.152   5.250   3.372  0.1457  0.0329 -0.0552
    3OL    H14R16334   3.231   5.179   3.397 -0.5152 -0.2818  1.2129
    3OL    H14S16335   3.076   5.255   3.450 -0.0782  0.5075 -0.2973
    3OL    C11516336   3.216   5.390   3.369  0.3380 -0.0446  0.4527
    3OL    H15R16337   3.143   5.460   3.329  0.9830 -0.6944 -2.0413
    3OL    H15S16338   3.307   5.389   3.309 -1.2040  1.0749 -2.0381
    3OL    C11616339   3.253   5.426   3.514 -0.0968 -0.2154  0.6083
    3OL    H16R16340   3.334   5.358   3.542 -0.6686 -0.6409  1.2379
    3OL    H16S16341   3.175   5.407   3.587 -1.1808  2.1268  0.1599
    3OL    C11716342   3.325   5.562   3.521 -0.2215 -0.1285  0.2554
    3OL    H17R16343   3.252   5.642   3.529 -1.9939 -1.5975 -0.5518
    3OL    H17S16344   3.394   5.575   3.437 -1.0079  1.8943 -0.1287
    3OL    C11816345   3.389   5.573   3.660  0.4884 -0.2210 -0.0586
    3OL    H18R16346   3.445   5.482   3.685 -2.4982 -2.4054 -0.7826
    3OL    H18S16347   3.324   5.586   3.747  3.3084 -0.2323  2.2070
    3OL    H18T16348   3.444   5.667   3.654 -0.2028  0.1687 -0.3106
    1PA    C11616349   0.775   3.888   3.735 -0.7337  0.2337 -0.0988
    1PA    H16R16350   0.667   3.901   3.728 -1.1911 -1.1065  2.7759
    1PA    H16S16351   0.799   3.839   3.830  0.2485  0.3699 -0.2666
    1PA    H16T16352   0.806   3.827   3.651  2.1706  0.2740  0.8384
    1PA    C11516353   0.847   4.024   3.736 -1.0265  0.3920 -0.5121
    1PA    H15R16354   0.790   4.105   3.781 -0.3421  0.4501  0.2851
    1PA    H15S16355   0.932   4.013   3.803 -0.3561 -0.0385 -1.4049
    1PA    C11416356   0.889   4.053   3.591  0.1114 -0.3533 -0.3416
    1PA    H14R16357   0.960   3.976   3.562  1.9355  1.4050 -0.8312
    1PA    H14S16358   0.809   4.038   3.519 -0.1872 -1.9531  0.2921
    1PA    C11316359   0.967   4.185   3.572 -0.1796 -0.0839  0.3064
    1PA    H13R16360   0.916   4.265   3.627  0.7619  0.0988  0.9245
    1PA    H13S16361   1.064   4.183   3.622 -0.0245  1.3230  0.1085
    1PA    C11216362   0.987   4.220   3.424  0.2881 -0.2952  0.3203
    1PA    H12R16363   0.894   4.237   3.370  0.1744 -1.8841 -0.0150
    1PA    H12S16364   1.042   4.314   3.417 -0.3131 -0.0054 -0.6792
    1PA    C11116365   1.067   4.112   3.350 -0.2506 -0.3534 -0.1744
    1PA    H11R16366   1.126   4.059   3.425 -1.6257 -1.7726 -0.0460
    1PA    H11S16367   0.998   4.040   3.304  0.9589 -2.2982  0.9260
    1PA    C11016368   1.165   4.169   3.246 -0.4537 -0.1394 -0.2502
    1PA    H10R16369   1.233   4.245   3.285 -0.2738  0.2638 -1.3194
    1PA    H10S16370   1.224   4.084   3.211 -0.7708 -0.4096 -0.1289
    1PA     C1916371   1.096   4.232   3.125 -0.0037 -0.4351 -0.6625
    1PA     H9R16372   1.030   4.152   3.091 -1.9003  0.2546  1.2228
    1PA     H9S16373   1.032   4.313   3.159 -0.4980 -2.0640  2.5932
    1PA     C1816374   1.198   4.265   3.014  0.5468 -1.1235 -0.3693
    1PA     H8R16375   1.238   4.362   3.045 -1.2601 -0.9171  1.5311
    1PA     H8S16376   1.283   4.196   3.008  0.7130 -0.8564 -1.2878
    1PA     C1716377   1.124   4.282   2.880  0.1089  0.3312  0.0417
    1PA     H7R16378   1.075   4.189   2.852  1.2705 -0.3483  0.1953
    1PA     H7S16379   1.043   4.353   2.901  0.0669  0.6668 -1.2184
    1PA     C1616380   1.222   4.334   2.775 -0.0868  0.4077 -0.1032
    1PA     H6R16381   1.268   4.427   2.808 -0.5924  0.9388 -0.8522
    1PA     H6S16382   1.305   4.263   2.769 -0.9381 -0.7459  1.1633
    1PA     C1516383   1.149   4.352   2.641  0.0212  0.1886 -0.1927
    1PA     H5R16384   1.111   4.254   2.612  1.2122 -0.8712  1.6239
    1PA     H5S16385   1.067   4.424   2.649  0.1093  0.1195  1.6700
    1PA     C1416386   1.248   4.400   2.534  0.0357  0.3094 -0.1248
    1PA     H4R16387   1.282   4.496   2.572  1.3760 -0.0119 -0.4861
    1PA     H4S16388   1.331   4.331   2.517 -0.1845  0.2571 -1.0605
    1PA     C1316389   1.176   4.420   2.399 -0.0061  0.9237 -0.0162
    1PA     H3R16390   1.143   4.319   2.374 -0.6785  0.5119  2.2575
    1PA     H3S16391   1.083   4.476   2.395  0.3317  1.4059 -1.5807
    1PA     C1216392   1.272   4.465   2.289  0.1580  0.0951 -0.2229
    1PA     H2R16393   1.305   4.568   2.308  2.5924 -0.1266 -2.5194
    1PA     H2S16394   1.371   4.420   2.299  0.9461  2.2248  3.0076
    2PC     C1116395   1.210   4.451   2.152 -0.0700  0.0109 -0.1110
    2PC     O1216396   1.122   4.372   2.124  0.0876 -0.2294  0.0647
    2PC     O1116397   1.260   4.540   2.065  0.2517 -0.4743 -0.4305
    2PC      C116398   1.242   4.525   1.923 -0.3399  0.0161 -0.4166
    2PC      HR16399   1.138   4.495   1.906 -0.7242  0.9714  0.1846
    2PC      HS16400   1.263   4.617   1.867 -0.3192 -0.0947 -0.5939
    2PC      C216401   1.348   4.420   1.884 -0.2743 -0.1051  0.0857
    2PC      HX16402   1.435   4.435   1.948 -0.3371 -1.6706  0.5904
    2PC      C316403   1.385   4.429   1.735 -0.1302  0.3419  0.1479
    2PC      HA16404   1.445   4.515   1.707  1.3560 -0.9568 -0.8034
    2PC      HB16405   1.433   4.337   1.702 -3.3225 -1.0852 -0.8750
    2PC     O3116406   1.260   4.429   1.664 -0.2644  0.3105  0.3793
    2PC     P3116407   1.263   4.389   1.508 -0.2555  0.1407  0.4230
    2PC     O3216408   1.334   4.524   1.458  0.3128 -0.0762  0.6326
    2PC     C3116409   1.362   4.534   1.317 -0.8688  0.2178  0.4108
    2PC     H1A16410   1.422   4.454   1.273 -1.3030 -0.0424  0.2855
    2PC     H1B16411   1.265   4.549   1.268 -0.3725  2.6552  0.0448
    2PC     C3216412   1.445   4.662   1.301 -0.5008 -0.0386  0.2482
    2PC     H2A16413   1.485   4.684   1.400 -1.3878  3.3496 -0.0095
    2PC     H2B16414   1.522   4.645   1.226 -1.1447  0.3473 -0.5237
    2PC     N3116415   1.377   4.787   1.254  0.2613  0.2694 -0.0532
    2PC     C3316416   1.466   4.905   1.276  0.1670  0.1689  0.8762
    2PC     H3A16417   1.427   4.996   1.230  0.1850  0.0436  0.6129
    2PC     H3B16418   1.503   4.911   1.379  2.6197 -3.5498  0.3894
    2PC     H3C16419   1.552   4.892   1.211  0.8422 -0.3664  1.8477
    2PC     C3416420   1.343   4.775   1.108  0.3192 -0.2664 -0.0255
    2PC     H4A16421   1.305   4.871   1.072  0.6549  0.0793  0.5237
    2PC     H4B16422   1.432   4.740   1.055  0.6816 -1.2240  1.1706
    2PC     H4C16423   1.267   4.699   1.093  0.1033  0.4136 -2.8824
    2PC     C3516424   1.252   4.803   1.335  0.2039 -0.4145 -0.0042
    2PC     H5A16425   1.174   4.729   1.313  1.2441 -1.7115  0.5459
    2PC     H5B16426   1.207   4.901   1.316 -2.8043 -1.6071  0.3243
    2PC     H5C16427   1.281   4.803   1.440  1.2264  1.0778 -0.2497
    2PC     O3316428   1.338   4.269   1.466 -0.1712  0.5594 -0.6478
    2PC     O3416429   1.120   4.378   1.473 -0.0779  0.0766 -0.2912
    2PC     O2116430   1.308   4.284   1.914  0.1435 -0.0722  0.8127
    2PC     C2116431   1.401   4.188   1.919  0.1623 -0.0716  0.5107
    2PC     O2216432   1.515   4.212   1.885 -0.0283  0.1867  0.0469
    3OL     C1216433   1.364   4.049   1.964 -0.2328 -0.2699 -0.4153
    3OL     H2R16434   1.458   3.993   1.959  0.7800  1.2011  1.1834
    3OL     H2S16435   1.278   4.019   1.903  0.7715  2.9873 -3.8552
    3OL     C1316436   1.315   4.057   2.109  0.0850 -0.7925 -0.2751
    3OL     H3R16437   1.264   3.964   2.134 -2.4298  0.4006 -0.7237
    3OL     H3S16438   1.236   4.133   2.105  1.2997  0.4610 -1.9546
    3OL     C1416439   1.420   4.102   2.212 -0.4088  0.2298 -0.2077
    3OL     H4R16440   1.442   4.208   2.200  0.2265  0.2550  0.9952
    3OL     H4S16441   1.515   4.050   2.203  0.8141  1.6269  2.9189
    3OL     C1516442   1.364   4.084   2.354 -0.4986  0.3361 -0.2287
    3OL     H5R16443   1.258   4.110   2.349 -0.3280  2.0539  2.7585
    3OL     H5S16444   1.417   4.156   2.418 -2.1862 -0.0277  1.6880
    3OL     C1616445   1.395   3.947   2.418  0.3717  0.4135 -0.4677
    3OL     H6R16446   1.350   3.877   2.348 -3.0794  0.9516  0.9952
    3OL     H6S16447   1.335   3.937   2.508 -2.6895 -0.6093 -2.4639
    3OL     C1716448   1.543   3.914   2.442  0.0464 -0.6744  0.0792
    3OL     H7R16449   1.597   3.968   2.364  0.6092 -0.3141  0.7053
    3OL     H7S16450   1.558   3.807   2.429 -0.1284 -1.2038  3.3498
    3OL     C1816451   1.596   3.960   2.578  0.3867 -0.0543 -0.2610
    3OL     H8R16452   1.566   4.064   2.591  0.8534 -0.0706  1.1935
    3OL     H8S16453   1.705   3.965   2.589  0.3302  2.1296 -0.1286
    3OL     C1916454   1.549   3.865   2.686  0.4447  0.2237  0.0118
    3OL     H9R16455   1.526   3.764   2.655 -0.0444 -0.0749  1.3039
    3OL    C11016456   1.532   3.894   2.814 -0.2286 -0.1103  0.0032
    3OL    H10R16457   1.497   3.812   2.876  1.8728  0.2906  1.8423
    3OL    C11116458   1.553   4.026   2.884 -0.1646  0.0590 -0.3336
    3OL    H11R16459   1.451   4.063   2.899 -0.2825 -0.2114 -0.4606
    3OL    H11S16460   1.589   4.098   2.809 -1.7124  0.8645 -0.3351
    3OL    C11216461   1.632   4.021   3.015 -0.3903 -0.0899 -0.2035
    3OL    H12R16462   1.647   4.124   3.048 -0.1587  0.4374 -1.8695
    3OL    H12S16463   1.731   3.978   3.001 -0.3871 -0.1955  0.1273
    3OL    C11316464   1.566   3.930   3.120 -0.0914  0.0188  0.0812
    3OL    H13R16465   1.536   3.831   3.086 -2.3765 -0.6556  3.4912
    3OL    H13S16466   1.475   3.980   3.156  0.9040  1.5492  0.5828
    3OL    C11416467   1.653   3.903   3.243  0.3712 -0.5848 -0.3728
    3OL    H14R16468   1.591   3.901   3.333 -0.1168  1.8131 -0.5836
    3OL    H14S16469   1.716   3.991   3.256 -0.2524 -0.3285  1.1596
    3OL    C11516470   1.738   3.776   3.228  0.2383 -0.7153 -0.0274
    3OL    H15R16471   1.783   3.775   3.129 -2.2770  0.0255 -1.2659
    3OL    H15S16472   1.669   3.691   3.225  0.5229 -0.9240 -1.0835
    3OL    C11616473   1.840   3.748   3.339 -0.0095  0.0008  0.3859
    3OL    H16R16474   1.912   3.831   3.339 -0.2359  0.2229  1.7862
    3OL    H16S16475   1.905   3.664   3.314 -0.4702 -0.6230  1.2321
    3OL    C11716476   1.768   3.738   3.474 -0.5755 -0.2356  0.0672
    3OL    H17R16477   1.679   3.675   3.470 -1.6754  1.2592  0.1469
    3OL    H17S16478   1.726   3.834   3.503 -0.2519  0.0094 -0.2602
    3OL    C11816479   1.872   3.682   3.572 -0.4423 -0.0598  0.0247
    3OL    H18R16480   1.956   3.750   3.589  1.6760 -2.4827 -0.1751
    3OL    H18S16481   1.924   3.596   3.528  0.4657  0.3906  0.1857
    3OL    H18T16482   1.822   3.665   3.667 -1.5281  2.7555  0.0620
    1PA    C11616483   4.208   5.920   3.546 -0.2547  0.0672 -0.2435
    1PA    H16R16484   4.276   5.920   3.631 -0.1145 -0.1394 -0.3572
    1PA    H16S16485   4.253   5.895   3.449  2.3014 -0.7740  1.0812
    1PA    H16T16486   4.125   5.853   3.569 -1.0596  1.0357 -0.2532
    1PA    C11516487   4.147   6.061   3.540 -0.1331  0.1382  0.1724
    1PA    H15R16488   4.051   6.048   3.489 -0.6327  0.1552  1.0874
    1PA    H15S16489   4.133   6.083   3.646 -0.2006  0.1684  0.1575
    1PA    C11416490   4.247   6.153   3.468  0.1100 -0.1128  0.1886
    1PA    H14R16491   4.343   6.147   3.519  0.0245 -0.0850  0.3558
    1PA    H14S16492   4.262   6.119   3.365  0.1496  1.3960 -0.3270
    1PA    C11316493   4.200   6.299   3.466  0.3177 -0.0498 -0.1055
    1PA    H13R16494   4.122   6.313   3.391 -0.4809 -2.2209  0.2446
    1PA    H13S16495   4.166   6.344   3.559 -1.7090 -0.7817 -0.4323
    1PA    C11216496   4.314   6.383   3.406 -0.1935  0.3889 -0.4746
    1PA    H12R16497   4.407   6.365   3.460  0.7530  1.7594 -1.5588
    1PA    H12S16498   4.326   6.353   3.302 -2.1731 -0.7890 -0.4126
    1PA    C11116499   4.302   6.536   3.423 -0.0805  0.3283  0.2131
    1PA    H11R16500   4.271   6.564   3.523 -3.6017  0.8923 -0.8865
    1PA    H11S16501   4.394   6.586   3.390  0.8950 -1.4468  0.0602
    1PA    C11016502   4.187   6.592   3.338 -0.1950  0.2292  0.3016
    1PA    H10R16503   4.089   6.549   3.359 -0.2100 -1.4264 -2.6991
    1PA    H10S16504   4.193   6.698   3.366  0.7772  0.0139  0.9959
    1PA     C1916505   4.209   6.576   3.187  0.4533 -0.6188  0.4746
    1PA     H9R16506   4.281   6.650   3.152  0.3723 -1.3414 -1.3114
    1PA     H9S16507   4.236   6.474   3.162 -2.6053 -1.6786  1.0479
    1PA     C1816508   4.082   6.621   3.113  0.0799 -0.5973  1.1225
    1PA     H8R16509   3.998   6.555   3.137  0.7429 -0.9097  2.6887
    1PA     H8S16510   4.060   6.719   3.156 -1.7736 -0.9553  1.0808
    1PA     C1716511   4.100   6.618   2.961 -0.1075 -0.6914  1.1013
    1PA     H7R16512   4.039   6.695   2.914 -0.5493 -1.0032  1.1515
    1PA     H7S16513   4.204   6.641   2.935 -0.2433 -0.3774  0.8350
    1PA     C1616514   4.070   6.485   2.889  0.4598 -0.3781  0.2638
    1PA     H6R16515   4.137   6.416   2.941  0.9349  0.2209  0.4598
    1PA     H6S16516   3.967   6.455   2.908  0.3903 -0.9380 -0.9605
    1PA     C1516517   4.088   6.510   2.739 -0.1256 -0.2095  0.2211
    1PA     H5R16518   3.996   6.557   2.703 -0.6845 -0.1753  1.6154
    1PA     H5S16519   4.166   6.583   2.719  0.4239 -0.1015  2.4925
    1PA     C1416520   4.119   6.379   2.667  0.4234  0.0588 -0.0329
    1PA     H4R16521   4.211   6.332   2.702  1.5607  1.4279 -1.0395
    1PA     H4S16522   4.039   6.309   2.691  0.2714  0.4832  0.7122
    1PA     C1316523   4.141   6.404   2.517  0.1040  0.2806 -0.0427
    1PA     H3R16524   4.045   6.451   2.496  0.1953  1.1574  1.3801
    1PA     H3S16525   4.216   6.483   2.504 -1.4879  1.5040 -2.4597
    1PA     C1216526   4.172   6.287   2.423  0.0361  0.2340 -0.0071
    1PA     H2R16527   4.281   6.275   2.425  0.0099 -0.7669 -1.9571
    1PA     H2S16528   4.118   6.199   2.458  2.1815 -1.4128 -0.5797
    2PC     C1116529   4.130   6.312   2.280  0.3358  0.2474 -0.0948
    2PC     O1216530   4.053   6.399   2.248 -0.4926 -0.3687  0.1653
    2PC     O1116531   4.182   6.218   2.200 -0.7718 -0.7964  0.3613
    2PC      C116532   4.156   6.226   2.058  0.1408 -0.1185  0.2217
    2PC      HR16533   4.054   6.260   2.038 -0.1227 -0.1547  1.3885
    2PC      HS16534   4.229   6.300   2.024  0.6478  1.4751  4.1517
    2PC      C216535   4.177   6.088   1.995  0.3354 -0.1361  0.3242
    2PC      HX16536   4.265   6.040   2.040 -0.6866  0.3208  2.9806
    2PC      C316537   4.210   6.107   1.846 -0.5423 -0.2875  0.1062
    2PC      HA16538   4.118   6.131   1.792  0.2733  0.3665 -1.0365
    2PC      HB16539   4.289   6.182   1.833 -1.1432  0.3061 -0.1961
    2PC     O3116540   4.264   5.987   1.789  0.6405  0.1144  0.3565
    2PC     P3116541   4.326   6.010   1.642 -0.0387  0.4089  0.1129
    2PC     O3216542   4.205   6.083   1.566 -0.0224  0.6083  0.2790
    2PC     C3116543   4.232   6.174   1.458 -0.1974  0.2370 -0.0794
    2PC     H1A16544   4.129   6.209   1.444 -0.2041  1.0390  1.6411
    2PC     H1B16545   4.308   6.249   1.480  1.6357 -1.1550 -1.4089
    2PC     C3216546   4.277   6.090   1.338 -0.0213  0.2181 -0.0000
    2PC     H2A16547   4.378   6.056   1.359 -0.4545 -2.0289 -1.2506
    2PC     H2B16548   4.205   6.012   1.313 -0.5721 -0.0267  2.1821
    2PC     N3116549   4.291   6.174   1.214  0.0082  0.2709  0.0386
    2PC     C3316550   4.409   6.266   1.219 -0.3075  0.7614 -1.1743
    2PC     H3A16551   4.387   6.351   1.154 -2.2769  0.5380 -0.8532
    2PC     H3B16552   4.438   6.295   1.320  0.0963 -2.7482 -0.1293
    2PC     H3C16553   4.498   6.219   1.179  0.0549  1.8303 -1.6588
    2PC     C3416554   4.312   6.073   1.105  0.3439 -0.0438  0.3873
    2PC     H4A16555   4.417   6.047   1.101 -0.3020 -2.8464 -0.3908
    2PC     H4B16556   4.241   5.992   1.124  0.1785  0.3570  1.5132
    2PC     H4C16557   4.289   6.123   1.010  0.2428  2.3903  1.5998
    2PC     C3516558   4.167   6.252   1.182 -0.1168  0.1114  0.1311
    2PC     H5A16559   4.071   6.200   1.185 -0.1744  0.2287  0.2895
    2PC     H5B16560   4.176   6.308   1.089  2.3625 -1.0821 -0.4315
    2PC     H5C16561   4.170   6.325   1.262  0.3655 -1.3753  1.5230
    2PC     O3316562   4.445   6.097   1.643  0.3662 -0.1421  0.3647
    2PC     O3416563   4.365   5.895   1.557  0.1121  0.3323  0.2833
    2PC     O2116564   4.063   6.000   1.992  0.3056 -0.0861 -0.1568
    2PC     C2116565   4.052   5.911   2.092 -0.4530  0.1144 -0.0511
    2PC     O2216566   4.138   5.894   2.176 -0.2307  0.4602 -0.2043
    3OL     C1216567   3.916   5.846   2.088 -0.6777  0.5924 -0.1798
    3OL     H2R16568   3.926   5.751   2.035  1.8203 -0.4333  1.9147
    3OL     H2S16569   3.848   5.914   2.036 -0.0664  0.8517 -0.6668
    3OL     C1316570   3.862   5.801   2.224  0.3009 -0.1358 -0.0199
    3OL     H3R16571   3.937   5.747   2.282 -0.9839 -0.3472  1.5072
    3OL     H3S16572   3.788   5.723   2.202  2.5231 -3.1673  2.3307
    3OL     C1416573   3.795   5.910   2.308  0.1547  0.1544 -0.5093
    3OL     H4R16574   3.697   5.932   2.264 -1.5054 -2.7128  1.3849
    3OL     H4S16575   3.864   5.994   2.308 -0.4703  0.7068  0.8388
    3OL     C1516576   3.749   5.871   2.449  0.3151  0.0754 -0.4799
    3OL     H5R16577   3.838   5.853   2.510 -0.3634  1.8348  1.1384
    3OL     H5S16578   3.681   5.785   2.450 -0.8048  0.9463  0.8455
    3OL     C1616579   3.669   5.986   2.512  0.4427 -0.2228  0.2450
    3OL     H6R16580   3.587   6.018   2.448 -0.6591  0.6590  2.0299
    3OL     H6S16581   3.719   6.083   2.515 -0.8444  0.4861 -0.2931
    3OL     C1716582   3.601   5.935   2.639 -0.3354 -0.1823 -0.1493
    3OL     H7R16583   3.671   5.890   2.710 -1.3270  0.6987  1.4374
    3OL     H7S16584   3.528   5.860   2.607  1.3751 -2.4902  1.0476
    3OL     C1816585   3.521   6.045   2.710  0.3105 -0.1967  0.6131
    3OL     H8R16586   3.465   6.095   2.630 -1.9835 -1.5960  1.2540
    3OL     H8S16587   3.591   6.119   2.750  0.5970  0.4901 -1.0600
    3OL     C1916588   3.433   5.987   2.818 -0.3303 -0.1961  0.0974
    3OL     H9R16589   3.368   5.902   2.800 -0.1618 -0.3369  0.1488
    3OL    C11016590   3.439   6.019   2.946 -0.7049  0.2107  0.0121
    3OL    H10R16591   3.382   5.950   3.007  1.2718 -2.1875 -0.6981
    3OL    C11116592   3.517   6.128   3.014  0.1633  0.1858 -0.9261
    3OL    H11R16593   3.611   6.151   2.962  0.6725 -0.6831 -0.4192
    3OL    H11S16594   3.556   6.073   3.100 -0.4649  0.0829 -0.7020
    3OL    C11216595   3.436   6.249   3.063 -0.1435 -0.2077 -0.4534
    3OL    H12R16596   3.387   6.305   2.983  0.0635 -0.6424 -0.8935
    3OL    H12S16597   3.500   6.321   3.114 -3.9309  1.4321  2.4238
    3OL    C11316598   3.324   6.201   3.156  0.1359 -0.3439 -0.1875
    3OL    H13R16599   3.366   6.145   3.240  0.6571  1.8206  1.0806
    3OL    H13S16600   3.255   6.132   3.107 -0.4935  1.1124 -1.4252
    3OL    C11416601   3.261   6.329   3.213 -0.2157 -0.4454 -0.3479
    3OL    H14R16602   3.220   6.383   3.127 -0.1941 -0.7596 -0.5587
    3OL    H14S16603   3.333   6.395   3.260  1.1101 -1.6830 -0.5774
    3OL    C11516604   3.154   6.291   3.316 -0.0666  0.0128 -0.0227
    3OL    H15R16605   3.197   6.248   3.407 -2.7839  0.3911  1.5677
    3OL    H15S16606   3.083   6.216   3.280 -2.1008  0.8959  1.8964
    3OL    C11616607   3.076   6.419   3.352 -0.1588  0.0695 -0.4165
    3OL    H16R16608   3.026   6.468   3.269 -3.0113 -2.5136 -0.3953
    3OL    H16S16609   3.158   6.488   3.374  0.3409 -0.3988 -0.7843
    3OL    C11716610   2.980   6.399   3.470  0.2313  0.2478 -0.0654
    3OL    H17R16611   3.035   6.355   3.554  2.0977 -0.3135 -1.5162
    3OL    H17S16612   2.902   6.325   3.453  0.1003  0.3381  0.1331
    3OL    C11816613   2.914   6.531   3.512 -0.5572 -0.1440 -0.0417
    3OL    H18R16614   2.848   6.576   3.438  2.3260  0.6442 -2.3513
    3OL    H18S16615   2.997   6.600   3.531 -0.4460 -0.1902 -0.3621
    3OL    H18T16616   2.855   6.525   3.604 -0.6920  1.8088  0.0532
    1PA    C11616617   0.641   6.255   3.280 -0.0426  0.6777 -0.2649
    1PA    H16R16618   0.661   6.212   3.182 -1.8411  1.0942 -0.8657
    1PA    H16S16619   0.553   6.320   3.272 -0.4629  0.4437  1.9123
    1PA    H16T16620   0.612   6.172   3.344  1.3544  0.5586  0.2303
    1PA    C11516621   0.767   6.325   3.332  0.4990 -0.7006  0.3313
    1PA    H15R16622   0.837   6.246   3.360  2.0097  0.5920  0.3608
    1PA    H15S16623   0.803   6.393   3.255 -0.3197 -1.1059 -0.4213
    1PA    C11416624   0.740   6.394   3.467  0.4895 -0.1200  0.0395
    1PA    H14R16625   0.648   6.451   3.451  1.0336  0.8456  0.2993
    1PA    H14S16626   0.723   6.313   3.539 -0.5017  1.5835  1.8184
    1PA    C11316627   0.850   6.491   3.510 -0.1151  0.3381  0.5651
    1PA    H13R16628   0.855   6.495   3.619  0.9772 -0.3656  0.5475
    1PA    H13S16629   0.945   6.468   3.461  0.3810  3.2724 -0.0813
    1PA    C11216630   0.805   6.628   3.457 -0.5016  0.0219  0.0652
    1PA    H12R16631   0.798   6.616   3.349 -0.4407 -0.3155  0.0985
    1PA    H12S16632   0.704   6.652   3.493 -0.6012  1.6880 -1.1992
    1PA    C11116633   0.906   6.738   3.492 -0.7554  0.0809  0.6292
    1PA    H11R16634   0.913   6.764   3.598 -2.9261 -0.1437  0.8620
    1PA    H11S16635   1.008   6.702   3.475 -0.8786 -0.1905  0.4702
    1PA    C11016636   0.874   6.860   3.404  0.3147 -0.1028 -0.0375
    1PA    H10R16637   0.769   6.888   3.398  0.3694 -0.0806 -0.9936
    1PA    H10S16638   0.911   6.949   3.456  0.1194 -1.0293  1.7976
    1PA     C1916639   0.927   6.848   3.261  0.3165  0.0679 -0.0516
    1PA     H9R16640   1.028   6.808   3.265  0.4455  0.2512 -1.1861
    1PA     H9S16641   0.859   6.777   3.213  0.0232 -1.6081  2.6382
    1PA     C1816642   0.944   6.979   3.184 -0.0260  0.1603  0.0272
    1PA     H8R16643   0.847   7.029   3.182 -0.6462 -1.0159 -0.5142
    1PA     H8S16644   1.022   7.047   3.219 -1.2534  0.4435  2.3861
    1PA     C1716645   0.981   6.949   3.038 -0.9839 -0.2456 -0.1380
    1PA     H7R16646   1.080   6.903   3.031  0.3109  2.1747  0.7515
    1PA     H7S16647   0.903   6.895   2.985 -1.5872 -0.3347  0.8283
    1PA     C1616648   1.005   7.088   2.975 -0.4361 -0.5779 -0.6770
    1PA     H6R16649   0.928   7.161   3.000 -0.0585 -0.1488 -0.7785
    1PA     H6S16650   1.077   7.133   3.043 -0.6691 -2.2171  0.7493
    1PA     C1516651   1.044   7.084   2.827  0.5570 -0.3232 -0.4285
    1PA     H5R16652   1.145   7.044   2.815  1.7047  1.7746  1.4920
    1PA     H5S16653   0.977   7.017   2.772 -0.8125 -0.5602  1.4281
    1PA     C1416654   1.039   7.223   2.761  0.0663  0.0216  0.3193
    1PA     H4R16655   0.943   7.270   2.784 -0.2764 -0.0682 -0.8280
    1PA     H4S16656   1.121   7.285   2.797  0.9861 -0.8343 -0.2555
    1PA     C1316657   1.042   7.212   2.608  0.4976  0.5294  0.2920
    1PA     H3R16658   0.962   7.142   2.585  0.3986  0.5582  0.5567
    1PA     H3S16659   1.017   7.306   2.558  0.2979  0.3882  0.1243
    1PA     C1216660   1.173   7.148   2.558 -0.0233 -0.3614  0.0527
    1PA     H2R16661   1.258   7.201   2.602  2.0259 -1.4344 -2.3692
    1PA     H2S16662   1.178   7.042   2.582  1.6019 -0.5772 -1.0672
    2PC     C1116663   1.198   7.164   2.410  0.2218  0.6371  0.1962
    2PC     O1216664   1.127   7.229   2.337 -0.1191 -0.3346 -0.3559
    2PC     O1116665   1.316   7.110   2.376 -0.2045 -0.5051  0.4814
    2PC      C116666   1.346   7.106   2.236  0.3716  0.6513  0.5544
    2PC      HR16667   1.273   7.036   2.193  0.3144  1.4693 -0.7307
    2PC      HS16668   1.335   7.207   2.197 -0.0507 -0.4350 -2.4510
    2PC      C216669   1.488   7.051   2.217 -0.1027 -0.3651 -0.1921
    2PC      HX16670   1.558   7.109   2.278  2.3601 -0.8620 -2.3262
    2PC      C316671   1.544   7.068   2.075 -0.0367 -0.1780 -0.1439
    2PC      HA16672   1.544   7.172   2.039 -1.2425 -0.2650 -0.4353
    2PC      HB16673   1.646   7.028   2.078 -0.1009 -0.2898  1.6952
    2PC     O3116674   1.454   6.987   1.998 -0.1149  0.2141 -0.4723
    2PC     P3116675   1.486   6.949   1.846  0.4236  0.1055 -0.3315
    2PC     O3216676   1.587   6.825   1.862 -0.2737 -0.4631 -0.3045
    2PC     C3116677   1.719   6.823   1.805 -0.2294 -0.4943 -0.2023
    2PC     H1A16678   1.712   6.855   1.700  0.4147 -0.6879 -0.3034
    2PC     H1B16679   1.789   6.893   1.852 -1.9778  0.6368  0.8497
    2PC     C3216680   1.780   6.683   1.815 -0.0371 -0.3918  0.0583
    2PC     H2A16681   1.707   6.614   1.773 -2.6063  0.5878  2.6307
    2PC     H2B16682   1.872   6.699   1.758  0.3524  0.6231  0.9201
    2PC     N3116683   1.821   6.625   1.947  0.1636 -0.1900  0.0870
    2PC     C3316684   1.883   6.495   1.906  0.5848 -0.1041  0.4464
    2PC     H3A16685   1.802   6.424   1.886 -0.7128  1.5222 -0.3468
    2PC     H3B16686   1.950   6.502   1.821 -1.1337  0.4963 -0.9193
    2PC     H3C16687   1.945   6.460   1.989  0.4853  1.6721  1.3067
    2PC     C3416688   1.929   6.705   2.012  0.1000  0.0730 -0.1304
    2PC     H4A16689   2.024   6.698   1.959  1.2065  1.3346  1.5602
    2PC     H4B16690   1.910   6.812   2.025  0.0155 -0.0385  0.7175
    2PC     H4C16691   1.946   6.652   2.106  2.1511  2.1879  0.7884
    2PC     C3516692   1.701   6.612   2.036  0.3479 -0.3364  0.3165
    2PC     H5A16693   1.684   6.716   2.064  2.2459  0.2464 -0.5868
    2PC     H5B16694   1.726   6.543   2.117  0.4752 -1.0632 -0.3271
    2PC     H5C16695   1.608   6.580   1.988 -1.1843  3.3598  0.4657
    2PC     O3316696   1.369   6.894   1.774 -0.1410  0.0872  0.5887
    2PC     O3416697   1.543   7.057   1.763  0.0382  0.0167 -0.7114
    2PC     O2116698   1.495   6.917   2.268 -0.4336 -0.4763 -0.4391
    2PC     C2116699   1.611   6.849   2.279  0.2038  0.7195  0.4940
    2PC     O2216700   1.719   6.886   2.238 -0.0460  0.2173 -0.6639
    3OL     C1216701   1.582   6.717   2.347  0.4455  0.3189 -0.1706
    3OL     H2R16702   1.540   6.642   2.280  2.3117 -0.1521 -0.8929
    3OL     H2S16703   1.506   6.728   2.424  1.3914 -0.7344  0.9344
    3OL     C1316704   1.713   6.654   2.395  0.3739  0.4210  0.1605
    3OL     H3R16705   1.736   6.703   2.490 -1.0341  0.8514  0.2920
    3OL     H3S16706   1.799   6.673   2.330 -0.0015 -1.0745 -0.8350
    3OL     C1416707   1.692   6.506   2.430  0.4559  0.2246 -0.6075
    3OL     H4R16708   1.684   6.445   2.340  0.6082 -0.8018  0.0589
    3OL     H4S16709   1.607   6.486   2.495 -0.0592 -1.0372 -1.6133
    3OL     C1516710   1.816   6.450   2.501  0.1050  0.3428  0.1064
    3OL     H5R16711   1.830   6.492   2.601  2.8029 -0.0056 -0.0539
    3OL     H5S16712   1.899   6.487   2.440 -0.6313  0.9968 -0.5242
    3OL     C1616713   1.813   6.296   2.500  0.0287  0.3424  0.3396
    3OL     H6R16714   1.799   6.264   2.396  1.0331  1.3590 -0.1250
    3OL     H6S16715   1.716   6.268   2.542  0.2684 -0.6514  0.2537
    3OL     C1716716   1.940   6.231   2.555  0.1558  0.0697 -0.2759
    3OL     H7R16717   1.970   6.273   2.651  0.6499 -1.3309  0.2177
    3OL     H7S16718   2.010   6.255   2.474 -0.5313  1.4771 -0.4777
    3OL     C1816719   1.915   6.081   2.575 -0.0354  0.1342 -0.0317
    3OL     H8R16720   1.897   6.038   2.476 -0.7474  0.6451 -0.1327
    3OL     H8S16721   1.827   6.073   2.639  0.3129 -1.5803  0.2976
    3OL     C1916722   2.027   6.015   2.651 -0.3916  0.4111  0.7392
    3OL     H9R16723   2.124   6.054   2.621 -0.4605  0.6539  0.8267
    3OL    C11016724   2.020   5.955   2.769 -0.0010 -0.3671  0.3772
    3OL    H10R16725   2.117   5.937   2.814  0.7035  1.6134 -0.2521
    3OL    C11116726   1.891   5.910   2.833 -0.4882  0.1846 -0.2017
    3OL    H11R16727   1.899   5.805   2.862  1.7544  0.0732 -1.0335
    3OL    H11S16728   1.796   5.921   2.780 -0.2969 -1.3129 -0.8791
    3OL    C11216729   1.878   5.973   2.973  0.0740 -0.2646  0.0588
    3OL    H12R16730   1.974   5.947   3.016 -0.4044  0.8682  1.9164
    3OL    H12S16731   1.801   5.922   3.031  0.5876 -1.1806 -0.0551
    3OL    C11316732   1.850   6.124   2.966  0.3763 -0.2109  0.0118
    3OL    H13R16733   1.896   6.169   2.878  2.1229 -0.1669  0.8935
    3OL    H13S16734   1.887   6.185   3.049 -1.1478  0.5437  0.1613
    3OL    C11416735   1.704   6.163   2.937  0.4079  0.0550  0.2020
    3OL    H14R16736   1.653   6.144   3.031  0.6833 -2.0835 -0.0242
    3OL    H14S16737   1.670   6.099   2.855  2.3444 -0.1571 -0.5034
    3OL    C11516738   1.699   6.312   2.900  0.1716 -0.1431 -0.5706
    3OL    H15R16739   1.762   6.344   2.817  0.6685  1.6768  0.4563
    3OL    H15S16740   1.734   6.369   2.985 -2.1780 -0.1084  0.4514
    3OL    C11616741   1.553   6.352   2.871 -0.1175 -0.3907  0.4881
    3OL    H16R16742   1.488   6.297   2.938 -0.5684 -0.0782  0.3084
    3OL    H16S16743   1.531   6.314   2.771 -3.7365  0.7948  0.6976
    3OL    C11716744   1.541   6.503   2.896  0.2894 -0.2646 -0.0524
    3OL    H17R16745   1.613   6.552   2.829 -0.1041  1.7841  0.9370
    3OL    H17S16746   1.579   6.521   2.996  3.9141  0.5742 -1.4166
    3OL    C11816747   1.397   6.547   2.864  0.2703 -0.2241  0.0881
    3OL    H18R16748   1.366   6.526   2.761 -1.5088 -0.7776  0.6997
    3OL    H18S16749   1.376   6.653   2.878 -0.7347 -0.2907 -0.8150
    3OL    H18T16750   1.328   6.493   2.929  0.5467 -2.0481 -1.0454
    1PA    C11616751   1.246   1.925   3.937  0.0375  0.3151  0.0158
    1PA    H16R16752   1.269   2.026   3.900  2.7758 -0.9439 -2.1219
    1PA    H16S16753   1.251   1.938   4.045  0.8805  0.6948 -0.0620
    1PA    H16T16754   1.144   1.899   3.909 -0.3708  0.3951  1.3996
    1PA    C11516755   1.352   1.824   3.890 -0.4264  0.0384 -0.4445
    1PA    H15R16756   1.452   1.845   3.928 -0.2296 -2.8362  0.9562
    1PA    H15S16757   1.321   1.727   3.930  0.8225 -0.7999 -1.4497
    1PA    C11416758   1.351   1.832   3.737  0.2151  0.2635 -0.4391
    1PA    H14R16759   1.322   1.920   3.679  0.5354 -0.5019 -1.7974
    1PA    H14S16760   1.455   1.820   3.708  0.1153  0.1715 -0.7577
    1PA    C11316761   1.262   1.726   3.671 -0.1268  0.0825  0.3038
    1PA    H13R16762   1.308   1.628   3.659 -2.7418 -1.3721  1.2338
    1PA    H13S16763   1.182   1.697   3.741 -1.0704  1.2027 -0.2710
    1PA    C11216764   1.210   1.759   3.531  0.2073 -0.6842 -0.0064
    1PA    H12R16765   1.136   1.838   3.543  2.9380  1.9921  0.3483
    1PA    H12S16766   1.289   1.798   3.467  0.7877  1.6847  1.9875
    1PA    C11116767   1.158   1.637   3.454 -0.4558 -0.4441  0.0506
    1PA    H11R16768   1.239   1.567   3.431 -0.7954 -0.9004  0.2132
    1PA    H11S16769   1.085   1.585   3.516  0.1318  1.1787  2.1824
    1PA    C11016770   1.097   1.680   3.319 -0.3211  0.2481  0.2078
    1PA    H10R16771   1.023   1.758   3.337 -2.5658 -2.0571  1.8400
    1PA    H10S16772   1.172   1.723   3.253  0.5705 -0.2056  0.8965
    1PA     C1916773   1.007   1.571   3.258  0.2641 -0.0907 -0.0616
    1PA     H9R16774   1.068   1.489   3.221 -0.4460 -0.3922 -0.5807
    1PA     H9S16775   0.926   1.535   3.322 -0.9301  0.5959 -1.1535
    1PA     C1816776   0.941   1.615   3.126 -0.3780 -0.2496  0.2028
    1PA     H8R16777   0.888   1.699   3.172  0.7867  0.3475  0.4989
    1PA     H8S16778   1.012   1.653   3.052 -0.2118 -3.7489 -1.6466
    1PA     C1716779   0.861   1.501   3.063 -0.1881 -0.5309  0.4653
    1PA     H7R16780   0.829   1.430   3.140 -3.0789  0.7544  0.6056
    1PA     H7S16781   0.767   1.545   3.027  1.0090  1.1319 -0.7836
    1PA     C1616782   0.929   1.441   2.940  0.0776  0.0564  0.3227
    1PA     H6R16783   0.947   1.517   2.864 -0.3504 -0.1785 -0.0188
    1PA     H6S16784   1.022   1.385   2.953 -0.6989 -2.0423 -2.1942
    1PA     C1516785   0.830   1.343   2.876 -0.3148  0.5120  0.2277
    1PA     H5R16786   0.736   1.398   2.879 -0.6841 -0.1454  0.9336
    1PA     H5S16787   0.860   1.340   2.771  0.3265  1.6258  0.3607
    1PA     C1416788   0.816   1.210   2.952  1.0216  0.0248 -0.3446
    1PA     H4R16789   0.911   1.172   2.991 -0.0611  0.1799  2.6842
    1PA     H4S16790   0.756   1.223   3.042 -2.1531 -4.8454 -1.3880
    1PA     C1316791   0.751   1.113   2.852  0.0581  0.3752 -0.0704
    1PA     H3R16792   0.657   1.149   2.811  0.3067  1.0745 -0.0371
    1PA     H3S16793   0.815   1.114   2.764  0.8024 -0.0822  0.4493
    1PA     C1216794   0.737   0.968   2.900 -0.0821  0.2787 -0.4007
    1PA     H2R16795   0.837   0.929   2.924 -0.8275 -0.6120  1.4860
    1PA     H2S16796   0.677   0.953   2.990  0.7521 -0.7097  0.0141
    2PC     C1116797   0.663   0.891   2.794 -0.3828  0.0140 -0.0018
    2PC     O1216798   0.543   0.891   2.778 -0.5097 -0.4330  0.8726
    2PC     O1116799   0.738   0.804   2.724  0.0372  0.5060 -0.1692
    2PC      C116800   0.688   0.710   2.627  0.6261  0.3314 -0.3078
    2PC      HR16801   0.764   0.633   2.612  1.3622  1.1160 -0.6645
    2PC      HS16802   0.608   0.654   2.675  0.8784 -1.5488 -1.9354
    2PC      C216803   0.626   0.779   2.505 -0.1064  0.4801  0.1460
    2PC      HX16804   0.557   0.854   2.546  0.4677  0.6137  0.8811
    2PC      C316805   0.556   0.679   2.412  0.1361  0.3253  0.1304
    2PC      HA16806   0.631   0.635   2.345  0.0881 -0.4212  0.5614
    2PC      HB16807   0.512   0.592   2.461  2.7506 -1.0168  0.2555
    2PC     O3116808   0.448   0.748   2.346 -0.1043 -0.3437 -0.1860
    2PC     P3116809   0.356   0.673   2.239 -0.2618 -0.2367 -0.1264
    2PC     O3216810   0.338   0.800   2.143 -0.0318 -0.1755 -0.0884
    2PC     C3116811   0.258   0.909   2.190  0.0278 -0.0953 -0.1737
    2PC     H1A16812   0.151   0.888   2.197  0.2904 -1.3933  0.0327
    2PC     H1B16813   0.292   0.950   2.286 -2.0486  0.6244  0.3011
    2PC     C3216814   0.263   1.016   2.080 -0.2674 -0.3642 -0.4470
    2PC     H2A16815   0.245   0.964   1.985 -0.1117 -1.4190  0.0941
    2PC     H2B16816   0.189   1.090   2.110  0.2894 -0.3883  1.0345
    2PC     N3116817   0.385   1.102   2.064 -0.5172  0.0281 -0.2682
    2PC     C3316818   0.495   1.009   2.023 -0.3505  0.1387 -0.0718
    2PC     H3A16819   0.532   0.953   2.109  0.1464  1.0256  0.2974
    2PC     H3B16820   0.449   0.942   1.950 -2.2489 -2.0966  2.9049
    2PC     H3C16821   0.578   1.066   1.982 -2.2914  1.7223 -2.0498
    2PC     C3416822   0.356   1.195   1.950  0.3949  0.7206  0.0579
    2PC     H4A16823   0.252   1.226   1.964  0.8725  1.7972  1.5408
    2PC     H4B16824   0.421   1.282   1.945  2.3685 -0.7862 -2.2584
    2PC     H4C16825   0.362   1.142   1.855 -1.9974  0.7888 -0.2008
    2PC     C3516826   0.418   1.181   2.187 -0.2848 -0.0644 -0.2711
    2PC     H5A16827   0.511   1.237   2.187 -1.4777  2.0142 -1.0419
    2PC     H5B16828   0.425   1.112   2.271  0.2711 -0.2539 -0.4666
    2PC     H5C16829   0.338   1.252   2.206 -0.8701 -0.7104 -0.2705
    2PC     O3316830   0.444   0.572   2.176  0.6858  0.2238  0.4430
    2PC     O3416831   0.236   0.596   2.281 -0.5092 -0.0800 -0.5430
    2PC     O2116832   0.736   0.838   2.434 -0.0444 -0.2213 -0.3468
    2PC     C2116833   0.713   0.935   2.344  0.1355 -0.0325 -0.1900
    2PC     O2216834   0.607   0.986   2.316  0.1011  0.0744  0.1396
    3OL     C1216835   0.846   0.979   2.286  0.2511  0.2877  0.3171
    3OL     H2R16836   0.831   1.066   2.223 -0.1520  0.3096  0.4361
    3OL     H2S16837   0.877   0.897   2.221  0.0234 -0.5204  1.1912
    3OL     C1316838   0.957   0.999   2.390  0.0871 -0.1876  0.5927
    3OL     H3R16839   1.050   1.026   2.337  0.0790 -1.0554  0.1211
    3OL     H3S16840   0.969   0.903   2.439  1.9192  0.6579  1.9268
    3OL     C1416841   0.932   1.120   2.481  0.2139  0.5589 -0.3419
    3OL     H4R16842   0.846   1.102   2.545 -0.8500  0.9106 -1.6282
    3OL     H4S16843   0.912   1.206   2.416 -1.7290 -1.2215 -2.2601
    3OL     C1516844   1.056   1.144   2.569 -0.3826 -0.0979  0.6920
    3OL     H5R16845   1.028   1.225   2.636  1.9612  1.4305 -0.0790
    3OL     H5S16846   1.141   1.166   2.505 -1.8210  2.6997 -0.4418
    3OL     C1616847   1.082   1.022   2.659 -0.3021  0.0968  0.9327
    3OL     H6R16848   1.119   0.937   2.602  1.6723  0.9405  0.8503
    3OL     H6S16849   0.991   0.987   2.708 -1.2963 -0.4857 -1.2340
    3OL     C1716850   1.198   1.055   2.754  0.0991 -0.0545  0.4949
    3OL     H7R16851   1.175   1.145   2.811 -1.0556 -0.0802  0.1028
    3OL     H7S16852   1.291   1.074   2.698  0.8633  0.0258  1.7621
    3OL     C1816853   1.218   0.938   2.851  0.0560 -0.2902  0.2209
    3OL     H8R16854   1.269   0.855   2.802 -0.2554 -0.5501  0.3363
    3OL     H8S16855   1.120   0.900   2.880 -0.3614 -0.6390 -1.5262
    3OL     C1916856   1.299   0.987   2.968 -0.3089  0.6240  0.1018
    3OL     H9R16857   1.401   1.016   2.945  0.7346 -2.2459  0.7352
    3OL    C11016858   1.254   0.997   3.092 -0.1317 -0.0446  0.2216
    3OL    H10R16859   1.326   1.019   3.170 -0.4031 -0.5009  0.6118
    3OL    C11116860   1.111   0.990   3.140 -0.0791 -0.1310  0.3654
    3OL    H11R16861   1.100   0.905   3.209  0.1279 -1.0756 -0.7309
    3OL    H11S16862   1.039   0.974   3.060  0.5146 -1.8585  0.1408
    3OL    C11216863   1.092   1.117   3.225  0.2355 -0.0792  0.3609
    3OL    H12R16864   1.067   1.202   3.161  1.0773  1.7198  2.3066
    3OL    H12S16865   1.180   1.154   3.277 -0.1226 -0.1142  1.0042
    3OL    C11316866   0.971   1.092   3.317 -0.3366  0.1375 -0.3217
    3OL    H13R16867   0.985   1.014   3.391  1.9653  0.4005 -0.4015
    3OL    H13S16868   0.879   1.083   3.259 -0.1873 -0.7857 -0.4340
    3OL    C11416869   0.951   1.222   3.396 -0.0337 -0.1966  0.3090
    3OL    H14R16870   0.851   1.214   3.439  0.1646 -1.4261  0.5878
    3OL    H14S16871   0.959   1.301   3.320  2.6524 -1.1474 -0.5208
    3OL    C11516872   1.043   1.238   3.518 -0.0906  0.8209  0.2283
    3OL    H15R16873   1.056   1.342   3.548 -0.7826  1.2601 -0.8995
    3OL    H15S16874   1.145   1.203   3.496 -0.0898  1.2386 -0.4871
    3OL    C11616875   0.990   1.175   3.647 -0.2558  0.3108 -0.0867
    3OL    H16R16876   1.008   1.068   3.635 -0.8086  0.1996  0.0292
    3OL    H16S16877   0.883   1.194   3.662  0.0357  2.4571 -0.4228
    3OL    C11716878   1.058   1.229   3.773  0.6218 -0.6409 -0.1454
    3OL    H17R16879   1.015   1.327   3.791 -0.7485 -1.1778 -0.4106
    3OL    H17S16880   1.166   1.241   3.761  0.3968  1.2053 -0.6040
    3OL    C11816881   1.016   1.145   3.894  0.2474 -0.2889 -0.0319
    3OL    H18R16882   0.912   1.114   3.893  0.0059  0.4864 -0.1666
    3OL    H18S16883   1.024   1.213   3.980 -1.1935  1.4203 -1.1712
    3OL    H18T16884   1.084   1.062   3.913  0.4238 -0.2597 -0.5310
    1PA    C11616885   4.631   5.718   3.905  0.2436  0.5401 -0.2865
    1PA    H16R16886   4.560   5.800   3.908 -1.2524 -0.7469  0.8751
    1PA    H16S16887   4.587   5.632   3.955  0.9282  1.0618  1.2533
    1PA    H16T16888   4.641   5.673   3.806  0.5795  0.2746 -0.1355
    1PA    C11516889   4.767   5.750   3.968  0.4245 -0.1098 -0.3343
    1PA    H15R16890   4.754   5.769   4.075  0.6831  0.9106 -0.4720
    1PA    H15S16891   4.836   5.670   3.940 -0.8446 -1.2540 -0.2915
    1PA    C11416892   4.820   5.887   3.923 -0.3360  0.1188 -0.5497
    1PA    H14R16893   4.745   5.963   3.941  0.3671  0.9669 -1.1107
    1PA    H14S16894   4.912   5.905   3.978 -0.3168  0.2535 -0.6260
    1PA    C11316895   4.857   5.903   3.774  0.3739  0.1696 -0.3729
    1PA    H13R16896   4.938   5.835   3.751  0.1762  0.2508 -1.3575
    1PA    H13S16897   4.781   5.884   3.698  0.1181  2.3419 -0.7419
    1PA    C11216898   4.897   6.051   3.757  1.0036  0.1169  0.5918
    1PA    H12R16899   4.810   6.116   3.754  1.5184  0.7839 -0.5518
    1PA    H12S16900   4.949   6.086   3.847  1.4300  1.0162 -0.0011
    1PA    C11116901   4.987   6.073   3.635  0.4281 -0.4335  0.0599
    1PA    H11R16902   5.032   6.173   3.631  0.9288 -0.6951 -1.9082
    1PA    H11S16903   5.075   6.011   3.616  0.8463  0.2281 -0.2032
    1PA    C11016904   4.907   6.058   3.505  0.2547  0.4331  0.0585
    1PA    H10R16905   4.880   5.953   3.490  0.1629  0.4279  0.2671
    1PA    H10S16906   4.813   6.108   3.526  0.5075  0.8570  0.1975
    1PA     C1916907   4.986   6.109   3.383  0.5816  0.1732  0.1609
    1PA     H9R16908   5.038   6.204   3.399 -1.2485  1.5586 -1.5987
    1PA     H9S16909   5.074   6.045   3.373  0.4647 -0.3605  2.1419
    1PA     C1816910   4.903   6.117   3.254 -0.1794  0.6122  0.6725
    1PA     H8R16911   4.969   6.143   3.172 -1.2608  2.0253  0.2171
    1PA     H8S16912   4.851   6.024   3.227 -0.7368  1.1430 -0.1294
    1PA     C1716913   4.812   6.240   3.264 -0.2628  0.6477 -0.4184
    1PA     H7R16914   4.742   6.231   3.348  0.2043  1.8723  0.1291
    1PA     H7S16915   4.878   6.324   3.289 -0.9621  0.6703  1.5017
    1PA     C1616916   4.743   6.267   3.130 -0.3067  0.1689 -0.4938
    1PA     H6R16917   4.801   6.344   3.079 -0.9188  2.0896  1.5252
    1PA     H6S16918   4.727   6.174   3.075 -0.1749  0.1097 -0.4323
    1PA     C1516919   4.611   6.336   3.169  0.1668  0.4080  0.7153
    1PA     H5R16920   4.563   6.287   3.254  0.3410  0.2605  0.7296
    1PA     H5S16921   4.619   6.442   3.194 -1.8749  1.1079 -1.2787
    1PA     C1416922   4.509   6.318   3.056  0.7065  1.0030  0.1269
    1PA     H4R16923   4.485   6.213   3.039 -0.4571  1.4977 -1.5601
    1PA     H4S16924   4.419   6.369   3.090 -0.2602 -0.1544 -0.6120
    1PA     C1316925   4.555   6.386   2.926 -0.1563 -0.0820 -0.7671
    1PA     H3R16926   4.575   6.492   2.940 -1.6168  0.3138 -1.5548
    1PA     H3S16927   4.649   6.341   2.893 -0.4313 -1.2765 -0.0049
    1PA     C1216928   4.454   6.380   2.810 -0.4316  0.3689 -0.5524
    1PA     H2R16929   4.404   6.284   2.803 -0.1058  0.3161 -3.4904
    1PA     H2S16930   4.376   6.453   2.833 -0.8334 -1.3556  5.1666
    2PC     C1116931   4.510   6.412   2.674  0.3398  0.4417 -0.2294
    2PC     O1216932   4.454   6.498   2.608 -0.0502  0.4314  0.0834
    2PC     O1116933   4.611   6.335   2.629  0.0251 -0.1868  0.1278
    2PC      C116934   4.606   6.309   2.488 -0.6877  0.2795  0.0566
    2PC      HR16935   4.508   6.272   2.458 -0.2921  0.0660 -1.0088
    2PC      HS16936   4.630   6.406   2.444  0.0271  0.2750  0.4071
    2PC      C216937   4.707   6.200   2.448 -0.3482  0.5162  0.2591
    2PC      HX16938   4.808   6.229   2.477 -0.6133  1.8643 -0.0982
    2PC      C316939   4.707   6.184   2.295  0.3211  0.4198  0.2654
    2PC      HA16940   4.792   6.233   2.248  3.0118 -2.9806  1.2154
    2PC      HB16941   4.715   6.079   2.269 -1.6763 -0.1336  1.6122
    2PC     O3116942   4.581   6.224   2.238  0.3112  0.0108 -0.0029
    2PC     P3116943   4.558   6.216   2.080  0.1134  0.5612 -0.0050
    2PC     O3216944   4.481   6.075   2.073  0.1187  0.5511  0.1474
    2PC     C3116945   4.561   5.956   2.076 -0.3690  0.2146 -0.1423
    2PC     H1A16946   4.657   5.971   2.027  1.4125 -0.8513  2.7278
    2PC     H1B16947   4.576   5.918   2.178  0.2814 -1.2269 -0.7390
    2PC     C3216948   4.476   5.848   2.008  0.2925 -0.4091  0.0080
    2PC     H2A16949   4.379   5.829   2.053  0.1573  0.3980  0.0607
    2PC     H2B16950   4.463   5.880   1.904 -0.4098 -0.7926 -0.0308
    2PC     N3116951   4.560   5.724   1.996  0.3094 -0.3720 -0.2594
    2PC     C3316952   4.483   5.636   1.901 -0.5328  0.0985 -0.0225
    2PC     H3A16953   4.479   5.679   1.801 -2.0258  0.3215  0.1013
    2PC     H3B16954   4.540   5.543   1.899  2.1271  1.6141  0.6613
    2PC     H3C16955   4.380   5.623   1.934 -0.6880 -3.1936 -1.4333
    2PC     C3416956   4.700   5.744   1.948  0.6437 -0.4475  0.6699
    2PC     H4A16957   4.688   5.794   1.851 -0.2912 -1.9844 -0.0526
    2PC     H4B16958   4.747   5.807   2.023 -2.3321  0.0198  2.2971
    2PC     H4C16959   4.762   5.655   1.932  2.2680  0.5642  1.0867
    2PC     C3516960   4.566   5.657   2.129  1.0009 -0.0831 -0.1426
    2PC     H5A16961   4.630   5.699   2.207  0.9136 -0.4557  0.1347
    2PC     H5B16962   4.595   5.553   2.114 -1.5859 -0.7070 -1.3794
    2PC     H5C16963   4.464   5.662   2.169 -0.1048 -0.5121 -2.7620
    2PC     O3316964   4.473   6.316   2.011 -1.0702 -0.5698 -0.2413
    2PC     O3416965   4.679   6.211   1.996  0.1658 -0.9700  0.1253
    2PC     O2116966   4.664   6.079   2.513  0.7200 -0.4519 -0.7640
    2PC     C2116967   4.692   6.055   2.643 -0.4414 -0.4421 -0.4981
    2PC     O2216968   4.772   6.114   2.713 -0.8212 -0.5844  0.0582
    3OL     C1216969   4.609   5.944   2.702 -0.0554 -0.5032 -0.0699
    3OL     H2R16970   4.639   5.945   2.807 -0.8693 -1.7348  0.1931
    3OL     H2S16971   4.631   5.847   2.657 -1.6526 -0.4570 -1.0234
    3OL     C1316972   4.459   5.974   2.686  0.0837  0.1439 -0.1872
    3OL     H3R16973   4.435   6.010   2.586  0.3503  3.5580  0.8246
    3OL     H3S16974   4.440   6.058   2.753 -0.5922 -1.6416  1.9732
    3OL     C1416975   4.368   5.857   2.725 -0.3063  0.4919 -0.0352
    3OL     H4R16976   4.392   5.840   2.830 -2.7216 -0.7044  0.3775
    3OL     H4S16977   4.405   5.769   2.671  0.3091 -0.4501  1.8524
    3OL     C1516978   4.217   5.875   2.704 -0.4085 -0.1047  0.1663
    3OL     H5R16979   4.158   5.785   2.721 -0.5133  0.1398  1.1634
    3OL     H5S16980   4.204   5.910   2.601  2.3152  0.2938 -0.1345
    3OL     C1616981   4.167   5.987   2.797 -0.2341  0.4736 -0.4259
    3OL     H6R16982   4.178   6.078   2.739  0.6488  0.8180  0.2613
    3OL     H6S16983   4.225   5.992   2.889  0.9269 -2.1075 -0.9026
    3OL     C1716984   4.018   5.979   2.833 -0.1427  0.3698 -0.0722
    3OL     H7R16985   3.989   5.876   2.855 -0.1495  0.0598 -1.4522
    3OL     H7S16986   3.953   5.988   2.746  0.1063 -1.4289 -0.4928
    3OL     C1816987   3.976   6.086   2.935 -0.4481 -0.0373  0.2369
    3OL     H8R16988   3.867   6.082   2.929 -0.3404 -2.0495 -3.1184
    3OL     H8S16989   4.006   6.182   2.891 -1.0364  0.0296 -0.0234
    3OL     C1916990   4.041   6.070   3.070  0.1518  0.1195 -0.0269
    3OL     H9R16991   4.113   5.991   3.086 -1.5270 -1.1317  1.8644
    3OL    C11016992   4.002   6.146   3.172 -0.2164 -0.3226  0.1641
    3OL    H10R16993   4.042   6.118   3.269 -0.3818 -1.6689 -0.1333
    3OL    C11116994   3.907   6.262   3.159  0.2660  0.0569  0.0313
    3OL    H11R16995   3.878   6.281   3.055 -0.5206 -0.4950  0.1466
    3OL    H11S16996   3.967   6.347   3.192  1.8541 -0.9459 -0.1562
    3OL    C11216997   3.779   6.243   3.241  0.4060 -0.6427  0.0938
    3OL    H12R16998   3.737   6.151   3.201 -1.3230  0.5772 -1.0600
    3OL    H12S16999   3.708   6.325   3.226  0.6365  0.0804  2.5041
    3OL    C11317000   3.803   6.248   3.393 -0.2924  0.6944  0.1746
    3OL    H13R17001   3.879   6.176   3.423  0.2646  0.4793 -1.5876
    3OL    H13S17002   3.703   6.212   3.418 -0.4750  1.3635  0.4147
    3OL    C11417003   3.815   6.389   3.451 -0.4854  0.8206 -0.0866
    3OL    H14R17004   3.725   6.444   3.423  0.3093  2.0987 -0.2084
    3OL    H14S17005   3.898   6.441   3.403 -0.6048  0.6088 -0.5181
    3OL    C11517006   3.826   6.381   3.604 -0.1264  0.0864 -0.1482
    3OL    H15R17007   3.915   6.327   3.638 -0.5260 -0.8458 -0.5550
    3OL    H15S17008   3.736   6.327   3.633 -0.3377  0.7620  0.4950
    3OL    C11617009   3.826   6.527   3.653  0.0264  0.0197  0.0548
    3OL    H16R17010   3.737   6.578   3.616 -0.4951 -0.8491  0.0703
    3OL    H16S17011   3.909   6.582   3.608 -0.3888  0.3353 -0.3309
    3OL    C11717012   3.838   6.540   3.805  0.6785 -0.7788  0.0791
    3OL    H17R17013   3.926   6.491   3.848  0.3362 -0.9845  0.5538
    3OL    H17S17014   3.758   6.487   3.857 -0.5620  0.3115 -0.6545
    3OL    C11817015   3.832   6.688   3.846 -0.3275 -0.8354  0.1649
    3OL    H18R17016   3.745   6.737   3.803 -0.6667  0.4429  2.1852
    3OL    H18S17017   3.923   6.745   3.825 -0.5864 -0.0152  1.2328
    3OL    H18T17018   3.802   6.690   3.951 -3.1935  1.5734 -0.5609
    1PA    C11617019   2.592   5.983   3.578 -0.2081 -0.6409  0.2106
    1PA    H16R17020   2.604   5.914   3.662 -0.3363 -1.7414 -0.6554
    1PA    H16S17021   2.537   6.073   3.607 -0.4640  0.3807 -3.0872
    1PA    H16T17022   2.692   6.012   3.547 -0.1359  1.0162  1.7870
    1PA    C11517023   2.496   5.907   3.486 -0.1342 -0.2869 -0.1593
    1PA    H15R17024   2.527   5.806   3.460 -1.0901 -0.0038 -2.6684
    1PA    H15S17025   2.404   5.881   3.540 -0.7138  1.8781 -0.0027
    1PA    C11417026   2.459   5.992   3.363  0.0098 -0.1000 -0.0741
    1PA    H14R17027   2.365   5.950   3.327  1.1672 -1.5425 -1.5640
    1PA    H14S17028   2.437   6.096   3.386  1.9659  0.6727 -1.4465
    1PA    C11317029   2.570   5.974   3.259  0.1687 -0.2393  0.1192
    1PA    H13R17030   2.666   6.008   3.298  0.3635  2.0991 -2.1757
    1PA    H13S17031   2.583   5.871   3.225 -0.1008  0.5944 -2.7667
    1PA    C11217032   2.536   6.058   3.135  0.1903 -0.4359 -0.0210
    1PA    H12R17033   2.537   6.002   3.042  0.0618  0.4506 -0.5659
    1PA    H12S17034   2.433   6.092   3.143  0.1737 -0.6119  0.5441
    1PA    C11117035   2.635   6.176   3.134 -0.3697  0.0332 -0.5119
    1PA    H11R17036   2.587   6.270   3.106  0.9057  0.5993 -0.8711
    1PA    H11S17037   2.682   6.189   3.231  0.7253  0.4639 -1.0864
    1PA    C11017038   2.744   6.138   3.033  0.2714  0.3173  0.0700
    1PA    H10R17039   2.788   6.042   3.064  0.2599 -0.2742 -1.6468
    1PA    H10S17040   2.713   6.125   2.929  1.7063  0.3994 -0.3981
    1PA     C1917041   2.851   6.247   3.046  0.3034  0.3039 -0.0811
    1PA     H9R17042   2.807   6.330   2.990 -0.9465 -0.5473 -0.4087
    1PA     H9S17043   2.858   6.268   3.153  0.0476  0.3674 -0.0762
    1PA     C1817044   2.988   6.218   2.984  0.4525  0.1346  0.3272
    1PA     H8R17045   3.047   6.296   3.034  2.1227 -1.7912  1.5531
    1PA     H8S17046   3.022   6.116   3.004 -1.4703 -0.8007 -0.8842
    1PA     C1717047   2.984   6.223   2.831 -0.1975 -0.7414  0.3114
    1PA     H7R17048   2.903   6.161   2.793 -1.1484 -0.1688  1.3525
    1PA     H7S17049   2.975   6.328   2.802  3.6369  0.3450  2.2759
    1PA     C1617050   3.120   6.170   2.781  0.3272  0.7719  0.0936
    1PA     H6R17051   3.205   6.206   2.838  0.8464  3.0457 -1.9279
    1PA     H6S17052   3.120   6.062   2.798  1.0128  0.8121  0.3786
    1PA     C1517053   3.149   6.200   2.633  0.1666 -0.3844 -0.1765
    1PA     H5R17054   3.106   6.296   2.604  1.6407 -0.6262 -3.6352
    1PA     H5S17055   3.256   6.204   2.615  0.6145  2.0157  2.3799
    1PA     C1417056   3.088   6.082   2.556 -0.4303 -0.1692 -0.0415
    1PA     H4R17057   3.093   5.981   2.597  0.4457 -0.8308 -1.6601
    1PA     H4S17058   2.984   6.116   2.553  0.1693  1.7943 -0.0748
    1PA     C1317059   3.129   6.074   2.408  0.0635  0.6061  0.0494
    1PA     H3R17060   3.047   6.023   2.358  1.1361 -1.3364  0.1483
    1PA     H3S17061   3.139   6.170   2.358  0.5087 -0.0989 -1.2870
    1PA     C1217062   3.254   5.987   2.384 -0.0195  0.5375 -0.1360
    1PA     H2R17063   3.342   6.027   2.434  0.9917 -1.9151  0.1667
    1PA     H2S17064   3.240   5.887   2.427 -2.5070  0.3733 -1.1645
    2PC     C1117065   3.283   5.971   2.237  0.3999  0.6961 -0.0707
    2PC     O1217066   3.201   5.987   2.149  0.4926 -0.5925 -0.4106
    2PC     O1117067   3.407   5.927   2.212  0.1858 -0.2353  0.4708
    2PC      C117068   3.450   5.885   2.082 -0.2227 -0.2689  0.3463
    2PC      HR17069   3.532   5.813   2.084  0.3426  0.3588  0.3454
    2PC      HS17070   3.368   5.846   2.021  0.5343  2.6535 -2.8835
    2PC      C217071   3.498   6.012   2.011  0.3581 -0.8003 -0.2273
    2PC      HX17072   3.424   6.093   2.019  2.2069  1.0441 -0.8055
    2PC      C317073   3.529   5.985   1.863  0.1167  0.0266 -0.4358
    2PC      HA17074   3.432   5.966   1.815  0.6624 -0.3207 -1.4362
    2PC      HB17075   3.576   6.057   1.796 -0.1980 -1.4441 -2.3547
    2PC     O3117076   3.611   5.867   1.864 -0.2279 -0.2106  0.2000
    2PC     P3117077   3.647   5.773   1.739  0.2748 -0.0353  0.2137
    2PC     O3217078   3.800   5.750   1.782  0.2590 -0.0573  0.2573
    2PC     C3117079   3.902   5.843   1.741 -0.0499  0.1634 -0.0122
    2PC     H1A17080   3.868   5.890   1.648 -1.1988 -1.2933 -0.3566
    2PC     H1B17081   3.903   5.928   1.810  1.2101 -2.0581  2.9125
    2PC     C3217082   4.042   5.780   1.736 -0.2597 -0.2903 -0.2410
    2PC     H2A17083   4.117   5.858   1.719  0.8573 -1.0988  0.8934
    2PC     H2B17084   4.061   5.732   1.831  2.5478  0.8765 -0.1254
    2PC     N3117085   4.070   5.684   1.624  0.4285  0.3060 -0.5900
    2PC     C3317086   4.200   5.617   1.657  0.1089  0.0126  0.0927
    2PC     H3A17087   4.281   5.685   1.628 -0.6803  1.2506  0.6879
    2PC     H3B17088   4.203   5.590   1.763 -0.8299 -0.0887  0.1057
    2PC     H3C17089   4.215   5.527   1.597  1.6723  0.0409  0.4010
    2PC     C3417090   3.960   5.583   1.617  0.1734  0.5449 -0.1058
    2PC     H4A17091   3.953   5.540   1.718  1.4113  4.1054  1.6461
    2PC     H4B17092   3.865   5.630   1.593 -0.8320 -1.6721 -0.7468
    2PC     H4C17093   3.994   5.513   1.540  1.5034  0.1308  0.8200
    2PC     C3517094   4.078   5.746   1.488  0.0030  0.2793 -0.6285
    2PC     H5A17095   4.072   5.665   1.416 -1.8342  0.0264 -0.2488
    2PC     H5B17096   4.174   5.797   1.482 -1.1133  2.6050 -0.0026
    2PC     H5C17097   4.001   5.823   1.476  0.1638  0.4584 -0.5187
    2PC     O3317098   3.563   5.651   1.734  0.8182 -0.3800 -0.5966
    2PC     O3417099   3.626   5.829   1.604 -0.4263  0.2608  0.4406
    2PC     O2117100   3.611   6.063   2.084 -0.1974 -0.2591  0.2727
    2PC     C2117101   3.641   6.188   2.046 -0.1454 -0.1681  0.6139
    2PC     O2217102   3.587   6.256   1.962  0.0605 -0.0497  0.5762
    3OL     C1217103   3.755   6.243   2.129  0.2611 -0.1179  0.0365
    3OL     H2R17104   3.795   6.333   2.083 -0.1220 -0.8780 -1.8819
    3OL     H2S17105   3.827   6.162   2.122 -0.7120 -0.9437 -0.7963
    3OL     C1317106   3.714   6.269   2.275  0.0359 -0.0521 -0.0379
    3OL     H3R17107   3.802   6.291   2.335 -0.9142  1.8957  0.7279
    3OL     H3S17108   3.664   6.183   2.318  2.4646 -2.1217 -1.1008
    3OL     C1417109   3.623   6.393   2.280  0.0056 -0.0608 -0.3293
    3OL     H4R17110   3.535   6.380   2.217  0.5815  1.6057 -1.5430
    3OL     H4S17111   3.672   6.481   2.238  1.5917 -0.7414  0.0115
    3OL     C1517112   3.569   6.414   2.423  0.8553  0.3205 -0.0613
    3OL     H5R17113   3.514   6.328   2.461 -1.5295  1.0953 -1.5687
    3OL     H5S17114   3.499   6.497   2.413  1.3239  0.8766  1.1078
    3OL     C1617115   3.672   6.440   2.534  0.5097 -0.1748  0.3750
    3OL     H6R17116   3.739   6.523   2.511 -1.2733  0.2446 -4.4363
    3OL     H6S17117   3.728   6.348   2.552 -1.1697 -0.6840  4.0291
    3OL     C1717118   3.591   6.472   2.661  0.3135 -0.8004  0.4163
    3OL     H7R17119   3.527   6.387   2.681  0.8669 -2.1056 -2.7783
    3OL     H7S17120   3.522   6.556   2.656 -0.8683 -1.7748 -0.0561
    3OL     C1817121   3.678   6.514   2.781  0.2917 -0.1365  0.2038
    3OL     H8R17122   3.771   6.458   2.780  1.2077  1.2934 -1.6279
    3OL     H8S17123   3.619   6.497   2.871  0.7127  1.5135  0.8295
    3OL     C1917124   3.718   6.657   2.752 -0.3776  0.0544  0.2048
    3OL     H9R17125   3.770   6.674   2.659 -0.9692 -2.8317 -0.7609
    3OL    C11017126   3.679   6.763   2.821 -0.8149  0.1386 -0.1669
    3OL    H10R17127   3.711   6.859   2.780  0.4363 -1.0343 -2.0489
    3OL    C11117128   3.587   6.770   2.940  0.1913  0.3977  0.6150
    3OL    H11R17129   3.498   6.711   2.916 -0.2968 -0.0903  3.3170
    3OL    H11S17130   3.550   6.870   2.963 -0.0466  0.6257 -0.6944
    3OL    C11217131   3.656   6.714   3.065  0.2001 -0.2981  0.3019
    3OL    H12R17132   3.708   6.621   3.040 -0.2041 -0.2246 -0.9000
    3OL    H12S17133   3.577   6.695   3.138 -2.3849  1.3312 -1.8881
    3OL    C11317134   3.758   6.810   3.128  0.2168 -0.5125  0.6057
    3OL    H13R17135   3.709   6.908   3.131 -1.7057 -1.3314 -1.2319
    3OL    H13S17136   3.855   6.821   3.079 -1.0775  0.4955 -1.9113
    3OL    C11417137   3.772   6.766   3.274  0.0946  0.0276  0.7839
    3OL    H14R17138   3.780   6.657   3.276  0.3883 -0.0429 -1.6640
    3OL    H14S17139   3.675   6.773   3.323 -2.1065 -0.5171 -3.1352
    3OL    C11517140   3.879   6.847   3.349  0.2153 -0.0506  0.6976
    3OL    H15R17141   3.964   6.880   3.290 -0.6990  0.8244 -0.1699
    3OL    H15S17142   3.921   6.788   3.430 -0.6121 -1.9023 -0.1626
    3OL    C11617143   3.811   6.964   3.421  0.0677  0.5698 -0.4335
    3OL    H16R17144   3.725   6.933   3.480  1.2372  1.2443  1.7266
    3OL    H16S17145   3.774   7.029   3.341 -1.1144  0.8812  0.3387
    3OL    C11717146   3.911   7.052   3.497 -0.1629  0.3894  0.0821
    3OL    H17R17147   3.988   7.071   3.422 -1.4544  3.1381 -0.6975
    3OL    H17S17148   3.948   6.988   3.577 -0.4714 -0.6878 -0.6244
    3OL    C11817149   3.836   7.174   3.553 -0.2263  0.2551  0.2923
    3OL    H18R17150   3.902   7.245   3.604  2.2500 -1.9737  0.4139
    3OL    H18S17151   3.766   7.139   3.629 -1.3003  1.2649 -0.2012
    3OL    H18T17152   3.783   7.222   3.471 -1.6880 -0.7361  0.6271
    4SOL     OW17153   4.913   3.847   5.939  0.2311  0.1042 -0.6272
    4SOL    HW117154   4.967   3.781   5.984 -0.3403 -0.5390 -0.8630
    4SOL    HW217155   4.923   3.826   5.846 -0.3521  0.0369 -0.6741
    5SOL     OW17156   5.655   3.996   1.016 -0.0040  0.6395 -0.0062
    5SOL    HW117157   5.747   3.970   1.021 -0.0249  0.5526 -0.0746
    5SOL    HW217158   5.646   4.034   0.928 -0.3663 -0.6324 -0.5398
    6SOL     OW17159   6.513   3.075   0.858 -0.1265 -0.1962  0.5563
    6SOL    HW117160   6.584   3.054   0.797  0.7724 -0.0918  1.5333
    6SOL    HW217161   6.554   3.069   0.945 -1.7378 -1.8366  1.2597
    7SOL     OW17162   2.443   0.314   1.788 -0.1007  0.0520 -0.0437
    7SOL    HW117163   2.528   0.357   1.777 -0.0575 -0.5467 -2.8776
    7SOL    HW217164   2.465   0.227   1.821  0.2176  0.4822  0.9111
    8SOL     OW17165   3.956   5.152   7.333  0.1804 -0.5788  0.1525
    8SOL    HW117166   3.932   5.210   7.405 -0.3184 -1.5274  0.7690
    8SOL    HW217167   3.967   5.066   7.374 -0.3097 -1.1737 -0.9271
    9SOL     OW17168   5.445   1.655   6.884  0.6481 -0.4217  0.0269
    9SOL    HW117169   5.510   1.694   6.826 -1.9687  1.6562 -1.7947
    9SOL    HW217170   5.398   1.593   6.828  0.5410 -1.3208  1.0850
   10SOL     OW17171   6.014   4.266   6.086  0.1507 -0.0286  0.3448
   10SOL    HW117172   6.063   4.265   6.168  0.0322 -0.2138  0.4121
   10SOL    HW217173   5.984   4.176   6.073  0.4902 -0.0836 -0.0961
   11SOL     OW17174   3.970   3.795   7.243  0.1257 -0.0868  0.4802
   11SOL    HW117175   4.039   3.744   7.202  1.1705  0.5173  1.4348
   11SOL    HW217176   3.983   3.783   7.337 -0.8874  0.2774  0.6906
   12SOL     OW17177   0.208   4.568   4.801 -0.8335 -0.4742  0.0674
   12SOL    HW117178   0.302   4.548   4.808 -1.1648 -1.9939  0.6277
   12SOL    HW217179   0.187   4.611   4.884 -0.8875 -1.3841  0.5471
   13SOL     OW17180   1.643   5.821   5.383  0.1188  0.1050  0.1331
   13SOL    HW117181   1.691   5.866   5.313 -0.0690 -1.7557 -1.2880
   13SOL    HW217182   1.691   5.739   5.396 -1.1931 -0.6287  0.5117
   14SOL     OW17183   0.636   2.676   0.888  0.1874 -0.0170  0.2158
   14SOL    HW117184   0.614   2.585   0.868 -0.2218  0.4106 -1.4132
   14SOL    HW217185   0.731   2.680   0.877  0.1102 -0.0770 -0.5752
   15SOL     OW17186   2.648   4.841   1.348  0.1107  0.7448 -0.2899
   15SOL    HW117187   2.676   4.798   1.267 -2.3185 -0.0213 -0.8103
   15SOL    HW217188   2.706   4.805   1.416 -0.4416 -1.7664 -1.0611
   16SOL     OW17189   0.532   4.325   2.053  0.1166 -0.1170  0.3656
   16SOL    HW117190   0.518   4.231   2.066 -0.1545 -0.1832 -0.3513
   16SOL    HW217191   0.495   4.365   2.132  1.5155 -0.6833  1.3442
   17SOL     OW17192   1.527   3.295   6.321 -0.2092  0.1071 -0.3374
   17SOL    HW117193   1.437   3.303   6.353  0.0845  0.3627  0.4530
   17SOL    HW217194   1.531   3.208   6.282 -0.5489 -0.2784  0.4643
   18SOL     OW17195   5.403   3.063   0.390  0.2874  0.1410 -0.1358
   18SOL    HW117196   5.415   2.988   0.449  0.2209  1.0123  1.0381
   18SOL    HW217197   5.311   3.087   0.400  0.0565 -0.2215 -1.2715
   19SOL     OW17198   5.036   3.786   0.199  0.3316 -0.1823  0.2199
   19SOL    HW117199   5.014   3.834   0.279  0.1175  1.9192 -1.0268
   19SOL    HW217200   5.059   3.698   0.229 -1.1012  0.1229  2.4448
   20SOL     OW17201   3.646   1.240   5.513  0.4670 -0.1647 -0.1187
   20SOL    HW117202   3.619   1.229   5.422 -1.0344  3.1987 -0.2090
   20SOL    HW217203   3.727   1.290   5.508  1.3102 -1.4044  0.4415
   21SOL     OW17204   4.897   5.861   5.074 -0.6342  0.2613 -0.9315
   21SOL    HW117205   4.991   5.849   5.091 -0.9226  0.4745  1.0837
   21SOL    HW217206   4.890   5.862   4.979  1.2294 -1.1547 -1.1493
   22SOL     OW17207   2.110   4.586   0.991 -0.2281  0.2455 -0.1684
   22SOL    HW117208   2.129   4.648   1.062 -1.5379  2.9567 -2.0038
   22SOL    HW217209   2.190   4.586   0.938 -0.7767  1.8272 -1.0826
   23SOL     OW17210   2.477   5.439   6.166 -0.2363  0.4892 -0.6053
   23SOL    HW117211   2.454   5.401   6.082 -2.6486 -0.9606  0.5889
   23SOL    HW217212   2.410   5.505   6.182  0.3996  0.9998  0.0393
   24SOL     OW17213   0.397   1.445   0.858  0.0028  0.4967  0.0140
   24SOL    HW117214   0.399   1.527   0.907  0.1977  0.9305 -0.7221
   24SOL    HW217215   0.469   1.393   0.896 -0.1642  0.6263  0.5239
   25SOL     OW17216   5.314   5.142   2.303 -0.0616  0.8024 -0.1761
   25SOL    HW117217   5.281   5.208   2.243  0.7715  0.8871 -0.5623
   25SOL    HW217218   5.324   5.064   2.248  0.6293  0.8591 -0.1401
   26SOL     OW17219   5.563   4.316   0.514 -0.7564 -0.3439 -0.2746
   26SOL    HW117220   5.571   4.398   0.562 -0.6616 -0.3706 -0.2452
   26SOL    HW217221   5.653   4.291   0.494 -0.6862 -1.2206  1.0390
   27SOL     OW17222   0.693   0.115   0.663 -0.1430  0.6042 -0.3985
   27SOL    HW117223   0.742   0.192   0.635 -0.7025  0.7537 -0.9997
   27SOL    HW217224   0.717   0.047   0.601 -2.2673  1.2467 -2.0449
   28SOL     OW17225   1.867   1.512   0.953 -0.0449 -0.0865 -0.0703
   28SOL    HW117226   1.842   1.469   1.035  0.7722 -0.1748  0.1387
   28SOL    HW217227   1.959   1.533   0.964  0.0282  0.0600 -0.9038
   29SOL     OW17228   2.096   0.140   1.071 -0.5356 -0.7472  0.6399
   29SOL    HW117229   2.161   0.210   1.078  0.4365 -1.4853 -0.5635
   29SOL    HW217230   2.123   0.075   1.136 -0.0713 -1.0357  0.1682
   30SOL     OW17231   3.250   2.203   1.395 -0.1841  0.1840 -0.1579
   30SOL    HW117232   3.316   2.145   1.359 -0.4929 -1.4330  1.6876
   30SOL    HW217233   3.283   2.227   1.482 -1.5127  0.1358  0.3996
   31SOL     OW17234   6.000   1.937   0.688  0.2887 -0.0886  0.1591
   31SOL    HW117235   6.013   1.857   0.739  0.6095  2.1755  4.0098
   31SOL    HW217236   6.019   2.008   0.749 -1.5800  3.0256 -2.5513
   32SOL     OW17237   1.351   6.566   6.354 -0.4456  0.1670 -0.4910
   32SOL    HW117238   1.342   6.565   6.450  1.3487 -3.0636 -0.2115
   32SOL    HW217239   1.420   6.632   6.338  0.2746 -0.2816  0.6190
   33SOL     OW17240   5.792   2.002   7.483  0.4902  0.8222 -0.0501
   33SOL    HW117241   5.776   2.046   7.399 -0.0468  0.5313 -0.1102
   33SOL    HW217242   5.875   1.956   7.471 -0.3569 -0.5686 -1.0207
   34SOL     OW17243   6.401   2.528   7.352 -0.2865  0.5691 -0.1501
   34SOL    HW117244   6.470   2.540   7.286 -0.7745  0.2256 -0.7372
   34SOL    HW217245   6.371   2.616   7.372 -0.3001  0.6673 -0.5845
   35SOL     OW17246   1.906   0.107   0.286 -0.4709  0.1555  0.9377
   35SOL    HW117247   1.924   0.028   0.337  0.4076  1.1588  2.2314
   35SOL    HW217248   1.959   0.175   0.327 -0.3800  1.2022 -0.8117
   36SOL     OW17249   2.010   1.176   1.705 -0.0645  0.1886  0.6259
   36SOL    HW117250   1.950   1.132   1.765  1.5243 -1.2477  1.2739
   36SOL    HW217251   2.094   1.132   1.720  1.1378  2.0533 -0.2848
   37SOL     OW17252   4.292   1.529   5.805 -0.1358  0.5087 -0.2843
   37SOL    HW117253   4.199   1.525   5.783 -0.3748 -2.3655  0.7070
   37SOL    HW217254   4.296   1.505   5.898  1.5285  2.0656  0.1132
   38SOL     OW17255   2.377   0.947   1.090 -1.0985 -0.5318 -0.1390
   38SOL    HW117256   2.403   0.951   0.998 -0.3046 -1.4023  0.0233
   38SOL    HW217257   2.292   0.990   1.093 -0.8379  0.0974 -1.1602
   39SOL     OW17258   0.841   3.667   6.889 -0.1457 -0.1855 -0.4698
   39SOL    HW117259   0.928   3.629   6.877  0.3097  0.1737  1.3710
   39SOL    HW217260   0.782   3.611   6.838  0.9443 -1.4100 -0.4116
   40SOL     OW17261   3.533   2.580   7.201  0.5270 -0.2721  0.3076
   40SOL    HW117262   3.507   2.581   7.109 -1.4073 -0.2596  0.8103
   40SOL    HW217263   3.611   2.525   7.203 -0.1456 -1.3569 -1.1662
   41SOL     OW17264   4.977   3.855   0.466 -0.1963 -0.0272 -0.0385
   41SOL    HW117265   4.893   3.813   0.455 -1.4406  2.2786 -0.0342
   41SOL    HW217266   4.987   3.864   0.561  0.5597 -1.1858  0.0077
   42SOL     OW17267   0.431   0.690   6.354 -0.3444  0.2559  0.1489
   42SOL    HW117268   0.494   0.762   6.362  0.3596 -0.3650  0.3177
   42SOL    HW217269   0.452   0.631   6.426 -0.9605 -0.0898  0.0560
   43SOL     OW17270   2.227   5.877   5.878  0.4838  0.1444  0.6439
   43SOL    HW117271   2.246   5.954   5.824 -2.0302 -0.6102 -1.5670
   43SOL    HW217272   2.312   5.836   5.893  1.5548  1.7764 -0.5958
   44SOL     OW17273   3.873   3.350   1.402  0.3972 -0.8441  0.6186
   44SOL    HW117274   3.891   3.382   1.490  1.8182  0.7203 -0.1608
   44SOL    HW217275   3.938   3.282   1.387  1.6147  0.3721  0.0807
   45SOL     OW17276   3.798   6.560   7.468 -0.1268 -0.4786  0.0226
   45SOL    HW117277   3.832   6.620   7.401  2.4791 -0.6331  1.0822
   45SOL    HW217278   3.834   6.593   7.550 -1.4995 -1.5328  1.0905
   46SOL     OW17279   2.595   6.145   6.522  0.9620  0.2272  0.1549
   46SOL    HW117280   2.641   6.100   6.592  1.0055 -3.4509 -1.9964
   46SOL    HW217281   2.658   6.149   6.450 -0.1810  0.5864 -0.8629
   47SOL     OW17282   2.375   2.249   0.553  0.8617 -0.2782 -0.1116
   47SOL    HW117283   2.286   2.214   0.540  0.1150  1.2943  0.5402
   47SOL    HW217284   2.361   2.335   0.593  2.6782  0.2972 -0.6529
   48SOL     OW17285   2.509   1.819   6.349  0.1034  0.6055 -0.0217
   48SOL    HW117286   2.543   1.831   6.260  2.0437 -0.0037  0.6021
   48SOL    HW217287   2.491   1.908   6.380 -0.1265  0.8487 -0.8326
   49SOL     OW17288   5.082   5.267   6.169 -0.4188 -0.0234 -0.2913
   49SOL    HW117289   5.093   5.200   6.102 -0.3203 -0.6697  0.3528
   49SOL    HW217290   5.158   5.256   6.226 -0.8007  0.1204  0.2526
   50SOL     OW17291   6.057   1.135   0.188 -0.5182 -0.4752  0.0744
   50SOL    HW117292   6.143   1.154   0.228 -0.2902  1.6499 -1.3025
   50SOL    HW217293   5.994   1.150   0.259 -0.0253  2.0275  0.0610
   51SOL     OW17294   1.655   1.697   1.924  0.0569  0.2364 -0.0684
   51SOL    HW117295   1.666   1.699   2.019  0.9990  1.5624 -0.1740
   51SOL    HW217296   1.729   1.747   1.890 -1.3899  1.6455 -1.3774
   52SOL     OW17297   1.456   2.275   6.264 -0.0816  0.7156  0.0179
   52SOL    HW117298   1.530   2.318   6.221  2.1997  0.1184  2.9927
   52SOL    HW217299   1.410   2.345   6.309 -1.2187  1.0342 -1.5447
   53SOL     OW17300   3.153   5.278   6.777  0.2323  0.4383 -0.2764
   53SOL    HW117301   3.146   5.359   6.828 -0.2231 -0.2964  0.8672
   53SOL    HW217302   3.129   5.305   6.688  0.0126  1.5475  0.0904
   54SOL     OW17303   3.233   2.377   6.448  0.1438  0.0779 -0.0423
   54SOL    HW117304   3.219   2.287   6.478  0.7049  0.3042  0.9475
   54SOL    HW217305   3.147   2.418   6.454  0.0468 -0.1713  0.2867
   55SOL     OW17306   2.664   4.467   5.451 -0.2877  0.1724 -0.2156
   55SOL    HW117307   2.629   4.552   5.425 -1.7709 -0.8165 -1.5960
   55SOL    HW217308   2.593   4.425   5.499 -0.0745 -0.8363 -0.7555
   56SOL     OW17309   5.984   0.003   7.194 -0.3902  0.5980 -0.0491
   56SOL    HW117310   6.010  -0.033   7.278  2.1488  2.5014  0.1124
   56SOL    HW217311   5.933   0.081   7.216 -0.7539  0.4365 -0.3063
   57SOL     OW17312   6.140   3.578   0.675 -0.2642 -0.2560 -0.2562
   57SOL    HW117313   6.089   3.508   0.717 -1.9931  0.8284 -0.4496
   57SOL    HW217314   6.202   3.532   0.619 -1.8359 -1.6613 -0.9335
   58SOL     OW17315   1.454   2.501   7.041  0.0007  0.4328 -0.7765
   58SOL    HW117316   1.485   2.574   7.095  0.1329  0.4304 -0.8497
   58SOL    HW217317   1.533   2.462   7.005 -0.0688  0.2403 -0.7237
   59SOL     OW17318   1.115   1.177   6.415  0.3458  0.2211  0.5555
   59SOL    HW117319   1.134   1.123   6.338 -0.2046 -0.1225  0.6552
   59SOL    HW217320   1.155   1.129   6.488  0.1185  0.0978  0.6014
   60SOL     OW17321   0.732   4.155   0.552 -0.4820 -0.1771  0.4670
   60SOL    HW117322   0.642   4.187   0.547  0.3987  2.3846 -0.6709
   60SOL    HW217323   0.731   4.071   0.507 -2.4403 -0.6196  1.2548
   61SOL     OW17324   2.207   1.029   1.823  0.3090  0.6475  0.1396
   61SOL    HW117325   2.167   0.958   1.874 -1.4621  2.2369  1.0612
   61SOL    HW217326   2.248   0.984   1.749 -2.8861 -1.1967 -0.7140
   62SOL     OW17327   4.116   2.478   1.103  0.1730 -0.3876  0.1808
   62SOL    HW117328   4.147   2.437   1.184 -0.4146 -0.2310  0.4932
   62SOL    HW217329   4.040   2.530   1.130  0.2159 -0.0114 -0.4049
   63SOL     OW17330   3.634   3.944   1.617  0.5285  0.1752 -1.0882
   63SOL    HW117331   3.597   4.031   1.623  1.0391  0.3449 -0.0684
   63SOL    HW217332   3.729   3.958   1.616  0.6938 -0.4127  1.1048
   64SOL     OW17333   1.071   3.068   0.073 -0.2092 -0.1202  0.0913
   64SOL    HW117334   1.065   2.973   0.075  0.1459 -0.1611 -0.5538
   64SOL    HW217335   1.151   3.088   0.122 -0.6296 -0.1098  0.7858
   65SOL     OW17336   2.672   3.201   1.812  0.2485 -0.1488 -0.4067
   65SOL    HW117337   2.638   3.120   1.773  1.5323 -0.2225 -1.4357
   65SOL    HW217338   2.648   3.194   1.905 -0.2101 -1.4131 -0.5935
   66SOL     OW17339   4.755   5.542   5.953 -0.2363  0.0844  0.7388
   66SOL    HW117340   4.696   5.552   5.878 -0.4431  0.0663  0.8982
   66SOL    HW217341   4.742   5.621   6.005 -0.1404  0.0675  0.7883
   67SOL     OW17342   3.840   4.151   6.118  0.1990 -0.1425 -0.2931
   67SOL    HW117343   3.796   4.091   6.059  0.3465  0.1404 -0.7007
   67SOL    HW217344   3.785   4.229   6.119 -0.2680 -0.4655  0.6445
   68SOL     OW17345   2.721   2.543   6.626  0.6002 -0.8550 -0.0587
   68SOL    HW117346   2.775   2.620   6.642  0.7161 -0.3564 -2.4345
   68SOL    HW217347   2.723   2.494   6.708  2.0190  0.7493  0.9198
   69SOL     OW17348   1.697   1.972   6.421 -0.6289 -0.2274 -0.1748
   69SOL    HW117349   1.773   2.014   6.380  0.3763  0.2167  1.9620
   69SOL    HW217350   1.729   1.886   6.448 -0.9901 -0.2051  0.3514
   70SOL     OW17351   4.724   4.962   0.946  0.0918  0.1217 -0.2649
   70SOL    HW117352   4.672   4.906   0.888  0.4233  0.6439 -1.0813
   70SOL    HW217353   4.806   4.976   0.898  0.1011  1.1256  0.0179
   71SOL     OW17354   3.772   0.665   6.077 -0.4110 -0.3895  0.0127
   71SOL    HW117355   3.741   0.729   6.013 -0.4917 -1.7228 -1.3186
   71SOL    HW217356   3.867   0.674   6.075 -0.4026 -0.5540 -0.4309
   72SOL     OW17357   0.072   0.779   6.056  0.0974 -0.4671 -0.7520
   72SOL    HW117358  -0.012   0.734   6.050 -0.4843  0.4242  0.3929
   72SOL    HW217359   0.123   0.726   6.118 -1.2958  1.3886  2.1888
   73SOL     OW17360   0.410   6.126   6.451 -0.7838 -0.3703 -0.0901
   73SOL    HW117361   0.462   6.141   6.531 -1.2101  2.9459 -0.2726
   73SOL    HW217362   0.325   6.095   6.483 -0.3280 -0.9762  0.5678
   74SOL     OW17363   3.229   2.118   6.531 -0.2683  0.0872  0.1999
   74SOL    HW117364   3.195   2.030   6.517 -0.6716  0.1853  0.5574
   74SOL    HW217365   3.198   2.143   6.618 -0.0842  0.5512  0.1380
   75SOL     OW17366   1.088   5.966   0.483  0.4999 -0.1074  0.1968
   75SOL    HW117367   1.112   5.912   0.559  0.7033 -1.4343 -0.7729
   75SOL    HW217368   1.083   6.055   0.518 -1.5800 -0.9295  2.2530
   76SOL     OW17369   0.195   6.043   0.772  0.0564  0.4716 -0.1446
   76SOL    HW117370   0.189   6.043   0.867 -1.4976  0.0840 -0.2157
   76SOL    HW217371   0.202   6.136   0.749  1.8712  0.4985  0.3837
   77SOL     OW17372   1.916   3.983   6.723  0.1712  0.4186  0.6881
   77SOL    HW117373   1.934   4.076   6.740  0.7628  0.2022  1.2753
   77SOL    HW217374   1.820   3.977   6.727  0.1170  1.0432  0.4313
   78SOL     OW17375   3.850   1.793   2.101  0.7012 -0.2066 -0.5398
   78SOL    HW117376   3.868   1.758   2.188  1.2208  0.7230 -0.2568
   78SOL    HW217377   3.761   1.827   2.106  0.5541 -0.5946 -0.5207
   79SOL     OW17378   4.056   1.467   0.354  0.1564 -0.0573  0.6529
   79SOL    HW117379   3.997   1.429   0.419 -0.6999  2.1121  1.2274
   79SOL    HW217380   3.998   1.511   0.292  1.0804  0.1113 -0.1106
   80SOL     OW17381   6.236   1.042   6.679 -0.5393  0.1751 -0.6892
   80SOL    HW117382   6.327   1.057   6.653  0.0692  1.2897  1.8605
   80SOL    HW217383   6.230   0.947   6.690  0.3036  0.0900 -0.9177
   81SOL     OW17384   2.046   4.439   5.458 -0.1993  0.8859 -0.6241
   81SOL    HW117385   2.001   4.424   5.542 -0.5154  0.8353 -0.8005
   81SOL    HW217386   2.080   4.528   5.465  1.5156  0.2046  0.3533
   82SOL     OW17387   0.863   4.041   6.951  0.6217 -0.3088  0.1786
   82SOL    HW117388   0.938   4.054   6.893  1.2174 -1.9065  0.5517
   82SOL    HW217389   0.788   4.033   6.892  0.9015  0.1638 -0.2541
   83SOL     OW17390   0.920   4.840   5.648  0.1825 -0.5715 -0.3001
   83SOL    HW117391   1.006   4.828   5.608 -0.5223 -1.9461 -1.4961
   83SOL    HW217392   0.858   4.838   5.574 -0.8345  1.3863  0.4139
   84SOL     OW17393   6.233   6.088   5.793  0.0508 -0.2950  0.4296
   84SOL    HW117394   6.139   6.099   5.779 -0.3547 -1.5177  1.8498
   84SOL    HW217395   6.250   5.997   5.768  0.8290 -0.1185  0.3057
   85SOL     OW17396   3.620   0.982   0.572  0.5065 -0.1449  0.1468
   85SOL    HW117397   3.599   1.075   0.574  0.4687 -0.1378 -0.3955
   85SOL    HW217398   3.557   0.944   0.511 -1.5241 -1.0765  2.6182
   86SOL     OW17399   5.130   6.596   6.913 -0.1159  0.0325 -0.5898
   86SOL    HW117400   5.164   6.677   6.875  0.1052 -1.0715 -2.9297
   86SOL    HW217401   5.060   6.570   6.853 -0.6175 -1.1778  0.4936
   87SOL     OW17402   5.117   3.664   6.008 -0.4691 -0.3968 -0.7955
   87SOL    HW117403   5.176   3.716   5.953  0.9871 -0.4342  0.6588
   87SOL    HW217404   5.172   3.595   6.044 -1.6016 -0.9026  0.0166
   88SOL     OW17405   5.415   0.434   0.705  0.2226 -0.3512  0.1164
   88SOL    HW117406   5.491   0.386   0.739  2.1720  2.2067 -0.2833
   88SOL    HW217407   5.418   0.420   0.611  0.3646 -0.0344  0.0732
   89SOL     OW17408   5.151   3.333   7.471  0.3395  0.4267 -0.3000
   89SOL    HW117409   5.069   3.283   7.480  0.1625  0.0176 -3.1881
   89SOL    HW217410   5.211   3.291   7.532 -1.4151  0.3988  1.5169
   90SOL     OW17411   2.463   3.121   5.190  0.0138 -0.1972 -0.5306
   90SOL    HW117412   2.546   3.082   5.163 -0.3416 -2.6678  1.6299
   90SOL    HW217413   2.487   3.184   5.258  0.1291 -1.3374  0.5172
   91SOL     OW17414   2.034   1.762   0.535 -0.3883  0.0117 -0.7400
   91SOL    HW117415   2.063   1.842   0.579  0.4871 -1.2276  1.0334
   91SOL    HW217416   2.103   1.744   0.471  0.1081 -0.0514 -0.1960
   92SOL     OW17417   1.720   2.674   7.059 -1.0196 -0.0280  0.2202
   92SOL    HW117418   1.658   2.739   7.026 -0.7037 -0.1926 -0.7589
   92SOL    HW217419   1.733   2.696   7.151 -1.2723  1.0029  0.0200
   93SOL     OW17420   1.988   5.103   6.945  0.0882  0.9205 -0.3594
   93SOL    HW117421   1.928   5.090   7.018  0.0122  0.7681 -0.4477
   93SOL    HW217422   2.068   5.138   6.985  0.2062  0.4125 -0.1494
   94SOL     OW17423   6.554   0.771   1.005  0.4035 -0.7348  0.7810
   94SOL    HW117424   6.500   0.761   1.083 -2.4038  0.3360 -0.8748
   94SOL    HW217425   6.492   0.772   0.932  2.3157  3.0874 -1.1390
   95SOL     OW17426   0.889   3.284   0.167  0.1518 -0.3706  0.0633
   95SOL    HW117427   0.927   3.283   0.255 -1.9811 -1.1837  1.0699
   95SOL    HW217428   0.912   3.199   0.130  1.6330  0.2370 -0.4770
   96SOL     OW17429   3.459   2.219   0.530  0.1340 -0.8829  0.0409
   96SOL    HW117430   3.382   2.270   0.505  0.6046 -0.3579 -0.3612
   96SOL    HW217431   3.425   2.132   0.551 -0.6275 -0.5206  0.3289
   97SOL     OW17432   3.530   5.678   1.436  0.8541  0.1400  0.0537
   97SOL    HW117433   3.475   5.616   1.483  1.7709 -0.1657  0.7473
   97SOL    HW217434   3.562   5.738   1.503 -1.3878  2.5029 -0.8232
   98SOL     OW17435   5.539   3.005   2.381 -0.1164  0.4156  0.2981
   98SOL    HW117436   5.623   3.027   2.422 -0.8804  1.5747  1.2879
   98SOL    HW217437   5.553   2.917   2.345  0.8774 -0.3221  2.2937
   99SOL     OW17438   4.010   5.649   6.539  0.1828  0.1424 -0.5220
   99SOL    HW117439   4.030   5.678   6.628 -1.1173 -2.2011  0.6062
   99SOL    HW217440   3.915   5.653   6.533  0.2429  0.0456 -1.7498
  100SOL     OW17441   0.164   2.989   0.747 -0.6334  0.3832 -0.1253
  100SOL    HW117442   0.212   3.006   0.666  0.9392 -1.9259  0.2335
  100SOL    HW217443   0.213   3.035   0.815 -0.3207  0.0295 -0.1071
  101SOL     OW17444   2.576   1.337   0.334 -0.0873  0.1190 -0.3606
  101SOL    HW117445   2.597   1.248   0.305  1.4533  0.8478 -1.6837
  101SOL    HW217446   2.516   1.370   0.268  1.4732  0.9388 -1.4316
  102SOL     OW17447   0.266   4.613   5.318 -0.3346 -0.7164 -0.9553
  102SOL    HW117448   0.310   4.684   5.363  0.1984 -0.1120 -2.3555
  102SOL    HW217449   0.224   4.562   5.387  0.8566 -0.1299  0.2371
  103SOL     OW17450   4.235   6.156   0.070 -0.2099  0.4313 -0.2575
  103SOL    HW117451   4.275   6.097   0.135 -1.2435 -0.8896 -0.7662
  103SOL    HW217452   4.229   6.103  -0.009 -0.5224  1.4799 -0.9479
  104SOL     OW17453   2.972   0.324   6.099  0.2068  0.3817 -0.0469
  104SOL    HW117454   2.959   0.286   6.186 -1.7194  0.2027 -0.3822
  104SOL    HW217455   3.035   0.396   6.114  0.1344  0.1694  1.4276
  105SOL     OW17456   3.131   3.608   1.420 -0.2677 -0.0418  0.2531
  105SOL    HW117457   3.188   3.668   1.468  0.6536 -2.8895  3.0616
  105SOL    HW217458   3.057   3.593   1.479 -1.0712 -0.7864 -0.8927
  106SOL     OW17459   6.282   4.908   0.039  0.1862 -0.2989 -0.2585
  106SOL    HW117460   6.316   4.976   0.098 -1.6910  0.6029 -0.1381
  106SOL    HW217461   6.264   4.955  -0.043  0.9876 -1.1519 -0.9428
  107SOL     OW17462   3.721   5.893   0.376 -0.2622  0.1384 -0.3629
  107SOL    HW117463   3.746   5.907   0.468 -2.9558 -4.0141  1.3304
  107SOL    HW217464   3.793   5.841   0.340 -0.5621 -0.8951  0.4656
  108SOL     OW17465   0.856   2.027   0.154 -0.1767  0.3821  0.7172
  108SOL    HW117466   0.916   2.067   0.090  0.9587 -3.4096 -0.8715
  108SOL    HW217467   0.814   1.956   0.106 -1.3047 -1.0003  3.5284
  109SOL     OW17468   0.074   6.074   1.391  0.1927  0.4111  0.0272
  109SOL    HW117469   0.150   6.079   1.332  1.4633  1.8578  1.6653
  109SOL    HW217470   0.110   6.038   1.472 -0.6649  1.8459  1.0901
  110SOL     OW17471   5.232   3.906   1.720  0.2615  0.2017 -0.1260
  110SOL    HW117472   5.267   3.944   1.800  1.1111  1.9249 -1.2466
  110SOL    HW217473   5.268   3.817   1.717 -1.9500 -0.9508  2.6882
  111SOL     OW17474   3.270   3.505   0.160  0.5931 -0.2208  0.9561
  111SOL    HW117475   3.200   3.534   0.219 -0.8843 -2.2558  0.3038
  111SOL    HW217476   3.301   3.423   0.199  0.0263 -1.2693 -0.6866
  112SOL     OW17477   1.410   1.901   1.140 -0.0260  0.5965 -0.1295
  112SOL    HW117478   1.476   1.848   1.184 -0.2142  0.4908  0.0256
  112SOL    HW217479   1.448   1.920   1.054  0.4393  0.9930  0.1530
  113SOL     OW17480   2.155   3.399   0.449  0.2096  0.3543 -0.0511
  113SOL    HW117481   2.186   3.460   0.382  0.0777  0.2277 -0.2296
  113SOL    HW217482   2.218   3.327   0.446  0.5522  0.6262  0.3850
  114SOL     OW17483   2.565   5.756   6.970  0.1749  0.3537 -0.0456
  114SOL    HW117484   2.549   5.829   7.029  2.1748  0.1120  0.8691
  114SOL    HW217485   2.631   5.788   6.909 -0.6796  0.0647 -1.1553
  115SOL     OW17486   5.273   2.307   0.385 -0.0040  0.9023  0.9290
  115SOL    HW117487   5.180   2.319   0.368 -0.2358 -0.9373  0.6358
  115SOL    HW217488   5.277   2.253   0.464  0.7902  0.5590  0.6709
  116SOL     OW17489   4.952   3.646   6.827 -0.8439 -0.3774  0.4297
  116SOL    HW117490   4.955   3.604   6.741 -0.1493 -0.9114  0.7089
  116SOL    HW217491   4.859   3.644   6.851 -0.6894 -3.1595  1.0981
  117SOL     OW17492   3.917   2.158   5.786 -0.1445 -0.9039  0.2086
  117SOL    HW117493   3.904   2.186   5.695 -2.6289 -1.0927  0.4395
  117SOL    HW217494   4.011   2.169   5.801  0.5835 -2.0333 -2.7449
  118SOL     OW17495   4.325   3.965   0.110  0.3237 -0.1476  0.3891
  118SOL    HW117496   4.373   4.010   0.040 -1.0362  2.0596  0.7938
  118SOL    HW217497   4.327   4.026   0.184 -1.0713 -1.0271  1.1915
  119SOL     OW17498   2.955   3.543   7.222  0.2463  0.1081 -0.4343
  119SOL    HW117499   3.042   3.571   7.194  1.5867 -2.2898  1.0475
  119SOL    HW217500   2.907   3.527   7.141  2.4033 -1.9928 -1.3763
  120SOL     OW17501   4.477   0.775   6.939 -0.3929  0.4132 -0.5193
  120SOL    HW117502   4.551   0.817   6.981  1.9330 -0.7175 -3.2053
  120SOL    HW217503   4.421   0.847   6.910 -0.2807  1.2947  1.3190
  121SOL     OW17504   3.740   0.088   5.790  0.3569  0.9111  0.0755
  121SOL    HW117505   3.803   0.097   5.718  0.2512 -0.2989 -0.1954
  121SOL    HW217506   3.769   0.010   5.837 -0.8171  0.4461  0.0598
  122SOL     OW17507   6.232   4.610   6.678 -0.2810  0.1508  0.3448
  122SOL    HW117508   6.151   4.588   6.725 -0.9050 -0.4994 -0.9704
  122SOL    HW217509   6.293   4.541   6.703 -1.0953 -1.1009 -0.9354
  123SOL     OW17510   1.065   2.186   1.194 -0.0317 -0.1358  0.4314
  123SOL    HW117511   0.977   2.211   1.223 -0.6728 -1.0188 -0.6723
  123SOL    HW217512   1.066   2.208   1.101  1.5316  1.4656  0.7786
  124SOL     OW17513   2.946   0.440   2.025 -0.9585 -0.3607  0.3570
  124SOL    HW117514   2.918   0.357   1.985 -0.3848 -0.6064  0.4624
  124SOL    HW217515   3.034   0.422   2.059 -1.2331 -0.0151  1.2929
  125SOL     OW17516   6.161   2.660   1.095  0.2026 -0.0137 -0.0979
  125SOL    HW117517   6.249   2.658   1.132 -0.0072 -1.1477  0.4078
  125SOL    HW217518   6.169   2.712   1.015  1.7688 -1.6186 -1.0761
  126SOL     OW17519   1.343   3.234   7.413  0.0257 -0.3661 -0.2577
  126SOL    HW117520   1.344   3.209   7.506  3.4642  1.4131  0.3474
  126SOL    HW217521   1.371   3.155   7.367  2.1836 -0.2626  0.7278
  127SOL     OW17522   3.267   0.320   7.348  0.3690 -0.5643  0.0431
  127SOL    HW117523   3.358   0.298   7.368 -0.0154 -1.4412  0.9102
  127SOL    HW217524   3.215   0.260   7.401 -0.7331  0.4637  0.1822
  128SOL     OW17525   2.556   4.725   0.275  0.1044 -0.2358  0.2199
  128SOL    HW117526   2.524   4.815   0.270 -0.2645 -0.3241  0.8166
  128SOL    HW217527   2.555   4.705   0.369 -0.4124 -1.0734  0.0385
  129SOL     OW17528   5.656   6.064   0.863 -0.3582 -0.5727 -0.7862
  129SOL    HW117529   5.667   6.159   0.860 -1.0968 -0.5118 -2.1027
  129SOL    HW217530   5.745   6.029   0.855  0.1213 -0.0187  1.3385
  130SOL     OW17531   4.318   2.833   7.324  0.0742 -0.0976  0.1599
  130SOL    HW117532   4.364   2.828   7.408  2.9609 -0.8176 -1.3429
  130SOL    HW217533   4.295   2.926   7.316 -0.9323 -0.1363  2.0296
  131SOL     OW17534   3.702   1.022   5.655 -0.1846  0.3167  0.2208
  131SOL    HW117535   3.691   1.054   5.745  1.0528  0.8984  0.1917
  131SOL    HW217536   3.671   1.093   5.600 -1.1301 -0.1189  0.1776
  132SOL     OW17537   2.993   0.268   0.674  0.0184  0.2381  0.0075
  132SOL    HW117538   2.941   0.213   0.732  0.6949  0.1117  0.4973
  132SOL    HW217539   3.038   0.207   0.616 -1.0404  0.3772 -1.0127
  133SOL     OW17540   0.905   3.506   5.873  0.1457 -0.1759 -0.1570
  133SOL    HW117541   0.877   3.565   5.803  0.1340  0.5992  0.4839
  133SOL    HW217542   0.878   3.419   5.843 -1.3664  0.3324 -0.3606
  134SOL     OW17543   3.205   4.361   5.618 -0.0156  0.0393  0.7103
  134SOL    HW117544   3.186   4.267   5.614  0.7156 -0.1541  1.5071
  134SOL    HW217545   3.235   4.376   5.708  2.1029  0.6009 -0.0231
  135SOL     OW17546   3.386   4.663   6.665 -0.4918  0.2779 -0.1398
  135SOL    HW117547   3.386   4.568   6.675 -1.5769  0.0527 -1.8345
  135SOL    HW217548   3.467   4.692   6.708  0.5915 -1.5502 -0.8272
  136SOL     OW17549   4.158   3.444   1.208 -0.6400  0.0010 -0.4305
  136SOL    HW117550   4.176   3.404   1.293  0.2699  0.1929 -0.5288
  136SOL    HW217551   4.085   3.393   1.173 -2.6558  1.3832  1.4788
  137SOL     OW17552   6.389   2.341   1.249 -0.3513 -0.1886 -0.6762
  137SOL    HW117553   6.426   2.301   1.170 -0.6225 -0.9314 -0.4339
  137SOL    HW217554   6.432   2.296   1.322 -0.9217 -0.2931 -0.3977
  138SOL     OW17555   0.858   2.191   0.705 -0.2916  0.2971  0.3602
  138SOL    HW117556   0.953   2.183   0.696 -0.2546  0.3055  0.7529
  138SOL    HW217557   0.826   2.101   0.693 -0.3060  0.4087 -0.5668
  139SOL     OW17558   1.115   5.872   6.806  0.4207  0.4297 -0.1553
  139SOL    HW117559   1.066   5.953   6.792  0.0780  0.2752  0.1336
  139SOL    HW217560   1.049   5.804   6.808  0.7028  0.1489 -0.3244
  140SOL     OW17561   3.649   2.292   1.386 -0.1357 -0.3199 -0.4753
  140SOL    HW117562   3.593   2.218   1.366 -0.5886  0.2842 -1.5337
  140SOL    HW217563   3.591   2.356   1.428  0.1886 -0.4494  0.1812
  141SOL     OW17564   0.766   1.071   6.711 -0.5025 -0.3116  0.5801
  141SOL    HW117565   0.671   1.075   6.726 -0.9145 -0.7962 -1.6357
  141SOL    HW217566   0.801   1.142   6.766 -2.1481 -0.0154  1.3136
  142SOL     OW17567   5.421   3.386   6.301 -0.2395  0.1263 -0.3559
  142SOL    HW117568   5.449   3.343   6.220  0.4761 -1.0804  0.5041
  142SOL    HW217569   5.451   3.328   6.371 -1.1964  0.9427  0.7728
  143SOL     OW17570   6.078   1.786   5.605 -0.3607  0.2162  0.2941
  143SOL    HW117571   6.150   1.794   5.668 -0.1697  0.6187  0.0342
  143SOL    HW217572   6.090   1.700   5.566  0.1538  0.3954  0.0495
  144SOL     OW17573   1.639   5.277   1.080  0.2602  0.6057 -0.0635
  144SOL    HW117574   1.576   5.233   1.023  0.4800  0.6100 -0.3109
  144SOL    HW217575   1.673   5.349   1.027  0.7992  0.3343 -0.0926
  145SOL     OW17576   4.422   0.169   1.067  0.5467 -0.0641  0.5152
  145SOL    HW117577   4.460   0.119   1.140  0.9635  1.2110  1.2051
  145SOL    HW217578   4.328   0.164   1.081  0.6435  0.8431  1.6353
  146SOL     OW17579   2.036   3.280   0.092 -0.2147 -0.0021  0.0783
  146SOL    HW117580   2.077   3.348   0.038 -1.5610  1.1231  0.4108
  146SOL    HW217581   1.942   3.296   0.083 -0.5414 -1.5536  0.5372
  147SOL     OW17582   5.648   4.687   6.452  0.2754  0.2304 -0.2199
  147SOL    HW117583   5.667   4.625   6.382 -2.1819 -1.6976  0.6597
  147SOL    HW217584   5.579   4.743   6.416  0.6704  0.7912 -0.1205
  148SOL     OW17585   3.349   4.126   1.863  0.1874 -0.5027  0.2473
  148SOL    HW117586   3.327   4.080   1.944 -0.1863 -0.5514  0.1208
  148SOL    HW217587   3.344   4.058   1.796  2.4998 -0.9324  0.4416
  149SOL     OW17588   5.759   5.178   0.792  0.1426  0.0423  0.0304
  149SOL    HW117589   5.781   5.106   0.851 -1.8518 -0.7335 -0.0984
  149SOL    HW217590   5.828   5.243   0.807 -0.2390 -0.0963  3.2309
  150SOL     OW17591   4.207   1.825   6.823 -0.1673  0.2970 -0.0598
  150SOL    HW117592   4.221   1.865   6.738 -1.0299 -0.2832 -0.4853
  150SOL    HW217593   4.168   1.894   6.877  0.1814  0.5981 -0.1885
  151SOL     OW17594   2.947   6.016   1.648 -0.0426  0.0213 -0.4892
  151SOL    HW117595   2.928   5.923   1.634 -0.6159  0.0689 -0.0178
  151SOL    HW217596   2.918   6.034   1.737  1.6322  0.2409  0.0580
  152SOL     OW17597   5.907   1.095   6.177 -0.2931  0.1680  0.6260
  152SOL    HW117598   5.853   1.092   6.256 -0.2678  0.4240  0.6531
  152SOL    HW217599   5.910   1.004   6.147  0.4046 -0.0767  1.3962
  153SOL     OW17600   5.107   4.976   7.338 -0.2291 -0.6801  0.1248
  153SOL    HW117601   5.043   5.044   7.360 -0.5915 -1.4128  1.4375
  153SOL    HW217602   5.084   4.902   7.394  1.5937 -1.0776  0.4178
  154SOL     OW17603   0.187   0.135   0.206  0.1545  0.0828 -1.2150
  154SOL    HW117604   0.246   0.061   0.191 -2.1983 -2.0961 -0.4545
  154SOL    HW217605   0.179   0.177   0.120  3.4445  1.1314 -1.1639
  155SOL     OW17606   5.464   2.107   6.090  0.5207  0.3154 -0.4663
  155SOL    HW117607   5.527   2.043   6.057  1.9599  1.2162  0.4253
  155SOL    HW217608   5.378   2.067   6.075  1.2103 -0.3546 -2.9933
  156SOL     OW17609   4.353   0.585   6.215  0.1752 -0.2178 -0.0178
  156SOL    HW117610   4.403   0.522   6.163  0.5603 -0.4205  0.5844
  156SOL    HW217611   4.302   0.634   6.151 -1.6080 -2.4001 -0.4296
  157SOL     OW17612   1.734   0.425   0.177  0.5919 -0.0654 -0.3541
  157SOL    HW117613   1.779   0.501   0.139  0.0461  0.3242 -0.2243
  157SOL    HW217614   1.745   0.356   0.112  0.8932  0.1852 -0.5756
  158SOL     OW17615   4.417   3.762   6.735  0.2816  0.2106  0.6474
  158SOL    HW117616   4.355   3.769   6.808 -0.7206  0.7335 -0.2113
  158SOL    HW217617   4.409   3.846   6.690  1.5754  0.2475  0.4619
  159SOL     OW17618   3.110   5.215   1.120 -0.5194  0.0806  0.1994
  159SOL    HW117619   3.181   5.277   1.132 -1.0224  1.0014 -1.3414
  159SOL    HW217620   3.039   5.249   1.174 -0.3149  0.0330  0.4999
  160SOL     OW17621   3.658   6.412   5.062 -0.3412  0.3313  0.0236
  160SOL    HW117622   3.663   6.323   5.027  0.1900 -0.4996  2.0875
  160SOL    HW217623   3.748   6.445   5.057 -0.3781  0.4328  0.0343
  161SOL     OW17624   0.728   0.387   6.334  0.1595 -0.4184  0.5768
  161SOL    HW117625   0.790   0.365   6.265  1.3581 -1.3827  1.8807
  161SOL    HW217626   0.648   0.341   6.311 -0.1771  0.9920 -1.2369
  162SOL     OW17627   3.719   1.947   7.031  0.2105 -0.0073 -0.4203
  162SOL    HW117628   3.799   1.964   7.080  0.0312 -0.0803 -0.0980
  162SOL    HW217629   3.648   1.976   7.090  0.0124  0.3312 -0.8169
  163SOL     OW17630   3.774   4.954   5.522  0.9114  0.3098  0.1467
  163SOL    HW117631   3.807   4.891   5.457  0.6520 -0.5003  0.7809
  163SOL    HW217632   3.713   5.010   5.473  0.6616 -0.3369 -0.2941
  164SOL     OW17633   3.743   2.051   1.664 -0.0947 -0.5365  0.2259
  164SOL    HW117634   3.805   2.059   1.592  0.5047  0.0388  0.7921
  164SOL    HW217635   3.689   2.130   1.658  0.0795 -0.3922  0.5114
  165SOL     OW17636   3.510   6.156   6.139 -0.0073  0.2390 -0.6379
  165SOL    HW117637   3.558   6.130   6.218  0.2382  0.8764 -0.5697
  165SOL    HW217638   3.575   6.200   6.085 -0.3775  0.5881 -0.8027
  166SOL     OW17639   1.133   5.983   6.213 -0.6519  0.0436  0.2928
  166SOL    HW117640   1.043   5.982   6.244 -0.6008  0.4276  0.4673
  166SOL    HW217641   1.158   6.076   6.216  0.8961 -0.3116  3.7049
  167SOL     OW17642   3.685   3.125   7.381  0.0014 -0.2101 -0.0466
  167SOL    HW117643   3.732   3.208   7.393  0.2837 -0.4207  0.3633
  167SOL    HW217644   3.616   3.127   7.446  0.8208 -0.8570  0.8816
  168SOL     OW17645   0.159   5.776   7.201 -0.2093 -0.3213  0.3143
  168SOL    HW117646   0.226   5.708   7.194  0.2559  0.0522  0.9914
  168SOL    HW217647   0.189   5.845   7.142 -0.5070 -0.5595 -0.1186
  169SOL     OW17648   1.716   5.718   1.415  0.4544  0.1680 -0.1832
  169SOL    HW117649   1.661   5.715   1.336  0.2382 -1.0263  0.0015
  169SOL    HW217650   1.669   5.665   1.479  0.4512  1.4073  0.8910
  170SOL     OW17651   0.946   6.406   6.881  0.5338 -0.4015 -0.3936
  170SOL    HW117652   0.857   6.380   6.903  0.2529  1.1334  0.4859
  170SOL    HW217653   0.945   6.502   6.887  2.2989 -0.3605 -0.1276
  171SOL     OW17654   0.474   4.468   0.004 -0.0664 -0.1730 -0.6281
  171SOL    HW117655   0.412   4.537   0.027  2.3318  1.3765  1.8311
  171SOL    HW217656   0.546   4.515  -0.039  1.8639 -0.9399  1.5654
  172SOL     OW17657   6.465   0.648   6.238  0.1393  0.0248  0.1439
  172SOL    HW117658   6.499   0.723   6.287 -2.4504  0.6181  1.2063
  172SOL    HW217659   6.509   0.572   6.277  0.2871  0.7277  1.3950
  173SOL     OW17660   4.578   5.962   6.196  0.2443 -0.6379 -0.2351
  173SOL    HW117661   4.486   5.988   6.198 -0.0741 -1.4945 -1.9297
  173SOL    HW217662   4.618   6.011   6.267 -1.7815 -1.2958  1.4563
  174SOL     OW17663   2.386   1.434   0.169 -0.7048 -0.4312  0.1988
  174SOL    HW117664   2.404   1.423   0.075 -2.0716 -0.5382 -0.0750
  174SOL    HW217665   2.318   1.502   0.172 -1.1468 -0.8950  1.0596
  175SOL     OW17666   1.750   0.909   5.768 -0.1206  0.1281  0.3410
  175SOL    HW117667   1.826   0.851   5.758  0.6389  0.8984  1.3979
  175SOL    HW217668   1.787   0.991   5.800 -1.1669  1.2654 -1.2736
  176SOL     OW17669   6.413   3.667   7.017 -0.3590 -0.3041  0.3082
  176SOL    HW117670   6.506   3.673   6.994 -0.4900  0.4912 -0.0463
  176SOL    HW217671   6.383   3.585   6.976 -0.0996  0.0587 -0.6268
  177SOL     OW17672   6.511   5.549   6.009  0.9464 -0.2426  0.4484
  177SOL    HW117673   6.530   5.633   5.967 -0.6562  1.1098  2.2372
  177SOL    HW217674   6.529   5.564   6.102 -0.6952 -1.3975  0.9988
  178SOL     OW17675   1.566   4.256   0.737 -0.1528 -0.3073  0.3300
  178SOL    HW117676   1.588   4.236   0.646  1.0570 -0.3730  0.6187
  178SOL    HW217677   1.491   4.316   0.731 -2.1087 -2.6616 -0.6148
  179SOL     OW17678   0.649   6.419   7.173  0.4677 -0.1153 -0.0091
  179SOL    HW117679   0.732   6.463   7.153  1.5181 -0.7740  2.5078
  179SOL    HW217680   0.614   6.466   7.248 -2.2243  0.9755 -1.7604
  180SOL     OW17681   6.067   3.662   6.946 -0.3518  0.6701 -0.3750
  180SOL    HW117682   6.107   3.575   6.949  0.2862  0.9748  0.3368
  180SOL    HW217683   6.000   3.660   7.014  1.9396  1.7800  2.0974
  181SOL     OW17684   5.624   2.480   0.930  0.1775 -0.2674 -0.0355
  181SOL    HW117685   5.706   2.451   0.969 -0.1818  0.9144  1.6694
  181SOL    HW217686   5.647   2.559   0.882  0.2582 -0.6668 -0.6718
  182SOL     OW17687   4.659   2.505   0.665 -0.2002  1.0077  0.3111
  182SOL    HW117688   4.688   2.416   0.688 -0.9275  0.0499 -2.2225
  182SOL    HW217689   4.717   2.532   0.594 -1.4501  1.6049 -0.5216
  183SOL     OW17690   1.885   3.526   7.105 -0.1401  0.1302 -0.1982
  183SOL    HW117691   1.920   3.572   7.029  1.7616 -0.5666  0.2099
  183SOL    HW217692   1.819   3.466   7.068 -0.6739  1.1974 -1.0281
  184SOL     OW17693   4.666   1.126   6.135  0.2858  0.1384 -0.2616
  184SOL    HW117694   4.641   1.036   6.115 -0.0098 -0.1227  1.1885
  184SOL    HW217695   4.757   1.119   6.165  0.8636  0.5774 -1.8159
  185SOL     OW17696   2.092   4.365   6.027 -0.4020  0.4842 -0.3757
  185SOL    HW117697   2.068   4.278   6.059  0.1036 -0.1027 -1.5295
  185SOL    HW217698   2.123   4.350   5.938 -0.1870  1.8379 -0.5496
  186SOL     OW17699   5.809   6.598   0.531 -0.6161 -0.3848 -0.5158
  186SOL    HW117700   5.794   6.504   0.531  2.5697 -0.9951 -1.5704
  186SOL    HW217701   5.903   6.608   0.538 -0.9089  2.7983  0.4791
  187SOL     OW17702   3.201   4.484   0.496 -0.5675 -0.1272 -0.0679
  187SOL    HW117703   3.207   4.530   0.580 -0.6182 -2.2748  1.1917
  187SOL    HW217704   3.107   4.478   0.478 -0.6174 -0.6892  0.3493
  188SOL     OW17705   5.816   3.364   1.790 -0.0743  0.2049 -0.4866
  188SOL    HW117706   5.902   3.323   1.790  0.3179  0.9892 -1.6893
  188SOL    HW217707   5.820   3.428   1.861  0.0462 -0.3223 -0.0114
  189SOL     OW17708   5.045   5.481   5.942  0.2740 -0.0290 -0.3578
  189SOL    HW117709   5.082   5.471   6.030  1.6125 -0.5485 -0.9578
  189SOL    HW217710   4.955   5.510   5.957  0.5710  0.1770  1.1754
  190SOL     OW17711   0.101   6.478   6.491  0.0218  0.3157  0.0301
  190SOL    HW117712   0.055   6.453   6.571 -1.2044  0.9457 -0.4454
  190SOL    HW217713   0.111   6.573   6.498 -0.5238  0.4374 -0.7769
  191SOL     OW17714   2.407   1.599   1.154 -0.1170  0.1435  0.1749
  191SOL    HW117715   2.477   1.653   1.117  1.3152 -0.0517  2.3902
  191SOL    HW217716   2.439   1.510   1.148  0.5448  0.1653  2.4869
  192SOL     OW17717   5.348   0.349   1.971  0.1123 -0.6964  0.0825
  192SOL    HW117718   5.322   0.257   1.974  0.4358 -0.7796  0.3878
  192SOL    HW217719   5.350   0.371   1.878 -0.7754 -0.7670  0.0312
  193SOL     OW17720   5.493   2.937   1.212  0.2131 -0.3903 -0.3621
  193SOL    HW117721   5.504   2.959   1.305  1.7074  1.0693 -0.8333
  193SOL    HW217722   5.455   2.849   1.212  0.3949 -0.5071  1.6255
  194SOL     OW17723   2.879   0.503   0.632 -0.0523 -0.2550  0.0914
  194SOL    HW117724   2.888   0.499   0.537  1.7433  0.6956  0.1828
  194SOL    HW217725   2.932   0.431   0.665 -0.3611 -0.3494  0.3958
  195SOL     OW17726   2.204   0.411   6.206 -0.1956  0.1469 -0.0452
  195SOL    HW117727   2.153   0.352   6.150 -1.7387  1.7314 -0.3895
  195SOL    HW217728   2.295   0.386   6.190 -0.5146  0.8196 -3.6922
  196SOL     OW17729   0.530   1.480   6.328 -0.3127 -0.6334  0.0867
  196SOL    HW117730   0.543   1.402   6.382 -1.6902  0.4250  2.1193
  196SOL    HW217731   0.601   1.478   6.264 -0.0586 -3.2866  0.3426
  197SOL     OW17732   0.343   2.593   0.716 -0.4919 -0.1781  0.1939
  197SOL    HW117733   0.267   2.619   0.769 -0.7957  0.2382 -0.4407
  197SOL    HW217734   0.305   2.558   0.636 -0.0324 -0.9247  0.2946
  198SOL     OW17735   1.900   2.637   6.655 -0.3808  0.0600  0.5137
  198SOL    HW117736   1.987   2.642   6.616 -0.4097  0.5584  0.5045
  198SOL    HW217737   1.877   2.728   6.675 -0.5168 -0.1510  1.3663
  199SOL     OW17738   1.591   0.422   1.522 -0.0289  0.2093 -0.4992
  199SOL    HW117739   1.586   0.432   1.617 -0.3276  0.3856 -0.5300
  199SOL    HW217740   1.503   0.393   1.497 -0.1154  0.7173 -0.7836
  200SOL     OW17741   3.804   2.304   5.497 -0.1050  0.4314  0.3299
  200SOL    HW117742   3.871   2.236   5.500 -2.2062 -1.7355  1.0490
  200SOL    HW217743   3.771   2.302   5.407  1.0396  1.8401 -0.1647
  201SOL     OW17744   3.519   4.692   4.972 -0.1323  0.6208 -0.1831
  201SOL    HW117745   3.450   4.650   5.023  0.2240 -1.0978 -1.0312
  201SOL    HW217746   3.551   4.762   5.028 -4.2559  3.2906 -0.7460
  202SOL     OW17747   0.101   0.965   0.139  0.4266 -0.4764  0.0565
  202SOL    HW117748   0.147   0.889   0.104  1.0154 -1.0906  2.0584
  202SOL    HW217749   0.015   0.931   0.166 -0.3526  0.1687 -1.4589
  203SOL     OW17750   4.576   5.511   6.206 -0.0886  0.1096  0.3904
  203SOL    HW117751   4.629   5.590   6.198  0.1359  0.1676  2.0751
  203SOL    HW217752   4.617   5.448   6.147  0.6479  0.7747  0.1741
  204SOL     OW17753   5.093   5.017   5.991  0.0692  0.3865  0.8285
  204SOL    HW117754   5.082   4.949   5.925 -0.8273 -1.0037  2.3469
  204SOL    HW217755   5.187   5.019   6.008  0.1007 -0.5964  0.8496
  205SOL     OW17756   0.556   4.520   1.083 -0.2361 -0.1896  0.2488
  205SOL    HW117757   0.475   4.531   1.133 -1.6831 -1.0604 -1.7517
  205SOL    HW217758   0.539   4.564   0.999  1.7412  0.4199  0.1196
  206SOL     OW17759   2.767   4.813   7.282  0.4231 -0.7597 -0.2026
  206SOL    HW117760   2.743   4.759   7.207 -0.2792 -1.1357  0.2812
  206SOL    HW217761   2.733   4.765   7.358  1.1811 -0.4227  0.3614
  207SOL     OW17762   0.248   5.246   1.763 -0.2555 -0.3598 -0.6513
  207SOL    HW117763   0.191   5.304   1.814 -0.8212 -0.8283 -0.7385
  207SOL    HW217764   0.331   5.245   1.811 -1.2480 -2.0246  1.1809
  208SOL     OW17765   4.355   5.274   7.071 -0.4372 -0.6014 -0.0662
  208SOL    HW117766   4.262   5.259   7.085 -0.5334 -1.1081 -1.1230
  208SOL    HW217767   4.383   5.201   7.015  0.4838 -0.1828 -0.1697
  209SOL     OW17768   1.665   5.187   0.495 -0.5504 -0.0523 -0.1170
  209SOL    HW117769   1.623   5.108   0.461  1.6569 -1.6624  0.6676
  209SOL    HW217770   1.727   5.212   0.427  1.9001 -1.6770  1.3426
  210SOL     OW17771   1.907   3.284   0.584 -0.4903  0.2351 -0.1293
  210SOL    HW117772   1.977   3.316   0.528  0.1272  0.8810  0.9652
  210SOL    HW217773   1.882   3.360   0.637 -3.5364  0.6600 -1.9187
  211SOL     OW17774   6.570   0.280   5.766  0.2112  0.1374  0.4735
  211SOL    HW117775   6.589   0.194   5.804 -0.0917 -0.3242 -0.3897
  211SOL    HW217776   6.495   0.312   5.816 -1.1821 -1.1446 -0.6834
  212SOL     OW17777   4.620   4.405   2.401  0.7259 -0.1807  0.1309
  212SOL    HW117778   4.602   4.499   2.399 -0.5333 -0.4074 -0.1180
  212SOL    HW217779   4.590   4.377   2.487  0.3103 -0.4961 -0.1153
  213SOL     OW17780   6.103   6.556   2.296 -0.1657 -0.7580 -0.3225
  213SOL    HW117781   6.199   6.552   2.289 -0.2257 -2.0716 -0.5939
  213SOL    HW217782   6.072   6.482   2.244 -1.3429 -0.2489 -0.3652
  214SOL     OW17783   0.808   1.333   0.985  0.0465 -0.2523  0.2298
  214SOL    HW117784   0.856   1.302   0.909  0.2731 -1.6577  0.9199
  214SOL    HW217785   0.725   1.285   0.983  0.3080 -0.7647  1.1863
  215SOL     OW17786   4.994   3.070   7.297 -0.5365  0.6896  0.5785
  215SOL    HW117787   4.915   3.089   7.246  0.2892  0.4930 -0.8088
  215SOL    HW217788   4.996   2.974   7.303  0.1901  0.6353 -0.3769
  216SOL     OW17789   4.346   3.340   0.885 -0.3783 -0.6062 -0.5735
  216SOL    HW117790   4.353   3.256   0.840  0.5619 -0.7211 -0.2292
  216SOL    HW217791   4.436   3.368   0.899 -0.6313  1.3361 -2.2653
  217SOL     OW17792   0.594   0.902   5.506 -0.5045  0.0048 -0.3278
  217SOL    HW117793   0.635   0.936   5.585  2.7834  0.6583 -2.1211
  217SOL    HW217794   0.545   0.977   5.471  0.1674  0.5049 -0.2193
  218SOL     OW17795   2.980   0.777   7.426  0.1479  0.1425 -0.6746
  218SOL    HW117796   3.003   0.815   7.341 -0.1359 -1.1856 -1.3709
  218SOL    HW217797   3.011   0.687   7.421  0.6286  0.1973  0.8592
  219SOL     OW17798   5.138   5.691   7.124  0.1380  0.0900  1.0946
  219SOL    HW117799   5.065   5.685   7.063  0.4982  0.9535  0.5621
  219SOL    HW217800   5.213   5.653   7.077  0.3803  0.6190  1.0432
  220SOL     OW17801   1.413   5.873   5.511 -0.4456  0.1668  0.1126
  220SOL    HW117802   1.346   5.805   5.519 -2.3817  1.7836 -1.4654
  220SOL    HW217803   1.474   5.838   5.446 -2.0112  0.2873 -1.5068
  221SOL     OW17804   5.869   4.558   6.265  0.2779  0.1487  0.1694
  221SOL    HW117805   5.927   4.498   6.312  0.1276  2.2544  3.2988
  221SOL    HW217806   5.815   4.501   6.210  2.5824 -2.1945  0.1310
  222SOL     OW17807   3.918   0.284   4.956 -0.2600  0.0990 -0.0342
  222SOL    HW117808   4.005   0.245   4.961 -0.0330  0.6885  3.0178
  222SOL    HW217809   3.934   0.378   4.951 -0.6859  0.2274  0.8292
  223SOL     OW17810   4.864   0.253   1.247 -0.1758 -0.5371  0.0394
  223SOL    HW117811   4.840   0.263   1.155 -0.2820 -0.8138  0.0359
  223SOL    HW217812   4.837   0.164   1.269 -2.6715  0.4138  1.1081
  224SOL     OW17813   3.077   3.481   5.664 -0.3960 -0.1652 -0.9106
  224SOL    HW117814   3.169   3.506   5.651 -0.4093 -0.6183 -1.9968
  224SOL    HW217815   3.080   3.389   5.690 -0.4544  0.3643  1.1406
  225SOL     OW17816   2.183   6.542   1.900  0.0661  0.2097  0.2278
  225SOL    HW117817   2.157   6.585   1.818  0.8671  0.9720  0.3645
  225SOL    HW217818   2.273   6.514   1.885  0.2322  0.3990  0.8728
  226SOL     OW17819   0.986   4.909   0.715  0.4950 -0.2472 -0.2343
  226SOL    HW117820   1.015   4.830   0.670  1.8816  0.4025 -0.5487
  226SOL    HW217821   1.065   4.964   0.720 -0.3078  0.8886  0.4420
  227SOL     OW17822   0.046   3.274   5.923 -0.0343 -0.5079 -0.4706
  227SOL    HW117823   0.091   3.211   5.866  0.4164  0.5844 -1.3495
  227SOL    HW217824   0.083   3.258   6.010  1.6664 -0.0269 -1.0630
  228SOL     OW17825   0.704   0.388   5.568  0.2771  0.4562 -0.2408
  228SOL    HW117826   0.733   0.475   5.542  1.6162 -0.2178 -1.0962
  228SOL    HW217827   0.610   0.397   5.582  0.6263  2.4064  1.2659
  229SOL     OW17828   6.523   6.266   2.548 -0.1029 -0.0706 -0.3710
  229SOL    HW117829   6.581   6.260   2.472  0.0488 -1.3411 -0.1801
  229SOL    HW217830   6.546   6.190   2.602  0.0217  0.9886  1.1226
  230SOL     OW17831   3.950   5.672   0.057 -0.8273 -0.1859 -0.2418
  230SOL    HW117832   3.916   5.673  -0.033  0.0056  0.2634 -0.5571
  230SOL    HW217833   3.953   5.764   0.083  1.8967  0.0037 -0.9223
  231SOL     OW17834   3.804   6.226   5.998 -0.0434  0.0004  0.6562
  231SOL    HW117835   3.839   6.141   6.026 -0.5932 -0.5350 -0.2396
  231SOL    HW217836   3.827   6.286   6.070 -0.8679 -1.1839  1.9536
  232SOL     OW17837   4.914   0.478   0.387 -0.0246 -0.1088 -0.0493
  232SOL    HW117838   4.904   0.402   0.329  0.5273 -0.6014  0.4881
  232SOL    HW217839   5.007   0.481   0.406  0.0712  1.1162 -0.5934
  233SOL     OW17840   1.882   3.276   1.787  0.2106 -0.7427 -0.1487
  233SOL    HW117841   1.810   3.321   1.832  0.5094  0.5093 -0.8698
  233SOL    HW217842   1.841   3.199   1.748 -0.6495 -0.2980 -0.1542
  234SOL     OW17843   0.811   5.544   7.069 -0.2777  0.0582 -0.6229
  234SOL    HW117844   0.890   5.525   7.019 -0.3103  1.4451 -1.2327
  234SOL    HW217845   0.837   5.534   7.160  0.4480 -0.0596 -0.8373
  235SOL     OW17846   6.532   6.180   0.992  0.2276 -0.1087  0.1448
  235SOL    HW117847   6.528   6.212   0.902 -0.4973 -0.9266 -0.1247
  235SOL    HW217848   6.622   6.149   1.003  1.0990  2.3402  0.5598
  236SOL     OW17849   5.089   2.801   2.435 -0.0952  0.0167  0.1503
  236SOL    HW117850   5.059   2.762   2.353 -1.4211  1.9232 -0.3317
  236SOL    HW217851   5.074   2.734   2.501  2.3550 -2.1555 -1.2707
  237SOL     OW17852   5.215   2.402   5.886 -0.7358  0.4297 -0.0351
  237SOL    HW117853   5.187   2.410   5.978  0.3881 -0.1753  0.3844
  237SOL    HW217854   5.134   2.388   5.837 -1.2577 -0.4512  1.0260
  238SOL     OW17855   2.164   5.603   0.882 -0.2299 -0.2386  0.1141
  238SOL    HW117856   2.124   5.669   0.825 -1.6388 -0.1784  1.1040
  238SOL    HW217857   2.242   5.646   0.918 -0.8574  0.7256  0.3646
  239SOL     OW17858   4.019   2.501   0.653 -0.0966  0.3343  0.7077
  239SOL    HW117859   3.938   2.514   0.603  0.7723 -0.4842 -0.9917
  239SOL    HW217860   4.067   2.583   0.642  0.0433  0.1975  0.2814
  240SOL     OW17861   1.817   1.998   0.872  0.3278  0.4771  0.2463
  240SOL    HW117862   1.763   1.919   0.880 -0.7655  1.1948  0.1005
  240SOL    HW217863   1.845   2.017   0.961 -0.4793  0.6541  0.4695
  241SOL     OW17864   4.668   5.750   6.898  0.1302 -0.0595 -0.0791
  241SOL    HW117865   4.651   5.741   6.804 -1.2508 -0.6006  0.2065
  241SOL    HW217866   4.620   5.678   6.939  1.0271 -0.0678  1.0324
  242SOL     OW17867   1.929   4.500   6.991  0.5715 -0.0455  0.0134
  242SOL    HW117868   1.918   4.519   6.897  1.6240  1.1676  0.0995
  242SOL    HW217869   1.905   4.582   7.034 -0.5942 -0.8129  0.8768
  243SOL     OW17870   4.384   5.829   2.357 -0.2841 -0.0092  0.4787
  243SOL    HW117871   4.370   5.743   2.397 -0.9959  0.4879  1.3333
  243SOL    HW217872   4.309   5.840   2.298  0.4319 -0.4653 -0.5647
  244SOL     OW17873   6.116   0.883   1.295 -0.1102  0.0172  0.4284
  244SOL    HW117874   6.148   0.833   1.371 -1.3863 -0.0453  0.9500
  244SOL    HW217875   6.174   0.857   1.223  0.4199 -0.7818  1.1216
  245SOL     OW17876   3.769   3.613   1.307  0.4937 -0.0032  0.4069
  245SOL    HW117877   3.791   3.577   1.221 -2.1401  0.2918 -0.4620
  245SOL    HW217878   3.763   3.537   1.365  3.3848 -0.1211  0.6984
  246SOL     OW17879   1.647   6.309   6.768  0.1867  0.3310 -0.0047
  246SOL    HW117880   1.562   6.321   6.725  0.9448  0.5073 -1.4962
  246SOL    HW217881   1.674   6.397   6.793 -0.3404  0.2088  1.0455
  247SOL     OW17882   2.836   4.024   5.831 -0.2259 -0.1049  0.1631
  247SOL    HW117883   2.761   4.063   5.875 -0.1481  2.5166 -1.7257
  247SOL    HW217884   2.818   3.930   5.828 -1.7232  0.0370  2.7428
  248SOL     OW17885   4.545   4.189   1.630 -0.1535  0.7573  0.2329
  248SOL    HW117886   4.640   4.204   1.634  0.0773 -0.4450 -0.4017
  248SOL    HW217887   4.526   4.133   1.706  0.5217 -3.1621 -2.2311
  249SOL     OW17888   4.214   2.322   0.572  0.0990 -0.3859 -0.4192
  249SOL    HW117889   4.164   2.248   0.607  0.8182  0.1784  2.0198
  249SOL    HW217890   4.155   2.397   0.583  0.4325 -0.1619 -0.1325
  250SOL     OW17891   5.040   0.314   0.752 -0.0788 -0.4668  0.6552
  250SOL    HW117892   5.080   0.277   0.673  1.7097  0.1093  1.2555
  250SOL    HW217893   5.094   0.390   0.774  0.0233 -1.1013  2.9082
  251SOL     OW17894   3.800   4.216   7.280 -0.3089  0.0248 -0.2916
  251SOL    HW117895   3.843   4.273   7.216 -0.0967 -0.9070 -1.0182
  251SOL    HW217896   3.781   4.136   7.230  0.4077 -0.9653  0.9653
  252SOL     OW17897   2.169   2.437   0.186 -0.7945  0.0873 -0.0027
  252SOL    HW117898   2.154   2.355   0.233 -1.1910  0.4541  0.5191
  252SOL    HW217899   2.083   2.462   0.153 -0.8197  0.6919  0.5049
  253SOL     OW17900   4.742   0.997   1.712 -0.1829 -0.6387  0.7220
  253SOL    HW117901   4.783   0.917   1.681 -0.6192 -0.4329 -0.4398
  253SOL    HW217902   4.799   1.028   1.782  0.8702 -1.0961  0.0799
  254SOL     OW17903   1.440   2.794   7.148 -0.5397  0.7734  0.0605
  254SOL    HW117904   1.497   2.842   7.208 -1.1436  0.7800  0.6411
  254SOL    HW217905   1.365   2.851   7.135 -1.2210  0.0373  0.6806
  255SOL     OW17906   1.037   3.166   0.903 -0.0809  0.1434 -0.5656
  255SOL    HW117907   1.061   3.171   0.995  1.1327 -0.4663 -0.8303
  255SOL    HW217908   1.120   3.172   0.856 -0.7228  0.9892 -1.6555
  256SOL     OW17909   3.332   4.299   6.085 -0.6141 -0.1860  0.1141
  256SOL    HW117910   3.286   4.373   6.122  0.0519  0.0683  0.4624
  256SOL    HW217911   3.374   4.333   6.006 -1.8996 -0.6876 -0.8227
  257SOL     OW17912   5.487   1.087   0.455 -0.0920  0.3241  0.0546
  257SOL    HW117913   5.481   1.135   0.372 -0.7168 -0.0338 -0.1056
  257SOL    HW217914   5.495   1.156   0.521  4.3736  0.7014 -0.5072
  258SOL     OW17915   4.665   3.300   1.942  0.1559 -0.3238  0.3805
  258SOL    HW117916   4.651   3.336   2.029 -0.1265  0.7617 -0.0989
  258SOL    HW217917   4.626   3.213   1.945 -0.1883 -0.1466  1.2209
  259SOL     OW17918   4.696   3.479   1.691  0.2662  0.0760  0.4487
  259SOL    HW117919   4.665   3.443   1.773  1.1128  1.3769  1.3799
  259SOL    HW217920   4.761   3.415   1.659  0.0832 -0.3308  0.8943
  260SOL     OW17921   3.823   3.416   7.432  0.2782  0.0060 -0.0265
  260SOL    HW117922   3.760   3.398   7.502  1.3232  3.1311  1.9228
  260SOL    HW217923   3.786   3.490   7.385  2.6602  2.4526  1.6672
  261SOL     OW17924   1.806   3.400   0.216 -0.3211 -0.0559  0.6373
  261SOL    HW117925   1.791   3.484   0.260  0.0593 -0.2783  1.2004
  261SOL    HW217926   1.876   3.358   0.267  0.8938  0.1422 -0.8157
  262SOL     OW17927   1.221   4.545   5.666  0.0303  0.5829  0.1429
  262SOL    HW117928   1.221   4.510   5.577  2.0381  0.8425  0.0056
  262SOL    HW217929   1.219   4.640   5.655 -0.4678  0.6099  0.4087
  263SOL     OW17930   0.405   0.703   5.899  0.0275 -0.2345 -0.0908
  263SOL    HW117931   0.381   0.614   5.925 -0.7639 -0.4535 -1.4892
  263SOL    HW217932   0.428   0.695   5.806 -0.5111  1.1030 -0.3522
  264SOL     OW17933   1.600   1.136   1.554 -0.7044 -0.0519 -0.1590
  264SOL    HW117934   1.636   1.068   1.611  0.4869 -2.2446 -3.2447
  264SOL    HW217935   1.637   1.117   1.467 -2.0721  3.2690 -1.6575
  265SOL     OW17936   4.869   3.216   0.027 -0.1665 -0.0013  0.2008
  265SOL    HW117937   4.788   3.249  -0.011 -0.0842 -0.1069 -0.0667
  265SOL    HW217938   4.877   3.127  -0.007 -0.7953 -0.5971  1.5255
  266SOL     OW17939   4.027   3.597   6.742  0.1292 -0.0499  0.5058
  266SOL    HW117940   4.007   3.679   6.787  0.8617  1.3602 -1.5852
  266SOL    HW217941   4.072   3.624   6.662 -0.7787 -2.4144 -0.9078
  267SOL     OW17942   6.195   1.923   6.565 -0.5915  0.1058 -0.7875
  267SOL    HW117943   6.233   1.867   6.632  1.5638 -0.0782 -2.0821
  267SOL    HW217944   6.172   1.864   6.494 -0.4748  0.6001 -1.2451
  268SOL     OW17945   5.877   3.030   6.590  0.4238  0.1287  0.1519
  268SOL    HW117946   5.914   3.117   6.607  0.8551 -0.0796  0.3022
  268SOL    HW217947   5.872   2.989   6.676 -2.8274  1.1601  0.5752
  269SOL     OW17948   1.529   0.439   0.381  0.0334  0.0057  0.5960
  269SOL    HW117949   1.572   0.456   0.297 -0.3211 -1.2963  0.1186
  269SOL    HW217950   1.597   0.396   0.434 -0.0377 -0.0807  0.6174
  270SOL     OW17951   6.453   5.225   5.673  0.1278 -0.2906  0.7822
  270SOL    HW117952   6.488   5.187   5.754 -2.2970 -1.0145  1.5876
  270SOL    HW217953   6.409   5.305   5.702 -1.0169 -0.7141  0.2704
  271SOL     OW17954   0.818   5.482   5.961 -0.0085 -0.5638 -0.4178
  271SOL    HW117955   0.746   5.420   5.968  1.2314 -1.9131  1.3533
  271SOL    HW217956   0.829   5.516   6.049  1.8148 -0.7977 -0.5027
  272SOL     OW17957   6.367   0.409   6.508 -0.1078  0.1294  0.0906
  272SOL    HW117958   6.382   0.319   6.479 -1.6759 -0.7962  1.9409
  272SOL    HW217959   6.297   0.442   6.451  1.1186  0.5771 -1.2261
  273SOL     OW17960   3.177   3.223   0.821  0.8070 -0.0029  0.3686
  273SOL    HW117961   3.117   3.274   0.876 -0.5061  2.0016 -2.6786
  273SOL    HW217962   3.120   3.167   0.769  2.0176 -1.9211  1.0180
  274SOL     OW17963   4.156   0.819   6.526 -0.1009 -0.8119 -0.2805
  274SOL    HW117964   4.086   0.808   6.461  0.5947  0.8658 -1.3810
  274SOL    HW217965   4.212   0.742   6.515  0.1727 -0.4073 -1.9197
  275SOL     OW17966   1.204   4.080   0.045  0.6020  0.3345  0.4847
  275SOL    HW117967   1.288   4.035   0.034  0.3101 -0.0047 -0.4035
  275SOL    HW217968   1.218   4.166   0.006  0.8951  0.7251  1.4172
  276SOL     OW17969   2.654   6.281   0.044 -0.0702 -0.3894 -0.0091
  276SOL    HW117970   2.599   6.359   0.051 -2.8985 -2.0613 -1.4403
  276SOL    HW217971   2.648   6.240   0.130 -0.2429 -0.0242  0.1559
  277SOL     OW17972   4.469   6.354   7.061  0.6234 -0.1113 -0.1326
  277SOL    HW117973   4.523   6.357   6.982  1.2509 -0.5379  0.2704
  277SOL    HW217974   4.448   6.445   7.079  1.4310  0.0837 -0.1486
  278SOL     OW17975   4.680   1.466   6.281 -0.2443  0.3340 -0.5936
  278SOL    HW117976   4.667   1.541   6.223  0.2243  0.8252 -0.0607
  278SOL    HW217977   4.757   1.421   6.245 -1.7591 -1.1421 -2.2158
  279SOL     OW17978   4.419   1.263   7.441 -0.1323  0.2178  0.0857
  279SOL    HW117979   4.387   1.329   7.503 -0.2476  0.6045 -0.3770
  279SOL    HW217980   4.347   1.202   7.432 -1.1815  1.6086 -1.6983
  280SOL     OW17981   4.589   0.170   0.459 -0.0405  0.8229  0.1744
  280SOL    HW117982   4.576   0.118   0.539 -1.7849  1.8337  0.5832
  280SOL    HW217983   4.613   0.257   0.491  1.5830  0.6445 -0.4849
  281SOL     OW17984   0.919   3.688   6.555  0.5182 -0.3905  0.5533
  281SOL    HW117985   0.937   3.714   6.646  1.1143  0.9361  0.0926
  281SOL    HW217986   0.973   3.748   6.503 -2.1416  1.0221 -0.7993
  282SOL     OW17987   6.083   1.432   6.155  0.2064  0.3456  0.0576
  282SOL    HW117988   6.058   1.471   6.071 -1.6380  0.4606  0.6058
  282SOL    HW217989   6.157   1.375   6.134 -0.2961  0.2718 -1.6762
  283SOL     OW17990   1.454   3.211   0.599  0.1017  0.7080 -0.8680
  283SOL    HW117991   1.378   3.259   0.631 -0.3342 -0.6844  0.2613
  283SOL    HW217992   1.501   3.275   0.545 -2.3143  1.3435 -2.3494
  284SOL     OW17993   4.206   5.038   1.722 -0.2596 -0.7665 -0.8521
  284SOL    HW117994   4.199   5.011   1.814  0.5305  1.3814 -0.0899
  284SOL    HW217995   4.119   5.071   1.701 -0.3375 -0.9013 -0.7435
  285SOL     OW17996   6.293   5.791   7.048 -0.0324  0.3579 -0.3134
  285SOL    HW117997   6.214   5.758   7.004 -0.8804  0.0935  1.3147
  285SOL    HW217998   6.268   5.878   7.079 -0.5730 -0.5876  2.2074
  286SOL     OW17999   1.945   5.688   6.360 -0.0772 -0.0046 -0.3425
  286SOL    HW118000   1.970   5.760   6.303  0.8831  0.0638  0.1532
  286SOL    HW218001   1.856   5.666   6.333  0.4725 -0.2034 -2.0979
  287SOL     OW18002   6.118   1.942   1.187  0.3006  0.2772  0.3998
  287SOL    HW118003   6.084   2.005   1.123 -1.8112  1.0422  2.1716
  287SOL    HW218004   6.157   1.996   1.255 -0.2703 -0.3851  1.2652
  288SOL     OW18005   3.452   5.963   1.494 -0.1839  0.3476  0.1565
  288SOL    HW118006   3.516   5.903   1.532 -0.7057  0.7410  1.7163
  288SOL    HW218007   3.376   5.959   1.552 -0.7331  1.5282 -0.4289
  289SOL     OW18008   4.484   1.585   1.231  0.1844 -0.5418 -0.2399
  289SOL    HW118009   4.496   1.680   1.226 -0.1675 -0.4560  0.4757
  289SOL    HW218010   4.518   1.552   1.147  0.5166  0.1906 -0.3997
  290SOL     OW18011   0.055   0.862   1.686 -0.0515 -0.6392  0.1563
  290SOL    HW118012   0.021   0.853   1.775  1.3174  1.8369  1.0451
  290SOL    HW218013   0.002   0.931   1.647  1.4045  0.5991  0.2551
  291SOL     OW18014   5.645   3.871   5.794  0.5873 -0.0199 -1.0020
  291SOL    HW118015   5.600   3.791   5.768  0.0965  0.0790 -0.4766
  291SOL    HW218016   5.735   3.859   5.763  0.7396 -1.1451 -0.1773
  292SOL     OW18017   2.581   6.391   6.994 -0.2908 -0.5603 -0.0346
  292SOL    HW118018   2.613   6.363   6.909  3.3900 -3.4456  2.0031
  292SOL    HW218019   2.610   6.482   7.001  2.4145 -1.2832 -0.6891
  293SOL     OW18020   2.848   2.920   7.132  0.1266 -0.7068  0.3236
  293SOL    HW118021   2.752   2.917   7.127  0.0936  0.5557 -0.0509
  293SOL    HW218022   2.867   2.998   7.183  0.9732 -0.5611 -0.2041
  294SOL     OW18023   4.405   2.534   6.304  0.2347  0.3592 -0.6293
  294SOL    HW118024   4.371   2.521   6.392 -2.0628  2.1645 -1.1503
  294SOL    HW218025   4.356   2.471   6.250 -1.8757  2.3720 -1.2440
  295SOL     OW18026   1.778   6.535   6.819 -0.2484 -0.3118 -0.1223
  295SOL    HW118027   1.871   6.511   6.814 -0.1056 -0.0755  1.1419
  295SOL    HW218028   1.769   6.579   6.903 -2.2057 -3.6270  1.6160
  296SOL     OW18029   4.015   6.215   6.582  0.6032 -0.3430  0.4899
  296SOL    HW118030   3.974   6.184   6.662 -1.0532 -0.3007 -0.2902
  296SOL    HW218031   4.069   6.289   6.609 -2.1016  1.4938  1.2779
  297SOL     OW18032   1.481   3.448   1.345 -0.1817 -0.0652  0.1801
  297SOL    HW118033   1.495   3.369   1.397 -3.7587 -2.0018 -1.3607
  297SOL    HW218034   1.402   3.487   1.382 -0.2761  0.9767 -1.0546
  298SOL     OW18035   5.807   2.698   7.284  0.4353  0.1501  0.3361
  298SOL    HW118036   5.891   2.652   7.286  0.2070 -0.3239 -0.4777
  298SOL    HW218037   5.742   2.631   7.304  0.2695  0.6113  1.4353
  299SOL     OW18038   5.396   6.245   0.715  0.4339 -0.6672  0.0417
  299SOL    HW118039   5.352   6.214   0.794 -1.3383  0.0227 -0.6090
  299SOL    HW218040   5.414   6.166   0.664 -0.8037 -0.9417 -0.0134
  300SOL     OW18041   3.615   3.815   0.344  0.4281 -0.2059  0.1055
  300SOL    HW118042   3.662   3.813   0.260 -0.9867  0.5159 -0.7600
  300SOL    HW218043   3.669   3.871   0.400  2.0816 -1.7700  0.1556
  301SOL     OW18044   4.921   1.875   6.200  0.6224  0.0503  0.5772
  301SOL    HW118045   4.974   1.916   6.131 -2.0931  1.5609 -0.7907
  301SOL    HW218046   4.912   1.784   6.173 -0.9341  0.7468 -1.5917
  302SOL     OW18047   0.755   2.830   7.369 -0.0593  0.4700  0.1501
  302SOL    HW118048   0.709   2.747   7.366 -0.8978  0.9626 -1.8640
  302SOL    HW218049   0.843   2.808   7.400  0.8340 -1.7554 -3.4300
  303SOL     OW18050   3.494   0.982   7.173 -0.2972  0.0246 -0.1846
  303SOL    HW118051   3.468   1.065   7.214  0.2638  1.2762 -2.2479
  303SOL    HW218052   3.498   1.001   7.080  0.8336 -2.0714 -0.6269
  304SOL     OW18053   4.351   3.826   5.416  0.0046  0.6470  0.2053
  304SOL    HW118054   4.368   3.735   5.391  1.6874  1.4929 -2.1534
  304SOL    HW218055   4.424   3.848   5.474 -0.2522  0.5591  0.5583
  305SOL     OW18056   2.988   5.730   1.443 -0.5060  0.7534 -0.8506
  305SOL    HW118057   3.075   5.690   1.433 -0.8662 -0.3393  0.1908
  305SOL    HW218058   2.974   5.734   1.538 -0.8188  2.6872 -0.9270
  306SOL     OW18059   0.493   3.359   0.563 -0.0220 -0.2252  0.2047
  306SOL    HW118060   0.577   3.398   0.588 -0.9280  0.8083  1.8347
  306SOL    HW218061   0.428   3.422   0.594 -1.4090 -1.0331 -0.9782
  307SOL     OW18062   2.882   6.200   5.668  0.1319  0.0238 -0.3886
  307SOL    HW118063   2.855   6.203   5.576  0.8781  1.4490 -0.5796
  307SOL    HW218064   2.946   6.271   5.677 -0.2250  0.1604  1.3343
  308SOL     OW18065   3.661   2.715   5.645 -0.1047  0.8563 -0.7322
  308SOL    HW118066   3.704   2.643   5.691 -1.6138 -0.0135 -0.6459
  308SOL    HW218067   3.732   2.758   5.597  0.5023 -2.4454 -3.1663
  309SOL     OW18068   0.621   4.199   6.250  0.2529 -0.0970 -0.0859
  309SOL    HW118069   0.602   4.292   6.247 -1.0573 -0.2486  1.9054
  309SOL    HW218070   0.702   4.192   6.301 -0.0459 -0.0704  0.4022
  310SOL     OW18071   1.472   0.717   0.944  0.2686 -0.6799  0.1205
  310SOL    HW118072   1.475   0.624   0.921 -1.1019 -0.8625  0.6276
  310SOL    HW218073   1.441   0.759   0.864  0.3505 -0.7123  0.0702
  311SOL     OW18074   3.950   3.531   0.640 -0.1139  0.2926  0.1780
  311SOL    HW118075   3.945   3.462   0.575 -2.2989  0.0232  0.5611
  311SOL    HW218076   4.041   3.561   0.636  0.9072 -2.5377 -0.0312
  312SOL     OW18077   0.193   4.559   6.821 -0.5107  0.6541  0.2728
  312SOL    HW118078   0.129   4.628   6.835 -0.5308  0.6478  0.2124
  312SOL    HW218079   0.254   4.595   6.756 -0.4328  0.6738  0.3565
  313SOL     OW18080   6.382   6.513   6.027 -0.7559  0.1095 -0.1503
  313SOL    HW118081   6.468   6.489   6.060 -1.0179 -0.9390 -0.2010
  313SOL    HW218082   6.368   6.455   5.952 -1.1516  0.8597 -0.6794
  314SOL     OW18083   5.456   4.115   6.247  0.0272 -0.5455  0.1158
  314SOL    HW118084   5.369   4.076   6.246  0.8743 -2.5943  0.8326
  314SOL    HW218085   5.502   4.074   6.174  0.6987 -0.3008  0.3906
  315SOL     OW18086   2.875   6.468   0.200  0.5134 -0.0911 -0.1278
  315SOL    HW118087   2.834   6.554   0.193  0.7174 -0.0274 -0.5445
  315SOL    HW218088   2.857   6.426   0.116 -0.9313 -1.0617  0.6255
  316SOL     OW18089   2.870   0.843   0.169  0.1947  0.3462  0.3618
  316SOL    HW118090   2.907   0.829   0.082  0.5551  2.5540  0.1033
  316SOL    HW218091   2.944   0.872   0.222 -0.3804  0.8384  0.9060
  317SOL     OW18092   2.437   1.835   1.916 -0.4381  0.3651  0.5485
  317SOL    HW118093   2.347   1.815   1.939 -0.0876 -1.9952  0.1258
  317SOL    HW218094   2.442   1.820   1.822  0.7817 -1.4198  0.8447
  318SOL     OW18095   3.553   0.048   7.112 -0.0010  0.4544  0.0866
  318SOL    HW118096   3.458   0.045   7.102  0.0757  0.5248 -0.7425
  318SOL    HW218097   3.586  -0.022   7.055  0.4393  0.3071  0.5091
  319SOL     OW18098   0.723   5.262   7.047  0.1793 -0.3433 -0.2800
  319SOL    HW118099   0.751   5.354   7.048  1.6257 -0.7420 -1.1662
  319SOL    HW218100   0.676   5.252   6.965 -1.1726 -0.0867  0.4409
  320SOL     OW18101   5.366   2.527   0.624  0.0815 -0.4025  0.3139
  320SOL    HW118102   5.419   2.469   0.679  0.7399  0.0162  0.1371
  320SOL    HW218103   5.403   2.518   0.536 -0.5761 -0.6067  0.0505
  321SOL     OW18104   5.853   4.616   1.672  0.2354  0.1647 -0.4202
  321SOL    HW118105   5.892   4.605   1.759  0.7381 -1.0168 -0.7818
  321SOL    HW218106   5.893   4.696   1.638  1.1453 -0.1674 -0.1547
  322SOL     OW18107   3.369   1.820   0.452 -0.0094 -0.8191 -0.3267
  322SOL    HW118108   3.372   1.846   0.359  1.7734 -1.7281 -0.5578
  322SOL    HW218109   3.298   1.873   0.489 -0.4094 -0.0473 -2.0833
  323SOL     OW18110   3.823   6.430   6.454 -0.2191 -0.0156 -0.2761
  323SOL    HW118111   3.819   6.489   6.529 -0.6045 -0.0533 -0.2639
  323SOL    HW218112   3.816   6.342   6.491  0.0465 -0.0555 -0.3192
  324SOL     OW18113   3.615   2.767   0.042  0.0492  0.0882 -0.5765
  324SOL    HW118114   3.658   2.732   0.120  1.0233 -0.9440 -1.5242
  324SOL    HW218115   3.661   2.848   0.022  1.7366 -1.0759 -1.6595
  325SOL     OW18116   1.021   0.934   6.679  0.0942 -0.3682 -0.4948
  325SOL    HW118117   0.967   1.013   6.676 -0.0338 -0.4190  0.2556
  325SOL    HW218118   1.085   0.952   6.748  0.9886 -0.3397 -1.3137
  326SOL     OW18119   6.317   5.067   6.267  0.0895 -0.2007  0.2565
  326SOL    HW118120   6.232   5.023   6.262  0.8547 -1.8901  1.1953
  326SOL    HW218121   6.298   5.159   6.247 -1.7679 -0.7300 -0.6489
  327SOL     OW18122   2.348   2.739   7.340 -0.1949  0.4311 -0.4448
  327SOL    HW118123   2.425   2.699   7.381 -1.0711  1.0472  2.0049
  327SOL    HW218124   2.384   2.809   7.285  1.0268  1.0870  1.0958
  328SOL     OW18125   1.804   5.100   7.153  0.2034 -0.6051  0.1900
  328SOL    HW118126   1.718   5.075   7.186  0.6570 -1.7856  0.5418
  328SOL    HW218127   1.793   5.189   7.120 -1.2270 -0.8675 -0.0804
  329SOL     OW18128   4.743   0.649   0.274 -0.0240  0.1140 -0.0781
  329SOL    HW118129   4.657   0.639   0.316 -0.6713  0.6359 -1.2410
  329SOL    HW218130   4.802   0.594   0.326 -1.4901 -2.0252 -0.5791
  330SOL     OW18131   6.268   4.722   0.786  0.1517 -0.4370 -0.5832
  330SOL    HW118132   6.194   4.759   0.835  1.4571  1.0441  0.3560
  330SOL    HW218133   6.301   4.653   0.842  0.5096  0.0367 -0.1988
  331SOL     OW18134   3.792   4.102   0.050 -0.3918  0.4620  0.3546
  331SOL    HW118135   3.757   4.013   0.050  0.8827 -0.0986  2.4603
  331SOL    HW218136   3.822   4.117  -0.039 -3.3666 -0.0304 -0.8563
  332SOL     OW18137   2.621   3.398   0.463 -0.5167  0.2190 -0.2977
  332SOL    HW118138   2.597   3.488   0.486  1.0201  0.5725  0.0034
  332SOL    HW218139   2.561   3.375   0.393 -2.1070  0.8430  0.7948
  333SOL     OW18140   2.891   0.459   6.678  0.1581 -0.1674  0.7959
  333SOL    HW118141   2.981   0.455   6.711  0.2795  1.2063  0.6950
  333SOL    HW218142   2.885   0.387   6.616  1.8769  0.9417 -0.7686
  334SOL     OW18143   0.085   0.151   0.704  1.3055 -0.1319 -0.0459
  334SOL    HW118144   0.021   0.214   0.670  1.0944  0.0154  0.6103
  334SOL    HW218145   0.130   0.198   0.774  1.3182 -0.6323  0.2859
  335SOL     OW18146   4.475   5.726   6.665 -0.4986 -0.1110  0.3327
  335SOL    HW118147   4.413   5.719   6.592  0.5857 -2.5874 -0.4309
  335SOL    HW218148   4.488   5.820   6.675 -3.0428  0.4391 -0.5868
  336SOL     OW18149   6.242   6.089   6.183  0.1700  0.1154  0.1705
  336SOL    HW118150   6.240   6.184   6.192  0.7405  0.2264 -0.7856
  336SOL    HW218151   6.318   6.071   6.127 -0.1846 -0.8775 -0.0222
  337SOL     OW18152   1.489   1.589   0.915 -0.3373 -0.0711 -0.0180
  337SOL    HW118153   1.448   1.623   0.994  1.3781 -3.4682  2.5921
  337SOL    HW218154   1.419   1.542   0.870 -0.2642 -3.5719  3.0264
  338SOL     OW18155   2.998   3.727   0.566  0.3502 -1.1897  0.1873
  338SOL    HW118156   3.013   3.821   0.572 -1.5533 -0.6739 -1.8680
  338SOL    HW218157   2.982   3.700   0.657 -2.6384  1.2028  0.5401
  339SOL     OW18158   0.861   0.001   7.167 -0.1063  0.3046 -0.1174
  339SOL    HW118159   0.842   0.076   7.223  1.0187 -0.4564  1.3707
  339SOL    HW218160   0.913  -0.058   7.223  0.9591 -0.5596 -1.9327
  340SOL     OW18161   3.812   0.993   1.723  0.4074  0.0793  0.0028
  340SOL    HW118162   3.748   1.064   1.723  1.8337  1.4342 -0.1990
  340SOL    HW218163   3.803   0.951   1.809 -3.3303 -2.3187 -1.3191
  341SOL     OW18164   4.873   5.548   5.123  0.6317  0.0980  0.6041
  341SOL    HW118165   4.958   5.519   5.156 -0.7045  0.5724  5.1843
  341SOL    HW218166   4.883   5.643   5.114  0.5841  0.1643  1.2181
  342SOL     OW18167   3.044   0.194   7.063  0.1726 -0.1867 -0.7571
  342SOL    HW118168   3.128   0.224   7.097 -0.4147 -0.5271  1.0743
  342SOL    HW218169   3.062   0.107   7.027  0.7217  0.0247 -1.0011
  343SOL     OW18170   6.235   1.405   0.072  0.2373 -0.3371  0.5121
  343SOL    HW118171   6.207   1.347   0.143 -0.3220 -0.5287  0.1417
  343SOL    HW218172   6.202   1.363  -0.007 -1.4729  1.2087  0.3357
  344SOL     OW18173   4.830   3.248   1.266  0.1257  0.3464  0.5789
  344SOL    HW118174   4.853   3.321   1.324  0.6665 -0.1777  1.0355
  344SOL    HW218175   4.786   3.185   1.323 -1.4332  0.8179 -0.0498
  345SOL     OW18176   0.946   1.407   0.600 -1.0324  0.3370 -0.6710
  345SOL    HW118177   0.909   1.325   0.630 -1.1155  0.6328  0.0394
  345SOL    HW218178   0.900   1.475   0.650 -0.7361  0.8015 -1.0128
  346SOL     OW18179   1.902   4.957   7.395  0.0396  0.0422  0.0473
  346SOL    HW118180   1.883   4.976   7.303 -2.6057 -0.3541  0.4301
  346SOL    HW218181   1.978   5.012   7.416 -1.3254  2.6925 -1.4825
  347SOL     OW18182   2.764   0.882   0.921  0.2223  0.6059 -0.2375
  347SOL    HW118183   2.778   0.893   1.015  0.3421 -1.7565  0.0791
  347SOL    HW218184   2.848   0.849   0.888 -0.0552  0.6710 -1.0428
  348SOL     OW18185   3.865   4.833   0.486 -0.2153 -0.2124  0.4862
  348SOL    HW118186   3.850   4.885   0.407  0.7260  0.0693  0.4797
  348SOL    HW218187   3.798   4.764   0.483  1.4522 -1.9059 -2.0108
  349SOL     OW18188   2.365   5.972   0.245  0.4265  0.0610  0.4282
  349SOL    HW118189   2.339   6.059   0.274  1.3549  0.2881  0.6179
  349SOL    HW218190   2.405   5.932   0.323  2.4717  0.4776 -0.3454
  350SOL     OW18191   5.430   0.889   6.987 -0.0755 -0.1946 -0.3487
  350SOL    HW118192   5.353   0.883   6.930  0.6128 -0.1119 -1.3092
  350SOL    HW218193   5.448   0.982   6.993 -1.3374 -0.0186  1.6878
  351SOL     OW18194   1.913   4.578   6.077 -0.3542  0.0069 -0.4526
  351SOL    HW118195   1.879   4.623   6.000  0.9642  0.4124 -0.8306
  351SOL    HW218196   1.966   4.506   6.041  1.0310  0.7515  0.0125
  352SOL     OW18197   1.328   4.138   7.021  0.1435 -0.3302  1.0009
  352SOL    HW118198   1.361   4.217   6.980  0.1064 -1.2275 -0.8231
  352SOL    HW218199   1.372   4.135   7.106  0.5260  1.3606  0.8882
  353SOL     OW18200   4.210   3.716   0.233  0.3526 -0.0952 -0.0089
  353SOL    HW118201   4.285   3.776   0.227 -0.7298  1.3483  0.2500
  353SOL    HW218202   4.171   3.718   0.145 -1.3501  1.9233  0.6945
  354SOL     OW18203   0.783   4.644   6.819 -0.2012 -0.3572  0.0212
  354SOL    HW118204   0.797   4.613   6.908  1.9959  2.6856  0.8758
  354SOL    HW218205   0.871   4.658   6.784 -1.0395 -0.1718 -2.1739
  355SOL     OW18206   0.383   4.150   2.244  0.1231  0.0704 -0.3235
  355SOL    HW118207   0.366   4.110   2.159  0.1897  0.7039 -0.6415
  355SOL    HW218208   0.410   4.077   2.300 -2.0858 -0.7377 -0.2114
  356SOL     OW18209   5.654   0.389   6.256 -0.0983  0.2445 -0.1600
  356SOL    HW118210   5.671   0.483   6.261 -0.3499  0.2584  0.7526
  356SOL    HW218211   5.664   0.367   6.164 -0.6976  1.2924 -0.4862
  357SOL     OW18212   4.371   3.163   6.098 -0.5980  0.5512 -0.4948
  357SOL    HW118213   4.449   3.141   6.046  0.3381  0.7392  0.7639
  357SOL    HW218214   4.310   3.091   6.081  0.5016 -0.4873 -0.2216
  358SOL     OW18215   5.135   5.912   5.837 -0.2615  0.9306  0.1013
  358SOL    HW118216   5.172   5.870   5.915 -0.1305  1.1334  0.1501
  358SOL    HW218217   5.208   5.917   5.776 -0.6334 -0.2227 -0.4522
  359SOL     OW18218   2.839   5.985   7.137  0.2860  0.0651 -0.1225
  359SOL    HW118219   2.895   5.949   7.069  0.5790 -0.1225  0.2125
  359SOL    HW218220   2.756   5.939   7.126 -0.3090  1.4059 -1.5702
  360SOL     OW18221   5.596   3.324   1.623  0.2810 -0.1939 -0.0563
  360SOL    HW118222   5.668   3.371   1.665  1.4691 -0.7252 -1.4325
  360SOL    HW218223   5.529   3.318   1.691  1.2532  0.9148  1.0488
  361SOL     OW18224   4.690   3.342   6.124  0.0699  0.4765 -0.3192
  361SOL    HW118225   4.648   3.277   6.069 -0.5209  0.3601  0.2679
  361SOL    HW218226   4.665   3.319   6.213 -0.1849  1.5258 -0.1057
  362SOL     OW18227   1.391   1.957   7.357 -0.6882  0.0584 -0.3227
  362SOL    HW118228   1.423   2.039   7.393 -0.9823  0.0189  0.0348
  362SOL    HW218229   1.467   1.919   7.314 -0.8018  0.9954 -1.3843
  363SOL     OW18230   4.981   1.873   1.459  0.4187  0.1426 -0.6540
  363SOL    HW118231   4.952   1.959   1.429  0.2942  0.2491 -0.2318
  363SOL    HW218232   5.076   1.881   1.467  0.3283  0.5176  0.2269
  364SOL     OW18233   3.543   5.117   2.071 -0.0194 -0.7836 -0.2339
  364SOL    HW118234   3.519   5.151   1.985 -0.3229 -1.3875 -0.3903
  364SOL    HW218235   3.635   5.092   2.061 -0.0559 -0.8588 -0.3845
  365SOL     OW18236   4.367   0.469   5.632  0.2513  0.3938  0.3680
  365SOL    HW118237   4.273   0.480   5.647  0.0403  0.2616 -0.7204
  365SOL    HW218238   4.379   0.490   5.539  1.0605 -0.9288  0.1385
  366SOL     OW18239   1.734   5.894   6.599  0.1672  0.3247 -0.4129
  366SOL    HW118240   1.701   5.952   6.667  0.9304  0.3537 -0.0553
  366SOL    HW218241   1.765   5.953   6.530  0.1082  0.3168 -0.4458
  367SOL     OW18242   3.172   5.082   0.123  0.0250 -0.0676  0.2455
  367SOL    HW118243   3.115   5.012   0.156  0.4551 -0.8700 -0.6814
  367SOL    HW218244   3.115   5.133   0.066 -0.6792  1.2297  2.0135
  368SOL     OW18245   5.241   5.907   0.405  0.1285  0.1952 -0.1973
  368SOL    HW118246   5.157   5.902   0.359 -0.1217  1.6951  0.0638
  368SOL    HW218247   5.270   5.816   0.410 -1.1395 -0.2804 -0.9118
  369SOL     OW18248   6.478   0.923   0.295  0.0024 -0.1413 -0.2726
  369SOL    HW118249   6.485   0.860   0.367  2.2121 -0.3987 -0.6441
  369SOL    HW218250   6.403   0.893   0.245 -0.3617 -1.1408  0.8152
  370SOL     OW18251   6.476   3.199   5.179  0.2169 -0.2494 -0.0302
  370SOL    HW118252   6.553   3.155   5.214  1.5422  1.7998 -0.1822
  370SOL    HW218253   6.444   3.140   5.111  1.8372 -1.0323 -0.1695
  371SOL     OW18254   2.167   3.078   6.370  0.3603  0.0642  0.2996
  371SOL    HW118255   2.151   3.013   6.438  2.0731 -1.5644 -0.7489
  371SOL    HW218256   2.249   3.119   6.396  1.6919 -1.4122 -1.2757
  372SOL     OW18257   5.208   0.494   6.710  0.9029  0.0783 -0.6186
  372SOL    HW118258   5.190   0.530   6.623 -1.1540 -1.4155 -0.9106
  372SOL    HW218259   5.141   0.533   6.766  1.8542  0.5786  0.1942
  373SOL     OW18260   6.121   0.455   6.399  0.2259  0.2989 -0.1893
  373SOL    HW118261   6.027   0.442   6.407  0.2502 -0.0718 -0.4688
  373SOL    HW218262   6.138   0.447   6.305  0.8016 -1.5274  0.0339
  374SOL     OW18263   5.358   2.691   6.282 -0.0296  0.4690 -0.1785
  374SOL    HW118264   5.282   2.654   6.237 -0.7755  1.6259  0.1062
  374SOL    HW218265   5.325   2.770   6.324  1.9159  2.5933 -2.3606
  375SOL     OW18266   3.279   6.164   0.971  0.2172 -0.4352  0.3750
  375SOL    HW118267   3.237   6.194   1.052 -1.1158  0.8230 -0.7265
  375SOL    HW218268   3.369   6.196   0.978  0.5661 -1.6095  1.9744
  376SOL     OW18269   3.857   4.934   5.243 -0.2225  0.0750  0.0134
  376SOL    HW118270   3.882   4.852   5.285  1.4858  1.9707  3.1325
  376SOL    HW218271   3.940   4.981   5.232 -1.3070  2.3232  0.6516
  377SOL     OW18272   2.029   3.370   5.458 -0.2883  0.3063 -0.1839
  377SOL    HW118273   2.025   3.464   5.443 -1.0856  0.4864  0.9717
  377SOL    HW218274   2.001   3.331   5.375 -1.1005  1.1315 -0.3198
  378SOL     OW18275   5.058   4.027   6.521 -0.7050  0.4915 -0.5525
  378SOL    HW118276   5.127   4.082   6.557  0.1840 -0.2265 -1.0937
  378SOL    HW218277   5.058   4.046   6.427 -2.7783  2.1135 -0.2909
  379SOL     OW18278   2.880   1.856   1.035  0.0678 -0.3878 -0.2787
  379SOL    HW118279   2.906   1.821   0.950  0.7608 -2.0475  0.5847
  379SOL    HW218280   2.905   1.788   1.098 -0.3303  0.8525  1.2695
  380SOL     OW18281   4.681   1.075   6.811 -0.5472  0.1917 -0.2764
  380SOL    HW118282   4.691   1.015   6.885 -0.0667  1.3696  0.6402
  380SOL    HW218283   4.669   1.161   6.851  2.7912  1.3907 -1.4557
  381SOL     OW18284   6.267   6.380   5.785 -0.0655  0.0140 -0.3031
  381SOL    HW118285   6.260   6.288   5.760 -0.2985 -0.2221  0.5925
  381SOL    HW218286   6.362   6.398   5.783 -0.0279 -0.2178 -0.5718
  382SOL     OW18287   0.396   1.676   0.099  0.4313 -0.5568 -0.0251
  382SOL    HW118288   0.462   1.701   0.035 -2.2231  0.4681 -2.5888
  382SOL    HW218289   0.396   1.747   0.163  1.6429 -0.5010 -0.0572
  383SOL     OW18290   5.673   2.177   1.264  0.1823  0.0766 -0.1956
  383SOL    HW118291   5.599   2.197   1.207 -1.2400  0.4431  1.6611
  383SOL    HW218292   5.684   2.082   1.258 -0.1430  0.0737 -0.8194
  384SOL     OW18293   4.613   4.509   6.598 -0.1834  0.3066 -0.7957
  384SOL    HW118294   4.528   4.493   6.639  0.5066  0.1933  0.6742
  384SOL    HW218295   4.654   4.423   6.594  0.1749  0.4718 -0.7390
  385SOL     OW18296   5.767   0.332   0.082 -0.1910 -1.0460  0.1976
  385SOL    HW118297   5.706   0.259   0.077 -1.6700  0.1656 -0.0837
  385SOL    HW218298   5.739   0.393   0.014  0.7971 -0.0552  0.6311
  386SOL     OW18299   4.360   5.320   1.711  0.3691  0.1918 -0.2807
  386SOL    HW118300   4.385   5.231   1.687 -0.2570  0.6458 -3.0457
  386SOL    HW218301   4.434   5.374   1.682  1.2211  0.5473  2.3414
  387SOL     OW18302   4.616   4.745   1.331  0.0004 -0.0186  0.2727
  387SOL    HW118303   4.704   4.744   1.292  0.0912  0.6038  0.4387
  387SOL    HW218304   4.558   4.714   1.262  0.1267  1.2907 -0.4513
  388SOL     OW18305   2.754   5.910   5.424 -0.1835  0.4073 -0.3340
  388SOL    HW118306   2.829   5.928   5.480  1.5071 -0.6656 -2.1417
  388SOL    HW218307   2.763   5.973   5.352 -0.3877 -0.4481 -1.1205
  389SOL     OW18308   2.501   3.173   2.030  0.4064 -0.2324 -0.5986
  389SOL    HW118309   2.558   3.147   2.103 -1.8419  1.0048  1.7651
  389SOL    HW218310   2.436   3.103   2.024 -0.2223  0.3312 -0.4580
  390SOL     OW18311   3.585   4.217   5.298  0.2861 -0.7560  0.4671
  390SOL    HW118312   3.629   4.187   5.377  2.9889 -0.1056 -0.6804
  390SOL    HW218313   3.589   4.141   5.239  0.4700 -0.4850  0.1272
  391SOL     OW18314   0.952   6.194   0.240 -0.5640  0.0980  0.4866
  391SOL    HW118315   0.970   6.279   0.279 -1.4903  0.5132  0.0419
  391SOL    HW218316   0.948   6.134   0.314  0.4780  0.3664  0.7683
  392SOL     OW18317   2.368   6.103   6.008 -0.6895 -1.1130 -0.2708
  392SOL    HW118318   2.454   6.062   5.996 -0.4560 -0.4536 -0.8885
  392SOL    HW218319   2.385   6.197   6.006 -1.1170 -0.9438  1.9141
  393SOL     OW18320   5.824   3.409   6.469 -0.5962 -0.3416 -0.4051
  393SOL    HW118321   5.743   3.363   6.488  0.4333 -0.7611  4.2909
  393SOL    HW218322   5.890   3.366   6.524  0.7755  5.4378  3.4572
  394SOL     OW18323   1.997   5.496   6.871  0.2204  0.1724 -0.0851
  394SOL    HW118324   2.085   5.533   6.864  0.2078  0.0777 -0.8525
  394SOL    HW218325   1.951   5.531   6.794 -0.4081  0.2166  0.3108
  395SOL     OW18326   5.724   0.016   5.399  0.0000  0.0784 -0.2411
  395SOL    HW118327   5.765  -0.047   5.339  1.1089  0.8161 -0.2910
  395SOL    HW218328   5.792   0.081   5.415 -0.3767  0.0871  1.5513
  396SOL     OW18329   0.042   4.476   7.445  0.6640  0.8858 -0.3174
  396SOL    HW118330   0.015   4.426   7.523  1.1486  1.0487 -0.0384
  396SOL    HW218331  -0.032   4.533   7.426 -0.6492 -1.1631 -1.7132
  397SOL     OW18332   1.740   3.535   0.646  0.0886 -0.0428 -0.3657
  397SOL    HW118333   1.817   3.591   0.636 -0.1818  0.0687 -1.9896
  397SOL    HW218334   1.667   3.597   0.654  0.2154 -0.1151  2.2803
  398SOL     OW18335   6.087   5.614   0.916 -0.6308  0.3693  1.1009
  398SOL    HW118336   6.114   5.677   0.983 -0.3019 -0.5396  1.8500
  398SOL    HW218337   6.168   5.592   0.870 -1.0495  1.9880 -0.5253
  399SOL     OW18338   1.494   1.590   6.721  0.1288 -0.6492 -0.2128
  399SOL    HW118339   1.428   1.535   6.679 -1.6735  1.7559 -0.7749
  399SOL    HW218340   1.492   1.672   6.671 -0.1663  1.3764  2.8515
  400SOL     OW18341   2.323   0.392   1.502  0.3020  0.4010  0.6100
  400SOL    HW118342   2.414   0.410   1.477  0.3664  2.0178  1.9062
  400SOL    HW218343   2.331   0.332   1.576  0.2347 -0.6943 -0.2401
  401SOL     OW18344   4.486   1.100   7.225 -0.1103  0.1697  0.4057
  401SOL    HW118345   4.447   1.158   7.291  0.4389  1.4562 -0.3674
  401SOL    HW218346   4.450   1.130   7.142  1.7296  0.7769 -0.2312
  402SOL     OW18347   2.891   3.558   1.532  0.6460  0.1369  0.0858
  402SOL    HW118348   2.888   3.489   1.599  0.6785  0.7216  0.7037
  402SOL    HW218349   2.805   3.598   1.535  0.3318 -0.4370 -0.8910
  403SOL     OW18350   3.939   5.234   5.449  0.8261  0.4720  0.6765
  403SOL    HW118351   3.953   5.142   5.471  1.4667  0.9171  2.2941
  403SOL    HW218352   3.855   5.256   5.490 -0.6360 -0.0108 -1.8827
  404SOL     OW18353   6.302   4.314   7.061  0.2324 -0.3736  0.6237
  404SOL    HW118354   6.381   4.368   7.063 -0.5399  0.7918  1.8299
  404SOL    HW218355   6.326   4.237   7.010  1.0971  1.5204 -2.0638
  405SOL     OW18356   5.371   0.307   0.300  0.7335 -0.4713 -0.3122
  405SOL    HW118357   5.278   0.300   0.276 -0.0579  3.9010  0.6985
  405SOL    HW218358   5.415   0.331   0.218  0.5049  0.0936 -0.2718
  406SOL     OW18359   2.542   5.670   2.171 -0.1435 -0.6965 -0.7924
  406SOL    HW118360   2.521   5.586   2.129 -2.2345  0.0913 -1.4505
  406SOL    HW218361   2.479   5.731   2.134  2.2154  1.5393 -1.3979
  407SOL     OW18362   6.596   3.574   5.903  0.7802  0.0379  0.0856
  407SOL    HW118363   6.547   3.586   5.985  1.3833  1.3235  0.2889
  407SOL    HW218364   6.607   3.479   5.895 -1.2648 -0.2657  0.2962
  408SOL     OW18365   5.833   4.586   0.177  0.0999  0.0013  0.0540
  408SOL    HW118366   5.794   4.579   0.090  2.1452  1.1487 -1.0343
  408SOL    HW218367   5.762   4.616   0.233 -0.9538  0.5154 -1.4941
  409SOL     OW18368   0.820   3.090   6.769 -0.2529 -0.1018  0.0923
  409SOL    HW118369   0.776   3.105   6.853 -0.3695  1.9330 -0.2847
  409SOL    HW218370   0.834   3.178   6.733  0.6058 -0.8886 -1.6143
  410SOL     OW18371   4.428   4.441   6.052  0.2133  0.2009  0.1293
  410SOL    HW118372   4.419   4.511   5.987 -0.1219 -0.5745 -0.6820
  410SOL    HW218373   4.355   4.456   6.112 -0.3214  0.1018 -0.4801
  411SOL     OW18374   2.872   2.447   7.456  0.1433 -0.4336  0.2559
  411SOL    HW118375   2.953   2.492   7.432  1.6692 -2.9460  0.3564
  411SOL    HW218376   2.880   2.433   7.551  0.4689 -2.1718  0.0133
  412SOL     OW18377   0.388   2.997   6.678  0.4312  0.4435 -0.1821
  412SOL    HW118378   0.313   2.950   6.715 -0.6104  1.1038 -1.3442
  412SOL    HW218379   0.440   2.930   6.635  0.9820 -0.1458  1.3275
  413SOL     OW18380   4.960   0.333   5.862  0.1077 -0.4423  0.2139
  413SOL    HW118381   4.975   0.367   5.774  1.8005 -2.3654 -0.2975
  413SOL    HW218382   4.892   0.266   5.851  1.6033 -1.9738  0.0085
  414SOL     OW18383   2.525   3.739   6.935  0.0189  0.9580 -0.5581
  414SOL    HW118384   2.598   3.748   6.875  3.0455 -2.8291  2.0990
  414SOL    HW218385   2.545   3.799   7.007 -0.8145  1.6483 -0.8837
  415SOL     OW18386   1.401   0.262   6.046  0.1501  0.4372  0.2895
  415SOL    HW118387   1.487   0.246   6.007 -0.1483  0.7902 -0.5399
  415SOL    HW218388   1.388   0.356   6.037 -1.3434  0.1098 -1.8690
  416SOL     OW18389   0.078   6.588   1.217 -0.3763  0.1571 -0.7640
  416SOL    HW118390   0.032   6.504   1.227  0.9794 -0.5541 -0.2742
  416SOL    HW218391   0.013   6.646   1.178 -1.2027 -1.2525 -1.5819
  417SOL     OW18392   4.795   2.241   6.221  0.3185 -0.3013 -0.8988
  417SOL    HW118393   4.881   2.223   6.184  2.3498  1.8219  2.3361
  417SOL    HW218394   4.772   2.328   6.190  0.7689  0.3496  0.4997
  418SOL     OW18395   6.363   5.407   6.410  0.1259  0.6390  0.2879
  418SOL    HW118396   6.329   5.490   6.380 -1.8278 -0.3232 -0.3106
  418SOL    HW218397   6.346   5.406   6.505  0.1946  0.9310  0.3027
  419SOL     OW18398   4.507   3.418   0.110  0.1314  0.4317 -0.3712
  419SOL    HW118399   4.542   3.409   0.198 -1.3010  0.3226  0.2166
  419SOL    HW218400   4.502   3.513   0.095 -1.6410  0.5226  0.5478
  420SOL     OW18401   0.361   0.481   7.312 -0.3636 -0.1121  0.5047
  420SOL    HW118402   0.415   0.519   7.243 -0.9218  0.5911  0.4381
  420SOL    HW218403   0.280   0.455   7.268 -1.4883  2.0264  1.1477
  421SOL     OW18404   4.638   3.024   7.486  0.0436 -0.4807 -0.2710
  421SOL    HW118405   4.614   3.093   7.424  0.6521 -1.6910 -1.9158
  421SOL    HW218406   4.556   3.002   7.531 -0.8756 -0.9745 -2.1012
  422SOL     OW18407   1.530   1.917   1.633  0.4442  0.8082  0.6157
  422SOL    HW118408   1.507   1.927   1.726  0.5712 -1.0420  0.8753
  422SOL    HW218409   1.451   1.883   1.592 -0.7014  4.5162 -0.6707
  423SOL     OW18410   5.158   6.274   0.562 -0.0582 -0.0146 -0.6378
  423SOL    HW118411   5.226   6.271   0.629 -1.6437 -0.4377  1.0311
  423SOL    HW218412   5.134   6.183   0.548 -2.5634  0.2322  1.3330
  424SOL     OW18413   3.572   5.117   5.413 -0.2826  0.1229  0.6233
  424SOL    HW118414   3.492   5.121   5.466 -0.7749  2.1698 -0.1737
  424SOL    HW218415   3.564   5.191   5.353  0.2676 -1.9941 -2.2987
  425SOL     OW18416   0.543   0.465   1.066  0.0463 -0.2873  0.6272
  425SOL    HW118417   0.454   0.471   1.102 -0.3411 -1.0832 -0.1446
  425SOL    HW218418   0.600   0.472   1.142 -0.7614 -2.3845  1.5283
  426SOL     OW18419   6.454   4.534   0.415  0.0488 -0.2331  0.7427
  426SOL    HW118420   6.389   4.473   0.449  1.0344 -0.8118  1.6778
  426SOL    HW218421   6.510   4.553   0.490  0.8040  0.4411  0.0309
  427SOL     OW18422   2.396   4.117   5.766 -0.4519 -0.0999 -0.1639
  427SOL    HW118423   2.479   4.070   5.757 -1.2824 -1.1358 -4.0404
  427SOL    HW218424   2.340   4.058   5.816  0.3980 -0.3955  0.4648
  428SOL     OW18425   4.339   5.367   1.361  0.3427 -0.7880 -0.1452
  428SOL    HW118426   4.283   5.415   1.301 -2.1535 -1.6727  1.3105
  428SOL    HW218427   4.427   5.371   1.322 -0.8570 -0.0123 -2.9632
  429SOL     OW18428   0.212   4.485   6.147  0.0462  0.7442 -0.2936
  429SOL    HW118429   0.210   4.449   6.235 -0.4965 -0.3589 -0.7452
  429SOL    HW218430   0.304   4.504   6.131  0.0503  1.7225  0.8032
  430SOL     OW18431   5.192   4.881   6.651  0.9438 -0.1763 -0.7209
  430SOL    HW118432   5.252   4.879   6.725  0.8267 -1.8717 -0.6418
  430SOL    HW218433   5.196   4.793   6.614  3.1074  1.2529 -4.4847
  431SOL     OW18434   1.828   2.199   0.680  0.1745 -0.0976 -0.2145
  431SOL    HW118435   1.773   2.261   0.727  0.3160 -0.6676  0.7297
  431SOL    HW218436   1.852   2.133   0.746  2.6353  0.5505 -0.3654
  432SOL     OW18437   0.217   4.012   0.984  0.7830  0.2692  0.4666
  432SOL    HW118438   0.267   4.080   0.938  1.0543 -1.7660 -2.5182
  432SOL    HW218439   0.142   3.994   0.928  1.0719 -2.3229  0.7567
  433SOL     OW18440   2.858   2.801   1.182 -0.1466 -0.4375 -0.3200
  433SOL    HW118441   2.891   2.886   1.154  0.2069 -0.3053  0.4744
  433SOL    HW218442   2.767   2.800   1.152  0.3311 -0.4909 -1.8450
  434SOL     OW18443   2.642   3.319   6.988 -0.2719  0.0278  0.4548
  434SOL    HW118444   2.725   3.366   6.993  0.3194 -1.0366  1.1122
  434SOL    HW218445   2.664   3.237   6.943 -1.0195 -0.1459  0.3915
  435SOL     OW18446   4.855   4.327   6.830 -0.1917 -0.3042 -0.4885
  435SOL    HW118447   4.874   4.420   6.821  0.3305 -0.3999 -0.4041
  435SOL    HW218448   4.824   4.300   6.744 -1.6444  0.2313 -0.1730
  436SOL     OW18449   5.692   4.080   0.339  0.4757  0.4771 -0.7721
  436SOL    HW118450   5.747   4.004   0.357 -0.5764 -0.2228 -0.4377
  436SOL    HW218451   5.755   4.151   0.323  1.4910 -0.7006 -2.2914
  437SOL     OW18452   4.048   5.431   0.596  0.1481 -0.0523  0.4661
  437SOL    HW118453   4.085   5.500   0.651  0.9054 -1.6203  2.0018
  437SOL    HW218454   4.039   5.356   0.654 -0.4857 -1.3248 -1.1998
  438SOL     OW18455   4.568   1.954   6.529  0.1810  0.3003  0.4364
  438SOL    HW118456   4.598   1.872   6.570 -0.4809  0.2266  0.8034
  438SOL    HW218457   4.611   1.956   6.444  0.9036  0.0122  0.7872
  439SOL     OW18458   2.674   3.154   6.781  0.2466  0.0651  0.1932
  439SOL    HW118459   2.740   3.085   6.785  0.3040 -0.2142 -3.0940
  439SOL    HW218460   2.595   3.111   6.749 -1.5321  0.5100  3.5219
  440SOL     OW18461   0.026   2.666   1.074 -0.2142 -0.5298 -0.4569
  440SOL    HW118462   0.070   2.739   1.118  0.4422 -0.0964 -1.7830
  440SOL    HW218463  -0.055   2.653   1.125  0.1234  0.4672  0.3805
  441SOL     OW18464   4.571   3.110   5.564 -0.5953  0.2744 -0.0196
  441SOL    HW118465   4.613   3.024   5.560 -1.0046  0.1164 -1.9987
  441SOL    HW218466   4.626   3.160   5.624  2.8636  0.2196 -2.7907
  442SOL     OW18467   6.031   5.930   6.086  0.3351 -0.2861 -0.4155
  442SOL    HW118468   6.087   5.874   6.033  1.3576  1.3284 -1.1398
  442SOL    HW218469   6.091   5.968   6.151 -0.0632  0.8612 -0.7003
  443SOL     OW18470   5.304   3.013   1.013 -0.2139 -0.0293  0.4912
  443SOL    HW118471   5.372   2.979   1.072  0.7540  1.1796  0.1204
  443SOL    HW218472   5.326   3.105   1.003 -2.7230  0.7600  1.4263
  444SOL     OW18473   5.934   3.467   0.493 -0.2562  0.4956 -0.2000
  444SOL    HW118474   5.893   3.409   0.558  0.6188 -0.2435 -0.2997
  444SOL    HW218475   5.998   3.517   0.543 -0.7798  1.1564 -0.1788
  445SOL     OW18476   4.025   3.287   7.257 -0.4112 -0.4492  0.7754
  445SOL    HW118477   3.964   3.354   7.288  0.5161  0.9743 -0.3286
  445SOL    HW218478   4.046   3.314   7.167 -0.9103 -2.8943 -0.1430
  446SOL     OW18479   1.016   6.487   7.367  0.4176  0.0605 -0.6574
  446SOL    HW118480   1.110   6.503   7.373  0.5258 -0.7298 -0.0564
  446SOL    HW218481   0.979   6.537   7.440  0.2965  0.8927 -1.2849
  447SOL     OW18482   5.574   6.412   0.072  0.1141 -0.0358  0.0139
  447SOL    HW118483   5.585   6.462   0.153  0.4936  0.0662 -0.0996
  447SOL    HW218484   5.481   6.389   0.070  0.6557 -2.9802  2.2089
  448SOL     OW18485   1.004   1.877   6.203 -0.5973 -0.4592  0.0427
  448SOL    HW118486   1.025   1.847   6.115  3.0014  1.4232  0.0816
  448SOL    HW218487   1.082   1.859   6.255 -1.0867  1.9484  1.8592
  449SOL     OW18488   1.305   1.560   0.636  0.3777  0.4792  0.4375
  449SOL    HW118489   1.307   1.503   0.560 -0.4873  1.7773 -0.5937
  449SOL    HW218490   1.392   1.601   0.638 -0.2306  1.9677 -1.1060
  450SOL     OW18491   1.233   0.531   0.914 -0.8472  0.0649 -0.5383
  450SOL    HW118492   1.288   0.477   0.857 -1.0674 -0.2777 -0.4330
  450SOL    HW218493   1.294   0.578   0.970 -0.6891 -1.1974  0.3730
  451SOL     OW18494   5.876   2.324   7.148 -0.5555 -0.1295  0.3558
  451SOL    HW118495   5.886   2.347   7.241 -0.4086  0.1118  0.2802
  451SOL    HW218496   5.959   2.350   7.108  0.0967 -1.8891  0.4799
  452SOL     OW18497   4.421   1.779   5.879  0.0523 -0.1944  0.2640
  452SOL    HW118498   4.387   1.696   5.846  1.0474 -0.8055  0.7226
  452SOL    HW218499   4.344   1.836   5.886 -0.4894 -0.7423 -1.0131
  453SOL     OW18500   2.796   1.947   6.847  0.1212 -0.3924  0.1572
  453SOL    HW118501   2.814   1.967   6.938  0.9045  0.6050 -0.1989
  453SOL    HW218502   2.830   2.022   6.798  1.0460 -1.5533 -1.0705
  454SOL     OW18503   0.853   0.922   0.586  0.0016  0.1712  0.2216
  454SOL    HW118504   0.933   0.944   0.539 -0.2369 -0.4723 -0.5271
  454SOL    HW218505   0.831   0.834   0.554  1.3883 -1.6175  3.6978
  455SOL     OW18506   1.203   5.857   5.764 -0.3249 -0.0146 -0.0082
  455SOL    HW118507   1.176   5.795   5.695 -0.0914  0.1023 -0.2065
  455SOL    HW218508   1.121   5.887   5.803 -0.4796  0.2576 -0.5347
  456SOL     OW18509   0.224   5.500   1.897  0.3883  0.0349  0.2749
  456SOL    HW118510   0.135   5.534   1.893  0.4207  0.1721  0.6879
  456SOL    HW218511   0.264   5.546   1.971  0.6519 -0.3683  0.3877
  457SOL     OW18512   6.267   4.238   1.812  0.0749 -0.8607  0.9274
  457SOL    HW118513   6.357   4.268   1.823  0.3314 -2.0996  2.5709
  457SOL    HW218514   6.215   4.295   1.868 -0.1593 -0.2408  0.0937
  458SOL     OW18515   4.016   0.740   1.907  0.3311  0.4102 -0.4458
  458SOL    HW118516   4.034   0.722   2.000 -3.7174 -0.4675  0.3579
  458SOL    HW218517   3.960   0.818   1.909 -0.0784  0.1819 -2.0984
  459SOL     OW18518   5.344   4.845   5.285  0.5816 -0.1642 -0.5759
  459SOL    HW118519   5.405   4.915   5.310  0.8197 -0.7736  0.6101
  459SOL    HW218520   5.263   4.891   5.263  0.3554  0.4662  1.3384
  460SOL     OW18521   6.244   5.646   0.080 -0.2139 -0.1160  0.4051
  460SOL    HW118522   6.307   5.605   0.021 -1.5909 -2.1326  0.2329
  460SOL    HW218523   6.279   5.734   0.096  2.3718 -0.9962 -0.0254
  461SOL     OW18524   6.592   1.071   2.231  0.3118 -0.0352 -0.3634
  461SOL    HW118525   6.535   0.995   2.222  2.0755 -1.5653  0.8326
  461SOL    HW218526   6.536   1.138   2.271 -0.8887 -1.2008 -0.0268
  462SOL     OW18527   1.553   5.550   0.797  0.0551  0.2242 -0.1877
  462SOL    HW118528   1.633   5.518   0.839 -1.3957 -1.7757  1.2242
  462SOL    HW218529   1.503   5.590   0.868 -0.8616  0.0734 -0.7262
  463SOL     OW18530   2.081   4.298   6.513 -0.1887 -0.6535  0.6696
  463SOL    HW118531   2.100   4.388   6.487  0.2312 -0.2918  2.0921
  463SOL    HW218532   2.149   4.246   6.469 -0.1187 -0.2139  0.2471
  464SOL     OW18533   4.154   4.823   7.388  0.0907 -0.2751 -0.0997
  464SOL    HW118534   4.236   4.872   7.373 -0.6230  0.7686 -0.7388
  464SOL    HW218535   4.170   4.738   7.348  1.3178 -0.5647  0.9154
  465SOL     OW18536   3.286   2.017   0.768  0.3044 -0.3970 -0.0305
  465SOL    HW118537   3.337   1.940   0.789  1.6068  0.7186  1.0984
  465SOL    HW218538   3.327   2.088   0.818 -2.3945  0.5658  1.0409
  466SOL     OW18539   0.991   1.272   7.344  0.4856 -0.0760  0.6565
  466SOL    HW118540   0.923   1.337   7.328 -0.5179 -1.2583 -0.0748
  466SOL    HW218541   1.006   1.276   7.438  0.3384  1.1010  0.6452
  467SOL     OW18542   2.940   5.335   1.312  0.0028 -0.5086  0.0900
  467SOL    HW118543   3.018   5.364   1.359  0.5441 -2.5252  0.5303
  467SOL    HW218544   2.885   5.295   1.380 -0.6581 -0.6198 -0.4974
  468SOL     OW18545   0.840   2.994   6.519 -0.0559 -0.2760 -0.2904
  468SOL    HW118546   0.862   3.016   6.610 -1.2938 -1.5051  0.3486
  468SOL    HW218547   0.795   3.072   6.487  0.0906  0.0485  0.2702
  469SOL     OW18548   2.596   0.079   6.680 -0.4082 -0.1931 -0.0973
  469SOL    HW118549   2.581  -0.011   6.652 -1.6687  0.0587 -0.3042
  469SOL    HW218550   2.515   0.105   6.724  0.1408  0.6612  0.4465
  470SOL     OW18551   1.481   6.443   7.023 -0.1377 -0.0080 -0.0731
  470SOL    HW118552   1.504   6.532   6.998 -1.6322  0.1238 -1.1051
  470SOL    HW218553   1.386   6.444   7.033 -0.3203 -1.7354 -1.1939
  471SOL     OW18554   2.965   5.964   5.812  0.0212 -0.0334 -0.0831
  471SOL    HW118555   2.927   6.026   5.750 -0.0619 -0.5175 -0.5249
  471SOL    HW218556   3.001   5.894   5.757 -1.6046 -1.3467  0.4618
  472SOL     OW18557   3.757   2.731   0.557 -0.1811  0.0913  0.3832
  472SOL    HW118558   3.767   2.674   0.633 -0.5514 -1.1578 -0.4631
  472SOL    HW218559   3.819   2.802   0.572  0.6017 -0.7475  1.2949
  473SOL     OW18560   4.858   0.229   0.280  0.2284  0.2983  0.4278
  473SOL    HW118561   4.834   0.143   0.245 -1.2175  1.1130 -0.6693
  473SOL    HW218562   4.817   0.233   0.366  0.0171  0.0101  0.3422
  474SOL     OW18563   5.311   5.221   6.377 -0.4052 -0.3404  0.2372
  474SOL    HW118564   5.314   5.165   6.455 -1.4640 -1.4771 -0.4968
  474SOL    HW218565   5.338   5.307   6.408  2.9414 -1.5338  1.0913
  475SOL     OW18566   4.192   0.100   6.190 -0.2428 -0.2478  0.0538
  475SOL    HW118567   4.172   0.139   6.275  2.4872 -0.3109  0.8256
  475SOL    HW218568   4.170   0.168   6.126 -0.7790  0.4298  0.9322
  476SOL     OW18569   3.675   0.549   1.125  0.0363 -0.3757 -0.5233
  476SOL    HW118570   3.751   0.577   1.075  1.1296 -1.8021  0.2735
  476SOL    HW218571   3.638   0.476   1.075  1.5424 -2.2666  1.0003
  477SOL     OW18572   5.410   2.987   1.787  0.4349  0.0435 -0.3496
  477SOL    HW118573   5.421   2.965   1.694 -1.9351  1.2318 -0.9856
  477SOL    HW218574   5.320   3.016   1.794  0.4005 -0.5005  2.4796
  478SOL     OW18575   4.969   0.822   0.853 -0.2968  0.0141  0.3636
  478SOL    HW118576   5.034   0.784   0.794  0.3808 -3.4594  3.0587
  478SOL    HW218577   5.019   0.882   0.909 -0.4201  1.1314 -0.6851
  479SOL     OW18578   1.595   0.548   5.970 -0.1940 -0.2511  0.2032
  479SOL    HW118579   1.609   0.511   5.883 -0.1269  1.4025 -0.5166
  479SOL    HW218580   1.499   0.551   5.979 -0.2030 -1.1297  0.5228
  480SOL     OW18581   2.075   0.174   6.388  0.1676 -0.0903  0.1074
  480SOL    HW118582   2.034   0.260   6.397 -1.0236 -0.4241 -1.6678
  480SOL    HW218583   2.070   0.154   6.295  0.1524 -2.2163  0.5052
  481SOL     OW18584   4.381   0.830   1.514  0.0014 -0.3145  0.0789
  481SOL    HW118585   4.338   0.884   1.447  2.8757 -1.0924 -2.6492
  481SOL    HW218586   4.365   0.740   1.486  0.5504 -0.6972  0.9494
  482SOL     OW18587   2.347   2.126   1.875  0.1540  0.3643  0.4728
  482SOL    HW118588   2.298   2.047   1.894  0.0347  0.5927  1.1224
  482SOL    HW218589   2.281   2.192   1.855  0.1519  0.8198  1.8962
  483SOL     OW18590   2.466   1.681   0.429  0.0739 -0.3977  0.1945
  483SOL    HW118591   2.507   1.620   0.368 -1.1743 -0.9734 -0.1073
  483SOL    HW218592   2.384   1.705   0.386  0.4452  1.3672  0.3964
  484SOL     OW18593   6.516   1.842   1.458 -0.6185 -0.3522  0.3156
  484SOL    HW118594   6.544   1.793   1.535 -0.3077  0.3396  0.6485
  484SOL    HW218595   6.585   1.906   1.443 -0.1670 -1.1317 -1.1510
  485SOL     OW18596   3.864   1.176   6.529 -0.1326  0.0792 -0.0669
  485SOL    HW118597   3.878   1.270   6.527  2.3226 -0.2279 -0.8964
  485SOL    HW218598   3.871   1.148   6.437 -2.6875 -0.7447 -0.0946
  486SOL     OW18599   3.330   0.978   1.830 -0.2598 -0.0221 -0.2195
  486SOL    HW118600   3.278   1.055   1.805 -1.4104 -0.2887  1.2248
  486SOL    HW218601   3.353   0.995   1.921  1.2568 -0.4526 -0.5060
  487SOL     OW18602   0.578   3.392   1.284  0.1435 -0.1547 -0.7485
  487SOL    HW118603   0.646   3.417   1.347 -1.3296  0.1984  0.7717
  487SOL    HW218604   0.552   3.474   1.243 -0.4426 -0.0470 -0.1797
  488SOL     OW18605   2.702   3.628   1.272 -0.1667 -0.2806 -0.4420
  488SOL    HW118606   2.680   3.659   1.360 -3.0273 -0.7841 -0.8917
  488SOL    HW218607   2.728   3.537   1.284 -0.3441 -0.2894 -0.1098
  489SOL     OW18608   2.130   1.560   1.020  0.5404 -0.0451 -0.2534
  489SOL    HW118609   2.210   1.603   1.050  1.7870 -2.1925 -0.3044
  489SOL    HW218610   2.137   1.470   1.053 -2.2768 -0.0986  0.4700
  490SOL     OW18611   6.191   4.260   6.559 -0.0382 -0.3788  0.0991
  490SOL    HW118612   6.201   4.242   6.652 -0.1072 -1.3359 -0.0672
  490SOL    HW218613   6.274   4.232   6.520 -0.2944 -0.7039 -0.2223
  491SOL     OW18614   1.902   1.498   5.233 -0.8000 -0.0584 -0.0476
  491SOL    HW118615   1.940   1.563   5.174 -0.6052  1.4149  1.6416
  491SOL    HW218616   1.954   1.504   5.313 -1.8630 -1.0871  0.7555
  492SOL     OW18617   5.856   4.901   7.366  0.5348  0.7835 -0.3651
  492SOL    HW118618   5.832   4.868   7.280  3.2325  2.0286 -1.7277
  492SOL    HW218619   5.870   4.822   7.419 -1.2255  0.0051 -0.9761
  493SOL     OW18620   3.215   0.628   1.599 -0.6244 -0.0707 -0.4066
  493SOL    HW118621   3.158   0.698   1.632 -2.9308 -1.7046 -0.6937
  493SOL    HW218622   3.163   0.548   1.608  1.5890 -1.6566 -0.9051
  494SOL     OW18623   2.826   2.927   6.322  0.0412  0.3908  0.7833
  494SOL    HW118624   2.864   2.889   6.243  0.9119  1.5563  0.6120
  494SOL    HW218625   2.900   2.970   6.366 -0.9422  2.2491  0.7210
  495SOL     OW18626   5.518   0.895   0.649  0.0588 -0.0743 -0.2502
  495SOL    HW118627   5.495   0.961   0.585 -0.8865 -0.3283 -0.1828
  495SOL    HW218628   5.522   0.813   0.600  2.3506  0.1596 -0.5611
  496SOL     OW18629   0.392   4.334   7.269  0.1552  0.6741  0.7482
  496SOL    HW118630   0.311   4.374   7.236 -0.3964 -0.5933  0.4912
  496SOL    HW218631   0.408   4.379   7.352 -1.3110  0.3759  1.2368
  497SOL     OW18632   3.543   2.229   1.704  0.5588  0.4352 -0.2628
  497SOL    HW118633   3.492   2.152   1.680  0.7819  0.5913 -1.2814
  497SOL    HW218634   3.479   2.291   1.739  0.4932 -0.5229  1.4141
  498SOL     OW18635   3.542   5.693   0.245 -0.0140  0.3920  0.1113
  498SOL    HW118636   3.620   5.735   0.281 -0.0101  0.0558  0.5035
  498SOL    HW218637   3.469   5.738   0.288  0.0042 -0.6072  1.2449
  499SOL     OW18638   3.556   3.336   5.635  0.1223 -0.0987 -0.1306
  499SOL    HW118639   3.477   3.287   5.657  0.1469  0.8563  2.4850
  499SOL    HW218640   3.628   3.275   5.651  0.0088 -0.3177 -0.4509
  500SOL     OW18641   5.118   4.583   6.804 -0.0898  0.2218  0.3919
  500SOL    HW118642   5.164   4.562   6.723 -0.6177 -1.4598  0.4736
  500SOL    HW218643   5.186   4.583   6.871  0.0325 -0.7271  0.2827
  501SOL     OW18644   1.223   3.929   6.898 -0.6846 -0.3206  0.3809
  501SOL    HW118645   1.167   3.891   6.966 -1.9037  0.5344 -0.1184
  501SOL    HW218646   1.270   3.999   6.942 -0.7128 -0.4205  0.5735
  502SOL     OW18647   1.914   1.764   1.168 -0.6789  0.4886 -0.1547
  502SOL    HW118648   1.871   1.826   1.109 -1.6643 -0.1151 -0.1005
  502SOL    HW218649   1.985   1.726   1.115 -0.2502  1.4372 -0.2777
  503SOL     OW18650   0.919   6.012   7.120 -0.0450 -0.9395 -0.2324
  503SOL    HW118651   0.874   5.930   7.140 -0.2794 -0.4266  1.4760
  503SOL    HW218652   0.900   6.069   7.194 -0.6833  1.0204 -1.8172
  504SOL     OW18653   5.546   4.041   5.452 -0.4167  0.5999 -0.0405
  504SOL    HW118654   5.622   3.989   5.478 -0.9422  0.8123  2.0899
  504SOL    HW218655   5.569   4.075   5.365  1.3058 -0.4918 -0.0581
  505SOL     OW18656   1.668   4.597   6.219 -0.1007  0.2948 -0.0069
  505SOL    HW118657   1.749   4.593   6.167 -0.7139  0.7958 -1.0586
  505SOL    HW218658   1.598   4.583   6.154 -0.9222  1.5357  0.5760
  506SOL     OW18659   4.129   3.212   0.639 -0.0792 -0.0177 -0.0448
  506SOL    HW118660   4.142   3.137   0.697 -1.1547 -1.5460 -1.6824
  506SOL    HW218661   4.174   3.284   0.683  2.4033 -1.9498  0.8157
  507SOL     OW18662   2.211   3.851   6.181  0.4730  0.1934  0.8240
  507SOL    HW118663   2.186   3.942   6.163  1.0760  0.0711 -0.7897
  507SOL    HW218664   2.305   3.855   6.199  1.1781 -0.3994 -2.1998
  508SOL     OW18665   3.058   4.638   7.163 -0.4108 -0.0209 -0.4039
  508SOL    HW118666   3.093   4.685   7.238  0.9907  1.3950 -1.8566
  508SOL    HW218667   3.003   4.703   7.118 -0.9996 -0.7521 -0.7673
  509SOL     OW18668   1.746   2.274   0.186 -0.1636  0.3060 -0.1143
  509SOL    HW118669   1.663   2.242   0.221 -0.0810 -0.6589 -0.7512
  509SOL    HW218670   1.803   2.197   0.187  1.3316  1.3365  2.0123
  510SOL     OW18671   3.956   6.368   6.214  0.3545 -0.5759  0.3711
  510SOL    HW118672   3.916   6.410   6.291  1.0146  0.3465  0.2191
  510SOL    HW218673   4.045   6.402   6.211  0.4670 -0.9251 -0.5704
  511SOL     OW18674   6.102   6.397   6.681  0.0399  0.1502 -0.6891
  511SOL    HW118675   6.032   6.372   6.620  0.4487 -2.2138 -0.2718
  511SOL    HW218676   6.068   6.475   6.724 -1.9491 -0.3752 -1.1746
  512SOL     OW18677   1.073   1.652   0.749 -0.4279  0.1541  0.5270
  512SOL    HW118678   1.152   1.615   0.710 -0.1131  1.6997 -0.3737
  512SOL    HW218679   1.095   1.744   0.765 -1.8579  0.4746  0.7550
  513SOL     OW18680   5.979   6.152   5.895  0.3365  0.0154 -0.3300
  513SOL    HW118681   5.884   6.146   5.897  0.3896 -1.5033 -1.0231
  513SOL    HW218682   6.008   6.104   5.973  0.5365  0.6974  0.0228
  514SOL     OW18683   2.815   0.687   6.563  0.3140 -0.6177 -0.1594
  514SOL    HW118684   2.760   0.648   6.494  1.6454 -2.2560 -0.3540
  514SOL    HW218685   2.834   0.614   6.622  1.7391  0.0425  0.2326
  515SOL     OW18686   1.777   5.189   6.510 -0.2140  0.1337  0.5612
  515SOL    HW118687   1.807   5.098   6.508  0.9692  0.4647  1.9039
  515SOL    HW218688   1.682   5.182   6.523 -0.0934 -0.9100  0.9808
  516SOL     OW18689   3.619   1.166   1.845  0.2441  0.3847 -0.4573
  516SOL    HW118690   3.650   1.110   1.916  1.7007  0.3879 -1.0552
  516SOL    HW218691   3.531   1.133   1.826 -1.0543  1.6984  2.6490
  517SOL     OW18692   4.287   3.524   1.892 -0.4846 -0.2062 -0.3457
  517SOL    HW118693   4.206   3.542   1.843 -2.2000 -2.6162  1.3523
  517SOL    HW218694   4.315   3.438   1.861 -0.2237 -0.6633  1.1053
  518SOL     OW18695   4.704   1.854   0.881 -0.1079 -0.2614  0.0621
  518SOL    HW118696   4.621   1.900   0.895 -0.3988 -0.4203 -1.0538
  518SOL    HW218697   4.769   1.923   0.871 -0.1286 -0.1335  0.7887
  519SOL     OW18698   4.969   2.500   5.791  0.1808  0.6533 -0.3080
  519SOL    HW118699   4.886   2.496   5.745 -0.3236  0.1842  0.5960
  519SOL    HW218700   4.951   2.553   5.869  0.0819 -1.3069  1.0764
  520SOL     OW18701   0.361   4.876   1.568 -0.1600  0.5103 -0.7510
  520SOL    HW118702   0.357   4.964   1.531 -1.2630 -0.1863 -2.3939
  520SOL    HW218703   0.455   4.859   1.579  0.3071  0.6180 -3.7319
  521SOL     OW18704   1.189   3.711   5.526  0.5398  0.2963 -0.2793
  521SOL    HW118705   1.255   3.780   5.519  0.1675  1.1552  2.9063
  521SOL    HW218706   1.109   3.751   5.491  0.2379  1.7456  1.8521
  522SOL     OW18707   0.934   6.467   0.331 -0.2692 -0.0745  0.1901
  522SOL    HW118708   0.896   6.500   0.412 -1.2412  1.3718 -0.8004
  522SOL    HW218709   1.024   6.499   0.332 -0.7190  1.2252  0.0164
  523SOL     OW18710   4.949   1.792   6.985  0.8852  0.2258  0.0146
  523SOL    HW118711   4.890   1.768   7.057  0.0529 -0.3402 -0.8269
  523SOL    HW218712   4.977   1.881   7.006 -0.3582  0.5553  0.3990
  524SOL     OW18713   5.692   2.420   6.089 -0.2064 -0.1295  0.1957
  524SOL    HW118714   5.652   2.398   6.005 -1.3689  0.1124  0.6593
  524SOL    HW218715   5.767   2.474   6.067  1.9715 -3.3207 -0.8988
  525SOL     OW18716   5.948   2.750   2.125  0.9467 -0.4197 -0.0396
  525SOL    HW118717   5.866   2.700   2.134  0.1406  0.9120  0.2965
  525SOL    HW218718   6.000   2.699   2.063 -0.7697 -0.5409 -1.4736
  526SOL     OW18719   6.589   4.134   0.887 -0.5525 -0.0201 -0.0327
  526SOL    HW118720   6.494   4.143   0.882 -0.6795  0.6287  2.2269
  526SOL    HW218721   6.607   4.125   0.981  1.6513  0.4344 -0.3569
  527SOL     OW18722   0.095   1.139   6.941 -0.3907 -0.2166 -0.4625
  527SOL    HW118723   0.101   1.050   6.975  0.2121 -0.4529 -1.1697
  527SOL    HW218724   0.014   1.174   6.979  0.2093 -0.4921  1.1625
  528SOL     OW18725   2.120   2.825   1.027 -0.4155 -0.2848 -0.0374
  528SOL    HW118726   2.110   2.884   0.952 -0.4559  0.4058  0.4913
  528SOL    HW218727   2.168   2.878   1.092  0.6694 -1.2551 -0.0091
  529SOL     OW18728   1.632   3.162   0.831  0.0823 -0.5067 -0.2325
  529SOL    HW118729   1.620   3.250   0.866  2.8704 -0.6288  1.2884
  529SOL    HW218730   1.585   3.163   0.747 -0.0290  2.3820 -0.2313
  530SOL     OW18731   4.291   2.499   7.416  0.2311 -0.2280 -0.6147
  530SOL    HW118732   4.257   2.580   7.378 -0.0404 -0.6011 -1.1832
  530SOL    HW218733   4.372   2.481   7.368 -0.1615 -0.7494 -1.1128
  531SOL     OW18734   0.960   1.780   1.226 -0.3151 -1.0290  0.0149
  531SOL    HW118735   0.976   1.775   1.320  0.0201 -0.5250 -0.0096
  531SOL    HW218736   0.905   1.705   1.207  0.0202 -1.4147  0.5313
  532SOL     OW18737   5.732   3.720   0.776 -0.3049 -0.4969 -0.0549
  532SOL    HW118738   5.772   3.637   0.755  1.2690  0.1262  0.3728
  532SOL    HW218739   5.760   3.739   0.866 -0.1732  0.7514 -0.3369
  533SOL     OW18740   1.147   4.297   0.611  0.0771  0.3733 -0.2257
  533SOL    HW118741   1.230   4.314   0.566 -1.2839  4.7811 -1.5674
  533SOL    HW218742   1.167   4.308   0.704  1.1590  0.4793 -0.4560
  534SOL     OW18743   4.571   2.723   5.632  0.2426 -0.1191  0.2830
  534SOL    HW118744   4.554   2.740   5.539  4.1320  1.9010 -0.2835
  534SOL    HW218745   4.619   2.640   5.632 -0.6216 -0.6323  0.6584
  535SOL     OW18746   2.570   2.933   1.142  0.0160  0.3380 -0.1997
  535SOL    HW118747   2.542   2.877   1.069  1.6938 -1.0067  0.1016
  535SOL    HW218748   2.631   2.995   1.102 -0.0734  0.4481 -0.1630
  536SOL     OW18749   0.403   4.231   0.915  0.1632 -0.2800 -0.2562
  536SOL    HW118750   0.497   4.245   0.920  0.0284  0.7968 -0.5045
  536SOL    HW218751   0.372   4.238   1.005  0.6326 -3.3294  0.2493
  537SOL     OW18752   2.808   2.828   6.567 -0.0226 -1.1346 -0.3442
  537SOL    HW118753   2.819   2.900   6.629 -1.7518 -1.8800  0.9003
  537SOL    HW218754   2.767   2.868   6.490 -3.2837 -1.0379  1.2513
  538SOL     OW18755   5.710   5.330   1.080 -0.5183 -0.2730  0.1983
  538SOL    HW118756   5.730   5.276   1.156  0.3337 -0.0928  0.1162
  538SOL    HW218757   5.793   5.336   1.033 -1.0516 -0.4358 -0.7812
  539SOL     OW18758   5.189   4.928   7.099 -0.2317  0.6026 -0.1791
  539SOL    HW118759   5.143   4.966   7.174  0.3197 -0.2774  0.6164
  539SOL    HW218760   5.230   4.849   7.133  0.8698  0.7219 -1.1703
  540SOL     OW18761   6.495   6.323   0.763 -0.4425  0.3020  0.2664
  540SOL    HW118762   6.477   6.387   0.694  0.3482 -1.8684 -2.1273
  540SOL    HW218763   6.471   6.367   0.844 -0.7153  3.2770 -1.3060
  541SOL     OW18764   2.336   0.794   0.086  0.5153  0.6317 -0.0025
  541SOL    HW118765   2.398   0.867   0.093  1.7668 -0.2704 -1.0894
  541SOL    HW218766   2.380   0.732   0.028 -1.5469  0.0451 -0.9958
  542SOL     OW18767   2.013   6.400   5.731  0.5095 -0.1509 -0.2484
  542SOL    HW118768   1.918   6.403   5.742  0.5262 -0.5781  0.0416
  542SOL    HW218769   2.032   6.309   5.709  0.8675 -0.0994 -0.1630
  543SOL     OW18770   2.578   4.539   5.789  0.1741  0.6157 -0.2865
  543SOL    HW118771   2.647   4.604   5.774  1.9151 -0.7889  1.1325
  543SOL    HW218772   2.536   4.567   5.870  0.7080  0.1790  0.1491
  544SOL     OW18773   6.061   5.067   1.040 -0.0398  0.9990 -0.2684
  544SOL    HW118774   6.029   5.100   1.124  2.1326 -1.3671  1.6553
  544SOL    HW218775   5.988   5.014   1.006  0.2074 -0.9258  1.9574
  545SOL     OW18776   3.733   2.295   0.707 -0.4677  0.8568  0.6143
  545SOL    HW118777   3.694   2.381   0.690  0.8356  1.6423  1.4383
  545SOL    HW218778   3.781   2.307   0.789  0.0679 -0.5531  0.5207
  546SOL     OW18779   0.224   3.164   6.447  0.1172 -0.0054  0.5118
  546SOL    HW118780   0.300   3.202   6.404 -0.3936  0.7336  0.2455
  546SOL    HW218781   0.253   3.077   6.476  0.7968 -0.0704 -0.3393
  547SOL     OW18782   6.153   2.970   1.829 -0.3055 -0.3891 -0.0497
  547SOL    HW118783   6.177   2.950   1.920 -0.4104  0.4036  0.1584
  547SOL    HW218784   6.126   2.886   1.793  2.3940 -1.2850 -0.2075
  548SOL     OW18785   0.932   4.596   0.978 -0.2418  0.1325 -0.4637
  548SOL    HW118786   0.923   4.503   1.001  2.4501  0.1881  1.2594
  548SOL    HW218787   1.024   4.605   0.951 -0.0341  2.5411  0.7670
  549SOL     OW18788   5.770   5.154   6.792  0.3854 -0.2422 -0.2091
  549SOL    HW118789   5.833   5.141   6.863 -0.2442 -2.2520  0.0321
  549SOL    HW218790   5.685   5.156   6.836 -0.0229 -1.7055 -0.8956
  550SOL     OW18791   0.576   5.246   6.824 -0.3664 -0.3102 -0.0036
  550SOL    HW118792   0.509   5.293   6.873  0.0242 -0.2875  0.5214
  550SOL    HW218793   0.546   5.155   6.823 -1.6913  0.1031 -1.9882
  551SOL     OW18794   3.192   3.443   1.176 -0.6306 -0.1748 -0.2736
  551SOL    HW118795   3.194   3.516   1.237 -0.6240 -0.1246 -0.3345
  551SOL    HW218796   3.249   3.377   1.217  0.9671  0.5965 -1.1465
  552SOL     OW18797   3.554   6.588   6.343 -0.1037 -0.2349  0.3572
  552SOL    HW118798   3.634   6.630   6.373  0.7756  0.4101 -2.5985
  552SOL    HW218799   3.576   6.494   6.340  0.2789 -0.1429  0.2851
  553SOL     OW18800   5.538   0.712   5.577 -0.4421  0.3418 -0.0573
  553SOL    HW118801   5.599   0.746   5.643 -0.4655  0.1852  0.0463
  553SOL    HW218802   5.577   0.629   5.549 -0.3055  0.5282 -0.4238
  554SOL     OW18803   5.393   1.532   6.349 -0.3751 -0.4077  0.5450
  554SOL    HW118804   5.447   1.495   6.279  0.5172  0.9125  0.5034
  554SOL    HW218805   5.334   1.592   6.304 -0.1261  0.0837  0.8724
  555SOL     OW18806   0.036   2.330   7.405  0.0688 -0.2531  0.3848
  555SOL    HW118807  -0.049   2.360   7.371 -1.0290 -1.0767  2.2444
  555SOL    HW218808   0.013   2.264   7.471  2.2049 -1.1053  0.3385
  556SOL     OW18809   5.677   4.979   6.067 -0.0337  0.4028  0.4606
  556SOL    HW118810   5.638   5.052   6.115  1.5658  0.0705  2.3966
  556SOL    HW218811   5.720   4.926   6.134  2.3405 -0.0964 -1.3022
  557SOL     OW18812   3.237   5.800   6.400 -0.2903 -0.7253  0.0577
  557SOL    HW118813   3.250   5.873   6.341 -1.2846 -0.2951  0.3517
  557SOL    HW218814   3.234   5.723   6.343  1.0632 -0.5914 -0.2219
  558SOL     OW18815   4.432   1.577   0.494  0.2024  0.1979  0.1166
  558SOL    HW118816   4.392   1.496   0.528 -0.6243  0.2008 -0.8037
  558SOL    HW218817   4.358   1.635   0.477  0.7927  1.1506  0.7385
  559SOL     OW18818   6.083   6.106   1.349  0.0855  0.6701  0.1021
  559SOL    HW118819   6.030   6.085   1.426  1.8687  2.5643  2.0015
  559SOL    HW218820   6.170   6.073   1.370  0.6875  1.5090 -0.9469
  560SOL     OW18821   3.605   1.188   6.278 -0.1736  0.4280 -0.3936
  560SOL    HW118822   3.682   1.150   6.236  0.1032 -1.0199  1.2894
  560SOL    HW218823   3.540   1.118   6.277 -1.4135  1.5374 -1.5218
  561SOL     OW18824   2.543   3.055   5.561 -0.0209 -0.7301  0.5464
  561SOL    HW118825   2.562   3.132   5.508  0.2719  0.7700  2.6654
  561SOL    HW218826   2.626   3.007   5.564  0.8965  0.8335  2.1079
  562SOL     OW18827   4.210   0.743   0.326 -0.2166  0.5996  0.0768
  562SOL    HW118828   4.296   0.703   0.312 -0.1031  1.2905 -1.3137
  562SOL    HW218829   4.149   0.686   0.279 -0.5289  0.1793  0.9586
  563SOL     OW18830   6.049   4.447   0.218 -0.0988  0.5776  0.1034
  563SOL    HW118831   5.987   4.516   0.195 -0.8416  0.3108  1.2411
  563SOL    HW218832   6.134   4.489   0.216 -0.4767  1.3528  0.1003
  564SOL     OW18833   0.967   3.988   0.221  0.5454 -0.5600  0.1695
  564SOL    HW118834   1.053   4.014   0.189  0.7751 -0.1921  1.0773
  564SOL    HW218835   0.945   4.053   0.288 -1.2118  0.3861 -1.2428
  565SOL     OW18836   3.376   0.443   7.109  0.5263  0.4567 -0.0230
  565SOL    HW118837   3.465   0.410   7.094  0.4698  0.5015 -0.4817
  565SOL    HW218838   3.340   0.385   7.176  0.6478 -0.0280 -0.3644
  566SOL     OW18839   5.729   2.626   0.708 -0.1185 -0.6072  0.1286
  566SOL    HW118840   5.814   2.650   0.670  0.4125  0.9366  2.1330
  566SOL    HW218841   5.702   2.549   0.658  1.2248  0.3845 -2.2967
  567SOL     OW18842   5.709   0.942   0.397  0.3355  0.0084  0.4893
  567SOL    HW118843   5.659   0.861   0.389  0.4146 -0.0711  0.8169
  567SOL    HW218844   5.647   1.006   0.433  0.5737 -0.1871  1.2465
  568SOL     OW18845   2.898   5.261   4.996  0.0709  0.3864 -0.0548
  568SOL    HW118846   2.846   5.312   5.059  0.8710  1.0561  0.0871
  568SOL    HW218847   2.989   5.289   5.012  0.5678 -1.2970  0.2028
  569SOL     OW18848   1.389   5.268   0.917  0.0985  0.2636 -0.0471
  569SOL    HW118849   1.334   5.337   0.880  0.2737  1.1525  1.2565
  569SOL    HW218850   1.328   5.213   0.967  0.1110  0.0699 -0.2421
  570SOL     OW18851   3.068   1.918   0.265 -0.0245 -0.1734  0.0725
  570SOL    HW118852   3.085   1.825   0.252 -0.8637 -0.2622 -0.4934
  570SOL    HW218853   3.111   1.939   0.348  1.7156 -0.6334 -0.6665
  571SOL     OW18854   1.534   1.184   1.957 -0.3693 -0.1106 -0.0349
  571SOL    HW118855   1.478   1.110   1.934  0.4561 -0.4849 -0.9111
  571SOL    HW218856   1.479   1.261   1.943 -1.0595 -0.5224  0.3424
  572SOL     OW18857   0.646   0.468   0.289  0.1569  0.0224 -0.1261
  572SOL    HW118858   0.593   0.486   0.212  0.8079 -0.2917 -0.6616
  572SOL    HW218859   0.588   0.419   0.347 -0.2565  0.0280 -0.5264
  573SOL     OW18860   0.103   3.816   5.914 -0.1511 -0.2429  0.2802
  573SOL    HW118861   0.064   3.733   5.941 -1.4763  0.1920 -0.2154
  573SOL    HW218862   0.099   3.815   5.818  1.0515 -0.1699  0.2154
  574SOL     OW18863   6.597   2.811   0.606 -0.3459 -0.3234  0.7215
  574SOL    HW118864   6.646   2.879   0.650 -0.9464  1.1909 -0.8222
  574SOL    HW218865   6.607   2.830   0.513 -0.5874 -2.3251  0.2288
  575SOL     OW18866   5.975   3.579   6.329  0.3358  0.0377 -0.0917
  575SOL    HW118867   5.912   3.536   6.387 -0.6162  0.2727 -0.9088
  575SOL    HW218868   6.001   3.658   6.376 -0.6427  0.3742 -0.1025
  576SOL     OW18869   3.487   4.453   6.822 -0.8834  0.3530 -0.1446
  576SOL    HW118870   3.457   4.372   6.865 -1.0941  1.3596  1.7329
  576SOL    HW218871   3.518   4.424   6.736 -1.9731 -1.5535  0.0323
  577SOL     OW18872   2.703   2.033   1.576  0.0488  0.4487  0.4155
  577SOL    HW118873   2.717   2.026   1.481 -1.4169  1.6060  0.0667
  577SOL    HW218874   2.771   2.093   1.606  0.6345 -0.0654  0.1347
  578SOL     OW18875   3.743   5.222   6.935  0.2572 -0.5757  0.2597
  578SOL    HW118876   3.723   5.282   6.864  1.1291  2.4460  2.3851
  578SOL    HW218877   3.662   5.215   6.985  0.7656  0.8756  1.3572
  579SOL     OW18878   3.485   0.232   5.899  0.7783 -0.3357  0.6605
  579SOL    HW118879   3.498   0.320   5.933 -1.6774 -0.0322  0.9805
  579SOL    HW218880   3.558   0.218   5.839  0.3837  2.5312 -0.6205
  580SOL     OW18881   0.331   1.682   6.209  0.2793 -0.1589 -0.0248
  580SOL    HW118882   0.319   1.670   6.114  1.1260 -1.1557 -0.0309
  580SOL    HW218883   0.396   1.615   6.233 -1.3629 -1.2608  1.6053
  581SOL     OW18884   0.030   4.051   6.699  0.0574 -0.2817  0.4900
  581SOL    HW118885  -0.034   4.001   6.750 -1.2920 -0.6968 -1.4763
  581SOL    HW218886   0.037   4.134   6.745  0.5313 -1.3689  2.5021
  582SOL     OW18887   1.188   2.855   0.773  0.0722  0.2726 -0.1540
  582SOL    HW118888   1.206   2.905   0.694 -0.2370  1.2414  0.3679
  582SOL    HW218889   1.145   2.917   0.832  2.2430  0.2406  1.6196
  583SOL     OW18890   6.210   3.069   6.581 -0.4079 -0.2062  0.0149
  583SOL    HW118891   6.254   3.087   6.664  0.6637 -0.9412 -0.3760
  583SOL    HW218892   6.200   2.974   6.579 -0.6027 -0.1770 -0.6058
  584SOL     OW18893   6.419   4.166   6.462  0.2803  0.2849  0.7520
  584SOL    HW118894   6.456   4.154   6.374 -0.7432  1.6910  0.0907
  584SOL    HW218895   6.490   4.141   6.521  0.6731 -1.6612 -0.4313
  585SOL     OW18896   5.570   2.865   1.580  0.1360 -0.1355 -0.5904
  585SOL    HW118897   5.585   2.825   1.666  0.1866 -0.9455 -0.9654
  585SOL    HW218898   5.562   2.790   1.521 -0.4158  0.4081 -1.2060
  586SOL     OW18899   3.478   2.239   0.214  0.7578  0.1205 -0.1106
  586SOL    HW118900   3.491   2.327   0.249 -0.1220  0.2142  0.0139
  586SOL    HW218901   3.528   2.182   0.273  1.5326  0.5495 -0.3337
  587SOL     OW18902   3.267   5.988   6.233  0.8064 -0.2045  0.4561
  587SOL    HW118903   3.348   6.018   6.191  0.1092 -0.9903 -1.5461
  587SOL    HW218904   3.197   6.027   6.181 -0.1289 -0.0744  1.7622
  588SOL     OW18905   0.253   4.889   0.588  0.4227 -0.6875 -0.4090
  588SOL    HW118906   0.335   4.887   0.539  0.2265 -1.1383 -0.7207
  588SOL    HW218907   0.187   4.916   0.525  0.4335  0.3786  0.0076
  589SOL     OW18908   6.353   3.405   6.914  0.0221 -0.0046  0.4563
  589SOL    HW118909   6.355   3.320   6.958  0.8863 -0.0085  0.4332
  589SOL    HW218910   6.356   3.384   6.821  1.3757  0.0475  0.4606
  590SOL     OW18911   3.746   5.053   1.452  0.2084 -0.1960  0.3674
  590SOL    HW118912   3.762   4.965   1.419 -0.5965 -0.4512  0.6187
  590SOL    HW218913   3.685   5.040   1.525  0.9313  0.4754  1.1143
  591SOL     OW18914   4.921   6.544   6.249 -0.5992 -0.3293  0.0265
  591SOL    HW118915   4.908   6.634   6.278  0.2117 -0.2447  0.1283
  591SOL    HW218916   4.862   6.535   6.174 -1.2970  0.0232  0.5209
  592SOL     OW18917   3.042   0.436   5.483 -0.0098 -0.0682  0.0309
  592SOL    HW118918   3.093   0.508   5.446 -0.6124 -0.7841 -2.3463
  592SOL    HW218919   3.038   0.371   5.413 -3.0664 -0.6054  0.5789
  593SOL     OW18920   3.238   2.798   0.310  0.0774 -0.4653 -0.2911
  593SOL    HW118921   3.196   2.884   0.308  0.6735 -0.1642 -2.0458
  593SOL    HW218922   3.194   2.749   0.240  1.3729 -0.7646 -0.9263
  594SOL     OW18923   0.499   2.157   7.130  0.4712 -0.4293 -0.5912
  594SOL    HW118924   0.416   2.138   7.173  0.8549  1.7320  1.2709
  594SOL    HW218925   0.556   2.085   7.155 -0.1005 -0.5742  0.3259
  595SOL     OW18926   0.599   2.377   1.005 -0.2130 -0.0873  0.5704
  595SOL    HW118927   0.527   2.356   0.945 -0.1193  0.4422  0.2640
  595SOL    HW218928   0.669   2.318   0.980 -0.3920 -0.3051  0.5782
  596SOL     OW18929   4.185   4.646   1.172 -0.3236  0.3541  0.8303
  596SOL    HW118930   4.265   4.661   1.223 -0.4605  0.5644  0.9840
  596SOL    HW218931   4.190   4.710   1.101 -0.5755  0.6681  1.0970
  597SOL     OW18932   3.610   4.925   5.958  0.0380  0.1218  0.2330
  597SOL    HW118933   3.603   4.999   5.897 -0.1314  1.1369  1.4393
  597SOL    HW218934   3.523   4.920   5.999  1.1371  1.9632  3.1392
  598SOL     OW18935   2.560   0.123   5.873 -0.9263  0.7244  0.0918
  598SOL    HW118936   2.559   0.155   5.782 -1.3611 -0.1052 -0.2099
  598SOL    HW218937   2.585   0.199   5.925  1.6149  0.6887 -0.9221
  599SOL     OW18938   1.442   0.948   5.291  0.4070 -0.0508  0.4392
  599SOL    HW118939   1.481   0.870   5.330  2.0011 -1.2024 -3.0174
  599SOL    HW218940   1.517   1.003   5.266 -0.5184  0.8704 -0.4232
  600SOL     OW18941   3.765   0.546   1.407  0.0607 -0.0574 -0.4804
  600SOL    HW118942   3.681   0.570   1.445  0.0264  0.3110 -0.7801
  600SOL    HW218943   3.762   0.581   1.318  0.2745 -0.6091 -0.7046
  601SOL     OW18944   5.223   0.091   7.472  0.4756  0.0523  0.0887
  601SOL    HW118945   5.247  -0.001   7.468  0.4292 -0.0804  1.8088
  601SOL    HW218946   5.199   0.114   7.382 -2.5300 -2.4529  0.0672
  602SOL     OW18947   5.286   4.403   0.407  0.2014  0.2763 -0.5306
  602SOL    HW118948   5.330   4.318   0.409 -1.5943 -0.6881  0.4179
  602SOL    HW218949   5.356   4.467   0.418  1.7051 -0.9996 -2.0977
  603SOL     OW18950   3.469   0.948   5.332 -0.0280  0.3576  0.6835
  603SOL    HW118951   3.429   1.035   5.338  0.0476  0.4362  0.0446
  603SOL    HW218952   3.469   0.916   5.422 -0.9885  0.5993  0.7840
  604SOL     OW18953   1.795   4.767   7.033  0.0415 -0.2253  0.0280
  604SOL    HW118954   1.738   4.804   6.965  0.6387 -1.5085 -1.2021
  604SOL    HW218955   1.735   4.745   7.105 -0.7374  0.1948 -0.4769
  605SOL     OW18956   1.661   2.369   0.804 -0.2372  0.2554  0.5322
  605SOL    HW118957   1.578   2.370   0.756 -0.4949 -0.5197  0.9514
  605SOL    HW218958   1.637   2.392   0.893  0.1900  1.3229  0.3811
  606SOL     OW18959   4.737   6.031   6.414 -0.0997 -0.9526  0.3679
  606SOL    HW118960   4.818   5.981   6.429 -0.0656 -1.2124 -0.5831
  606SOL    HW218961   4.695   6.036   6.500  1.2909 -0.1570  1.0347
  607SOL     OW18962   0.083   2.952   6.003 -0.2330  0.1898  0.1243
  607SOL    HW118963   0.108   3.030   6.053 -4.3438  1.5644  0.4552
  607SOL    HW218964   0.109   2.972   5.913 -1.2940  2.1057  0.1849
  608SOL     OW18965   4.052   4.077   6.276  0.3819  0.0114 -0.6499
  608SOL    HW118966   4.111   4.151   6.269  0.6987 -0.3899 -4.0168
  608SOL    HW218967   3.969   4.109   6.238 -0.7689 -0.2487  1.4866
  609SOL     OW18968   3.216   2.069   1.698 -0.0913  0.1157  0.0301
  609SOL    HW118969   3.294   2.027   1.662 -0.4107  0.3013 -0.9084
  609SOL    HW218970   3.243   2.100   1.784  0.5167 -0.8684  0.1980
  610SOL     OW18971   1.749   2.656   7.335  1.0724 -0.0387  0.1616
  610SOL    HW118972   1.705   2.580   7.371 -0.8550  1.3408  0.9157
  610SOL    HW218973   1.809   2.685   7.404 -0.1395  0.6242  0.9731
  611SOL     OW18974   0.506   5.573   0.926 -0.5523  0.4065  0.3398
  611SOL    HW118975   0.440   5.536   0.867  1.7547 -1.3984 -1.2749
  611SOL    HW218976   0.537   5.651   0.881 -1.5133  1.2396  1.0862
  612SOL     OW18977   4.041   6.396   0.359 -0.0699  0.0088 -0.4723
  612SOL    HW118978   4.065   6.466   0.298  0.7714  2.1044  2.0450
  612SOL    HW218979   3.983   6.439   0.422  0.6854 -1.4619  1.3145
  613SOL     OW18980   0.104   5.657   1.288 -0.0116 -0.3621 -0.3245
  613SOL    HW118981   0.154   5.716   1.231 -1.1865 -0.1405 -1.1655
  613SOL    HW218982   0.046   5.715   1.337  1.4490 -0.4763  1.6691
  614SOL     OW18983   1.565   4.855   0.546  0.1946 -0.4816 -0.6136
  614SOL    HW118984   1.600   4.912   0.614 -2.0445  0.2387  0.0357
  614SOL    HW218985   1.637   4.845   0.483  2.6025 -1.7266  2.1187
  615SOL     OW18986   3.336   4.038   1.145  0.8512 -0.1205  0.4421
  615SOL    HW118987   3.387   4.024   1.224  0.5762 -0.1754  0.6126
  615SOL    HW218988   3.305   3.951   1.120  1.1569 -0.1380  0.1244
  616SOL     OW18989   1.177   5.182   6.882  0.4220  0.9097  0.2744
  616SOL    HW118990   1.161   5.143   6.967  0.7173  2.0679  0.8804
  616SOL    HW218991   1.144   5.118   6.819  0.1905  0.0528  1.2537
  617SOL     OW18992   1.601   0.667   5.472  0.0371  0.4107  0.0595
  617SOL    HW118993   1.665   0.627   5.530  0.1452 -0.8333 -0.8725
  617SOL    HW218994   1.633   0.757   5.459 -0.0941  0.7926  2.0221
  618SOL     OW18995   3.849   2.969   0.639 -0.1268  0.5919 -0.2931
  618SOL    HW118996   3.907   3.027   0.690 -0.4714  0.7774 -0.1057
  618SOL    HW218997   3.834   3.017   0.557  1.9338 -0.5216 -1.4053
  619SOL     OW18998   3.716   4.027   5.158  0.1132 -0.1130  0.1953
  619SOL    HW118999   3.783   4.070   5.104  0.8535 -0.2507  0.9863
  619SOL    HW219000   3.765   3.987   5.230 -0.9392  1.0018  1.5986
  620SOL     OW19001   6.489   3.301   7.377 -0.3206 -0.1228 -0.4571
  620SOL    HW119002   6.433   3.370   7.414 -1.1581 -1.3854  0.7620
  620SOL    HW219003   6.566   3.347   7.345  0.2525  1.2042  2.4641
  621SOL     OW19004   1.760   3.977   7.088  0.8206 -0.4511 -0.3918
  621SOL    HW119005   1.853   3.963   7.108  1.1262 -0.0233 -1.3936
  621SOL    HW219006   1.751   4.073   7.084  0.2221 -0.4818  0.1874
  622SOL     OW19007   4.174   3.045   0.834 -0.4458  0.6072 -0.5182
  622SOL    HW119008   4.234   2.980   0.872 -1.6138 -0.6196 -0.7027
  622SOL    HW219009   4.122   3.076   0.908  0.4022  1.7142 -0.3494
  623SOL     OW19010   0.197   1.308   6.751  0.4028  0.2140  0.1131
  623SOL    HW119011   0.218   1.399   6.773 -0.1596  0.3825 -0.0247
  623SOL    HW219012   0.176   1.267   6.835 -1.1842  0.7104 -0.0002
  624SOL     OW19013   3.338   0.227   6.182 -0.1963 -0.6409  0.0479
  624SOL    HW119014   3.397   0.279   6.127  0.3026 -1.1793  0.0647
  624SOL    HW219015   3.252   0.268   6.170  0.0689 -0.2160 -0.4489
  625SOL     OW19016   2.779   3.497   1.061 -0.7848 -0.2590 -0.2423
  625SOL    HW119017   2.736   3.551   1.126 -1.5855  1.3566 -2.0291
  625SOL    HW219018   2.713   3.434   1.034 -0.5918 -0.6381  0.1433
  626SOL     OW19019   2.791   1.824   0.614  0.5017  0.3073 -1.0208
  626SOL    HW119020   2.876   1.862   0.638  2.4079 -4.1690  0.3604
  626SOL    HW219021   2.787   1.832   0.519  2.6180  0.3962 -1.1421
  627SOL     OW19022   0.312   0.043   6.748  0.1105 -0.0317 -0.0424
  627SOL    HW119023   0.347   0.133   6.747  1.7775 -0.6351  0.6497
  627SOL    HW219024   0.220   0.054   6.727  0.1362  1.9237  0.6099
  628SOL     OW19025   3.729   2.078   2.190  0.1586 -0.3029 -0.0233
  628SOL    HW119026   3.686   2.025   2.122  0.6981 -0.3054 -0.3628
  628SOL    HW219027   3.744   2.017   2.262 -1.4900 -0.0392  0.5921
  629SOL     OW19028   4.067   1.323   0.875  0.5805  0.1292 -0.2593
  629SOL    HW119029   4.053   1.383   0.802 -3.1628 -0.7173 -0.4307
  629SOL    HW219030   4.008   1.249   0.858  1.2210 -1.1638  2.5005
  630SOL     OW19031   3.893   4.179   0.810 -0.6947 -0.2591 -0.0616
  630SOL    HW119032   3.893   4.110   0.743  2.0514 -1.0603  0.6061
  630SOL    HW219033   3.911   4.132   0.892  1.2846  1.1811  0.4130
  631SOL     OW19034   0.915   0.665   0.904  0.0304 -0.1886  0.5449
  631SOL    HW119035   0.984   0.600   0.912 -0.8599 -1.4183 -1.2579
  631SOL    HW219036   0.893   0.687   0.995 -0.0528 -2.8735  1.2610
  632SOL     OW19037   5.290   0.853   5.521 -0.1493 -0.0065 -0.5581
  632SOL    HW119038   5.381   0.826   5.508 -1.0829 -2.6658 -2.4226
  632SOL    HW219039   5.248   0.777   5.561 -1.5696  1.1583  0.2316
  633SOL     OW19040   2.913   5.378   5.965 -0.2119  0.1578 -0.2733
  633SOL    HW119041   2.929   5.456   5.911  0.7222  0.5327  0.5038
  633SOL    HW219042   2.844   5.405   6.025 -2.7248 -0.8958 -2.4880
  634SOL     OW19043   3.570   0.317   1.010  0.4172  0.0155  0.6864
  634SOL    HW119044   3.565   0.304   0.915 -1.6643  2.3845  0.3467
  634SOL    HW219045   3.494   0.269   1.044  1.3542 -1.1141  1.2358
  635SOL     OW19046   6.327   2.646   6.266  0.1653 -0.3136  0.5738
  635SOL    HW119047   6.322   2.652   6.362  1.2193 -0.6176  0.6611
  635SOL    HW219048   6.352   2.733   6.238  1.5311 -0.6308  0.7268
  636SOL     OW19049   5.697   0.666   6.227  0.0364  0.2021 -0.5939
  636SOL    HW119050   5.707   0.639   6.136 -1.7024  0.3634 -0.8688
  636SOL    HW219051   5.776   0.716   6.245  1.4901 -1.7319 -1.2696
  637SOL     OW19052   1.807   1.294   0.249  0.4052  0.2622  0.2594
  637SOL    HW119053   1.870   1.281   0.179  0.2109  0.5984  0.0181
  637SOL    HW219054   1.860   1.317   0.326  0.7317 -1.5671  0.6222
  638SOL     OW19055   1.484   0.355   7.337  0.0666  0.0602 -0.3164
  638SOL    HW119056   1.464   0.268   7.371 -0.4040 -1.0025 -3.0953
  638SOL    HW219057   1.413   0.410   7.369 -1.4238 -1.3105 -1.1176
  639SOL     OW19058   4.510   2.842   6.069 -0.1986 -0.5785  0.1607
  639SOL    HW119059   4.588   2.815   6.020  0.3650  2.2114 -0.6716
  639SOL    HW219060   4.542   2.856   6.158 -0.2555 -1.5230  0.3365
  640SOL     OW19061   5.836   1.343   6.734  0.9410 -0.5374  0.2410
  640SOL    HW119062   5.781   1.317   6.660 -0.3686 -1.6586  1.5509
  640SOL    HW219063   5.926   1.338   6.700  0.4546 -2.4068 -0.8973
  641SOL     OW19064   1.684   5.132   0.034 -0.3822  0.0953  0.0218
  641SOL    HW119065   1.693   5.227   0.023  0.3642  0.0191 -0.0654
  641SOL    HW219066   1.759   5.095  -0.012 -0.6309 -0.5365  0.1169
  642SOL     OW19067   3.104   1.451   1.968  0.1697 -0.3104 -0.3200
  642SOL    HW119068   3.178   1.505   1.996  0.1735  0.7274 -2.1869
  642SOL    HW219069   3.067   1.417   2.050  1.8696  0.2362  0.7368
  643SOL     OW19070   3.685   1.056   5.130 -0.7565 -0.0252  0.2070
  643SOL    HW119071   3.676   0.973   5.176 -0.7200  0.1001  0.4385
  643SOL    HW219072   3.643   1.120   5.187  0.8603  0.4319  0.9108
  644SOL     OW19073   1.497   6.003   7.396  0.3045  0.3047  0.0292
  644SOL    HW119074   1.578   6.002   7.345  0.5991 -1.3152  0.4736
  644SOL    HW219075   1.508   5.934   7.461 -1.0458  0.7092  0.7331
  645SOL     OW19076   6.479   2.891   7.038  0.4914 -0.3954  0.3001
  645SOL    HW119077   6.541   2.896   7.110  0.2024  2.9651  0.4944
  645SOL    HW219078   6.408   2.949   7.064  0.9497  1.9977 -3.0535
  646SOL     OW19079   0.514   4.995   6.065  0.1730  0.3354  0.4255
  646SOL    HW119080   0.562   4.914   6.081 -0.8950 -0.4267 -0.0769
  646SOL    HW219081   0.524   5.011   5.971  0.0065  0.5357  0.4405
  647SOL     OW19082   5.067   1.097   6.654  0.3256  0.0621  0.0716
  647SOL    HW119083   5.029   1.180   6.683  0.1634 -0.0825  0.2701
  647SOL    HW219084   5.050   1.095   6.560 -1.1340 -0.5149  0.3265
  648SOL     OW19085   0.563   2.982   6.291 -0.4811  0.6531 -0.3521
  648SOL    HW119086   0.604   3.050   6.345 -0.6966  0.6334 -0.1650
  648SOL    HW219087   0.587   3.006   6.201  2.0392 -0.7093 -0.1192
  649SOL     OW19088   2.627   2.558   0.340 -0.0637 -0.5141  0.7900
  649SOL    HW119089   2.684   2.600   0.276  0.2075  0.0962  1.4117
  649SOL    HW219090   2.583   2.489   0.292 -0.8580  0.7550 -0.3777
  650SOL     OW19091   2.278   6.080   7.441 -0.5054 -0.4821  1.0816
  650SOL    HW119092   2.278   5.992   7.479  0.2236 -0.2618  1.6139
  650SOL    HW219093   2.196   6.119   7.471 -1.3659 -1.3437 -0.0597
  651SOL     OW19094   0.326   4.099   5.179 -0.0378 -0.9796  0.2997
  651SOL    HW119095   0.236   4.103   5.147  0.0097 -1.3487  0.1164
  651SOL    HW219096   0.355   4.190   5.179  0.3606 -1.0520 -1.8733
  652SOL     OW19097   4.729   1.385   0.295 -0.4931  0.1301  0.2480
  652SOL    HW119098   4.788   1.373   0.369  2.7741 -0.7087 -2.2468
  652SOL    HW219099   4.676   1.306   0.294  1.7903 -1.5031 -0.1533
  653SOL     OW19100   3.613   2.391   6.585  0.5466  0.4406 -0.0660
  653SOL    HW119101   3.616   2.344   6.501  0.0115 -1.5955  0.9885
  653SOL    HW219102   3.520   2.408   6.599  0.3586 -1.3048  1.1375
  654SOL     OW19103   5.670   2.467   7.342 -0.3032 -0.3050 -0.3971
  654SOL    HW119104   5.734   2.409   7.383 -1.4882 -1.9560 -0.7757
  654SOL    HW219105   5.648   2.424   7.259 -0.1004  1.4911 -1.4275
  655SOL     OW19106   0.461   6.176   5.522 -0.4106 -0.5612 -0.0071
  655SOL    HW119107   0.448   6.141   5.434 -2.0660  0.5892 -0.2583
  655SOL    HW219108   0.532   6.239   5.512 -0.4667 -0.5703 -0.4756
  656SOL     OW19109   0.600   0.133   6.174  0.2574  0.5658  0.5350
  656SOL    HW119110   0.508   0.117   6.195  0.4099 -0.5562  0.3721
  656SOL    HW219111   0.645   0.053   6.199  0.9930  0.5920 -0.6309
  657SOL     OW19112   2.900   2.486   0.513  0.6290  0.5391  0.0964
  657SOL    HW119113   2.974   2.542   0.532 -0.1755  0.7181  3.1884
  657SOL    HW219114   2.824   2.534   0.545 -0.3672 -1.1857  0.4925
  658SOL     OW19115   5.657   3.149   0.361  0.1788 -0.2310  0.2057
  658SOL    HW119116   5.654   3.161   0.266 -0.1296  2.1376  0.4564
  658SOL    HW219117   5.569   3.118   0.384  0.3867 -1.2342 -0.3126
  659SOL     OW19118   3.835   5.286   1.336  0.8630 -0.5178 -0.1280
  659SOL    HW119119   3.920   5.283   1.381  0.9485 -3.9268 -0.2205
  659SOL    HW219120   3.777   5.233   1.392 -0.6983  0.1881 -1.0150
  660SOL     OW19121   0.203   5.179   1.498 -0.6653 -0.1756  0.3954
  660SOL    HW119122   0.206   5.170   1.594 -0.6763 -1.0572  0.3196
  660SOL    HW219123   0.144   5.253   1.484 -0.0374  0.4705  1.0890
  661SOL     OW19124   0.928   2.734   0.476  0.6248  0.2583 -0.1922
  661SOL    HW119125   0.912   2.687   0.558  0.1073 -0.6966 -0.8171
  661SOL    HW219126   0.981   2.674   0.424  2.4457  1.5500  0.0713
  662SOL     OW19127   3.640   0.281   1.634  0.0171 -0.1244 -0.3452
  662SOL    HW119128   3.556   0.304   1.595 -0.0319  0.7903  0.2688
  662SOL    HW219129   3.689   0.240   1.563 -0.9934 -0.8023 -0.6666
  663SOL     OW19130   4.636   5.420   0.350  0.3182  0.0888 -0.2017
  663SOL    HW119131   4.588   5.491   0.307 -0.2595  0.5320  1.1498
  663SOL    HW219132   4.568   5.364   0.387  0.8106  0.1063  0.7556
  664SOL     OW19133   1.022   5.480   0.183 -0.3988  0.1317  0.0140
  664SOL    HW119134   0.990   5.391   0.169 -1.2551  0.4085  0.1072
  664SOL    HW219135   1.035   5.487   0.277  0.3074 -0.0944 -0.0611
  665SOL     OW19136   6.151   3.798   0.850 -0.3865 -0.0684 -0.3276
  665SOL    HW119137   6.148   3.727   0.786 -1.4427  0.4859 -0.9168
  665SOL    HW219138   6.236   3.839   0.836 -0.4407 -0.2048 -1.1135
  666SOL     OW19139   4.621   0.388   7.419  0.2994 -0.3181  0.9797
  666SOL    HW119140   4.591   0.373   7.329 -0.6995  1.0750  1.0384
  666SOL    HW219141   4.577   0.320   7.471 -1.2027  0.4263  0.7497
  667SOL     OW19142   5.315   3.673   2.077 -0.4894  0.1732  0.1250
  667SOL    HW119143   5.232   3.627   2.092  0.9103 -1.7035  3.1710
  667SOL    HW219144   5.381   3.604   2.077  1.1964  1.6763 -1.5741
  668SOL     OW19145   5.790   4.242   6.406  0.6721 -0.4850 -0.4273
  668SOL    HW119146   5.819   4.152   6.426 -1.5117 -0.7310  2.0386
  668SOL    HW219147   5.864   4.297   6.433  1.3235 -1.4231 -0.2321
  669SOL     OW19148   0.858   5.906   6.181 -0.0939 -0.4858 -0.5520
  669SOL    HW119149   0.890   5.837   6.238 -0.5991 -1.9169 -1.9227
  669SOL    HW219150   0.883   5.878   6.093 -1.5388  0.3567 -1.2685
  670SOL     OW19151   1.395   5.565   0.593 -0.5898 -0.1667  0.1054
  670SOL    HW119152   1.436   5.543   0.510  0.3934  1.3976  0.1191
  670SOL    HW219153   1.466   5.559   0.657 -0.1633  2.9356  0.0758
  671SOL     OW19154   2.895   6.522   7.148 -0.4142 -0.8011 -0.3003
  671SOL    HW119155   2.801   6.529   7.132 -0.2449 -1.7440 -1.8737
  671SOL    HW219156   2.935   6.525   7.061  1.0140 -0.5655  0.3263
  672SOL     OW19157   2.572   2.142   0.706  0.1614  0.6678  0.0672
  672SOL    HW119158   2.501   2.176   0.651 -0.7382  0.1948  0.9050
  672SOL    HW219159   2.613   2.073   0.654  0.3211  1.2494 -0.6028
  673SOL     OW19160   5.706   1.884   6.994  0.3081 -0.2343 -0.1241
  673SOL    HW119161   5.623   1.899   6.949  0.5546 -0.1990 -0.5693
  673SOL    HW219162   5.773   1.902   6.928  0.6950  0.7040  0.5102
  674SOL     OW19163   3.496   6.531   0.686 -0.6202 -0.1670  0.3401
  674SOL    HW119164   3.466   6.581   0.609 -0.1737  0.5115  0.5940
  674SOL    HW219165   3.422   6.534   0.746 -0.9616 -0.6739 -0.0486
  675SOL     OW19166   2.977   0.012   7.403  0.1994  0.1774 -0.1419
  675SOL    HW119167   2.952  -0.001   7.311 -0.2370  2.0126 -0.3109
  675SOL    HW219168   3.073   0.015   7.401  0.1880  0.3222 -0.5496
  676SOL     OW19169   4.485   0.073   2.389  0.2131  0.0364 -0.3846
  676SOL    HW119170   4.404   0.041   2.349 -0.2065  0.9908 -0.3164
  676SOL    HW219171   4.469   0.066   2.483  0.9484 -1.5775 -0.3496
  677SOL     OW19172   0.379   3.914   5.363  0.7204  0.4684  0.0483
  677SOL    HW119173   0.364   3.983   5.299 -0.3528 -0.0373 -0.2790
  677SOL    HW219174   0.302   3.857   5.355  1.2698 -0.4051  0.7606
  678SOL     OW19175   4.238   6.538   1.412 -0.4309  0.4855  0.2487
  678SOL    HW119176   4.236   6.551   1.507 -2.6498  0.1501  0.3202
  678SOL    HW219177   4.146   6.527   1.388  0.2084 -1.1671 -1.7173
  679SOL     OW19178   4.313   1.371   6.767  0.0180  0.5076 -0.2729
  679SOL    HW119179   4.225   1.336   6.753  0.3476 -0.1693 -0.6974
  679SOL    HW219180   4.336   1.413   6.684  0.2148  0.4180 -0.2649
  680SOL     OW19181   1.437   0.799   6.719 -0.1569  0.0855  0.0421
  680SOL    HW119182   1.518   0.838   6.754 -0.9254  1.0809  0.7492
  680SOL    HW219183   1.463   0.766   6.633  1.4529 -1.2492  0.9570
  681SOL     OW19184   2.750   0.576   5.826 -0.1775 -0.1664 -0.3762
  681SOL    HW119185   2.839   0.606   5.811 -0.3966  1.1470  0.7793
  681SOL    HW219186   2.760   0.492   5.870  0.4766 -0.1479 -0.4845
  682SOL     OW19187   5.216   3.085   7.131 -0.0061 -0.8639  0.0086
  682SOL    HW119188   5.216   3.176   7.101 -0.7114 -1.2578 -1.2394
  682SOL    HW219189   5.155   3.084   7.205 -2.4016 -0.8686 -1.8439
  683SOL     OW19190   1.949   2.953   1.385  0.3821 -0.0507 -0.3343
  683SOL    HW119191   1.989   2.868   1.369  0.5332 -0.7684  2.9944
  683SOL    HW219192   1.975   3.007   1.311  0.8487 -2.6652 -2.2323
  684SOL     OW19193   3.473   1.642   6.323 -0.8289 -0.5535  0.2359
  684SOL    HW119194   3.486   1.562   6.272  1.8597  0.4343 -0.8344
  684SOL    HW219195   3.477   1.613   6.415  0.3199 -1.6475 -0.1286
  685SOL     OW19196   3.775   1.159   0.249  0.3436  0.3184 -0.0251
  685SOL    HW119197   3.745   1.220   0.182 -1.9895 -0.7538 -0.0465
  685SOL    HW219198   3.768   1.208   0.331 -0.4133  0.4623 -0.1670
  686SOL     OW19199   5.016   0.662   1.277  0.1333 -0.1121  0.5308
  686SOL    HW119200   5.107   0.691   1.289  0.1531 -0.3034  0.8435
  686SOL    HW219201   5.016   0.571   1.304 -0.2367 -0.0071  0.9041
  687SOL     OW19202   4.186   3.464   0.398 -0.3871 -0.5732  0.2107
  687SOL    HW119203   4.186   3.556   0.373  1.4314 -0.6765 -0.3221
  687SOL    HW219204   4.271   3.451   0.440  0.2909 -2.4572 -1.5799
  688SOL     OW19205   3.388   0.141   1.143 -0.0277  0.6138  0.1972
  688SOL    HW119206   3.361   0.210   1.204 -1.8390  2.3200 -2.3106
  688SOL    HW219207   3.306   0.111   1.103  0.9793 -1.1226 -0.6981
  689SOL     OW19208   2.830   5.447   5.384 -0.2040 -0.0924  0.0787
  689SOL    HW119209   2.757   5.406   5.337  0.2534  0.6696 -1.3763
  689SOL    HW219210   2.887   5.479   5.314  2.2625 -1.9064  1.1335
  690SOL     OW19211   3.418   3.995   0.602  0.0989 -0.4053 -0.7465
  690SOL    HW119212   3.348   4.058   0.590  1.1184  1.4265  1.9560
  690SOL    HW219213   3.496   4.038   0.566  0.3135 -1.3706 -1.4819
  691SOL     OW19214   5.270   5.577   0.364  0.4138 -0.5121 -0.2872
  691SOL    HW119215   5.223   5.498   0.338  0.9617 -0.5696 -1.1272
  691SOL    HW219216   5.309   5.556   0.449 -1.3200 -0.3588  0.5899
  692SOL     OW19217   3.643   2.102   6.370 -0.0098  0.6920 -0.1847
  692SOL    HW119218   3.727   2.088   6.415  0.0308  1.7453  0.0845
  692SOL    HW219219   3.585   2.036   6.408  1.0776 -1.1156 -1.4955
  693SOL     OW19220   6.166   1.104   0.737 -0.7492  0.0685  0.5698
  693SOL    HW119221   6.123   1.162   0.674  2.1922  1.0104 -0.7714
  693SOL    HW219222   6.247   1.150   0.761  0.4999 -2.3653  1.4254
  694SOL     OW19223   2.201   3.646   1.336  0.2705  0.1563 -0.0330
  694SOL    HW119224   2.270   3.680   1.392  0.2365  0.3621 -0.1147
  694SOL    HW219225   2.247   3.603   1.264  0.3222 -1.0306  0.6960
  695SOL     OW19226   0.813   0.278   5.792 -0.1985 -0.4492  0.5582
  695SOL    HW119227   0.769   0.309   5.712  0.4225  1.8802  1.0617
  695SOL    HW219228   0.859   0.199   5.764 -0.4102  0.0272 -1.2684
  696SOL     OW19229   0.641   4.126   5.980  0.0073 -0.1954 -0.1504
  696SOL    HW119230   0.597   4.137   6.065 -1.2935 -0.0315 -0.8232
  696SOL    HW219231   0.680   4.039   5.984 -0.9361 -0.6164  0.2381
  697SOL     OW19232   4.227   1.252   0.568 -0.3024 -0.4935 -0.2126
  697SOL    HW119233   4.133   1.265   0.580 -0.4013 -0.3644 -1.0939
  697SOL    HW219234   4.267   1.310   0.633 -0.8223  0.5056 -0.7539
  698SOL     OW19235   2.928   3.150   7.313  0.8079 -0.0524  0.4790
  698SOL    HW119236   2.968   3.088   7.373  1.3464 -0.1925 -0.0179
  698SOL    HW219237   2.987   3.153   7.238  0.5879  0.7659  0.3252
  699SOL     OW19238   1.460   5.439   6.285  0.7420  0.3426  0.2661
  699SOL    HW119239   1.491   5.355   6.318 -0.3594  0.0487  0.5973
  699SOL    HW219240   1.419   5.481   6.360 -1.4947 -0.1921 -0.5796
  700SOL     OW19241   1.730   2.388   7.434  0.0367  0.4502  0.0941
  700SOL    HW119242   1.809   2.385   7.380  1.2250  2.6511  1.6022
  700SOL    HW219243   1.756   2.354   7.519 -1.0333 -0.1175  0.2219
  701SOL     OW19244   2.691   2.024   5.528 -0.7300  0.2799 -0.4572
  701SOL    HW119245   2.676   2.115   5.503  0.2877  0.7845  0.6523
  701SOL    HW219246   2.637   2.010   5.606 -0.1562  0.2404 -0.0586
  702SOL     OW19247   6.551   0.964   5.531  0.7432 -0.3295 -0.2406
  702SOL    HW119248   6.536   0.870   5.521  1.2616 -0.4188 -0.2294
  702SOL    HW219249   6.634   0.980   5.487  0.7522  0.0898 -0.0786
  703SOL     OW19250   1.941   5.565   7.430 -0.2804 -0.2849 -0.0067
  703SOL    HW119251   2.030   5.532   7.442 -0.7826 -1.7926 -0.2174
  703SOL    HW219252   1.928   5.564   7.335 -0.6632 -0.5115  0.0453
  704SOL     OW19253   5.661   6.311   0.534 -0.3943  0.3773 -0.0267
  704SOL    HW119254   5.716   6.238   0.509  1.2827  1.1453  1.2150
  704SOL    HW219255   5.583   6.271   0.573  0.0932 -0.7277 -0.1642
  705SOL     OW19256   3.335   3.519   5.649 -0.2517  0.5853 -0.3634
  705SOL    HW119257   3.357   3.576   5.722 -1.6436 -2.0823  2.3567
  705SOL    HW219258   3.415   3.467   5.635 -1.0433 -1.4073  1.8931
  706SOL     OW19259   0.477   0.864   7.444  0.3236  0.7893  0.2961
  706SOL    HW119260   0.534   0.788   7.458 -0.5413  0.3445  1.7377
  706SOL    HW219261   0.397   0.842   7.494 -0.2995  2.2500 -0.0189
  707SOL     OW19262   4.079   5.558   7.175 -0.7221 -0.4757  0.0073
  707SOL    HW119263   4.052   5.559   7.083 -1.2164 -0.5039  0.1529
  707SOL    HW219264   4.112   5.470   7.189  2.7564  0.4591 -1.1180
  708SOL     OW19265   5.466   5.222   0.664  0.4048 -0.2856  0.5651
  708SOL    HW119266   5.517   5.302   0.667 -0.6569  0.4866 -0.8998
  708SOL    HW219267   5.487   5.177   0.746  1.1055  1.4202  1.3626
  709SOL     OW19268   4.377   2.490   2.527  0.3506  0.2527 -0.0453
  709SOL    HW119269   4.470   2.508   2.521  0.3991  0.1865  0.4385
  709SOL    HW219270   4.362   2.416   2.467  1.0697 -1.3552  1.6495
  710SOL     OW19271   5.548   5.612   0.935 -0.2174  0.0198 -0.3239
  710SOL    HW119272   5.640   5.637   0.932  0.2456 -1.2107  1.8894
  710SOL    HW219273   5.540   5.540   0.872  0.2814  0.2568 -0.6611
  711SOL     OW19274   0.724   5.490   0.333  0.4590  0.6640  0.0185
  711SOL    HW119275   0.725   5.585   0.345  1.5365  0.6796 -0.1294
  711SOL    HW219276   0.635   5.464   0.357  0.4132  1.5930  0.9192
  712SOL     OW19277   5.404   3.946   6.589 -0.7116 -0.1550  0.2533
  712SOL    HW119278   5.361   3.946   6.674 -1.2152  1.2644  0.0309
  712SOL    HW219279   5.362   4.017   6.541 -1.4275 -1.8206 -1.7217
  713SOL     OW19280   3.638   1.407   1.751 -0.6248  0.4092  0.4044
  713SOL    HW119281   3.572   1.474   1.769 -0.2602  0.5870  1.1175
  713SOL    HW219282   3.606   1.329   1.796 -1.2013  0.0022 -0.6748
  714SOL     OW19283   1.695   3.836   5.739 -0.0462  0.1875 -0.7364
  714SOL    HW119284   1.724   3.890   5.665  0.0069  1.0894 -0.0663
  714SOL    HW219285   1.762   3.848   5.806 -0.2954 -0.3210 -0.3893
  715SOL     OW19286   1.795   6.072   6.349 -0.0515  0.0170  0.0794
  715SOL    HW119287   1.824   6.018   6.275  0.2235  1.7483 -1.1419
  715SOL    HW219288   1.864   6.137   6.360  0.8164 -1.2295  3.1037
  716SOL     OW19289   6.063   1.621   6.569 -0.5220 -0.1109  0.4716
  716SOL    HW119290   6.023   1.547   6.523 -1.9113  0.8084  0.1292
  716SOL    HW219291   6.098   1.582   6.649  0.9154 -1.5368 -0.7792
  717SOL     OW19292   5.261   5.532   6.337  0.0611 -0.0754 -0.1625
  717SOL    HW119293   5.339   5.532   6.392  1.3261 -1.5115 -1.8618
  717SOL    HW219294   5.196   5.484   6.389  0.4538  0.6226  1.0255
  718SOL     OW19295   3.460   5.334   5.753  0.4523  0.1555  0.6124
  718SOL    HW119296   3.440   5.415   5.706  2.2230  0.1054 -0.3259
  718SOL    HW219297   3.507   5.363   5.831 -0.6485  0.1193  1.3052
  719SOL     OW19298   1.619   1.097   0.183 -0.1969 -0.0892  0.3555
  719SOL    HW119299   1.662   1.028   0.233  0.7160  0.1259 -0.1143
  719SOL    HW219300   1.677   1.172   0.189 -0.2989  0.0898 -0.6113
  720SOL     OW19301   5.509   0.659   2.354  0.1741  0.1574  0.3665
  720SOL    HW119302   5.501   0.626   2.265 -0.4129  0.7028  0.2077
  720SOL    HW219303   5.601   0.646   2.376  0.0095 -1.4143  0.2596
  721SOL     OW19304   4.870   0.206   6.583  0.0081 -0.6128  0.1400
  721SOL    HW119305   4.861   0.194   6.489 -0.5837 -0.8122  0.2166
  721SOL    HW219306   4.825   0.131   6.621 -0.2244 -0.2586  0.5800
  722SOL     OW19307   3.670   0.111   1.908  0.3578 -0.1318 -0.4316
  722SOL    HW119308   3.592   0.055   1.898 -0.9116  1.6352 -1.0119
  722SOL    HW219309   3.691   0.139   1.819  1.4470 -0.2686 -0.2321
  723SOL     OW19310   0.542   0.083   0.342  0.1256 -0.5270 -0.1657
  723SOL    HW119311   0.566  -0.009   0.347 -0.1736 -0.6101 -0.2250
  723SOL    HW219312   0.488   0.090   0.263  1.2620 -0.0421 -0.9227
  724SOL     OW19313   1.594   1.548   0.569 -0.5377  0.4592 -0.3517
  724SOL    HW119314   1.606   1.475   0.630 -2.8423 -0.3003 -0.6987
  724SOL    HW219315   1.678   1.556   0.524  0.2083 -1.0592  0.7006
  725SOL     OW19316   4.191   0.202   1.494 -0.6774 -0.0234  0.5827
  725SOL    HW119317   4.126   0.166   1.433 -0.0206 -0.6684  0.2498
  725SOL    HW219318   4.266   0.226   1.439  0.2825 -1.4522  1.2017
  726SOL     OW19319   2.069   5.246   6.731 -0.8038 -0.4255  0.2236
  726SOL    HW119320   2.008   5.200   6.788 -3.1200  2.5061  0.3175
  726SOL    HW219321   2.083   5.331   6.773  0.4895  0.3725 -1.6596
  727SOL     OW19322   2.478   1.236   6.732 -0.0943 -0.4677 -0.2898
  727SOL    HW119323   2.549   1.273   6.680 -3.7274  2.4622 -3.8227
  727SOL    HW219324   2.459   1.302   6.798  0.1587 -1.0595  0.3922
  728SOL     OW19325   0.838   6.600   6.255 -0.3174  0.1505 -0.9702
  728SOL    HW119326   0.898   6.658   6.303 -0.6791 -0.3519  0.1265
  728SOL    HW219327   0.877   6.513   6.262 -0.9640 -0.1160 -0.5787
  729SOL     OW19328   3.851   1.697   0.676  0.9843  0.3657  0.4708
  729SOL    HW119329   3.899   1.776   0.653 -0.4407  0.7428 -1.4066
  729SOL    HW219330   3.759   1.721   0.669  0.3998 -2.1128 -3.1267
  730SOL     OW19331   6.494   0.622   6.635  0.0558  0.0769 -0.2337
  730SOL    HW119332   6.587   0.629   6.615  0.2534 -0.0491  0.5910
  730SOL    HW219333   6.467   0.539   6.596 -0.2685  1.1506 -2.4651
  731SOL     OW19334   2.233   1.325   6.504 -0.0071  0.7082  0.0208
  731SOL    HW119335   2.223   1.262   6.433 -1.2509  1.4471 -0.5055
  731SOL    HW219336   2.328   1.337   6.512  0.2842 -1.4878  0.4167
  732SOL     OW19337   1.453   4.235   0.091 -0.2976 -0.3471  0.3422
  732SOL    HW119338   1.477   4.143   0.080 -0.4025 -0.3461  0.1141
  732SOL    HW219339   1.408   4.238   0.175 -0.6115 -0.5652  0.1835
  733SOL     OW19340   1.615   4.139   5.791  0.3633  0.1866  0.0196
  733SOL    HW119341   1.630   4.044   5.786  3.1246  0.5837 -0.3806
  733SOL    HW219342   1.614   4.158   5.885  0.3929 -0.1579  0.0918
  734SOL     OW19343   4.153   3.811   2.274  0.7463 -0.2068  0.2395
  734SOL    HW119344   4.167   3.756   2.352  0.7108  0.0791  0.4479
  734SOL    HW219345   4.234   3.800   2.224  0.8326 -0.2729  0.3888
  735SOL     OW19346   1.414   3.596   1.085  0.3059  0.0300  0.0280
  735SOL    HW119347   1.321   3.574   1.080  0.1485  0.2027  1.5590
  735SOL    HW219348   1.440   3.567   1.173  1.7271 -0.0942 -0.4045
  736SOL     OW19349   4.901   0.781   0.101  0.4586 -0.0582  0.9951
  736SOL    HW119350   4.956   0.716   0.057 -2.2079 -1.2794 -0.7982
  736SOL    HW219351   4.847   0.730   0.162 -0.8342  0.5854  0.4330
  737SOL     OW19352   6.347   3.666   0.261  0.3284  0.7165 -0.0891
  737SOL    HW119353   6.352   3.573   0.237  4.8432  0.8874 -0.6897
  737SOL    HW219354   6.389   3.711   0.188 -0.7999  3.1714  0.6842
  738SOL     OW19355   4.510   2.641   1.844 -0.7217 -0.1448  0.3534
  738SOL    HW119356   4.437   2.701   1.828  0.5558  1.5638  0.6427
  738SOL    HW219357   4.470   2.566   1.888 -2.3373  0.6394  0.2913
  739SOL     OW19358   1.137   1.017   1.115 -0.2742 -0.5229  1.2440
  739SOL    HW119359   1.160   1.099   1.159  0.0015  0.4789 -0.6237
  739SOL    HW219360   1.220   0.969   1.109  0.0899  0.1916  0.2022
  740SOL     OW19361   5.196   3.633   7.441 -0.5985  0.3424 -0.5056
  740SOL    HW119362   5.216   3.667   7.529 -2.1297  1.2298 -0.4737
  740SOL    HW219363   5.187   3.539   7.454  0.7852  0.2491 -0.0364
  741SOL     OW19364   6.084   0.009   1.243  0.8211  0.3117  0.3675
  741SOL    HW119365   6.144  -0.062   1.267  0.0340 -0.4069  0.2518
  741SOL    HW219366   6.100   0.078   1.307  1.7641  0.1268  0.3388
  742SOL     OW19367   1.205   5.071   0.778  0.0294  0.3652 -0.1728
  742SOL    HW119368   1.191   5.101   0.868 -0.1962  0.0640 -0.1044
  742SOL    HW219369   1.290   5.028   0.780 -0.3986 -0.4922  0.1263
  743SOL     OW19370   0.318   0.328   2.144  0.0542 -0.4390 -0.2820
  743SOL    HW119371   0.282   0.327   2.233 -1.4435 -1.5775 -0.8688
  743SOL    HW219372   0.369   0.409   2.141 -0.4499 -0.0070  1.3774
  744SOL     OW19373   0.024   2.561   7.166  0.4003  0.0667 -0.2290
  744SOL    HW119374   0.060   2.640   7.125  2.0911 -0.6996 -0.3059
  744SOL    HW219375   0.070   2.489   7.123  2.0483 -0.8168  2.7129
  745SOL     OW19376   4.624   4.417   6.300 -0.1878 -0.1606  0.1391
  745SOL    HW119377   4.577   4.454   6.225 -0.4714  0.3378  0.5546
  745SOL    HW219378   4.566   4.433   6.374  0.5647  0.3212  0.6368
  746SOL     OW19379   1.678   4.958   1.609 -0.0588 -0.5863 -0.4245
  746SOL    HW119380   1.608   5.017   1.635 -0.2479 -1.3431  0.8999
  746SOL    HW219381   1.694   4.905   1.687  1.9312 -0.4873 -0.7070
  747SOL     OW19382   5.829   2.371   2.285  0.4004  1.0262  0.7007
  747SOL    HW119383   5.814   2.464   2.271  1.6204  1.4465  1.9476
  747SOL    HW219384   5.818   2.358   2.379  2.5734  0.4278  0.9407
  748SOL     OW19385   3.321   6.103   1.313 -0.0644 -0.5961  0.3011
  748SOL    HW119386   3.370   6.046   1.371  0.7832  1.2176  1.4602
  748SOL    HW219387   3.246   6.133   1.365 -0.8217 -1.0787 -0.4806
  749SOL     OW19388   4.965   6.151   7.424 -0.3235 -0.3186 -0.4482
  749SOL    HW119389   4.941   6.072   7.377 -2.6173  0.5840 -0.9008
  749SOL    HW219390   4.966   6.126   7.516  1.4427 -1.4218 -0.7219
  750SOL     OW19391   5.771   0.060   0.864 -0.0779 -0.4721  0.0925
  750SOL    HW119392   5.774   0.003   0.941  0.2896  0.4182  0.7606
  750SOL    HW219393   5.827   0.134   0.887 -1.6260  0.8551 -0.1763
  751SOL     OW19394   5.283   3.665   1.034 -0.1740  0.0773  0.2651
  751SOL    HW119395   5.353   3.692   1.093  0.8660 -1.3041 -0.2932
  751SOL    HW219396   5.328   3.619   0.963 -1.8143 -3.2844  1.2401
  752SOL     OW19397   2.681   0.990   1.450 -0.5345  0.5631  0.4707
  752SOL    HW119398   2.707   1.069   1.403 -1.2717  0.7003  0.2834
  752SOL    HW219399   2.640   0.935   1.383 -1.8031  0.8579  0.9883
  753SOL     OW19400   1.960   5.430   5.769 -0.1000  0.0873 -0.0456
  753SOL    HW119401   2.012   5.490   5.716 -0.3761 -1.2392 -1.9460
  753SOL    HW219402   2.007   5.423   5.851 -0.0210  2.7815  0.2139
  754SOL     OW19403   6.292   2.141   0.212  0.3497  0.3663 -0.3233
  754SOL    HW119404   6.308   2.231   0.182  1.0609 -0.1132 -1.4493
  754SOL    HW219405   6.332   2.138   0.299  0.1225  1.2002 -0.1741
  755SOL     OW19406   2.913   0.607   6.142  0.2399 -0.0612 -0.1284
  755SOL    HW119407   2.850   0.675   6.120  0.7234  0.3602 -0.2202
  755SOL    HW219408   2.860   0.531   6.166 -0.3090 -0.2780 -1.9262
  756SOL     OW19409   3.737   5.899   1.352 -0.1811  0.1579  0.4272
  756SOL    HW119410   3.703   5.847   1.280 -0.0832  0.1138  0.4119
  756SOL    HW219411   3.695   5.863   1.430 -0.9569  0.7775  0.3023
  757SOL     OW19412   3.189   6.157   1.929 -0.3572 -0.1279  0.1838
  757SOL    HW119413   3.193   6.101   2.006 -2.0305 -1.1662 -0.4411
  757SOL    HW219414   3.113   6.126   1.879  0.3529  0.8549 -1.6268
  758SOL     OW19415   4.476   4.663   7.460  0.1278  0.3601  0.5922
  758SOL    HW119416   4.396   4.611   7.462  0.2908  0.0201 -0.9891
  758SOL    HW219417   4.449   4.749   7.494 -1.1358  0.5369 -0.7503
  759SOL     OW19418   5.375   4.527   0.936  0.0766  0.4306  0.4611
  759SOL    HW119419   5.295   4.517   0.988  0.2202  0.4095  0.6819
  759SOL    HW219420   5.364   4.467   0.863  1.1697 -1.8597  2.0463
  760SOL     OW19421   1.249   4.384   6.637  0.3861 -0.5389  0.7196
  760SOL    HW119422   1.198   4.374   6.556 -0.3597  0.8821  0.9782
  760SOL    HW219423   1.184   4.377   6.707  1.0746 -2.0836  1.2501
  761SOL     OW19424   4.392   6.149   6.696 -0.2831  0.0933  0.3378
  761SOL    HW119425   4.329   6.112   6.635 -0.7120  2.1342 -0.5244
  761SOL    HW219426   4.367   6.111   6.781 -1.2520 -0.8459 -0.3321
  762SOL     OW19427   6.472   1.253   7.040 -0.1095 -0.1871 -0.4317
  762SOL    HW119428   6.517   1.303   7.108 -0.1119 -1.7040  0.7372
  762SOL    HW219429   6.380   1.280   7.048 -0.1548 -0.5528  0.3581
  763SOL     OW19430   0.618   3.713   6.354 -0.5141  0.1159 -0.4498
  763SOL    HW119431   0.602   3.644   6.290 -0.9371  1.0369 -1.3552
  763SOL    HW219432   0.695   3.760   6.321 -1.6150  1.5239 -1.1093
  764SOL     OW19433   5.280   3.203   1.340 -0.2617 -0.4240 -0.6740
  764SOL    HW119434   5.373   3.185   1.354 -0.5353 -1.7044 -0.3800
  764SOL    HW219435   5.235   3.145   1.402 -1.2179  2.7924  1.9240
  765SOL     OW19436   5.597   2.438   6.680 -0.2936 -0.2151  0.4446
  765SOL    HW119437   5.660   2.370   6.655 -0.8800 -0.5787 -0.0794
  765SOL    HW219438   5.547   2.399   6.752 -0.1802 -0.0856  0.5911
  766SOL     OW19439   0.455   2.794   7.169  0.6096 -0.6965 -0.4258
  766SOL    HW119440   0.544   2.787   7.133  0.9263 -1.4219  0.4505
  766SOL    HW219441   0.453   2.728   7.239 -0.3321 -0.0706  0.1492
  767SOL     OW19442   0.151   4.708   5.081  0.3730  0.0802 -0.4617
  767SOL    HW119443   0.104   4.789   5.102 -1.1372 -0.7743 -0.3694
  767SOL    HW219444   0.193   4.682   5.163 -0.1809  0.1381 -0.1484
  768SOL     OW19445   1.060   5.391   6.360  0.0710 -0.6581 -0.3844
  768SOL    HW119446   1.142   5.410   6.405  0.2029 -2.2173  0.0709
  768SOL    HW219447   0.992   5.413   6.423  0.0379  1.4895 -1.0655
  769SOL     OW19448   4.994   3.394   0.772 -0.0947  0.1645 -0.3628
  769SOL    HW119449   5.005   3.432   0.859 -0.4330 -1.1805  0.2989
  769SOL    HW219450   4.913   3.344   0.778 -0.5099  0.6278 -1.6884
  770SOL     OW19451   1.118   2.973   5.453 -0.4003  0.4657 -1.2655
  770SOL    HW119452   1.084   2.933   5.373  2.6676  0.5196 -2.7503
  770SOL    HW219453   1.087   3.064   5.449  0.1675  0.6271 -2.7384
  771SOL     OW19454   5.416   3.127   6.842  0.0777  0.2600  0.0153
  771SOL    HW119455   5.452   3.148   6.928 -0.7385  0.0854  0.4122
  771SOL    HW219456   5.418   3.031   6.837 -1.1869  0.1909  0.4414
  772SOL     OW19457   1.653   6.065   1.278 -0.6829  0.0230  0.2616
  772SOL    HW119458   1.718   6.023   1.333 -1.6211 -0.8103  0.7721
  772SOL    HW219459   1.695   6.146   1.248  0.1333  0.1233  1.5801
  773SOL     OW19460   3.654   0.725   6.298  0.7211  0.5516 -0.8121
  773SOL    HW119461   3.690   0.701   6.213 -0.0024 -0.8883 -0.7280
  773SOL    HW219462   3.590   0.657   6.318  2.2627 -0.3065  1.7890
  774SOL     OW19463   0.033   1.015   0.922 -0.4821  0.3140 -0.3099
  774SOL    HW119464   0.015   0.922   0.932  2.5097 -0.2403  1.0287
  774SOL    HW219465   0.114   1.019   0.871 -0.0142  2.0941  0.4727
  775SOL     OW19466   2.205   4.803   1.198  0.6437  0.9691  0.0105
  775SOL    HW119467   2.235   4.724   1.242 -0.2670  0.4777 -0.2292
  775SOL    HW219468   2.275   4.825   1.137  0.8404  0.2766 -0.0135
  776SOL     OW19469   2.440   6.227   5.119  0.0913 -0.5013  0.4118
  776SOL    HW119470   2.423   6.147   5.069 -0.0607 -1.4093  1.8704
  776SOL    HW219471   2.532   6.246   5.102 -0.4509  0.4350 -1.8773
  777SOL     OW19472   1.554   6.386   0.697 -0.3344 -0.0173  0.4239
  777SOL    HW119473   1.550   6.471   0.653  2.6031 -0.7346 -1.5530
  777SOL    HW219474   1.572   6.408   0.789 -0.3818  1.4943  0.1115
  778SOL     OW19475   5.624   6.442   1.536  0.2917  0.9631  0.6138
  778SOL    HW119476   5.701   6.474   1.489 -0.6262  0.0506 -1.6428
  778SOL    HW219477   5.551   6.491   1.498 -0.5166  0.0517  0.9601
  779SOL     OW19478   5.134   6.156   0.867 -0.8099  0.5107 -0.3633
  779SOL    HW119479   5.054   6.128   0.823  1.0811 -2.6659 -2.0960
  779SOL    HW219480   5.152   6.087   0.931  0.0755  1.6799  0.7038
  780SOL     OW19481   6.050   2.376   0.283 -0.1856  0.2065  0.4796
  780SOL    HW119482   6.140   2.374   0.249  0.5154  1.2466  2.1514
  780SOL    HW219483   6.034   2.286   0.313  0.1336 -0.0842 -0.2023
  781SOL     OW19484   3.260   5.671   5.402 -0.4538 -0.1470  0.2033
  781SOL    HW119485   3.319   5.746   5.399 -3.0824  2.0679 -0.4127
  781SOL    HW219486   3.237   5.655   5.311 -1.6933 -0.1501  0.5020
  782SOL     OW19487   2.943   5.243   0.071 -0.2183 -0.3200 -0.1144
  782SOL    HW119488   2.884   5.267  -0.000  0.1768  0.0339 -0.3308
  782SOL    HW219489   2.944   5.320   0.129  1.3445  0.3978 -1.0050
  783SOL     OW19490   5.938   5.984   5.346  0.0007 -0.0361 -0.2119
  783SOL    HW119491   6.022   6.022   5.321  0.2619  0.2909  1.1119
  783SOL    HW219492   5.883   6.060   5.366 -0.9976 -0.1829 -2.1055
  784SOL     OW19493   1.750   4.881   0.351  0.3277 -0.0639  0.3347
  784SOL    HW119494   1.822   4.942   0.367  1.5045 -1.3422  0.1859
  784SOL    HW219495   1.691   4.928   0.292  0.0788  1.6956  1.8949
  785SOL     OW19496   4.980   5.265   1.860  0.3008  0.1558  0.6117
  785SOL    HW119497   5.002   5.298   1.947  1.3313 -2.0399  1.2513
  785SOL    HW219498   5.048   5.300   1.802 -0.1465  1.2751  0.7389
  786SOL     OW19499   3.423   4.092   7.428 -0.3154  0.4759 -0.1340
  786SOL    HW119500   3.453   4.047   7.507 -0.5185 -0.7918 -0.7536
  786SOL    HW219501   3.402   4.180   7.458  0.2588  0.2300  1.0882
  787SOL     OW19502   2.801   4.274   0.477 -0.5811  0.3459 -0.3043
  787SOL    HW119503   2.864   4.346   0.472  0.1925 -0.2248  0.8960
  787SOL    HW219504   2.787   4.248   0.386  0.5310  0.8183 -0.6185
  788SOL     OW19505   3.177   0.579   6.102 -0.3726  0.4108 -0.8586
  788SOL    HW119506   3.083   0.596   6.103 -0.5377 -0.2849 -2.1392
  788SOL    HW219507   3.207   0.614   6.019  0.8028  1.9613  0.1717
  789SOL     OW19508   6.027   6.123   1.074  0.2231 -0.0522 -0.7205
  789SOL    HW119509   6.041   6.111   1.168  1.2349 -1.4344 -1.0150
  789SOL    HW219510   6.064   6.209   1.054  3.5998 -1.2891 -0.4793
  790SOL     OW19511   1.669   5.631   6.290 -0.4522 -0.5640  0.3614
  790SOL    HW119512   1.649   5.707   6.234 -0.1567  0.5669  1.7340
  790SOL    HW219513   1.590   5.577   6.286 -0.9753  0.2055 -0.0327
  791SOL     OW19514   0.361   5.525   1.175  0.2651  0.6274  0.1495
  791SOL    HW119515   0.308   5.595   1.213  0.4903  0.7264  0.2805
  791SOL    HW219516   0.399   5.562   1.096 -0.9572  0.1317 -0.7016
  792SOL     OW19517   3.058   3.164   2.018 -0.0167  0.0737 -0.3084
  792SOL    HW119518   3.065   3.071   2.041  0.3797  0.3355  0.6586
  792SOL    HW219519   3.028   3.207   2.098  2.0260  1.0897 -0.0176
  793SOL     OW19520   6.586   3.431   5.085 -0.4506  0.9646 -0.5086
  793SOL    HW119521   6.548   3.350   5.118 -2.7364  1.6328 -1.2682
  793SOL    HW219522   6.625   3.473   5.162  1.5913 -1.1860 -0.2543
  794SOL     OW19523   3.421   4.616   6.086 -0.2718 -0.0943  0.2776
  794SOL    HW119524   3.428   4.650   5.997  0.5602 -0.7413  0.0869
  794SOL    HW219525   3.382   4.688   6.136 -0.2022  0.4817 -0.4787
  795SOL     OW19526   4.534   5.818   5.454  0.1294 -0.2086  0.1613
  795SOL    HW119527   4.472   5.770   5.508 -1.2653  1.0109 -0.3091
  795SOL    HW219528   4.492   5.825   5.368 -0.1794  2.6053  0.4542
  796SOL     OW19529   5.145   4.472   0.657  0.0974 -0.0256  0.1050
  796SOL    HW119530   5.158   4.434   0.570 -0.7940  0.5090 -0.2779
  796SOL    HW219531   5.141   4.567   0.642  3.2712  0.3917  1.1689
  797SOL     OW19532   1.211   5.801   0.962  0.6404 -0.3227  0.0760
  797SOL    HW119533   1.307   5.796   0.961  0.6422 -0.2489 -0.1556
  797SOL    HW219534   1.190   5.828   1.051  0.8401 -0.2556  0.1049
  798SOL     OW19535   4.861   0.368   0.951  0.1177  0.4358 -0.3066
  798SOL    HW119536   4.932   0.349   0.890  1.3596 -2.2831  1.7550
  798SOL    HW219537   4.874   0.460   0.975  1.8710  0.4856 -1.3111
  799SOL     OW19538   2.360   0.462   7.154 -0.3845  0.2641 -0.3177
  799SOL    HW119539   2.365   0.500   7.066  1.9031 -1.9228 -1.2647
  799SOL    HW219540   2.297   0.390   7.145  0.1177 -0.1881 -0.3112
  800SOL     OW19541   0.415   3.333   6.305 -0.2581  0.1230 -0.1226
  800SOL    HW119542   0.389   3.393   6.375  1.6306  1.6510 -0.6577
  800SOL    HW219543   0.494   3.290   6.338 -0.4829 -0.6314 -0.5405
  801SOL     OW19544   5.559   0.455   0.448 -0.2309  0.1688  0.0827
  801SOL    HW119545   5.642   0.406   0.448 -0.0927  0.3943  0.3672
  801SOL    HW219546   5.496   0.396   0.407  0.4406  0.6334 -1.7149
  802SOL     OW19547   1.326   1.004   0.299  0.3066  0.2906 -0.2617
  802SOL    HW119548   1.306   1.056   0.376  1.1919  1.1308 -0.5714
  802SOL    HW219549   1.422   0.996   0.299  0.2006 -1.6187 -0.0624
  803SOL     OW19550   6.267   4.401   0.572 -0.6975 -0.2145  0.4036
  803SOL    HW119551   6.278   4.453   0.652  2.1951 -0.9216  0.5753
  803SOL    HW219552   6.268   4.310   0.603  0.3624 -0.4926 -0.4109
  804SOL     OW19553   0.650   2.822   1.373 -0.1629 -0.2838 -0.0289
  804SOL    HW119554   0.716   2.883   1.338 -0.1730  0.2810  0.8846
  804SOL    HW219555   0.700   2.767   1.434 -0.8169  1.4810  2.2705
  805SOL     OW19556   2.809   0.219   7.155  0.1913  0.3751  0.1617
  805SOL    HW119557   2.800   0.314   7.153  1.9948  0.6982  2.6624
  805SOL    HW219558   2.885   0.201   7.101  0.3975  0.4734  0.4142
  806SOL     OW19559   1.269   3.324   6.540 -0.5380 -0.1435  0.0319
  806SOL    HW119560   1.216   3.319   6.619  1.5325 -1.8363  1.4078
  806SOL    HW219561   1.358   3.301   6.568  0.8220  1.7083 -2.3069
  807SOL     OW19562   5.480   4.473   5.821  0.1223  0.2111  0.0409
  807SOL    HW119563   5.525   4.472   5.736  1.4119  0.2581  0.6924
  807SOL    HW219564   5.419   4.546   5.815 -1.5529 -1.2355 -1.6912
  808SOL     OW19565   0.921   2.214   6.481  0.0129  0.0177  0.4511
  808SOL    HW119566   1.011   2.187   6.464 -0.6006 -0.7070 -2.0442
  808SOL    HW219567   0.930   2.292   6.536  2.0908 -0.7554  1.3036
  809SOL     OW19568   4.326   6.224   6.042  0.5946  0.0634 -0.5122
  809SOL    HW119569   4.418   6.248   6.036  0.3484  1.5341  0.9433
  809SOL    HW219570   4.279   6.307   6.036 -0.5958 -0.5650 -0.2448
  810SOL     OW19571   0.861   2.420   6.039 -0.6468 -0.4986 -0.3243
  810SOL    HW119572   0.832   2.511   6.044 -2.2207 -1.0285  2.6846
  810SOL    HW219573   0.830   2.380   6.121  1.7072 -3.2559 -0.5972
  811SOL     OW19574   4.712   0.084   6.815 -0.2493  0.2087 -0.8773
  811SOL    HW119575   4.743   0.110   6.902 -1.4032 -0.7094 -0.1657
  811SOL    HW219576   4.631   0.134   6.803 -0.5738 -0.3560 -1.0376
  812SOL     OW19577   6.115   2.408   0.966  0.2921 -0.2717  0.1770
  812SOL    HW119578   6.120   2.503   0.975  1.6637 -0.4582  1.9661
  812SOL    HW219579   6.034   2.384   1.009  0.1960  0.0493  0.1767
  813SOL     OW19580   2.948   6.214   0.303  0.4830  0.3851  0.4446
  813SOL    HW119581   2.933   6.307   0.284  1.3719  0.6724  1.1020
  813SOL    HW219582   3.023   6.191   0.247  1.6029  0.6268  1.7851
  814SOL     OW19583   5.347   5.963   5.677  0.2023 -0.1176  0.0487
  814SOL    HW119584   5.409   6.017   5.727 -0.6268  1.2101 -0.2844
  814SOL    HW219585   5.399   5.891   5.643  0.6633 -1.5160  3.4036
  815SOL     OW19586   4.380   6.092   0.333  0.3000  0.5156 -0.1780
  815SOL    HW119587   4.362   6.185   0.341 -0.2941  0.3390  0.8016
  815SOL    HW219588   4.416   6.067   0.419  2.5553  0.2577 -1.1204
  816SOL     OW19589   2.787   0.335   6.344 -0.2084  0.0923  0.1778
  816SOL    HW119590   2.792   0.246   6.309  0.0424  0.4492 -0.7255
  816SOL    HW219591   2.697   0.342   6.378 -0.1967 -0.5326  0.3459
  817SOL     OW19592   4.899   0.376   0.039 -0.0220  0.5566  0.4011
  817SOL    HW119593   4.869   0.341   0.123 -0.7537 -0.4137 -0.2492
  817SOL    HW219594   4.819   0.411  -0.002  0.5131  2.0450  0.5758
  818SOL     OW19595   3.072   5.492   5.214  0.3624 -0.1988  0.6087
  818SOL    HW119596   3.086   5.419   5.153  0.9898 -0.8984  1.5783
  818SOL    HW219597   3.137   5.557   5.189 -1.8871  1.2980 -2.0511
  819SOL     OW19598   0.387   3.063   0.157 -0.2041  0.5458 -0.3109
  819SOL    HW119599   0.404   2.971   0.137  0.7101 -0.0566  2.7201
  819SOL    HW219600   0.294   3.074   0.139 -0.7104 -1.4509  0.7322
  820SOL     OW19601   3.988   2.375   0.886 -0.3917  0.0752 -0.1617
  820SOL    HW119602   4.044   2.418   0.950 -0.6227  1.5138 -0.8839
  820SOL    HW219603   4.011   2.416   0.803 -0.9050 -0.9427 -0.8277
  821SOL     OW19604   4.459   1.370   5.644 -0.1068 -0.4802  0.3351
  821SOL    HW119605   4.401   1.425   5.696  0.8466 -0.9718  1.9821
  821SOL    HW219606   4.530   1.428   5.616 -1.2709  0.1016 -1.6114
  822SOL     OW19607   4.511   5.465   7.317  0.3345  0.4352 -0.5020
  822SOL    HW119608   4.438   5.447   7.377  1.4045  0.5367  0.8896
  822SOL    HW219609   4.571   5.392   7.332  1.5166  1.4821  0.0234
  823SOL     OW19610   3.867   3.684   6.379  0.3178 -0.3024  0.6970
  823SOL    HW119611   3.898   3.600   6.345  0.7923 -0.0648  0.5323
  823SOL    HW219612   3.944   3.741   6.376 -0.2930  0.5123 -0.4067
  824SOL     OW19613   3.912   4.373   6.720 -0.5624 -0.7530 -0.4247
  824SOL    HW119614   3.816   4.380   6.721 -0.6460 -1.3505 -1.6452
  824SOL    HW219615   3.942   4.464   6.714 -0.9977 -0.4796  1.1475
  825SOL     OW19616   4.203   1.894   0.169 -0.1155  1.2042 -0.4361
  825SOL    HW119617   4.135   1.946   0.127  0.6986  2.2905 -0.4760
  825SOL    HW219618   4.241   1.842   0.098  0.2081  1.8655 -0.7609
  826SOL     OW19619   2.249   5.901   6.175  0.2993  1.0111 -0.4794
  826SOL    HW119620   2.156   5.889   6.153  0.5867  0.4270 -1.4778
  826SOL    HW219621   2.286   5.945   6.098  1.3068 -0.8609 -1.1395
  827SOL     OW19622   0.683   4.671   0.878 -0.4977 -0.3493  0.6441
  827SOL    HW119623   0.659   4.627   0.796 -0.6876  0.5688  0.2009
  827SOL    HW219624   0.774   4.645   0.893 -0.2609 -0.0409 -0.1856
  828SOL     OW19625   1.397   2.702   0.216  0.2388 -0.2126 -0.5863
  828SOL    HW119626   1.447   2.625   0.191  1.0430 -0.2281  0.9281
  828SOL    HW219627   1.444   2.738   0.292 -1.6667  0.1368  0.5032
  829SOL     OW19628   1.312   6.165   5.297 -0.2035  0.2933  0.3158
  829SOL    HW119629   1.315   6.257   5.269 -1.7305 -0.0464 -1.1180
  829SOL    HW219630   1.383   6.123   5.248 -1.2566  0.2091 -1.2143
  830SOL     OW19631   6.178   4.676   2.179  0.9350  0.2068  0.2310
  830SOL    HW119632   6.151   4.758   2.138 -0.3847 -0.5825 -0.5339
  830SOL    HW219633   6.229   4.631   2.112 -0.1877 -0.5416 -0.1531
  831SOL     OW19634   0.205   2.701   0.244  0.5574 -0.3767 -0.0707
  831SOL    HW119635   0.227   2.635   0.311  1.2873  0.9333  1.0313
  831SOL    HW219636   0.287   2.718   0.199  0.5980  0.4732  0.3080
  832SOL     OW19637   2.921   0.740   1.207 -0.0005 -0.6983  0.6375
  832SOL    HW119638   2.894   0.811   1.265 -0.0785 -0.0651 -0.1591
  832SOL    HW219639   3.009   0.717   1.238 -0.2147 -0.6759  1.2843
  833SOL     OW19640   4.992   1.632   6.514 -0.1498 -0.5106  0.6946
  833SOL    HW119641   4.934   1.689   6.463 -1.1256 -0.7967  1.4685
  833SOL    HW219642   4.949   1.622   6.598  0.6068 -1.4267  0.9920
  834SOL     OW19643   1.928   6.576   5.939  0.1695 -0.0428 -0.5450
  834SOL    HW119644   1.978   6.539   5.866 -0.2317 -0.3346 -0.6770
  834SOL    HW219645   1.838   6.580   5.906 -0.0488 -0.3556  0.0015
  835SOL     OW19646   6.403   1.067   1.098  0.0669 -0.4438 -0.1481
  835SOL    HW119647   6.408   1.091   1.191  0.2984  0.9486 -0.5013
  835SOL    HW219648   6.492   1.044   1.075 -0.3355 -2.9816  0.4824
  836SOL     OW19649   2.262   3.706   0.940 -0.0765 -0.2966 -0.0449
  836SOL    HW119650   2.244   3.638   0.875  2.0829 -0.4773 -0.5131
  836SOL    HW219651   2.292   3.658   1.017  0.1882  0.0634  0.0783
  837SOL     OW19652   4.405   4.700   6.919 -0.0303  0.7864  0.2077
  837SOL    HW119653   4.448   4.766   6.973 -2.3556  2.7182 -0.1276
  837SOL    HW219654   4.312   4.710   6.938 -0.8315  0.4776 -2.9039
  838SOL     OW19655   6.513   3.616   6.150 -0.0441 -0.5881  0.8935
  838SOL    HW119656   6.428   3.658   6.163 -0.0242 -0.4679  0.6322
  838SOL    HW219657   6.559   3.629   6.233  0.1998  0.4399  0.6051
  839SOL     OW19658   1.506   6.033   5.154 -0.0221  0.2068  0.0178
  839SOL    HW119659   1.518   6.040   5.060  0.5589 -2.6440 -0.1924
  839SOL    HW219660   1.580   5.980   5.184 -1.5358 -1.0662  1.6817
  840SOL     OW19661   4.406   1.769   0.741  0.5169 -0.1603  0.1658
  840SOL    HW119662   4.500   1.763   0.756  0.6576 -1.8097 -1.1789
  840SOL    HW219663   4.398   1.819   0.660  0.2244 -0.0798  0.2428
  841SOL     OW19664   5.712   2.798   5.905  0.4833 -0.3626 -0.0464
  841SOL    HW119665   5.647   2.843   5.852  0.4635 -0.1241  0.1755
  841SOL    HW219666   5.678   2.803   5.995  0.4025 -0.9650 -0.0415
  842SOL     OW19667   0.706   1.847   0.437  0.5806 -0.6290 -0.2958
  842SOL    HW119668   0.787   1.805   0.408  0.7672 -0.2496 -0.3439
  842SOL    HW219669   0.724   1.875   0.527  0.1964 -1.3116 -0.0013
  843SOL     OW19670   2.683   3.774   5.246  0.2487 -0.1173 -0.0006
  843SOL    HW119671   2.649   3.694   5.204  1.4989 -0.8554  0.3314
  843SOL    HW219672   2.605   3.821   5.274 -0.5963 -0.1763 -2.0796
  844SOL     OW19673   2.411   5.967   5.002 -0.3297  0.0291 -0.4735
  844SOL    HW119674   2.466   5.923   5.068 -1.0896  1.6656  1.3568
  844SOL    HW219675   2.468   5.974   4.925  0.3681 -2.5838 -0.3126
  845SOL     OW19676   4.587   5.656   0.211  0.1336  0.3027  0.0889
  845SOL    HW119677   4.494   5.671   0.200  0.0894 -0.4819 -0.7268
  845SOL    HW219678   4.623   5.659   0.122  1.0829  1.7386  0.4774
  846SOL     OW19679   4.857   4.937   0.687 -0.3372  0.0213  0.4521
  846SOL    HW119680   4.845   4.842   0.692  0.5725 -0.0631  1.5014
  846SOL    HW219681   4.951   4.948   0.679 -0.5564  0.8085 -1.5407
  847SOL     OW19682   2.436   5.160   0.271  0.6380 -0.1400 -0.2572
  847SOL    HW119683   2.483   5.093   0.221 -1.5420  0.2668 -3.0959
  847SOL    HW219684   2.377   5.110   0.328  1.7641 -0.5981  0.5442
  848SOL     OW19685   2.088   2.600   7.289  0.2546 -0.5387 -0.3451
  848SOL    HW119686   2.051   2.588   7.377  0.0363  0.8740 -0.2108
  848SOL    HW219687   2.170   2.647   7.304  0.1667 -0.2010 -0.8934
  849SOL     OW19688   5.282   5.624   6.706 -0.2005 -0.0087  0.4161
  849SOL    HW119689   5.353   5.605   6.645  0.5045  1.9140  0.5716
  849SOL    HW219690   5.204   5.584   6.666  0.3621  0.6257 -1.3996
  850SOL     OW19691   5.443   2.139   1.529  0.4722 -0.4126 -0.7150
  850SOL    HW119692   5.434   2.101   1.442 -0.8404  1.0132 -1.2520
  850SOL    HW219693   5.407   2.073   1.588 -1.5565 -0.1966 -1.6056
  851SOL     OW19694   3.628   3.791   6.144 -0.0928  0.1175  0.1123
  851SOL    HW119695   3.648   3.704   6.179  3.5331  1.1382  1.0623
  851SOL    HW219696   3.559   3.824   6.201 -1.1980 -1.8931  0.0360
  852SOL     OW19697   2.393   3.913   5.562 -0.2794  0.6365  1.0356
  852SOL    HW119698   2.380   4.007   5.579 -0.4373  0.3506  2.6759
  852SOL    HW219699   2.462   3.887   5.623  0.2490 -0.1778  0.1110
  853SOL     OW19700   4.125   4.454   1.007 -0.5538  0.2084  0.1886
  853SOL    HW119701   4.164   4.498   1.082  0.4571 -0.2268 -0.0541
  853SOL    HW219702   4.083   4.523   0.957  0.0356  0.7336  0.4036
  854SOL     OW19703   1.816   4.582   6.735 -0.5686 -0.3532  0.4819
  854SOL    HW119704   1.785   4.507   6.685  0.5929 -0.0783 -0.7049
  854SOL    HW219705   1.796   4.657   6.680  0.0740  0.0242  0.7607
  855SOL     OW19706   5.436   2.682   6.561 -0.9006 -0.3026 -0.8022
  855SOL    HW119707   5.426   2.660   6.468  1.8853 -1.8695 -0.8374
  855SOL    HW219708   5.463   2.600   6.602  1.7676  1.1522  0.6315
  856SOL     OW19709   0.198   2.319   7.106 -0.3254  0.3951 -0.2810
  856SOL    HW119710   0.138   2.247   7.087 -0.0775  0.5778 -1.9255
  856SOL    HW219711   0.236   2.297   7.191  1.0499 -2.3616 -1.4799
  857SOL     OW19712   2.206   5.105   1.506  0.1865  0.0345 -0.0331
  857SOL    HW119713   2.287   5.055   1.502  0.0843 -0.0839 -0.7505
  857SOL    HW219714   2.206   5.144   1.593  0.2174 -1.2876  0.5747
  858SOL     OW19715   5.548   3.096   1.452 -0.1999 -0.3024 -0.3437
  858SOL    HW119716   5.571   3.157   1.522 -0.3648  0.5505 -1.0137
  858SOL    HW219717   5.561   3.009   1.490 -0.1452  0.1487  0.6889
  859SOL     OW19718   4.728   6.291   6.616 -0.1491  0.6537  0.3979
  859SOL    HW119719   4.788   6.266   6.545 -1.5747  0.3269 -0.7520
  859SOL    HW219720   4.654   6.229   6.607 -0.0946  0.2101  2.5665
  860SOL     OW19721   0.287   4.282   5.716 -0.1255  0.2061  0.2219
  860SOL    HW119722   0.218   4.220   5.694 -0.5438  0.6865  0.1569
  860SOL    HW219723   0.368   4.234   5.701 -0.3335  0.5443 -2.6967
  861SOL     OW19724   1.462   0.455   5.613 -0.1818 -0.2150  0.5720
  861SOL    HW119725   1.525   0.427   5.680  0.6137 -0.6128 -0.3097
  861SOL    HW219726   1.505   0.528   5.568 -1.6896  1.6161  1.9744
  862SOL     OW19727   0.251   1.995   1.013 -0.4620 -0.0527 -0.3361
  862SOL    HW119728   0.248   1.986   0.917 -1.1803  0.1856 -0.3418
  862SOL    HW219729   0.159   2.003   1.039 -0.3518 -1.1592  0.4793
  863SOL     OW19730   4.957   0.700   5.922  0.2297  0.4052 -0.0034
  863SOL    HW119731   4.911   0.784   5.930 -2.2461 -0.6670 -1.7580
  863SOL    HW219732   4.944   0.659   6.008 -0.0765  1.0887  0.2945
  864SOL     OW19733   3.575   4.257   1.947 -0.3846  0.3782 -0.6342
  864SOL    HW119734   3.497   4.218   1.909  0.4468  0.0109 -2.0068
  864SOL    HW219735   3.635   4.184   1.960 -0.1738  0.6895  0.2299
  865SOL     OW19736   2.696   1.458   2.394 -0.1246 -0.5217 -0.3038
  865SOL    HW119737   2.737   1.543   2.376 -2.3934  0.7193  0.0554
  865SOL    HW219738   2.754   1.394   2.353  1.6261  1.1870 -0.6312
  866SOL     OW19739   5.381   5.212   5.790  0.3751  1.1016  0.1643
  866SOL    HW119740   5.328   5.291   5.792 -2.6317 -0.5952 -2.8174
  866SOL    HW219741   5.371   5.178   5.701  1.7983 -2.4299  1.1628
  867SOL     OW19742   5.123   0.755   0.584  0.2791 -0.2126  0.2964
  867SOL    HW119743   5.170   0.831   0.549  0.2193 -0.3532 -0.0904
  867SOL    HW219744   5.032   0.769   0.559 -0.0331  0.4378  1.6910
  868SOL     OW19745   0.218   4.121   6.336  0.0297  0.1861  0.0345
  868SOL    HW119746   0.253   4.067   6.407  1.0739  1.0190  0.1675
  868SOL    HW219747   0.281   4.112   6.265  0.6876  1.9121  0.3648
  869SOL     OW19748   6.467   2.432   0.558 -0.1887  0.2531  0.5720
  869SOL    HW119749   6.445   2.345   0.527 -1.8156  1.1015 -0.7902
  869SOL    HW219750   6.467   2.487   0.480  0.4914  1.5503  1.4376
  870SOL     OW19751   3.659   4.705   7.392 -0.1622 -0.1938  0.0194
  870SOL    HW119752   3.610   4.651   7.331 -0.1879 -0.6801  0.4636
  870SOL    HW219753   3.721   4.645   7.433 -0.9659 -0.1499  1.3546
  871SOL     OW19754   5.348   1.047   0.861  0.2491 -0.3485 -0.1988
  871SOL    HW119755   5.407   0.986   0.816  0.4786 -0.5834  0.4057
  871SOL    HW219756   5.263   1.032   0.820  0.6277  0.0888 -1.1708
  872SOL     OW19757   2.447   5.226   6.325 -0.1806 -0.6718  0.4886
  872SOL    HW119758   2.425   5.271   6.407 -0.0311  0.6513 -0.1602
  872SOL    HW219759   2.465   5.297   6.264  1.8102 -1.6527 -0.1369
  873SOL     OW19760   2.770   1.561   1.155 -0.5009  0.0603 -0.1060
  873SOL    HW119761   2.825   1.536   1.230  0.4392  0.3604 -0.6723
  873SOL    HW219762   2.698   1.498   1.156 -1.4591  1.0795  2.0426
  874SOL     OW19763   2.589   1.427   6.318  0.1054 -0.1089  0.3908
  874SOL    HW119764   2.529   1.502   6.315  2.7676  2.3739  2.8790
  874SOL    HW219765   2.632   1.426   6.233 -0.6196  0.5928  0.0071
  875SOL     OW19766   3.838   0.570   5.801 -0.3537 -0.4711  0.4005
  875SOL    HW119767   3.828   0.544   5.710 -0.7376 -0.0621  0.3235
  875SOL    HW219768   3.861   0.488   5.847 -2.5186 -1.1922  0.3199
  876SOL     OW19769   0.521   2.142   6.354  0.9395 -0.4279  0.1607
  876SOL    HW119770   0.452   2.169   6.292  0.8297 -0.9135  0.0615
  876SOL    HW219771   0.510   2.047   6.361  3.4534 -1.0413 -2.1736
  877SOL     OW19772   6.436   2.160   0.452  0.1095  0.3028 -0.1446
  877SOL    HW119773   6.491   2.083   0.470  1.9859  2.1728  2.9626
  877SOL    HW219774   6.349   2.134   0.481  0.2492 -1.2675 -0.9986
  878SOL     OW19775   3.220   0.938   1.448 -0.3534  0.0315  0.4012
  878SOL    HW119776   3.181   0.914   1.532  0.3580 -2.0970  0.1854
  878SOL    HW219777   3.193   0.870   1.388 -3.2701  2.9862 -1.9976
  879SOL     OW19778   2.706   0.396   1.797 -0.3718  0.2655 -0.4076
  879SOL    HW119779   2.761   0.330   1.838 -2.1163 -0.8630  0.2707
  879SOL    HW219780   2.733   0.479   1.836 -0.0381 -0.4312  0.8849
  880SOL     OW19781   2.188   1.923   1.755 -0.3449  0.4189 -0.3662
  880SOL    HW119782   2.259   1.898   1.696  0.6008 -0.5075  1.1102
  880SOL    HW219783   2.181   1.850   1.817  1.1247  2.7895  2.8636
  881SOL     OW19784   3.000   4.010   0.908 -0.0425 -0.2453  0.4180
  881SOL    HW119785   3.085   3.968   0.920 -0.8536 -1.6215  1.7246
  881SOL    HW219786   2.940   3.938   0.885 -1.3951  0.2046  2.2932
  882SOL     OW19787   5.328   4.965   6.877  0.3252 -0.5470  0.2705
  882SOL    HW119788   5.416   4.931   6.894  0.1302 -1.5431 -0.6576
  882SOL    HW219789   5.278   4.940   6.955  0.5024 -1.2443  0.1593
  883SOL     OW19790   0.621   3.780   5.378  0.1249  0.6857 -0.7417
  883SOL    HW119791   0.680   3.840   5.424  2.1740 -1.0526 -0.9289
  883SOL    HW219792   0.534   3.820   5.388  1.3801  3.8368 -1.1996
  884SOL     OW19793   0.451   4.860   6.867  0.1193  0.2258  0.1715
  884SOL    HW119794   0.387   4.892   6.803 -0.5415 -2.3837 -0.6125
  884SOL    HW219795   0.399   4.840   6.945  0.3694  0.1703  0.3257
  885SOL     OW19796   1.575   2.849   1.887  0.3148 -0.1853  0.2437
  885SOL    HW119797   1.492   2.845   1.934  0.4364  0.7388  0.5466
  885SOL    HW219798   1.589   2.759   1.856  0.5149 -0.9640  2.4566
  886SOL     OW19799   1.504   3.202   7.151 -0.5726  0.0711 -0.6095
  886SOL    HW119800   1.478   3.217   7.060 -1.2882  1.9631 -0.1534
  886SOL    HW219801   1.430   3.154   7.189 -3.1139  4.1409  0.2971
  887SOL     OW19802   2.338   5.252   0.954 -0.0063 -0.3501 -0.0654
  887SOL    HW119803   2.290   5.201   1.018  0.0550  0.0419  0.2958
  887SOL    HW219804   2.428   5.254   0.987  0.3242 -1.2806 -0.8548
  888SOL     OW19805   2.881   1.770   1.686  0.0713  0.2656 -0.1837
  888SOL    HW119806   2.904   1.677   1.687  1.0120  0.4790 -0.9384
  888SOL    HW219807   2.843   1.786   1.772 -1.7284 -1.2111 -0.6407
  889SOL     OW19808   3.710   3.142   7.124  0.0230 -0.1389  0.6190
  889SOL    HW119809   3.686   3.092   7.202 -0.5799 -2.6821 -1.0734
  889SOL    HW219810   3.771   3.086   7.078  0.2640  1.2471 -0.8186
  890SOL     OW19811   6.466   1.040   1.359 -0.7690  0.6328 -0.7497
  890SOL    HW119812   6.452   1.056   1.453  0.4351 -2.3723  0.0548
  890SOL    HW219813   6.560   1.025   1.351 -0.7933  1.2767 -2.5636
  891SOL     OW19814   4.175   6.548   0.160  0.2489  1.1272  0.5598
  891SOL    HW119815   4.185   6.558   0.066  0.0628  0.3387  0.4528
  891SOL    HW219816   4.262   6.567   0.195  0.8533 -0.5054  0.0580
  892SOL     OW19817   3.820   4.926   6.149  0.3105  0.1255  0.3749
  892SOL    HW119818   3.734   4.924   6.107  1.0110 -3.3947 -1.2843
  892SOL    HW219819   3.803   4.904   6.240 -0.7270  2.6240  0.8839
  893SOL     OW19820   3.855   1.531   7.151  0.3626 -0.3823 -0.3734
  893SOL    HW119821   3.797   1.561   7.082  1.0839 -0.1546 -0.8854
  893SOL    HW219822   3.939   1.514   7.107  0.8258 -0.2400  0.4370
  894SOL     OW19823   1.016   0.978   0.862  0.2852 -0.4807 -0.4565
  894SOL    HW119824   1.039   0.905   0.805 -2.2618 -2.3472  0.7096
  894SOL    HW219825   1.086   0.982   0.926  1.5507 -0.4466 -1.8046
  895SOL     OW19826   1.674   4.650   7.310 -0.5359  0.4355  0.0935
  895SOL    HW119827   1.734   4.683   7.377  1.0439 -1.7230 -0.1724
  895SOL    HW219828   1.632   4.574   7.350 -2.3930  1.3077 -0.1045
  896SOL     OW19829   3.739   3.091   1.362  0.0763  0.8197 -0.2767
  896SOL    HW119830   3.766   3.174   1.401 -1.3420  0.8447  0.7248
  896SOL    HW219831   3.733   3.030   1.435  1.6045 -0.3352 -1.0729
  897SOL     OW19832   5.210   0.572   0.798 -0.5413  0.7075 -0.3126
  897SOL    HW119833   5.187   0.613   0.715 -1.7680 -1.1356 -0.9465
  897SOL    HW219834   5.287   0.519   0.779 -1.3974 -0.4969 -0.5834
  898SOL     OW19835   2.854   5.679   1.170  0.1806 -0.2108 -0.2706
  898SOL    HW119836   2.895   5.631   1.241 -0.0603  0.7457  0.5387
  898SOL    HW219837   2.877   5.630   1.091 -0.0132 -1.6085  0.5066
  899SOL     OW19838   5.167   0.781   6.283  0.2276  0.2275  0.2384
  899SOL    HW119839   5.171   0.864   6.329  0.4424  0.3075  0.0763
  899SOL    HW219840   5.085   0.783   6.235  0.8927  0.9451 -0.9012
  900SOL     OW19841   3.506   2.293   7.342  0.0189 -0.0618  0.0419
  900SOL    HW119842   3.594   2.270   7.312 -0.1662 -0.4035 -0.2548
  900SOL    HW219843   3.517   2.375   7.390  0.4584  0.0322 -0.2146
  901SOL     OW19844   4.419   2.271   5.194  0.2768  0.2800 -0.1659
  901SOL    HW119845   4.513   2.281   5.183  0.1830 -0.2660 -1.6135
  901SOL    HW219846   4.382   2.348   5.150  0.0155  0.2918  0.0684
  902SOL     OW19847   6.387   6.534   0.573  0.0224  0.0694 -0.2052
  902SOL    HW119848   6.441   6.524   0.494 -0.6019 -1.1670 -0.4908
  902SOL    HW219849   6.415   6.618   0.610  1.1928  0.0862 -1.0712
  903SOL     OW19850   5.004   6.418   7.354 -0.1774 -0.2646  1.0005
  903SOL    HW119851   4.955   6.337   7.342 -3.0876  1.1117  2.6444
  903SOL    HW219852   4.981   6.448   7.441 -0.7058  3.2476 -0.1736
  904SOL     OW19853   0.581   3.586   1.104  0.2506 -0.5109  0.3180
  904SOL    HW119854   0.510   3.646   1.084  0.9222 -0.0950 -0.9516
  904SOL    HW219855   0.601   3.543   1.020  1.1410 -0.9990  0.7589
  905SOL     OW19856   3.065   2.869   5.459 -0.1444  0.5306 -0.2215
  905SOL    HW119857   3.125   2.795   5.464 -0.5126  0.0770 -1.9022
  905SOL    HW219858   3.081   2.919   5.539  1.3228 -0.4411  0.1188
  906SOL     OW19859   3.930   4.615   5.725 -0.3181 -0.1101 -0.1814
  906SOL    HW119860   4.019   4.651   5.725 -1.8201  4.1845 -0.1270
  906SOL    HW219861   3.916   4.586   5.635  1.0681 -0.7404 -0.2215
  907SOL     OW19862   5.883   2.644   1.465  0.4633  0.2488 -0.5433
  907SOL    HW119863   5.883   2.704   1.540  0.2651  0.1522 -0.4671
  907SOL    HW219864   5.828   2.687   1.399  0.5903  0.3064 -0.6127
  908SOL     OW19865   4.773   0.197   7.086  0.9981  0.2746  0.4693
  908SOL    HW119866   4.755   0.108   7.118 -0.6053 -0.9906 -3.3823
  908SOL    HW219867   4.868   0.201   7.081  1.1053 -1.2802  0.6117
  909SOL     OW19868   5.089   1.305   5.390 -0.2002 -0.1335 -0.3038
  909SOL    HW119869   5.030   1.265   5.455  1.5796  1.8544  2.7957
  909SOL    HW219870   5.173   1.262   5.405  0.4134  0.8823 -0.8049
  910SOL     OW19871   5.244   0.548   1.793 -0.4217  1.1810 -0.5896
  910SOL    HW119872   5.151   0.560   1.773 -0.6410  1.8235  0.7547
  910SOL    HW219873   5.258   0.596   1.874  0.0061 -2.8007  1.9585
  911SOL     OW19874   1.594   2.955   1.263  0.4483  0.0952  0.3444
  911SOL    HW119875   1.678   2.977   1.222  1.9041 -4.3629  0.4753
  911SOL    HW219876   1.617   2.930   1.352 -0.8998 -1.6743  0.2339
  912SOL     OW19877   5.306   0.475   7.272 -0.0577  0.1137  0.7289
  912SOL    HW119878   5.294   0.516   7.358 -0.5074  1.7333 -0.0678
  912SOL    HW219879   5.344   0.544   7.218 -1.1763 -0.3960 -0.7704
  913SOL     OW19880   5.940   0.622   6.761 -0.3526  0.6100  0.4678
  913SOL    HW119881   5.967   0.660   6.678 -1.2900  2.8454  1.0847
  913SOL    HW219882   6.006   0.651   6.824 -0.6325  0.5258  0.8115
  914SOL     OW19883   3.099   4.406   6.857  0.2435 -0.3053 -0.3237
  914SOL    HW119884   3.150   4.401   6.938  1.4027 -1.4926 -1.0896
  914SOL    HW219885   3.010   4.381   6.883 -0.1004  2.0255  1.0717
  915SOL     OW19886   3.428   2.455   1.495  0.7157  0.3773 -0.5046
  915SOL    HW119887   3.345   2.488   1.528 -0.0046 -2.1747  0.4907
  915SOL    HW219888   3.493   2.484   1.559  0.0974 -0.2032  0.4100
  916SOL     OW19889   6.252   0.400   6.779  0.2128 -0.1418  0.3334
  916SOL    HW119890   6.226   0.413   6.688  1.8154  1.1953  0.0168
  916SOL    HW219891   6.336   0.356   6.775 -0.3571 -1.3881  1.2380
  917SOL     OW19892   0.885   5.228   0.143 -0.4736  0.4346  0.6966
  917SOL    HW119893   0.835   5.151   0.117  1.5087 -0.8183  0.4156
  917SOL    HW219894   0.908   5.212   0.235  0.5337  0.3508  0.4379
  918SOL     OW19895   4.663   5.123   1.553 -0.3548 -0.1088 -0.2953
  918SOL    HW119896   4.590   5.108   1.493  0.1889  1.3516 -1.3827
  918SOL    HW219897   4.623   5.122   1.640 -1.2726 -1.6060 -0.7048
  919SOL     OW19898   2.765   3.852   1.628 -0.4500  0.1088  0.3003
  919SOL    HW119899   2.855   3.819   1.627 -0.6913 -0.7447  2.4278
  919SOL    HW219900   2.712   3.778   1.599 -0.6177 -0.0304  0.9443
  920SOL     OW19901   2.712   6.308   0.899 -0.6431  0.1895  0.1730
  920SOL    HW119902   2.791   6.298   0.846 -0.3233 -0.8332  0.8178
  920SOL    HW219903   2.645   6.337   0.837  0.1410  0.7286 -0.4460
  921SOL     OW19904   2.648   0.892   6.043 -0.9657 -0.1807 -0.2598
  921SOL    HW119905   2.680   0.950   6.112  1.1065 -0.4362 -0.9598
  921SOL    HW219906   2.620   0.951   5.973  2.2545  0.1231 -1.4718
  922SOL     OW19907   5.122   3.058   0.370 -0.3657  0.2215  0.4933
  922SOL    HW119908   5.146   3.149   0.392 -1.4489  0.8673 -0.8287
  922SOL    HW219909   5.167   3.042   0.287 -1.8587  0.3172 -0.3600
  923SOL     OW19910   4.939   3.242   2.202  0.3890  0.0744 -0.0363
  923SOL    HW119911   5.002   3.210   2.267 -3.2007 -1.6390  2.9520
  923SOL    HW219912   4.901   3.320   2.242 -0.4198  0.2388 -1.0903
  924SOL     OW19913   4.006   2.787   0.904  0.3918 -0.0048 -0.0646
  924SOL    HW119914   3.926   2.737   0.887 -0.7772  1.5191  0.7794
  924SOL    HW219915   4.044   2.802   0.818 -1.0179  0.5037 -0.6134
  925SOL     OW19916   5.927   4.140   0.886  0.1624 -0.1445  0.3859
  925SOL    HW119917   5.903   4.230   0.906  0.4706 -0.1381  0.7307
  925SOL    HW219918   5.906   4.129   0.793  0.2712  0.3266  0.3078
  926SOL     OW19919   1.376   0.877   0.712 -0.2464 -0.1341 -0.4369
  926SOL    HW119920   1.285   0.903   0.698 -0.3686 -0.9184 -1.2386
  926SOL    HW219921   1.381   0.788   0.675  0.0875 -1.3552  2.2842
  927SOL     OW19922   4.333   4.142   6.346  0.3821 -0.4295 -0.2490
  927SOL    HW119923   4.296   4.228   6.325 -0.4357 -0.4154  1.0993
  927SOL    HW219924   4.411   4.135   6.291  1.7406  2.1166  1.1986
  928SOL     OW19925   0.902   4.263   5.128 -0.4975 -0.4809  0.0821
  928SOL    HW119926   0.987   4.257   5.172 -0.0229  0.5045 -0.6692
  928SOL    HW219927   0.875   4.172   5.115  0.9888 -0.8457 -0.6884
  929SOL     OW19928   2.811   2.286   7.256  0.3746  0.2659  0.1741
  929SOL    HW119929   2.889   2.306   7.204 -0.7996  1.1867 -1.3186
  929SOL    HW219930   2.825   2.331   7.339  1.9483 -0.5932  0.4154
  930SOL     OW19931   4.908   2.398   1.061 -0.4170  0.1209 -0.0676
  930SOL    HW119932   4.966   2.371   1.132 -1.3639  0.5676  0.9024
  930SOL    HW219933   4.874   2.316   1.025  1.6774 -0.2130 -1.4384
  931SOL     OW19934   4.473   4.454   5.761  0.1767 -0.0245  0.3095
  931SOL    HW119935   4.565   4.481   5.769 -0.0917  0.6108  1.6654
  931SOL    HW219936   4.476   4.370   5.715  1.3092  0.7068 -0.9961
  932SOL     OW19937   4.387   3.925   1.554 -0.3221  0.2074  0.2796
  932SOL    HW119938   4.407   3.962   1.640 -0.9666 -0.4772  0.7328
  932SOL    HW219939   4.416   3.834   1.560  1.1250  0.5648 -0.7791
  933SOL     OW19940   4.971   2.354   1.789  0.1910 -0.5462 -0.4675
  933SOL    HW119941   4.936   2.432   1.832 -0.2538 -1.1260  0.2429
  933SOL    HW219942   4.927   2.353   1.704  0.5603  0.2283 -0.6848
  934SOL     OW19943   1.318   4.769   6.309 -0.1082 -0.3128 -0.0809
  934SOL    HW119944   1.259   4.837   6.275  0.0033 -0.7014 -1.0966
  934SOL    HW219945   1.266   4.689   6.306 -0.6024 -0.1408  2.1180
  935SOL     OW19946   3.271   4.817   6.255 -0.3406  0.4619 -0.0540
  935SOL    HW119947   3.181   4.792   6.233 -0.2093 -0.1290  0.0852
  935SOL    HW219948   3.273   4.819   6.350 -0.0885  0.0464 -0.0486
  936SOL     OW19949   0.268   0.008   7.356  0.5631 -0.2121  0.0325
  936SOL    HW119950   0.179  -0.024   7.338  0.9373 -1.8728  0.9479
  936SOL    HW219951   0.298   0.043   7.272 -0.3053 -1.2834 -0.7647
  937SOL     OW19952   6.257   2.660   6.565  0.2080 -0.2436 -0.0654
  937SOL    HW119953   6.225   2.571   6.584  0.2121 -0.1731  0.2778
  937SOL    HW219954   6.178   2.711   6.549  0.0431  0.2009  1.9218
  938SOL     OW19955   6.039   3.563   1.625 -0.2183 -0.2534  0.3799
  938SOL    HW119956   6.059   3.527   1.538 -0.6747 -1.4870  0.7644
  938SOL    HW219957   5.944   3.574   1.625 -0.2027 -0.1052  0.6701
  939SOL     OW19958   2.909   4.270   5.748 -0.2244 -0.3243 -0.0241
  939SOL    HW119959   2.884   4.279   5.656 -0.3178 -0.2132  0.0119
  939SOL    HW219960   2.891   4.178   5.768  1.0582 -0.6989 -0.4837
  940SOL     OW19961   4.475   6.081   0.603  0.1130  0.2993 -0.6142
  940SOL    HW119962   4.506   6.039   0.683 -1.1947  0.8094  0.1936
  940SOL    HW219963   4.548   6.135   0.575  0.0083  1.5420  1.2908
  941SOL     OW19964   5.349   4.705   5.815  0.0256 -0.6678 -0.4859
  941SOL    HW119965   5.358   4.788   5.769  0.8751 -2.1070 -3.1557
  941SOL    HW219966   5.256   4.697   5.834  0.1371  1.6303  1.4964
  942SOL     OW19967   5.852   5.856   0.194  0.7749 -0.1232  0.3942
  942SOL    HW119968   5.804   5.813   0.124  2.2583  0.4304 -1.0313
  942SOL    HW219969   5.787   5.869   0.264 -0.4737 -1.6532 -0.4345
  943SOL     OW19970   5.729   0.371   1.883  0.2225  0.5476 -0.2141
  943SOL    HW119971   5.657   0.411   1.834 -0.6321 -0.1043  0.4809
  943SOL    HW219972   5.731   0.280   1.852 -1.9860 -0.6279  2.6281
  944SOL     OW19973   6.494   2.252   6.909  0.2659  0.2652  0.0267
  944SOL    HW119974   6.402   2.269   6.929  0.1906 -0.0686 -0.0243
  944SOL    HW219975   6.529   2.211   6.989 -0.0759 -1.2200 -0.5500
  945SOL     OW19976   6.272   6.548   6.414 -0.1088 -0.6650 -0.1263
  945SOL    HW119977   6.292   6.511   6.500 -0.6140 -1.8256 -0.4981
  945SOL    HW219978   6.225   6.629   6.433 -1.3185 -1.5336  0.6955
  946SOL     OW19979   5.478   0.336   1.167 -0.1367 -0.7318 -0.4135
  946SOL    HW119980   5.391   0.374   1.165  0.0012 -0.4347 -0.7681
  946SOL    HW219981   5.529   0.388   1.106  0.1915 -1.1491 -0.5019
  947SOL     OW19982   0.750   5.798   7.158 -0.2061 -0.1868  0.2904
  947SOL    HW119983   0.767   5.704   7.162 -3.5521 -0.8724  3.4183
  947SOL    HW219984   0.680   5.807   7.094  1.2781  0.5477 -1.3285
  948SOL     OW19985   0.125   1.433   0.828 -0.3276 -0.3902  0.4282
  948SOL    HW119986   0.100   1.382   0.905  1.2157 -1.6473  0.1382
  948SOL    HW219987   0.206   1.477   0.854  0.5061 -1.2514 -0.6167
  949SOL     OW19988   6.189   2.099   0.511 -0.0154  0.2327  0.1127
  949SOL    HW119989   6.149   2.027   0.462  0.2835 -0.7531  1.2744
  949SOL    HW219990   6.135   2.107   0.590 -0.5566  1.8748 -0.3786
  950SOL     OW19991   2.977   1.468   1.290 -0.0236 -0.1801 -0.1562
  950SOL    HW119992   2.936   1.389   1.256 -0.9658  0.6617 -1.0534
  950SOL    HW219993   3.071   1.452   1.283 -0.2067 -1.2516 -0.2232
  951SOL     OW19994   2.890   3.533   6.939 -0.4026  0.0994 -0.4054
  951SOL    HW119995   2.916   3.474   6.868 -0.0469 -0.3613  0.1039
  951SOL    HW219996   2.940   3.613   6.922  0.9273 -0.5651  0.2223
  952SOL     OW19997   4.647   1.732   0.525  0.6838 -0.4984 -0.4116
  952SOL    HW119998   4.649   1.796   0.453 -0.1904  0.1159  0.0947
  952SOL    HW219999   4.563   1.688   0.516  0.7732 -0.7508 -0.0466
  953SOL     OW20000   6.329   1.637   6.130  0.5497 -0.0693  0.9331
  953SOL    HW120001   6.420   1.663   6.117  1.0440 -1.9738  0.3941
  953SOL    HW220002   6.287   1.656   6.046  0.4833  0.6212  1.1168
  954SOL     OW20003   4.757   4.876   6.222 -0.4343  0.1491 -0.0354
  954SOL    HW120004   4.844   4.909   6.244 -0.7891  0.4083  1.0566
  954SOL    HW220005   4.733   4.820   6.295 -0.8828 -0.5309 -0.6870
  955SOL     OW20006   4.459   2.909   1.416 -0.3980 -0.2509 -0.4038
  955SOL    HW120007   4.394   2.931   1.349 -1.6388 -0.7778  0.6108
  955SOL    HW220008   4.408   2.886   1.493  1.0026 -0.4254  0.5007
  956SOL     OW20009   4.256   5.485   7.483 -0.0001 -0.3174  0.6486
  956SOL    HW120010   4.297   5.555   7.535  2.4453 -0.0155 -1.4731
  956SOL    HW220011   4.163   5.492   7.503  0.5765  1.0539  3.3860
  957SOL     OW20012   0.838   3.381   1.918  0.0389  0.3550  0.1023
  957SOL    HW120013   0.832   3.474   1.937 -2.1868  0.4817 -0.9516
  957SOL    HW220014   0.809   3.373   1.827 -0.7768 -1.4701  0.4842
  958SOL     OW20015   5.066   4.234   6.287 -0.4601  0.1862  0.1609
  958SOL    HW120016   4.995   4.229   6.222  1.1680 -0.7109 -1.6802
  958SOL    HW220017   5.048   4.313   6.337 -3.4443 -0.6668  0.6698
  959SOL     OW20018   4.350   0.743   5.738  1.2332 -0.7597 -0.1282
  959SOL    HW120019   4.319   0.735   5.647 -0.0123 -0.2573  0.2254
  959SOL    HW220020   4.389   0.658   5.758  2.8826 -0.4169 -1.5942
  960SOL     OW20021   4.275   2.160   1.567 -0.1697 -0.6573  0.4640
  960SOL    HW120022   4.215   2.112   1.625 -0.3829 -1.2355 -0.2215
  960SOL    HW220023   4.329   2.092   1.527  0.4199 -0.2039  0.4804
  961SOL     OW20024   3.332   4.596   5.147 -0.0295 -0.0259 -0.3337
  961SOL    HW120025   3.368   4.513   5.115  1.0365  0.4846 -0.5058
  961SOL    HW220026   3.282   4.572   5.225 -1.1219 -1.0429 -1.3118
  962SOL     OW20027   2.088   2.146   0.621  0.7392  0.1014  0.4381
  962SOL    HW120028   1.999   2.174   0.642  0.7819  0.3167  0.3360
  962SOL    HW220029   2.132   2.142   0.706  0.2158 -1.4997  0.6660
  963SOL     OW20030   0.403   3.804   1.037  0.5582  0.2070 -0.3808
  963SOL    HW120031   0.349   3.882   1.025 -1.4346 -1.1481 -0.5449
  963SOL    HW220032   0.452   3.797   0.955  0.4285  1.0260 -0.5396
  964SOL     OW20033   3.123   3.775   5.918  0.6729  0.1021 -0.1851
  964SOL    HW120034   3.218   3.773   5.929  0.7775 -0.9568 -1.0934
  964SOL    HW220035   3.108   3.844   5.853  0.7272  0.8871  0.6176
  965SOL     OW20036   2.961   2.847   6.067 -0.3165  0.7183  0.0246
  965SOL    HW120037   3.029   2.901   6.107  0.9076 -1.1270  0.5398
  965SOL    HW220038   2.957   2.878   5.976  1.7096  0.4743 -0.2001
  966SOL     OW20039   3.582   1.780   0.093  0.2696  0.3364  0.5521
  966SOL    HW120040   3.537   1.857   0.126 -0.5689 -0.2906  0.9067
  966SOL    HW220041   3.615   1.736   0.171  1.2698  0.6360  0.3158
  967SOL     OW20042   2.915   4.520   0.383  0.2001 -0.1506 -0.3406
  967SOL    HW120043   2.873   4.557   0.305 -0.0703  2.8444  1.0718
  967SOL    HW220044   2.856   4.543   0.455  0.5593 -2.6000  0.8507
  968SOL     OW20045   4.528   2.499   7.252 -0.6847 -0.7612  0.0789
  968SOL    HW120046   4.545   2.404   7.250 -1.1400 -0.8917  1.4024
  968SOL    HW220047   4.610   2.537   7.284 -0.9222 -0.8257  0.7605
  969SOL     OW20048   5.222   0.956   0.413  0.5516 -0.1367  0.5534
  969SOL    HW120049   5.314   0.983   0.408 -0.0731  2.2486  0.7775
  969SOL    HW220050   5.174   1.026   0.368 -1.2022 -1.2073  0.6607
  970SOL     OW20051   6.520   1.818   7.040 -0.3669 -0.3973 -0.0316
  970SOL    HW120052   6.511   1.875   6.963 -0.9145 -0.2159  0.1578
  970SOL    HW220053   6.527   1.730   7.005 -1.2048 -0.3728 -0.2723
  971SOL     OW20054   2.217   0.051   5.598 -0.3882 -0.5980 -0.2368
  971SOL    HW120055   2.287   0.085   5.543  1.0124 -1.1729  1.1071
  971SOL    HW220056   2.163  -0.001   5.538  1.5037 -1.8364 -0.9815
  972SOL     OW20057   1.878   3.375   1.301  0.8427 -0.3247  0.1558
  972SOL    HW120058   1.890   3.443   1.367  0.0819  0.9900 -0.9834
  972SOL    HW220059   1.964   3.366   1.259  0.2459  2.6365 -2.0780
  973SOL     OW20060   1.866   4.218   7.014  0.1643  0.5124 -0.0530
  973SOL    HW120061   1.835   4.308   7.002 -0.1577  0.3477 -0.4665
  973SOL    HW220062   1.929   4.204   6.944 -0.5736  0.0643 -0.6333
  974SOL     OW20063   4.505   6.032   5.679  0.2473 -0.0370  0.0609
  974SOL    HW120064   4.572   5.986   5.628  0.8208  2.0374 -1.1941
  974SOL    HW220065   4.426   5.981   5.666  1.1290 -1.4017 -0.1483
  975SOL     OW20066   5.242   2.367   6.206 -0.2070  0.3055  0.2346
  975SOL    HW120067   5.215   2.424   6.278  0.6477 -0.5930  1.2835
  975SOL    HW220068   5.335   2.386   6.194  0.0305 -0.7007  0.4438
  976SOL     OW20069   1.913   0.745   0.714 -0.3038  0.3447  0.1271
  976SOL    HW120070   1.961   0.689   0.653  0.7141  0.2498  0.9774
  976SOL    HW220071   1.938   0.834   0.689  0.6379  0.2870  0.7820
  977SOL     OW20072   4.388   3.819   7.357 -0.1685  0.3253 -0.2178
  977SOL    HW120073   4.374   3.734   7.317  0.5625  0.6205 -1.1331
  977SOL    HW220074   4.338   3.880   7.302  2.0539  0.9510 -1.6747
  978SOL     OW20075   1.827   5.619   5.375  0.5843  0.1223  0.2203
  978SOL    HW120076   1.873   5.535   5.367 -0.2545 -0.2953 -0.3880
  978SOL    HW220077   1.869   5.676   5.312  1.1486  0.1606  0.6238
  979SOL     OW20078   4.443   2.589   5.376 -0.0069 -0.4913 -0.4912
  979SOL    HW120079   4.499   2.603   5.300  1.7791 -0.1334  0.8283
  979SOL    HW220080   4.495   2.534   5.434  0.0046  1.7867  1.8088
  980SOL     OW20081   5.456   3.548   6.963  0.9044  0.7187  0.1061
  980SOL    HW120082   5.382   3.605   6.987  1.1488  1.2427 -0.3791
  980SOL    HW220083   5.498   3.527   7.046  1.3951  2.0501  0.2051
  981SOL     OW20084   0.958   1.639   6.869  0.3255 -0.2260 -0.0508
  981SOL    HW120085   0.972   1.701   6.798  1.1220  1.8303  1.7519
  981SOL    HW220086   0.863   1.640   6.884  0.2080 -0.3230 -0.7519
  982SOL     OW20087   1.907   4.957   5.383  0.4249  0.3201  0.2696
  982SOL    HW120088   1.923   5.043   5.346  1.4922  0.3629  0.7921
  982SOL    HW220089   1.814   4.957   5.406  0.5666  1.5859  0.8972
  983SOL     OW20090   4.472   6.291   5.713  0.8146  0.4004  0.9311
  983SOL    HW120091   4.475   6.198   5.694  1.1962  0.3326  1.2991
  983SOL    HW220092   4.379   6.312   5.721  0.7390  0.0123  1.0546
  984SOL     OW20093   0.145   0.170   1.989  0.0421  0.2685  0.4840
  984SOL    HW120094   0.214   0.210   2.041 -0.4272  0.5725  0.8911
  984SOL    HW220095   0.074   0.154   2.052 -1.1274  2.0110 -0.3064
  985SOL     OW20096   2.839   0.771   0.549  0.1489  0.4906  0.1060
  985SOL    HW120097   2.833   0.688   0.596  1.6473  0.4057  0.2218
  985SOL    HW220098   2.898   0.825   0.603  0.2518  1.1378 -0.6304
  986SOL     OW20099   2.404   5.363   6.557  0.4889  0.5527 -0.2688
  986SOL    HW120100   2.373   5.286   6.605  0.3383 -0.2999 -1.6558
  986SOL    HW220101   2.326   5.418   6.548 -0.3550 -0.8438 -2.3552
  987SOL     OW20102   5.340   2.633   7.152 -0.1412  0.4263  0.3203
  987SOL    HW120103   5.416   2.620   7.095 -0.3911 -0.5581  0.1969
  987SOL    HW220104   5.375   2.679   7.228  0.0814  2.4215 -0.9003
  988SOL     OW20105   4.553   3.215   2.285  0.4743  0.1201  0.1802
  988SOL    HW120106   4.527   3.164   2.209  0.1386 -1.3928  1.2536
  988SOL    HW220107   4.605   3.287   2.250  1.7389 -1.4592 -1.3586
  989SOL     OW20108   3.545   6.220   7.258 -0.6712 -0.1687 -0.3262
  989SOL    HW120109   3.628   6.245   7.299 -0.6769 -0.6442 -0.0210
  989SOL    HW220110   3.570   6.191   7.170 -0.2749 -2.0071  0.3472
  990SOL     OW20111   2.441   4.172   2.004 -0.0625 -0.3951  0.5492
  990SOL    HW120112   2.467   4.105   2.068 -1.3531  0.4117  1.9953
  990SOL    HW220113   2.522   4.195   1.959  0.7570 -1.5366  1.3723
  991SOL     OW20114   1.907   1.977   1.374 -0.2054 -0.4992 -0.4189
  991SOL    HW120115   1.955   1.924   1.311 -0.7172 -0.0622 -1.1913
  991SOL    HW220116   1.841   1.917   1.410 -2.4017  0.1238 -3.0468
  992SOL     OW20117   6.188   1.616   5.890 -0.0278 -0.7023 -0.1314
  992SOL    HW120118   6.204   1.644   5.800  0.1765  1.2161  0.4569
  992SOL    HW220119   6.100   1.577   5.888  0.0157 -0.7646 -1.1540
  993SOL     OW20120   3.319   5.173   5.511  0.0699 -0.0467 -0.1806
  993SOL    HW120121   3.329   5.255   5.558  0.6774  0.0493 -0.4630
  993SOL    HW220122   3.271   5.116   5.571 -2.1369  1.1372 -0.7553
  994SOL     OW20123   5.837   6.559   1.429  0.1322  0.1023  0.1345
  994SOL    HW120124   5.905   6.575   1.363 -0.3532  3.1333  0.2059
  994SOL    HW220125   5.835   6.640   1.480 -1.9387 -0.8212  1.6351
  995SOL     OW20126   2.758   4.135   6.224 -0.4600  0.6067 -0.1383
  995SOL    HW120127   2.767   4.045   6.191 -2.0567 -0.7860  2.7582
  995SOL    HW220128   2.837   4.180   6.195  2.1080 -2.7209  1.0486
  996SOL     OW20129   5.265   3.033   2.122  0.2532  0.1986  0.7790
  996SOL    HW120130   5.269   3.129   2.118  0.1521  0.1840 -2.6415
  996SOL    HW220131   5.356   3.006   2.132  0.5561  0.6799 -0.4610
  997SOL     OW20132   3.827   3.261   6.125 -0.2344 -0.0941  0.1354
  997SOL    HW120133   3.858   3.174   6.102 -0.0229 -0.0284  0.1733
  997SOL    HW220134   3.884   3.321   6.077 -0.5809  0.0210 -0.1425
  998SOL     OW20135   0.254   0.883   5.486  0.1671  0.0651  0.3744
  998SOL    HW120136   0.300   0.966   5.500  0.3401 -0.1288  0.9597
  998SOL    HW220137   0.231   0.853   5.574  1.7515 -1.4578  0.3065
  999SOL     OW20138   0.000   2.268   6.156  0.5490 -0.7135 -0.6986
  999SOL    HW120139   0.054   2.237   6.084 -1.8420 -3.6829 -1.4441
  999SOL    HW220140   0.023   2.360   6.166  0.7868 -0.0183 -5.4464
 1000SOL     OW20141   6.165   3.889   6.056  0.6693 -0.1384  0.0817
 1000SOL    HW120142   6.077   3.914   6.027  1.0238  0.8973 -0.1150
 1000SOL    HW220143   6.184   3.809   6.006 -1.1047 -1.8226  1.8742
 1001SOL     OW20144   4.927   3.589   5.467 -0.9609 -0.4435 -0.3867
 1001SOL    HW120145   4.987   3.514   5.475 -0.4058 -0.2994 -2.4883
 1001SOL    HW220146   4.845   3.558   5.505 -1.2471 -2.8023 -2.6104
 1002SOL     OW20147   2.014   3.143   7.238  0.9337  0.0309  0.3995
 1002SOL    HW120148   1.959   3.202   7.185 -0.2384  0.5627  2.1229
 1002SOL    HW220149   2.079   3.201   7.278  0.3722  0.0189  1.3481
 1003SOL     OW20150   2.621   5.010   0.129 -0.3523 -0.4799 -0.2610
 1003SOL    HW120151   2.716   5.007   0.116  0.0703  2.9720  1.0970
 1003SOL    HW220152   2.586   5.027   0.041  0.5092  0.4556 -0.4448
 1004SOL     OW20153   5.895   4.854   6.828  0.2006 -0.5358 -0.4124
 1004SOL    HW120154   5.979   4.853   6.782 -0.2544  1.5997 -1.4405
 1004SOL    HW220155   5.891   4.942   6.866 -1.9790 -0.2254 -1.2428
 1005SOL     OW20156   5.833   1.749   1.396  0.0261  0.0762 -0.4134
 1005SOL    HW120157   5.759   1.716   1.446  0.6300 -2.0788 -0.8058
 1005SOL    HW220158   5.901   1.766   1.462  0.9879 -3.2036 -0.3531
 1006SOL     OW20159   1.411   5.754   6.725  0.4861  0.1481  0.0250
 1006SOL    HW120160   1.353   5.814   6.679 -1.2334 -1.9353 -0.6634
 1006SOL    HW220161   1.473   5.811   6.770 -0.6201  2.3963 -1.1305
 1007SOL     OW20162   3.593   1.978   5.397 -0.5427  0.1771 -0.4416
 1007SOL    HW120163   3.654   1.907   5.416 -1.4957 -0.4623  0.3058
 1007SOL    HW220164   3.636   2.029   5.328  0.7237 -0.3784 -0.0862
 1008SOL     OW20165   0.856   5.655   1.772 -0.3414 -0.0026  0.5610
 1008SOL    HW120166   0.932   5.705   1.802 -1.2531  3.1150 -1.7912
 1008SOL    HW220167   0.782   5.692   1.819 -0.8576 -0.3080  0.0056
 1009SOL     OW20168   3.748   2.063   5.135  0.6923 -0.5463 -0.2235
 1009SOL    HW120169   3.808   1.991   5.150  2.1275  0.1003 -2.3300
 1009SOL    HW220170   3.710   2.045   5.049 -1.5904 -0.5140  0.7061
 1010SOL     OW20171   3.125   0.027   6.093  0.3179  0.1771 -0.0583
 1010SOL    HW120172   3.164   0.086   6.028 -0.3687  1.2577  0.4737
 1010SOL    HW220173   3.031   0.028   6.074  0.3432 -1.1431 -0.3343
 1011SOL     OW20174   4.433   5.301   1.999  0.0760  0.2132  0.4491
 1011SOL    HW120175   4.476   5.224   2.039 -2.1564 -0.8258  0.9954
 1011SOL    HW220176   4.439   5.285   1.905  2.4625  1.0416  0.3873
 1012SOL     OW20177   3.847   2.291   6.699  0.5321 -0.5187 -0.4492
 1012SOL    HW120178   3.765   2.332   6.672 -0.2742 -1.9232 -0.2721
 1012SOL    HW220179   3.899   2.285   6.619  0.8932  1.2512 -0.3875
 1013SOL     OW20180   3.925   0.583   6.772  0.0014 -0.2341 -0.6962
 1013SOL    HW120181   3.850   0.607   6.718 -1.1742  1.3571  1.4940
 1013SOL    HW220182   3.983   0.660   6.768  0.0060 -0.1907  0.0990
 1014SOL     OW20183   1.102   0.617   0.188  0.0746 -0.2181  0.7264
 1014SOL    HW120184   1.154   0.654   0.260  2.2622 -1.6614 -0.0299
 1014SOL    HW220185   1.161   0.555   0.145 -1.7943 -0.7730 -1.1822
 1015SOL     OW20186   3.676   4.380   6.038  0.1684 -0.6696 -0.0437
 1015SOL    HW120187   3.668   4.344   5.950  0.4717 -1.9016  0.4166
 1015SOL    HW220188   3.701   4.471   6.024 -1.0715 -0.4887 -1.2469
 1016SOL     OW20189   4.448   3.299   1.597 -0.6045 -0.3818 -0.4613
 1016SOL    HW120190   4.398   3.302   1.679 -0.6828 -1.6220 -0.4555
 1016SOL    HW220191   4.540   3.294   1.626 -0.2630  3.1563 -0.4544
 1017SOL     OW20192   2.547   1.569   6.012  0.0568  0.3993  0.1066
 1017SOL    HW120193   2.555   1.664   6.020  0.4997  0.2700  1.3487
 1017SOL    HW220194   2.461   1.548   6.048 -0.7805  0.4775 -1.7330
 1018SOL     OW20195   3.165   1.079   5.940 -0.3502 -0.4525 -0.3554
 1018SOL    HW120196   3.110   1.006   5.969  0.0216 -0.9732 -0.9623
 1018SOL    HW220197   3.112   1.157   5.960 -0.4402 -0.8379  0.9667
 1019SOL     OW20198   3.881   4.523   6.327 -0.1385  1.0375  0.2268
 1019SOL    HW120199   3.792   4.557   6.316 -1.0130 -0.8682  0.9787
 1019SOL    HW220200   3.916   4.520   6.238 -1.8679 -0.7628 -0.4731
 1020SOL     OW20201   3.969   1.993   7.224 -0.0783 -0.4033  0.3551
 1020SOL    HW120202   4.008   1.945   7.151 -1.6699 -1.9021  0.4277
 1020SOL    HW220203   3.950   1.926   7.290 -2.1543  0.3250  0.5714
 1021SOL     OW20204   3.399   0.376   1.545  0.3628  0.1317 -0.1847
 1021SOL    HW120205   3.312   0.379   1.585  0.6538 -1.9044  0.6724
 1021SOL    HW220206   3.382   0.365   1.452 -0.2877 -0.2871 -0.0174
 1022SOL     OW20207   2.877   4.990   0.029  0.2381 -0.1180  0.7149
 1022SOL    HW120208   2.909   5.080   0.028 -3.1576  1.2636 -1.7538
 1022SOL    HW220209   2.906   4.953  -0.054 -1.1663 -0.1565  0.2312
 1023SOL     OW20210   6.240   5.147   0.826 -0.3087  0.7236  0.0958
 1023SOL    HW120211   6.189   5.105   0.896  0.0859 -0.7704 -0.4733
 1023SOL    HW220212   6.286   5.219   0.869  0.8867 -0.8959  1.6704
 1024SOL     OW20213   2.248   6.149   6.821  0.2161  0.0431  0.1200
 1024SOL    HW120214   2.279   6.128   6.733  1.1999 -0.2880  0.5334
 1024SOL    HW220215   2.199   6.071   6.848  0.5944 -0.1839  0.1636
 1025SOL     OW20216   6.252   2.917   5.815  0.1504 -0.2942 -0.3428
 1025SOL    HW120217   6.171   2.867   5.823  0.8111 -1.3076  0.3261
 1025SOL    HW220218   6.262   2.959   5.900 -0.0003  0.3489 -0.6429
 1026SOL     OW20219   4.333   3.790   6.345  0.0477  0.0906 -0.1409
 1026SOL    HW120220   4.399   3.807   6.279  1.9587  0.0921  1.6581
 1026SOL    HW220221   4.358   3.846   6.419 -3.3341  1.8857 -0.1701
 1027SOL     OW20222   5.476   2.325   0.748  0.0989  0.3283 -0.0471
 1027SOL    HW120223   5.482   2.233   0.722 -1.6801 -0.2343  1.3250
 1027SOL    HW220224   5.516   2.329   0.834 -1.1612  0.5004  0.5530
 1028SOL     OW20225   1.232   3.572   1.463 -0.0071 -0.2636  0.4198
 1028SOL    HW120226   1.226   3.588   1.557 -2.9636  1.9410 -0.0068
 1028SOL    HW220227   1.170   3.501   1.447  0.8465 -0.9686  0.1457
 1029SOL     OW20228   6.543   3.622   0.876  0.1638 -0.4569 -0.0986
 1029SOL    HW120229   6.607   3.642   0.945 -0.5007  1.7664 -0.0659
 1029SOL    HW220230   6.458   3.633   0.917 -0.2594 -0.9187 -0.8204
 1030SOL     OW20231   0.892   4.183   7.192  0.5111 -0.1605  0.6431
 1030SOL    HW120232   0.940   4.128   7.254  1.4397  0.2638  0.3299
 1030SOL    HW220233   0.878   4.125   7.116  1.6813  0.0687  0.2249
 1031SOL     OW20234   0.656   3.637   2.002  0.6591  0.4291 -0.2048
 1031SOL    HW120235   0.703   3.715   2.030  0.7560 -0.3238  1.8988
 1031SOL    HW220236   0.593   3.620   2.073 -0.5031 -0.4637 -1.3980
 1032SOL     OW20237   1.809   1.349   1.441 -0.7531  0.7206 -0.5309
 1032SOL    HW120238   1.736   1.299   1.404 -0.5093 -0.3686  0.3722
 1032SOL    HW220239   1.776   1.379   1.526 -0.6398  1.4726 -0.7532
 1033SOL     OW20240   2.340   4.052   7.064  0.4117 -0.2975  0.1431
 1033SOL    HW120241   2.412   3.995   7.092  0.4448 -0.1349  0.3939
 1033SOL    HW220242   2.274   3.992   7.031  0.6389 -0.4526 -0.0345
 1034SOL     OW20243   2.125   3.724   7.239  0.0024 -0.1407 -0.5002
 1034SOL    HW120244   2.076   3.801   7.210  2.1873  1.0676 -1.1573
 1034SOL    HW220245   2.164   3.688   7.160  1.5176 -0.0714  0.1800
 1035SOL     OW20246   5.365   2.805   0.620 -0.2389  0.3403 -0.0571
 1035SOL    HW120247   5.380   2.711   0.630 -0.8759 -0.2364 -3.2721
 1035SOL    HW220248   5.278   2.811   0.580 -0.8046  2.4303  1.3260
 1036SOL     OW20249   2.033   3.942   0.850 -0.6210 -0.3510 -0.5288
 1036SOL    HW120250   2.010   4.035   0.844  0.3952 -0.0686 -0.2445
 1036SOL    HW220251   2.123   3.937   0.817 -0.6284 -1.2182 -0.4471
 1037SOL     OW20252   3.367   3.936   5.888  0.1219  0.1243  0.0990
 1037SOL    HW120253   3.434   4.001   5.866  0.6509  0.0297  1.3327
 1037SOL    HW220254   3.292   3.960   5.834  0.9647  0.5573 -0.9210
 1038SOL     OW20255   4.678   3.239   6.650  0.1010 -0.1221 -0.0658
 1038SOL    HW120256   4.598   3.261   6.699  0.7455  0.3454  0.8002
 1038SOL    HW220257   4.720   3.170   6.702 -0.2864 -1.1858 -1.1074
 1039SOL     OW20258   3.298   5.448   6.410 -0.5477  0.0056 -0.3796
 1039SOL    HW120259   3.261   5.477   6.326  0.3307 -0.2961 -0.8865
 1039SOL    HW220260   3.224   5.450   6.471 -1.0485  0.8876 -0.9944
 1040SOL     OW20261   1.823   3.043   1.627  0.2006  0.1923  0.4346
 1040SOL    HW120262   1.882   3.025   1.554 -3.4049 -0.3482 -2.5995
 1040SOL    HW220263   1.808   2.957   1.668  0.3345  0.0947  0.2779
 1041SOL     OW20264   2.047   3.087   1.196 -0.4488  0.1923 -0.4031
 1041SOL    HW120265   2.132   3.043   1.191 -0.1172  0.7705 -0.0329
 1041SOL    HW220266   2.069   3.181   1.191 -1.0165  0.3652  0.2376
 1042SOL     OW20267   1.951   3.853   5.869  0.6392  0.5892  0.1544
 1042SOL    HW120268   2.020   3.915   5.844  1.2199  0.3960  1.2224
 1042SOL    HW220269   1.997   3.771   5.883  0.0801  0.2802  0.1793
 1043SOL     OW20270   5.842   4.309   1.319 -0.0717  0.3283 -0.2435
 1043SOL    HW120271   5.768   4.248   1.314 -0.1201  0.4177 -0.6811
 1043SOL    HW220272   5.855   4.323   1.412  0.5199 -1.0491 -0.0959
 1044SOL     OW20273   2.263   3.914   5.877 -0.1237  0.4380  0.5426
 1044SOL    HW120274   2.232   3.841   5.823  1.7617  0.8424 -1.2216
 1044SOL    HW220275   2.219   3.902   5.961 -3.7494  0.1230 -1.1843
 1045SOL     OW20276   0.222   0.789   1.400 -0.0567 -0.3017  0.1379
 1045SOL    HW120277   0.250   0.775   1.309 -0.4075  0.9347 -0.1759
 1045SOL    HW220278   0.185   0.877   1.401 -0.5667 -0.5029  1.3670
 1046SOL     OW20279   2.559   1.234   2.477 -0.0726 -0.1469 -0.1925
 1046SOL    HW120280   2.595   1.323   2.472  1.7509 -0.8585 -0.6298
 1046SOL    HW220281   2.489   1.233   2.412 -1.4122  1.4834  1.1312
 1047SOL     OW20282   3.128   6.390   6.235 -0.0503  0.0397  0.0029
 1047SOL    HW120283   3.201   6.402   6.296  0.5661  0.3131 -0.7750
 1047SOL    HW220284   3.115   6.476   6.196 -1.0082  0.0713  0.3552
 1048SOL     OW20285   6.144   0.843   0.668  0.3809 -0.1573 -0.5692
 1048SOL    HW120286   6.066   0.822   0.617  1.0487 -0.0713 -1.6798
 1048SOL    HW220287   6.141   0.938   0.679  0.2122 -0.1810 -0.4069
 1049SOL     OW20288   2.046   1.065   1.368  0.2664 -0.0986  0.0217
 1049SOL    HW120289   2.018   1.084   1.458 -0.9656 -1.1913 -0.1126
 1049SOL    HW220290   2.141   1.058   1.374  0.5147  2.5621  0.7081
 1050SOL     OW20291   6.031   3.277   6.612 -0.5360  0.3071 -0.2646
 1050SOL    HW120292   6.101   3.215   6.592 -1.7781 -0.8094 -1.3171
 1050SOL    HW220293   6.056   3.315   6.697  1.3547  0.0105 -0.6499
 1051SOL     OW20294   5.611   3.305   0.585  0.2359 -0.3786 -0.3588
 1051SOL    HW120295   5.569   3.383   0.549 -0.9645 -0.8911 -0.1175
 1051SOL    HW220296   5.644   3.258   0.508  1.0176  0.3644 -0.5033
 1052SOL     OW20297   4.873   3.535   5.837 -0.1460 -0.5057 -0.3892
 1052SOL    HW120298   4.806   3.568   5.777  0.3810  1.9282  0.2307
 1052SOL    HW220299   4.950   3.588   5.817  0.2880 -0.2129  1.8098
 1053SOL     OW20300   4.646   3.884   5.922 -0.0091  0.8805  0.0762
 1053SOL    HW120301   4.628   3.838   5.840  0.1484  1.1159 -0.0907
 1053SOL    HW220302   4.738   3.867   5.940 -0.2515  0.0970  0.6693
 1054SOL     OW20303   2.393   5.736   1.061  0.2536  0.6403 -0.3475
 1054SOL    HW120304   2.378   5.646   1.089 -0.5253  0.3312 -1.6783
 1054SOL    HW220305   2.473   5.732   1.009 -2.0419 -0.2295 -4.1901
 1055SOL     OW20306   1.150   2.333   5.779 -0.6213 -0.8914 -0.0124
 1055SOL    HW120307   1.166   2.374   5.864 -0.8258 -0.7043 -0.0619
 1055SOL    HW220308   1.219   2.268   5.770  0.1839 -0.0184 -0.2771
 1056SOL     OW20309   5.841   4.637   1.255 -0.0066 -0.1820 -0.3443
 1056SOL    HW120310   5.912   4.701   1.266 -1.7450  1.7282  0.2947
 1056SOL    HW220311   5.868   4.586   1.178  1.4468  1.3334 -0.9191
 1057SOL     OW20312   1.391   4.548   5.867  0.3079 -0.0281 -0.8449
 1057SOL    HW120313   1.318   4.539   5.806 -1.6653  1.2242  1.1876
 1057SOL    HW220314   1.395   4.641   5.887  2.8090  0.0131 -1.2220
 1058SOL     OW20315   3.698   3.490   0.349 -0.0276 -0.1681 -0.4293
 1058SOL    HW120316   3.649   3.503   0.431 -2.7447 -1.7150 -1.6758
 1058SOL    HW220317   3.790   3.486   0.377 -0.7598  0.2759  2.4103
 1059SOL     OW20318   1.007   4.473   5.880  0.3186 -0.2704  0.1682
 1059SOL    HW120319   1.062   4.481   5.802  0.2534  1.5236  0.2673
 1059SOL    HW220320   0.938   4.411   5.854  1.2986 -1.0732 -0.5841
 1060SOL     OW20321   3.750   1.608   6.642 -0.4428  0.2496 -0.2485
 1060SOL    HW120322   3.665   1.567   6.627 -0.3033  0.1376 -0.7636
 1060SOL    HW220323   3.811   1.534   6.649 -0.1505  0.3497 -1.4299
 1061SOL     OW20324   4.519   1.415   1.867  0.1481 -0.0866 -0.0580
 1061SOL    HW120325   4.484   1.504   1.860 -2.0025 -0.8717 -0.1268
 1061SOL    HW220326   4.551   1.395   1.779 -0.5919  0.1513 -0.3906
 1062SOL     OW20327   4.998   5.831   0.299  0.2086  0.4767 -0.3493
 1062SOL    HW120328   4.935   5.902   0.312  0.6200  0.9629 -0.9444
 1062SOL    HW220329   4.981   5.770   0.371 -1.4757  0.2005 -0.9314
 1063SOL     OW20330   4.628   3.488   2.752  0.0186  0.1636 -0.2010
 1063SOL    HW120331   4.664   3.512   2.666  3.7284 -0.6047  0.9747
 1063SOL    HW220332   4.624   3.571   2.800 -1.7169  0.5374 -0.9242
 1064SOL     OW20333   3.450   6.528   5.822  0.0987 -0.1446  0.5438
 1064SOL    HW120334   3.466   6.583   5.898  0.3839  0.0547  0.3424
 1064SOL    HW220335   3.498   6.447   5.840  0.6553  0.1278  0.3174
 1065SOL     OW20336   6.565   5.939   6.776  0.0286 -0.2340 -0.2649
 1065SOL    HW120337   6.659   5.940   6.793 -0.1663  0.7862  0.9067
 1065SOL    HW220338   6.547   5.849   6.749  1.6178 -0.0043 -2.3059
 1066SOL     OW20339   4.442   5.060   0.489  0.5007  0.0655 -0.3235
 1066SOL    HW120340   4.354   5.047   0.455  0.1264 -0.7369  0.8633
 1066SOL    HW220341   4.439   5.146   0.531 -0.1787 -0.5328  0.9405
 1067SOL     OW20342   0.976   2.697   5.480 -0.1204  0.0997 -0.5425
 1067SOL    HW120343   0.969   2.690   5.385 -0.9042 -0.7840 -0.4341
 1067SOL    HW220344   1.063   2.736   5.494 -0.7983  2.1693 -1.6594
 1068SOL     OW20345   0.919   3.720   5.131  0.3993 -0.4045  0.5719
 1068SOL    HW120346   0.859   3.700   5.058 -0.6598 -0.2493  1.3749
 1068SOL    HW220347   0.916   3.815   5.138  0.6089 -0.4110  0.7384
 1069SOL     OW20348   0.401   3.659   7.344 -0.1690 -0.5945  0.5469
 1069SOL    HW120349   0.382   3.582   7.397  0.4676 -0.9192  0.3168
 1069SOL    HW220350   0.349   3.646   7.264  0.5297 -1.1844  0.1721
 1070SOL     OW20351   3.502   4.000   7.200 -0.2414 -0.2075  0.3786
 1070SOL    HW120352   3.485   4.042   7.285 -0.4462  0.4265  0.0351
 1070SOL    HW220353   3.594   3.977   7.203  0.2134  1.4209  0.1092
 1071SOL     OW20354   5.628   1.727   6.708 -0.3674 -0.0007 -0.4149
 1071SOL    HW120355   5.723   1.731   6.720 -0.5504  0.5394  0.9363
 1071SOL    HW220356   5.617   1.716   6.613  1.0147  0.6675 -0.6782
 1072SOL     OW20357   4.786   3.624   1.011 -0.3726 -0.8011 -0.0522
 1072SOL    HW120358   4.736   3.634   1.092  1.6771  1.5963  1.0772
 1072SOL    HW220359   4.864   3.575   1.037  1.0159  1.2384 -0.1136
 1073SOL     OW20360   3.558   4.642   0.425  0.1387 -0.4487 -0.5055
 1073SOL    HW120361   3.535   4.562   0.473 -0.3782  0.9307  1.6882
 1073SOL    HW220362   3.478   4.667   0.380 -0.0605 -0.4742 -0.1662
 1074SOL     OW20363   0.563   2.560   6.820 -0.1630 -0.2395  0.1449
 1074SOL    HW120364   0.580   2.637   6.873 -0.5352  0.3277 -0.5420
 1074SOL    HW220365   0.517   2.500   6.878 -1.9716  0.9899  0.0534
 1075SOL     OW20366   2.904   4.899   6.593 -0.3245 -0.0172 -0.0601
 1075SOL    HW120367   2.939   4.810   6.588  0.6608  0.4040 -0.8774
 1075SOL    HW220368   2.939   4.934   6.675 -0.5810 -0.3064  0.1796
 1076SOL     OW20369   2.202   1.612   1.595 -0.2391 -0.0306 -0.5320
 1076SOL    HW120370   2.129   1.621   1.534  0.5712  0.1275 -1.5125
 1076SOL    HW220371   2.161   1.604   1.681 -1.4177 -0.3232 -1.0979
 1077SOL     OW20372   3.966   3.920   0.953 -0.1572  0.3180 -0.3063
 1077SOL    HW120373   3.884   3.890   0.913  0.8888 -1.9533 -0.9551
 1077SOL    HW220374   4.011   3.839   0.978  3.0888  1.2291 -2.4431
 1078SOL     OW20375   4.134   0.330   6.053  0.1925  0.3382 -0.0381
 1078SOL    HW120376   4.106   0.385   6.126 -0.7166 -0.1014 -0.0426
 1078SOL    HW220377   4.056   0.319   5.999  1.2577  2.1298 -2.0874
 1079SOL     OW20378   1.194   0.973   6.888 -0.1354  0.3057 -0.2958
 1079SOL    HW120379   1.276   0.992   6.933 -1.4457  1.6692  1.7337
 1079SOL    HW220380   1.154   1.059   6.874 -1.3978 -0.3427 -0.8478
 1080SOL     OW20381   2.919   2.129   0.121 -0.1912  0.2414 -0.5936
 1080SOL    HW120382   2.977   2.053   0.129 -0.4466 -0.0435 -1.3876
 1080SOL    HW220383   2.833   2.096   0.147 -0.3345  0.2095 -1.0995
 1081SOL     OW20384   4.485   4.824   1.549  0.2472  0.6502 -0.0811
 1081SOL    HW120385   4.393   4.836   1.524  0.0490 -0.0629  0.2633
 1081SOL    HW220386   4.532   4.822   1.466 -0.1203  0.5059 -0.2911
 1082SOL     OW20387   3.000   0.880   5.035 -0.2104 -0.0347 -0.3111
 1082SOL    HW120388   3.043   0.935   5.100 -1.7806 -1.1200  1.7661
 1082SOL    HW220389   3.072   0.835   4.991  0.9523  1.6571 -0.2220
 1083SOL     OW20390   6.445   6.241   7.378 -0.4273  0.5504 -0.1701
 1083SOL    HW120391   6.523   6.185   7.373 -0.6409 -0.0313  1.9151
 1083SOL    HW220392   6.435   6.276   7.290  0.4430 -1.7272 -1.2647
 1084SOL     OW20393   5.172   5.400   1.040  0.0895  0.0448  0.3385
 1084SOL    HW120394   5.227   5.477   1.051 -0.9982  0.8021  0.6966
 1084SOL    HW220395   5.181   5.377   0.948 -0.0192  0.9530  0.0966
 1085SOL     OW20396   4.543   6.309   6.363 -0.4680  0.3874  0.0524
 1085SOL    HW120397   4.477   6.250   6.328 -0.3986 -0.5615  1.4556
 1085SOL    HW220398   4.611   6.312   6.295  1.5265 -4.4346  1.4514
 1086SOL     OW20399   3.872   3.760   0.202  0.3875  0.7540  0.2609
 1086SOL    HW120400   3.910   3.838   0.161  2.2109  0.3469  1.0578
 1086SOL    HW220401   3.918   3.687   0.160  0.1833  0.2110  0.9716
 1087SOL     OW20402   0.923   6.484   0.855  0.3410  0.1514  0.0857
 1087SOL    HW120403   0.972   6.425   0.912 -1.7749 -2.3645 -0.4537
 1087SOL    HW220404   0.852   6.517   0.910 -0.8789 -1.1648 -0.6256
 1088SOL     OW20405   1.254   0.950   7.323 -0.1180  0.0432  0.1566
 1088SOL    HW120406   1.317   0.980   7.258  0.2275  0.7110  0.7849
 1088SOL    HW220407   1.302   0.886   7.375  0.3113  1.1404  1.1415
 1089SOL     OW20408   4.367   1.697   0.061 -0.4544 -0.4297  0.0365
 1089SOL    HW120409   4.377   1.631   0.129 -1.0952  0.2223  0.7854
 1089SOL    HW220410   4.451   1.743   0.059 -0.3891 -0.5392  0.2898
 1090SOL     OW20411   5.760   6.198   6.283  0.1327 -0.0126  0.4243
 1090SOL    HW120412   5.782   6.260   6.353  1.3034  0.4659 -0.3280
 1090SOL    HW220413   5.774   6.248   6.203 -1.2144 -0.5411 -0.1709
 1091SOL     OW20414   4.578   5.365   1.301  0.1761  0.2782 -0.5155
 1091SOL    HW120415   4.650   5.345   1.361 -0.4734 -0.0690  0.1826
 1091SOL    HW220416   4.589   5.303   1.229  1.7660  1.6117 -1.4922
 1092SOL     OW20417   5.446   3.338   1.835  0.1831 -0.6197 -0.4637
 1092SOL    HW120418   5.352   3.335   1.850  0.1349 -0.1853 -0.6601
 1092SOL    HW220419   5.480   3.393   1.905  0.5316 -2.2229  0.6902
 1093SOL     OW20420   3.427   1.096   1.355  0.3995  0.0393  0.3247
 1093SOL    HW120421   3.341   1.069   1.387 -0.7209  2.8890  0.0627
 1093SOL    HW220422   3.464   1.017   1.315 -2.9219 -0.9144 -1.2658
 1094SOL     OW20423   1.987   0.681   7.157  0.0346 -0.0377 -0.1928
 1094SOL    HW120424   2.045   0.728   7.218 -1.0361  2.5411 -1.0431
 1094SOL    HW220425   2.027   0.594   7.149  0.6875 -0.2545  3.5053
 1095SOL     OW20426   1.426   4.767   7.478  0.0297  0.3397  0.3688
 1095SOL    HW120427   1.464   4.722   7.553 -1.5471  3.7098  3.5231
 1095SOL    HW220428   1.500   4.810   7.435  1.0772 -2.3500 -0.7223
 1096SOL     OW20429   5.910   1.088   7.424  0.2725 -0.1714  0.2471
 1096SOL    HW120430   6.002   1.091   7.450  0.4324  1.7666 -0.4035
 1096SOL    HW220431   5.913   1.074   7.329 -0.2277 -3.3834  0.5981
 1097SOL     OW20432   3.401   0.689   7.294 -0.4598  0.1437  0.2502
 1097SOL    HW120433   3.352   0.708   7.374 -2.2292 -1.3209 -0.3994
 1097SOL    HW220434   3.369   0.603   7.267  1.4314 -0.2109 -1.0619
 1098SOL     OW20435   2.810   0.275   4.883 -0.9075 -0.0518  0.1941
 1098SOL    HW120436   2.835   0.351   4.935 -0.2746 -1.2990  1.7960
 1098SOL    HW220437   2.808   0.202   4.945  2.3126 -2.1668 -1.8302
 1099SOL     OW20438   1.507   2.254   0.403  0.0494  0.2348 -0.0795
 1099SOL    HW120439   1.480   2.229   0.315 -0.7418 -1.1852  0.5233
 1099SOL    HW220440   1.426   2.249   0.454  0.7938 -0.6277  1.0594
 1100SOL     OW20441   3.547   1.973   4.974 -0.1249 -0.1270  0.0234
 1100SOL    HW120442   3.503   1.906   4.922  0.0965 -1.0171  0.9449
 1100SOL    HW220443   3.486   2.047   4.976  0.4718  0.5490 -2.7203
 1101SOL     OW20444   2.941   2.241   0.674 -0.1283  0.1742  0.9641
 1101SOL    HW120445   2.980   2.311   0.622  0.0285  0.4450  1.4438
 1101SOL    HW220446   2.862   2.280   0.711  0.8723  0.6721  2.6689
 1102SOL     OW20447   0.887   1.163   0.704  0.0574 -0.0312 -0.1865
 1102SOL    HW120448   0.953   1.126   0.763  1.0036  1.4157 -0.3020
 1102SOL    HW220449   0.871   1.094   0.639  0.9076 -0.6721  0.2721
 1103SOL     OW20450   0.946   0.306   2.155 -0.0111 -0.5753 -0.3346
 1103SOL    HW120451   0.859   0.286   2.189  0.0570  0.2970  0.4168
 1103SOL    HW220452   0.947   0.269   2.067 -1.2317 -0.3807 -0.4499
 1104SOL     OW20453   0.499   5.756   7.450 -0.2959  0.2461  0.3496
 1104SOL    HW120454   0.592   5.742   7.466 -0.6505 -1.0002  1.5888
 1104SOL    HW220455   0.462   5.771   7.537 -1.4254 -0.6288  0.0499
 1105SOL     OW20456   5.683   1.421   1.430  0.4851 -0.3070 -0.2215
 1105SOL    HW120457   5.700   1.440   1.338  0.7355  1.4140  0.1364
 1105SOL    HW220458   5.598   1.378   1.431  0.8944 -1.1680 -1.3200
 1106SOL     OW20459   3.859   0.852   0.484  0.1306 -0.1591 -0.2481
 1106SOL    HW120460   3.807   0.784   0.439 -1.0174  0.1309  0.5838
 1106SOL    HW220461   3.793   0.909   0.524  1.0717 -0.7364  2.3189
 1107SOL     OW20462   5.371   5.664   5.248  0.1255 -0.2125  0.0888
 1107SOL    HW120463   5.364   5.665   5.343 -0.5035 -1.7854  0.0841
 1107SOL    HW220464   5.451   5.614   5.231  0.7657  0.8825 -0.2118
 1108SOL     OW20465   0.820   3.469   6.432 -0.4010  0.4358 -0.4011
 1108SOL    HW120466   0.819   3.539   6.497 -1.3514 -0.6135  0.7358
 1108SOL    HW220467   0.868   3.507   6.358  2.4890  1.0226  1.5904
 1109SOL     OW20468   1.678   2.324   7.067 -0.3911 -0.0027  0.0004
 1109SOL    HW120469   1.634   2.331   6.982  0.3461 -0.5854 -0.4482
 1109SOL    HW220470   1.726   2.241   7.061  0.4113  0.4081  0.6323
 1110SOL     OW20471   4.372   1.776   6.523  0.8084  0.4363 -0.3853
 1110SOL    HW120472   4.286   1.817   6.521  0.4554 -0.2890 -0.5560
 1110SOL    HW220473   4.433   1.848   6.540  0.0381  0.7653  1.2149
 1111SOL     OW20474   5.901   2.669   0.935  0.8960 -0.4624 -0.2587
 1111SOL    HW120475   5.945   2.739   0.983  0.5168  0.7210 -1.5696
 1111SOL    HW220476   5.846   2.714   0.871  1.6494 -1.9649 -2.0647
 1112SOL     OW20477   6.242   3.624   6.250  0.3262 -0.4588  0.4194
 1112SOL    HW120478   6.148   3.611   6.251  0.2989 -0.2403  1.6000
 1112SOL    HW220479   6.279   3.538   6.271  0.4428 -0.8105 -1.1121
 1113SOL     OW20480   1.477   1.349   1.668  0.0921 -0.4977 -0.2580
 1113SOL    HW120481   1.517   1.279   1.617  0.0323 -1.1067  0.5214
 1113SOL    HW220482   1.545   1.416   1.674  0.2849 -0.6518 -0.6752
 1114SOL     OW20483   1.534   3.061   6.175  0.2615  0.1007 -0.1153
 1114SOL    HW120484   1.467   3.015   6.124  0.8405  0.8246 -1.5739
 1114SOL    HW220485   1.573   2.994   6.230 -2.6248 -0.1212  1.9186
 1115SOL     OW20486   3.109   1.120   1.072  0.2127  0.2653  0.0615
 1115SOL    HW120487   3.156   1.166   1.002 -0.4084  0.8989  0.0540
 1115SOL    HW220488   3.118   1.028   1.049  1.0926  0.3944 -0.1655
 1116SOL     OW20489   4.727   3.783   7.261  0.1674  0.0364 -0.0588
 1116SOL    HW120490   4.744   3.731   7.339 -0.7268  0.8838  0.7284
 1116SOL    HW220491   4.773   3.737   7.191 -0.1104 -1.4703  0.7104
 1117SOL     OW20492   4.044   0.486   6.268  0.2189 -0.1866  0.2183
 1117SOL    HW120493   3.989   0.512   6.341 -1.0400  0.0059 -0.7564
 1117SOL    HW220494   4.116   0.550   6.268 -1.1221  1.3956 -0.2054
 1118SOL     OW20495   5.227   5.774   6.133  0.3058  0.0354 -0.1529
 1118SOL    HW120496   5.274   5.716   6.193 -0.6649 -0.8457 -0.2001
 1118SOL    HW220497   5.260   5.861   6.152 -0.3706 -0.1368  2.0757
 1119SOL     OW20498   3.240   2.534   1.677 -0.2364 -0.7068  0.6782
 1119SOL    HW120499   3.182   2.592   1.727 -0.0276 -0.7792  1.0129
 1119SOL    HW220500   3.273   2.471   1.742  0.9088 -0.1300  0.6928
 1120SOL     OW20501   0.451   5.908   0.929 -0.2445  0.3317 -0.1933
 1120SOL    HW120502   0.445   5.996   0.892  0.2333  0.4109 -0.0918
 1120SOL    HW220503   0.543   5.883   0.917  0.1964  0.7562  1.8127
 1121SOL     OW20504   0.310   4.833   0.243 -0.2158  0.1896  0.0840
 1121SOL    HW120505   0.302   4.775   0.168  0.2521 -0.1752  0.3076
 1121SOL    HW220506   0.392   4.880   0.227 -1.2977  1.8725 -0.8275
 1122SOL     OW20507   6.602   1.938   0.458  0.2805  0.1176 -1.2467
 1122SOL    HW120508   6.617   1.928   0.552  0.5656 -0.7686 -1.3746
 1122SOL    HW220509   6.575   1.850   0.429  0.4688  0.3159 -2.0425
 1123SOL     OW20510   5.985   2.739   6.189 -0.3444 -0.5606  0.5762
 1123SOL    HW120511   5.995   2.648   6.218 -0.8054 -0.0796  2.3699
 1123SOL    HW220512   5.928   2.733   6.112  1.9427 -2.0067 -1.1416
 1124SOL     OW20513   3.059   1.877   6.506 -0.0513 -0.1487  0.6524
 1124SOL    HW120514   3.069   1.858   6.599  0.4959 -0.2509  0.5749
 1124SOL    HW220515   2.969   1.909   6.498 -0.2640 -0.6096  1.1368
 1125SOL     OW20516   3.901   2.339   1.818 -0.2682 -0.1322  0.0843
 1125SOL    HW120517   3.829   2.294   1.862 -0.1721 -0.7094 -0.3400
 1125SOL    HW220518   3.898   2.308   1.728 -0.3307  0.8786 -0.2704
 1126SOL     OW20519   6.585   1.902   6.744  0.3197  0.1933 -0.1024
 1126SOL    HW120520   6.603   1.809   6.727  0.4316  0.4211 -1.2970
 1126SOL    HW220521   6.653   1.949   6.695 -2.4862  1.0360 -3.5634
 1127SOL     OW20522   0.779   5.175   5.758  0.3656 -0.1636  0.4628
 1127SOL    HW120523   0.787   5.192   5.852 -2.7018  1.0601  0.6204
 1127SOL    HW220524   0.710   5.109   5.751  1.7971 -1.5943 -0.9113
 1128SOL     OW20525   2.739   3.742   6.791  0.6694 -0.4696  0.7126
 1128SOL    HW120526   2.790   3.661   6.793  1.5367  0.0687  1.8829
 1128SOL    HW220527   2.800   3.809   6.761 -0.2984 -0.3663 -1.1879
 1129SOL     OW20528   1.562   1.920   6.755  0.5156 -0.1115  0.0597
 1129SOL    HW120529   1.655   1.938   6.744  0.3070  0.8516 -0.2002
 1129SOL    HW220530   1.520   1.966   6.682 -0.1235 -0.9274 -0.1003
 1130SOL     OW20531   5.048   3.722   6.365  0.1596 -0.7574 -0.5180
 1130SOL    HW120532   4.988   3.772   6.310 -0.8410 -0.2187  1.0025
 1130SOL    HW220533   5.108   3.787   6.402  1.0235 -1.1521 -1.1909
 1131SOL     OW20534   0.423   3.321   7.185 -0.3318 -0.5177 -0.4173
 1131SOL    HW120535   0.410   3.229   7.207 -2.1216  0.1077  1.4909
 1131SOL    HW220536   0.509   3.343   7.220  0.3821 -1.5736 -1.4405
 1132SOL     OW20537   0.060   1.291   6.417  0.3861 -0.6538  0.3360
 1132SOL    HW120538   0.067   1.329   6.330 -0.2186 -0.6450  0.2855
 1132SOL    HW220539   0.020   1.360   6.470  0.7553 -0.6566  0.6217
 1133SOL     OW20540   1.978   5.927   5.415 -0.0316 -0.5713  0.1410
 1133SOL    HW120541   1.896   5.919   5.465 -1.4768  1.1208 -1.8000
 1133SOL    HW220542   1.967   5.867   5.342  1.7828 -2.5126  1.3466
 1134SOL     OW20543   4.295   2.642   0.205 -0.1534 -0.0015  0.0165
 1134SOL    HW120544   4.233   2.711   0.184 -0.0811  0.5256  1.4307
 1134SOL    HW220545   4.366   2.654   0.143 -0.3268  0.9626 -0.0115
 1135SOL     OW20546   4.684   4.514   7.004  0.4124 -0.2852  0.8086
 1135SOL    HW120547   4.728   4.584   6.954 -0.9506  0.2493  0.3232
 1135SOL    HW220548   4.623   4.475   6.942  1.5130 -2.3085  0.9148
 1136SOL     OW20549   5.391   4.388   6.293  0.2485  0.0400  0.4095
 1136SOL    HW120550   5.299   4.393   6.265  0.3173 -0.1220  0.1448
 1136SOL    HW220551   5.415   4.297   6.279  0.4275  0.0650  0.5568
 1137SOL     OW20552   4.495   1.491   0.243 -0.1272  0.7377 -0.3576
 1137SOL    HW120553   4.581   1.451   0.236 -1.1122 -1.5570 -0.2910
 1137SOL    HW220554   4.491   1.524   0.333  0.7021  0.9371 -0.3917
 1138SOL     OW20555   0.688   4.601   7.400 -0.2980  0.1688 -0.1250
 1138SOL    HW120556   0.720   4.655   7.472 -1.1215 -0.4087  0.7165
 1138SOL    HW220557   0.751   4.529   7.394 -0.0629  0.3804 -0.1773
 1139SOL     OW20558   1.710   1.984   2.046 -0.3294  0.2893  0.2085
 1139SOL    HW120559   1.795   2.029   2.048 -0.7455  1.1514 -0.6756
 1139SOL    HW220560   1.721   1.909   2.104  0.4286  1.4715  1.6599
 1140SOL     OW20561   4.246   4.897   1.068 -0.5110  0.3020  0.0082
 1140SOL    HW120562   4.157   4.906   1.100 -0.8499 -0.4120 -0.7211
 1140SOL    HW220563   4.255   4.965   1.001 -0.2332  0.9081  0.6427
 1141SOL     OW20564   4.658   5.064   6.700 -0.3148 -0.3032  0.0998
 1141SOL    HW120565   4.616   5.086   6.617 -1.7161 -0.4475  0.7520
 1141SOL    HW220566   4.649   4.969   6.708  2.2143 -0.7158 -0.8202
 1142SOL     OW20567   1.970   3.562   1.462  0.3497  0.0015 -0.3203
 1142SOL    HW120568   2.049   3.603   1.429  0.0234  0.8501 -0.0732
 1142SOL    HW220569   1.952   3.607   1.545 -0.8974  0.4649 -0.8120
 1143SOL     OW20570   1.119   0.984   0.106 -0.1128 -0.1094 -0.3305
 1143SOL    HW120571   1.150   0.972   0.016 -0.9487 -0.7107 -0.5621
 1143SOL    HW220572   1.198   1.000   0.157  0.2441  1.8695 -1.4061
 1144SOL     OW20573   0.060   2.908   7.242 -0.4635 -0.2286 -0.3047
 1144SOL    HW120574   0.105   2.992   7.251  0.5341 -0.8868  1.2783
 1144SOL    HW220575   0.096   2.854   7.312 -1.8260 -1.6600 -0.6532
 1145SOL     OW20576   1.883   0.713   6.876 -0.6457 -0.3598  0.2524
 1145SOL    HW120577   1.877   0.690   6.969 -0.6603 -0.3982  0.2420
 1145SOL    HW220578   1.931   0.641   6.836 -1.8654 -1.0425 -0.0268
 1146SOL     OW20579   6.374   3.362   1.090  0.1359 -0.3968  0.5722
 1146SOL    HW120580   6.462   3.324   1.089  0.4833  0.3466 -1.1247
 1146SOL    HW220581   6.327   3.313   1.022 -0.1622  0.4679  0.1422
 1147SOL     OW20582   1.422   5.280   7.242  0.2838  0.6259  0.5981
 1147SOL    HW120583   1.410   5.342   7.314  1.7448  0.1971  1.2352
 1147SOL    HW220584   1.420   5.334   7.163 -1.1596  1.1203  0.9413
 1148SOL     OW20585   4.144   4.222   5.307  1.0171  0.3050 -0.2791
 1148SOL    HW120586   4.050   4.209   5.295  0.7385  2.1383 -0.3797
 1148SOL    HW220587   4.152   4.311   5.342  2.7145  0.1728 -0.2171
 1149SOL     OW20588   4.458   2.916   5.795  0.1287 -0.0820  0.0712
 1149SOL    HW120589   4.522   2.881   5.733 -0.7370 -1.0254 -0.3232
 1149SOL    HW220590   4.484   2.880   5.880  1.9819  2.1069  0.5252
 1150SOL     OW20591   4.608   3.213   6.343  0.0385 -0.4741  0.0143
 1150SOL    HW120592   4.631   3.128   6.305 -2.0306 -1.1417  0.1378
 1150SOL    HW220593   4.643   3.210   6.431 -0.7152 -1.5667  0.2983
 1151SOL     OW20594   0.772   0.515   1.203  0.4684  0.1678 -0.5217
 1151SOL    HW120595   0.804   0.433   1.166  0.3137 -0.6111  1.0126
 1151SOL    HW220596   0.773   0.502   1.298  0.1258  1.8234 -0.2471
 1152SOL     OW20597   3.081   4.527   6.074  0.2061 -0.1364 -0.3986
 1152SOL    HW120598   3.103   4.618   6.095  2.3575 -0.4592 -1.0834
 1152SOL    HW220599   3.064   4.527   5.980  0.6521 -0.5273 -0.4796
 1153SOL     OW20600   1.556   5.040   0.278 -0.5143 -0.0402 -0.2371
 1153SOL    HW120601   1.470   5.005   0.255  0.1100 -0.9359 -1.3081
 1153SOL    HW220602   1.586   5.086   0.199  0.2520 -0.2890 -0.1058
 1154SOL     OW20603   1.071   4.754   0.520 -0.1431  0.2361 -0.0561
 1154SOL    HW120604   1.022   4.759   0.438 -1.3403  0.0652  0.6356
 1154SOL    HW220605   1.159   4.784   0.497 -0.9871  2.1938 -0.9900
 1155SOL     OW20606   6.208   2.800   0.278  0.4017 -0.4781  0.0357
 1155SOL    HW120607   6.169   2.750   0.350  2.8471  0.2306  1.9892
 1155SOL    HW220608   6.135   2.820   0.220 -1.6574 -1.2482  2.2202
 1156SOL     OW20609   3.480   3.181   6.953  0.6979  0.3504  0.0128
 1156SOL    HW120610   3.557   3.133   6.984  2.0893  1.5993 -1.3108
 1156SOL    HW220611   3.431   3.117   6.901  2.0711  0.0719 -1.0221
 1157SOL     OW20612   0.725   1.484   6.152 -0.2801 -0.1177 -0.3295
 1157SOL    HW120613   0.722   1.496   6.057 -2.4230 -0.0938 -0.3241
 1157SOL    HW220614   0.808   1.440   6.169 -0.9027 -2.3612 -2.4944
 1158SOL     OW20615   5.721   6.495   7.076 -0.0310 -1.0429  0.3695
 1158SOL    HW120616   5.653   6.510   7.141 -2.3319  0.8653 -2.2313
 1158SOL    HW220617   5.797   6.545   7.107 -1.6087  1.1956  0.8408
 1159SOL     OW20618   1.926   1.745   7.056  0.7025 -0.4895  0.4141
 1159SOL    HW120619   2.006   1.792   7.029 -0.4389  1.0486 -0.4470
 1159SOL    HW220620   1.882   1.723   6.974 -0.4267 -0.1060  0.9058
 1160SOL     OW20621   4.343   4.228   0.580 -0.4724  0.1357 -0.0604
 1160SOL    HW120622   4.274   4.164   0.599  0.2580 -0.6127  0.1292
 1160SOL    HW220623   4.325   4.256   0.490  0.7788 -2.4539 -1.2498
 1161SOL     OW20624   2.001   1.426   6.334 -0.2523  0.5174 -0.2583
 1161SOL    HW120625   2.037   1.422   6.246 -2.1897 -3.9213 -1.1710
 1161SOL    HW220626   2.077   1.419   6.392  0.8712  0.0218 -1.7248
 1162SOL     OW20627   0.862   3.585   1.217 -0.0671 -0.0510 -0.0209
 1162SOL    HW120628   0.776   3.589   1.175 -0.9618 -2.9055  1.3039
 1162SOL    HW220629   0.845   3.548   1.303  2.5660 -1.3211  0.0502
 1163SOL     OW20630   5.126   3.096   2.399  0.2988 -0.0482  0.3920
 1163SOL    HW120631   5.207   3.092   2.348 -1.0736  1.3754 -2.0160
 1163SOL    HW220632   5.102   3.004   2.412  1.4546 -0.4589 -0.2224
 1164SOL     OW20633   0.029   3.852   6.481 -0.2525 -0.2539 -0.0866
 1164SOL    HW120634  -0.061   3.833   6.456 -0.6779  2.1030 -0.5672
 1164SOL    HW220635   0.023   3.895   6.566  0.3029  0.7354 -0.5264
 1165SOL     OW20636   1.667   5.262   6.761 -0.4274 -0.7023  0.6336
 1165SOL    HW120637   1.755   5.264   6.724  0.4210 -1.9265  2.4399
 1165SOL    HW220638   1.635   5.352   6.753  0.0906 -0.7018 -2.0042
 1166SOL     OW20639   1.307   3.011   7.203  0.0225 -0.2506 -0.0044
 1166SOL    HW120640   1.213   3.021   7.187 -0.2610  0.0878  1.6380
 1166SOL    HW220641   1.312   2.977   7.292  1.4841  1.4847  0.6348
 1167SOL     OW20642   3.030   0.481   2.617  0.3146 -0.6998  0.1094
 1167SOL    HW120643   3.097   0.492   2.549  0.2756 -0.7678  0.0607
 1167SOL    HW220644   2.948   0.500   2.574  0.3381 -0.2371  0.2657
 1168SOL     OW20645   5.316   4.865   5.603  0.0777  0.2075  0.3647
 1168SOL    HW120646   5.244   4.822   5.557 -0.2900  0.6509  0.5219
 1168SOL    HW220647   5.362   4.913   5.534 -0.8666  1.4168  0.5310
 1169SOL     OW20648   4.804   1.365   7.118  0.2397 -0.1628 -0.1360
 1169SOL    HW120649   4.717   1.389   7.088 -0.5097 -0.3455  1.7408
 1169SOL    HW220650   4.792   1.278   7.158  1.8150 -1.3689 -2.0948
 1170SOL     OW20651   5.009   1.332   6.781 -0.5297 -0.3722 -0.5021
 1170SOL    HW120652   4.968   1.277   6.848 -1.5739 -1.3139 -1.8335
 1170SOL    HW220653   5.100   1.339   6.807 -0.8937 -0.7832  0.9578
 1171SOL     OW20654   0.081   0.144   6.547  0.2676  0.6188 -0.0897
 1171SOL    HW120655  -0.015   0.149   6.541  0.2007 -0.0794  0.2514
 1171SOL    HW220656   0.107   0.231   6.575 -0.4521  0.2981  1.7243
 1172SOL     OW20657   0.755   5.888   1.631 -0.1337  0.4888 -0.4464
 1172SOL    HW120658   0.702   5.942   1.572 -0.6321 -1.5207 -1.9517
 1172SOL    HW220659   0.810   5.835   1.573  0.8439 -0.1321  0.9818
 1173SOL     OW20660   1.072   2.079   7.485 -0.1020  0.1835 -0.2526
 1173SOL    HW120661   1.037   2.021   7.417 -0.1434 -0.6658  0.4750
 1173SOL    HW220662   1.167   2.066   7.482 -0.1336 -0.1222  0.0922
 1174SOL     OW20663   5.836   5.350   5.189 -0.2361  1.2754  0.6550
 1174SOL    HW120664   5.791   5.276   5.229  1.2862 -2.1481 -3.2528
 1174SOL    HW220665   5.929   5.330   5.200  0.3606  4.3433  2.1415
 1175SOL     OW20666   1.949   5.794   5.864  0.4240  0.1945 -0.0176
 1175SOL    HW120667   2.041   5.817   5.872  0.5610 -0.2434 -0.2729
 1175SOL    HW220668   1.942   5.752   5.778 -0.1078  0.6589 -0.2113
 1176SOL     OW20669   4.890   2.413   7.175 -0.2924 -0.4104  0.2572
 1176SOL    HW120670   4.894   2.407   7.271  0.2943  0.1539  0.2722
 1176SOL    HW220671   4.981   2.423   7.148 -0.6115  1.7604 -0.1912
 1177SOL     OW20672   3.934   5.062   1.674  0.7448  0.0528  0.3251
 1177SOL    HW120673   3.909   5.070   1.582  0.2252  0.9365  0.5344
 1177SOL    HW220674   3.951   4.968   1.686  1.5671  0.0222 -0.8571
 1178SOL     OW20675   3.262   3.212   7.418 -0.2705 -0.4358  0.3697
 1178SOL    HW120676   3.177   3.255   7.417 -0.0535  0.0304  1.2951
 1178SOL    HW220677   3.312   3.257   7.350 -0.6701 -0.5337  0.0060
 1179SOL     OW20678   1.103   1.581   7.278 -0.4682  0.7399 -0.5459
 1179SOL    HW120679   1.110   1.650   7.345  0.0374  0.4761 -0.3225
 1179SOL    HW220680   1.152   1.508   7.315 -2.0829 -0.2087 -0.1894
 1180SOL     OW20681   3.703   2.896   6.848  0.0623  0.0862 -0.2952
 1180SOL    HW120682   3.793   2.866   6.857  0.0877 -0.4478 -1.9147
 1180SOL    HW220683   3.667   2.892   6.936  1.7661  0.8171  0.4701
 1181SOL     OW20684   1.298   4.627   7.258 -0.6109 -0.1571  0.0249
 1181SOL    HW120685   1.362   4.556   7.253 -1.0138 -0.5269  0.0213
 1181SOL    HW220686   1.323   4.677   7.335 -0.3017 -0.2819  0.0088
 1182SOL     OW20687   3.848   1.282   1.541 -0.0632  0.5118  0.4700
 1182SOL    HW120688   3.763   1.279   1.586  0.2519 -1.1621  1.0211
 1182SOL    HW220689   3.826   1.267   1.449 -0.4954  1.7193  0.3568
 1183SOL     OW20690   3.243   3.957   2.069 -0.4836 -0.3852  0.0996
 1183SOL    HW120691   3.212   3.968   2.159  0.9375 -1.8425  0.8134
 1183SOL    HW220692   3.245   3.862   2.057  1.2629 -0.2610 -0.7695
 1184SOL     OW20693   2.842   3.239   5.655  0.0284 -0.1114 -0.0586
 1184SOL    HW120694   2.827   3.162   5.600  0.6491  0.3554 -0.9015
 1184SOL    HW220695   2.933   3.230   5.683  0.3054  0.6324 -0.6890
 1185SOL     OW20696   0.790   5.009   0.008 -0.2025 -0.0928  0.1116
 1185SOL    HW120697   0.785   5.029  -0.086  1.4358  0.0816  0.0442
 1185SOL    HW220698   0.817   4.918   0.012 -2.2975 -0.7600  0.4525
 1186SOL     OW20699   6.066   1.307   0.599 -0.0287  0.2127 -0.2525
 1186SOL    HW120700   6.039   1.356   0.521  1.2304  0.4923 -0.5323
 1186SOL    HW220701   6.002   1.333   0.666  1.1150  3.0306 -0.1061
 1187SOL     OW20702   5.155   1.720   7.264  0.0504  0.0202 -0.6394
 1187SOL    HW120703   5.092   1.665   7.312  0.0454 -1.1900 -1.9773
 1187SOL    HW220704   5.122   1.722   7.175  0.1146  2.1714 -0.6510
 1188SOL     OW20705   3.838   0.109   6.351  0.4695  0.3221  0.4547
 1188SOL    HW120706   3.836   0.125   6.257 -1.7328 -0.2001  0.3524
 1188SOL    HW220707   3.882   0.025   6.360 -0.3943 -0.2356 -0.2639
 1189SOL     OW20708   6.339   4.198   0.250 -0.2841  0.6637  0.2434
 1189SOL    HW120709   6.345   4.108   0.218  2.0040  1.2759 -1.2859
 1189SOL    HW220710   6.264   4.236   0.202 -0.0078  0.1316 -0.6299
 1190SOL     OW20711   0.018   1.447   0.583 -0.3091  0.2702  0.3032
 1190SOL    HW120712  -0.056   1.505   0.600  0.1060  1.2154 -0.9281
 1190SOL    HW220713   0.069   1.449   0.664 -0.6385  1.1549  0.5032
 1191SOL     OW20714   0.581   0.297   1.685 -0.2560  0.4785  0.1355
 1191SOL    HW120715   0.511   0.232   1.686 -0.7018  0.9494 -0.0233
 1191SOL    HW220716   0.559   0.357   1.756  0.1875  0.4236  0.3235
 1192SOL     OW20717   5.137   3.843   2.774 -0.0628 -0.0838  0.2882
 1192SOL    HW120718   5.105   3.933   2.773  0.4358  0.1441 -2.5107
 1192SOL    HW220719   5.059   3.790   2.785 -0.4979  0.6317  0.7778
 1193SOL     OW20720   2.351   2.484   5.384 -0.2599 -0.1494 -0.2883
 1193SOL    HW120721   2.406   2.560   5.364  1.1846 -1.2099 -0.5149
 1193SOL    HW220722   2.349   2.480   5.480 -2.5589  1.6826 -0.1878
 1194SOL     OW20723   6.462   3.640   1.413  0.5850 -0.5729 -0.0653
 1194SOL    HW120724   6.475   3.710   1.477 -1.4814 -0.2527  0.0650
 1194SOL    HW220725   6.368   3.636   1.400  0.7619 -2.3555 -1.1973
 1195SOL     OW20726   6.325   2.023   1.476  0.1881  0.1463  0.8580
 1195SOL    HW120727   6.379   2.096   1.447  0.6989 -0.6234 -0.2011
 1195SOL    HW220728   6.382   1.946   1.468 -1.2442 -0.8086 -1.0784
 1196SOL     OW20729   2.979   5.790   0.470  0.0982  0.3469  0.6477
 1196SOL    HW120730   3.011   5.779   0.380 -2.0951 -0.3797 -0.1164
 1196SOL    HW220731   2.988   5.883   0.488 -0.1548  0.6346 -0.6363
 1197SOL     OW20732   4.619   5.712   7.237 -0.7850  0.5318 -0.4090
 1197SOL    HW120733   4.661   5.749   7.315  0.1499  1.3844 -1.2767
 1197SOL    HW220734   4.577   5.632   7.268  2.5724 -1.1507  0.3367
 1198SOL     OW20735   2.322   2.522   0.566  0.5933 -0.1965  0.2239
 1198SOL    HW120736   2.228   2.537   0.558  0.4629 -1.0663  0.0763
 1198SOL    HW220737   2.347   2.567   0.646 -0.0057 -0.2274  0.4277
 1199SOL     OW20738   5.278   2.220   6.447  0.5846  0.0569 -0.1846
 1199SOL    HW120739   5.336   2.261   6.383 -0.1148  1.1705 -0.1148
 1199SOL    HW220740   5.250   2.139   6.404  1.0963  0.1799 -0.7743
 1200SOL     OW20741   2.967   1.540   0.652 -0.0137  0.4541 -0.2044
 1200SOL    HW120742   2.934   1.484   0.722 -0.2110  0.5071 -0.2554
 1200SOL    HW220743   3.022   1.605   0.696  0.9035 -0.2771 -0.2143
 1201SOL     OW20744   6.594   6.238   6.363 -0.2036 -0.4384  0.3308
 1201SOL    HW120745   6.647   6.305   6.406 -1.4347  1.1017 -0.4261
 1201SOL    HW220746   6.577   6.274   6.275 -1.3705 -1.4788  0.0993
 1202SOL     OW20747   1.530   2.496   0.086 -0.2152  0.6590 -0.0833
 1202SOL    HW120748   1.603   2.456   0.039  1.3373  2.8701  0.2547
 1202SOL    HW220749   1.551   2.484   0.178 -0.3246  1.2055  0.0159
 1203SOL     OW20750   3.064   5.860   5.577 -0.2168 -0.2751 -0.3853
 1203SOL    HW120751   3.148   5.835   5.614 -0.0984 -1.2933 -1.2847
 1203SOL    HW220752   3.075   5.851   5.482 -1.3552 -0.4958 -0.5181
 1204SOL     OW20753   1.101   3.206   0.566  0.6016  0.0189  0.1986
 1204SOL    HW120754   1.005   3.211   0.570  0.4794  1.7196 -2.2521
 1204SOL    HW220755   1.119   3.135   0.504  0.9246 -0.1809  0.5187
 1205SOL     OW20756   1.816   2.110   5.320  0.8529 -0.1257 -0.1168
 1205SOL    HW120757   1.797   2.060   5.241  0.8396  0.5344 -0.5423
 1205SOL    HW220758   1.876   2.179   5.291 -0.3336  1.0491  0.1199
 1206SOL     OW20759   5.370   0.149   7.044  0.3422 -0.3902 -0.2125
 1206SOL    HW120760   5.320   0.229   7.060  1.4891  0.6413 -1.5036
 1206SOL    HW220761   5.314   0.078   7.076 -1.1611  0.8449 -0.0151
 1207SOL     OW20762   3.873   0.404   6.464  0.5423 -0.1663  0.0016
 1207SOL    HW120763   3.787   0.401   6.506 -0.1609  1.6822 -1.1921
 1207SOL    HW220764   3.885   0.316   6.429 -1.2841 -0.2399 -0.5713
 1208SOL     OW20765   3.872   2.400   6.929 -0.2575 -0.0322  0.3403
 1208SOL    HW120766   3.858   2.347   6.851 -0.7596 -0.6031  0.8162
 1208SOL    HW220767   3.915   2.342   6.991 -0.9710  0.0515  0.9282
 1209SOL     OW20768   5.955   1.499   5.921  0.4931 -0.0078 -0.2611
 1209SOL    HW120769   5.902   1.426   5.890  0.0380 -0.2733  1.0483
 1209SOL    HW220770   5.892   1.566   5.948  0.8615  0.2597 -0.0455
 1210SOL     OW20771   1.249   5.990   7.293  0.7142  0.3849 -0.4409
 1210SOL    HW120772   1.336   6.027   7.305  0.3006  1.3755 -0.4094
 1210SOL    HW220773   1.199   6.021   7.369  0.5971 -0.9934  0.0705
 1211SOL     OW20774   0.317   3.188   5.982  0.0956  0.5532 -0.8750
 1211SOL    HW120775   0.335   3.095   5.967  1.6395  0.6766 -0.0494
 1211SOL    HW220776   0.389   3.217   6.038 -1.7951  1.6020  1.1950
 1212SOL     OW20777   2.214   3.889   1.452  0.0185  0.0319  0.1007
 1212SOL    HW120778   2.167   3.854   1.376  1.1307  0.9123 -1.0402
 1212SOL    HW220779   2.303   3.854   1.443  0.4815  1.1278  0.3045
 1213SOL     OW20780   2.067   4.097   6.121  0.2749  0.3383 -0.9315
 1213SOL    HW120781   2.013   4.090   6.199  1.5265  0.1049 -0.0649
 1213SOL    HW220782   2.154   4.122   6.153  0.7541  0.4892 -2.2645
 1214SOL     OW20783   6.085   2.855   6.459 -0.1570 -0.3596  0.2245
 1214SOL    HW120784   5.995   2.880   6.481 -0.0351 -0.3851  0.7750
 1214SOL    HW220785   6.081   2.831   6.366 -0.3077  1.5662 -0.2970
 1215SOL     OW20786   5.058   1.458   7.076 -0.3487 -0.1977  0.3445
 1215SOL    HW120787   4.967   1.448   7.047 -1.3367  0.4361  2.9643
 1215SOL    HW220788   5.074   1.381   7.131  1.3605 -1.2114 -1.4230
 1216SOL     OW20789   1.228   5.801   6.406 -0.1641 -0.0305  0.3258
 1216SOL    HW120790   1.306   5.855   6.420  0.5873 -0.8845 -0.4480
 1216SOL    HW220791   1.182   5.844   6.334 -0.5583  0.6261  0.9613
 1217SOL     OW20792   0.015   1.996   1.140  0.5590  0.4652 -0.0861
 1217SOL    HW120793  -0.002   1.907   1.170 -0.2697  0.1684 -1.3555
 1217SOL    HW220794   0.001   2.050   1.217 -2.1497 -0.1984  0.0135
 1218SOL     OW20795   1.982   0.318   2.275  0.1151 -0.3647 -0.4855
 1218SOL    HW120796   2.005   0.410   2.261 -0.4152 -0.4155 -1.8683
 1218SOL    HW220797   1.889   0.314   2.253  0.1260 -1.2253 -0.3955
 1219SOL     OW20798   4.647   1.751   6.717 -0.3632 -0.2731  0.8858
 1219SOL    HW120799   4.603   1.750   6.802 -0.7336 -1.3656  0.7066
 1219SOL    HW220800   4.735   1.718   6.735 -0.0479  0.6233  1.0265
 1220SOL     OW20801   1.094   2.717   5.821  0.2033  0.1617  0.4051
 1220SOL    HW120802   1.144   2.676   5.750  0.0721 -1.5884  1.2694
 1220SOL    HW220803   1.139   2.690   5.901 -0.2703  1.2143  1.0460
 1221SOL     OW20804   1.918   4.158   1.031 -0.2286  0.2370 -0.3124
 1221SOL    HW120805   1.842   4.171   1.088 -0.0603 -0.4461  0.0840
 1221SOL    HW220806   1.984   4.119   1.089  0.6726  1.4582 -0.4757
 1222SOL     OW20807   0.824   1.516   7.314  0.3475  0.5920  0.5252
 1222SOL    HW120808   0.912   1.554   7.317  0.6617  0.0149 -0.7015
 1222SOL    HW220809   0.771   1.581   7.269  0.3997  0.4696  0.2877
 1223SOL     OW20810   0.845   4.529   7.056 -0.4975  0.5031 -0.0493
 1223SOL    HW120811   0.880   4.557   7.140 -0.1204 -1.1251  0.3767
 1223SOL    HW220812   0.752   4.514   7.072 -0.5249  0.6752 -0.0503
 1224SOL     OW20813   5.800   3.034   6.862  0.1240 -0.4383 -0.1068
 1224SOL    HW120814   5.892   3.037   6.889 -0.6137 -0.2020  2.6416
 1224SOL    HW220815   5.771   2.946   6.886 -0.4691 -0.3916 -0.6420
 1225SOL     OW20816   4.296   6.265   5.426  0.1053  0.1118 -0.2130
 1225SOL    HW120817   4.261   6.304   5.506  1.6611  0.3411  0.3896
 1225SOL    HW220818   4.243   6.186   5.412 -1.9612  1.4926 -0.4990
 1226SOL     OW20819   3.048   5.018   0.925 -0.4767 -0.5601 -0.3634
 1226SOL    HW120820   2.959   4.992   0.948 -1.3558  1.8308 -0.7849
 1226SOL    HW220821   3.076   5.074   0.996 -0.2577  0.6422 -1.3687
 1227SOL     OW20822   0.307   2.023   1.315  0.4118  0.0057 -0.0049
 1227SOL    HW120823   0.296   2.021   1.220 -0.2424 -0.5054  0.0666
 1227SOL    HW220824   0.217   2.026   1.349  0.6529  2.0848  0.5888
 1228SOL     OW20825   3.771   4.020   6.414  0.1827 -0.0421 -0.1956
 1228SOL    HW120826   3.748   4.107   6.380 -0.5279 -0.8847 -2.0010
 1228SOL    HW220827   3.768   3.963   6.337 -0.5030 -1.8916  1.1341
 1229SOL     OW20828   1.909   5.234   6.239 -0.1225  0.3645 -0.3359
 1229SOL    HW120829   1.916   5.138   6.236 -0.6766  0.2934  0.3942
 1229SOL    HW220830   1.848   5.251   6.311  0.8391  1.3163  0.2714
 1230SOL     OW20831   1.208   1.657   1.076 -0.2048  0.1244  0.1630
 1230SOL    HW120832   1.182   1.655   1.168  2.8431  1.2103  1.1680
 1230SOL    HW220833   1.196   1.748   1.049 -2.2389 -0.4188 -0.9723
 1231SOL     OW20834   4.346   1.000   6.789  0.5266 -0.3052 -0.2294
 1231SOL    HW120835   4.264   1.042   6.764 -0.4025 -1.8101  0.1653
 1231SOL    HW220836   4.402   1.008   6.712 -0.6576 -0.8669 -1.1718
 1232SOL     OW20837   4.535   2.714   0.056  0.3897  0.2837 -0.0631
 1232SOL    HW120838   4.572   2.695  -0.030 -0.8513 -3.2702  0.0593
 1232SOL    HW220839   4.609   2.706   0.117  0.8169  0.6204 -0.5269
 1233SOL     OW20840   5.558   4.559   5.537  0.1111 -0.1642  0.1672
 1233SOL    HW120841   5.536   4.479   5.490  0.6200 -1.3687  1.8843
 1233SOL    HW220842   5.479   4.612   5.532 -0.6906 -1.3321  0.0967
 1234SOL     OW20843   3.115   3.460   6.068  0.2031  0.2237 -0.3509
 1234SOL    HW120844   3.192   3.498   6.109 -0.1388  1.8486 -1.1361
 1234SOL    HW220845   3.089   3.523   6.001 -1.4457 -0.5704 -0.5276
 1235SOL     OW20846   2.255   1.660   7.036  0.1684 -0.3304  0.8161
 1235SOL    HW120847   2.183   1.660   7.099 -0.3762  0.2243  0.2126
 1235SOL    HW220848   2.317   1.724   7.069 -1.0449  1.4698 -0.2018
 1236SOL     OW20849   6.489   5.426   7.167  0.3109 -0.0965 -0.4530
 1236SOL    HW120850   6.528   5.453   7.084 -0.3990  1.2891 -0.3622
 1236SOL    HW220851   6.556   5.372   7.209  0.6675 -0.8248 -1.9281
 1237SOL     OW20852   3.043   5.528   6.893  0.0030  0.1053 -0.6202
 1237SOL    HW120853   2.954   5.561   6.885  0.0812  0.7103  0.7440
 1237SOL    HW220854   3.041   5.472   6.970  0.4139 -1.3417 -1.6060
 1238SOL     OW20855   0.634   1.289   7.340 -0.2959  0.1849 -0.0827
 1238SOL    HW120856   0.718   1.333   7.326  0.9812 -2.5306 -1.7957
 1238SOL    HW220857   0.627   1.282   7.435 -0.1417  3.1017  0.2432
 1239SOL     OW20858   5.847   2.112   6.738 -0.2519  0.1449 -0.3756
 1239SOL    HW120859   5.784   2.079   6.674  0.6466  0.3996 -1.4216
 1239SOL    HW220860   5.793   2.151   6.807 -1.3309 -2.3330  0.3005
 1240SOL     OW20861   6.033   1.861   2.009  0.3473 -0.5284 -0.3121
 1240SOL    HW120862   5.989   1.946   2.004  0.7499 -0.2882  0.0769
 1240SOL    HW220863   5.971   1.805   2.055  0.3689 -0.2394  0.0793
 1241SOL     OW20864   3.184   5.330   2.064  0.3121 -0.1228 -0.0676
 1241SOL    HW120865   3.111   5.335   2.127 -1.0853 -1.4425 -1.4882
 1241SOL    HW220866   3.218   5.241   2.074  1.0917  0.1720 -0.0945
 1242SOL     OW20867   6.450   5.743   6.429  0.1813  0.3687 -0.3065
 1242SOL    HW120868   6.483   5.831   6.412 -1.1826  1.3086  1.6415
 1242SOL    HW220869   6.381   5.731   6.364  1.2523  0.1434 -1.4616
 1243SOL     OW20870   2.861   1.696   6.893 -0.7385 -0.7210  0.2442
 1243SOL    HW120871   2.881   1.669   6.803  1.8978  0.4538  0.3616
 1243SOL    HW220872   2.825   1.784   6.883  0.1931 -0.3163  0.3321
 1244SOL     OW20873   2.816   5.375   1.063 -0.0059 -0.3466 -0.9813
 1244SOL    HW120874   2.889   5.394   1.003  0.1047 -1.7191 -1.3286
 1244SOL    HW220875   2.857   5.365   1.149  0.0232  0.2614 -0.9235
 1245SOL     OW20876   1.819   0.041   7.299 -0.2266 -0.8720  0.5787
 1245SOL    HW120877   1.894   0.039   7.358  1.1812 -1.9202 -1.1628
 1245SOL    HW220878   1.750  -0.007   7.345 -0.1583  0.7656  2.5326
 1246SOL     OW20879   3.834   2.279   0.113 -0.4434 -0.0569  0.0614
 1246SOL    HW120880   3.837   2.252   0.021 -1.3634 -1.6786  0.4534
 1246SOL    HW220881   3.783   2.210   0.156 -0.0430  0.6721  1.7904
 1247SOL     OW20882   4.361   0.041   6.481  0.6016 -0.0433 -0.2731
 1247SOL    HW120883   4.281   0.093   6.493  0.5446  0.1862 -1.5744
 1247SOL    HW220884   4.432   0.104   6.486  0.5484  0.1424 -1.5676
 1248SOL     OW20885   1.663   3.478   6.602  0.1222  0.1239  0.0865
 1248SOL    HW120886   1.733   3.479   6.536 -0.6584 -1.2591 -0.8219
 1248SOL    HW220887   1.678   3.556   6.655  3.9157 -1.4389  1.6116
 1249SOL     OW20888   6.067   4.975   6.385 -0.1500 -0.6564  1.0984
 1249SOL    HW120889   6.007   4.906   6.412 -0.5871 -0.2369  1.2292
 1249SOL    HW220890   6.042   5.050   6.440  0.4848 -0.4719  1.1422
 1250SOL     OW20891   5.006   0.793   1.697 -0.0381  0.0571  0.0072
 1250SOL    HW120892   5.061   0.829   1.766 -2.4580 -0.8345  2.5819
 1250SOL    HW220893   4.983   0.705   1.728 -1.3600 -0.3068 -1.8400
 1251SOL     OW20894   3.079   3.092   6.152  0.4621  0.1535  0.2957
 1251SOL    HW120895   3.070   3.145   6.231  0.0380 -0.1410  0.4468
 1251SOL    HW220896   3.036   3.143   6.084 -2.5837 -1.2722  1.0201
 1252SOL     OW20897   2.883   3.836   7.194  0.4485  0.0934  0.6120
 1252SOL    HW120898   2.890   3.740   7.195 -0.7429 -0.0393 -0.6678
 1252SOL    HW220899   2.937   3.865   7.267  2.5035 -1.4634 -0.1848
 1253SOL     OW20900   1.848   3.366   0.873  0.0046  0.5194 -0.0554
 1253SOL    HW120901   1.800   3.332   0.948  0.5351 -0.9265 -0.3516
 1253SOL    HW220902   1.781   3.399   0.814 -0.5398 -0.1280  0.1934
 1254SOL     OW20903   0.216   5.134   0.414  0.4088  0.6851  0.0650
 1254SOL    HW120904   0.151   5.131   0.344  0.4754  1.4682 -0.0325
 1254SOL    HW220905   0.171   5.173   0.488  0.4497  0.2015  0.3542
 1255SOL     OW20906   0.193   2.744   7.425 -0.0650 -0.2731 -0.4504
 1255SOL    HW120907   0.185   2.649   7.418 -1.5668 -0.3115  1.1922
 1255SOL    HW220908   0.280   2.757   7.464  0.4097 -0.9123 -1.2565
 1256SOL     OW20909   3.162   6.519   0.181  0.0232  0.0987  0.1504
 1256SOL    HW120910   3.069   6.538   0.197  0.0809  0.9544 -0.4466
 1256SOL    HW220911   3.161   6.463   0.103 -0.0519 -0.9274  0.8776
 1257SOL     OW20912   5.465   0.655   7.171 -0.4498 -0.4725  0.5264
 1257SOL    HW120913   5.446   0.747   7.152 -1.0833 -0.5951  0.5403
 1257SOL    HW220914   5.546   0.637   7.124  0.8498  0.6682  2.2115
 1258SOL     OW20915   0.467   6.565   1.047  0.3209  0.3721  0.1341
 1258SOL    HW120916   0.426   6.480   1.030  2.0993 -0.2332 -1.4079
 1258SOL    HW220917   0.405   6.609   1.105 -0.4246 -2.1501  1.4097
 1259SOL     OW20918   2.383   3.944   6.601  0.1001 -0.1324 -0.0241
 1259SOL    HW120919   2.445   4.014   6.582  1.8367 -1.1855  1.4715
 1259SOL    HW220920   2.416   3.868   6.553 -0.0272 -0.6933  0.7524
 1260SOL     OW20921   6.119   3.419   1.388  0.4890 -0.3788  0.0319
 1260SOL    HW120922   6.147   3.458   1.305  0.1882  0.4777  0.3143
 1260SOL    HW220923   6.036   3.376   1.368 -0.5401  1.3934  0.2391
 1261SOL     OW20924   4.577   5.762   1.638  0.1595 -0.1356 -0.1651
 1261SOL    HW120925   4.496   5.800   1.604 -0.6244 -1.1939  0.4220
 1261SOL    HW220926   4.634   5.836   1.656 -0.3835  0.5879 -1.3095
 1262SOL     OW20927   0.497   2.590   6.009 -0.3063  0.1061  0.5161
 1262SOL    HW120928   0.434   2.636   5.954 -0.9767 -1.9783 -0.5630
 1262SOL    HW220929   0.444   2.534   6.064  0.5508 -1.1517  0.1051
 1263SOL     OW20930   6.573   3.916   0.280 -0.2518  0.2736 -0.0975
 1263SOL    HW120931   6.615   3.980   0.222 -2.2730  0.9776 -0.8965
 1263SOL    HW220932   6.515   3.866   0.222  0.8020 -1.9028  0.6333
 1264SOL     OW20933   6.110   6.061   6.431 -0.0474  0.2319  0.1048
 1264SOL    HW120934   6.072   5.979   6.463 -2.6161  1.3717  0.1722
 1264SOL    HW220935   6.152   6.038   6.349 -0.9076 -1.1310  0.0172
 1265SOL     OW20936   4.698   2.568   6.353 -0.1421 -0.6334 -0.3645
 1265SOL    HW120937   4.608   2.541   6.331  0.4624 -0.3973 -3.6799
 1265SOL    HW220938   4.750   2.541   6.277  2.2535  1.0502  0.5674
 1266SOL     OW20939   5.168   5.907   1.034 -0.3212  0.0285 -0.0022
 1266SOL    HW120940   5.145   5.817   1.010 -0.3618 -0.3322  1.3080
 1266SOL    HW220941   5.262   5.913   1.019 -0.6296  0.4387 -2.0804
 1267SOL     OW20942   1.116   4.697   1.633  0.1245 -1.2359  0.2099
 1267SOL    HW120943   1.121   4.657   1.547 -1.6083 -3.3480  0.9886
 1267SOL    HW220944   1.204   4.730   1.650  0.0713  0.9991 -3.0891
 1268SOL     OW20945   1.940   1.122   6.746 -0.1695  0.6639 -0.1714
 1268SOL    HW120946   2.018   1.177   6.756  1.7170 -2.2461  4.0114
 1268SOL    HW220947   1.887   1.141   6.824 -0.7583 -1.4050 -0.0084
 1269SOL     OW20948   5.597   0.151   6.882  0.1665  0.0127 -0.3685
 1269SOL    HW120949   5.629   0.131   6.970  0.5015 -0.1626 -0.5324
 1269SOL    HW220950   5.517   0.202   6.897  0.1558 -0.1217  0.0381
 1270SOL     OW20951   3.325   5.283   7.375  0.0036  0.2805  0.0194
 1270SOL    HW120952   3.281   5.203   7.349 -0.8700  0.9147 -0.4822
 1270SOL    HW220953   3.388   5.255   7.442 -1.6928 -0.5356  1.3553
 1271SOL     OW20954   0.359   1.405   0.172 -0.5514 -1.1146 -0.0865
 1271SOL    HW120955   0.395   1.372   0.254  1.8396 -2.3640 -1.5326
 1271SOL    HW220956   0.392   1.495   0.165 -4.0077  0.5675  2.0509
 1272SOL     OW20957   0.311   3.469   1.158  0.4445 -0.2350 -0.4925
 1272SOL    HW120958   0.224   3.468   1.198 -0.0701  1.0535 -1.5004
 1272SOL    HW220959   0.372   3.461   1.232 -0.4936  1.0292  0.4593
 1273SOL     OW20960   1.055   0.511   0.526  0.2701 -0.2600  0.0354
 1273SOL    HW120961   1.046   0.599   0.560 -2.7546 -0.3817 -0.1031
 1273SOL    HW220962   1.009   0.513   0.441 -0.2808 -2.0211  0.2303
 1274SOL     OW20963   5.509   1.224   1.306  0.3403  0.7908 -0.6738
 1274SOL    HW120964   5.458   1.231   1.226  0.4909  0.2500 -0.8227
 1274SOL    HW220965   5.464   1.156   1.357 -1.2172  2.8107  0.8113
 1275SOL     OW20966   3.227   1.984   7.156  0.6724 -0.2412 -0.7472
 1275SOL    HW120967   3.154   2.005   7.214  1.1591 -1.1078  0.2171
 1275SOL    HW220968   3.252   1.894   7.180  1.3311 -0.3716 -1.8336
 1276SOL     OW20969   6.080   5.941   0.352  0.3476  0.3181 -0.4794
 1276SOL    HW120970   6.127   6.014   0.312  1.9553 -0.6504 -0.4241
 1276SOL    HW220971   6.011   5.920   0.289  1.2152  0.4921 -1.5108
 1277SOL     OW20972   4.002   2.302   6.470 -0.0259  0.1071  0.1521
 1277SOL    HW120973   4.028   2.306   6.378 -0.6106 -3.0023 -0.2646
 1277SOL    HW220974   4.083   2.285   6.518 -0.0480 -0.9888 -0.1595
 1278SOL     OW20975   5.181   2.562   1.559 -0.7019 -0.2763 -1.0069
 1278SOL    HW120976   5.144   2.474   1.568  1.2243 -1.0483 -0.1684
 1278SOL    HW220977   5.269   2.548   1.526 -0.1691  1.3140 -0.3650
 1279SOL     OW20978   6.225   1.893   5.293  0.3229 -0.6801  0.6908
 1279SOL    HW120979   6.166   1.867   5.222  1.7193  0.6587 -1.0743
 1279SOL    HW220980   6.182   1.865   5.373 -0.1906 -4.5614 -0.7684
 1280SOL     OW20981   5.647   3.230   7.144 -0.1118 -0.0904 -0.4947
 1280SOL    HW120982   5.612   3.141   7.152  0.2195 -0.1242  0.8941
 1280SOL    HW220983   5.584   3.285   7.191  0.6089  0.1435  0.2202
 1281SOL     OW20984   4.110   3.379   6.425  0.3374 -0.1938  0.2535
 1281SOL    HW120985   4.143   3.460   6.463  1.3110 -1.6009  2.6221
 1281SOL    HW220986   4.030   3.360   6.473 -1.1168  0.3935 -1.7773
 1282SOL     OW20987   2.400   1.806   5.790 -0.2044  0.2485  0.3083
 1282SOL    HW120988   2.359   1.838   5.710 -0.2775  0.9541  0.6194
 1282SOL    HW220989   2.356   1.723   5.808  3.0347 -2.4984 -2.9512
 1283SOL     OW20990   2.319   0.347   0.839 -0.6814  0.1659 -0.4226
 1283SOL    HW120991   2.344   0.330   0.929  1.6432 -0.4399 -1.1001
 1283SOL    HW220992   2.318   0.443   0.832 -0.1599  0.2144  0.0897
 1284SOL     OW20993   5.548   3.450   1.409  0.8539 -0.3085  0.4632
 1284SOL    HW120994   5.574   3.388   1.477  0.4484 -1.6689 -0.5738
 1284SOL    HW220995   5.452   3.453   1.415  0.8805  0.3961  0.6376
 1285SOL     OW20996   5.515   2.307   6.262 -0.3495 -0.1610 -0.2078
 1285SOL    HW120997   5.573   2.363   6.211  0.6982  0.4660  1.5786
 1285SOL    HW220998   5.528   2.219   6.226  0.8199  0.1654 -0.6151
 1286SOL     OW20999   4.947   5.004   6.568  0.0802  0.1490  0.1687
 1286SOL    HW121000   5.041   4.987   6.570  0.2647  1.0986  0.0298
 1286SOL    HW221001   4.908   4.931   6.616  0.6569 -1.7255 -2.0605
 1287SOL     OW21002   6.357   1.630   1.001  0.1816  0.2023  0.0598
 1287SOL    HW121003   6.353   1.689   1.076 -0.0334  0.2045  0.0474
 1287SOL    HW221004   6.268   1.595   0.993 -0.3180  1.6643 -1.3678
 1288SOL     OW21005   1.213   1.764   0.005  0.5092 -0.2398 -0.0648
 1288SOL    HW121006   1.274   1.822  -0.040  0.1784 -0.6790 -1.1066
 1288SOL    HW221007   1.268   1.710   0.061  0.9269  0.3445  0.0930
 1289SOL     OW21008   1.395   4.845   0.784 -0.0047  0.8279 -0.7853
 1289SOL    HW121009   1.432   4.829   0.697  0.6223 -0.0759 -0.3738
 1289SOL    HW221010   1.467   4.824   0.844 -1.4535 -2.2299  0.0984
 1290SOL     OW21011   3.398   2.610   5.971  0.5926  0.1286  0.6242
 1290SOL    HW121012   3.339   2.663   5.917  1.2829  0.4802  0.2001
 1290SOL    HW221013   3.365   2.621   6.060 -0.8961 -0.9062  0.2384
 1291SOL     OW21014   4.247   1.127   1.005  0.2388 -0.4745 -0.1530
 1291SOL    HW121015   4.200   1.191   0.951 -0.5419 -1.5012 -0.7319
 1291SOL    HW221016   4.287   1.068   0.942 -0.2149 -1.3632  0.3785
 1292SOL     OW21017   1.653   2.958   7.016 -0.3590 -0.3346 -0.6516
 1292SOL    HW121018   1.651   2.952   7.112  1.8423  2.0610 -0.3514
 1292SOL    HW221019   1.564   2.987   6.993 -0.6097  0.1575  0.7844
 1293SOL     OW21020   2.662   5.987   6.822 -0.5133 -0.3129  0.1018
 1293SOL    HW121021   2.737   6.047   6.819 -0.2145 -0.6901 -0.1262
 1293SOL    HW221022   2.598   6.031   6.878 -0.4946  0.4381 -0.4431
 1294SOL     OW21023   3.583   4.418   6.576  0.4963 -0.4381 -0.0956
 1294SOL    HW121024   3.632   4.497   6.597  0.1827 -0.3477  0.3167
 1294SOL    HW221025   3.627   4.381   6.499  1.5639 -0.6815  0.6186
 1295SOL     OW21026   1.292   0.258   7.081  0.0413  0.2468  0.0785
 1295SOL    HW121027   1.278   0.351   7.064 -2.1222 -0.0089  0.1591
 1295SOL    HW221028   1.244   0.241   7.162  0.1586 -1.0053 -0.0857
 1296SOL     OW21029   5.971   1.775   0.934  0.1157  0.1194 -0.4047
 1296SOL    HW121030   6.054   1.749   0.894  0.6115  0.9992  0.0134
 1296SOL    HW221031   5.993   1.794   1.025 -0.8504 -1.1218  0.1298
 1297SOL     OW21032   5.682   0.575   0.711  0.1964  0.6312  0.3631
 1297SOL    HW121033   5.626   0.566   0.634  2.0152  2.1234 -1.2258
 1297SOL    HW221034   5.668   0.494   0.760 -0.1543 -0.9195 -2.1337
 1298SOL     OW21035   5.985   2.508   1.242  0.5795 -0.1160 -0.4084
 1298SOL    HW121036   6.030   2.559   1.175 -0.9585  1.9022 -0.0341
 1298SOL    HW221037   5.991   2.563   1.321 -0.8455 -0.6751  0.1168
 1299SOL     OW21038   4.458   0.040   7.147  0.5460 -0.5933 -0.2550
 1299SOL    HW121039   4.393   0.107   7.168 -0.0704 -1.1631 -0.3045
 1299SOL    HW221040   4.515   0.036   7.224  0.7125  0.1274 -0.3378
 1300SOL     OW21041   1.709   5.867   5.952  0.1026  0.3868  0.0394
 1300SOL    HW121042   1.775   5.808   5.915 -0.0084 -0.4980  1.1761
 1300SOL    HW221043   1.717   5.947   5.901  1.7592  0.1501 -0.1304
 1301SOL     OW21044   3.895   4.226   1.623 -0.6679  0.3607 -0.3130
 1301SOL    HW121045   3.862   4.138   1.605 -1.5319  0.5462  0.2999
 1301SOL    HW221046   3.869   4.277   1.547  0.2080  0.0026 -0.8664
 1302SOL     OW21047   6.322   0.510   1.270 -0.2574  0.0628  0.0848
 1302SOL    HW121048   6.391   0.571   1.297 -2.4846  1.6512  2.7272
 1302SOL    HW221049   6.263   0.563   1.217 -1.5691 -0.0416  1.3742
 1303SOL     OW21050   2.137   5.355   5.976  0.6323 -0.1658  0.4425
 1303SOL    HW121051   2.125   5.260   5.965 -1.0038  0.0450  0.1369
 1303SOL    HW221052   2.080   5.378   6.049  0.4341  0.6996  0.0262
 1304SOL     OW21053   4.078   4.800   5.466 -0.7330 -0.4808  0.0364
 1304SOL    HW121054   3.987   4.780   5.447 -1.1493  0.2054  1.2154
 1304SOL    HW221055   4.128   4.733   5.420 -1.8205 -0.7774 -0.7304
 1305SOL     OW21056   5.489   1.137   6.954  0.0516  0.3637 -0.4852
 1305SOL    HW121057   5.534   1.220   6.973 -0.3771  0.0859  2.0050
 1305SOL    HW221058   5.400   1.163   6.931 -0.2208  0.6058  0.7729
 1306SOL     OW21059   1.664   6.222   7.083 -0.1441 -0.1272 -0.0463
 1306SOL    HW121060   1.602   6.295   7.093  0.4389  0.5763 -1.2968
 1306SOL    HW221061   1.661   6.202   6.990  1.2896 -0.2720 -0.0733
 1307SOL     OW21062   3.835   6.341   1.189  0.2051 -0.1225  0.3739
 1307SOL    HW121063   3.775   6.281   1.234 -1.3593  1.7536  0.9354
 1307SOL    HW221064   3.881   6.386   1.260 -0.2527  0.8900  0.0459
 1308SOL     OW21065   2.686   3.094   1.488  0.0806  0.6320 -0.4728
 1308SOL    HW121066   2.676   3.080   1.582 -3.1617  0.4142 -0.7385
 1308SOL    HW221067   2.688   3.005   1.451 -1.9626  0.6612 -0.7784
 1309SOL     OW21068   5.342   4.599   5.194  0.1903 -0.5488 -0.2254
 1309SOL    HW121069   5.258   4.572   5.229  0.7989 -0.2988  1.5295
 1309SOL    HW221070   5.345   4.694   5.206  0.0242 -0.2789 -1.9441
 1310SOL     OW21071   4.120   0.824   6.795  0.3573  0.3160 -0.0956
 1310SOL    HW121072   4.169   0.900   6.827 -1.2615  1.7167 -0.7951
 1310SOL    HW221073   4.121   0.834   6.700 -1.5555  0.5884 -0.1174
 1311SOL     OW21074   3.070   3.284   0.495  0.6158 -0.3104  0.1316
 1311SOL    HW121075   3.003   3.350   0.510 -0.2386 -1.4887  1.7371
 1311SOL    HW221076   3.093   3.294   0.402 -1.0857  0.7478 -0.2170
 1312SOL     OW21077   5.195   5.456   7.304 -0.0324 -0.5979  0.0554
 1312SOL    HW121078   5.132   5.513   7.260  0.8633  0.2156 -0.1887
 1312SOL    HW221079   5.235   5.405   7.234  2.4714  1.7438 -0.3681
 1313SOL     OW21080   2.278   1.095   0.656  0.1309  0.2666 -0.3701
 1313SOL    HW121081   2.332   1.161   0.613 -0.2768  0.9700  0.1873
 1313SOL    HW221082   2.341   1.039   0.702  0.3828  1.4959  0.8611
 1314SOL     OW21083   1.609   5.054   5.884  0.5252 -0.0659  0.1195
 1314SOL    HW121084   1.560   5.022   5.808 -0.3392  1.3235  0.0669
 1314SOL    HW221085   1.670   5.117   5.848  0.0027  0.7173  0.5801
 1315SOL     OW21086   3.967   3.941   2.150  0.3873  0.2691  0.1187
 1315SOL    HW121087   4.047   3.895   2.177  1.0480  2.3361  1.9516
 1315SOL    HW221088   3.980   4.031   2.179 -3.4351  0.3152  2.3759
 1316SOL     OW21089   2.120   1.917   6.913  0.3581 -0.3741  0.2517
 1316SOL    HW121090   2.198   1.865   6.899  1.3184  0.8432  0.8872
 1316SOL    HW221091   2.151   2.008   6.916 -1.3511  0.3611 -1.7331
 1317SOL     OW21092   5.411   2.435   1.466  0.2672 -0.0246 -0.5131
 1317SOL    HW121093   5.428   2.358   1.521 -0.1657 -0.5782 -1.1403
 1317SOL    HW221094   5.393   2.399   1.379  1.4980  0.8614 -1.1762
 1318SOL     OW21095   2.628   1.840   6.093 -0.5094  0.5198 -0.1454
 1318SOL    HW121096   2.696   1.883   6.147  1.2770 -0.4291 -1.5253
 1318SOL    HW221097   2.623   1.894   6.014 -2.9385  1.7602  0.7467
 1319SOL     OW21098   3.644   0.989   4.815 -0.5803  0.4605 -0.3041
 1319SOL    HW121099   3.738   0.976   4.824 -0.7843 -1.0137  0.0352
 1319SOL    HW221100   3.614   1.012   4.903 -0.7167 -0.4577 -0.1028
 1320SOL     OW21101   4.118   5.599   0.298  0.0209 -0.2192 -0.0422
 1320SOL    HW121102   4.100   5.668   0.362  1.0194  1.6777 -1.7122
 1320SOL    HW221103   4.069   5.625   0.220 -0.8554 -2.2844 -0.2655
 1321SOL     OW21104   5.811   2.710   1.801 -0.6801  0.1280  0.5451
 1321SOL    HW121105   5.806   2.636   1.740 -0.4525  0.1633  0.4823
 1321SOL    HW221106   5.734   2.701   1.856 -0.4790 -0.3576  0.7555
 1322SOL     OW21107   3.054   6.415   5.825  0.3514  0.0086  0.2428
 1322SOL    HW121108   3.117   6.481   5.796  0.4997 -0.5565 -0.7433
 1322SOL    HW221109   2.979   6.426   5.768  1.2644 -2.1617 -1.5536
 1323SOL     OW21110   5.798   4.823   6.249  0.0891  0.2801 -0.3309
 1323SOL    HW121111   5.809   4.728   6.249  1.4027  0.3798  1.3800
 1323SOL    HW221112   5.778   4.845   6.341 -0.1830  1.6659 -0.6950
 1324SOL     OW21113   3.055   6.311   7.486 -0.5047  0.8153  0.2779
 1324SOL    HW121114   3.010   6.283   7.407  0.5054 -0.1070 -0.0035
 1324SOL    HW221115   3.095   6.231   7.520  1.3587  1.6527  0.1957
 1325SOL     OW21116   3.780   4.646   5.951  0.0658  0.2918  0.1130
 1325SOL    HW121117   3.755   4.738   5.956  1.4727  0.7155 -0.0284
 1325SOL    HW221118   3.821   4.637   5.865 -1.3870 -0.8479 -0.5052
 1326SOL     OW21119   6.103   4.455   6.879  0.4207 -0.3409  0.2359
 1326SOL    HW121120   6.173   4.391   6.894  0.6305 -0.2925 -0.5065
 1326SOL    HW221121   6.075   4.480   6.967 -0.3257 -2.1777  0.5755
 1327SOL     OW21122   6.308   0.229   7.312 -0.1050  0.0568 -0.0057
 1327SOL    HW121123   6.220   0.267   7.312 -0.5297 -0.8945  0.1396
 1327SOL    HW221124   6.297   0.143   7.270  0.9490  0.3376 -0.8898
 1328SOL     OW21125   4.682   5.855   7.483 -0.1111  0.0309 -0.5392
 1328SOL    HW121126   4.771   5.841   7.452 -0.2589 -0.1342 -0.8943
 1328SOL    HW221127   4.691   5.865   7.578  0.1921 -0.8650 -0.4608
 1329SOL     OW21128   6.222   5.722   5.340  0.1833  0.1320 -0.2942
 1329SOL    HW121129   6.128   5.738   5.350  0.0733 -1.2854  1.5022
 1329SOL    HW221130   6.230   5.682   5.253 -0.9470 -0.1626 -0.2793
 1330SOL     OW21131   5.413   5.860   6.996 -0.1702 -0.2491 -0.1422
 1330SOL    HW121132   5.325   5.859   6.957  0.3131  0.2626 -1.2857
 1330SOL    HW221133   5.398   5.887   7.087 -1.2894 -1.1218 -0.0505
 1331SOL     OW21134   3.230   6.372   6.851 -0.0046 -0.3956 -0.2740
 1331SOL    HW121135   3.188   6.333   6.775  2.0976 -1.3272 -1.0280
 1331SOL    HW221136   3.266   6.298   6.900  1.9457  0.3766 -0.4276
 1332SOL     OW21137   4.850   3.029   0.651  0.5821  0.2416  0.4616
 1332SOL    HW121138   4.783   3.032   0.583  0.4503 -2.2634  0.3899
 1332SOL    HW221139   4.836   2.945   0.695  2.1620  0.7435  2.0340
 1333SOL     OW21140   0.054   2.282   0.763  0.1941  0.2501 -0.4297
 1333SOL    HW121141  -0.026   2.289   0.711 -2.5033  0.3866  3.3227
 1333SOL    HW221142   0.071   2.371   0.794  0.6399 -0.0829  0.3290
 1334SOL     OW21143   1.539   3.851   5.263  0.0630  0.1723  0.9052
 1334SOL    HW121144   1.544   3.929   5.319  3.2377  0.7896 -0.0790
 1334SOL    HW221145   1.542   3.885   5.174 -1.2254 -1.0066  0.3714
 1335SOL     OW21146   3.997   3.054   6.008 -0.1445  0.0241 -0.3276
 1335SOL    HW121147   4.081   3.012   6.024 -0.1734 -1.7455 -3.8016
 1335SOL    HW221148   3.944   2.988   5.964 -2.6306  1.7301 -0.1508
 1336SOL     OW21149   0.566   6.407   0.343 -0.3449 -0.0612  0.4154
 1336SOL    HW121150   0.557   6.328   0.290 -0.8651  0.0201  0.3766
 1336SOL    HW221151   0.562   6.376   0.434 -0.9830 -0.0363  0.3997
 1337SOL     OW21152   5.806   4.182   6.932 -0.1298  0.0070 -0.2384
 1337SOL    HW121153   5.810   4.184   6.837  0.1936  1.3349 -0.2104
 1337SOL    HW221154   5.769   4.267   6.957  1.8058  0.5837  0.8866
 1338SOL     OW21155   5.527   2.059   7.140 -0.2509 -0.1201  0.3347
 1338SOL    HW121156   5.497   1.970   7.120  1.3648 -0.8130  0.8457
 1338SOL    HW221157   5.616   2.047   7.174 -0.4948  1.5865  1.6828
 1339SOL     OW21158   3.208   4.547   7.438 -0.2562 -0.3303  0.7453
 1339SOL    HW121159   3.114   4.547   7.452 -0.2995 -3.5270  1.1610
 1339SOL    HW221160   3.237   4.632   7.471 -2.7541 -0.0304  2.4772
 1340SOL     OW21161   0.601   2.547   0.209 -0.0279  0.0430  0.1904
 1340SOL    HW121162   0.566   2.489   0.277 -0.4646  0.9237  0.7474
 1340SOL    HW221163   0.539   2.620   0.206  0.9922  0.9365  0.1703
 1341SOL     OW21164   4.279   3.976   0.859  0.3421  0.2099 -0.6032
 1341SOL    HW121165   4.352   4.036   0.873  0.3943  0.0846 -0.3382
 1341SOL    HW221166   4.209   4.008   0.915  1.0358 -1.1431  1.1127
 1342SOL     OW21167   4.726   1.279   5.904 -0.3240  0.1834  0.4101
 1342SOL    HW121168   4.772   1.217   5.847 -2.2215 -0.7635 -0.2012
 1342SOL    HW221169   4.707   1.230   5.983  0.1969  0.7420  0.8904
 1343SOL     OW21170   4.966   3.487   0.290  0.1970 -0.4483 -1.0735
 1343SOL    HW121171   4.972   3.530   0.376  1.7152 -0.5345 -1.1108
 1343SOL    HW221172   4.906   3.414   0.305 -1.6143  1.0430 -0.7588
 1344SOL     OW21173   4.031   3.236   1.690  0.3226  0.5823 -0.2194
 1344SOL    HW121174   3.974   3.312   1.699 -0.8224 -0.0894 -1.4707
 1344SOL    HW221175   3.987   3.166   1.737 -0.7084 -0.3198 -2.3761
 1345SOL     OW21176   3.271   6.438   1.226 -0.4107 -0.2174  0.1468
 1345SOL    HW121177   3.335   6.459   1.295  0.1813 -0.9005 -0.1768
 1345SOL    HW221178   3.321   6.445   1.145 -0.9738  0.0709 -0.1786
 1346SOL     OW21179   0.246   6.134   7.179 -0.2328 -0.1673 -0.2018
 1346SOL    HW121180   0.305   6.085   7.236 -0.1435 -0.2394 -0.3587
 1346SOL    HW221181   0.303   6.173   7.112  0.0010  1.8025  1.0407
 1347SOL     OW21182   1.956   1.632   7.432  0.4676  0.3644 -0.0421
 1347SOL    HW121183   2.023   1.601   7.371 -1.2439 -2.1944 -0.8044
 1347SOL    HW221184   1.888   1.670   7.376  0.7616  1.9221  0.6322
 1348SOL     OW21185   1.326   5.570   6.488 -0.3888 -0.2625 -0.4313
 1348SOL    HW121186   1.274   5.641   6.449 -0.2381  1.1268  1.6852
 1348SOL    HW221187   1.315   5.582   6.582  1.4927 -1.6935  0.0341
 1349SOL     OW21188   0.457   0.956   6.377 -0.0264 -0.2130 -0.1018
 1349SOL    HW121189   0.371   0.916   6.382 -0.6456  1.0537 -0.0794
 1349SOL    HW221190   0.439   1.050   6.371  1.3438  0.0354 -0.6231
 1350SOL     OW21191   4.504   2.897   0.266 -0.6841 -0.1561 -0.2075
 1350SOL    HW121192   4.559   2.853   0.201  1.1325  0.9246  0.4886
 1350SOL    HW221193   4.427   2.842   0.275  0.1700 -1.6282 -1.4611
 1351SOL     OW21194   6.192   2.733   5.517  0.0517 -0.3481 -0.0812
 1351SOL    HW121195   6.207   2.641   5.495 -0.0713 -0.0127 -1.6500
 1351SOL    HW221196   6.096   2.740   5.526  0.0608 -0.3621  0.0352
 1352SOL     OW21197   0.588   0.272   5.930 -0.5397 -0.1844  0.0647
 1352SOL    HW121198   0.668   0.279   5.878 -0.5142  2.8688  0.3706
 1352SOL    HW221199   0.617   0.237   6.015  0.6554  1.6329  0.4483
 1353SOL     OW21200   3.131   1.654   0.112  0.2455 -0.0517 -0.4881
 1353SOL    HW121201   3.178   1.613   0.184  1.3293  0.7168 -0.7214
 1353SOL    HW221202   3.175   1.623   0.033  0.5134  0.8369 -0.7035
 1354SOL     OW21203   3.266   5.674   5.125 -0.0759  0.6776 -0.3694
 1354SOL    HW121204   3.327   5.741   5.093  2.1582 -0.7366  0.6830
 1354SOL    HW221205   3.293   5.593   5.082 -1.0149 -0.0570  0.3583
 1355SOL     OW21206   6.387   0.180   6.096  0.5098 -0.6137  0.1253
 1355SOL    HW121207   6.406   0.096   6.055  0.3236 -0.7414  0.2979
 1355SOL    HW221208   6.384   0.242   6.024  0.6426 -0.7564 -0.0044
 1356SOL     OW21209   4.406   0.821   7.218 -0.4088 -0.1917 -0.6295
 1356SOL    HW121210   4.460   0.900   7.228  0.2089 -0.7884  1.3185
 1356SOL    HW221211   4.468   0.752   7.196 -0.6608 -0.4805 -0.4398
 1357SOL     OW21212   4.110   3.704   1.044  0.4141  0.4511 -0.3716
 1357SOL    HW121213   4.200   3.703   1.012 -0.0598 -0.2130 -1.7577
 1357SOL    HW221214   4.083   3.612   1.043  0.2464  0.4377  1.6497
 1358SOL     OW21215   2.938   5.058   4.599  0.1213 -0.3463 -0.0749
 1358SOL    HW121216   2.938   4.971   4.638  0.0147 -0.8221 -1.0978
 1358SOL    HW221217   2.947   5.042   4.505 -1.2094  0.6833 -0.4109
 1359SOL     OW21218   2.261   5.384   0.340 -0.1876 -0.2791 -0.0200
 1359SOL    HW121219   2.202   5.366   0.266 -1.1773 -1.1043  0.9500
 1359SOL    HW221220   2.312   5.304   0.351 -1.7501 -1.1016  1.7071
 1360SOL     OW21221   2.594   0.168   0.655  0.3042  0.3601 -0.0874
 1360SOL    HW121222   2.685   0.147   0.679  0.2902  0.5612  0.1468
 1360SOL    HW221223   2.567   0.233   0.720 -0.4137 -0.5995  0.5954
 1361SOL     OW21224   5.992   2.518   0.053 -0.2425  0.3102 -0.1703
 1361SOL    HW121225   6.009   2.493   0.144  1.8972  1.2076 -0.2651
 1361SOL    HW221226   5.948   2.603   0.058 -0.3710  0.2327  0.0154
 1362SOL     OW21227   0.766   1.786   6.333 -0.1704 -0.2284  0.1570
 1362SOL    HW121228   0.770   1.692   6.322  1.6263 -0.4689  2.2171
 1362SOL    HW221229   0.850   1.819   6.301 -1.0949  0.8078 -1.3168
 1363SOL     OW21230   2.645   4.335   6.865 -0.3734  0.3253  0.5286
 1363SOL    HW121231   2.740   4.342   6.872 -0.4305  0.8327  0.8378
 1363SOL    HW221232   2.619   4.282   6.941 -0.2992 -0.1649  0.2142
 1364SOL     OW21233   3.140   5.054   7.288 -0.5319 -0.5390  0.2544
 1364SOL    HW121234   3.184   5.071   7.205 -0.7759 -0.4093  0.1530
 1364SOL    HW221235   3.048   5.072   7.271 -0.4013  1.0373  0.9554
 1365SOL     OW21236   1.459   3.518   7.368  0.0670  0.3102 -0.4382
 1365SOL    HW121237   1.400   3.526   7.293  0.4500 -1.4697 -0.9900
 1365SOL    HW221238   1.467   3.423   7.382 -0.1036  0.6009  1.9628
 1366SOL     OW21239   2.130   6.453   2.164 -0.2230  0.1393 -0.1051
 1366SOL    HW121240   2.161   6.471   2.076  0.5047  2.1171  0.4958
 1366SOL    HW221241   2.114   6.539   2.202 -3.2591 -0.6649  0.7833
 1367SOL     OW21242   4.339   1.246   1.277 -0.0340 -0.3899 -0.3621
 1367SOL    HW121243   4.405   1.203   1.224 -0.3122 -0.4390 -0.6685
 1367SOL    HW221244   4.259   1.243   1.225 -0.6320 -1.5711  0.5810
 1368SOL     OW21245   5.680   5.241   7.226 -0.2492 -0.0613  0.1696
 1368SOL    HW121246   5.763   5.278   7.198 -0.2926 -0.4559 -0.5202
 1368SOL    HW221247   5.640   5.308   7.282 -1.1468  1.7293 -2.4260
 1369SOL     OW21248   3.356   3.569   6.499 -0.1462  0.1720  0.1921
 1369SOL    HW121249   3.442   3.609   6.510 -0.2427  0.2465  0.7135
 1369SOL    HW221250   3.294   3.639   6.522 -0.3694  0.3691 -0.9629
 1370SOL     OW21251   5.030   2.147   1.314 -0.0695  0.0180 -0.1538
 1370SOL    HW121252   5.047   2.074   1.255  0.5016 -0.0788  0.1187
 1370SOL    HW221253   5.076   2.221   1.275  1.6309 -0.3998  0.9331
 1371SOL     OW21254   2.738   2.054   6.239 -0.2210  0.1130 -0.3233
 1371SOL    HW121255   2.690   2.125   6.281 -1.0414  0.0176 -1.0594
 1371SOL    HW221256   2.730   2.072   6.145  0.5612 -0.3182 -0.4837
 1372SOL     OW21257   5.794   0.662   5.969 -0.0954 -0.2309  0.3859
 1372SOL    HW121258   5.781   0.705   5.884  1.4615  0.3094  0.3805
 1372SOL    HW221259   5.817   0.572   5.947  2.3442  0.3898  0.0572
 1373SOL     OW21260   2.860   1.643   5.844  0.0376  0.6253  0.1055
 1373SOL    HW121261   2.816   1.559   5.834  0.1346  0.5567  0.2655
 1373SOL    HW221262   2.898   1.641   5.931  1.0490  0.3589 -0.3314
 1374SOL     OW21263   0.966   1.391   7.041 -1.1096  0.1871  0.3348
 1374SOL    HW121264   0.961   1.482   7.010 -4.3002 -0.3347 -1.0960
 1374SOL    HW221265   0.955   1.397   7.136  0.3639  1.3288  0.4790
 1375SOL     OW21266   5.433   5.904   7.258 -0.5493  0.1512  0.0976
 1375SOL    HW121267   5.501   5.946   7.310 -0.5423  1.9793 -1.3269
 1375SOL    HW221268   5.351   5.928   7.302 -0.3805 -2.0278  1.7957
 1376SOL     OW21269   4.710   5.983   1.738  0.6786  0.8593  0.2860
 1376SOL    HW121270   4.645   6.043   1.700 -2.8263 -1.7649  1.6003
 1376SOL    HW221271   4.744   6.031   1.814  0.0270  2.2051 -0.2216
 1377SOL     OW21272   0.592   3.761   6.631 -0.2588  0.1708 -0.0450
 1377SOL    HW121273   0.579   3.757   6.537 -1.1293  1.6553 -0.0200
 1377SOL    HW221274   0.617   3.672   6.656  0.4754 -0.1153 -1.7278
 1378SOL     OW21275   3.461   4.497   1.442  0.2997  0.2930  0.1745
 1378SOL    HW121276   3.506   4.418   1.412 -0.5552 -0.7493  1.4920
 1378SOL    HW221277   3.368   4.474   1.437  0.0656  0.9805  1.1717
 1379SOL     OW21278   1.116   2.652   6.306 -0.4760 -0.4504 -1.0773
 1379SOL    HW121279   1.041   2.656   6.246 -0.1329 -0.4132 -1.5128
 1379SOL    HW221280   1.085   2.692   6.387 -1.5463 -2.2243 -0.5726
 1380SOL     OW21281   5.023   6.457   1.486  0.7559 -0.1251 -0.1047
 1380SOL    HW121282   5.095   6.476   1.425  0.6242 -0.2048 -0.2848
 1380SOL    HW221283   5.067   6.438   1.569  0.9887 -1.0940 -0.4419
 1381SOL     OW21284   2.609   5.386   0.259 -0.6580 -0.5540 -0.7917
 1381SOL    HW121285   2.537   5.441   0.228 -1.0342 -0.5301  0.1027
 1381SOL    HW221286   2.576   5.297   0.254 -0.8570 -0.5256 -0.1442
 1382SOL     OW21287   6.413   2.604   1.258 -0.3411 -0.2878  0.4271
 1382SOL    HW121288   6.455   2.625   1.342 -0.7819  0.6433  0.4275
 1382SOL    HW221289   6.407   2.509   1.258  0.0642 -0.3246  1.2652
 1383SOL     OW21290   3.822   1.138   7.138 -0.9711 -0.6358  0.1198
 1383SOL    HW121291   3.737   1.097   7.157 -1.0348 -0.6411 -0.1631
 1383SOL    HW221292   3.861   1.082   7.071 -0.0690 -1.4936  1.3187
 1384SOL     OW21293   2.908   2.349   6.810  0.2752  0.3839  0.1374
 1384SOL    HW121294   2.859   2.302   6.743 -0.0088  0.1584  0.5025
 1384SOL    HW221295   2.842   2.392   6.864  0.2957 -1.6855  1.9710
 1385SOL     OW21296   4.191   3.485   5.644 -0.0649 -0.0018  0.6987
 1385SOL    HW121297   4.116   3.518   5.595  0.0240 -0.8711 -0.0589
 1385SOL    HW221298   4.265   3.537   5.612 -0.2648  0.5571  1.1277
 1386SOL     OW21299   1.737   2.430   6.579  0.1635 -0.6869 -0.1939
 1386SOL    HW121300   1.757   2.518   6.611  0.9459 -0.9975  0.1993
 1386SOL    HW221301   1.726   2.441   6.484 -0.7048 -0.0131 -0.0322
 1387SOL     OW21302   3.745   4.766   1.433 -0.0911 -0.4703 -0.4939
 1387SOL    HW121303   3.693   4.740   1.509 -0.1733 -0.4100 -0.5298
 1387SOL    HW221304   3.774   4.683   1.395 -0.4846 -0.5163 -0.6998
 1388SOL     OW21305   1.587   2.381   6.826  0.5664 -0.3468 -0.0167
 1388SOL    HW121306   1.523   2.363   6.758  1.5343  3.1766 -2.1312
 1388SOL    HW221307   1.669   2.397   6.780  1.5762  0.9453  2.0277
 1389SOL     OW21308   0.938   2.882   6.269 -0.0246 -0.0763 -0.0121
 1389SOL    HW121309   0.896   2.957   6.228 -0.9031  0.3902  1.6315
 1389SOL    HW221310   0.934   2.901   6.363 -2.4349 -3.2150  0.6952
 1390SOL     OW21311   1.056   5.307   0.641 -0.3731  0.0424 -0.0741
 1390SOL    HW121312   1.130   5.252   0.666 -0.1444 -0.7783 -2.3069
 1390SOL    HW221313   0.989   5.289   0.706  0.0101 -2.2384 -0.2344
 1391SOL     OW21314   3.014   2.250   5.804  0.2066 -0.4859  0.5252
 1391SOL    HW121315   2.977   2.299   5.729 -0.3115  1.3338  1.8896
 1391SOL    HW221316   2.999   2.158   5.782 -2.2383  0.0645 -0.4996
 1392SOL     OW21317   1.889   5.784   1.047 -0.3869  0.2306 -0.5935
 1392SOL    HW121318   1.915   5.849   1.113 -0.4191  0.0732 -0.4265
 1392SOL    HW221319   1.965   5.727   1.037 -0.5250  0.0127 -0.3997
 1393SOL     OW21320   1.989   0.232   0.783 -0.0575 -0.1059 -0.3178
 1393SOL    HW121321   2.049   0.246   0.710 -0.2935  0.0206 -0.4901
 1393SOL    HW221322   2.044   0.199   0.854  0.7163  2.4640  0.4119
 1394SOL     OW21323   5.093   6.168   2.041  0.4306 -1.0711 -0.2213
 1394SOL    HW121324   5.187   6.188   2.036  0.0634  0.9515  0.2381
 1394SOL    HW221325   5.076   6.156   2.135  0.1368 -0.8723 -0.2472
 1395SOL     OW21326   1.225   2.686   1.141  0.2156 -0.0031  0.0216
 1395SOL    HW121327   1.242   2.617   1.077  0.1337  1.1392 -1.2776
 1395SOL    HW221328   1.145   2.658   1.186  0.3096 -0.8529 -0.3279
 1396SOL     OW21329   0.555   4.591   0.626 -0.2522  0.2087  0.3221
 1396SOL    HW121330   0.649   4.600   0.612 -0.2856 -1.9997 -2.1318
 1396SOL    HW221331   0.515   4.626   0.545 -1.2462 -2.4620 -0.4422
 1397SOL     OW21332   1.488   5.811   0.121  0.4005  0.1773 -0.1408
 1397SOL    HW121333   1.573   5.777   0.151 -1.0400 -2.5514  1.2321
 1397SOL    HW221334   1.425   5.774   0.183 -1.7120  3.4855 -0.0647
 1398SOL     OW21335   5.524   6.494   7.270  0.2563 -0.3928 -0.0955
 1398SOL    HW121336   5.532   6.451   7.355 -0.2150 -0.3764 -0.0383
 1398SOL    HW221337   5.431   6.487   7.248 -0.0715  1.5695  0.4479
 1399SOL     OW21338   5.127   2.796   7.336  0.3239  0.0477 -0.2925
 1399SOL    HW121339   5.138   2.751   7.252 -1.1898 -0.1439 -0.4228
 1399SOL    HW221340   5.211   2.785   7.381  0.6103 -1.2732 -1.1024
 1400SOL     OW21341   0.059   3.963   4.910  0.4295  0.7976 -0.3632
 1400SOL    HW121342   0.028   3.997   4.994  0.0191 -0.1322 -0.1278
 1400SOL    HW221343   0.067   3.869   4.923  2.4364  0.8709 -0.7358
 1401SOL     OW21344   5.521   2.679   1.400  0.5233 -0.3284 -0.0026
 1401SOL    HW121345   5.515   2.595   1.446 -1.0604  0.1942  0.8224
 1401SOL    HW221346   5.457   2.671   1.329  0.0529  0.3184  0.3402
 1402SOL     OW21347   2.012   1.370   0.412  0.1335 -0.1596  0.5483
 1402SOL    HW121348   2.081   1.322   0.365 -0.7656 -0.6785 -0.2894
 1402SOL    HW221349   2.049   1.387   0.498  1.4014 -0.2110  0.0374
 1403SOL     OW21350   0.098   4.052   0.098  0.0086 -0.1925 -0.0770
 1403SOL    HW121351   0.117   4.011   0.013  1.2611  0.4352 -0.1351
 1403SOL    HW221352   0.136   4.140   0.090  0.5973 -0.2987  1.2983
 1404SOL     OW21353   1.798   2.710   2.041  0.7419  0.0781 -0.5257
 1404SOL    HW121354   1.785   2.656   1.963  1.7188  0.3333 -0.8881
 1404SOL    HW221355   1.740   2.785   2.028  2.5330  1.2851 -2.1800
 1405SOL     OW21356   5.143   0.918   1.044  0.2630  0.1434 -0.5972
 1405SOL    HW121357   5.152   0.850   1.111 -0.2505  1.4278  0.8395
 1405SOL    HW221358   5.228   0.961   1.042  0.3192  0.0194 -0.8726
 1406SOL     OW21359   4.354   2.407   5.640  0.0293 -0.0821  0.1775
 1406SOL    HW121360   4.438   2.415   5.595 -0.0214 -2.4672 -0.4642
 1406SOL    HW221361   4.315   2.494   5.633  0.5839  0.0138 -3.3128
 1407SOL     OW21362   1.132   0.478   6.537  0.6928  0.0679  0.5463
 1407SOL    HW121363   1.079   0.459   6.614  0.5474 -1.7835  0.0284
 1407SOL    HW221364   1.191   0.549   6.566  1.4434 -1.3432  2.7481
 1408SOL     OW21365   3.013   1.118   0.626 -0.3037  0.1869  0.0367
 1408SOL    HW121366   3.003   1.164   0.543 -0.2077  1.2130  0.5800
 1408SOL    HW221367   2.927   1.123   0.668 -0.1121  0.4837  0.4010
 1409SOL     OW21368   1.248   2.391   7.399  0.3550  0.7190  0.0826
 1409SOL    HW121369   1.336   2.354   7.391  0.1151  0.2729 -0.5611
 1409SOL    HW221370   1.260   2.486   7.391  1.1128  0.9391  2.8220
 1410SOL     OW21371   2.550   6.456   6.242  0.6147 -0.5218 -0.2317
 1410SOL    HW121372   2.515   6.393   6.304  1.5702  0.7438  1.7057
 1410SOL    HW221373   2.518   6.541   6.272  0.7775  0.1066 -1.7234
 1411SOL     OW21374   4.855   0.246   6.300  0.2616 -0.4881 -0.6835
 1411SOL    HW121375   4.786   0.227   6.235 -1.6416  2.2553  0.3397
 1411SOL    HW221376   4.919   0.299   6.253 -1.2335  1.6986 -0.4072
 1412SOL     OW21377   3.553   2.480   0.671  0.8665 -0.2058  0.2240
 1412SOL    HW121378   3.580   2.524   0.752 -0.8182  2.0427 -0.3393
 1412SOL    HW221379   3.477   2.428   0.696 -1.0228  2.1867 -0.2123
 1413SOL     OW21380   3.816   5.946   7.388 -0.2433  0.2609 -0.5370
 1413SOL    HW121381   3.743   5.980   7.336 -0.9973 -0.1454  0.2295
 1413SOL    HW221382   3.830   5.857   7.354  0.6166  0.7038 -1.3997
 1414SOL     OW21383   3.877   4.602   1.272 -0.2676  0.0862 -0.3552
 1414SOL    HW121384   3.845   4.518   1.307  1.6929 -0.5251  0.1209
 1414SOL    HW221385   3.971   4.588   1.261  0.1268  2.2984 -0.1035
 1415SOL     OW21386   2.026   2.426   6.821 -0.2193  0.4839 -0.7362
 1415SOL    HW121387   1.991   2.464   6.902 -1.8521  0.2242 -1.2878
 1415SOL    HW221388   2.007   2.492   6.754 -1.5031 -0.5264 -1.3979
 1416SOL     OW21389   1.702   0.928   5.492  0.1540 -0.5424  0.0848
 1416SOL    HW121390   1.737   0.903   5.578 -1.3199 -0.7041  0.6660
 1416SOL    HW221391   1.778   0.961   5.444  0.7679  1.0122  1.9873
 1417SOL     OW21392   2.549   6.084   7.395  0.5313 -0.3442  0.1032
 1417SOL    HW121393   2.588   6.169   7.415 -1.5695  0.5927  0.5453
 1417SOL    HW221394   2.455   6.096   7.414  0.1570 -2.7283  0.0628
 1418SOL     OW21395   4.376   5.736   7.106 -0.0893  0.5105 -0.3697
 1418SOL    HW121396   4.470   5.751   7.107  0.1806 -0.8947 -1.6777
 1418SOL    HW221397   4.365   5.649   7.067 -1.9701  1.0794 -1.2666
 1419SOL     OW21398   5.151   6.098   6.392 -0.1862  0.1943 -0.2026
 1419SOL    HW121399   5.062   6.079   6.361  0.4555 -1.3512 -1.2440
 1419SOL    HW221400   5.168   6.030   6.458  0.2204  0.4982  0.0097
 1420SOL     OW21401   2.047   6.062   0.701  0.3638  0.2045 -0.5751
 1420SOL    HW121402   1.964   6.042   0.746  1.2625 -2.0662  0.2205
 1420SOL    HW221403   2.021   6.081   0.611 -1.1208  0.7994 -0.0603
 1421SOL     OW21404   1.303   1.018   6.569 -0.1845 -0.4714  0.0280
 1421SOL    HW121405   1.316   0.953   6.638 -0.7039 -1.2455 -0.5875
 1421SOL    HW221406   1.382   1.072   6.572 -0.2154 -0.4620  1.2502
 1422SOL     OW21407   5.409   3.996   0.406 -0.1122 -0.0874 -0.1471
 1422SOL    HW121408   5.480   4.046   0.367  0.4120 -1.6751 -1.3166
 1422SOL    HW221409   5.452   3.927   0.456 -0.8102 -0.6390 -0.2760
 1423SOL     OW21410   4.045   6.423   1.712 -0.0395 -0.2290 -0.9730
 1423SOL    HW121411   3.992   6.467   1.778 -2.6575 -3.0617 -0.9652
 1423SOL    HW221412   4.135   6.432   1.743 -0.9864  0.3100  1.8900
 1424SOL     OW21413   4.573   1.276   0.741  0.7498  0.0718 -0.1114
 1424SOL    HW121414   4.488   1.289   0.783  1.0126  0.0188  0.4447
 1424SOL    HW221415   4.624   1.354   0.764  1.0149 -0.1194 -0.0432
 1425SOL     OW21416   2.699   6.283   4.759 -0.5952 -0.3117  0.0914
 1425SOL    HW121417   2.649   6.346   4.706 -1.1069  1.6798  2.6910
 1425SOL    HW221418   2.789   6.313   4.754 -0.4901 -0.7033 -0.3968
 1426SOL     OW21419   0.245   5.454   0.503  0.2938  0.4226 -0.1580
 1426SOL    HW121420   0.228   5.500   0.585 -0.4478 -2.5604  1.5259
 1426SOL    HW221421   0.323   5.401   0.521  1.0524  0.8284 -1.9525
 1427SOL     OW21422   0.717   3.565   7.112  0.9696 -0.1616  0.9923
 1427SOL    HW121423   0.736   3.617   7.190 -1.7517  1.2457  0.8203
 1427SOL    HW221424   0.773   3.603   7.044  1.6541  0.1305  1.7037
 1428SOL     OW21425   5.531   0.001   6.179 -0.3227  0.2561  0.0076
 1428SOL    HW121426   5.492  -0.001   6.266 -2.6790 -0.8717 -1.0063
 1428SOL    HW221427   5.596  -0.070   6.181  1.4867  1.8216  1.5456
 1429SOL     OW21428   0.019   5.608   6.240 -0.0280 -0.3037 -0.5677
 1429SOL    HW121429   0.025   5.703   6.230  1.0651 -0.0270  1.9963
 1429SOL    HW221430  -0.021   5.595   6.326 -1.4374 -2.2242 -1.4217
 1430SOL     OW21431   6.366   6.571   1.840 -0.1793  0.7745 -0.5527
 1430SOL    HW121432   6.351   6.587   1.933 -0.7111 -0.4721 -0.3991
 1430SOL    HW221433   6.290   6.520   1.812  0.1885  0.7622 -1.5711
 1431SOL     OW21434   6.392   3.992   0.058  0.0287 -0.0054  0.5806
 1431SOL    HW121435   6.447   3.918   0.033  0.5136  0.0373  1.4839
 1431SOL    HW221436   6.417   4.062  -0.002  1.3577  0.1735  1.3137
 1432SOL     OW21437   5.879   0.821   0.583  0.3480  0.1236 -0.2523
 1432SOL    HW121438   5.873   0.739   0.534  0.7432  0.1451 -0.3382
 1432SOL    HW221439   5.847   0.888   0.521 -1.2127 -0.1219  0.2506
 1433SOL     OW21440   0.144   4.948   1.752 -0.0445 -0.2202  0.5114
 1433SOL    HW121441   0.221   4.902   1.719  0.7871  0.8904  0.8347
 1433SOL    HW221442   0.175   4.996   1.829 -0.8297  0.9850  0.1129
 1434SOL     OW21443   0.016   0.409   6.284 -0.3581  0.1986 -0.1402
 1434SOL    HW121444   0.050   0.404   6.195  1.1780  0.3402  0.4038
 1434SOL    HW221445   0.020   0.319   6.316 -0.5858  0.2043 -0.0911
 1435SOL     OW21446   4.305   2.165   6.338  0.3206  0.3595  0.4227
 1435SOL    HW121447   4.376   2.170   6.403  0.5001  0.2813  0.2344
 1435SOL    HW221448   4.296   2.254   6.305  1.8528 -0.0182 -1.1592
 1436SOL     OW21449   2.184   2.897   0.463  0.5614 -0.2265 -0.3909
 1436SOL    HW121450   2.213   2.829   0.403  1.0282 -1.7570  1.4652
 1436SOL    HW221451   2.112   2.941   0.418  0.2820 -1.9134 -1.6597
 1437SOL     OW21452   5.686   5.879   1.090 -0.0900  0.1140  0.3434
 1437SOL    HW121453   5.716   5.939   1.021  0.4516 -0.4785  0.0476
 1437SOL    HW221454   5.696   5.929   1.171  0.8306  0.2565  0.1545
 1438SOL     OW21455   1.366   6.354   6.597  0.7592  0.5986  0.2564
 1438SOL    HW121456   1.435   6.381   6.535 -0.6241  1.2944 -1.0494
 1438SOL    HW221457   1.308   6.430   6.603 -1.6068 -0.9527 -1.1572
 1439SOL     OW21458   0.841   6.485   0.590 -0.0623  0.5772  0.5949
 1439SOL    HW121459   0.862   6.494   0.683  0.4853 -0.7045  0.6168
 1439SOL    HW221460   0.791   6.403   0.584  1.4443 -0.3126 -0.4476
 1440SOL     OW21461   4.508   3.049   2.038 -0.0821 -0.2879  0.7126
 1440SOL    HW121462   4.555   2.967   2.021  0.5540  0.2989 -0.5121
 1440SOL    HW221463   4.419   3.032   2.006  0.8336  0.4568 -2.6445
 1441SOL     OW21464   5.908   3.256   1.491  0.3758 -0.2315 -0.1445
 1441SOL    HW121465   5.954   3.262   1.574  0.5068 -0.0674 -0.2284
 1441SOL    HW221466   5.816   3.274   1.512  0.2898 -0.9170  0.0811
 1442SOL     OW21467   1.502   0.399   6.369  0.2380  0.2153 -0.2382
 1442SOL    HW121468   1.458   0.474   6.327 -0.8846 -0.6092 -0.5881
 1442SOL    HW221469   1.573   0.376   6.308  1.0625  1.4242  0.2234
 1443SOL     OW21470   2.362   1.598   6.268  0.1536  0.2825 -0.3148
 1443SOL    HW121471   2.275   1.630   6.246 -1.2447 -1.6328  1.8621
 1443SOL    HW221472   2.407   1.674   6.305 -0.2269  1.5084 -2.2284
 1444SOL     OW21473   6.506   1.040   6.641  0.2240  0.0376 -0.2662
 1444SOL    HW121474   6.530   0.969   6.699 -0.1747  1.4185  1.6679
 1444SOL    HW221475   6.577   1.044   6.577  1.3527 -0.6705  0.9135
 1445SOL     OW21476   1.700   1.740   0.942  0.0329  0.1415  0.3917
 1445SOL    HW121477   1.758   1.665   0.951  0.8692  0.7084 -0.1053
 1445SOL    HW221478   1.615   1.703   0.921  0.0185 -0.7546  1.9234
 1446SOL     OW21479   0.903   5.645   0.992 -0.0011  0.1643 -0.4953
 1446SOL    HW121480   0.978   5.636   1.051 -0.4217  2.5317  0.5149
 1446SOL    HW221481   0.942   5.662   0.906  0.6259 -3.5791 -1.1320
 1447SOL     OW21482   4.034   2.891   5.150  0.4109  0.2054 -0.1343
 1447SOL    HW121483   4.092   2.820   5.179  1.2749  1.0718  0.3059
 1447SOL    HW221484   3.954   2.880   5.201  2.2709  2.3530  3.6106
 1448SOL     OW21485   1.966   6.411   0.286  0.2646  0.0750 -0.0395
 1448SOL    HW121486   1.902   6.363   0.234  0.4428  1.2423 -1.4132
 1448SOL    HW221487   2.042   6.420   0.228  1.2873 -0.3742  1.1826
 1449SOL     OW21488   0.862   0.405   0.845  0.5440  0.1306 -0.2189
 1449SOL    HW121489   0.855   0.501   0.841 -4.0007  0.0534  0.8125
 1449SOL    HW221490   0.842   0.376   0.756  0.8234  0.0843 -0.2692
 1450SOL     OW21491   6.024   1.868   7.429  0.1082 -0.1576 -0.4959
 1450SOL    HW121492   6.061   1.956   7.436 -1.3742  0.3873  2.6357
 1450SOL    HW221493   6.091   1.810   7.465 -0.6052  0.3766  1.8595
 1451SOL     OW21494   6.494   1.390   0.996 -0.4777  0.1472  0.3744
 1451SOL    HW121495   6.477   1.341   1.077 -1.1611 -1.2179 -0.5393
 1451SOL    HW221496   6.464   1.479   1.015 -2.9551 -0.7082  0.8920
 1452SOL     OW21497   6.322   1.166   0.277 -0.0859  0.3890 -0.1242
 1452SOL    HW121498   6.395   1.104   0.281 -0.8457 -0.5178  0.2313
 1452SOL    HW221499   6.339   1.229   0.347  0.3166  0.1407  0.0042
 1453SOL     OW21500   2.173   2.139   0.310  0.0596  0.2538 -0.0976
 1453SOL    HW121501   2.090   2.093   0.321  0.6450 -0.8836 -0.2850
 1453SOL    HW221502   2.222   2.085   0.248  0.2386  1.8741 -1.4226
 1454SOL     OW21503   5.753   1.823   1.150  0.1279  0.0418  0.5036
 1454SOL    HW121504   5.834   1.870   1.131  0.3459 -0.6343 -0.2707
 1454SOL    HW221505   5.771   1.778   1.233  0.3831  0.2446  0.5624
 1455SOL     OW21506   4.130   4.762   0.832  0.1759  0.1093 -0.1036
 1455SOL    HW121507   4.195   4.809   0.885  0.0293 -0.7482  0.8564
 1455SOL    HW221508   4.182   4.720   0.763  0.1149  3.4946 -2.4851
 1456SOL     OW21509   1.716   2.778   0.518 -0.0301 -0.2530  0.0712
 1456SOL    HW121510   1.737   2.869   0.539 -0.0929 -0.5165  1.3814
 1456SOL    HW221511   1.760   2.727   0.586 -0.3646 -1.1775 -0.3800
 1457SOL     OW21512   0.268   1.521   7.168 -0.0678 -0.1193 -1.0271
 1457SOL    HW121513   0.316   1.452   7.213 -0.9975  0.2026  0.5440
 1457SOL    HW221514   0.185   1.480   7.143 -2.2620  1.1643  3.1626
 1458SOL     OW21515   1.243   5.052   6.033 -0.4075  0.2609  0.0278
 1458SOL    HW121516   1.167   5.081   5.983 -1.3213 -0.3206  1.0248
 1458SOL    HW221517   1.273   5.131   6.079 -1.1828  0.2533  0.5764
 1459SOL     OW21518   4.204   6.434   6.294  0.4877 -0.2722 -0.2942
 1459SOL    HW121519   4.232   6.434   6.386  0.1112 -0.0364 -0.1753
 1459SOL    HW221520   4.236   6.518   6.260  0.4839 -0.2881 -0.3364
 1460SOL     OW21521   4.641   2.829   2.017 -0.5357 -0.0320  0.1146
 1460SOL    HW121522   4.648   2.811   2.111 -0.8234 -0.7225  0.0102
 1460SOL    HW221523   4.604   2.749   1.980  0.0638  0.0363 -0.6663
 1461SOL     OW21524   0.970   1.664   0.117 -0.4760  0.5967  0.2237
 1461SOL    HW121525   1.060   1.694   0.103 -0.5519  0.4527 -0.6732
 1461SOL    HW221526   0.978   1.569   0.123 -0.5474  0.5949  0.2858
 1462SOL     OW21527   5.236   5.348   0.781  0.7838  0.2762 -0.0324
 1462SOL    HW121528   5.304   5.305   0.728  0.6539 -0.5780  0.4766
 1462SOL    HW221529   5.168   5.372   0.717  0.1853 -1.6037 -0.1762
 1463SOL     OW21530   2.155   5.854   6.884  0.3032 -0.1873  1.0146
 1463SOL    HW121531   2.164   5.818   6.973 -0.2820 -0.8954  0.8022
 1463SOL    HW221532   2.073   5.903   6.886  1.3955  1.7105  1.4689
 1464SOL     OW21533   4.885   1.235   2.126  0.3573 -0.3557 -0.1662
 1464SOL    HW121534   4.827   1.166   2.157  0.2359  0.3687  1.3400
 1464SOL    HW221535   4.826   1.307   2.102  0.5702  0.1102  0.6577
 1465SOL     OW21536   1.333   1.313   6.253 -0.0942  0.2216 -0.6923
 1465SOL    HW121537   1.308   1.381   6.317  2.1514  0.4489  0.0295
 1465SOL    HW221538   1.298   1.345   6.170 -0.1351  1.6854 -0.1561
 1466SOL     OW21539   1.915   5.117   1.207  0.5843  0.5900 -0.0900
 1466SOL    HW121540   1.857   5.069   1.265  2.0835  0.6048  1.4926
 1466SOL    HW221541   1.920   5.205   1.245  0.6618  0.9534 -0.9234
 1467SOL     OW21542   6.255   2.378   6.474  0.3496 -0.8300 -0.3684
 1467SOL    HW121543   6.174   2.370   6.423 -0.5147 -0.3995  0.8657
 1467SOL    HW221544   6.243   2.318   6.547 -0.7675  2.1748  2.1463
 1468SOL     OW21545   4.913   1.629   6.779 -0.7167  0.1079  0.2807
 1468SOL    HW121546   4.940   1.681   6.854 -0.4278  2.4514 -1.3106
 1468SOL    HW221547   4.960   1.547   6.788  0.3389  0.8421  1.9563
 1469SOL     OW21548   5.632   1.462   0.015  0.1753  0.5503 -0.2100
 1469SOL    HW121549   5.542   1.494   0.005  0.2555  0.0795 -3.9104
 1469SOL    HW221550   5.686   1.529  -0.028  1.6184  0.5662  1.4878
 1470SOL     OW21551   3.574   5.490   6.261 -0.1742 -0.0941  0.6511
 1470SOL    HW121552   3.606   5.580   6.262  1.2757 -0.5430 -0.6816
 1470SOL    HW221553   3.634   5.443   6.319  2.2317 -1.0584 -2.3069
 1471SOL     OW21554   4.828   5.338   6.293  0.1446  0.4019 -0.1254
 1471SOL    HW121555   4.909   5.292   6.272  0.7354  0.7308  1.3377
 1471SOL    HW221556   4.761   5.290   6.243  1.1381 -0.2189 -0.9174
 1472SOL     OW21557   0.266   4.303   6.978 -0.2017  0.3299  0.2757
 1472SOL    HW121558   0.264   4.396   6.954 -1.1607  0.2630  0.0687
 1472SOL    HW221559   0.332   4.265   6.920  0.1610  0.8661  0.3250
 1473SOL     OW21560   2.802   1.491   0.301  0.8866 -0.4483  0.2157
 1473SOL    HW121561   2.727   1.443   0.337  0.4519  0.6479  0.8240
 1473SOL    HW221562   2.779   1.506   0.210  0.4643 -0.3217  0.3404
 1474SOL     OW21563   2.405   1.719   1.438  0.0549  0.4851  0.4737
 1474SOL    HW121564   2.379   1.687   1.351  0.5970 -1.2035  0.8945
 1474SOL    HW221565   2.344   1.676   1.498  1.0822 -0.1299  1.1009
 1475SOL     OW21566   5.395   4.307   5.192  0.2879  0.0941  0.0090
 1475SOL    HW121567   5.453   4.244   5.150 -1.4387 -0.8866 -0.9694
 1475SOL    HW221568   5.404   4.387   5.140 -0.7269 -0.6665 -1.3688
 1476SOL     OW21569   0.938   5.674   6.805 -0.5414  0.3412 -0.3413
 1476SOL    HW121570   0.986   5.596   6.829  0.1290  0.5842 -0.8546
 1476SOL    HW221571   0.855   5.641   6.770 -0.4023 -0.1194 -0.2402
 1477SOL     OW21572   6.425   0.876   2.190  0.1829  0.0613  0.5877
 1477SOL    HW121573   6.427   0.832   2.275  1.5429 -1.3630 -0.1311
 1477SOL    HW221574   6.378   0.816   2.132  0.5054  0.3559  0.0023
 1478SOL     OW21575   4.333   2.090   0.324  0.3714  0.1114  0.1172
 1478SOL    HW121576   4.293   2.024   0.268  0.2221  0.6866 -0.4600
 1478SOL    HW221577   4.330   2.171   0.273  1.1964  0.4223  0.5329
 1479SOL     OW21578   0.606   2.878   0.285 -0.0513 -0.0961 -0.1810
 1479SOL    HW121579   0.601   2.854   0.378  0.6442 -0.6739 -0.2780
 1479SOL    HW221580   0.681   2.937   0.280  0.9525 -1.3695 -0.6168
 1480SOL     OW21581   1.985   1.407   7.101  0.1774 -0.1782 -0.4151
 1480SOL    HW121582   2.073   1.431   7.073  0.3977 -2.0076 -1.4429
 1480SOL    HW221583   1.945   1.368   7.024 -1.7304  1.0267 -0.1031
 1481SOL     OW21584   3.990   6.412   0.983  0.3160 -0.3531  0.8540
 1481SOL    HW121585   3.912   6.415   1.039 -1.2240  1.8322 -1.2242
 1481SOL    HW221586   3.976   6.336   0.927 -0.6518  0.2975  0.1625
 1482SOL     OW21587   2.188   0.563   1.662 -0.1285  0.1895  0.1879
 1482SOL    HW121588   2.222   0.506   1.593  0.0286  0.0644  0.3675
 1482SOL    HW221589   2.266   0.591   1.710 -0.2643  0.0393  0.4974
 1483SOL     OW21590   5.781   4.410   7.204  0.1974 -0.2416  0.5809
 1483SOL    HW121591   5.728   4.358   7.264 -2.0712 -0.4653 -1.4807
 1483SOL    HW221592   5.729   4.416   7.124  2.6119  0.9257 -1.0407
 1484SOL     OW21593   6.131   4.257   0.043  0.0546 -0.2430  0.2895
 1484SOL    HW121594   6.142   4.313  -0.033  0.8130  0.3368  0.8100
 1484SOL    HW221595   6.068   4.304   0.098 -0.8846 -0.9078 -0.2002
 1485SOL     OW21596   1.419   5.200   0.660  0.2793 -0.7450 -0.8354
 1485SOL    HW121597   1.463   5.279   0.631 -0.8687  0.1665 -0.1995
 1485SOL    HW221598   1.430   5.200   0.756 -2.1126  0.2189 -0.4799
 1486SOL     OW21599   5.091   4.527   5.285 -0.4673 -0.3368 -0.1614
 1486SOL    HW121600   5.117   4.435   5.294 -2.3294 -1.0002 -1.0749
 1486SOL    HW221601   5.031   4.528   5.210 -0.4023  1.6535 -0.2412
 1487SOL     OW21602   6.102   2.600   0.439  0.1170 -0.1173  0.4182
 1487SOL    HW121603   6.082   2.513   0.406  3.4120 -0.8082 -0.1192
 1487SOL    HW221604   6.116   2.587   0.533 -0.3070  0.0196  0.5003
 1488SOL     OW21605   4.878   3.854   5.455  0.9156 -0.6099 -0.0909
 1488SOL    HW121606   4.902   3.761   5.453  2.0087 -0.3460  0.1682
 1488SOL    HW221607   4.864   3.877   5.363 -0.5330 -1.3057 -0.0660
 1489SOL     OW21608   4.319   6.458   1.808  0.3779 -0.0876  0.3283
 1489SOL    HW121609   4.372   6.532   1.781  0.1569  0.0280  0.2012
 1489SOL    HW221610   4.381   6.396   1.846  0.8540 -0.6350 -1.2539
 1490SOL     OW21611   5.944   4.027   6.459 -0.6363  0.0865 -0.4055
 1490SOL    HW121612   5.956   3.936   6.485 -0.4066  0.2019 -0.0960
 1490SOL    HW221613   6.022   4.047   6.406 -0.8975 -0.0236 -0.8346
 1491SOL     OW21614   4.611   5.157   1.116 -0.4197 -0.0182 -0.5160
 1491SOL    HW121615   4.651   5.080   1.076 -0.6223 -0.3234 -0.1397
 1491SOL    HW221616   4.532   5.124   1.158  0.8840 -0.1715  2.0509
 1492SOL     OW21617   1.284   5.379   0.301  0.3117  1.1143  0.4110
 1492SOL    HW121618   1.276   5.302   0.358 -0.6395  0.4037 -0.6393
 1492SOL    HW221619   1.342   5.350   0.231 -0.6275  1.1186 -0.3732
 1493SOL     OW21620   4.022   0.908   7.318 -0.0864  0.8552 -0.1502
 1493SOL    HW121621   3.967   0.832   7.297  1.9351 -0.8168  0.2162
 1493SOL    HW221622   4.000   0.929   7.409  1.0385 -0.9651  0.6193
 1494SOL     OW21623   4.372   5.796   1.294 -0.2851  0.1372 -0.2407
 1494SOL    HW121624   4.352   5.809   1.387  1.2235 -2.4418  0.5345
 1494SOL    HW221625   4.461   5.829   1.283 -0.6056  0.8197 -0.9065
 1495SOL     OW21626   2.855   0.171   0.103  0.1330  0.1182  0.0228
 1495SOL    HW121627   2.894   0.108   0.042 -0.6750  0.8785 -1.3496
 1495SOL    HW221628   2.926   0.231   0.124  0.3827 -0.0365 -0.3556
 1496SOL     OW21629   3.240   2.349   6.044 -0.5564  0.1915  0.0063
 1496SOL    HW121630   3.232   2.433   6.089  0.1490 -0.2745  1.0217
 1496SOL    HW221631   3.159   2.341   5.993  0.3965  2.6520 -2.1369
 1497SOL     OW21632   6.114   4.850   6.677 -0.3105  0.3110 -0.0842
 1497SOL    HW121633   6.063   4.809   6.608  1.9003  1.4227 -2.5483
 1497SOL    HW221634   6.178   4.784   6.703  0.0218  0.4940 -0.4282
 1498SOL     OW21635   2.192   3.363   7.229  0.6594 -0.3086 -0.6255
 1498SOL    HW121636   2.167   3.394   7.141  0.2288  0.9949 -0.0683
 1498SOL    HW221637   2.287   3.354   7.225  0.5263 -1.7808 -1.6692
 1499SOL     OW21638   0.505   2.618   7.353  0.6125 -0.6145 -0.3278
 1499SOL    HW121639   0.587   2.582   7.386  0.4676  0.7923  1.7480
 1499SOL    HW221640   0.439   2.552   7.377  0.8089 -0.6164  0.2097
 1500SOL     OW21641   0.802   6.271   6.345  0.1004  0.4545  0.0227
 1500SOL    HW121642   0.759   6.293   6.428  0.1438 -0.6145  0.3509
 1500SOL    HW221643   0.735   6.289   6.278 -0.0641  0.9689  0.3165
 1501SOL     OW21644   4.566   4.489   0.916 -0.1795 -0.1689  0.2813
 1501SOL    HW121645   4.537   4.579   0.898  0.6978  0.2460  0.8975
 1501SOL    HW221646   4.489   4.435   0.895 -0.7056  0.7112 -0.1342
 1502SOL     OW21647   4.206   0.300   6.391 -0.4467 -0.3088 -0.7803
 1502SOL    HW121648   4.154   0.298   6.471  0.6545  2.2131  0.1038
 1502SOL    HW221649   4.162   0.366   6.336 -0.3418 -0.9511 -1.6640
 1503SOL     OW21650   3.204   0.651   0.682  0.2886  0.1628  0.3594
 1503SOL    HW121651   3.291   0.681   0.656 -0.5191  1.1394 -1.4447
 1503SOL    HW221652   3.160   0.630   0.599 -1.5296  0.6781  1.1340
 1504SOL     OW21653   4.655   3.649   6.837  0.2720  0.0947 -0.3626
 1504SOL    HW121654   4.581   3.667   6.779  0.6278  1.5643 -0.4022
 1504SOL    HW221655   4.615   3.617   6.918 -0.3366 -0.1461 -0.7532
 1505SOL     OW21656   0.952   1.733   0.453  0.0103 -0.0793 -0.1901
 1505SOL    HW121657   0.956   1.723   0.548  1.2098  0.3763 -0.1725
 1505SOL    HW221658   0.975   1.647   0.418 -0.0056 -0.1348 -0.0623
 1506SOL     OW21659   3.641   3.938   0.826 -0.2882 -0.2627  0.6095
 1506SOL    HW121660   3.599   3.970   0.745 -2.4714 -0.6545  1.5122
 1506SOL    HW221661   3.650   3.844   0.812  0.7298 -0.1221  0.2543
 1507SOL     OW21662   2.356   0.819   0.629 -0.2574 -0.7180  0.2287
 1507SOL    HW121663   2.261   0.824   0.618 -0.2635 -1.2996 -0.0000
 1507SOL    HW221664   2.382   0.742   0.578  0.2279 -1.0928  1.0326
 1508SOL     OW21665   4.463   4.457   0.215  0.1674 -0.5394  0.4459
 1508SOL    HW121666   4.407   4.531   0.191  1.0774 -0.1803 -0.6677
 1508SOL    HW221667   4.526   4.494   0.277  1.7808  0.1504 -1.4808
 1509SOL     OW21668   5.841   5.247   1.965  0.5994 -0.5635 -0.5755
 1509SOL    HW121669   5.765   5.224   2.019 -0.4107  2.1314 -0.6885
 1509SOL    HW221670   5.836   5.187   1.891  0.1866 -2.2322  0.7245
 1510SOL     OW21671   5.753   5.610   5.228 -0.3936 -0.2200  0.4175
 1510SOL    HW121672   5.764   5.527   5.181  0.3881 -0.0867  0.3519
 1510SOL    HW221673   5.708   5.586   5.309  0.5555 -0.8440  0.7815
 1511SOL     OW21674   0.497   5.215   1.854  0.3574  0.1501 -0.8533
 1511SOL    HW121675   0.575   5.262   1.882  0.1125  0.6365 -0.9650
 1511SOL    HW221676   0.528   5.150   1.791  0.6012  0.7564 -1.3681
 1512SOL     OW21677   4.865   3.346   7.051 -0.0650 -0.0313  0.0342
 1512SOL    HW121678   4.866   3.253   7.073 -1.7500  0.2960  1.7001
 1512SOL    HW221679   4.775   3.374   7.064  0.7053  2.1924  1.1861
 1513SOL     OW21680   1.133   6.262   5.721  0.0159  0.0661  0.6398
 1513SOL    HW121681   1.214   6.224   5.688  0.1516 -0.3776  1.4575
 1513SOL    HW221682   1.065   6.232   5.661  0.3687 -0.0956  0.3255
 1514SOL     OW21683   4.676   6.317   7.292  0.2297  0.0260  0.2118
 1514SOL    HW121684   4.711   6.385   7.234  1.5597 -0.2192  0.6778
 1514SOL    HW221685   4.692   6.235   7.245  0.7269 -0.1231  0.6269
 1515SOL     OW21686   5.901   1.526   1.697 -0.0838  0.7162 -0.5447
 1515SOL    HW121687   5.980   1.556   1.741 -0.7314 -1.4883  2.4739
 1515SOL    HW221688   5.835   1.593   1.718 -0.1500  0.1505  1.2736
 1516SOL     OW21689   1.888   5.492   6.122  0.0269 -0.2811  0.1695
 1516SOL    HW121690   1.832   5.538   6.185 -0.5558 -0.4332 -0.2317
 1516SOL    HW221691   1.881   5.400   6.147 -0.0356 -0.3192  0.0125
 1517SOL     OW21692   0.217   4.130   4.756  0.7279 -0.3075  0.4916
 1517SOL    HW121693   0.176   4.075   4.823  1.8115 -1.4172  0.2648
 1517SOL    HW221694   0.143   4.164   4.705 -0.0492 -0.2596  1.6163
 1518SOL     OW21695   3.218   0.082   6.408  0.1950  0.6362  0.0104
 1518SOL    HW121696   3.262  -0.002   6.419 -1.3267 -0.0484  1.0232
 1518SOL    HW221697   3.259   0.119   6.329  1.1450 -0.8694 -0.2536
 1519SOL     OW21698   6.457   4.184   7.348 -0.5349 -0.1778 -0.1797
 1519SOL    HW121699   6.551   4.203   7.349 -0.4294 -0.6206 -0.7760
 1519SOL    HW221700   6.415   4.270   7.341 -0.2834  0.2279  2.4612
 1520SOL     OW21701   1.038   5.463   5.789 -0.3205 -0.1765  0.3644
 1520SOL    HW121702   0.957   5.478   5.838  0.2502  1.6057  0.8418
 1520SOL    HW221703   1.057   5.548   5.748  0.9693 -0.7323 -0.2426
 1521SOL     OW21704   3.149   2.776   1.428  0.5076  0.1645 -0.2486
 1521SOL    HW121705   3.102   2.765   1.345  1.2160  2.0431 -0.9294
 1521SOL    HW221706   3.096   2.727   1.491 -0.4468 -0.6843 -1.6500
 1522SOL     OW21707   2.310   4.153   6.228 -0.5264  0.1956  0.3147
 1522SOL    HW121708   2.365   4.232   6.234  1.0668 -0.8489  0.2687
 1522SOL    HW221709   2.369   4.082   6.253 -0.7355 -1.4608 -3.2778
 1523SOL     OW21710   0.263   0.416   1.450 -0.1042 -0.4639 -0.0097
 1523SOL    HW121711   0.247   0.426   1.544  0.2629  2.5341 -0.1750
 1523SOL    HW221712   0.354   0.440   1.437 -0.0742 -1.0676 -1.1389
 1524SOL     OW21713   2.162   6.577   1.315  0.2305  0.4170 -0.1087
 1524SOL    HW121714   2.112   6.568   1.396  0.9696 -1.1736  0.2201
 1524SOL    HW221715   2.234   6.635   1.337 -0.2967  1.0395 -0.0043
 1525SOL     OW21716   4.127   3.091   6.343 -0.2314  0.1081  0.8157
 1525SOL    HW121717   4.180   3.036   6.285 -1.1197  0.0513  0.0431
 1525SOL    HW221718   4.127   3.177   6.301 -1.6397 -0.1588  0.2116
 1526SOL     OW21719   4.557   6.532   0.630 -0.1596 -0.6617  0.0501
 1526SOL    HW121720   4.562   6.527   0.726 -1.1261  0.3355  0.1680
 1526SOL    HW221721   4.471   6.495   0.609 -0.2994 -0.1175 -0.3566
 1527SOL     OW21722   3.049   0.848   1.654 -0.2165  0.4841 -0.4066
 1527SOL    HW121723   3.051   0.848   1.749 -0.1031  0.7383 -0.4092
 1527SOL    HW221724   2.958   0.824   1.632 -0.3365  0.7825 -0.2335
 1528SOL     OW21725   0.828   1.903   6.892 -0.0980  0.0270 -0.7188
 1528SOL    HW121726   0.847   1.955   6.814 -0.1145  2.3299  0.7305
 1528SOL    HW221727   0.733   1.893   6.892 -0.1898  0.8441 -0.5123
 1529SOL     OW21728   0.742   0.958   6.942 -0.0751  0.0263 -0.5331
 1529SOL    HW121729   0.767   0.987   6.854  1.3270  0.0441 -0.1640
 1529SOL    HW221730   0.758   1.034   6.998 -1.7741  0.2865 -0.3710
 1530SOL     OW21731   0.828   3.117   1.548  0.0085  0.2933 -0.5382
 1530SOL    HW121732   0.810   3.057   1.621 -0.1977  0.8490 -0.1284
 1530SOL    HW221733   0.815   3.204   1.585 -1.6552  0.5547 -1.6597
 1531SOL     OW21734   3.178   0.472   6.734  0.3258 -0.0380  0.0316
 1531SOL    HW121735   3.181   0.376   6.742 -1.7826 -0.1590  0.0339
 1531SOL    HW221736   3.180   0.503   6.824 -1.3006 -0.2475  0.1781
 1532SOL     OW21737   4.456   4.515   1.245 -0.0929  0.3824  0.5927
 1532SOL    HW121738   4.489   4.550   1.162  1.0088 -1.3400  0.2723
 1532SOL    HW221739   4.416   4.432   1.221  1.2874 -0.7107  1.9376
 1533SOL     OW21740   1.345   1.547   0.128  0.0592  0.2837 -0.8554
 1533SOL    HW121741   1.438   1.565   0.133 -0.4881  3.2365  0.6971
 1533SOL    HW221742   1.338   1.471   0.070  3.3063  0.7785 -2.0746
 1534SOL     OW21743   3.577   5.089   5.737  0.4449 -0.0125 -0.0079
 1534SOL    HW121744   3.649   5.086   5.675  0.1636  2.4754 -0.5754
 1534SOL    HW221745   3.550   5.181   5.738 -1.6606 -0.5654  1.4048
 1535SOL     OW21746   1.287   1.354   1.875 -0.8829 -0.1073  0.2735
 1535SOL    HW121747   1.263   1.446   1.880  0.1485  0.1474  0.5834
 1535SOL    HW221748   1.326   1.344   1.788 -0.6506 -0.1713  0.3853
 1536SOL     OW21749   6.495   3.743   0.053 -0.0179  0.1139  0.3909
 1536SOL    HW121750   6.481   3.731  -0.041  1.1371  3.0760 -0.2702
 1536SOL    HW221751   6.590   3.748   0.062  0.0518 -2.4889  2.1625
 1537SOL     OW21752   4.570   6.146   0.058  0.0891  0.5184  0.4189
 1537SOL    HW121753   4.636   6.184   0.001  0.7586  0.4146  1.1070
 1537SOL    HW221754   4.576   6.197   0.139 -1.5998  1.3904  0.0343
 1538SOL     OW21755   6.584   5.680   6.650  0.0717  0.6137  0.1616
 1538SOL    HW121756   6.533   5.705   6.573  1.5835 -1.3982 -1.6352
 1538SOL    HW221757   6.525   5.626   6.702 -0.3842  0.2729 -0.6802
 1539SOL     OW21758   1.192   0.176   6.832  0.6319 -0.0733  0.0421
 1539SOL    HW121759   1.227   0.216   6.912 -0.0749  0.9936 -0.1642
 1539SOL    HW221760   1.246   0.211   6.762  1.1753 -0.9170  0.0317
 1540SOL     OW21761   0.325   1.411   6.010 -0.4766 -0.1711 -0.0642
 1540SOL    HW121762   0.384   1.340   5.986 -0.5858 -0.4067  0.3637
 1540SOL    HW221763   0.365   1.489   5.972 -0.7490 -0.5596 -1.2007
 1541SOL     OW21764   4.144   4.807   6.754 -1.1906 -0.2364  0.0788
 1541SOL    HW121765   4.117   4.818   6.663 -1.9276 -0.9120  0.2084
 1541SOL    HW221766   4.157   4.896   6.786 -1.0270  0.0110 -0.6488
 1542SOL     OW21767   0.202   4.414   0.508 -0.1543  0.4549  0.2689
 1542SOL    HW121768   0.160   4.328   0.520 -0.2332  0.4193 -0.2555
 1542SOL    HW221769   0.226   4.441   0.597  0.2810 -0.3155  0.3906
 1543SOL     OW21770   0.276   3.461   6.111  0.2424 -0.4682  0.0735
 1543SOL    HW121771   0.325   3.395   6.160  0.1207 -0.7947 -0.2394
 1543SOL    HW221772   0.197   3.415   6.082 -0.1679  0.0074  0.4299
 1544SOL     OW21773   0.709   5.982   5.659 -0.2193  0.2891  0.0882
 1544SOL    HW121774   0.714   6.015   5.570 -0.3097  0.7111  0.2365
 1544SOL    HW221775   0.759   5.901   5.658 -1.8681 -0.7746 -0.8152
 1545SOL     OW21776   1.503   3.973   0.774 -0.2575  0.1694  0.1270
 1545SOL    HW121777   1.587   4.017   0.782  0.1062  0.1247 -2.5003
 1545SOL    HW221778   1.438   4.043   0.777  0.2302  0.8284 -2.5961
 1546SOL     OW21779   6.518   5.831   5.899 -0.4393 -0.3966  0.6879
 1546SOL    HW121780   6.593   5.817   5.841  0.1644 -0.8350  1.5553
 1546SOL    HW221781   6.539   5.912   5.945 -0.3088 -0.7170  1.2034
 1547SOL     OW21782   3.363   3.617   6.822  0.0081 -0.4671  0.2247
 1547SOL    HW121783   3.437   3.617   6.761 -1.0623 -1.9618 -1.1484
 1547SOL    HW221784   3.348   3.710   6.840  0.5152  0.0332 -1.6285
 1548SOL     OW21785   4.643   1.934   0.337 -0.0174 -0.2566 -0.4159
 1548SOL    HW121786   4.637   1.895   0.250 -0.5357  0.2843 -0.6283
 1548SOL    HW221787   4.568   1.994   0.342  0.8102  0.7977 -0.1468
 1549SOL     OW21788   3.070   6.094   7.005 -0.2746  0.3227 -0.8322
 1549SOL    HW121789   3.073   6.085   7.100 -3.2668 -2.7076 -0.8265
 1549SOL    HW221790   3.149   6.144   6.983  1.2204  0.0423  3.0604
 1550SOL     OW21791   1.105   0.122   5.720 -0.6892  0.3338  0.1780
 1550SOL    HW121792   1.177   0.164   5.672 -1.7446 -0.0666 -1.8861
 1550SOL    HW221793   1.137   0.114   5.810  2.2516 -0.7292 -0.8464
 1551SOL     OW21794   5.029   3.842   1.512 -0.1130 -0.2491  0.2075
 1551SOL    HW121795   5.071   3.877   1.590 -1.2774 -0.8314  1.1341
 1551SOL    HW221796   5.093   3.853   1.442  0.9973  0.1695  1.2731
 1552SOL     OW21797   4.756   4.723   6.441 -0.4230 -0.2182 -0.3422
 1552SOL    HW121798   4.684   4.730   6.504 -0.2371 -0.6513 -0.0710
 1552SOL    HW221799   4.760   4.629   6.420  0.9709 -0.4323  0.7447
 1553SOL     OW21800   4.272   4.920   7.053  0.1364  0.0199 -0.0406
 1553SOL    HW121801   4.207   4.958   7.112  0.7275 -0.9286  1.2726
 1553SOL    HW221802   4.352   4.913   7.106  0.0758 -3.0017 -0.1599
 1554SOL     OW21803   6.377   4.626   7.175  0.0384  0.7119 -0.1377
 1554SOL    HW121804   6.405   4.585   7.093 -1.3615 -0.6911  0.0239
 1554SOL    HW221805   6.446   4.688   7.196  0.8924  0.4172 -1.8831
 1555SOL     OW21806   5.663   3.954   1.971 -0.6267  0.3337  0.1252
 1555SOL    HW121807   5.686   3.861   1.971  0.9660  0.7106  0.2268
 1555SOL    HW221808   5.580   3.958   1.923  0.7542 -0.7837 -2.5480
 1556SOL     OW21809   0.839   3.001   0.423 -0.9820  0.0937 -0.2469
 1556SOL    HW121810   0.796   3.010   0.508 -0.1289 -0.8831  0.3168
 1556SOL    HW221811   0.882   2.915   0.427  0.8032  0.9126 -0.8546
 1557SOL     OW21812   1.685   4.826   5.122 -0.0765  0.0653 -0.1411
 1557SOL    HW121813   1.693   4.920   5.140  0.7829 -0.2661  1.4570
 1557SOL    HW221814   1.602   4.817   5.076 -0.9884  1.4435  1.1478
 1558SOL     OW21815   0.655   0.038   6.462 -0.0827 -0.1706  0.1626
 1558SOL    HW121816   0.676   0.117   6.512  0.7944 -0.7157  0.6862
 1558SOL    HW221817   0.722   0.034   6.394  0.2335 -0.7743  0.5049
 1559SOL     OW21818   0.403   2.186   6.811 -0.9271 -0.1407 -0.0087
 1559SOL    HW121819   0.335   2.251   6.826 -0.9355 -0.4632  1.5702
 1559SOL    HW221820   0.436   2.165   6.899  0.3370 -0.9172 -0.6348
 1560SOL     OW21821   0.860   6.146   6.003 -0.2955 -0.2669  0.3066
 1560SOL    HW121822   0.938   6.202   5.999  1.5936 -2.8037 -1.7778
 1560SOL    HW221823   0.845   6.133   6.097  0.2885  2.1764  0.8046
 1561SOL     OW21824   4.174   2.230   5.814  0.5341  0.2526  0.2487
 1561SOL    HW121825   4.207   2.282   5.741 -0.0173 -0.9791 -0.9237
 1561SOL    HW221826   4.204   2.277   5.892  1.8399  1.1661 -0.7512
 1562SOL     OW21827   0.327   0.942   0.562  0.1776 -0.0945  0.3053
 1562SOL    HW121828   0.242   0.977   0.534  1.4359  3.0799 -0.0235
 1562SOL    HW221829   0.369   0.914   0.481  0.4329  0.8664  0.0872
 1563SOL     OW21830   2.956   6.507   0.807  0.0590 -0.1620  0.8544
 1563SOL    HW121831   3.037   6.514   0.858  1.2573  0.9801 -1.0837
 1563SOL    HW221832   2.943   6.413   0.793  1.6879 -0.3189  0.2542
 1564SOL     OW21833   5.939   0.827   6.142 -0.1579 -0.0436  0.2682
 1564SOL    HW121834   6.026   0.787   6.140 -0.4997 -0.8805 -2.2277
 1564SOL    HW221835   5.890   0.778   6.076 -2.4072  0.7015  1.3059
 1565SOL     OW21836   4.144   1.099   6.596 -0.5393 -0.6028  0.2355
 1565SOL    HW121837   4.142   1.006   6.576 -1.2754 -0.5243 -0.0938
 1565SOL    HW221838   4.052   1.126   6.593 -0.2615  0.3074 -0.5003
 1566SOL     OW21839   3.268   0.716   0.097  0.0398 -0.0695 -0.3221
 1566SOL    HW121840   3.274   0.799   0.143 -0.8759 -0.0434 -0.2407
 1566SOL    HW221841   3.188   0.675   0.129  0.8391 -1.3179  0.1684
 1567SOL     OW21842   3.610   3.432   0.109 -0.6744 -0.1197  0.0548
 1567SOL    HW121843   3.665   3.450   0.185 -0.0212 -2.5203  0.2209
 1567SOL    HW221844   3.540   3.376   0.143 -0.8317 -0.5525 -0.9603
 1568SOL     OW21845   2.483   0.074   1.959  0.4013  0.5392  0.1224
 1568SOL    HW121846   2.578   0.072   1.952  0.5162 -2.2582  1.1725
 1568SOL    HW221847   2.466   0.089   2.052 -0.2366  1.9037 -0.1934
 1569SOL     OW21848   0.327   4.398   5.157 -0.1793 -0.2603 -1.0995
 1569SOL    HW121849   0.240   4.357   5.156 -0.7723  0.3457  3.2837
 1569SOL    HW221850   0.313   4.482   5.202  2.3479  1.0485 -2.5210
 1570SOL     OW21851   5.576   4.040   0.087 -0.5219 -0.1709  0.7273
 1570SOL    HW121852   5.645   4.088   0.042 -2.6429  2.1729 -0.2669
 1570SOL    HW221853   5.601   4.041   0.179  0.2591  1.5559  0.5214
 1571SOL     OW21854   5.479   2.266   1.754  0.0201  0.1751  0.2734
 1571SOL    HW121855   5.473   2.232   1.665  0.6221  0.3560  0.1613
 1571SOL    HW221856   5.388   2.282   1.780 -0.1218  0.7259 -0.5405
 1572SOL     OW21857   5.664   0.073   6.613  0.1211 -0.2426 -0.6164
 1572SOL    HW121858   5.644   0.080   6.707  0.9844  0.4315 -0.4680
 1572SOL    HW221859   5.614   0.143   6.573 -1.6658 -1.6334 -0.9266
 1573SOL     OW21860   2.859   3.379   1.729  0.2352 -0.0642  0.2617
 1573SOL    HW121861   2.918   3.406   1.799 -0.5066  1.1047  0.4609
 1573SOL    HW221862   2.806   3.309   1.768  0.9072 -0.5526  0.3328
 1574SOL     OW21863   4.807   6.500   0.290  0.1915  0.3185  0.5971
 1574SOL    HW121864   4.890   6.525   0.249  0.6525 -1.1756  0.5506
 1574SOL    HW221865   4.821   6.514   0.384  0.9184 -0.9374  0.7057
 1575SOL     OW21866   2.022   6.083   5.686  0.0618  0.1737  0.4731
 1575SOL    HW121867   2.027   6.079   5.590  0.2905  2.1437  0.3670
 1575SOL    HW221868   1.943   6.033   5.708  0.6911 -1.3834 -0.6111
 1576SOL     OW21869   2.319   0.947   6.632 -0.1411  0.1343 -0.1058
 1576SOL    HW121870   2.329   1.040   6.612  0.1412 -0.1711 -1.4801
 1576SOL    HW221871   2.230   0.926   6.607  0.4592 -0.4311 -1.9160
 1577SOL     OW21872   5.642   0.321   0.828  0.3401  0.4903 -0.0524
 1577SOL    HW121873   5.718   0.265   0.842  0.0183  0.0258 -0.1364
 1577SOL    HW221874   5.634   0.371   0.909 -1.6529 -2.3424  1.7186
 1578SOL     OW21875   4.868   1.676   5.965  0.3240 -0.5641 -0.4211
 1578SOL    HW121876   4.955   1.713   5.950  1.0251 -1.2786  1.5074
 1578SOL    HW221877   4.869   1.593   5.919  0.0790  0.1146 -1.6887
 1579SOL     OW21878   0.197   2.391   6.750  0.2317 -0.2120  0.6217
 1579SOL    HW121879   0.136   2.450   6.796 -0.5953 -1.6363  1.4300
 1579SOL    HW221880   0.142   2.344   6.688  0.9431  0.0529 -0.2315
 1580SOL     OW21881   1.742   5.292   5.463  0.0021 -0.0423  0.3904
 1580SOL    HW121882   1.795   5.264   5.389 -0.1945 -1.2966  0.7028
 1580SOL    HW221883   1.653   5.268   5.440 -0.4939  2.1264 -0.1655
 1581SOL     OW21884   0.612   6.044   6.692 -0.3043 -0.2058 -0.1439
 1581SOL    HW121885   0.646   6.086   6.772  0.9531 -0.4754 -0.5094
 1581SOL    HW221886   0.680   6.060   6.627 -0.9200 -0.7546 -0.9334
 1582SOL     OW21887   0.323   6.419   6.066  0.2260 -0.2105  0.1717
 1582SOL    HW121888   0.404   6.430   6.016  0.0849  0.6647  0.1265
 1582SOL    HW221889   0.351   6.404   6.156  0.4751 -1.5073 -0.1030
 1583SOL     OW21890   1.305   4.914   6.662 -0.3286 -0.1126  0.0224
 1583SOL    HW121891   1.325   4.916   6.755  0.7527 -0.0342 -0.1971
 1583SOL    HW221892   1.383   4.951   6.620 -1.0055  0.3266 -0.8804
 1584SOL     OW21893   3.774   3.972   5.939 -0.4238 -0.6498 -0.2484
 1584SOL    HW121894   3.778   3.972   5.843 -1.6106 -1.8033 -0.3242
 1584SOL    HW221895   3.760   3.880   5.962 -0.3048 -0.3556  1.0347
 1585SOL     OW21896   1.698   4.591   0.725  0.3758 -0.2688 -0.0866
 1585SOL    HW121897   1.620   4.538   0.740 -1.4641  2.0244 -1.0153
 1585SOL    HW221898   1.691   4.664   0.786 -0.5584  2.2700 -2.9736
 1586SOL     OW21899   3.644   5.644   0.925 -0.0362 -0.2509 -0.1979
 1586SOL    HW121900   3.588   5.722   0.916  0.6600  0.0517 -2.4650
 1586SOL    HW221901   3.634   5.619   1.017 -2.6554  0.7132 -0.1154
 1587SOL     OW21902   0.449   0.025   1.544  0.3642 -0.1657  0.0963
 1587SOL    HW121903   0.525  -0.021   1.580 -0.1671 -2.0886 -1.0935
 1587SOL    HW221904   0.405   0.063   1.620  2.1913  0.5153  0.8532
 1588SOL     OW21905   0.401   3.313   0.268  0.6131  0.2994  0.1314
 1588SOL    HW121906   0.392   3.218   0.262  1.9728  0.1666 -0.0304
 1588SOL    HW221907   0.420   3.329   0.360 -0.6474  0.5254  0.3665
 1589SOL     OW21908   0.417   3.095   1.989  0.4786  0.2060 -0.2195
 1589SOL    HW121909   0.388   3.004   1.975  1.6760 -0.6431  2.3698
 1589SOL    HW221910   0.362   3.127   2.061  2.2142  0.4043  1.0642
 1590SOL     OW21911   2.043   4.494   5.188  0.5415  0.5186 -0.4339
 1590SOL    HW121912   2.014   4.578   5.154 -1.0998  0.5890  1.0021
 1590SOL    HW221913   2.029   4.500   5.283  1.0425 -1.1201 -0.2144
 1591SOL     OW21914   6.577   3.367   6.498 -0.1463  0.0711 -0.3591
 1591SOL    HW121915   6.638   3.329   6.561 -1.2389 -1.5498 -0.2318
 1591SOL    HW221916   6.618   3.450   6.473  1.1871 -0.0851  1.1124
 1592SOL     OW21917   4.665   1.925   6.276  0.2226 -0.4268 -0.3435
 1592SOL    HW121918   4.608   1.966   6.210 -1.0653  0.4201  1.2207
 1592SOL    HW221919   4.750   1.917   6.233 -0.6986 -0.3925 -2.2792
 1593SOL     OW21920   3.671   5.642   5.154 -0.7022 -0.2444  0.7558
 1593SOL    HW121921   3.663   5.573   5.089 -0.6301  1.5783 -1.2882
 1593SOL    HW221922   3.663   5.723   5.104 -0.0177  1.2553  2.9477
 1594SOL     OW21923   2.135   0.104   2.246  0.0091  0.8194  0.5710
 1594SOL    HW121924   2.090   0.184   2.272  0.9829  1.4589  0.3507
 1594SOL    HW221925   2.222   0.133   2.217  0.1250 -0.2317 -0.2203
 1595SOL     OW21926   0.632   1.406   5.585 -0.2437 -0.5773  0.3849
 1595SOL    HW121927   0.667   1.363   5.507  0.8478 -0.0499  0.5660
 1595SOL    HW221928   0.694   1.382   5.655 -0.0731  0.6081  0.6528
 1596SOL     OW21929   1.627   4.982   5.473 -0.1436  0.0774 -0.5489
 1596SOL    HW121930   1.593   5.068   5.448 -0.6265 -0.1051 -0.5145
 1596SOL    HW221931   1.560   4.945   5.529 -0.4076 -0.7624 -1.4025
 1597SOL     OW21932   1.347   3.780   7.133  0.1596  0.9184  0.1613
 1597SOL    HW121933   1.268   3.832   7.122  1.4723  2.7457 -1.5114
 1597SOL    HW221934   1.407   3.813   7.066  1.8894 -1.2824  0.4943
 1598SOL     OW21935   2.024   2.819   2.134  0.0039  0.0216  0.0778
 1598SOL    HW121936   2.072   2.745   2.171 -0.5608 -0.4732 -0.1597
 1598SOL    HW221937   1.937   2.784   2.116  0.4285  0.0535 -2.3224
 1599SOL     OW21938   2.897   3.747   0.834 -0.4020 -0.3113 -0.5722
 1599SOL    HW121939   2.941   3.694   0.900 -1.6973 -0.0165  0.5842
 1599SOL    HW221940   2.810   3.707   0.826 -1.2153  1.2502 -0.0698
 1600SOL     OW21941   2.593   2.908   7.022 -0.1636  0.5112 -0.0551
 1600SOL    HW121942   2.556   2.954   6.947  0.0513  1.4127  0.3736
 1600SOL    HW221943   2.573   2.815   7.006 -0.8027  0.7690 -0.8258
 1601SOL     OW21944   6.088   1.771   7.134 -0.4953 -0.1206 -0.4358
 1601SOL    HW121945   6.083   1.765   7.229  1.6922  0.3362 -0.2374
 1601SOL    HW221946   6.052   1.857   7.113  0.3638  0.3928  0.1421
 1602SOL     OW21947   6.241   0.615   0.204  0.2823  0.0716 -0.1616
 1602SOL    HW121948   6.216   0.694   0.156 -0.7118 -1.4249 -2.2467
 1602SOL    HW221949   6.217   0.634   0.295 -0.6480  1.8620 -0.7311
 1603SOL     OW21950   5.490   5.926   6.620  0.5206 -0.0434  0.0987
 1603SOL    HW121951   5.565   5.909   6.677 -0.0592  1.6403  1.4390
 1603SOL    HW221952   5.487   6.021   6.611 -1.0868 -0.1116 -0.4322
 1604SOL     OW21953   2.805   5.865   6.433 -0.5240  0.2658 -0.0378
 1604SOL    HW121954   2.763   5.808   6.497 -0.8499 -0.9274 -1.2817
 1604SOL    HW221955   2.733   5.911   6.390 -0.2783  1.4671  0.7711
 1605SOL     OW21956   5.921   5.446   0.653  0.3708 -0.7503 -0.7548
 1605SOL    HW121957   5.948   5.355   0.658  0.1371 -1.2280 -4.9016
 1605SOL    HW221958   6.001   5.494   0.631  0.3180 -0.0527  0.4934
 1606SOL     OW21959   0.380   5.586   7.222 -0.1008 -0.1614 -0.2016
 1606SOL    HW121960   0.395   5.501   7.263 -1.1391 -0.5364 -0.5674
 1606SOL    HW221961   0.423   5.649   7.280 -0.3430 -0.8215  0.7198
 1607SOL     OW21962   5.967   4.755   0.534  0.2527  0.1468 -0.0869
 1607SOL    HW121963   6.049   4.769   0.486  0.4709  2.3999  0.8344
 1607SOL    HW221964   5.901   4.800   0.482 -0.2890 -0.9349 -0.3706
 1608SOL     OW21965   2.974   6.563   6.884  0.3864  0.5619  1.0320
 1608SOL    HW121966   3.003   6.632   6.824  2.3508 -1.2348 -0.2623
 1608SOL    HW221967   2.931   6.498   6.828 -0.2639  0.1237  2.0061
 1609SOL     OW21968   6.314   1.870   2.009 -0.4564 -0.2167 -0.1431
 1609SOL    HW121969   6.226   1.842   2.036 -0.9209  1.4153  0.1417
 1609SOL    HW221970   6.304   1.963   1.990  1.1025 -0.1396 -0.6743
 1610SOL     OW21971   2.756   4.325   7.459 -0.6235 -0.4025 -0.1981
 1610SOL    HW121972   2.756   4.229   7.454  0.2469 -0.3755 -1.1885
 1610SOL    HW221973   2.663   4.349   7.460 -0.8959 -1.2055 -1.8144
 1611SOL     OW21974   4.474   2.243   0.523  0.0165  0.2505  0.2371
 1611SOL    HW121975   4.385   2.274   0.537 -0.0071  0.1462  0.3096
 1611SOL    HW221976   4.467   2.182   0.450 -0.3295 -1.4867  1.6578
 1612SOL     OW21977   2.234   2.847   6.621  0.0874 -0.2773  0.1528
 1612SOL    HW121978   2.189   2.789   6.560  0.2670 -0.8678  0.5712
 1612SOL    HW221979   2.211   2.813   6.708  1.5136 -0.7442  0.3804
 1613SOL     OW21980   1.147   3.155   6.817  0.3542 -0.3533 -0.0234
 1613SOL    HW121981   1.106   3.095   6.879 -0.2251  0.6737  0.6115
 1613SOL    HW221982   1.074   3.190   6.766  0.5531  0.6206  0.3355
 1614SOL     OW21983   2.694   3.315   5.868  0.1903  0.0340  0.2469
 1614SOL    HW121984   2.756   3.381   5.897 -0.1191  0.2585  0.4077
 1614SOL    HW221985   2.744   3.259   5.808  0.3506  0.6358 -0.1894
 1615SOL     OW21986   1.808   2.025   7.093 -0.3206 -0.2756 -0.1624
 1615SOL    HW121987   1.750   1.955   7.123 -0.3793 -0.6158 -1.0383
 1615SOL    HW221988   1.807   2.017   6.997 -1.5674  1.8959 -0.4001
 1616SOL     OW21989   4.602   2.201   1.405  0.7500 -0.2745  0.7265
 1616SOL    HW121990   4.540   2.128   1.402  1.2698 -0.7319  1.0101
 1616SOL    HW221991   4.685   2.162   1.379  1.3332 -0.0961  2.2559
 1617SOL     OW21992   1.215   6.570   6.599 -0.0707 -0.0925 -0.0235
 1617SOL    HW121993   1.148   6.614   6.546 -1.1144 -1.2987  0.2508
 1617SOL    HW221994   1.198   6.599   6.688 -1.6440 -2.0455  0.3599
 1618SOL     OW21995   2.620   6.568   0.912  0.1266  0.7751  0.6900
 1618SOL    HW121996   2.645   6.475   0.920 -0.0564  0.7311  0.7560
 1618SOL    HW221997   2.527   6.569   0.933 -0.2312  0.7648 -0.7936
 1619SOL     OW21998   5.532   2.635   1.832  1.0086 -0.6314 -0.1744
 1619SOL    HW121999   5.436   2.634   1.824  1.0292 -0.2936 -0.4852
 1619SOL    HW222000   5.549   2.683   1.912  0.9853  1.8239 -1.5367
 1620SOL     OW22001   5.850   4.143   2.008  0.0206 -1.1149 -0.5429
 1620SOL    HW122002   5.778   4.081   1.999  0.2261 -1.4123 -0.1356
 1620SOL    HW222003   5.807   4.229   2.014 -0.3921 -1.4047  1.1614
 1621SOL     OW22004   4.730   3.788   6.397 -0.3330  0.3340  0.0981
 1621SOL    HW122005   4.680   3.728   6.452  0.6919 -0.3131  0.3579
 1621SOL    HW222006   4.787   3.731   6.345  0.1248  1.0384 -0.1934
 1622SOL     OW22007   6.356   2.046   0.839  0.5525 -0.2158  0.1961
 1622SOL    HW122008   6.300   1.995   0.897 -0.0426 -1.6937 -1.5760
 1622SOL    HW222009   6.301   2.119   0.810  0.0456 -0.7692 -0.2780
 1623SOL     OW22010   5.350   5.617   0.628 -0.0705 -0.2103  0.2313
 1623SOL    HW122011   5.406   5.554   0.672  0.3182  0.5337  0.8245
 1623SOL    HW222012   5.387   5.703   0.650 -1.3855  0.3028  0.5836
 1624SOL     OW22013   4.556   6.596   6.219 -0.4987  0.0144  0.1469
 1624SOL    HW122014   4.532   6.525   6.278  2.6025  0.2231  1.8962
 1624SOL    HW222015   4.509   6.672   6.252 -3.6440 -1.0136 -1.5880
 1625SOL     OW22016   2.114   0.698   1.155 -0.1872 -0.2344  0.3895
 1625SOL    HW122017   2.193   0.652   1.184  1.1091  1.4982 -0.1631
 1625SOL    HW222018   2.137   0.730   1.067 -1.0855  1.2362  0.6588
 1626SOL     OW22019   4.266   0.273   7.148  0.3288  0.2283  0.4920
 1626SOL    HW122020   4.244   0.359   7.182  1.3159  0.7295 -0.0884
 1626SOL    HW222021   4.186   0.241   7.106 -1.2361 -0.7674  3.8704
 1627SOL     OW22022   5.184   2.196   1.736 -0.3656 -0.5333  0.7516
 1627SOL    HW122023   5.152   2.106   1.745 -1.6059 -0.3994 -1.5496
 1627SOL    HW222024   5.106   2.249   1.722  0.4846  0.5499 -0.1829
 1628SOL     OW22025   3.997   0.818   6.071  0.0998 -0.4190  0.3920
 1628SOL    HW122026   4.049   0.891   6.104  0.3796 -0.8489  0.9204
 1628SOL    HW222027   3.979   0.840   5.979 -0.6566  0.7771  0.8177
 1629SOL     OW22028   5.182   5.841   6.844  0.2727  0.1695 -0.9305
 1629SOL    HW122029   5.222   5.764   6.804 -0.3963 -0.5560 -0.2544
 1629SOL    HW222030   5.092   5.813   6.863  1.1557 -0.4328  3.3249
 1630SOL     OW22031   1.578   1.347   7.129  0.3346  0.4546  0.0708
 1630SOL    HW122032   1.511   1.415   7.119  0.1621  0.3031  0.2046
 1630SOL    HW222033   1.600   1.347   7.222 -0.6104 -0.5655  0.3114
 1631SOL     OW22034   1.239   0.264   0.621  0.7244  0.0056 -0.5518
 1631SOL    HW122035   1.287   0.233   0.544 -0.5458 -0.6446 -1.1101
 1631SOL    HW222036   1.179   0.330   0.587 -0.8530 -1.2917 -0.3858
 1632SOL     OW22037   0.159   4.377   6.439  0.3406  0.0887  0.5628
 1632SOL    HW122038   0.246   4.382   6.477  0.2278  0.2844  0.7990
 1632SOL    HW222039   0.160   4.296   6.388  0.5178 -0.1424  0.9241
 1633SOL     OW22040   5.842   0.772   0.236 -0.2247 -0.4101  0.1667
 1633SOL    HW122041   5.773   0.828   0.270  0.4566  0.6893 -0.1892
 1633SOL    HW222042   5.856   0.707   0.304  0.7602  1.4266  1.8370
 1634SOL     OW22043   1.849   2.602   0.741 -0.1298 -0.3908  0.6148
 1634SOL    HW122044   1.836   2.630   0.831 -0.6293 -2.7903  1.3775
 1634SOL    HW222045   1.785   2.531   0.729 -1.0072  0.7266 -2.0718
 1635SOL     OW22046   2.735   1.055   6.232  0.2870  0.6080 -0.2514
 1635SOL    HW122047   2.804   1.009   6.280  0.7099  0.2226 -1.1949
 1635SOL    HW222048   2.662   1.060   6.293  0.4731 -0.7245  0.1083
 1636SOL     OW22049   5.554   5.216   6.953 -0.7840 -0.2594  0.3334
 1636SOL    HW122050   5.600   5.215   7.037 -0.3161  0.1616  0.0899
 1636SOL    HW222051   5.488   5.147   6.961  0.1649 -1.1728  0.5390
 1637SOL     OW22052   1.442   2.077   7.090 -0.1185  0.0349  0.1053
 1637SOL    HW122053   1.348   2.076   7.110 -0.6632  1.5184 -1.9310
 1637SOL    HW222054   1.445   2.078   6.994  1.9359  1.1537  0.1240
 1638SOL     OW22055   3.345   4.442   4.474 -0.0320  0.3258  0.0582
 1638SOL    HW122056   3.379   4.386   4.543  0.1541  0.6497  0.2336
 1638SOL    HW222057   3.392   4.525   4.485 -2.4533  1.6085  1.7479
 1639SOL     OW22058   1.737   5.789   7.097 -0.3428  0.3929  0.1440
 1639SOL    HW122059   1.798   5.717   7.110  0.2645  0.7464 -0.7058
 1639SOL    HW222060   1.651   5.751   7.116 -0.2050 -0.9962 -1.7544
 1640SOL     OW22061   2.034   4.243   7.424  0.0826 -0.1084 -0.1830
 1640SOL    HW122062   2.047   4.192   7.344 -1.1948  0.1569 -0.5846
 1640SOL    HW222063   1.949   4.214   7.457  0.2798  0.2889  0.7071
 1641SOL     OW22064   0.433   0.133   0.611 -0.1351  0.3380  0.3779
 1641SOL    HW122065   0.518   0.132   0.655  1.3911  0.6976 -2.3008
 1641SOL    HW222066   0.455   0.138   0.518 -3.1216  1.1708 -0.3898
 1642SOL     OW22067   1.740   4.080   0.837 -0.0163  0.3972 -0.5022
 1642SOL    HW122068   1.797   4.106   0.909 -2.4204  0.5835  1.4561
 1642SOL    HW222069   1.689   4.158   0.816 -1.5800 -0.4872 -0.1672
 1643SOL     OW22070   1.697   5.720   0.315 -0.2984  0.3932  0.5620
 1643SOL    HW122071   1.789   5.706   0.339  0.0418  3.6994  1.6810
 1643SOL    HW222072   1.664   5.781   0.381 -2.4130  1.6741 -1.5397
 1644SOL     OW22073   5.976   0.400   0.269  0.5173 -0.3145  0.9249
 1644SOL    HW122074   6.064   0.418   0.235  0.1348 -1.4181 -0.7908
 1644SOL    HW222075   5.917   0.422   0.196 -0.6662  0.4919  2.0684
 1645SOL     OW22076   4.957   6.525   0.839  0.4361  0.0735  0.6038
 1645SOL    HW122077   5.023   6.580   0.798  0.4056  0.2701  0.8143
 1645SOL    HW222078   5.007   6.459   0.888  0.4893 -1.0401 -0.8623
 1646SOL     OW22079   4.507   3.723   0.091 -0.2083 -0.3280 -0.9436
 1646SOL    HW122080   4.565   3.798   0.105  0.8663 -0.9679 -1.8036
 1646SOL    HW222081   4.446   3.752   0.023 -2.5121  1.1824  1.5896
 1647SOL     OW22082   4.677   3.942   1.504  0.0606  0.4253 -0.2462
 1647SOL    HW122083   4.635   3.985   1.430 -1.3367  1.4255  1.0838
 1647SOL    HW222084   4.635   3.978   1.582  1.4503 -0.6098  1.0750
 1648SOL     OW22085   3.326   5.576   2.000 -0.0241 -0.2756 -0.1326
 1648SOL    HW122086   3.420   5.560   1.998  0.2954  0.6474  2.9669
 1648SOL    HW222087   3.288   5.493   2.028  0.1356 -0.0063  0.9262
 1649SOL     OW22088   5.550   1.702   0.528 -0.0155  0.0330 -0.6646
 1649SOL    HW122089   5.522   1.620   0.569  0.6681  0.5500  0.9116
 1649SOL    HW222090   5.638   1.683   0.494  0.2334  0.1574 -0.1041
 1650SOL     OW22091   1.047   4.169   1.322  0.1533  0.2869 -0.0463
 1650SOL    HW122092   1.138   4.140   1.318 -0.0847 -0.4739 -0.1541
 1650SOL    HW222093   1.050   4.251   1.372  0.8898  0.2605 -0.0362
 1651SOL     OW22094   1.943   4.012   6.358 -0.1429  0.1562  0.0246
 1651SOL    HW122095   2.005   3.963   6.412 -2.3741 -1.5648  1.1836
 1651SOL    HW222096   1.863   3.960   6.360 -1.4734  1.9592 -1.9187
 1652SOL     OW22097   6.338   6.535   6.862 -0.6403  0.1808 -0.1879
 1652SOL    HW122098   6.337   6.462   6.800  0.9850 -1.5845  1.7261
 1652SOL    HW222099   6.247   6.564   6.867 -1.6853 -2.8759  0.2359
 1653SOL     OW22100   0.012   3.742   7.287  0.1225 -0.5544 -0.3685
 1653SOL    HW122101  -0.044   3.816   7.261  0.7234 -0.1531 -0.5320
 1653SOL    HW222102   0.029   3.695   7.206  0.2743 -0.4962 -0.3714
 1654SOL     OW22103   2.166   5.652   5.228 -0.2758 -0.3049  0.6464
 1654SOL    HW122104   2.091   5.700   5.194 -0.5739 -1.3003 -0.1735
 1654SOL    HW222105   2.128   5.574   5.269  0.3243 -1.3053 -0.6172
 1655SOL     OW22106   0.201   2.831   6.775 -0.1695  0.1819  0.8646
 1655SOL    HW122107   0.220   2.760   6.714  0.9497  1.1940 -0.0345
 1655SOL    HW222108   0.202   2.791   6.861 -0.2458 -1.0048  0.3295
 1656SOL     OW22109   4.752   2.060   0.027 -0.3831  0.7299 -0.0405
 1656SOL    HW122110   4.691   2.040  -0.044  0.0083 -1.1095  0.0920
 1656SOL    HW222111   4.838   2.057  -0.014 -0.2123  0.6240  0.3243
 1657SOL     OW22112   6.515   0.147   0.254 -0.0794  0.3354  0.1584
 1657SOL    HW122113   6.483   0.237   0.265  0.3765  0.7946 -1.8311
 1657SOL    HW222114   6.609   0.153   0.270 -0.2797 -0.1373  1.6306
 1658SOL     OW22115   2.965   5.620   7.346 -0.1116  0.3598 -0.1479
 1658SOL    HW122116   2.958   5.598   7.439 -2.0550  0.6117 -0.1884
 1658SOL    HW222117   2.993   5.711   7.345  0.4722  0.1925  0.1655
 1659SOL     OW22118   3.339   3.695   2.076  0.6727 -0.0034 -0.1921
 1659SOL    HW122119   3.380   3.613   2.047 -0.8422 -0.6755 -0.5633
 1659SOL    HW222120   3.406   3.762   2.063  0.6929 -0.5245 -3.7055
 1660SOL     OW22121   1.551   0.201   6.725 -0.0572 -0.1024 -0.5539
 1660SOL    HW122122   1.477   0.228   6.671 -1.1390 -1.9270 -0.0638
 1660SOL    HW222123   1.584   0.121   6.683  0.3882 -0.4032  0.3264
 1661SOL     OW22124   6.286   3.343   1.624 -0.4423 -0.1517 -0.3367
 1661SOL    HW122125   6.254   3.407   1.561 -0.6588 -0.2835 -0.3616
 1661SOL    HW222126   6.376   3.325   1.596 -0.4658 -0.0491 -0.4786
 1662SOL     OW22127   3.404   4.431   0.316  0.7072  0.1117 -0.0023
 1662SOL    HW122128   3.476   4.393   0.367  0.5266  1.1541  1.0711
 1662SOL    HW222129   3.327   4.422   0.372 -0.7545 -3.6210 -2.2145
 1663SOL     OW22130   3.634   2.011   6.098 -0.0044 -0.4415 -0.2605
 1663SOL    HW122131   3.540   2.004   6.083 -0.2023 -0.4540  0.9239
 1663SOL    HW222132   3.642   2.063   6.177  0.9005 -2.1308  0.8325
 1664SOL     OW22133   1.126   3.545   1.137  0.8326 -0.8802  0.4070
 1664SOL    HW122134   1.035   3.573   1.140  1.1245  0.4248 -1.3212
 1664SOL    HW222135   1.122   3.452   1.116 -0.1543 -0.2642 -2.6703
 1665SOL     OW22136   6.565   1.501   1.529 -0.5108 -0.3734 -0.3224
 1665SOL    HW122137   6.572   1.424   1.585  0.1368 -0.5288 -0.6051
 1665SOL    HW222138   6.581   1.575   1.587 -0.5732 -0.4916 -0.1552
 1666SOL     OW22139   0.650   3.219   5.976  0.2453 -0.0182  0.1656
 1666SOL    HW122140   0.628   3.172   5.896  0.8683 -0.2804  0.1456
 1666SOL    HW222141   0.679   3.152   6.037  1.1396  0.3196  0.1384
 1667SOL     OW22142   2.707   1.167   5.943  0.1760 -0.0169  0.5329
 1667SOL    HW122143   2.628   1.154   5.995 -0.3935 -2.2208 -0.7427
 1667SOL    HW222144   2.691   1.118   5.863  2.3704  0.4798 -0.2706
 1668SOL     OW22145   6.408   5.131   1.484  0.2882 -0.0290 -0.1780
 1668SOL    HW122146   6.427   5.068   1.553  0.2416  0.2853  0.1275
 1668SOL    HW222147   6.462   5.207   1.505 -1.8818  1.2270  1.2046
 1669SOL     OW22148   5.652   4.683   0.349 -0.0014 -0.4175  0.1071
 1669SOL    HW122149   5.580   4.697   0.411  0.9435  0.1593  1.1033
 1669SOL    HW222150   5.708   4.760   0.360  0.7352 -0.8261 -0.7053
 1670SOL     OW22151   6.109   0.036   1.975  0.3229  0.3736  0.2689
 1670SOL    HW122152   6.125   0.060   1.884  1.3424 -0.3883  0.2297
 1670SOL    HW222153   6.197   0.030   2.013 -0.0606 -0.1313  1.0874
 1671SOL     OW22154   3.635   1.642   0.335 -0.1082 -0.6532 -0.3805
 1671SOL    HW122155   3.605   1.630   0.424 -0.5394 -1.1535 -0.5920
 1671SOL    HW222156   3.629   1.555   0.295 -0.9621 -0.2318 -1.2108
 1672SOL     OW22157   1.927   4.796   1.615 -0.7512  0.2343  0.2245
 1672SOL    HW122158   1.895   4.719   1.567  0.2736 -1.0747  1.5452
 1672SOL    HW222159   2.012   4.814   1.576 -0.6090  0.1477  0.4933
 1673SOL     OW22160   4.648   1.698   1.695  0.3162  0.0675  0.5880
 1673SOL    HW122161   4.660   1.695   1.790  2.0207 -1.5720  0.3705
 1673SOL    HW222162   4.585   1.629   1.676 -0.3972  0.7101  0.5346
 1674SOL     OW22163   4.413   0.383   5.886  0.6108 -0.2082 -0.3769
 1674SOL    HW122164   4.412   0.393   5.791  2.3831 -0.6638 -0.4881
 1674SOL    HW222165   4.322   0.392   5.912 -0.3448 -2.7877 -2.4078
 1675SOL     OW22166   2.877   4.274   5.470 -0.1408 -0.1314  0.2378
 1675SOL    HW122167   2.800   4.329   5.457  0.9034  1.2202 -0.4373
 1675SOL    HW222168   2.910   4.258   5.381  0.9570  0.2115  0.5643
 1676SOL     OW22169   1.719   1.232   7.335 -0.6801  0.0993  0.3484
 1676SOL    HW122170   1.779   1.234   7.409 -0.1979 -0.2351 -0.0230
 1676SOL    HW222171   1.771   1.197   7.263 -0.6802  1.8514 -0.5642
 1677SOL     OW22172   2.053   4.096   7.185 -0.3080 -0.9159  0.1874
 1677SOL    HW122173   2.114   4.073   7.116 -0.7404 -1.1709 -0.1122
 1677SOL    HW222174   1.989   4.154   7.143  0.2776  0.1603  0.7248
 1678SOL     OW22175   0.515   3.601   6.096  0.6840  0.1118  0.3649
 1678SOL    HW122176   0.442   3.540   6.105  1.3126 -0.4087  2.2639
 1678SOL    HW222177   0.474   3.683   6.068 -0.2965 -0.8393 -1.1430
 1679SOL     OW22178   0.178   4.887   7.376 -0.3226 -0.9885  0.2162
 1679SOL    HW122179   0.112   4.954   7.395 -0.2717 -1.0334  0.5532
 1679SOL    HW222180   0.261   4.934   7.379 -0.4521 -0.4183 -2.4703
 1680SOL     OW22181   5.181   1.244   2.142 -0.0949  0.2066 -0.0609
 1680SOL    HW122182   5.091   1.232   2.112 -0.6092  0.3143  1.3489
 1680SOL    HW222183   5.180   1.330   2.186  1.5417  1.8819 -2.9716
 1681SOL     OW22184   0.655   6.166   7.296 -0.1337 -0.4531  0.3506
 1681SOL    HW122185   0.666   6.236   7.233 -0.3041 -0.8793 -0.1574
 1681SOL    HW222186   0.705   6.194   7.373  0.7436 -0.3077 -0.2665
 1682SOL     OW22187   2.338   1.286   5.584  0.3546 -0.8647 -0.2790
 1682SOL    HW122188   2.367   1.371   5.618 -1.2321 -0.9070  1.3632
 1682SOL    HW222189   2.289   1.307   5.505 -0.3148 -0.1909  0.2999
 1683SOL     OW22190   1.961   5.695   0.373 -0.6359 -0.1954 -0.0188
 1683SOL    HW122191   1.917   5.720   0.455 -0.3213  1.3690 -0.2982
 1683SOL    HW222192   2.054   5.689   0.396 -0.5900 -0.1212 -0.1833
 1684SOL     OW22193   2.406   2.145   5.580  0.1454 -0.0564  0.4684
 1684SOL    HW122194   2.332   2.197   5.551  0.1163  0.1064  0.8339
 1684SOL    HW222195   2.378   2.054   5.568  0.4367  0.0100 -0.7767
 1685SOL     OW22196   3.165   5.022   4.335 -0.4428 -0.2993 -0.1782
 1685SOL    HW122197   3.084   5.073   4.338  0.9508  2.0165  0.7273
 1685SOL    HW222198   3.159   4.961   4.408 -0.8600  0.7247  0.6567
 1686SOL     OW22199   1.797   6.312   1.208  0.2074 -0.1108  0.1649
 1686SOL    HW122200   1.859   6.291   1.138  0.4444  1.2282 -0.0608
 1686SOL    HW222201   1.852   6.343   1.280 -0.2029  2.1410 -0.4194
 1687SOL     OW22202   0.317   1.528   6.859  0.3678  0.3534  0.2019
 1687SOL    HW122203   0.350   1.549   6.946 -1.0282  1.0520  0.5877
 1687SOL    HW222204   0.302   1.613   6.818 -0.6473  0.0611 -0.0603
 1688SOL     OW22205   1.267   6.203   1.692 -0.5045 -0.5954 -0.2411
 1688SOL    HW122206   1.310   6.161   1.618 -0.3489 -0.9843  0.0655
 1688SOL    HW222207   1.324   6.185   1.767 -1.6551 -1.9070  0.3590
 1689SOL     OW22208   4.138   1.903   6.558  0.3328  0.2372  0.3234
 1689SOL    HW122209   4.140   1.930   6.467 -0.8630 -0.4797  0.0655
 1689SOL    HW222210   4.071   1.958   6.598 -1.5049 -1.6311 -0.0122
 1690SOL     OW22211   0.798   1.571   1.151 -0.2259  0.7249 -0.2727
 1690SOL    HW122212   0.788   1.492   1.098 -1.4904  0.4521  0.3385
 1690SOL    HW222213   0.801   1.539   1.242 -0.4958  1.3592 -0.0310
 1691SOL     OW22214   5.543   5.018   7.161  0.5473  0.6408  0.2293
 1691SOL    HW122215   5.541   4.941   7.218 -0.6362 -0.9618 -1.8191
 1691SOL    HW222216   5.583   5.086   7.214 -0.9384 -0.5701  3.1485
 1692SOL     OW22217   4.352   6.025   6.935  0.4226  0.3102  0.7588
 1692SOL    HW122218   4.334   6.083   7.009  1.7554  0.7568  0.7649
 1692SOL    HW222219   4.325   5.938   6.965 -0.1771  0.6778  1.3068
 1693SOL     OW22220   0.926   6.593   5.989  0.3680 -0.1062  0.6481
 1693SOL    HW122221   0.998   6.655   5.978  0.0024  0.2834  0.3582
 1693SOL    HW222222   0.899   6.602   6.080  1.4880 -1.1679  1.1038
 1694SOL     OW22223   3.106   1.462   0.973  0.5249 -0.0799 -0.2226
 1694SOL    HW122224   3.017   1.430   0.956 -0.3063  1.5705  0.7187
 1694SOL    HW222225   3.147   1.466   0.887 -0.4693 -0.4590 -0.7283
 1695SOL     OW22226   4.159   4.859   6.022  0.1563  0.5270  0.2176
 1695SOL    HW122227   4.105   4.924   6.067 -0.2276 -0.0902  0.6601
 1695SOL    HW222228   4.118   4.848   5.936  0.3132  0.9779  0.0836
 1696SOL     OW22229   2.450   2.999   6.795  0.0591  0.6014 -0.0919
 1696SOL    HW122230   2.414   2.926   6.744  0.5164  0.5010 -0.2789
 1696SOL    HW222231   2.381   3.065   6.795 -0.3658  0.1584  0.0940
 1697SOL     OW22232   0.449   5.471   0.302 -0.1535  0.2975 -0.3092
 1697SOL    HW122233   0.475   5.557   0.268  0.4927  0.2680  0.0940
 1697SOL    HW222234   0.355   5.481   0.322 -0.4774  0.4033 -1.7708
 1698SOL     OW22235   4.381   1.511   1.568 -0.3454  1.0800  0.0353
 1698SOL    HW122236   4.423   1.425   1.572  0.6085  1.5452  0.4548
 1698SOL    HW222237   4.335   1.511   1.484 -0.4006  0.1504  0.0488
 1699SOL     OW22238   1.404   2.217   0.700 -0.1985  0.1045 -0.5875
 1699SOL    HW122239   1.377   2.300   0.739 -2.3235 -0.8447  0.0982
 1699SOL    HW222240   1.421   2.160   0.774  0.3169 -0.3692 -1.0604
 1700SOL     OW22241   4.035   4.468   0.484 -0.3288  0.5556 -1.0461
 1700SOL    HW122242   4.018   4.550   0.437  0.1139  1.9361  1.0982
 1700SOL    HW222243   4.096   4.420   0.428  1.6694  2.9710 -1.0533
 1701SOL     OW22244   3.461   1.471   0.912 -0.1180 -0.3240 -0.0338
 1701SOL    HW122245   3.396   1.471   0.842  1.6943 -1.7231 -1.8265
 1701SOL    HW222246   3.513   1.392   0.897  2.9550  1.4656  0.3749
 1702SOL     OW22247   3.716   1.547   1.062 -0.6136 -0.5566 -0.1241
 1702SOL    HW122248   3.740   1.633   1.027 -0.6662 -0.8423 -0.8757
 1702SOL    HW222249   3.622   1.541   1.046 -0.6306 -0.7092  0.0354
 1703SOL     OW22250   6.598   0.610   1.521 -0.1132 -0.0375 -0.6130
 1703SOL    HW122251   6.670   0.546   1.522 -0.3086 -0.3550 -2.6385
 1703SOL    HW222252   6.633   0.687   1.564  1.4790 -0.1926 -1.5586
 1704SOL     OW22253   4.019   4.182   1.860  0.1749 -0.4590 -0.2008
 1704SOL    HW122254   4.011   4.252   1.925  0.4429  0.4537 -1.1187
 1704SOL    HW222255   3.976   4.217   1.782 -0.5774 -1.7314 -0.3776
 1705SOL     OW22256   5.692   2.972   0.955  1.0085 -0.3161  0.4056
 1705SOL    HW122257   5.668   3.029   0.881  3.5154  1.7172  1.0244
 1705SOL    HW222258   5.623   2.987   1.019  0.9695  1.1381  0.0687
 1706SOL     OW22259   4.901   2.301   1.528  0.5269 -0.0998 -0.4452
 1706SOL    HW122260   4.949   2.244   1.469  1.0392 -1.1248  0.9141
 1706SOL    HW222261   4.837   2.345   1.472  0.8865 -1.1436 -1.7202
 1707SOL     OW22262   0.158   5.816   5.783 -0.4496  0.2888  0.0338
 1707SOL    HW122263   0.239   5.772   5.759 -0.5981 -0.5283  0.9778
 1707SOL    HW222264   0.181   5.909   5.788  0.9410 -0.1126  2.2327
 1708SOL     OW22265   3.338   4.717   0.263  0.1697 -0.6212 -0.1993
 1708SOL    HW122266   3.326   4.622   0.268 -0.8527 -0.4776  0.3054
 1708SOL    HW222267   3.251   4.753   0.280  0.8180  0.4356  1.0522
 1709SOL     OW22268   4.826   4.122   0.741 -0.3582  0.1425 -0.4515
 1709SOL    HW122269   4.733   4.136   0.753 -0.1445 -0.2346  2.2751
 1709SOL    HW222270   4.841   4.031   0.770  0.8776  0.2442 -0.6864
 1710SOL     OW22271   6.111   1.227   6.351  0.1787 -0.2306 -0.3577
 1710SOL    HW122272   6.183   1.290   6.339 -0.5160  0.5978 -0.2789
 1710SOL    HW222273   6.053   1.243   6.276 -1.1255  0.7811  0.8124
 1711SOL     OW22274   3.576   3.925   6.606 -0.0039 -0.1966  0.1282
 1711SOL    HW122275   3.578   3.832   6.583  0.1984  0.1564 -1.3965
 1711SOL    HW222276   3.614   3.969   6.530 -2.2841  1.3216 -0.2136
 1712SOL     OW22277   2.051   3.159   5.053 -0.2683 -0.0877  0.1656
 1712SOL    HW122278   2.025   3.180   5.142 -0.9443  0.9122 -0.2604
 1712SOL    HW222279   1.993   3.210   4.997  0.1701 -0.6661 -0.8553
 1713SOL     OW22280   5.844   3.643   1.822 -0.4754 -0.5062 -0.2889
 1713SOL    HW122281   5.785   3.621   1.893 -0.6087  1.0094  0.1163
 1713SOL    HW222282   5.789   3.642   1.744 -0.6959 -0.6071 -0.1332
 1714SOL     OW22283   2.429   5.705   6.507 -0.2812 -0.0978  0.3310
 1714SOL    HW122284   2.397   5.737   6.591 -2.2864 -0.4954 -0.2151
 1714SOL    HW222285   2.449   5.613   6.522 -1.2257 -0.3282  0.2598
 1715SOL     OW22286   5.617   2.959   0.634  0.1152  0.1183  0.2479
 1715SOL    HW122287   5.579   2.870   0.636  0.9582 -0.2433  1.9119
 1715SOL    HW222288   5.541   3.017   0.646 -0.3679 -0.4088 -0.1985
 1716SOL     OW22289   3.291   3.091   0.435 -0.5023  0.5376  0.0144
 1716SOL    HW122290   3.198   3.087   0.411 -0.6026 -1.2718  0.5528
 1716SOL    HW222291   3.296   3.046   0.519  0.8563  0.6136 -0.0091
 1717SOL     OW22292   2.710   4.615   7.100 -0.0230 -0.3902 -0.0208
 1717SOL    HW122293   2.620   4.588   7.115  0.4662 -1.3466  1.3713
 1717SOL    HW222294   2.718   4.620   7.004 -1.8407  0.8306 -0.1548
 1718SOL     OW22295   3.116   0.414   5.736 -0.6578 -0.2405 -0.2802
 1718SOL    HW122296   3.106   0.435   5.643  1.6012  1.9381 -0.1307
 1718SOL    HW222297   3.150   0.494   5.775  1.8513 -2.1308  1.7509
 1719SOL     OW22298   0.090   1.476   0.303  0.2672  0.2450 -0.2960
 1719SOL    HW122299   0.068   1.443   0.390  0.7726  1.2401  0.2294
 1719SOL    HW222300   0.162   1.419   0.273  0.6453  0.4053  0.2938
 1720SOL     OW22301   6.028   4.699   7.422 -0.0678  0.3899 -0.0189
 1720SOL    HW122302   5.964   4.652   7.475  0.1787 -0.7988 -0.7432
 1720SOL    HW222303   6.107   4.702   7.476  0.6449 -2.0730 -0.7772
 1721SOL     OW22304   3.291   3.798   1.064  0.2095  0.0305 -0.5268
 1721SOL    HW122305   3.312   3.831   0.977 -0.1496 -1.3536 -1.1769
 1721SOL    HW222306   3.198   3.772   1.058  0.2828 -0.4098  0.1492
 1722SOL     OW22307   2.865   6.052   5.220 -0.1698 -0.4315  0.6515
 1722SOL    HW122308   2.915   5.976   5.191  2.5168  0.0301  3.5829
 1722SOL    HW222309   2.902   6.125   5.170 -0.1295 -0.5087  0.5663
 1723SOL     OW22310   3.838   0.502   5.530 -0.0085 -0.2067 -0.0850
 1723SOL    HW122311   3.871   0.420   5.492 -0.4691 -0.2521 -0.3961
 1723SOL    HW222312   3.810   0.554   5.454 -0.7293 -0.2062  0.1790
 1724SOL     OW22313   0.557   5.037   6.477 -0.5186 -0.0915  0.0938
 1724SOL    HW122314   0.472   5.022   6.434 -0.6333  1.2422 -0.1857
 1724SOL    HW222315   0.622   5.011   6.411 -0.7034 -0.8041  0.1863
 1725SOL     OW22316   5.157   4.989   0.676 -0.4818  0.3367 -0.3333
 1725SOL    HW122317   5.244   5.012   0.709 -0.8312  0.8922  0.2114
 1725SOL    HW222318   5.141   5.052   0.605 -0.5334  0.3742 -0.2879
 1726SOL     OW22319   4.598   0.857   6.083  0.0525 -1.0004 -0.3825
 1726SOL    HW122320   4.596   0.786   6.148 -0.4510 -0.4089  0.2694
 1726SOL    HW222321   4.509   0.891   6.082  0.4348  0.0621 -0.1760
 1727SOL     OW22322   4.294   6.414   6.642 -0.5868  0.2364  0.4283
 1727SOL    HW122323   4.352   6.340   6.659  0.4748  1.1424  0.8867
 1727SOL    HW222324   4.348   6.474   6.590 -1.0751  1.1498  0.9569
 1728SOL     OW22325   0.388   5.076   1.341  0.2014  0.7269  0.2328
 1728SOL    HW122326   0.381   5.124   1.258 -0.8483 -0.3093 -0.3062
 1728SOL    HW222327   0.332   5.125   1.402 -0.0192  0.7819 -0.0136
 1729SOL     OW22328   6.378   0.186   0.680 -0.1274 -0.2729  0.5110
 1729SOL    HW122329   6.321   0.148   0.746 -2.7206 -0.4780 -1.6738
 1729SOL    HW222330   6.380   0.279   0.702 -0.7748 -0.3727  1.0391
 1730SOL     OW22331   6.206   6.070   7.085  0.3993  0.4579 -0.0957
 1730SOL    HW122332   6.169   6.133   7.022 -0.3410 -1.6345 -1.8618
 1730SOL    HW222333   6.134   6.048   7.143  0.5418  0.8524  0.2422
 1731SOL     OW22334   6.567   3.260   1.539 -0.0845 -0.5328  0.6778
 1731SOL    HW122335   6.617   3.317   1.597  1.2075 -1.0687  0.1294
 1731SOL    HW222336   6.547   3.183   1.593  0.3196 -0.6290  0.6943
 1732SOL     OW22337   0.591   0.291   7.283  0.7721  0.4234 -0.0738
 1732SOL    HW122338   0.684   0.297   7.303  0.9211 -2.0945  0.3120
 1732SOL    HW222339   0.565   0.380   7.262  3.2294  1.2097 -0.0522
 1733SOL     OW22340   5.609   3.250   6.489  0.7451  0.3600 -0.0417
 1733SOL    HW122341   5.600   3.156   6.477 -1.0006  0.4850  0.1352
 1733SOL    HW222342   5.626   3.261   6.582 -1.1192  0.3267  0.3248
 1734SOL     OW22343   6.198   2.437   5.538  0.2291  0.0013 -0.4993
 1734SOL    HW122344   6.290   2.461   5.548  0.6193 -0.9074 -1.7607
 1734SOL    HW222345   6.191   2.350   5.578 -0.4673  0.7274  1.0691
 1735SOL     OW22346   5.149   3.294   1.121 -0.1837  0.0689  0.2303
 1735SOL    HW122347   5.194   3.270   1.202 -0.4024  1.6658  0.8428
 1735SOL    HW222348   5.079   3.229   1.114 -0.1146 -0.1388  1.2664
 1736SOL     OW22349   3.365   5.060   0.874 -0.1126 -0.2823 -0.5626
 1736SOL    HW122350   3.373   5.156   0.871  0.3721 -0.0863  2.7537
 1736SOL    HW222351   3.272   5.044   0.864 -0.3947  0.6835  0.3123
 1737SOL     OW22352   4.802   1.658   0.213 -0.5482  0.2600  0.1376
 1737SOL    HW122353   4.785   1.572   0.251 -1.4164 -0.1598 -1.1479
 1737SOL    HW222354   4.898   1.666   0.215 -0.4623 -0.6880  0.3675
 1738SOL     OW22355   6.143   2.233   1.857 -0.3358  0.0248 -0.3566
 1738SOL    HW122356   6.223   2.244   1.909 -0.2824 -0.0415 -0.4265
 1738SOL    HW222357   6.074   2.222   1.922 -0.6574  2.4080 -0.1880
 1739SOL     OW22358   1.227   0.169   0.061 -0.0565 -0.1547  0.2704
 1739SOL    HW122359   1.229   0.125   0.146  0.6236 -1.1115 -0.2309
 1739SOL    HW222360   1.308   0.143   0.018  0.3875  1.6068 -0.0466
 1740SOL     OW22361   1.737   6.262   0.205 -1.1799  0.4751  0.3597
 1740SOL    HW122362   1.744   6.232   0.114  3.2117 -2.4050  1.3147
 1740SOL    HW222363   1.681   6.196   0.247  0.5498 -0.9812  0.5159
 1741SOL     OW22364   1.041   0.399   1.142 -0.1667  0.1435  0.3361
 1741SOL    HW122365   1.059   0.405   1.049 -0.6532  0.7547  0.2729
 1741SOL    HW222366   1.121   0.429   1.185 -0.8899  2.7643  0.0682
 1742SOL     OW22367   6.066   3.231   1.707  0.5038  0.1639  0.2373
 1742SOL    HW122368   6.138   3.285   1.677 -0.2660  1.2821  0.3241
 1742SOL    HW222369   6.107   3.159   1.754  1.5919  0.0973 -0.7890
 1743SOL     OW22370   0.847   5.194   1.510  0.1519 -0.6254 -0.2514
 1743SOL    HW122371   0.872   5.220   1.421  0.6189 -0.9918 -0.2300
 1743SOL    HW222372   0.871   5.269   1.565 -0.0483 -0.4370 -0.4183
 1744SOL     OW22373   1.550   0.472   0.855  0.3013  0.4283 -0.0016
 1744SOL    HW122374   1.519   0.382   0.842  0.5573  0.2993  0.2786
 1744SOL    HW222375   1.643   0.463   0.876  0.1372  0.6986  0.8782
 1745SOL     OW22376   6.209   3.310   7.284 -0.0400  0.1850  0.4592
 1745SOL    HW122377   6.119   3.294   7.257  0.0885 -0.6468  0.4942
 1745SOL    HW222378   6.226   3.401   7.261 -0.6711  0.1487 -0.1552
 1746SOL     OW22379   1.466   1.101   7.113 -0.3748  0.1461 -0.2535
 1746SOL    HW122380   1.521   1.176   7.089  0.0219 -0.4386 -1.2287
 1746SOL    HW222381   1.402   1.137   7.174  0.6723  0.9815  0.3975
 1747SOL     OW22382   0.871   4.072   7.471  0.8770  0.6536 -0.0843
 1747SOL    HW122383   0.922   4.036   7.543  0.6640  1.1872  0.3403
 1747SOL    HW222384   0.810   4.134   7.512 -0.4428 -0.3065 -0.5092
 1748SOL     OW22385   2.830   0.010   0.462  0.3043  0.4892 -0.6515
 1748SOL    HW122386   2.896   0.004   0.531 -0.5538  0.8849  0.2364
 1748SOL    HW222387   2.781  -0.072   0.468 -1.1164  1.3551  0.6794
 1749SOL     OW22388   4.786   3.266   5.779  0.0427  0.1426  0.5442
 1749SOL    HW122389   4.863   3.231   5.734  0.3406 -3.7314  3.5544
 1749SOL    HW222390   4.810   3.356   5.801  2.8265 -0.2666 -0.4362
 1750SOL     OW22391   5.765   5.941   6.419  0.5921  0.1523  0.3512
 1750SOL    HW122392   5.694   5.899   6.370 -0.8018  1.3591  1.2660
 1750SOL    HW222393   5.769   6.030   6.384  1.6002  0.1217  0.3740
 1751SOL     OW22394   3.262   0.591   0.956 -0.1231  0.2238 -0.4179
 1751SOL    HW122395   3.238   0.621   0.868 -1.5926  0.0853 -0.0894
 1751SOL    HW222396   3.236   0.499   0.957 -0.3523  0.2935  0.2544
 1752SOL     OW22397   6.376   1.011   6.999 -0.1057  0.2331  0.6368
 1752SOL    HW122398   6.429   1.088   7.017  0.1529 -0.2700  2.1577
 1752SOL    HW222399   6.436   0.950   6.955 -0.1434  0.6349  0.0126
 1753SOL     OW22400   0.458   2.856   1.003  0.3309  0.1055  0.2387
 1753SOL    HW122401   0.510   2.792   0.955  0.0376 -0.2301  0.3630
 1753SOL    HW222402   0.480   2.940   0.963  1.0138 -0.0243  0.3368
 1754SOL     OW22403   6.517   5.491   1.649  0.2745 -0.5759 -0.0589
 1754SOL    HW122404   6.530   5.436   1.727 -0.7055 -0.3282  0.3007
 1754SOL    HW222405   6.495   5.577   1.684 -1.4844 -0.7744 -0.5632
 1755SOL     OW22406   3.357   3.261   1.263 -0.0478 -0.5075 -0.0783
 1755SOL    HW122407   3.401   3.259   1.348 -0.0106  2.8331  0.0978
 1755SOL    HW222408   3.429   3.265   1.200 -0.0621  0.1679 -0.0596
 1756SOL     OW22409   4.254   2.358   6.165 -0.1243 -0.1198  0.4280
 1756SOL    HW122410   4.299   2.369   6.081 -0.3798 -1.0468  0.1568
 1756SOL    HW222411   4.161   2.357   6.143 -0.1566 -1.6803  0.5351
 1757SOL     OW22412   4.522   3.456   1.358 -0.4172  0.1255 -0.5308
 1757SOL    HW122413   4.468   3.412   1.424  0.3894 -0.7212 -0.4219
 1757SOL    HW222414   4.477   3.441   1.275  0.0876 -1.3161 -0.5567
 1758SOL     OW22415   0.420   6.502   6.943  0.5460  0.3986  0.2919
 1758SOL    HW122416   0.372   6.539   6.869 -1.1103 -0.2815  0.9784
 1758SOL    HW222417   0.415   6.569   7.011 -1.5569 -0.5506  1.1743
 1759SOL     OW22418   5.559   1.437   2.051 -0.6350 -0.5770 -0.3487
 1759SOL    HW122419   5.520   1.524   2.050  0.2527 -0.1749 -1.1134
 1759SOL    HW222420   5.487   1.377   2.034 -1.3915 -0.0638  0.8960
 1760SOL     OW22421   1.034   4.578   7.471  0.0123  0.3258  0.3617
 1760SOL    HW122422   1.060   4.608   7.384  0.3026 -0.8792  0.0083
 1760SOL    HW222423   0.987   4.496   7.455  0.5161 -0.1768  1.3664
 1761SOL     OW22424   2.153   4.913   6.819 -0.3634  0.1853 -0.0135
 1761SOL    HW122425   2.243   4.924   6.788 -0.2423 -0.4156  0.1270
 1761SOL    HW222426   2.136   4.993   6.869 -0.4267  1.0049 -1.2637
 1762SOL     OW22427   2.773   1.944   6.499  0.2600  0.1128  0.1956
 1762SOL    HW122428   2.772   1.932   6.404  0.7257 -0.6238  0.2691
 1762SOL    HW222429   2.689   1.983   6.520 -0.0038 -0.0793 -0.4802
 1763SOL     OW22430   5.741   3.567   0.315 -0.0374  0.9022 -0.0103
 1763SOL    HW122431   5.795   3.520   0.378  1.2825  1.8992 -0.3190
 1763SOL    HW222432   5.660   3.517   0.309  0.2522  0.1764  1.6209
 1764SOL     OW22433   2.321   5.021   0.491  0.3825  0.2727  0.2681
 1764SOL    HW122434   2.259   5.070   0.545 -2.6986  0.4655 -3.0367
 1764SOL    HW222435   2.291   4.931   0.496 -0.1610  0.3342 -1.2001
 1765SOL     OW22436   0.895   0.598   2.268  0.1764 -0.2181 -0.1912
 1765SOL    HW122437   0.924   0.514   2.232 -0.8834 -0.4619 -0.5070
 1765SOL    HW222438   0.974   0.635   2.307  0.5526 -1.6069  0.4486
 1766SOL     OW22439   2.962   6.186   1.098  0.3123 -0.6023  0.4765
 1766SOL    HW122440   2.989   6.101   1.134 -0.6629 -1.3113 -0.4369
 1766SOL    HW222441   2.875   6.201   1.135 -1.0548 -1.7012 -2.0259
 1767SOL     OW22442   5.193   1.306   0.744  0.0650  0.3814 -0.3162
 1767SOL    HW122443   5.166   1.318   0.653 -0.3508  0.7521 -0.1427
 1767SOL    HW222444   5.180   1.213   0.760  0.7460  0.1855 -0.8282
 1768SOL     OW22445   4.648   4.619   1.805  0.3438  0.0536 -0.1801
 1768SOL    HW122446   4.689   4.680   1.743  1.2844  0.3088  0.6879
 1768SOL    HW222447   4.573   4.667   1.839  0.2282  0.1710 -0.5906
 1769SOL     OW22448   0.358   3.069   0.551  0.2192 -0.4412 -0.1750
 1769SOL    HW122449   0.397   3.155   0.541 -1.7868  0.7641  1.5865
 1769SOL    HW222450   0.288   3.067   0.485 -1.8201  0.6412  1.8417
 1770SOL     OW22451   6.049   0.092   1.710  0.3992  0.3234 -0.0471
 1770SOL    HW122452   5.981   0.142   1.665  0.5583 -0.1701 -0.8510
 1770SOL    HW222453   6.009   0.007   1.728  0.6188  0.2265 -0.0149
 1771SOL     OW22454   3.688   6.081   0.657 -0.1358  0.3355  0.8491
 1771SOL    HW122455   3.631   6.007   0.678  0.7155 -0.1993  1.3489
 1771SOL    HW222456   3.646   6.123   0.582 -0.2595 -1.0765  0.0909
 1772SOL     OW22457   2.671   5.330   0.628  0.4982  0.2866  0.1583
 1772SOL    HW122458   2.637   5.248   0.664 -2.2505  0.5653 -1.4934
 1772SOL    HW222459   2.600   5.362   0.572  1.6217  3.6316  0.4702
 1773SOL     OW22460   2.054   1.385   1.313  0.2422 -0.0239  0.1757
 1773SOL    HW122461   2.070   1.472   1.350 -1.1900  0.5067 -0.4050
 1773SOL    HW222462   1.973   1.356   1.355 -1.1647  0.3868 -2.0826
 1774SOL     OW22463   3.200   0.856   0.944 -0.5871  0.1745 -0.0986
 1774SOL    HW122464   3.123   0.850   0.886  1.5171 -0.1001 -3.0905
 1774SOL    HW222465   3.216   0.766   0.972 -1.2404  0.2143  0.4343
 1775SOL     OW22466   2.260   3.838   0.016 -0.7376  0.3205  0.5545
 1775SOL    HW122467   2.348   3.803   0.027 -0.6770  0.3237  0.1197
 1775SOL    HW222468   2.243   3.831  -0.078 -0.9589  0.8877  0.5440
 1776SOL     OW22469   0.638   4.413   0.346  0.2868 -0.0202  0.3764
 1776SOL    HW122470   0.589   4.357   0.287  0.4100 -2.2152  2.2306
 1776SOL    HW222471   0.575   4.479   0.374 -0.1971  0.1196 -0.9486
 1777SOL     OW22472   1.325   1.164   0.543  0.2416  0.2685 -0.0411
 1777SOL    HW122473   1.356   1.253   0.528  1.1204  0.1105  0.7386
 1777SOL    HW222474   1.295   1.164   0.634 -0.4351 -0.0498 -0.2577
 1778SOL     OW22475   5.929   4.711   6.520 -0.0649  0.2251  0.3108
 1778SOL    HW122476   5.924   4.622   6.484  0.2900  0.5920 -0.6712
 1778SOL    HW222477   5.847   4.722   6.568 -0.6280 -0.2338 -0.5290
 1779SOL     OW22478   2.818   5.663   6.876 -0.3450  0.0347  0.9254
 1779SOL    HW122479   2.766   5.635   6.952 -0.1092  0.8931  1.4080
 1779SOL    HW222480   2.863   5.741   6.905  0.3835 -0.0854  0.1504
 1780SOL     OW22481   1.657   4.951   6.846 -0.0126 -0.0961  0.5486
 1780SOL    HW122482   1.572   4.907   6.848 -0.3324  0.4341 -0.4142
 1780SOL    HW222483   1.637   5.039   6.814  0.9167 -0.0229  0.1274
 1781SOL     OW22484   5.696   5.963   6.119 -0.1676 -0.5071 -0.0721
 1781SOL    HW122485   5.752   6.018   6.174  0.0630  0.2382 -1.0161
 1781SOL    HW222486   5.696   6.007   6.034  0.9847 -2.5924 -1.2336
 1782SOL     OW22487   1.059   3.512   6.838  0.2887 -0.1241 -0.1821
 1782SOL    HW122488   1.065   3.444   6.905 -0.5574 -0.8217 -0.7911
 1782SOL    HW222489   1.150   3.539   6.824  0.3744  1.5478  2.6928
 1783SOL     OW22490   0.675   3.085   0.007 -0.5052 -0.1973 -0.3411
 1783SOL    HW122491   0.664   3.107   0.099  0.5692  1.7553 -0.6387
 1783SOL    HW222492   0.746   3.021   0.005 -0.2744  0.0404  0.1677
 1784SOL     OW22493   5.673   5.872   0.404 -0.6517  0.0065 -0.2093
 1784SOL    HW122494   5.626   5.941   0.451  0.5019 -0.5878  1.9196
 1784SOL    HW222495   5.720   5.824   0.472 -1.3608 -2.8787 -1.6236
 1785SOL     OW22496   3.149   1.850   6.789  0.6402  0.0303 -0.2324
 1785SOL    HW122497   3.129   1.942   6.806  0.9910 -0.0832  0.8893
 1785SOL    HW222498   3.131   1.806   6.873  1.2049 -0.7930 -0.5338
 1786SOL     OW22499   6.187   4.974   5.321 -0.3492 -0.2903 -0.1271
 1786SOL    HW122500   6.276   4.973   5.285 -0.8162 -0.2492 -1.3295
 1786SOL    HW222501   6.196   5.017   5.406  0.9323 -1.1763  0.2079
 1787SOL     OW22502   1.723   4.164   1.203 -0.3415 -0.8509  0.5686
 1787SOL    HW122503   1.746   4.147   1.294 -0.5481 -1.0248  0.5890
 1787SOL    HW222504   1.630   4.144   1.198 -0.1348 -1.7438  0.0994
 1788SOL     OW22505   1.938   3.723   6.897  0.1218 -0.3043 -0.3238
 1788SOL    HW122506   1.949   3.654   6.831  1.0121  0.8279 -1.4131
 1788SOL    HW222507   1.847   3.749   6.889  0.2837 -0.0023 -1.3072
 1789SOL     OW22508   5.582   0.797   0.097  0.5579 -0.1745  0.0402
 1789SOL    HW122509   5.657   0.743   0.073  1.0568  0.5772 -0.1386
 1789SOL    HW222510   5.507   0.753   0.057  1.2000  0.3284 -1.8551
 1790SOL     OW22511   0.688   0.729   2.094  0.5294 -0.2177  0.0847
 1790SOL    HW122512   0.759   0.691   2.146  0.2858 -0.4020  0.2912
 1790SOL    HW222513   0.608   0.691   2.133  0.3278 -0.0976 -0.2118
 1791SOL     OW22514   3.252   5.137   5.196  0.3746 -0.5908 -0.6742
 1791SOL    HW122515   3.299   5.190   5.260 -1.3964 -2.0998  2.0811
 1791SOL    HW222516   3.197   5.200   5.149 -0.0538  0.3162  0.9628
 1792SOL     OW22517   1.950   0.446   1.718  0.1460 -0.0428  0.6875
 1792SOL    HW122518   2.026   0.498   1.691  0.0006  0.4981  1.2954
 1792SOL    HW222519   1.887   0.510   1.750 -1.2841 -0.3309 -1.4046
 1793SOL     OW22520   5.654   6.368   0.878  0.0170  0.0070  0.3239
 1793SOL    HW122521   5.701   6.438   0.922 -0.9686  0.3174  0.9207
 1793SOL    HW222522   5.623   6.406   0.796 -0.6995  0.3388  0.7459
 1794SOL     OW22523   1.117   3.842   1.079 -0.3761  0.2302 -0.5398
 1794SOL    HW122524   1.102   3.751   1.051 -1.0991 -0.3727  1.6129
 1794SOL    HW222525   1.152   3.834   1.168 -0.6736  2.0847 -0.2254
 1795SOL     OW22526   0.865   1.096   7.143 -0.2827  0.6936  0.3663
 1795SOL    HW122527   0.920   1.137   7.210  1.4450  1.5483 -1.4429
 1795SOL    HW222528   0.806   1.040   7.191  0.8766  1.2678  2.5978
 1796SOL     OW22529   3.291   6.573   7.026  0.4424 -0.3468  0.0661
 1796SOL    HW122530   3.274   6.485   7.061  2.1701 -0.5723  0.4085
 1796SOL    HW222531   3.249   6.573   6.940 -0.5513 -1.1029  0.5257
 1797SOL     OW22532   5.959   3.646   1.168 -0.3271 -0.3374 -0.0422
 1797SOL    HW122533   6.045   3.622   1.202 -0.6143 -0.2765  0.7546
 1797SOL    HW222534   5.962   3.623   1.076  0.6297 -0.1034 -0.0760
 1798SOL     OW22535   3.003   5.412   7.170  0.0178  0.0270  0.0181
 1798SOL    HW122536   2.987   5.493   7.218  1.4965  1.5666 -1.9109
 1798SOL    HW222537   3.098   5.405   7.165 -0.0741 -1.8867  0.1584
 1799SOL     OW22538   2.673   2.992   0.375 -0.0483  0.0355  0.3543
 1799SOL    HW122539   2.700   3.054   0.308  3.9567 -0.3376  1.3796
 1799SOL    HW222540   2.606   2.937   0.332 -0.0876  1.8812 -2.1422
 1800SOL     OW22541   1.723   5.035   0.750 -0.3937  0.1224 -0.7503
 1800SOL    HW122542   1.809   5.005   0.720  0.4980  0.8410  0.9717
 1800SOL    HW222543   1.690   5.089   0.678  0.9902  0.5587 -1.0785
 1801SOL     OW22544   4.737   2.829   5.905  0.0927  0.0958  0.2253
 1801SOL    HW122545   4.763   2.867   5.821 -0.2431 -0.0941  0.0359
 1801SOL    HW222546   4.817   2.789   5.939  0.3548  0.6159  0.2412
 1802SOL     OW22547   4.330   2.927   0.521  0.4093  0.1342 -0.1386
 1802SOL    HW122548   4.376   2.864   0.576  0.2973  0.0902 -0.0957
 1802SOL    HW222549   4.393   2.998   0.507  0.2242  0.4475  0.5636
 1803SOL     OW22550   3.455   2.386   1.103 -0.2186 -0.1417  0.4184
 1803SOL    HW122551   3.377   2.389   1.158 -0.9580  2.5570 -0.5979
 1803SOL    HW222552   3.506   2.463   1.128  0.1926  0.2872 -1.5339
 1804SOL     OW22553   0.930   0.932   1.482  0.2605 -0.2906 -0.4368
 1804SOL    HW122554   0.971   0.967   1.561 -0.0558 -1.0712  0.0879
 1804SOL    HW222555   0.999   0.880   1.441  0.4484  0.1778 -0.7199
 1805SOL     OW22556   5.672   5.914   6.833 -0.4642  0.1173 -0.1461
 1805SOL    HW122557   5.617   5.981   6.875  1.6715  0.5144  2.2512
 1805SOL    HW222558   5.709   5.864   6.906  0.9002 -1.3325 -1.7423
 1806SOL     OW22559   0.349   1.895   0.262 -0.4221 -0.1087 -0.7365
 1806SOL    HW122560   0.315   1.866   0.347 -0.2667 -1.7290 -1.1905
 1806SOL    HW222561   0.421   1.954   0.284 -0.4549 -0.4235  0.2669
 1807SOL     OW22562   4.418   3.577   7.200 -0.5057  1.0460  0.3687
 1807SOL    HW122563   4.439   3.503   7.144 -0.6540  1.8062 -0.7345
 1807SOL    HW222564   4.504   3.614   7.224 -0.4257  2.1605 -1.4019
 1808SOL     OW22565   3.010   6.067   4.869  0.2887  0.1217  0.4495
 1808SOL    HW122566   3.001   6.011   4.792  0.7580  0.0401  0.4497
 1808SOL    HW222567   3.093   6.040   4.908 -0.1059 -0.0828  1.1767
 1809SOL     OW22568   5.322   1.395   7.060  0.1938 -0.0684 -0.2956
 1809SOL    HW122569   5.383   1.416   6.990 -0.0045 -1.0090 -0.7811
 1809SOL    HW222570   5.245   1.449   7.042  1.3551  2.1679  1.1190
 1810SOL     OW22571   2.076   2.999   0.807  0.1418 -0.4860 -0.0670
 1810SOL    HW122572   1.987   2.992   0.772  0.4132 -1.7192 -0.5755
 1810SOL    HW222573   2.124   3.050   0.742 -0.7497  2.4282  1.4059
 1811SOL     OW22574   4.107   5.298   1.026 -0.3234 -0.1458  0.7366
 1811SOL    HW122575   4.152   5.356   1.087 -0.6634  0.0334  0.8204
 1811SOL    HW222576   4.016   5.330   1.025 -0.4910 -0.6146  0.7145
 1812SOL     OW22577   5.073   2.209   6.073  0.1987  0.6909  0.1178
 1812SOL    HW122578   5.134   2.154   6.024  0.5771 -0.4717  1.8340
 1812SOL    HW222579   5.127   2.249   6.142 -0.6766  0.8764  0.7063
 1813SOL     OW22580   0.224   1.171   1.678 -0.5443  0.7527  0.3525
 1813SOL    HW122581   0.260   1.257   1.697 -0.6370  0.7656  0.4713
 1813SOL    HW222582   0.139   1.188   1.636 -0.7323  0.7169  0.7153
 1814SOL     OW22583   6.420   1.926   0.028 -0.1228  0.0957 -0.3089
 1814SOL    HW122584   6.500   1.973   0.003  0.3647 -1.5708 -2.2443
 1814SOL    HW222585   6.376   1.983   0.091  3.0369  0.6806  1.5810
 1815SOL     OW22586   6.558   5.068   6.963 -0.4555 -0.1995  0.0945
 1815SOL    HW122587   6.547   5.035   7.052 -0.8948 -0.5480 -0.0856
 1815SOL    HW222588   6.480   5.122   6.947  0.7394  1.8088  0.7584
 1816SOL     OW22589   0.774   1.740   7.132  0.2614  0.3208  0.2273
 1816SOL    HW122590   0.784   1.796   7.055 -0.9625 -0.9497 -0.9005
 1816SOL    HW222591   0.729   1.795   7.196 -2.2584  0.2711 -1.3664
 1817SOL     OW22592   3.023   3.643   1.056  0.7718 -0.3808  0.1652
 1817SOL    HW122593   3.097   3.591   1.086 -0.1062 -0.9605  1.3765
 1817SOL    HW222594   2.947   3.585   1.064  0.1824  0.1495 -1.1995
 1818SOL     OW22595   1.695   0.617   0.612  0.3862  0.0108  0.0737
 1818SOL    HW122596   1.712   0.548   0.547 -0.2512  1.3415 -1.5780
 1818SOL    HW222597   1.782   0.639   0.645  0.9154  0.2434 -1.3695
 1819SOL     OW22598   5.483   3.526   0.514  0.4988 -0.3178  0.2293
 1819SOL    HW122599   5.394   3.528   0.548  0.6687  1.6799  0.6693
 1819SOL    HW222600   5.511   3.617   0.513  1.6982 -0.6132 -2.2076
 1820SOL     OW22601   0.045   3.035   6.782  0.2992 -0.7245 -0.4206
 1820SOL    HW122602   0.100   2.957   6.792  0.1249 -1.0030 -1.5124
 1820SOL    HW222603  -0.031   3.004   6.733 -1.1482 -0.4813  1.5833
 1821SOL     OW22604   3.410   0.607   5.129  0.5095 -0.6276 -0.0147
 1821SOL    HW122605   3.500   0.628   5.153  0.1020  1.6833 -0.3209
 1821SOL    HW222606   3.379   0.683   5.080 -1.8499 -1.0293  0.7022
 1822SOL     OW22607   3.358   2.063   6.092 -0.1022 -0.2332  0.1483
 1822SOL    HW122608   3.301   2.139   6.077 -0.5429 -0.4632  0.6110
 1822SOL    HW222609   3.313   2.013   6.160  1.3132  0.2644  1.4965
 1823SOL     OW22610   6.502   3.101   0.542 -0.2298 -0.4671  0.1497
 1823SOL    HW122611   6.434   3.079   0.478 -0.3376 -1.7024  0.6470
 1823SOL    HW222612   6.456   3.099   0.626  0.2761 -0.6314  0.4254
 1824SOL     OW22613   3.821   3.506   1.042  0.2420  0.0114  0.0767
 1824SOL    HW122614   3.803   3.551   0.960  1.7336  0.5139 -0.0254
 1824SOL    HW222615   3.895   3.448   1.022 -0.0092 -0.5857  0.8274
 1825SOL     OW22616   4.065   3.822   6.277 -0.2854  0.3050  0.3785
 1825SOL    HW122617   4.060   3.915   6.254 -0.8618  0.0560 -0.5362
 1825SOL    HW222618   4.158   3.808   6.298  0.2895  0.5945 -1.7156
 1826SOL     OW22619   3.005   2.600   5.701 -0.8810  0.8854  0.1647
 1826SOL    HW122620   3.065   2.569   5.634 -1.0160  1.0372 -0.0290
 1826SOL    HW222621   2.919   2.570   5.672 -0.7087 -0.8626  1.3380
 1827SOL     OW22622   2.373   0.608   0.950  0.5054  0.3250 -0.7124
 1827SOL    HW122623   2.443   0.643   1.006 -0.0892  0.4389 -0.0276
 1827SOL    HW222624   2.317   0.683   0.931 -0.8762 -0.2289  0.9075
 1828SOL     OW22625   2.922   4.617   6.657  0.9247 -0.2711  0.2828
 1828SOL    HW122626   2.997   4.582   6.705  1.6114 -0.7999 -1.0993
 1828SOL    HW222627   2.951   4.616   6.565  0.3347  2.2845 -0.0180
 1829SOL     OW22628   2.658   5.596   0.686  0.1327  0.4119 -0.0779
 1829SOL    HW122629   2.670   5.501   0.677  0.1393  0.4680 -0.7060
 1829SOL    HW222630   2.627   5.624   0.600  2.3063  1.3118 -0.6376
 1830SOL     OW22631   1.204   3.843   1.348  0.1063  0.6794  0.1210
 1830SOL    HW122632   1.278   3.880   1.397  0.0201 -1.2800  1.8316
 1830SOL    HW222633   1.212   3.749   1.361 -1.8260  0.3305 -0.9796
 1831SOL     OW22634   1.523   3.955   0.088 -0.1062  0.2832  0.5390
 1831SOL    HW122635   1.582   3.922   0.156 -2.2319 -0.9489  1.9369
 1831SOL    HW222636   1.519   3.883   0.024  1.6138  1.2977 -0.7830
 1832SOL     OW22637   6.065   3.909   0.572 -0.0176 -0.5116  0.4012
 1832SOL    HW122638   6.079   3.830   0.520 -2.3182 -0.7713  0.0667
 1832SOL    HW222639   6.052   3.876   0.661  0.0123 -0.4311  0.4350
 1833SOL     OW22640   4.966   4.869   6.894 -0.3055  0.7490 -0.1939
 1833SOL    HW122641   4.991   4.960   6.912 -0.5445  1.0051 -1.0799
 1833SOL    HW222642   5.049   4.824   6.878 -0.1616  0.7281  0.5680
 1834SOL     OW22643   2.163   0.342   1.909  0.2849 -0.7489 -0.2497
 1834SOL    HW122644   2.103   0.342   1.834  1.4386  1.2246 -1.2695
 1834SOL    HW222645   2.249   0.327   1.870  0.8005 -0.5337  0.7793
 1835SOL     OW22646   4.639   3.502   2.242 -0.1283  0.0291  0.0986
 1835SOL    HW122647   4.600   3.589   2.249 -0.1117 -0.0348  1.2195
 1835SOL    HW222648   4.718   3.507   2.297  0.3058 -0.4578 -0.4725
 1836SOL     OW22649   4.223   1.548   1.306 -0.0503  0.0199  0.1137
 1836SOL    HW122650   4.165   1.561   1.231 -0.5980 -4.3580 -0.4513
 1836SOL    HW222651   4.303   1.513   1.268 -0.6660 -3.1915  1.5016
 1837SOL     OW22652   3.334   5.711   0.441  0.2933  0.4457  0.4891
 1837SOL    HW122653   3.253   5.667   0.468  0.3287  0.0937  0.0304
 1837SOL    HW222654   3.397   5.689   0.509  1.0116 -2.2864 -0.9462
 1838SOL     OW22655   1.990   2.114   6.204 -0.5138  0.2250 -0.0403
 1838SOL    HW122656   2.049   2.189   6.203 -1.4702  1.0288  1.6936
 1838SOL    HW222657   2.032   2.051   6.263 -0.0418 -0.3697 -0.9797
 1839SOL     OW22658   2.909   6.516   5.593 -0.1554  0.0794  0.1008
 1839SOL    HW122659   2.874   6.517   5.504 -1.3179  0.8524  0.5491
 1839SOL    HW222660   2.971   6.589   5.596  2.3303 -1.8049 -0.9537
 1840SOL     OW22661   3.964   4.190   1.262 -0.0599  0.0323  0.1588
 1840SOL    HW122662   4.036   4.128   1.253 -0.6588 -0.5472 -0.8836
 1840SOL    HW222663   3.940   4.212   1.172  0.1040  1.7493  0.5097
 1841SOL     OW22664   2.962   5.620   5.853 -0.1746  0.0930 -0.0307
 1841SOL    HW122665   3.050   5.653   5.836 -0.5023  1.1719  0.2705
 1841SOL    HW222666   2.924   5.605   5.766  0.2542 -0.2437 -0.1599
 1842SOL     OW22667   6.455   0.550   5.982  0.0188 -0.1547 -0.6536
 1842SOL    HW122668   6.449   0.570   6.075  3.8935 -3.4317  0.5888
 1842SOL    HW222669   6.407   0.468   5.972  0.9790 -0.6699 -1.1584
 1843SOL     OW22670   3.951   2.620   6.531  0.5327 -0.0508  0.8554
 1843SOL    HW122671   3.999   2.539   6.547 -0.2976 -1.1436 -1.6973
 1843SOL    HW222672   3.931   2.619   6.438 -0.2827  2.7000  0.8967
 1844SOL     OW22673   0.759   1.270   6.883 -0.2087  0.1885 -0.1308
 1844SOL    HW122674   0.814   1.292   6.958  0.7154  0.1937 -0.8045
 1844SOL    HW222675   0.671   1.300   6.908 -0.3928 -1.6838  1.8408
 1845SOL     OW22676   3.209   1.514   6.268 -0.2140 -0.2852  0.3957
 1845SOL    HW122677   3.163   1.546   6.190 -0.0368 -1.7272 -0.3435
 1845SOL    HW222678   3.290   1.565   6.270  0.1990 -0.8284 -0.9157
 1846SOL     OW22679   4.272   6.581   0.565  0.2199  0.0602  0.5513
 1846SOL    HW122680   4.276   6.578   0.660  1.8466  0.0196  0.5025
 1846SOL    HW222681   4.222   6.660   0.545 -1.8121 -0.9305  1.4172
 1847SOL     OW22682   6.200   5.736   6.007  0.1104  0.1825 -0.5054
 1847SOL    HW122683   6.265   5.777   5.951  0.1889  0.1204 -0.4593
 1847SOL    HW222684   6.180   5.653   5.965 -0.8845  0.7613 -1.2098
 1848SOL     OW22685   5.730   1.279   7.250 -0.0304 -0.2621 -0.4222
 1848SOL    HW122686   5.752   1.273   7.343  0.6204  1.2394 -0.4548
 1848SOL    HW222687   5.789   1.346   7.215 -0.5378 -0.5134 -1.8416
 1849SOL     OW22688   2.018   4.641   0.676  0.4022  0.7583 -0.3158
 1849SOL    HW122689   2.059   4.600   0.752 -0.2274  2.2429  0.8654
 1849SOL    HW222690   1.939   4.589   0.661 -0.3643  1.4504  1.1320
 1850SOL     OW22691   1.566   1.664   2.366 -0.1551  0.3209 -0.3102
 1850SOL    HW122692   1.518   1.744   2.342 -3.4231 -2.0009 -2.4963
 1850SOL    HW222693   1.627   1.650   2.293 -2.0861 -0.8492 -1.8131
 1851SOL     OW22694   4.535   3.474   0.691 -0.2232 -0.3774 -0.0864
 1851SOL    HW122695   4.550   3.498   0.600  1.1951 -1.4618 -0.1882
 1851SOL    HW222696   4.613   3.422   0.715 -0.7663 -0.4785  1.6002
 1852SOL     OW22697   2.208   6.050   1.634 -0.1594 -0.0951  0.5667
 1852SOL    HW122698   2.169   6.106   1.567  0.5531 -0.8720 -0.5345
 1852SOL    HW222699   2.134   6.004   1.674 -0.5842  0.2947  0.2352
 1853SOL     OW22700   2.767   3.156   0.153 -0.0865  0.6232 -0.3544
 1853SOL    HW122701   2.847   3.208   0.154  0.2528  0.1114  0.3626
 1853SOL    HW222702   2.727   3.173   0.068  0.1169  1.8931 -0.2059
 1854SOL     OW22703   6.247   1.377   7.109 -0.7024  0.0334 -0.3780
 1854SOL    HW122704   6.308   1.443   7.143  1.0580 -1.0610 -1.2736
 1854SOL    HW222705   6.186   1.362   7.182 -0.3223  1.6311  0.3203
 1855SOL     OW22706   3.013   3.225   5.941 -0.0151  0.9227 -0.1617
 1855SOL    HW122707   3.048   3.300   5.989  1.2237  0.4991 -0.3912
 1855SOL    HW222708   3.042   3.239   5.851 -0.3552  0.5024 -0.3377
 1856SOL     OW22709   2.368   4.850   5.860  0.2456 -0.3734 -0.3119
 1856SOL    HW122710   2.446   4.871   5.911  0.9910 -0.9956 -1.1384
 1856SOL    HW222711   2.323   4.783   5.911  0.7235 -0.6384 -0.2332
 1857SOL     OW22712   5.680   4.066   2.494 -0.3573 -0.6052  1.0238
 1857SOL    HW122713   5.653   4.158   2.495 -0.1065 -0.5287  2.1007
 1857SOL    HW222714   5.739   4.060   2.419 -1.6734 -0.2849 -0.0626
 1858SOL     OW22715   1.075   2.218   0.360 -0.0568  0.7490 -0.0473
 1858SOL    HW122716   1.115   2.133   0.339 -0.1750  0.8002 -0.4927
 1858SOL    HW222717   1.138   2.283   0.327 -0.1297  0.8324 -0.0225
 1859SOL     OW22718   0.878   4.836   0.361  0.5841  0.0493 -0.0980
 1859SOL    HW122719   0.793   4.853   0.403  0.4931  1.4579 -0.7822
 1859SOL    HW222720   0.918   4.923   0.352  1.0512 -0.3092 -1.9474
 1860SOL     OW22721   5.301   0.715   7.468  0.0842  0.6373 -0.4187
 1860SOL    HW122722   5.221   0.671   7.440  0.9526 -0.1288 -1.8343
 1860SOL    HW222723   5.306   0.793   7.413 -0.0251  1.0451  0.1425
 1861SOL     OW22724   4.192   6.527   5.999 -0.3848 -0.5804  0.1131
 1861SOL    HW122725   4.101   6.506   5.979 -0.5474  0.5048 -0.3806
 1861SOL    HW222726   4.186   6.595   6.066  0.0327  0.1942 -0.6261
 1862SOL     OW22727   4.353   1.535   6.975 -0.3837 -0.3277 -0.0456
 1862SOL    HW122728   4.343   1.479   6.899  2.2398  1.1984 -1.6971
 1862SOL    HW222729   4.391   1.478   7.042  0.9400 -0.9137 -1.2254
 1863SOL     OW22730   3.463   0.585   0.217  0.4395 -0.6399 -0.6435
 1863SOL    HW122731   3.384   0.624   0.180  0.4397 -0.5222 -0.5231
 1863SOL    HW222732   3.531   0.651   0.205  0.7599 -1.1319 -1.6443
 1864SOL     OW22733   1.241   2.686   6.058 -0.3660  0.5558  0.4179
 1864SOL    HW122734   1.204   2.676   6.146  0.3674 -0.2105  0.6505
 1864SOL    HW222735   1.275   2.599   6.036 -0.9386  0.6192 -0.8118
 1865SOL     OW22736   2.167   2.740   5.998 -0.5040  0.3825 -1.0183
 1865SOL    HW122737   2.132   2.687   5.927 -0.5292  1.9789 -2.2594
 1865SOL    HW222738   2.153   2.830   5.969  1.2642  1.0690  0.1302
 1866SOL     OW22739   1.789   4.563   0.471  0.2552  0.2245  0.0148
 1866SOL    HW122740   1.754   4.619   0.540 -3.0488  1.0987 -2.1180
 1866SOL    HW222741   1.725   4.494   0.460  0.8723 -0.1313 -1.8524
 1867SOL     OW22742   2.145   3.353   0.914  0.4641  0.0992 -0.7069
 1867SOL    HW122743   2.049   3.346   0.912  0.4386 -0.2426  0.7144
 1867SOL    HW222744   2.169   3.377   0.824 -0.8459 -1.2185 -1.4519
 1868SOL     OW22745   3.083   3.246   6.819  0.1558  0.1595  0.0078
 1868SOL    HW122746   3.142   3.177   6.789 -0.3860  0.0550 -0.8648
 1868SOL    HW222747   3.140   3.313   6.856  0.6824 -0.8932  1.1936
 1869SOL     OW22748   0.346   2.200   6.152  0.0103  0.0572 -0.1582
 1869SOL    HW122749   0.326   2.293   6.150  0.8414  0.2510  0.1769
 1869SOL    HW222750   0.270   2.158   6.111 -0.4307  0.8647 -0.1848
 1870SOL     OW22751   2.601   4.433   1.026 -0.4546 -0.0446 -0.3448
 1870SOL    HW122752   2.584   4.381   1.105  0.6472  1.1109  0.7093
 1870SOL    HW222753   2.663   4.380   0.976 -1.6489 -1.0819 -0.8014
 1871SOL     OW22754   2.009   6.128   0.418  0.1632  0.0541  0.6598
 1871SOL    HW122755   2.015   6.223   0.416 -1.7814  0.2188 -1.5781
 1871SOL    HW222756   2.074   6.098   0.354  0.2031 -0.0692  0.7573
 1872SOL     OW22757   3.777   6.339   5.595  0.0420  0.6289 -0.2035
 1872SOL    HW122758   3.802   6.272   5.531 -0.0735  0.7240 -0.3479
 1872SOL    HW222759   3.859   6.385   5.614  0.1195  0.4576 -0.1149
 1873SOL     OW22760   1.023   2.964   7.044 -0.0194  0.1647 -0.3122
 1873SOL    HW122761   1.023   2.878   7.002  0.6748  0.0522 -0.0788
 1873SOL    HW222762   1.009   2.946   7.137 -1.8807  0.4331 -0.4966
 1874SOL     OW22763   6.181   0.450   0.841 -0.2384  0.1222 -0.0846
 1874SOL    HW122764   6.104   0.507   0.853  0.4883  0.8744  1.1479
 1874SOL    HW222765   6.236   0.498   0.779 -1.0684 -0.7808 -1.5963
 1875SOL     OW22766   3.880   2.847   5.860  0.0058  0.6016  0.5637
 1875SOL    HW122767   3.839   2.781   5.915  0.9125 -0.5977 -0.1492
 1875SOL    HW222768   3.867   2.816   5.770  1.4743  0.7410  0.2668
 1876SOL     OW22769   4.637   0.009   7.366 -0.1786 -0.2433  0.4787
 1876SOL    HW122770   4.720   0.048   7.337 -0.2242  0.7214  1.5996
 1876SOL    HW222771   4.658  -0.084   7.377  0.0475 -0.5262 -1.8021
 1877SOL     OW22772   3.070   2.971   6.406  0.3587 -0.2100 -0.3320
 1877SOL    HW122773   3.039   2.956   6.496 -0.0000 -1.3367 -0.6368
 1877SOL    HW222774   3.146   2.915   6.397  0.6230  0.1880 -0.6207
 1878SOL     OW22775   0.010   2.554   0.116  0.1906 -0.2098  0.2351
 1878SOL    HW122776   0.009   2.494   0.042  2.3027  0.3881 -0.3461
 1878SOL    HW222777   0.099   2.549   0.151 -0.0984  1.2112  1.3129
 1879SOL     OW22778   1.956   6.361   6.126 -0.1182  0.3472 -0.1646
 1879SOL    HW122779   1.950   6.439   6.070  0.0718 -0.5621 -1.4984
 1879SOL    HW222780   1.984   6.291   6.067  1.7753 -0.3220  1.4124
 1880SOL     OW22781   3.227   5.839   0.240 -0.1105 -0.0739 -0.8111
 1880SOL    HW122782   3.276   5.799   0.312 -0.7378  0.1916 -0.2255
 1880SOL    HW222783   3.180   5.766   0.199  0.6408 -0.3061 -1.2845
 1881SOL     OW22784   5.339   4.891   2.092 -0.6428 -0.0136  0.9429
 1881SOL    HW122785   5.299   4.804   2.094 -1.4051  0.3406  1.6404
 1881SOL    HW222786   5.430   4.875   2.068 -1.1060 -0.8746 -0.3368
 1882SOL     OW22787   4.354   0.499   0.580 -0.2757 -0.0339 -0.0734
 1882SOL    HW122788   4.281   0.495   0.642 -1.6880 -2.5493 -1.7464
 1882SOL    HW222789   4.431   0.513   0.635 -1.8822  2.6485  1.7798
 1883SOL     OW22790   0.121   5.661   0.207  0.1366 -0.2826  0.4312
 1883SOL    HW122791   0.087   5.691   0.123 -0.4946 -2.4889 -0.1589
 1883SOL    HW222792   0.107   5.735   0.267  0.6588  1.3548 -1.3655
 1884SOL     OW22793   6.388   3.789   6.402  0.3306  0.7434  0.3927
 1884SOL    HW122794   6.333   3.803   6.479  0.4501  2.7796  0.1581
 1884SOL    HW222795   6.350   3.712   6.359 -0.5853  0.4142  1.7282
 1885SOL     OW22796   3.161   4.226   1.655  0.1474  0.1499 -0.6462
 1885SOL    HW122797   3.168   4.231   1.750 -1.2335  0.1933 -0.5369
 1885SOL    HW222798   3.213   4.148   1.632 -0.4538 -0.5428  0.2540
 1886SOL     OW22799   3.238   4.177   0.525 -0.2019 -0.2788  0.4059
 1886SOL    HW122800   3.232   4.134   0.439 -0.1064 -0.0475  0.2839
 1886SOL    HW222801   3.217   4.269   0.508 -2.6525 -0.6394  1.0196
 1887SOL     OW22802   2.916   4.779   4.908 -0.6632  0.1814 -0.1666
 1887SOL    HW122803   2.948   4.806   4.822  0.0617  1.1919  0.3934
 1887SOL    HW222804   2.840   4.835   4.924 -1.3455 -0.6297 -0.5219
 1888SOL     OW22805   2.338   4.266   7.242  0.3941  0.2002 -0.1356
 1888SOL    HW122806   2.249   4.297   7.223  0.5072  1.1583  0.7990
 1888SOL    HW222807   2.350   4.190   7.185 -1.6939 -1.0955  1.0280
 1889SOL     OW22808   4.653   6.280   0.267  0.6192 -0.4813 -0.1604
 1889SOL    HW122809   4.690   6.367   0.253 -0.3476 -0.1754 -0.9029
 1889SOL    HW222810   4.626   6.280   0.359  1.1156 -0.1992 -0.0071
 1890SOL     OW22811   1.693   0.940   1.728  0.0693  0.7596 -0.2239
 1890SOL    HW122812   1.752   0.986   1.787  0.6837 -1.8314  1.3694
 1890SOL    HW222813   1.638   0.886   1.786 -0.5098 -0.5834 -1.9171
 1891SOL     OW22814   4.876   1.349   0.525  0.0319  0.2528  0.0159
 1891SOL    HW122815   4.839   1.387   0.605 -2.0518 -0.4800 -0.5526
 1891SOL    HW222816   4.965   1.383   0.522  0.7522 -0.9112  3.4805
 1892SOL     OW22817   6.538   6.012   6.484  0.2358 -0.2314  0.0425
 1892SOL    HW122818   6.489   6.018   6.566  0.0738 -0.2530 -0.0502
 1892SOL    HW222819   6.535   6.101   6.448  0.3269 -0.2170  0.0714
 1893SOL     OW22820   4.090   5.061   5.215  0.2453 -0.2908  0.4767
 1893SOL    HW122821   4.125   5.063   5.304  0.0851  1.8702  0.5431
 1893SOL    HW222822   4.157   5.105   5.162 -0.3959 -0.0957 -0.1787
 1894SOL     OW22823   3.550   5.459   7.019 -0.2414  0.5932  0.3370
 1894SOL    HW122824   3.615   5.530   7.015  1.0450 -0.5849 -1.0753
 1894SOL    HW222825   3.570   5.414   7.101 -0.3312  1.1712  0.6864
 1895SOL     OW22826   5.111   4.677   1.390 -0.1698 -0.1349 -0.2152
 1895SOL    HW122827   5.083   4.767   1.406  0.3480  0.3347 -1.7460
 1895SOL    HW222828   5.201   4.675   1.421  0.6389  0.6125 -2.2842
 1896SOL     OW22829   0.816   0.338   0.555  0.7027 -0.2631  0.0904
 1896SOL    HW122830   0.882   0.381   0.500  1.7976  0.5446  1.9531
 1896SOL    HW222831   0.763   0.411   0.588 -0.0703 -0.7614 -0.0368
 1897SOL     OW22832   2.657   1.655   0.795 -0.4295  0.5988 -0.1200
 1897SOL    HW122833   2.739   1.606   0.809 -0.0235  1.7881  1.9387
 1897SOL    HW222834   2.669   1.695   0.709  0.0232 -1.3101 -1.0180
 1898SOL     OW22835   0.162   3.140   7.318 -0.2779 -0.1312  0.9322
 1898SOL    HW122836   0.138   3.220   7.272 -1.5621 -1.6997 -1.3372
 1898SOL    HW222837   0.256   3.150   7.336  0.3463  0.6061 -2.1557
 1899SOL     OW22838   5.964   5.161   6.555  0.2647  0.1364  0.0296
 1899SOL    HW122839   6.051   5.163   6.594  0.7577 -1.3604 -0.9065
 1899SOL    HW222840   5.905   5.190   6.625  1.5279  1.5539  0.5531
 1900SOL     OW22841   6.546   1.416   0.004 -0.4704  0.3613 -0.2795
 1900SOL    HW122842   6.615   1.373   0.054 -1.2619  0.2829  0.7943
 1900SOL    HW222843   6.465   1.389   0.048 -1.1538  0.8215 -1.2226
 1901SOL     OW22844   3.235   0.632   5.833 -0.2925 -0.3922 -0.1460
 1901SOL    HW122845   3.307   0.690   5.860 -1.1350  0.2439  0.8328
 1901SOL    HW222846   3.163   0.692   5.814 -1.2217 -1.1087  0.9836
 1902SOL     OW22847   1.468   5.949   6.382  0.6631  0.0764 -0.3541
 1902SOL    HW122848   1.504   5.910   6.461 -0.4440 -0.6436 -0.1797
 1902SOL    HW222849   1.497   5.891   6.311 -0.2953 -0.6364 -0.1875
 1903SOL     OW22850   3.266   1.461   0.712  0.1355  0.6289  0.4736
 1903SOL    HW122851   3.256   1.366   0.721  0.3734  0.4841 -0.7250
 1903SOL    HW222852   3.219   1.483   0.632  1.7890  1.2247 -0.3732
 1904SOL     OW22853   0.726   5.466   1.078 -0.4533  0.0985  0.2833
 1904SOL    HW122854   0.665   5.513   1.021  0.3887  0.4202 -0.3769
 1904SOL    HW222855   0.809   5.514   1.068  0.1183 -0.8286  0.5143
 1905SOL     OW22856   4.866   2.616   6.669 -0.0912 -0.4291 -0.3565
 1905SOL    HW122857   4.791   2.621   6.728  0.8353  0.5693  0.7804
 1905SOL    HW222858   4.863   2.526   6.635 -1.8835 -0.3594 -0.4918
 1906SOL     OW22859   1.715   3.509   6.206 -0.4566 -0.0990  0.4299
 1906SOL    HW122860   1.781   3.454   6.165  0.2694 -0.2660  1.7674
 1906SOL    HW222861   1.679   3.455   6.277  0.7506  1.3239  2.2248
 1907SOL     OW22862   0.088   1.497   5.878 -0.3624 -0.3718 -0.1653
 1907SOL    HW122863   0.156   1.439   5.911 -0.3535 -0.1768  0.1571
 1907SOL    HW222864   0.126   1.584   5.881 -0.9956 -0.1216  1.0326
 1908SOL     OW22865   5.790   2.371   1.115  0.0624 -0.6141  0.2775
 1908SOL    HW122866   5.781   2.308   1.186  2.2389 -0.5189  0.6986
 1908SOL    HW222867   5.834   2.446   1.154  0.3089 -0.1023 -0.9259
 1909SOL     OW22868   2.218   1.000   5.407  0.1058  0.1691  0.7943
 1909SOL    HW122869   2.236   0.926   5.349 -0.0955 -0.1959  1.1925
 1909SOL    HW222870   2.266   1.073   5.368  2.3282 -0.7146  1.7175
 1910SOL     OW22871   2.069   4.891   0.926  0.0455  0.4223  1.0200
 1910SOL    HW122872   2.021   4.836   0.988  0.0243  0.1729  0.7826
 1910SOL    HW222873   2.054   4.980   0.957 -1.3355  0.4139  0.4133
 1911SOL     OW22874   0.744   1.292   5.818  0.2999  0.2841  0.7112
 1911SOL    HW122875   0.821   1.246   5.784  0.0686  0.0331  0.5268
 1911SOL    HW222876   0.681   1.222   5.837  0.2629  0.4549  1.2345
 1912SOL     OW22877   2.415   1.961   1.141 -0.3957 -0.1753  0.0176
 1912SOL    HW122878   2.440   2.048   1.110  0.0617 -0.4709 -0.4785
 1912SOL    HW222879   2.478   1.902   1.099 -0.1504 -0.6618  1.0230
 1913SOL     OW22880   0.499   6.344   0.599  0.0975  0.6054 -0.0807
 1913SOL    HW122881   0.422   6.317   0.650 -1.6917  1.5763 -2.0814
 1913SOL    HW222882   0.521   6.431   0.634  0.4817  0.2067  0.6867
 1914SOL     OW22883   5.589   2.101   6.657 -0.4177  0.2721  0.3837
 1914SOL    HW122884   5.513   2.085   6.713 -0.4796 -2.7554 -0.3984
 1914SOL    HW222885   5.551   2.121   6.571 -0.2941  1.8708  0.6697
 1915SOL     OW22886   3.473   1.533   6.567 -0.5524 -0.4168 -0.3230
 1915SOL    HW122887   3.411   1.460   6.573 -0.7468 -0.1666  0.9820
 1915SOL    HW222888   3.429   1.605   6.612 -0.2586  0.4446 -1.3713
 1916SOL     OW22889   4.247   2.046   6.994 -0.2808  0.4999 -0.2573
 1916SOL    HW122890   4.329   2.051   6.946  0.1327 -2.0720  0.0307
 1916SOL    HW222891   4.273   2.043   7.086 -0.6404 -0.4948 -0.1694
 1917SOL     OW22892   1.596   1.908   6.156  1.0593  0.3755  0.2332
 1917SOL    HW122893   1.589   1.925   6.250  0.5852 -2.0681  0.7321
 1917SOL    HW222894   1.549   1.980   6.115  0.7700  1.1947  1.9165
 1918SOL     OW22895   4.940   0.791   6.716  0.5828 -0.3967 -0.4241
 1918SOL    HW122896   4.865   0.813   6.661  1.9229 -0.0355 -2.2099
 1918SOL    HW222897   4.990   0.872   6.721  2.5711 -1.4211 -2.1774
 1919SOL     OW22898   0.048   6.298   7.038 -0.2655 -0.0017  0.1077
 1919SOL    HW122899   0.075   6.257   7.120 -1.9863  2.1122  1.8291
 1919SOL    HW222900  -0.006   6.232   6.995  1.6233 -1.5824  0.0358
 1920SOL     OW22901   1.085   1.218   6.859 -0.3017  0.0782 -0.1459
 1920SOL    HW122902   1.160   1.276   6.843 -0.0869 -0.5346 -1.5016
 1920SOL    HW222903   1.030   1.267   6.920 -0.0002  1.6016 -1.0329
 1921SOL     OW22904   1.062   5.198   5.896  0.2126  0.8806 -0.5013
 1921SOL    HW122905   1.091   5.287   5.917 -0.1475  0.4830  2.0285
 1921SOL    HW222906   1.024   5.204   5.809 -1.4817  3.6158  0.3354
 1922SOL     OW22907   1.051   2.715   6.951  0.3889 -0.2106  0.3456
 1922SOL    HW122908   1.109   2.644   6.978  0.1366 -0.4369  0.3010
 1922SOL    HW222909   1.009   2.682   6.872  1.1145  0.4421 -0.3284
 1923SOL     OW22910   0.120   4.092   5.602 -0.3985  0.0151  0.0672
 1923SOL    HW122911   0.167   4.125   5.526  1.5028 -1.2291  0.6220
 1923SOL    HW222912   0.098   4.001   5.580 -0.2647 -0.2027  0.8035
 1924SOL     OW22913   2.983   0.643   1.824 -0.0254  0.2859 -0.2613
 1924SOL    HW122914   3.020   0.591   1.896 -0.2599 -0.9198 -0.9818
 1924SOL    HW222915   2.896   0.667   1.855 -1.0803 -2.2515 -1.0158
 1925SOL     OW22916   2.873   5.076   7.236  0.2365 -0.3148  0.7186
 1925SOL    HW122917   2.866   5.121   7.152 -0.6185 -0.3982  0.7380
 1925SOL    HW222918   2.836   4.989   7.220 -1.1942  0.1245  1.5109
 1926SOL     OW22919   4.724   5.439   0.955  0.3028 -0.2242  0.2888
 1926SOL    HW122920   4.649   5.434   1.015  2.1554 -2.0039  2.6197
 1926SOL    HW222921   4.745   5.348   0.934  0.6389  0.3089 -1.9723
 1927SOL     OW22922   3.881   4.679   0.886 -0.4098  0.1655  0.4295
 1927SOL    HW122923   3.884   4.600   0.832  3.1216  0.2549  0.2761
 1927SOL    HW222924   3.967   4.719   0.875 -0.5401  1.7480  3.8714
 1928SOL     OW22925   3.025   4.578   1.011  0.5608  0.0687 -0.1457
 1928SOL    HW122926   2.945   4.607   1.054  0.2301  1.1395 -1.4477
 1928SOL    HW222927   3.006   4.582   0.918  1.4124 -1.7874 -0.4560
 1929SOL     OW22928   1.725   0.855   0.914  0.3468 -0.7077  0.1552
 1929SOL    HW122929   1.781   0.784   0.883 -0.4993 -0.9038 -0.9737
 1929SOL    HW222930   1.647   0.811   0.949  0.8760 -0.4413  1.7601
 1930SOL     OW22931   5.341   1.060   1.448  0.2087 -0.3662 -0.3265
 1930SOL    HW122932   5.289   0.997   1.498  1.8666 -1.1348  0.5044
 1930SOL    HW222933   5.399   1.100   1.513  0.5115  0.6271 -1.1819
 1931SOL     OW22934   0.990   5.011   6.739 -0.2373  0.8366  0.2382
 1931SOL    HW122935   1.041   4.985   6.662  2.0690  0.3567  1.8567
 1931SOL    HW222936   0.899   5.004   6.710  0.5461  1.1467 -2.5841
 1932SOL     OW22937   6.283   2.057   6.865  0.0574 -0.5948 -0.5095
 1932SOL    HW122938   6.262   1.973   6.825 -1.0444  0.0239 -1.2598
 1932SOL    HW222939   6.330   2.105   6.797  0.3776 -0.4609 -0.2000
 1933SOL     OW22940   6.055   6.388   1.006 -0.3406  0.0126  0.0680
 1933SOL    HW122941   6.117   6.405   1.077 -0.8024 -0.7501  0.6793
 1933SOL    HW222942   6.104   6.405   0.926 -0.1876  2.1470  0.5565
 1934SOL     OW22943   3.209   0.622   6.980 -0.1888 -0.2713  0.2457
 1934SOL    HW122944   3.281   0.578   7.026 -0.1916  1.0328  1.5771
 1934SOL    HW222945   3.209   0.711   7.015 -1.0199  0.4231 -1.3965
 1935SOL     OW22946   0.569   4.961   5.735  0.3291 -0.0995 -0.4667
 1935SOL    HW122947   0.509   5.031   5.711  0.8512  0.1651 -1.0545
 1935SOL    HW222948   0.581   4.912   5.654 -0.0057 -0.8519 -0.0655
 1936SOL     OW22949   0.050   4.468   7.161  0.6518  0.0827 -0.0554
 1936SOL    HW122950   0.094   4.549   7.136 -0.1333  0.5060 -0.0860
 1936SOL    HW222951   0.054   4.467   7.257  1.0648 -0.0772 -0.0718
 1937SOL     OW22952   5.302   1.696   1.329  0.0774  0.2079 -0.0262
 1937SOL    HW122953   5.257   1.616   1.301  0.9046  0.2112 -1.4673
 1937SOL    HW222954   5.277   1.762   1.265  0.7392  0.6562  0.1608
 1938SOL     OW22955   5.529   0.779   6.655  0.0856 -0.3805  0.0962
 1938SOL    HW122956   5.514   0.711   6.720 -1.5462 -0.0829  0.0566
 1938SOL    HW222957   5.616   0.814   6.678 -0.2085 -0.6490  1.7767
 1939SOL     OW22958   1.486   3.830   6.714  0.8565 -0.0289 -0.5497
 1939SOL    HW122959   1.496   3.860   6.804  0.5765 -0.4364 -0.3823
 1939SOL    HW222960   1.447   3.905   6.669 -0.7418 -0.4373  0.0824
 1940SOL     OW22961   1.812   3.783   0.033  0.7201 -0.0375  0.3392
 1940SOL    HW122962   1.875   3.713   0.016 -0.9809 -2.2983  2.6747
 1940SOL    HW222963   1.731   3.753  -0.008  0.3207  1.3234  0.0897
 1941SOL     OW22964   4.445   5.101   1.324  0.3219 -0.1000 -0.4236
 1941SOL    HW122965   4.384   5.034   1.353 -0.5628  1.0997  0.6009
 1941SOL    HW222966   4.397   5.183   1.333  1.8173  0.8050 -0.3610
 1942SOL     OW22967   2.491   2.223   0.255  0.5594 -0.1886 -0.1034
 1942SOL    HW122968   2.437   2.274   0.316  1.5382  0.8368 -0.0526
 1942SOL    HW222969   2.504   2.139   0.299 -0.4966 -0.2435  0.1366
 1943SOL     OW22970   2.588   1.797   1.032  0.2696  0.6346 -0.2805
 1943SOL    HW122971   2.672   1.829   1.065  0.4490  0.1869 -0.2929
 1943SOL    HW222972   2.611   1.739   0.960  0.0465 -0.6337  0.6222
 1944SOL     OW22973   4.417   2.415   5.926  0.1002 -0.5573  0.1804
 1944SOL    HW122974   4.401   2.413   5.831  0.2257 -0.8445  0.1646
 1944SOL    HW222975   4.499   2.462   5.935  1.7842 -3.2423 -0.0964
 1945SOL     OW22976   4.903   5.387   0.465  0.6317 -0.1665  0.1486
 1945SOL    HW122977   4.895   5.457   0.530  1.2851 -0.6041  0.7229
 1945SOL    HW222978   4.826   5.397   0.408  0.1377  0.3310  0.8896
 1946SOL     OW22979   0.789   2.140   1.005  0.5718 -0.1942 -0.2068
 1946SOL    HW122980   0.846   2.210   0.971 -0.8782  0.5640 -1.1455
 1946SOL    HW222981   0.741   2.108   0.929  1.5135 -2.5759  0.1152
 1947SOL     OW22982   4.460   4.737   2.013 -0.2962  0.1259  0.4724
 1947SOL    HW122983   4.506   4.782   2.084 -1.2289 -2.9560  3.2691
 1947SOL    HW222984   4.374   4.779   2.010 -1.0359 -1.0281  2.8013
 1948SOL     OW22985   5.337   0.033   1.148  0.2133 -0.5182 -0.0638
 1948SOL    HW122986   5.422   0.024   1.104  0.0091 -1.0628 -0.3643
 1948SOL    HW222987   5.290   0.098   1.095  0.7059  0.3375  0.5315
 1949SOL     OW22988   1.412   4.120   6.114 -0.2225 -0.0232 -0.0810
 1949SOL    HW122989   1.496   4.166   6.110  0.3624 -1.0207  0.1791
 1949SOL    HW222990   1.360   4.170   6.178  0.2855  0.4310 -0.0146
 1950SOL     OW22991   4.723   5.996   5.895  0.9283 -0.4527 -0.0464
 1950SOL    HW122992   4.700   5.997   5.988  1.1684 -1.7899  0.0414
 1950SOL    HW222993   4.639   5.995   5.850  0.8092  0.2743  0.1430
 1951SOL     OW22994   4.258   2.342   7.120  0.6796  0.0656 -0.1352
 1951SOL    HW122995   4.346   2.358   7.154  0.0369 -1.3093  2.3600
 1951SOL    HW222996   4.225   2.429   7.097  2.8962  0.5564 -1.8870
 1952SOL     OW22997   0.072   2.281   0.401 -0.1369 -0.0913 -0.6210
 1952SOL    HW122998   0.107   2.193   0.410 -0.1459 -0.3296 -2.4768
 1952SOL    HW222999  -0.023   2.269   0.399 -0.1776  0.0783  0.0883
 1953SOL     OW23000   3.766   5.116   0.953 -0.4504 -0.4394  0.0285
 1953SOL    HW123001   3.797   5.078   0.871 -1.2664  0.1304 -0.5594
 1953SOL    HW223002   3.727   5.200   0.928 -0.6028 -0.1933  1.0160
 1954SOL     OW23003   0.486   1.299   6.951 -0.5587 -0.1111 -0.4346
 1954SOL    HW123004   0.455   1.369   6.894 -0.9602 -0.8469 -1.1357
 1954SOL    HW223005   0.437   1.310   7.032 -0.2197  0.7434 -0.3363
 1955SOL     OW23006   4.778   2.861   6.569  0.4487  0.7361  0.1734
 1955SOL    HW123007   4.800   2.771   6.591  0.7265  0.8862  0.5239
 1955SOL    HW223008   4.778   2.907   6.653  1.2097  1.2517 -0.0965
 1956SOL     OW23009   3.728   0.500   5.085 -0.0874 -0.3983 -0.0298
 1956SOL    HW123010   3.679   0.509   5.003  0.1528 -1.6271 -0.3330
 1956SOL    HW223011   3.724   0.406   5.105  0.1609 -0.1647  1.1845
 1957SOL     OW23012   4.479   3.654   1.560 -0.2984 -0.3919  0.0623
 1957SOL    HW123013   4.552   3.620   1.611  1.4061  1.2568 -1.1289
 1957SOL    HW223014   4.432   3.577   1.530  0.6242 -1.4817  1.3039
 1958SOL     OW23015   1.276   1.818   1.556 -0.2018  0.4008 -0.4841
 1958SOL    HW123016   1.256   1.869   1.477 -1.0283  0.3270 -0.3237
 1958SOL    HW223017   1.197   1.821   1.608  0.3489  0.4669  0.3684
 1959SOL     OW23018   1.934   0.677   6.315  0.0711 -0.2635 -0.7777
 1959SOL    HW123019   1.914   0.692   6.222  2.9263  2.5409 -1.1099
 1959SOL    HW223020   1.940   0.765   6.352 -1.0808 -1.3188  2.1763
 1960SOL     OW23021   3.113   0.507   0.179  0.3033 -0.1910 -0.2615
 1960SOL    HW123022   3.078   0.442   0.240  1.1866  0.7921  1.3721
 1960SOL    HW223023   3.074   0.484   0.095 -0.6774 -1.8337  0.5792
 1961SOL     OW23024   0.595   1.647   6.570  0.1994  0.6648 -0.4009
 1961SOL    HW123025   0.632   1.725   6.529 -0.5040  0.4399 -1.4984
 1961SOL    HW223026   0.599   1.579   6.502  1.7177 -0.5704  0.8359
 1962SOL     OW23027   5.156   4.059   0.366 -0.1511  0.0965  0.4278
 1962SOL    HW123028   5.243   4.021   0.361 -0.4224 -0.4360 -0.7445
 1962SOL    HW223029   5.102   3.993   0.410 -0.1069  0.1460  0.5566
 1963SOL     OW23030   4.087   4.863   6.483 -0.3053  0.1969 -0.4610
 1963SOL    HW123031   4.079   4.790   6.423  3.3603 -0.5140 -0.3516
 1963SOL    HW223032   4.153   4.920   6.442 -1.8666  2.6415  0.2317
 1964SOL     OW23033   4.168   0.629   2.117  0.1357 -0.0149 -0.0304
 1964SOL    HW123034   4.201   0.718   2.130  1.0500 -0.4410  0.6839
 1964SOL    HW223035   4.242   0.572   2.139 -1.0110 -1.0039  1.5582
 1965SOL     OW23036   2.281   2.103   7.169 -0.3160 -0.0329 -0.4542
 1965SOL    HW123037   2.328   2.186   7.162  1.6940 -1.2572 -3.0402
 1965SOL    HW223038   2.189   2.128   7.163  0.1064  2.0972  0.5653
 1966SOL     OW23039   4.928   5.135   1.577  0.1729  0.5742  0.1048
 1966SOL    HW123040   4.945   5.228   1.591  0.5041  0.5858 -0.3692
 1966SOL    HW223041   4.833   5.127   1.582  0.2207  0.4056  3.4841
 1967SOL     OW23042   3.440   1.225   7.333 -0.0829  0.0087 -0.5306
 1967SOL    HW123043   3.524   1.270   7.342  0.0255 -0.5516  1.9011
 1967SOL    HW223044   3.400   1.265   7.256  2.2078  0.5780 -1.5338
 1968SOL     OW23045   3.443   2.826   5.526  0.3677  0.1714 -0.1423
 1968SOL    HW123046   3.361   2.788   5.557  0.8933 -1.0183 -0.1644
 1968SOL    HW223047   3.511   2.774   5.568  1.1357  1.3376  0.1288
 1969SOL     OW23048   3.933   3.438   5.951 -0.6988 -0.1249  0.2751
 1969SOL    HW123049   3.940   3.529   5.981 -1.7034 -0.1259  0.5557
 1969SOL    HW223050   3.900   3.445   5.861  0.1486 -0.1930 -0.0518
 1970SOL     OW23051   3.616   0.831   0.166 -0.3957  0.0365  0.0092
 1970SOL    HW123052   3.619   0.882   0.247 -3.1568 -3.1811  2.4162
 1970SOL    HW223053   3.586   0.893   0.099  0.4432  2.4513  1.7506
 1971SOL     OW23054   2.677   1.318   1.377 -0.0935 -0.0382  0.1503
 1971SOL    HW123055   2.624   1.303   1.299  1.5506 -1.7930 -0.7148
 1971SOL    HW223056   2.694   1.412   1.377 -0.4867  0.0572 -1.3583
 1972SOL     OW23057   5.884   4.816   7.117  0.4692  0.3576  0.1978
 1972SOL    HW123058   5.867   4.819   7.022  0.3904 -1.5836  0.1226
 1972SOL    HW223059   5.977   4.794   7.124  0.4524  0.4088  0.5797
 1973SOL     OW23060   2.345   0.307   1.124 -0.4165  0.0898 -0.6656
 1973SOL    HW123061   2.344   0.394   1.165 -1.0074  0.2567 -1.0300
 1973SOL    HW223062   2.402   0.255   1.181 -2.2504 -0.0540  1.1803
 1974SOL     OW23063   0.554   4.276   6.552  0.0071 -0.1282 -0.0221
 1974SOL    HW123064   0.485   4.340   6.539  0.0592  0.4096  2.0283
 1974SOL    HW223065   0.629   4.311   6.503 -0.5622  0.2857 -0.6184
 1975SOL     OW23066   2.316   5.131   6.690 -0.0591 -0.6386 -0.0459
 1975SOL    HW123067   2.221   5.141   6.685  0.1115  0.5928 -1.6809
 1975SOL    HW223068   2.342   5.190   6.762 -0.2640  1.8593 -1.8727
 1976SOL     OW23069   5.218   6.108   6.870  1.0817 -0.0761  0.3840
 1976SOL    HW123070   5.295   6.091   6.925  0.0429 -2.2550  1.2707
 1976SOL    HW223071   5.190   6.022   6.840  0.4809  0.8933 -2.0794
 1977SOL     OW23072   4.478   1.009   1.721  0.0013  0.0398 -0.2595
 1977SOL    HW123073   4.573   1.013   1.733 -0.1020  0.9191  0.2969
 1977SOL    HW223074   4.466   0.954   1.644  0.9953  0.4697 -0.7319
 1978SOL     OW23075   4.364   3.722   0.964  0.3157  0.7473 -0.3140
 1978SOL    HW123076   4.365   3.732   0.869 -1.6156  1.0923 -0.3317
 1978SOL    HW223077   4.413   3.798   0.996 -0.2363  1.4037 -0.9984
 1979SOL     OW23078   6.308   3.102   6.840  0.2731  0.7241 -0.5202
 1979SOL    HW123079   6.255   3.044   6.894 -0.3004  2.6137  1.0496
 1979SOL    HW223080   6.389   3.113   6.890  1.5146 -0.7264 -2.0611
 1980SOL     OW23081   2.205   5.126   7.148 -0.1975  0.3374  0.2940
 1980SOL    HW123082   2.279   5.065   7.143  1.7759  2.5606  0.7235
 1980SOL    HW223083   2.221   5.178   7.226 -2.2371  0.9361  0.3863
 1981SOL     OW23084   1.894   2.242   6.657 -0.1756  0.3843  0.9136
 1981SOL    HW123085   1.833   2.309   6.626 -0.4371 -0.1370  0.3003
 1981SOL    HW223086   1.919   2.272   6.745 -0.2147  1.3331  0.6112
 1982SOL     OW23087   3.693   2.680   1.496 -0.1067 -0.3067 -0.0632
 1982SOL    HW123088   3.623   2.713   1.440  0.1174 -1.4412 -1.0457
 1982SOL    HW223089   3.648   2.657   1.578 -1.2370 -2.5824 -1.2420
 1983SOL     OW23090   2.952   4.838   7.002 -0.1805  0.0533  0.0292
 1983SOL    HW123091   2.858   4.823   6.991  0.1542 -1.7596 -0.7299
 1983SOL    HW223092   2.980   4.880   6.921 -0.2796  0.4115  0.1757
 1984SOL     OW23093   5.065   4.581   7.251 -0.1861  0.2071  0.0017
 1984SOL    HW123094   5.034   4.588   7.341 -1.2169 -1.1348 -0.2246
 1984SOL    HW223095   5.000   4.526   7.207  1.9122 -1.8333 -0.7641
 1985SOL     OW23096   4.743   1.466   5.691 -0.3217  0.8841  0.0535
 1985SOL    HW123097   4.732   1.424   5.776 -1.2666 -0.3017 -0.6131
 1985SOL    HW223098   4.755   1.394   5.630  0.2525  1.7085 -0.8364
 1986SOL     OW23099   0.353   4.857   1.212  0.2892  0.8580  0.1664
 1986SOL    HW123100   0.369   4.925   1.278 -0.2562  0.3821  0.7955
 1986SOL    HW223101   0.409   4.882   1.138 -1.1301  2.9608 -0.2958
 1987SOL     OW23102   3.480   0.977   0.864  0.4709  0.1333  0.2683
 1987SOL    HW123103   3.485   0.930   0.781  0.2951  1.0255 -0.2692
 1987SOL    HW223104   3.405   0.938   0.909  0.1483  0.0960 -0.2918
 1988SOL     OW23105   2.469   3.503   6.803  0.5696  0.0479  0.2134
 1988SOL    HW123106   2.505   3.433   6.857  0.0289  0.1818  0.7632
 1988SOL    HW223107   2.498   3.583   6.846 -0.5588  0.1573  0.7981
 1989SOL     OW23108   0.083   1.713   0.867 -0.0062  0.2900  0.2065
 1989SOL    HW123109   0.119   1.632   0.831 -1.0464 -0.1057  0.0111
 1989SOL    HW223110   0.026   1.684   0.939 -0.0449  0.8855  0.4227
 1990SOL     OW23111   0.716   5.873   0.584 -0.1029  0.1523 -0.1898
 1990SOL    HW123112   0.633   5.827   0.568  1.2293 -2.2796 -0.6907
 1990SOL    HW223113   0.774   5.841   0.514  2.2270 -0.9206  2.0494
 1991SOL     OW23114   3.475   3.723   1.711  0.2402 -0.4133  0.5337
 1991SOL    HW123115   3.535   3.794   1.692 -1.5029  1.5931  1.9165
 1991SOL    HW223116   3.395   3.746   1.664 -0.3530 -1.4961  0.9725
 1992SOL     OW23117   1.195   6.336   6.924  0.6304  0.1533 -0.6255
 1992SOL    HW123118   1.105   6.367   6.916  1.2778  2.5954  0.5901
 1992SOL    HW223119   1.189   6.258   6.979 -0.9008 -0.9700 -2.2784
 1993SOL     OW23120   2.974   3.080   0.696  0.0407  0.1915  0.2918
 1993SOL    HW123121   2.981   2.986   0.716 -0.5682  0.2172  0.6650
 1993SOL    HW223122   2.989   3.086   0.602 -2.1477 -0.5768 -0.1791
 1994SOL     OW23123   2.506   4.013   6.008 -0.5439  0.4801 -0.0704
 1994SOL    HW123124   2.494   4.106   5.990 -1.3996  0.2156 -0.9877
 1994SOL    HW223125   2.518   3.974   5.921 -1.2542 -0.4001  0.2159
 1995SOL     OW23126   3.990   2.705   0.298  0.0612  0.4477 -0.3050
 1995SOL    HW123127   3.904   2.724   0.334 -0.5756  0.3206 -1.6833
 1995SOL    HW223128   4.017   2.624   0.341 -1.1633 -0.3024 -0.8864
 1996SOL     OW23129   1.200   5.771   0.641  0.0050  0.8853  0.4721
 1996SOL    HW123130   1.261   5.706   0.606 -2.0983 -0.4799 -0.8914
 1996SOL    HW223131   1.193   5.748   0.734  0.4839  0.1474  0.3395
 1997SOL     OW23132   6.015   5.027   0.184 -0.4085 -0.9331  0.1521
 1997SOL    HW123133   6.070   5.095   0.223 -1.0590 -0.7876  0.8388
 1997SOL    HW223134   6.069   4.989   0.115  0.9316 -1.4670  1.4473
 1998SOL     OW23135   3.160   5.419   1.458 -0.1229 -0.3349  0.3745
 1998SOL    HW123136   3.234   5.477   1.443 -0.5469  0.1992  0.2854
 1998SOL    HW223137   3.129   5.442   1.546 -0.7899  0.1602  0.0220
 1999SOL     OW23138   2.557   0.728   5.715 -0.0283  0.3468  0.4529
 1999SOL    HW123139   2.505   0.668   5.663  1.9387  0.0348 -1.2692
 1999SOL    HW223140   2.628   0.675   5.750  0.4699  1.2081  0.7846
 2000SOL     OW23141   3.516   0.653   1.521  0.0484  0.3608 -0.1609
 2000SOL    HW123142   3.429   0.614   1.524  0.4202 -0.4423  0.4483
 2000SOL    HW223143   3.514   0.722   1.588 -0.1352  0.3622 -0.1696
 2001SOL     OW23144   2.011   0.498   6.716 -0.2288 -0.1589  0.2271
 2001SOL    HW123145   2.001   0.498   6.621  2.0582 -2.1608 -0.1276
 2001SOL    HW223146   1.947   0.434   6.746 -0.3707 -0.1520 -0.0494
 2002SOL     OW23147   2.838   4.746   0.180 -0.4707  0.2709  0.5106
 2002SOL    HW123148   2.743   4.755   0.187 -0.5508 -1.4650  2.5064
 2002SOL    HW223149   2.867   4.829   0.144 -2.7253  0.8712 -0.0993
 2003SOL     OW23150   2.727   5.486   4.627  0.3948 -0.1050  0.3629
 2003SOL    HW123151   2.805   5.483   4.572  0.1474 -1.8484  0.0368
 2003SOL    HW223152   2.727   5.401   4.672 -1.1049  0.0269  0.6445
 2004SOL     OW23153   0.647   6.151   5.852 -0.2886 -0.0946 -0.2730
 2004SOL    HW123154   0.666   6.085   5.786  1.9977 -1.7621  1.8454
 2004SOL    HW223155   0.726   6.153   5.907 -1.1278  2.9037  1.0277
 2005SOL     OW23156   6.534   0.588   7.283  0.1395 -0.1191 -0.0052
 2005SOL    HW123157   6.452   0.592   7.235 -0.5134 -2.2863  0.8124
 2005SOL    HW223158   6.510   0.601   7.375  0.8303  0.0369  0.1654
 2006SOL     OW23159   0.677   6.361   6.882 -0.5857 -0.2104  0.5904
 2006SOL    HW123160   0.638   6.430   6.935  0.6608 -1.1436  2.9403
 2006SOL    HW223161   0.666   6.282   6.935  0.2415 -1.3353 -0.8417
 2007SOL     OW23162   0.430   2.774   0.103  0.3879  0.7990 -0.0834
 2007SOL    HW123163   0.488   2.815   0.166  0.8910 -2.0870  1.4944
 2007SOL    HW223164   0.484   2.758   0.026  0.8685  0.7819  0.2587
 2008SOL     OW23165   6.336   2.778   7.421  0.5476  0.1166  0.2440
 2008SOL    HW123166   6.284   2.765   7.500 -0.0443  1.3221  0.0725
 2008SOL    HW223167   6.329   2.872   7.403  0.5400 -0.1596 -1.3234
 2009SOL     OW23168   2.178   2.283   5.570 -0.1212  0.0062  0.7097
 2009SOL    HW123169   2.162   2.364   5.619  0.3071  1.6317 -1.6837
 2009SOL    HW223170   2.117   2.286   5.497 -0.8664 -2.4445  1.1195
 2010SOL     OW23171   1.244   5.454   0.801 -0.3392  0.6169 -0.1477
 2010SOL    HW123172   1.166   5.426   0.753  1.5418 -2.6924 -1.6014
 2010SOL    HW223173   1.296   5.502   0.737  0.7028 -0.9646 -0.5358
 2011SOL     OW23174   1.652   4.461   5.907  0.2898  0.4405 -0.0805
 2011SOL    HW123175   1.576   4.512   5.879  0.6502  0.1623 -1.6437
 2011SOL    HW223176   1.726   4.503   5.864  0.9575  0.2708  0.8626
 2012SOL     OW23177   1.789   1.692   6.482  0.1774  0.1682  0.5844
 2012SOL    HW123178   1.835   1.612   6.507  2.1517  1.2460  0.5991
 2012SOL    HW223179   1.856   1.744   6.437 -0.6263  2.4614  1.9369
 2013SOL     OW23180   1.353   1.033   1.678 -0.3991  0.5300  0.3873
 2013SOL    HW123181   1.387   0.973   1.744 -0.1970 -1.0277 -1.0625
 2013SOL    HW223182   1.432   1.069   1.636 -0.4272 -1.5186 -1.5960
 2014SOL     OW23183   6.286   5.010   5.603 -0.0388  0.0762 -0.1556
 2014SOL    HW123184   6.336   5.089   5.623  2.8781 -1.5604 -0.5736
 2014SOL    HW223185   6.246   4.985   5.687  1.8778  0.1128  0.8247
 2015SOL     OW23186   5.580   6.201   6.578 -0.6207  0.1355 -0.1797
 2015SOL    HW123187   5.494   6.233   6.550 -0.4650 -0.8429 -1.9443
 2015SOL    HW223188   5.639   6.275   6.566 -1.0432  0.5220  0.1114
 2016SOL     OW23189   4.898   0.070   0.515 -0.0309 -0.0506 -0.0162
 2016SOL    HW123190   4.971   0.131   0.504  0.1023 -0.4136 -1.2483
 2016SOL    HW223191   4.901   0.046   0.608  1.0153  0.4398  0.0911
 2017SOL     OW23192   3.297   1.770   1.932  0.2171  0.0614 -0.6959
 2017SOL    HW123193   3.339   1.850   1.965  0.6632 -0.4559  0.0338
 2017SOL    HW223194   3.205   1.781   1.955  0.3743  0.1114 -0.0530
 2018SOL     OW23195   6.565   4.370   0.191  0.5113 -0.5925  0.0964
 2018SOL    HW123196   6.555   4.442   0.253  1.0770 -1.6845  1.5260
 2018SOL    HW223197   6.504   4.303   0.222  0.0280 -0.7694 -1.1760
 2019SOL     OW23198   4.871   0.059   5.937 -0.1305 -0.2442 -0.0225
 2019SOL    HW123199   4.827  -0.022   5.964  0.4043 -0.8915 -1.0132
 2019SOL    HW223200   4.964   0.042   5.953  0.1981 -0.6013 -2.0226
 2020SOL     OW23201   4.229   0.926   1.289  0.1104 -0.2111 -0.6580
 2020SOL    HW123202   4.264   0.949   1.203 -0.0016  2.6234 -0.0532
 2020SOL    HW223203   4.137   0.956   1.285  0.4075  1.0133  0.7490
 2021SOL     OW23204   0.670   4.287   0.804 -0.7237 -0.3396  0.3072
 2021SOL    HW123205   0.717   4.354   0.754 -0.6257 -0.1173  0.6894
 2021SOL    HW223206   0.703   4.204   0.769 -1.4178 -0.2074 -0.7053
 2022SOL     OW23207   5.770   2.611   0.252  0.9484  0.5757  0.0113
 2022SOL    HW123208   5.704   2.546   0.227 -1.3619  3.4318 -2.1109
 2022SOL    HW223209   5.810   2.575   0.331 -1.7288 -2.3215  0.2683
 2023SOL     OW23210   2.673   4.860   1.695  0.0681  0.5639  0.0079
 2023SOL    HW123211   2.732   4.817   1.633 -0.2551  0.3538 -0.1549
 2023SOL    HW223212   2.585   4.838   1.664 -0.1067  1.5016 -0.1841
 2024SOL     OW23213   3.605   4.959   1.671  0.3028 -0.2493 -0.3901
 2024SOL    HW123214   3.602   4.864   1.659 -0.8023 -0.4235  0.9451
 2024SOL    HW223215   3.589   4.971   1.765 -0.4477  1.2867 -0.6909
 2025SOL     OW23216   3.994   3.849   6.821  0.0898  0.0167  0.6919
 2025SOL    HW123217   3.916   3.873   6.870 -0.1029 -0.8412  0.8196
 2025SOL    HW223218   3.992   3.906   6.744 -0.6871 -0.0295  0.6669
 2026SOL     OW23219   4.655   4.527   0.434  0.3205  0.4100 -0.2061
 2026SOL    HW123220   4.630   4.618   0.449 -0.7717  0.3160 -1.2971
 2026SOL    HW223221   4.650   4.486   0.520  2.9698  1.8210  0.7344
 2027SOL     OW23222   5.087   4.577   5.809 -0.6545  0.0066 -0.2144
 2027SOL    HW123223   5.139   4.542   5.737  0.5397  2.2239 -0.5024
 2027SOL    HW223224   5.010   4.615   5.767  0.4241  2.0160 -0.4957
 2028SOL     OW23225   5.971   3.234   2.509  0.0909  0.8156 -0.4149
 2028SOL    HW123226   6.037   3.265   2.447 -0.1669  0.6686 -0.7684
 2028SOL    HW223227   5.958   3.307   2.570 -0.2921  1.2948 -1.0617
 2029SOL     OW23228   2.884   4.264   6.961  0.0819  0.1537 -0.3148
 2029SOL    HW123229   2.893   4.170   6.975  1.3444  0.2211 -0.5202
 2029SOL    HW223230   2.871   4.300   7.049  0.7508 -0.1092 -0.1026
 2030SOL     OW23231   2.984   5.913   7.358  0.7023 -0.4726  0.0456
 2030SOL    HW123232   3.075   5.941   7.346  0.4854  0.8200  1.1952
 2030SOL    HW223233   2.935   5.961   7.292  0.5740  0.5651  0.8689
 2031SOL     OW23234   2.467   1.023   6.909  0.4272  0.0538  0.1543
 2031SOL    HW123235   2.417   0.954   6.865 -0.2794  0.0940  0.8769
 2031SOL    HW223236   2.494   1.082   6.838 -0.5361  0.0239 -0.2437
 2032SOL     OW23237   3.633   3.303   6.684 -0.0420  0.0857  0.2419
 2032SOL    HW123238   3.575   3.258   6.745 -1.6434  1.8928  0.1661
 2032SOL    HW223239   3.627   3.252   6.603 -0.6126 -0.4075  0.5863
 2033SOL     OW23240   5.796   3.821   0.366  0.1772 -0.0967 -0.6955
 2033SOL    HW123241   5.757   3.746   0.322  0.7862  0.1850 -1.7453
 2033SOL    HW223242   5.888   3.798   0.376 -0.0314 -0.3592  0.9068
 2034SOL     OW23243   4.307   2.616   1.488  0.3406 -1.0566 -0.4496
 2034SOL    HW123244   4.314   2.634   1.394  1.2298  0.1579 -0.1816
 2034SOL    HW223245   4.343   2.528   1.499  0.7086 -1.0054 -1.1821
 2035SOL     OW23246   5.337   5.590   1.127  0.1379  0.3148  0.3557
 2035SOL    HW123247   5.380   5.630   1.203  0.3608  1.2794 -0.2575
 2035SOL    HW223248   5.403   5.591   1.058  0.1627 -1.1939  0.3221
 2036SOL     OW23249   3.950   0.352   0.966  0.7501 -0.2719 -0.3112
 2036SOL    HW123250   3.873   0.318   1.012  2.2604 -1.7994  1.2480
 2036SOL    HW223251   4.014   0.367   1.035  2.1244  0.1717 -1.6433
 2037SOL     OW23252   0.166   3.297   6.723 -0.2013 -0.3166 -1.2969
 2037SOL    HW123253   0.206   3.334   6.802 -0.3747  0.7634 -1.6971
 2037SOL    HW223254   0.161   3.203   6.741 -0.2279 -0.0944 -0.0298
 2038SOL     OW23255   2.784   0.058   6.234  0.1233 -0.3187  0.2639
 2038SOL    HW123256   2.798   0.045   6.140  0.6526 -1.8699  0.5359
 2038SOL    HW223257   2.702   0.012   6.253  1.0248 -1.7382  0.8931
 2039SOL     OW23258   2.709   5.600   7.219  0.1196 -0.3849  0.1093
 2039SOL    HW123259   2.804   5.602   7.226 -0.0160  0.9505  2.2105
 2039SOL    HW223260   2.682   5.691   7.233 -1.5608 -1.0468  1.3909
 2040SOL     OW23261   6.072   5.513   6.540 -0.1343  0.0151 -0.7571
 2040SOL    HW123262   6.080   5.492   6.447 -0.7001 -1.6429 -0.4605
 2040SOL    HW223263   5.986   5.478   6.565  0.6568 -0.9574  0.7266
 2041SOL     OW23264   4.500   5.083   1.782  0.3256 -0.1286  0.1684
 2041SOL    HW123265   4.425   5.026   1.766  1.0430 -0.9008 -0.4812
 2041SOL    HW223266   4.517   5.074   1.876 -1.0255  0.8686  0.5480
 2042SOL     OW23267   6.538   4.767   7.391  0.0471 -0.2902  0.0067
 2042SOL    HW123268   6.463   4.819   7.420 -0.0142 -0.8697  0.9132
 2042SOL    HW223269   6.608   4.789   7.452 -0.0523 -1.4476  0.5628
 2043SOL     OW23270   3.655   2.273   1.972  0.4654  0.4535 -0.1948
 2043SOL    HW123271   3.623   2.266   1.882  0.2613  0.2870 -0.1093
 2043SOL    HW223272   3.595   2.220   2.024  1.1547 -0.2611 -0.0991
 2044SOL     OW23273   2.495   3.373   6.558  0.0356 -0.1253  0.6611
 2044SOL    HW123274   2.481   3.429   6.634 -1.4423 -0.1870  0.4675
 2044SOL    HW223275   2.569   3.412   6.512  3.3710 -2.0664  3.9027
 2045SOL     OW23276   1.028   4.246   6.074 -0.2311 -0.4080 -0.0233
 2045SOL    HW123277   1.114   4.281   6.050 -0.2711 -0.2797  0.0238
 2045SOL    HW223278   0.972   4.271   6.001 -0.3777  0.0751  0.2560
 2046SOL     OW23279   6.161   5.601   7.271 -0.1618 -0.3381 -0.0923
 2046SOL    HW123280   6.079   5.646   7.292 -0.8746 -1.6471  0.0276
 2046SOL    HW223281   6.229   5.667   7.286 -1.2569  1.2201 -1.5600
 2047SOL     OW23282   3.878   5.402   1.105  0.1624 -0.2197  0.1955
 2047SOL    HW123283   3.863   5.351   1.185  0.4505  0.7154  0.8627
 2047SOL    HW223284   3.791   5.413   1.067 -0.0302 -0.3532  0.5938
 2048SOL     OW23285   2.085   6.482   6.782 -0.1899  0.2742  0.4856
 2048SOL    HW123286   2.140   6.404   6.792  0.9858  0.9448 -0.3801
 2048SOL    HW223287   2.105   6.535   6.859  0.1438  0.3739  0.3321
 2049SOL     OW23288   1.902   5.955   1.426  0.5856  0.3270 -0.8070
 2049SOL    HW123289   1.850   5.876   1.439  0.2589  0.9227  2.2339
 2049SOL    HW223290   1.979   5.942   1.482  0.2378  2.3589  0.2263
 2050SOL     OW23291   3.142   4.294   6.444  0.0473  0.3065 -0.3398
 2050SOL    HW123292   3.088   4.292   6.365 -0.8274  0.5919  0.2376
 2050SOL    HW223293   3.189   4.377   6.439  0.5664 -0.0111 -0.9213
 2051SOL     OW23294   5.831   0.791   7.119 -0.0823 -0.2543  0.4419
 2051SOL    HW123295   5.844   0.878   7.082  1.1139  0.2494  1.9208
 2051SOL    HW223296   5.795   0.808   7.206  1.6044 -1.1083  1.3680
 2052SOL     OW23297   0.707   0.033   7.381 -0.1341 -0.0726 -0.1546
 2052SOL    HW123298   0.769  -0.004   7.444  0.1615  0.5367 -0.0795
 2052SOL    HW223299   0.676   0.114   7.422 -1.4462 -0.6586  0.0778
 2053SOL     OW23300   2.092   0.798   1.907 -0.4964 -0.1849  0.2200
 2053SOL    HW123301   2.124   0.710   1.926 -0.1832 -0.3593 -1.0543
 2053SOL    HW223302   2.031   0.787   1.835  0.4685  0.7660 -0.7967
 2054SOL     OW23303   2.419   5.274   1.392 -0.5148 -0.5721 -0.1295
 2054SOL    HW123304   2.356   5.339   1.422  0.5834 -0.6442  2.7190
 2054SOL    HW223305   2.381   5.190   1.418 -0.1372 -0.7610 -0.1767
 2055SOL     OW23306   0.149   0.289   6.053 -0.3501  0.2498 -0.2092
 2055SOL    HW123307   0.168   0.209   6.102 -0.1015  1.0860  1.1262
 2055SOL    HW223308   0.111   0.259   5.971  0.0370 -1.2421  0.1289
 2056SOL     OW23309   4.822   2.130   2.381 -0.4107 -0.1615 -0.3084
 2056SOL    HW123310   4.858   2.175   2.305  0.5904 -0.3245  0.0564
 2056SOL    HW223311   4.728   2.143   2.374 -0.3710 -0.5082 -1.7892
 2057SOL     OW23312   2.721   4.444   6.094  0.7209 -0.6995 -0.6483
 2057SOL    HW123313   2.669   4.524   6.085  1.6856 -0.1101 -1.2817
 2057SOL    HW223314   2.810   4.471   6.070  1.5113 -1.4609  1.2506
 2058SOL     OW23315   5.918   3.102   0.242  0.0204 -0.5836 -0.7274
 2058SOL    HW123316   5.831   3.117   0.279  0.4564  1.0113 -0.2427
 2058SOL    HW223317   5.942   3.187   0.204  1.8760 -0.6047  0.2866
 2059SOL     OW23318   6.367   3.270   6.071  0.4085  0.1951 -0.1512
 2059SOL    HW123319   6.308   3.285   5.998  0.6244 -1.4798 -0.7275
 2059SOL    HW223320   6.455   3.285   6.035  0.4189  2.1834  0.5689
 2060SOL     OW23321   2.656   2.310   6.389  0.3008  0.2825 -0.2496
 2060SOL    HW123322   2.579   2.365   6.376  0.0812  0.2514  0.8200
 2060SOL    HW223323   2.728   2.373   6.400  0.2457  0.3349 -0.1870
 2061SOL     OW23324   3.267   2.215   7.468 -0.1154  0.2885  0.4470
 2061SOL    HW123325   3.340   2.243   7.411 -0.8799  0.4034 -0.5082
 2061SOL    HW223326   3.304   2.215   7.556  1.2077 -0.2061 -0.0824
 2062SOL     OW23327   2.875   0.106   6.663  0.0777  0.9827 -0.1595
 2062SOL    HW123328   2.782   0.097   6.683 -0.0070 -0.5009 -1.0584
 2062SOL    HW223329   2.883   0.073   6.573  2.1419 -3.4317  1.3686
 2063SOL     OW23330   3.518   3.875   5.071 -0.1297  0.1545  0.2116
 2063SOL    HW123331   3.595   3.931   5.084  1.5996 -1.8937 -0.7298
 2063SOL    HW223332   3.458   3.930   5.019  1.4603  1.1956 -0.6292
 2064SOL     OW23333   0.478   0.251   6.763 -0.2006 -0.3376 -0.4657
 2064SOL    HW123334   0.534   0.249   6.685 -0.2956 -0.2034 -0.5386
 2064SOL    HW223335   0.539   0.252   6.837 -0.1074 -0.2794 -0.5438
 2065SOL     OW23336   5.956   0.826   0.940 -0.1911 -0.5848 -0.2305
 2065SOL    HW123337   5.967   0.857   0.850 -0.8846  1.7861  0.4342
 2065SOL    HW223338   5.879   0.872   0.972  1.4498  0.5748  2.3627
 2066SOL     OW23339   2.628   2.277   5.515  0.3737  0.0826  0.2539
 2066SOL    HW123340   2.597   2.361   5.547  1.1344  0.1359  0.8699
 2066SOL    HW223341   2.563   2.214   5.545 -0.1420  0.4316 -0.1199
 2067SOL     OW23342   3.797   0.227   1.142 -0.1807 -0.1333  0.0795
 2067SOL    HW123343   3.750   0.145   1.159 -1.0306  0.1184 -0.9915
 2067SOL    HW223344   3.732   0.295   1.156  1.2918  0.7566  4.4793
 2068SOL     OW23345   1.283   1.266   5.978 -0.1141 -0.3460  0.0984
 2068SOL    HW123346   1.350   1.329   5.953 -0.3847 -0.2489 -0.3993
 2068SOL    HW223347   1.240   1.243   5.896 -0.4474 -0.6858  0.3635
 2069SOL     OW23348   3.512   5.228   1.840 -0.3749  0.3594 -0.4628
 2069SOL    HW123349   3.429   5.219   1.794  0.1864 -1.0705 -1.2592
 2069SOL    HW223350   3.575   5.253   1.773  0.7658 -3.2279 -0.9443
 2070SOL     OW23351   0.685   5.357   0.008  0.0645  0.3797  0.2582
 2070SOL    HW123352   0.609   5.333   0.060 -0.5880  0.6141 -0.5573
 2070SOL    HW223353   0.758   5.311   0.049 -0.6981 -0.7743  0.3916
 2071SOL     OW23354   0.536   1.147   5.969  0.4879 -0.3677  0.1708
 2071SOL    HW123355   0.568   1.160   6.058 -1.2942 -0.3918  0.8556
 2071SOL    HW223356   0.506   1.056   5.966 -2.3076  0.4380  0.5830
 2072SOL     OW23357   2.987   3.022   1.083 -0.8120  0.2268 -0.0961
 2072SOL    HW123358   3.019   3.100   1.038 -1.1239  0.1499 -0.4535
 2072SOL    HW223359   3.059   2.959   1.075 -0.8301  0.2438 -0.4055
 2073SOL     OW23360   1.574   4.419   7.398 -0.3026  0.2188 -0.9062
 2073SOL    HW123361   1.503   4.358   7.416 -0.3942  0.9965  1.9704
 2073SOL    HW223362   1.647   4.387   7.452  0.4246  1.2762 -1.2328
 2074SOL     OW23363   0.932   5.707   6.362  0.1083  0.0736 -0.5735
 2074SOL    HW123364   0.910   5.616   6.345 -0.9146  0.2120 -0.0617
 2074SOL    HW223365   1.019   5.704   6.401 -0.3427 -0.7754  0.3982
 2075SOL     OW23366   5.051   0.911   5.393 -0.1556  0.6503  0.3950
 2075SOL    HW123367   5.027   0.995   5.433 -1.7124  0.8768 -0.9395
 2075SOL    HW223368   5.141   0.896   5.422  0.0455  2.6197  0.9315
 2076SOL     OW23369   3.884   0.363   0.491 -0.1106  0.2130 -0.3946
 2076SOL    HW123370   3.938   0.429   0.535  0.8102 -0.9451  0.2505
 2076SOL    HW223371   3.919   0.359   0.402  0.0831  0.3278 -0.3242
 2077SOL     OW23372   5.710   1.339   1.697 -0.5620 -0.5257  0.3971
 2077SOL    HW123373   5.690   1.336   1.604 -1.0758 -0.5875  0.5059
 2077SOL    HW223374   5.798   1.376   1.702  0.5928 -2.9857 -0.2855
 2078SOL     OW23375   3.701   5.267   4.843  0.1065 -0.0993 -0.3019
 2078SOL    HW123376   3.668   5.347   4.883  1.8084  1.2089 -1.3530
 2078SOL    HW223377   3.795   5.267   4.864  0.1692 -1.7523 -0.4543
 2079SOL     OW23378   5.474   5.523   6.540 -0.5238 -0.4367  0.1601
 2079SOL    HW123379   5.520   5.596   6.498 -0.2372  0.5713  2.1405
 2079SOL    HW223380   5.543   5.473   6.584 -0.8994 -1.0823  0.0330
 2080SOL     OW23381   2.422   1.135   2.083  0.2916  0.9995  0.6334
 2080SOL    HW123382   2.474   1.101   2.010  0.6633  1.3415  0.7311
 2080SOL    HW223383   2.371   1.060   2.114  1.5119  0.3778  1.2120
 2081SOL     OW23384   5.234   0.476   5.824 -0.3537  0.2609  0.0725
 2081SOL    HW123385   5.157   0.424   5.847 -0.1082  0.4210  1.2805
 2081SOL    HW223386   5.298   0.411   5.795 -0.4325 -0.0083  0.4997
 2082SOL     OW23387   3.752   5.660   7.012  0.0559 -0.2922  0.1833
 2082SOL    HW123388   3.747   5.754   7.028  2.1670 -0.4334  2.3041
 2082SOL    HW223389   3.818   5.650   6.944 -1.1313 -0.2259 -1.0190
 2083SOL     OW23390   4.087   2.768   0.590  0.2033 -0.3030 -0.0318
 2083SOL    HW123391   4.035   2.845   0.566  1.5748  1.4498  2.2863
 2083SOL    HW223392   4.172   2.782   0.549  0.3858 -0.7089  0.2040
 2084SOL     OW23393   6.166   4.209   0.987  0.4754 -0.3752  0.4727
 2084SOL    HW123394   6.233   4.176   0.926 -1.1092 -1.2985 -0.8419
 2084SOL    HW223395   6.087   4.161   0.964 -1.3550  2.5556  0.1400
 2085SOL     OW23396   4.045   1.678   7.341  0.1332  0.1310 -0.2613
 2085SOL    HW123397   4.066   1.585   7.354 -1.0720 -0.0947  0.1717
 2085SOL    HW223398   4.024   1.685   7.248  1.1009  0.1703 -0.4948
 2086SOL     OW23399   6.237   5.015   7.279  0.0898  0.0155 -0.2214
 2086SOL    HW123400   6.186   5.094   7.260 -1.6229 -1.0152 -0.1630
 2086SOL    HW223401   6.192   4.946   7.230  1.9357 -0.8354 -0.8051
 2087SOL     OW23402   3.394   6.577   0.323 -0.4198 -0.2984  0.4116
 2087SOL    HW123403   3.307   6.563   0.287 -0.7149 -0.2643  1.0897
 2087SOL    HW223404   3.444   6.618   0.252 -1.5236  1.5302  0.6280
 2088SOL     OW23405   5.468   4.259   6.732  0.2490 -0.3465  0.0832
 2088SOL    HW123406   5.529   4.278   6.803  0.4778 -0.0149 -0.2002
 2088SOL    HW223407   5.502   4.308   6.657  0.3129 -1.1287 -0.4040
 2089SOL     OW23408   5.480   5.062   1.404 -0.0850  0.0411 -0.4225
 2089SOL    HW123409   5.519   4.976   1.384  1.6522  0.6867  0.0199
 2089SOL    HW223410   5.441   5.051   1.491  2.2097  0.2854  0.7165
 2090SOL     OW23411   2.508   4.645   0.519 -0.1416  0.2219 -0.0786
 2090SOL    HW123412   2.433   4.586   0.526  0.8906 -1.2169 -0.6054
 2090SOL    HW223413   2.503   4.700   0.598 -1.5357 -0.0668  0.0642
 2091SOL     OW23414   2.454   2.474   6.327  0.4270 -0.7250  0.5144
 2091SOL    HW123415   2.458   2.396   6.273  1.3620 -0.4549  0.1818
 2091SOL    HW223416   2.379   2.523   6.292  0.1342 -1.2366  0.4157
 2092SOL     OW23417   5.180   0.605   5.580 -0.1096  0.4912 -0.2050
 2092SOL    HW123418   5.099   0.555   5.572  1.6688 -2.3662 -2.0440
 2092SOL    HW223419   5.215   0.582   5.666  0.4212 -1.1417 -0.8180
 2093SOL     OW23420   0.680   0.308   6.589 -0.4071 -0.4251  0.3264
 2093SOL    HW123421   0.768   0.312   6.627 -1.0046  0.9493  1.6681
 2093SOL    HW223422   0.686   0.362   6.510 -0.2387  0.4439  0.9091
 2094SOL     OW23423   5.482   5.210   0.943 -0.1683  0.0701  0.0190
 2094SOL    HW123424   5.551   5.274   0.956  0.6634 -0.7632 -0.1882
 2094SOL    HW223425   5.436   5.206   1.027 -1.2615  2.0725 -0.4221
 2095SOL     OW23426   1.868   1.043   7.160  0.0186  0.1003  0.3972
 2095SOL    HW123427   1.841   1.090   7.081  1.0451  0.2452  0.1174
 2095SOL    HW223428   1.821   0.960   7.156  0.7559 -0.2876 -0.8683
 2096SOL     OW23429   1.059   4.880   6.491  0.5483  0.0864 -0.1573
 2096SOL    HW123430   1.037   4.902   6.400  0.7616 -1.3196 -0.5718
 2096SOL    HW223431   1.147   4.916   6.502  0.5973  0.1033 -0.5662
 2097SOL     OW23432   1.792   1.242   6.969  0.1805  0.0407  0.3758
 2097SOL    HW123433   1.749   1.282   6.893  0.5428  0.5370  0.4273
 2097SOL    HW223434   1.750   1.284   7.045  0.9697  0.7754  0.4236
 2098SOL     OW23435   4.504   0.047   5.153  0.4750  0.2705 -0.5200
 2098SOL    HW123436   4.504  -0.043   5.188  0.5506  0.3630 -0.2837
 2098SOL    HW223437   4.592   0.080   5.171 -0.2484  1.2201  1.5221
 2099SOL     OW23438   4.443   2.436   6.592 -0.1942 -0.4255 -0.3783
 2099SOL    HW123439   4.371   2.376   6.613  0.7299 -0.8272  1.8320
 2099SOL    HW223440   4.515   2.378   6.566  0.2735 -0.2056  0.4141
 2100SOL     OW23441   5.975   6.420   5.748  0.1635  0.0506  0.4184
 2100SOL    HW123442   5.963   6.329   5.775 -0.4304  0.5082  1.7488
 2100SOL    HW223443   6.067   6.438   5.765 -0.2384  0.3911  2.4191
 2101SOL     OW23444   0.892   4.497   0.330  0.0086  0.4324  0.1723
 2101SOL    HW123445   0.907   4.571   0.389 -0.0133 -1.6111  2.9552
 2101SOL    HW223446   0.797   4.484   0.332 -0.0114  0.4497 -0.4798
 2102SOL     OW23447   5.361   4.967   0.859 -0.1752 -0.1140 -0.1665
 2102SOL    HW123448   5.415   5.032   0.906  0.7104 -1.3214  0.5396
 2102SOL    HW223449   5.425   4.908   0.818 -0.9665 -0.8195 -0.4073
 2103SOL     OW23450   5.353   5.129   0.439 -0.0974 -0.0681 -0.2571
 2103SOL    HW123451   5.401   5.132   0.356 -0.7642 -1.2536 -0.7051
 2103SOL    HW223452   5.412   5.172   0.501  1.3115 -0.9531 -0.9072
 2104SOL     OW23453   4.337   1.426   0.806 -0.2838 -0.0976  0.1255
 2104SOL    HW123454   4.253   1.469   0.818  0.5082  1.9401 -1.1005
 2104SOL    HW223455   4.400   1.498   0.798  1.5131 -1.5443  0.4485
 2105SOL     OW23456   0.266   6.012   0.021 -0.3822 -0.0962  0.5394
 2105SOL    HW123457   0.328   5.997  -0.050 -1.9530 -1.7042 -0.6005
 2105SOL    HW223458   0.281   5.940   0.082 -0.8662 -0.3153  0.4128
 2106SOL     OW23459   0.561   2.043   0.046  0.8909 -0.1968  0.2636
 2106SOL    HW123460   0.613   2.023   0.123  1.0725  0.6276  0.3548
 2106SOL    HW223461   0.591   2.129   0.017 -0.3970  0.2928  0.3094
 2107SOL     OW23462   5.009   3.327   1.622  0.5623  0.5631  0.3158
 2107SOL    HW123463   4.994   3.361   1.534  0.2504  0.8299  0.4697
 2107SOL    HW223464   4.945   3.257   1.633  0.2538  0.8743  0.5178
 2108SOL     OW23465   4.025   6.116   0.401 -0.4505  0.1288  0.4837
 2108SOL    HW123466   4.057   6.205   0.389 -0.9513  0.3012  0.4107
 2108SOL    HW223467   3.982   6.093   0.319 -0.8829  0.0584  0.7230
 2109SOL     OW23468   1.530   3.892   6.964  0.0421 -0.0324  0.0716
 2109SOL    HW123469   1.541   3.984   6.937 -2.8465  0.8507  1.4868
 2109SOL    HW223470   1.611   3.872   7.011  1.6813  1.0054 -2.1055
 2110SOL     OW23471   0.227   4.327   1.458  0.1733 -0.2978 -0.4070
 2110SOL    HW123472   0.149   4.273   1.471 -0.4757  0.6548 -0.1912
 2110SOL    HW223473   0.196   4.417   1.472  1.5026  0.0353  0.5962
 2111SOL     OW23474   6.016   2.004   7.012  0.0050 -0.2252 -0.1059
 2111SOL    HW123475   6.103   2.015   6.975 -0.6453 -1.2892 -2.1124
 2111SOL    HW223476   5.963   2.074   6.972  0.2538  1.5366  2.4457
 2112SOL     OW23477   4.216   5.473   2.053 -0.0427  0.0845 -0.0409
 2112SOL    HW123478   4.275   5.400   2.035 -1.8897 -1.0143 -2.2342
 2112SOL    HW223479   4.206   5.473   2.148 -0.0910 -2.6672  0.0413
 2113SOL     OW23480   2.135   5.370   1.280 -0.9492 -0.6413 -0.3998
 2113SOL    HW123481   2.151   5.403   1.369  3.7826 -1.6488 -0.6538
 2113SOL    HW223482   2.147   5.275   1.287 -1.7906 -0.8946 -1.9293
 2114SOL     OW23483   6.419   4.635   6.041  0.1605 -0.2251  0.5092
 2114SOL    HW123484   6.407   4.701   5.973 -0.2638  0.0947  0.8926
 2114SOL    HW223485   6.472   4.679   6.108  0.6230 -0.5561  0.3631
 2115SOL     OW23486   3.842   4.518   1.630  0.4755 -0.4499 -0.0854
 2115SOL    HW123487   3.771   4.456   1.641 -0.1987  0.3080 -0.1100
 2115SOL    HW223488   3.877   4.529   1.719 -0.5902  0.5109  0.2388
 2116SOL     OW23489   6.400   3.198   7.100 -0.5647 -0.1063  0.0358
 2116SOL    HW123490   6.485   3.208   7.144 -1.1806 -2.4034  1.9768
 2116SOL    HW223491   6.339   3.246   7.155 -0.8021  0.1564 -0.4473
 2117SOL     OW23492   2.017   3.672   5.471 -0.2785 -0.1971 -0.0351
 2117SOL    HW123493   1.922   3.684   5.473 -0.1341  1.3611 -0.7350
 2117SOL    HW223494   2.050   3.752   5.430  1.6218  1.1915  3.7143
 2118SOL     OW23495   5.735   4.989   6.516  0.1848 -0.2781  0.0904
 2118SOL    HW123496   5.822   5.026   6.504 -0.0605  0.2446 -0.1142
 2118SOL    HW223497   5.746   4.920   6.582  0.8872 -0.7234 -0.4821
 2119SOL     OW23498   1.561   6.208   5.468 -0.3320 -0.2991  0.0166
 2119SOL    HW123499   1.483   6.178   5.515 -1.4761  0.7311 -1.1467
 2119SOL    HW223500   1.543   6.189   5.376 -0.2005  1.8771 -0.5323
 2120SOL     OW23501   5.385   5.484   1.824  0.0870  0.4362 -0.5520
 2120SOL    HW123502   5.460   5.426   1.808 -1.6952 -2.4664  0.7005
 2120SOL    HW223503   5.386   5.498   1.919 -2.2401 -1.8282 -0.0667
 2121SOL     OW23504   5.928   1.506   6.365 -0.3088  0.3043  0.2805
 2121SOL    HW123505   5.856   1.532   6.309 -0.8141 -1.0172  0.2943
 2121SOL    HW223506   5.996   1.476   6.305 -1.2087 -2.0258  0.3503
 2122SOL     OW23507   1.261   1.271   7.276  0.2344 -0.2469  0.0197
 2122SOL    HW123508   1.167   1.265   7.289  0.0788 -0.9310 -1.2720
 2122SOL    HW223509   1.297   1.274   7.364 -0.9298 -1.2072  0.5545
 2123SOL     OW23510   3.013   4.776   6.153  0.1985 -0.4014 -0.0720
 2123SOL    HW123511   2.944   4.776   6.087 -0.9293 -1.1021  1.0650
 2123SOL    HW223512   2.978   4.830   6.224  1.5708  0.6994 -0.1965
 2124SOL     OW23513   1.242   3.764   0.251  0.4741  0.8764 -0.1352
 2124SOL    HW123514   1.270   3.706   0.179 -0.1427  1.6575 -1.0377
 2124SOL    HW223515   1.146   3.765   0.245  0.4977  3.1856 -1.1658
 2125SOL     OW23516   6.119   0.161   6.487  0.4533  0.4341 -0.0935
 2125SOL    HW123517   6.099   0.251   6.462  0.8072  0.1294 -1.6080
 2125SOL    HW223518   6.034   0.117   6.490  0.2407  0.8828  1.0313
 2126SOL     OW23519   2.190   5.104   1.154 -0.2840  0.0398  0.0162
 2126SOL    HW123520   2.246   5.036   1.191 -0.1128  0.6156  0.8547
 2126SOL    HW223521   2.101   5.075   1.172 -0.2596 -0.6901 -0.9757
 2127SOL     OW23522   3.692   5.951   7.040 -0.1528  0.0367 -0.2660
 2127SOL    HW123523   3.645   5.931   7.121  0.4527  1.8670  0.5973
 2127SOL    HW223524   3.749   6.024   7.063  0.7467 -0.0165 -2.1202
 2128SOL     OW23525   0.339   4.996   6.335 -0.0284 -0.2407  0.3255
 2128SOL    HW123526   0.257   5.044   6.345  0.2426  0.4539 -0.5967
 2128SOL    HW223527   0.338   4.966   6.244 -0.9580 -3.4878  1.2641
 2129SOL     OW23528   2.155   0.281   0.190  0.1564  0.8210  0.1372
 2129SOL    HW123529   2.245   0.281   0.224  0.3122 -0.2329 -0.2343
 2129SOL    HW223530   2.139   0.373   0.167  1.7150  0.7994 -1.2616
 2130SOL     OW23531   2.691   3.742   6.528 -0.2769  0.2761 -0.1870
 2130SOL    HW123532   2.706   3.650   6.507  0.6247  0.6279 -1.1444
 2130SOL    HW223533   2.690   3.744   6.624  0.0108 -0.6833 -0.1515
 2131SOL     OW23534   5.990   4.662   5.170  0.3848  0.0665 -0.4146
 2131SOL    HW123535   5.943   4.611   5.236  0.9031 -0.6814 -0.6139
 2131SOL    HW223536   5.973   4.616   5.087  1.2977 -0.1041 -0.5182
 2132SOL     OW23537   5.206   0.756   5.836  0.3053 -0.0659  0.1858
 2132SOL    HW123538   5.207   0.662   5.823 -1.4428  0.0116 -0.8339
 2132SOL    HW223539   5.115   0.777   5.858  0.8199  1.2917  1.1993
 2133SOL     OW23540   2.208   3.996   0.239 -0.3560 -0.2438  0.6218
 2133SOL    HW123541   2.265   3.951   0.176  0.7268  1.4861  0.3055
 2133SOL    HW223542   2.121   3.996   0.197  0.3441  0.9067 -0.9527
 2134SOL     OW23543   0.065   3.604   6.377 -0.2292  0.1230  0.7899
 2134SOL    HW123544   0.057   3.694   6.410 -0.9119 -0.4327  2.1911
 2134SOL    HW223545   0.157   3.582   6.394  0.6285  1.3218 -1.7231
 2135SOL     OW23546   1.853   6.496   0.696 -0.0022 -0.1266 -0.2644
 2135SOL    HW123547   1.921   6.482   0.761  1.4861  0.4834 -1.6151
 2135SOL    HW223548   1.900   6.525   0.618 -1.8699  0.9185 -1.0714
 2136SOL     OW23549   4.089   0.205   6.644  0.0385  0.1548  0.1072
 2136SOL    HW123550   3.995   0.212   6.626 -0.2083  0.3340  1.4266
 2136SOL    HW223551   4.095   0.150   6.722  1.0043  0.4944  0.2825
 2137SOL     OW23552   2.914   1.339   6.949  0.1324 -0.5754 -0.6558
 2137SOL    HW123553   2.910   1.253   6.991  0.7670  0.1901  1.0541
 2137SOL    HW223554   2.991   1.381   6.987 -1.1128  1.4027 -0.1691
 2138SOL     OW23555   3.446   5.403   0.436  0.1149  0.1113  0.3223
 2138SOL    HW123556   3.467   5.478   0.491  0.6073  0.6200 -0.5328
 2138SOL    HW223557   3.430   5.331   0.498 -0.7199  0.9912  1.1563
 2139SOL     OW23558   5.082   6.181   1.618 -0.1566  0.1214  0.0636
 2139SOL    HW123559   5.020   6.204   1.686 -3.1306 -3.5005 -1.0983
 2139SOL    HW223560   5.157   6.239   1.633 -1.1892  0.5898  5.3801
 2140SOL     OW23561   1.076   4.194   6.435  0.5860 -0.0276 -0.0981
 2140SOL    HW123562   1.090   4.139   6.512  0.5934 -1.0358 -0.8034
 2140SOL    HW223563   1.067   4.132   6.363 -0.0936  0.8814 -0.8083
 2141SOL     OW23564   3.513   5.122   7.115 -0.7857 -0.3177  0.4505
 2141SOL    HW123565   3.574   5.049   7.131 -0.5811 -0.1903  0.2575
 2141SOL    HW223566   3.553   5.196   7.161 -0.0133  0.1412 -0.9197
 2142SOL     OW23567   3.922   6.538   1.928 -0.4956  0.0307  0.0294
 2142SOL    HW123568   3.932   6.566   2.019 -0.6840  0.1054  0.0270
 2142SOL    HW223569   3.864   6.603   1.889 -0.3271  0.0608 -0.1731
 2143SOL     OW23570   0.974   2.356   7.476  0.1964  0.7446  0.3316
 2143SOL    HW123571   0.972   2.261   7.473  0.8536  0.7121  0.8088
 2143SOL    HW223572   1.063   2.380   7.448  0.3921  1.1649  1.2793
 2144SOL     OW23573   5.577   1.535   1.147 -0.0629  0.7647 -0.3614
 2144SOL    HW123574   5.516   1.490   1.089 -0.3191  0.2880  0.2565
 2144SOL    HW223575   5.542   1.624   1.154 -1.9378 -0.0277  1.6182
 2145SOL     OW23576   2.540   5.924   1.957 -0.1815 -0.0468  0.0265
 2145SOL    HW123577   2.503   5.988   1.896 -1.2853 -0.2452  0.4597
 2145SOL    HW223578   2.618   5.891   1.913 -1.0465 -0.3199 -1.3764
 2146SOL     OW23579   5.040   4.432   0.267  0.0512 -0.7209 -0.3547
 2146SOL    HW123580   5.020   4.370   0.337  1.3671  0.5281  1.1970
 2146SOL    HW223581   5.119   4.478   0.297  0.0681  0.5681 -2.1950
 2147SOL     OW23582   3.600   6.168   1.258  0.2146 -0.0714 -0.0539
 2147SOL    HW123583   3.517   6.128   1.282  1.0183 -2.7965 -1.3748
 2147SOL    HW223584   3.657   6.153   1.333 -0.5756  2.6152  1.2491
 2148SOL     OW23585   5.771   1.615   7.019  0.4396 -0.1045 -0.3498
 2148SOL    HW123586   5.712   1.690   7.026 -1.7597 -1.7105 -0.7902
 2148SOL    HW223587   5.802   1.616   6.929  0.7306  0.4694 -0.2485
 2149SOL     OW23588   3.143   6.425   4.980  0.5777  0.1284 -0.2513
 2149SOL    HW123589   3.109   6.503   5.024  2.5766  0.7416  0.3107
 2149SOL    HW223590   3.199   6.460   4.911 -1.3049 -0.8363 -2.3728
 2150SOL     OW23591   2.867   2.999   6.852 -0.1754  0.0341  0.1665
 2150SOL    HW123592   2.865   2.964   6.941  0.3134  0.3050  0.2875
 2150SOL    HW223593   2.936   2.950   6.809 -1.5772 -1.3570 -0.6111
 2151SOL     OW23594   0.748   6.106   0.714  0.0879 -0.2384  0.2311
 2151SOL    HW123595   0.843   6.117   0.710  0.1117 -0.4289  0.2565
 2151SOL    HW223596   0.731   6.026   0.665 -0.2266  0.6558 -1.1745
 2152SOL     OW23597   1.098   4.330   6.894 -0.1377  0.2529 -0.4258
 2152SOL    HW123598   1.134   4.248   6.926 -3.1459 -1.1399 -0.2404
 2152SOL    HW223599   1.007   4.330   6.924 -0.3174  3.6361 -0.5295
 2153SOL     OW23600   0.284   0.595   6.822 -0.0400 -0.1827 -0.0647
 2153SOL    HW123601   0.290   0.687   6.799  0.8670 -0.5349 -1.3501
 2153SOL    HW223602   0.194   0.583   6.852  0.5388  1.6565  2.7911
 2154SOL     OW23603   3.656   2.275   5.276 -0.2253  0.4747 -0.5070
 2154SOL    HW123604   3.696   2.208   5.221  0.4192  0.3614  0.0893
 2154SOL    HW223605   3.681   2.358   5.234  1.1287  0.4261  0.1758
 2155SOL     OW23606   2.418   3.611   7.250 -0.3909 -0.4388 -0.0459
 2155SOL    HW123607   2.343   3.624   7.192 -0.3507 -2.4984 -0.6297
 2155SOL    HW223608   2.473   3.688   7.235 -1.4584  0.1702 -1.0406
 2156SOL     OW23609   0.627   6.343   6.163 -1.0842 -0.2086  0.1190
 2156SOL    HW123610   0.548   6.364   6.212 -0.8204  2.1207 -0.3182
 2156SOL    HW223611   0.612   6.380   6.076  0.9689  1.6183  0.4249
 2157SOL     OW23612   2.505   6.270   2.226 -0.3199 -0.0141  0.0769
 2157SOL    HW123613   2.445   6.286   2.299  0.8240  1.4662  0.7403
 2157SOL    HW223614   2.533   6.180   2.238 -0.6195  0.0177  1.1156
 2158SOL     OW23615   4.548   6.524   1.538  0.3041  0.2455  0.2940
 2158SOL    HW123616   4.484   6.569   1.592  0.1014 -0.5062  0.6789
 2158SOL    HW223617   4.553   6.436   1.573 -0.0788 -0.3698 -1.1030
 2159SOL     OW23618   0.873   1.544   6.440 -0.5609  0.2054 -0.3869
 2159SOL    HW123619   0.877   1.481   6.512  2.6337  0.7942  0.0921
 2159SOL    HW223620   0.930   1.508   6.373  0.5143  2.0164 -0.5259
 2160SOL     OW23621   2.926   2.339   5.571  0.1130  0.1301  0.1311
 2160SOL    HW123622   2.838   2.377   5.566 -0.1135 -0.2643  0.9314
 2160SOL    HW223623   2.983   2.406   5.532 -0.7566 -0.4539 -2.3272
 2161SOL     OW23624   2.189   5.516   6.548 -0.3598  0.5281  0.9200
 2161SOL    HW123625   2.221   5.604   6.527  0.4276 -0.0185 -0.2859
 2161SOL    HW223626   2.147   5.486   6.468  4.2716 -2.3164 -0.8091
 2162SOL     OW23627   4.186   2.581   1.752 -0.2608  0.0212  0.1926
 2162SOL    HW123628   4.114   2.557   1.694  0.1355  0.0035 -0.3006
 2162SOL    HW223629   4.245   2.632   1.697  0.2831 -0.2729  0.4904
 2163SOL     OW23630   5.568   4.188   1.447  0.3001 -0.2445 -0.2188
 2163SOL    HW123631   5.610   4.263   1.488 -2.5726  2.1578 -1.3161
 2163SOL    HW223632   5.577   4.118   1.512  0.7920  1.7961  2.0794
 2164SOL     OW23633   0.205   6.441   0.996 -0.3245 -0.3348  0.1108
 2164SOL    HW123634   0.173   6.483   0.916 -0.5453  0.1881  0.4708
 2164SOL    HW223635   0.191   6.506   1.065 -1.3915 -1.2850  0.8245
 2165SOL     OW23636   1.556   3.436   0.862 -0.4795 -0.6137  0.2159
 2165SOL    HW123637   1.571   3.507   0.800  2.2610 -0.9093  0.4353
 2165SOL    HW223638   1.537   3.480   0.945 -0.1775 -0.1686  0.0482
 2166SOL     OW23639   0.323   6.261   6.685 -0.1516  0.0661  0.7270
 2166SOL    HW123640   0.245   6.288   6.638 -1.4486 -3.0957  0.8258
 2166SOL    HW223641   0.391   6.322   6.657 -1.9702  1.1517 -1.5852
 2167SOL     OW23642   0.659   0.751   1.121  0.2249 -0.7643 -0.1125
 2167SOL    HW123643   0.739   0.803   1.125  0.9010 -1.6844 -1.1477
 2167SOL    HW223644   0.686   0.663   1.144 -0.3686 -1.2117 -1.0552
 2168SOL     OW23645   3.676   4.242   0.266 -0.4030 -0.2603 -0.0882
 2168SOL    HW123646   3.659   4.325   0.221 -0.7262  0.2416  0.9288
 2168SOL    HW223647   3.724   4.190   0.203  0.8231  1.1244 -0.3557
 2169SOL     OW23648   5.782   3.805   7.366  0.0499  0.1723  0.4138
 2169SOL    HW123649   5.808   3.883   7.414 -0.4855 -0.5228  1.8940
 2169SOL    HW223650   5.688   3.816   7.352 -0.0640 -0.2988  0.8023
 2170SOL     OW23651   3.548   5.754   4.844  0.1371  0.0756 -0.0876
 2170SOL    HW123652   3.506   5.780   4.926 -1.2183 -1.4592 -0.2369
 2170SOL    HW223653   3.627   5.808   4.839 -0.7834  1.6557  1.2094
 2171SOL     OW23654   3.179   0.843   7.161 -0.1929 -0.0379 -0.4608
 2171SOL    HW123655   3.255   0.827   7.218 -0.9682 -0.0003  0.6093
 2171SOL    HW223656   3.147   0.930   7.187 -1.4669 -0.6561  0.1432
 2172SOL     OW23657   2.611   3.877   7.134  0.8868  0.3581 -0.5578
 2172SOL    HW123658   2.702   3.856   7.156  0.6849  0.1615  0.1099
 2172SOL    HW223659   2.578   3.925   7.210  0.4715  0.5442 -0.8525
 2173SOL     OW23660   3.366   5.806   6.974  0.1136 -0.5772 -0.3941
 2173SOL    HW123661   3.351   5.756   7.054 -0.8244  0.2162 -0.0497
 2173SOL    HW223662   3.310   5.764   6.908  0.2569 -0.7257 -0.4210
 2174SOL     OW23663   5.621   3.376   7.465 -0.3207 -0.0137 -0.0832
 2174SOL    HW123664   5.593   3.450   7.412  0.5567  0.4169  0.0372
 2174SOL    HW223665   5.592   3.397   7.553  0.5764  0.5629  0.0923
 2175SOL     OW23666   1.848   5.387   0.268  0.9044  0.0511 -0.3356
 2175SOL    HW123667   1.918   5.340   0.223  0.3097  1.2741 -2.6749
 2175SOL    HW223668   1.885   5.472   0.289  0.1041  0.7799 -1.7636
 2176SOL     OW23669   2.974   2.645   6.832 -0.1290 -0.5077  0.2071
 2176SOL    HW123670   2.965   2.550   6.845 -3.2818 -0.4937 -0.9857
 2176SOL    HW223671   2.989   2.680   6.920 -1.5691 -1.9364  1.0785
 2177SOL     OW23672   0.334   0.316   7.003 -0.3620  0.1396 -0.5749
 2177SOL    HW123673   0.384   0.392   7.035  0.7982 -0.1072 -1.6998
 2177SOL    HW223674   0.366   0.303   6.914 -0.3014 -1.8542 -0.3088
 2178SOL     OW23675   4.075   1.548   0.675 -0.1034  0.2593 -0.0249
 2178SOL    HW123676   3.998   1.602   0.695 -1.3836 -1.3610 -0.3513
 2178SOL    HW223677   4.105   1.578   0.589  0.4377  1.7466  0.6471
 2179SOL     OW23678   3.195   1.596   0.361  1.1208 -0.1293  0.1394
 2179SOL    HW123679   3.262   1.648   0.407  1.5264 -0.0307 -0.5489
 2179SOL    HW223680   3.114   1.645   0.374  1.4085  0.4141 -0.0730
 2180SOL     OW23681   0.575   2.528   0.532 -0.4280 -0.1288  0.2992
 2180SOL    HW123682   0.669   2.511   0.543 -0.1736  0.4019 -0.9641
 2180SOL    HW223683   0.556   2.600   0.592  0.3025  0.7811 -0.5461
 2181SOL     OW23684   5.267   6.358   7.395 -0.2238  0.6307  0.2091
 2181SOL    HW123685   5.173   6.365   7.382 -0.4572 -2.8006 -0.9498
 2181SOL    HW223686   5.276   6.325   7.485 -0.2497 -0.1789 -0.0744
 2182SOL     OW23687   2.665   6.399   6.719  0.0081 -0.1673  0.4356
 2182SOL    HW123688   2.753   6.379   6.687  0.1143 -0.8483  1.1152
 2182SOL    HW223689   2.608   6.385   6.643  0.5739  1.1682 -0.2543
 2183SOL     OW23690   3.961   0.172   1.705 -0.1759 -0.1989 -0.8806
 2183SOL    HW123691   4.052   0.162   1.677  0.0999 -0.1771 -0.0436
 2183SOL    HW223692   3.909   0.136   1.634  0.5627 -2.0273 -0.5306
 2184SOL     OW23693   5.555   0.265   6.463  0.7647  0.4303  0.1119
 2184SOL    HW123694   5.591   0.318   6.391 -0.4677  0.4122 -0.5506
 2184SOL    HW223695   5.484   0.216   6.422 -0.3929  0.9092  1.4933
 2185SOL     OW23696   2.708   3.301   7.385 -0.2809  0.1247  0.0147
 2185SOL    HW123697   2.794   3.283   7.347 -0.2760 -0.2921  0.2090
 2185SOL    HW223698   2.651   3.233   7.349 -0.3925  0.0372  0.3453
 2186SOL     OW23699   2.892   1.294   1.586 -0.3535  0.0284  0.5800
 2186SOL    HW123700   2.857   1.340   1.509 -2.6392 -0.1315  1.4376
 2186SOL    HW223701   2.959   1.353   1.620 -1.1939  1.3837 -0.0183
 2187SOL     OW23702   4.241   1.430   0.166 -0.2665  0.0768  0.2972
 2187SOL    HW123703   4.172   1.435   0.233  0.6444  0.1101  1.2521
 2187SOL    HW223704   4.323   1.437   0.215  0.4356 -0.3316 -0.7838
 2188SOL     OW23705   1.741   5.251   5.735 -0.2878  0.3092 -0.4372
 2188SOL    HW123706   1.818   5.305   5.756  1.4024 -1.8461 -0.8173
 2188SOL    HW223707   1.750   5.233   5.642 -0.5834 -0.9571 -0.2307
 2189SOL     OW23708   6.565   0.118   7.327  0.0637 -0.5776  0.2626
 2189SOL    HW123709   6.576   0.067   7.247 -0.7846 -2.2827  1.1821
 2189SOL    HW223710   6.484   0.085   7.367  0.1036  0.6901  1.5066
 2190SOL     OW23711   5.643   5.468   7.388 -0.0277  0.0932 -0.7757
 2190SOL    HW123712   5.602   5.530   7.328 -0.5134  0.6540  0.1087
 2190SOL    HW223713   5.571   5.438   7.445  0.5930  0.3731  0.1897
 2191SOL     OW23714   2.645   2.068   7.264  0.6588 -0.9599  0.2568
 2191SOL    HW123715   2.699   2.146   7.275  1.4281 -1.4430 -0.0211
 2191SOL    HW223716   2.613   2.048   7.352 -0.5108  0.3327  0.1546
 2192SOL     OW23717   3.907   3.960   1.795  0.1994  0.8570 -0.4775
 2192SOL    HW123718   3.966   3.892   1.763 -0.3405  0.4625 -0.6467
 2192SOL    HW223719   3.965   4.032   1.820  0.7868  0.2653 -0.1187
 2193SOL     OW23720   2.628   1.329   7.203 -0.2778  0.1709  0.4797
 2193SOL    HW123721   2.566   1.267   7.163  0.7594 -2.7104  2.9468
 2193SOL    HW223722   2.630   1.403   7.142 -4.5894 -0.4077 -0.7123
 2194SOL     OW23723   4.884   5.427   2.563  0.6453 -0.1247  0.2661
 2194SOL    HW123724   4.816   5.388   2.507  0.3243  0.1307  0.4698
 2194SOL    HW223725   4.965   5.384   2.536  0.3376 -0.7492  0.3071
 2195SOL     OW23726   1.238   5.136   0.474 -0.0185  0.4199  0.5544
 2195SOL    HW123727   1.280   5.160   0.557  1.3256  0.7035 -0.1676
 2195SOL    HW223728   1.253   5.042   0.465 -0.7342  0.2673  0.9348
 2196SOL     OW23729   2.882   3.469   0.508  0.2537 -0.4217  0.5746
 2196SOL    HW123730   2.797   3.449   0.468  1.0774 -1.5808 -0.6854
 2196SOL    HW223731   2.907   3.553   0.471 -0.4643  0.0706  1.1815
 2197SOL     OW23732   0.158   2.716   6.119  0.4623  0.5075 -0.0200
 2197SOL    HW123733   0.169   2.762   6.202 -0.0840  1.4573 -0.4516
 2197SOL    HW223734   0.131   2.784   6.057  2.0724  0.0917 -1.2849
 2198SOL     OW23735   4.986   2.310   0.407  0.2137 -0.2814 -0.4608
 2198SOL    HW123736   4.946   2.394   0.427  1.8305  0.2907  0.5922
 2198SOL    HW223737   4.913   2.253   0.382 -1.2641  0.6285  1.5592
 2199SOL     OW23738   4.306   2.391   2.277 -0.1493  0.2334 -0.2768
 2199SOL    HW123739   4.211   2.393   2.278 -0.2497  1.8156 -2.6072
 2199SOL    HW223740   4.332   2.483   2.266  1.5502 -0.3001 -1.1888
 2200SOL     OW23741   0.845   3.264   0.573  0.0276  0.1998 -0.1910
 2200SOL    HW123742   0.764   3.237   0.531  0.2834  0.4725 -0.8794
 2200SOL    HW223743   0.822   3.279   0.664 -0.7457  0.4913 -0.4311
 2201SOL     OW23744   4.012   2.044   0.041  0.3385  0.1573  0.1818
 2201SOL    HW123745   3.931   2.010   0.003 -0.5460  0.7178  1.5138
 2201SOL    HW223746   4.019   2.133   0.007 -0.2390  0.5159  0.9640
 2202SOL     OW23747   5.959   5.342   0.964 -0.5505 -0.8945 -0.6405
 2202SOL    HW123748   5.995   5.426   0.934  1.0633 -1.7337 -1.1769
 2202SOL    HW223749   6.028   5.278   0.945  0.1650 -1.7378  3.6787
 2203SOL     OW23750   6.375   5.799   0.707  0.2822  0.4357  0.8688
 2203SOL    HW123751   6.323   5.859   0.762 -1.4544  0.2208 -0.4517
 2203SOL    HW223752   6.424   5.857   0.648 -1.2917  0.6247 -0.3169
 2204SOL     OW23753   5.817   0.587   5.301 -0.3009  0.3151 -0.0187
 2204SOL    HW123754   5.909   0.598   5.277 -0.1249 -0.0851  0.4525
 2204SOL    HW223755   5.800   0.658   5.363 -0.4786  0.7463 -0.5530
 2205SOL     OW23756   3.711   5.330   5.578 -0.0513 -0.1530  0.4923
 2205SOL    HW123757   3.668   5.355   5.496  3.8219 -1.9275 -2.3864
 2205SOL    HW223758   3.763   5.407   5.602  1.3327 -0.7022 -0.6450
 2206SOL     OW23759   6.309   1.481   6.687 -0.9146  0.2928 -0.2984
 2206SOL    HW123760   6.388   1.431   6.664 -0.1326  1.3086  0.0831
 2206SOL    HW223761   6.236   1.423   6.665 -0.0734 -0.4627 -1.1638
 2207SOL     OW23762   4.503   0.255   6.927  0.2942  0.2553  0.3966
 2207SOL    HW123763   4.476   0.174   6.970  1.0142 -0.2590 -0.0814
 2207SOL    HW223764   4.425   0.286   6.882  0.6009 -1.6416 -1.6506
 2208SOL     OW23765   1.983   2.430   5.916  0.3258 -0.0278  0.0511
 2208SOL    HW123766   2.000   2.506   5.860 -1.4996 -0.0841 -0.6424
 2208SOL    HW223767   1.894   2.403   5.893 -0.3380 -0.3156  2.7126
 2209SOL     OW23768   2.208   2.232   6.927 -0.2137 -0.0293 -0.6805
 2209SOL    HW123769   2.143   2.215   6.995  0.2718 -0.2363 -0.2631
 2209SOL    HW223770   2.164   2.292   6.867 -0.9260 -0.4813 -0.6198
 2210SOL     OW23771   5.276   1.457   1.178  0.3227  0.0732 -0.0014
 2210SOL    HW123772   5.321   1.398   1.118  1.8952  0.5970  0.6000
 2210SOL    HW223773   5.231   1.400   1.240 -3.5159 -0.5632 -3.0191
 2211SOL     OW23774   2.202   1.123   6.310 -0.4845 -0.2396  0.4470
 2211SOL    HW123775   2.109   1.132   6.289  0.1191  1.7109 -1.8415
 2211SOL    HW223776   2.236   1.062   6.245  0.3764  1.5769 -0.9148
 2212SOL     OW23777   1.575   1.923   5.395 -0.3932 -0.0706  0.6876
 2212SOL    HW123778   1.669   1.915   5.409 -0.0945 -1.2183 -1.4997
 2212SOL    HW223779   1.566   1.993   5.331 -1.0497  0.1068  0.9628
 2213SOL     OW23780   6.195   6.385   1.303 -0.3218  0.7887 -0.4243
 2213SOL    HW123781   6.267   6.352   1.249 -0.4438  0.9388 -0.6818
 2213SOL    HW223782   6.161   6.308   1.348 -1.2751  0.3699 -1.7916
 2214SOL     OW23783   5.144   1.630   1.030 -0.3724  0.7878 -0.1433
 2214SOL    HW123784   5.059   1.622   1.072 -0.0449  0.1547  0.4149
 2214SOL    HW223785   5.202   1.574   1.082  0.6468  2.0878  0.1650
 2215SOL     OW23786   3.901   6.156   6.815  0.6629  0.9963  0.4139
 2215SOL    HW123787   3.864   6.224   6.872 -1.8520 -0.6486  0.9235
 2215SOL    HW223788   3.950   6.099   6.874  0.7120  1.0333  0.4082
 2216SOL     OW23789   3.316   3.926   6.163 -0.8249  0.0864 -0.3571
 2216SOL    HW123790   3.360   3.918   6.078 -1.2471  0.7909 -0.6495
 2216SOL    HW223791   3.360   3.999   6.206 -0.3538 -0.5158  0.1992
 2217SOL     OW23792   6.388   4.893   6.507 -0.3870  0.3460 -0.0964
 2217SOL    HW123793   6.303   4.868   6.471 -0.5759  0.8034  0.0229
 2217SOL    HW223794   6.392   4.988   6.495  0.5680  0.2060 -1.0898
 2218SOL     OW23795   5.646   5.099   5.762 -0.2974  0.0853  0.4671
 2218SOL    HW123796   5.666   5.058   5.846 -0.8270 -1.0793  0.0425
 2218SOL    HW223797   5.617   5.188   5.785  0.6973  0.1847  1.4110
 2219SOL     OW23798   3.756   1.771   5.431  0.2776 -0.0682 -0.2475
 2219SOL    HW123799   3.798   1.747   5.514  0.6299  0.3399 -0.3017
 2219SOL    HW223800   3.780   1.701   5.370 -0.8229 -0.9089  0.2487
 2220SOL     OW23801   2.656   0.136   0.295 -0.7542 -0.9386  0.4577
 2220SOL    HW123802   2.705   0.090   0.363  0.5746  0.7826  0.7247
 2220SOL    HW223803   2.721   0.155   0.227 -1.8633 -1.8009 -0.8889
 2221SOL     OW23804   6.279   5.427   6.688 -0.7501 -0.4910 -0.0748
 2221SOL    HW123805   6.315   5.488   6.752  0.6728  1.7987 -2.8171
 2221SOL    HW223806   6.203   5.472   6.651 -0.3360 -0.8067 -1.3761
 2222SOL     OW23807   1.303   0.871   6.284  0.3481 -0.0967 -0.4274
 2222SOL    HW123808   1.259   0.933   6.225  3.0592  0.6748 -1.8138
 2222SOL    HW223809   1.289   0.908   6.371 -0.8786  0.6277 -0.8964
 2223SOL     OW23810   1.570   5.427   0.394 -0.4123  0.4596  0.5753
 2223SOL    HW123811   1.570   5.334   0.371 -0.1921  1.1279 -2.6654
 2223SOL    HW223812   1.660   5.455   0.379 -1.2965  1.9887 -3.0078
 2224SOL     OW23813   5.094   0.222   1.377  0.0518  0.0635  0.0904
 2224SOL    HW123814   5.063   0.188   1.461  1.0595 -2.1235 -0.3426
 2224SOL    HW223815   5.015   0.255   1.334 -0.5921  0.5065  1.5716
 2225SOL     OW23816   4.871   0.672   5.219 -0.3710 -0.2060 -0.0916
 2225SOL    HW123817   4.809   0.721   5.165 -3.0054 -0.0244  2.8457
 2225SOL    HW223818   4.931   0.739   5.252  0.4611 -0.1340 -1.6408
 2226SOL     OW23819   5.647   1.369   6.928 -0.2477 -0.0150  0.3149
 2226SOL    HW123820   5.725   1.376   6.872  1.4361  0.7321  2.6095
 2226SOL    HW223821   5.656   1.442   6.990 -2.1102 -0.7191  1.4724
 2227SOL     OW23822   5.667   5.450   6.113  0.2286 -0.7604 -0.4176
 2227SOL    HW123823   5.695   5.400   6.189 -0.5043  1.2392  1.2637
 2227SOL    HW223824   5.665   5.541   6.143 -1.7228 -0.0813 -2.3198
 2228SOL     OW23825   2.837   4.509   5.233 -0.1507 -0.0712  0.2517
 2228SOL    HW123826   2.766   4.490   5.294 -0.0323  0.0962  0.4454
 2228SOL    HW223827   2.860   4.425   5.194  0.6545 -0.4124  1.3976
 2229SOL     OW23828   2.262   3.659   7.019  0.0828  0.5350  0.2031
 2229SOL    HW123829   2.326   3.697   6.959 -0.8213 -0.1160 -1.2278
 2229SOL    HW223830   2.239   3.576   6.980 -2.4892  1.2442  0.0494
 2230SOL     OW23831   4.671   2.235   0.716  0.1455 -0.0391 -0.4710
 2230SOL    HW123832   4.595   2.228   0.659  0.2914  0.3090 -0.7122
 2230SOL    HW223833   4.737   2.180   0.675  0.7084  1.2679 -1.4070
 2231SOL     OW23834   3.605   5.503   5.382 -0.2282  0.4935 -0.0145
 2231SOL    HW123835   3.572   5.447   5.312  0.0892  0.2518  0.0314
 2231SOL    HW223836   3.608   5.591   5.343 -4.8907  1.4297  1.1360
 2232SOL     OW23837   1.600   4.298   1.459  0.5557  0.2714  0.1762
 2232SOL    HW123838   1.612   4.227   1.522 -0.8649  0.2953  0.5185
 2232SOL    HW223839   1.505   4.306   1.450  0.6573  2.3106  0.3474
 2233SOL     OW23840   2.676   4.291   0.813 -0.3134 -0.0493 -0.3600
 2233SOL    HW123841   2.629   4.210   0.793 -1.3445  0.2481  0.7188
 2233SOL    HW223842   2.760   4.282   0.769 -0.5167 -1.5898 -0.4877
 2234SOL     OW23843   2.232   1.982   6.039 -0.4080  0.1844 -0.5592
 2234SOL    HW123844   2.316   2.026   6.025 -0.5389  0.3714 -0.7700
 2234SOL    HW223845   2.166   2.050   6.023 -0.6469 -0.3211 -1.9251
 2235SOL     OW23846   4.556   3.829   6.170 -0.0456 -0.4807  0.0108
 2235SOL    HW123847   4.619   3.836   6.241 -0.3620 -1.1712  0.3752
 2235SOL    HW223848   4.596   3.876   6.097  0.7111 -0.5728  0.3569
 2236SOL     OW23849   0.981   5.503   0.454  0.2168 -0.4062 -0.2634
 2236SOL    HW123850   0.898   5.461   0.430 -0.2873  1.2946 -1.7493
 2236SOL    HW223851   1.026   5.439   0.508 -1.4884 -1.9139 -0.5464
 2237SOL     OW23852   5.400   0.209   1.486 -0.4108 -0.2370  0.0801
 2237SOL    HW123853   5.342   0.274   1.448 -2.1158 -1.3322  0.7194
 2237SOL    HW223854   5.375   0.204   1.578  1.7250  0.3123  0.7538
 2238SOL     OW23855   2.239   2.560   7.045 -0.2040  0.1442  0.0013
 2238SOL    HW123856   2.291   2.484   7.069 -0.7883 -0.5987 -0.9881
 2238SOL    HW223857   2.170   2.564   7.111  0.1185  0.1247  0.3445
 2239SOL     OW23858   0.436   3.622   0.692 -0.5614 -0.1741 -0.2537
 2239SOL    HW123859   0.499   3.565   0.736 -2.2272 -1.1831  0.9328
 2239SOL    HW223860   0.464   3.711   0.716  1.6368 -0.4454 -1.5404
 2240SOL     OW23861   2.252   6.260   2.338  0.7961 -0.2349  0.5046
 2240SOL    HW123862   2.228   6.179   2.294 -1.4111 -1.3649  3.4395
 2240SOL    HW223863   2.205   6.328   2.290  0.2319 -1.1106 -0.2251
 2241SOL     OW23864   4.880   5.806   0.575 -0.1666 -0.0614  0.1903
 2241SOL    HW123865   4.824   5.730   0.560  0.0726 -0.5906  1.7650
 2241SOL    HW223866   4.905   5.799   0.668  3.5575 -0.6285 -0.6844
 2242SOL     OW23867   3.172   0.645   6.520  0.0716 -0.2899 -0.6215
 2242SOL    HW123868   3.164   0.737   6.546  1.5943 -0.5910  1.0964
 2242SOL    HW223869   3.156   0.596   6.600  0.0324 -1.5160 -1.3571
 2243SOL     OW23870   2.914   0.884   6.341  0.1381 -0.3448 -0.1027
 2243SOL    HW123871   2.874   0.870   6.427 -0.7797  0.2600 -0.4195
 2243SOL    HW223872   2.997   0.836   6.345 -0.9097 -2.2082  0.3263
 2244SOL     OW23873   5.990   4.438   0.598 -0.1103 -0.4661 -0.0879
 2244SOL    HW123874   5.975   4.532   0.598  0.0499 -0.4374 -0.7177
 2244SOL    HW223875   6.084   4.428   0.583  0.2067 -0.6928  1.8335
 2245SOL     OW23876   5.690   6.166   1.531 -0.0676  0.3363  0.3946
 2245SOL    HW123877   5.735   6.143   1.612  0.1403 -0.9685 -0.0791
 2245SOL    HW223878   5.671   6.260   1.540 -2.9135 -0.3512  3.3838
 2246SOL     OW23879   0.016   4.478   0.874 -0.1003 -0.4597 -0.3391
 2246SOL    HW123880   0.049   4.398   0.834 -0.2975 -1.2783  1.0844
 2246SOL    HW223881   0.064   4.486   0.957  0.6012  1.4218 -0.8691
 2247SOL     OW23882   5.278   1.809   0.260 -0.3567  0.2269  0.0437
 2247SOL    HW123883   5.219   1.877   0.229  0.0740  1.3093  1.4972
 2247SOL    HW223884   5.359   1.855   0.283 -0.0036 -0.7797  0.9307
 2248SOL     OW23885   6.297   3.683   5.860  0.0656 -0.3432 -0.5257
 2248SOL    HW123886   6.347   3.652   5.935 -1.2787  1.6620  1.2929
 2248SOL    HW223887   6.241   3.609   5.836  1.4860 -1.4664 -0.4760
 2249SOL     OW23888   6.089   5.212   0.600 -0.2157  0.0198  0.0329
 2249SOL    HW123889   6.170   5.210   0.652  0.0460  0.1580 -0.3674
 2249SOL    HW223890   6.118   5.234   0.511 -0.6205 -0.5809 -0.2540
 2250SOL     OW23891   3.619   0.335   7.088  0.0948  0.3505 -0.4652
 2250SOL    HW123892   3.691   0.349   7.027  1.1128 -0.0038  0.6183
 2250SOL    HW223893   3.612   0.240   7.094  0.3384  0.3833  0.3518
 2251SOL     OW23894   3.892   4.227   0.544 -0.2864  0.0477 -0.2698
 2251SOL    HW123895   3.920   4.319   0.542  1.6864 -0.4896  0.1886
 2251SOL    HW223896   3.937   4.187   0.469 -2.6975 -0.1874 -1.6848
 2252SOL     OW23897   5.469   5.825   1.956 -0.9530  0.0308 -0.1940
 2252SOL    HW123898   5.492   5.859   1.870  0.3004 -0.5143 -0.0993
 2252SOL    HW223899   5.509   5.738   1.959 -0.5349  0.2472  1.1258
 2253SOL     OW23900   3.889   4.414   7.082  0.0657 -0.0129  0.1368
 2253SOL    HW123901   3.951   4.466   7.032  0.0159 -0.1314 -0.0500
 2253SOL    HW223902   3.803   4.453   7.064  0.0836  0.1492  0.3925
 2254SOL     OW23903   6.344   3.511   2.546  0.1154  0.0540 -0.0132
 2254SOL    HW123904   6.280   3.581   2.541  0.4238  0.2645 -1.0929
 2254SOL    HW223905   6.429   3.555   2.548  0.2658 -0.1832  2.1571
 2255SOL     OW23906   6.233   5.390   5.618 -0.0119  0.0679  0.6313
 2255SOL    HW123907   6.273   5.343   5.545 -0.7518  1.6039 -0.8391
 2255SOL    HW223908   6.148   5.347   5.630 -0.5175  0.7290 -0.4368
 2256SOL     OW23909   5.965   3.396   0.212  0.5270  0.3504  0.3150
 2256SOL    HW123910   5.961   3.444   0.295  0.7318  0.8829  0.0226
 2256SOL    HW223911   6.046   3.426   0.171  2.2760 -2.4886  1.4571
 2257SOL     OW23912   2.456   3.349   7.206  0.2886 -0.2857  0.2359
 2257SOL    HW123913   2.473   3.442   7.223 -0.4103 -0.2795  0.9267
 2257SOL    HW223914   2.502   3.332   7.123  0.9812  0.5024  0.4361
 2258SOL     OW23915   2.105   1.516   0.153  0.0113 -0.2365  0.1528
 2258SOL    HW123916   2.060   1.434   0.174 -2.4912  0.5921 -1.4783
 2258SOL    HW223917   2.050   1.558   0.087  0.6767  3.1978  1.5101
 2259SOL     OW23918   2.031   0.354   0.444 -0.6179 -0.1233  0.7331
 2259SOL    HW123919   2.091   0.311   0.505 -0.0559  0.4128  0.5620
 2259SOL    HW223920   2.069   0.340   0.358 -1.0166 -0.2241  0.5680
 2260SOL     OW23921   3.955   0.024   2.175 -0.5138  0.0103  0.2148
 2260SOL    HW123922   3.987  -0.063   2.197 -0.3275 -0.1370 -0.6031
 2260SOL    HW223923   3.916   0.057   2.256 -3.4034 -2.0506 -0.1601
 2261SOL     OW23924   6.339   0.851   0.077  0.0858  0.4663  0.3169
 2261SOL    HW123925   6.368   0.936   0.041 -0.9375  1.4560  1.7249
 2261SOL    HW223926   6.246   0.848   0.057  0.2438 -0.6629 -0.3088
 2262SOL     OW23927   1.983   4.528   6.341  0.2821  0.5165  0.0325
 2262SOL    HW123928   1.957   4.560   6.255  1.7394 -0.1923 -0.7006
 2262SOL    HW223929   2.013   4.606   6.387  0.4309  0.7545 -0.4573
 2263SOL     OW23930   1.285   2.895   0.003 -0.3474  0.3106  0.3026
 2263SOL    HW123931   1.307   2.891   0.096 -0.3799  0.8990  0.3417
 2263SOL    HW223932   1.313   2.811  -0.032 -2.0907 -0.7217  1.2172
 2264SOL     OW23933   6.295   3.011   6.059 -0.6226  0.0051 -0.2646
 2264SOL    HW123934   6.310   3.104   6.073 -0.8012  0.1293 -0.8810
 2264SOL    HW223935   6.360   2.967   6.115  1.5376  0.4974 -2.2483
 2265SOL     OW23936   5.603   4.847   2.067  0.2902  0.1511  0.0905
 2265SOL    HW123937   5.657   4.842   1.987  0.7120  1.1368  0.3115
 2265SOL    HW223938   5.636   4.776   2.122 -0.8936 -1.4452 -1.1164
 2266SOL     OW23939   1.291   3.562   0.077  0.2318 -0.2178  0.3139
 2266SOL    HW123940   1.247   3.494   0.026  1.8325 -1.8506  0.9920
 2266SOL    HW223941   1.373   3.578   0.031 -0.7922  2.5739 -0.7722
 2267SOL     OW23942   0.865   4.907   5.983  0.0952  0.7097  0.6708
 2267SOL    HW123943   0.868   4.909   5.888  0.3713  0.9107  0.6819
 2267SOL    HW223944   0.870   4.999   6.009 -0.4292  0.6820  0.8666
 2268SOL     OW23945   3.298   4.404   7.223  0.0526  0.6530  0.4462
 2268SOL    HW123946   3.245   4.467   7.175  1.4940  1.6866  0.1616
 2268SOL    HW223947   3.306   4.441   7.311  1.8329  1.4953 -0.0242
 2269SOL     OW23948   0.412   0.435   6.237 -0.8138 -0.6173 -0.4319
 2269SOL    HW123949   0.393   0.435   6.143 -0.7486  0.7962 -0.4686
 2269SOL    HW223950   0.418   0.528   6.260  2.2731 -0.8911  0.3477
 2270SOL     OW23951   4.979   4.907   1.400  0.5179  0.3711  0.4106
 2270SOL    HW123952   4.962   4.978   1.462 -0.9814 -0.0116  0.4823
 2270SOL    HW223953   4.932   4.933   1.320 -3.2657 -2.0798  1.5506
 2271SOL     OW23954   0.656   2.927   5.284  0.1672 -0.3816 -0.4109
 2271SOL    HW123955   0.588   2.878   5.237 -0.3779 -2.4213  2.2716
 2271SOL    HW223956   0.608   2.995   5.332  0.1070 -1.1616  0.6638
 2272SOL     OW23957   3.579   2.127   6.742  0.3029 -0.1441 -0.3063
 2272SOL    HW123958   3.544   2.108   6.829  2.0627 -0.8397  0.3078
 2272SOL    HW223959   3.643   2.196   6.757  1.1614 -0.7900 -0.8946
 2273SOL     OW23960   5.296   2.817   0.105  0.0712  0.2129 -0.5142
 2273SOL    HW123961   5.389   2.837   0.095  0.0640 -0.0111 -1.0819
 2273SOL    HW223962   5.251   2.887   0.058 -0.0299  0.0425 -0.6721
 2274SOL     OW23963   3.595   6.132   5.531 -0.2289  0.3099  0.5466
 2274SOL    HW123964   3.624   6.191   5.462 -1.6667 -0.1899 -0.5261
 2274SOL    HW223965   3.572   6.190   5.604 -0.1506  0.9653  0.0605
 2275SOL     OW23966   0.597   5.318   5.962 -0.5824  0.2054  0.2970
 2275SOL    HW123967   0.532   5.300   6.030 -0.4706  1.0639  0.6410
 2275SOL    HW223968   0.546   5.355   5.890 -0.7582 -1.0658 -0.2645
 2276SOL     OW23969   0.742   1.197   0.356  0.7282  0.5310 -0.1110
 2276SOL    HW123970   0.816   1.142   0.382  0.5384 -0.0188 -0.6953
 2276SOL    HW223971   0.696   1.217   0.437  0.7188 -0.3053  0.0988
 2277SOL     OW23972   5.949   3.929   1.044 -0.5348  0.4507 -0.5856
 2277SOL    HW123973   5.935   3.996   0.978  0.8606  0.8802 -0.4733
 2277SOL    HW223974   6.032   3.889   1.021 -0.3001  0.2222  0.5848
 2278SOL     OW23975   5.926   5.811   1.269  0.0325  0.2624 -0.1279
 2278SOL    HW123976   5.890   5.900   1.270  0.1922  0.3420  2.0306
 2278SOL    HW223977   5.850   5.756   1.250 -0.2491  0.7741 -0.5443
 2279SOL     OW23978   3.272   3.948   0.824  0.6077 -0.1722 -0.3554
 2279SOL    HW123979   3.288   4.032   0.869 -2.2952  0.3849 -0.1908
 2279SOL    HW223980   3.316   3.958   0.740  1.7598  0.8218  0.3231
 2280SOL     OW23981   4.972   6.349   6.475 -0.6446 -0.1543 -0.6422
 2280SOL    HW123982   4.952   6.423   6.417  0.3471  1.1290  0.5727
 2280SOL    HW223983   5.032   6.294   6.424 -1.3246 -0.0970 -1.5295
 2281SOL     OW23984   0.043   3.324   0.178 -0.0711 -0.0969 -0.3554
 2281SOL    HW123985   0.132   3.357   0.188  0.1612 -0.5330 -0.9526
 2281SOL    HW223986   0.052   3.229   0.173 -0.5407 -0.1299 -0.6887
 2282SOL     OW23987   0.598   0.849   0.248 -0.1987 -0.0037 -0.4146
 2282SOL    HW123988   0.689   0.860   0.222 -0.1453  2.8973  0.5465
 2282SOL    HW223989   0.548   0.898   0.182 -0.7254  0.9544  0.6485
 2283SOL     OW23990   1.691   0.925   6.810 -0.3221  0.6383 -0.2954
 2283SOL    HW123991   1.685   0.923   6.905 -1.5991 -0.4142 -0.3798
 2283SOL    HW223992   1.752   0.855   6.788 -3.7685 -2.6507 -0.4214
 2284SOL     OW23993   2.097   2.334   1.122  0.2405 -0.3828  0.1176
 2284SOL    HW123994   2.116   2.424   1.095 -0.5687 -0.6164 -1.3442
 2284SOL    HW223995   2.116   2.282   1.044  0.5911 -1.4834  0.9167
 2285SOL     OW23996   5.111   3.529   2.147  0.3515 -0.5527 -0.5283
 2285SOL    HW123997   5.070   3.510   2.231 -0.0523 -0.4643 -0.7028
 2285SOL    HW223998   5.163   3.451   2.127  0.5293 -0.5315 -0.1501
 2286SOL     OW23999   5.838   5.124   1.200 -0.5717 -0.4310  0.1062
 2286SOL    HW124000   5.791   5.074   1.133 -0.9472  0.3868 -0.2641
 2286SOL    HW224001   5.844   5.065   1.275  0.4418 -1.6034 -0.8687
 2287SOL     OW24002   4.956   1.553   5.416  0.2029 -0.0761 -0.9702
 2287SOL    HW124003   4.994   1.465   5.412 -0.4891 -0.5449  1.4979
 2287SOL    HW224004   4.871   1.544   5.374 -0.0051 -0.6848 -0.4351
 2288SOL     OW24005   2.954   5.957   6.088 -0.2207  0.0800 -0.6058
 2288SOL    HW124006   2.963   5.965   5.993 -2.5521  0.7036 -0.8401
 2288SOL    HW224007   2.984   6.042   6.122 -0.9747  0.4827 -0.9364
 2289SOL     OW24008   5.805   5.650   0.821  0.0833  0.0577 -0.3926
 2289SOL    HW124009   5.890   5.650   0.863 -0.0611 -0.3777 -0.0880
 2289SOL    HW224010   5.816   5.593   0.745 -0.3308 -1.2770  0.5067
 2290SOL     OW24011   5.001   0.547   6.848  0.2289  0.3258  0.3433
 2290SOL    HW124012   4.916   0.502   6.844  0.4265  0.0170 -2.2614
 2290SOL    HW224013   4.982   0.635   6.816  0.2930  1.4481  3.1705
 2291SOL     OW24014   3.390   1.851   5.909  0.1472 -0.6185 -0.2624
 2291SOL    HW124015   3.306   1.853   5.863  0.3387  0.4349 -0.5817
 2291SOL    HW224016   3.389   1.928   5.965  1.3318  0.0011 -1.0537
 2292SOL     OW24017   6.461   1.919   6.351  0.3230  0.1541  0.2205
 2292SOL    HW124018   6.440   2.011   6.371  0.5120  0.7103 -1.9324
 2292SOL    HW224019   6.538   1.901   6.405  0.9882  1.6464 -0.1774
 2293SOL     OW24020   1.312   1.882   0.481  0.9634  0.4099  0.1424
 2293SOL    HW124021   1.239   1.936   0.451  1.0124 -0.1309 -0.9790
 2293SOL    HW224022   1.288   1.858   0.571 -0.9393 -0.9053 -0.6379
 2294SOL     OW24023   1.413   6.139   0.706 -0.5223 -0.3707  0.2649
 2294SOL    HW124024   1.431   6.231   0.687  2.1202 -0.1900  2.7679
 2294SOL    HW224025   1.321   6.137   0.732 -0.6134  1.5916  0.2364
 2295SOL     OW24026   3.536   6.004   0.229  0.2412 -0.0847 -0.4998
 2295SOL    HW124027   3.540   6.096   0.257 -0.8244  0.2570 -1.3588
 2295SOL    HW224028   3.602   5.960   0.282  0.2104  1.0224  0.5247
 2296SOL     OW24029   5.109   5.195   7.011 -0.1440  0.0050 -0.0814
 2296SOL    HW124030   5.134   5.114   7.056  0.6795 -1.1558 -2.4600
 2296SOL    HW224031   5.034   5.228   7.061  0.2867 -1.5331  1.6885
 2297SOL     OW24032   2.930   2.418   0.240 -0.2419 -0.1766 -0.0278
 2297SOL    HW124033   2.942   2.325   0.225  0.3143 -0.2589  0.8052
 2297SOL    HW224034   2.916   2.426   0.334  0.8438  0.6645  0.0959
 2298SOL     OW24035   4.318   2.183   5.450 -0.6719 -0.0195 -0.4763
 2298SOL    HW124036   4.298   2.269   5.487  0.9237 -0.2647  1.1723
 2298SOL    HW224037   4.354   2.201   5.364 -1.2711  0.8793 -0.5456
 2299SOL     OW24038   1.556   1.838   7.151  0.3926 -0.0801 -0.0626
 2299SOL    HW124039   1.507   1.910   7.113  0.6878 -1.3699 -3.2025
 2299SOL    HW224040   1.546   1.766   7.088  2.5531 -1.8195  1.4123
 2300SOL     OW24041   6.329   0.791   0.846  0.5433  0.5073 -0.4419
 2300SOL    HW124042   6.267   0.826   0.910  0.7559 -2.0361  1.3225
 2300SOL    HW224043   6.291   0.812   0.761 -0.4182  2.8758  0.4960
 2301SOL     OW24044   3.198   1.014   6.876 -0.5570 -0.4003 -0.2454
 2301SOL    HW124045   3.256   0.958   6.927  2.3617  3.9406  1.8589
 2301SOL    HW224046   3.133   1.044   6.939 -2.6970 -1.9567 -1.5774
 2302SOL     OW24047   5.331   5.177   5.512  0.3454 -0.0379  0.0853
 2302SOL    HW124048   5.334   5.259   5.463 -0.0319 -0.2490 -0.2921
 2302SOL    HW224049   5.401   5.124   5.474 -0.3390 -0.4306 -0.6381
 2303SOL     OW24050   5.956   1.670   0.161 -0.2243  0.3300 -0.1373
 2303SOL    HW124051   5.958   1.578   0.187 -0.4935  0.3382 -0.0864
 2303SOL    HW224052   5.906   1.671   0.080  0.3460  0.3452 -0.4938
 2304SOL     OW24053   6.600   4.750   6.837  0.1916  0.4791 -0.5325
 2304SOL    HW124054   6.590   4.772   6.744  1.1718  2.5274 -0.2185
 2304SOL    HW224055   6.629   4.832   6.878  1.0103 -0.6856  1.3688
 2305SOL     OW24056   2.843   4.988   4.052 -0.2293 -0.5183  0.5305
 2305SOL    HW124057   2.860   5.053   3.985 -0.6730 -0.7500  0.1871
 2305SOL    HW224058   2.846   4.904   4.006 -1.2580 -0.6309  0.6543
 2306SOL     OW24059   2.423   6.428   0.472  0.4451  0.3553 -0.1502
 2306SOL    HW124060   2.393   6.493   0.535  2.0224  1.2005 -0.1985
 2306SOL    HW224061   2.512   6.457   0.449  0.1866 -0.3274 -2.2112
 2307SOL     OW24062   5.971   3.750   5.756 -0.5206  0.5226 -0.5651
 2307SOL    HW124063   6.016   3.746   5.672  0.9140  2.3908  0.0466
 2307SOL    HW224064   6.004   3.674   5.805 -1.5941 -0.7502 -1.7344
 2308SOL     OW24065   1.761   0.108   7.046 -0.5820  0.7079 -0.0953
 2308SOL    HW124066   1.670   0.132   7.063 -0.4212  0.9523  0.4548
 2308SOL    HW224067   1.794   0.079   7.131 -0.0666  0.8892 -0.2330
 2309SOL     OW24068   6.398   6.487   0.946  0.4345 -0.4136 -0.1463
 2309SOL    HW124069   6.430   6.537   1.021 -0.5682 -0.9616  0.6759
 2309SOL    HW224070   6.314   6.527   0.924  0.1539 -1.0039 -0.1935
 2310SOL     OW24071   5.122   3.028   0.062 -0.0561 -0.4218 -0.1709
 2310SOL    HW124072   5.037   2.996   0.094  0.6170 -1.7425  0.3880
 2310SOL    HW224073   5.103   3.063  -0.025 -1.4086  0.5619  0.4707
 2311SOL     OW24074   5.316   0.950   7.273 -0.7375 -0.2022  0.1964
 2311SOL    HW124075   5.226   0.982   7.282 -0.4513  0.1560  2.5624
 2311SOL    HW224076   5.367   1.029   7.255 -0.5519  0.0959  1.8942
 2312SOL     OW24077   2.267   4.284   0.878  0.6078  0.3066  0.3185
 2312SOL    HW124078   2.273   4.266   0.971  3.6346 -1.7968 -0.1249
 2312SOL    HW224079   2.285   4.378   0.870 -0.3123  0.6405  1.8355
 2313SOL     OW24080   1.384   3.072   5.343 -0.2555 -0.3101  0.1476
 2313SOL    HW124081   1.457   3.011   5.328 -0.2516 -0.2338 -0.1521
 2313SOL    HW224082   1.327   3.060   5.267 -0.3937 -0.1380  0.2241
 2314SOL     OW24083   5.730   4.590   7.415 -0.5419 -0.5909  0.7832
 2314SOL    HW124084   5.636   4.599   7.399 -0.3227 -0.7711 -0.8194
 2314SOL    HW224085   5.763   4.549   7.335  1.0574  0.4298  0.8873
 2315SOL     OW24086   2.643   4.273   5.879  0.4255  0.0060 -0.2423
 2315SOL    HW124087   2.634   4.363   5.850  0.9916  0.8649  2.0931
 2315SOL    HW224088   2.667   4.279   5.971 -1.5186 -2.5355  0.5473
 2316SOL     OW24089   0.048   6.351   6.087  0.0331  0.3169  0.0027
 2316SOL    HW124090   0.023   6.283   6.024 -0.2105 -1.4773  1.9048
 2316SOL    HW224091   0.143   6.344   6.094  0.0665  0.5562 -0.1889
 2317SOL     OW24092   4.073   2.240   0.248  0.2242 -0.0469  0.3623
 2317SOL    HW124093   4.137   2.289   0.196 -0.3004  0.3642  0.0902
 2317SOL    HW224094   3.997   2.232   0.190 -0.2964  0.2429  1.0004
 2318SOL     OW24095   2.626   5.060   0.898 -0.4318  0.4327  0.1688
 2318SOL    HW124096   2.554   5.055   0.835 -0.9615  1.3947  0.6676
 2318SOL    HW224097   2.598   5.126   0.962  1.4486  1.8778 -0.3801
 2319SOL     OW24098   6.571   5.806   1.490  0.2771 -0.5816 -0.1858
 2319SOL    HW124099   6.524   5.789   1.572  0.0315  0.5881 -0.0544
 2319SOL    HW224100   6.654   5.844   1.517  1.2709 -2.5091 -0.4283
 2320SOL     OW24101   4.138   1.565   6.411  0.1148  0.0914  0.2671
 2320SOL    HW124102   4.216   1.618   6.396 -0.0229  0.9550  2.2738
 2320SOL    HW224103   4.166   1.475   6.396  1.2794  0.4599  0.1785
 2321SOL     OW24104   3.364   0.374   1.276 -0.2414 -0.2795  0.3962
 2321SOL    HW124105   3.429   0.433   1.236  0.9900 -3.2078 -2.4010
 2321SOL    HW224106   3.280   0.407   1.245  0.3766  0.2672 -0.7732
 2322SOL     OW24107   0.230   2.029   0.056 -0.6640 -0.1393  0.3517
 2322SOL    HW124108   0.292   2.101   0.052 -2.0560  1.4043  3.3202
 2322SOL    HW224109   0.269   1.966   0.116 -0.7628 -0.4523  0.0907
 2323SOL     OW24110   3.907   1.636   0.190 -0.4982 -0.0323 -0.2904
 2323SOL    HW124111   3.966   1.647   0.115  1.7999 -1.1130  1.2489
 2323SOL    HW224112   3.828   1.596   0.152  0.5161 -0.3660 -2.1769
 2324SOL     OW24113   6.468   3.111   6.431 -0.4275 -0.2499 -0.1889
 2324SOL    HW124114   6.526   3.171   6.477 -0.8641 -0.0784  0.1428
 2324SOL    HW224115   6.380   3.143   6.450 -0.6033  0.1052 -1.5444
 2325SOL     OW24116   1.338   0.282   6.558 -0.3914  0.4127 -0.7170
 2325SOL    HW124117   1.410   0.296   6.496 -0.4427 -1.9812 -1.4413
 2325SOL    HW224118   1.261   0.318   6.514 -0.4242 -1.2499 -2.1285
 2326SOL     OW24119   1.479   2.260   7.332  0.0992  0.3552  0.1214
 2326SOL    HW124120   1.556   2.316   7.324  0.0085  0.4297 -0.2743
 2326SOL    HW224121   1.475   2.214   7.248  0.6501 -0.8610  0.7457
 2327SOL     OW24122   6.129   4.506   2.373 -0.1442 -0.4956 -0.3103
 2327SOL    HW124123   6.148   4.561   2.297  0.7323  0.0524  0.2898
 2327SOL    HW224124   6.104   4.568   2.442  1.1823 -0.7963  0.4753
 2328SOL     OW24125   5.185   1.437   6.087  0.2526 -0.6047  0.3986
 2328SOL    HW124126   5.201   1.532   6.090 -0.5950 -0.4713  1.6227
 2328SOL    HW224127   5.254   1.400   6.141  1.4960 -0.8610 -1.2914
 2329SOL     OW24128   1.063   3.840   7.082  0.1127 -0.0895 -0.8291
 2329SOL    HW124129   1.067   3.767   7.143  0.0704  1.3904  1.0425
 2329SOL    HW224130   0.970   3.861   7.075  0.1845  0.2549 -0.7683
 2330SOL     OW24131   3.241   1.239   6.226  0.2304  0.2175 -0.1567
 2330SOL    HW124132   3.184   1.256   6.151  0.6571 -0.1754 -0.5762
 2330SOL    HW224133   3.257   1.325   6.265 -0.6746  0.3274 -0.0097
 2331SOL     OW24134   3.010   4.712   5.160  0.1805  0.3202  0.1043
 2331SOL    HW124135   2.984   4.739   5.072  1.2885  0.0019 -0.3318
 2331SOL    HW224136   2.942   4.649   5.186 -1.4728  2.1350  0.4636
 2332SOL     OW24137   0.382   6.086   1.287 -0.1931  0.4334  0.3989
 2332SOL    HW124138   0.384   6.071   1.381  0.4740  1.2404  0.5153
 2332SOL    HW224139   0.473   6.100   1.262 -0.2873 -0.4137 -0.4808
 2333SOL     OW24140   4.902   4.127   1.373 -0.3363 -0.0861 -0.3300
 2333SOL    HW124141   4.835   4.059   1.362  1.3846 -1.5909 -2.4031
 2333SOL    HW224142   4.856   4.200   1.414 -3.0535 -1.2734 -1.0479
 2334SOL     OW24143   2.678   0.938   7.335 -0.2770  0.4740 -0.2767
 2334SOL    HW124144   2.705   0.866   7.393 -0.1349  1.1378  0.4929
 2334SOL    HW224145   2.744   0.938   7.266  0.0647  0.2401  0.0415
 2335SOL     OW24146   2.751   3.613   7.444  0.7379 -0.0534 -0.2353
 2335SOL    HW124147   2.748   3.564   7.526 -1.0769 -1.9712 -1.3331
 2335SOL    HW224148   2.816   3.567   7.391  0.9486  0.3729 -0.3529
 2336SOL     OW24149   5.145   3.886   1.279 -0.1319  0.8487  0.4660
 2336SOL    HW124150   5.230   3.929   1.273  1.2666 -1.8478 -1.1891
 2336SOL    HW224151   5.097   3.917   1.201  0.7354 -0.2332 -0.5351
 2337SOL     OW24152   1.669   2.999   5.545  0.2743 -0.2211  0.0619
 2337SOL    HW124153   1.718   3.006   5.463  1.2640 -1.3535  0.5133
 2337SOL    HW224154   1.579   2.984   5.518  0.1951  1.6210 -0.7936
 2338SOL     OW24155   0.414   4.394   1.793  0.2057  0.3388  0.0008
 2338SOL    HW124156   0.448   4.462   1.734 -3.2032  1.9194 -0.3816
 2338SOL    HW224157   0.480   4.387   1.861  1.5994  2.6897 -0.9617
 2339SOL     OW24158   4.249   4.938   1.478 -0.3008  0.2531  0.1961
 2339SOL    HW124159   4.158   4.931   1.451 -0.0193 -2.3165 -0.3375
 2339SOL    HW224160   4.245   4.971   1.568 -1.8053 -0.4932  0.4329
 2340SOL     OW24161   0.260   4.632   0.034 -0.3457 -0.0137  0.2778
 2340SOL    HW124162   0.204   4.555   0.028  0.9243 -0.8968 -0.8987
 2340SOL    HW224163   0.229   4.689  -0.036 -1.2548  0.5636  1.1187
 2341SOL     OW24164   6.537   1.318   6.678  0.1669 -0.1964 -0.0098
 2341SOL    HW124165   6.496   1.240   6.716 -0.0117  0.3744  0.9995
 2341SOL    HW224166   6.619   1.328   6.726  0.5919 -0.2279 -0.7078
 2342SOL     OW24167   5.057   0.327   6.140  0.1599  0.0461 -0.1666
 2342SOL    HW124168   5.017   0.343   6.054  1.5353  1.0790 -0.6379
 2342SOL    HW224169   5.128   0.390   6.146  0.8965 -0.8682  1.2105
 2343SOL     OW24170   4.056   2.363   2.348  0.3382  0.0694 -1.1821
 2343SOL    HW124171   4.062   2.440   2.404 -2.2218 -1.7910  1.9882
 2343SOL    HW224172   3.968   2.365   2.312  0.4618 -1.0400 -1.6100
 2344SOL     OW24173   4.776   2.988   6.806  0.5374 -0.4004 -0.0364
 2344SOL    HW124174   4.846   3.051   6.796  0.4083  0.3623  2.9393
 2344SOL    HW224175   4.801   2.936   6.882 -0.4800 -2.4410 -1.0151
 2345SOL     OW24176   4.294   2.653   6.736 -0.2883  0.3744  0.7544
 2345SOL    HW124177   4.320   2.628   6.825  1.7058  0.3162  0.2149
 2345SOL    HW224178   4.341   2.592   6.680  0.0898  1.6852 -0.4037
 2346SOL     OW24179   1.598   4.360   0.408  0.1082  0.4017  0.0249
 2346SOL    HW124180   1.541   4.290   0.440  0.6478  0.1044  0.3577
 2346SOL    HW224181   1.539   4.423   0.366 -0.4296 -0.0247  0.1415
 2347SOL     OW24182   0.443   4.656   6.071  0.2985  0.0336 -0.0668
 2347SOL    HW124183   0.397   4.602   6.006 -0.0339  0.7736 -0.4572
 2347SOL    HW224184   0.391   4.736   6.076 -0.4443 -0.5139  2.0943
 2348SOL     OW24185   5.078   5.202   0.541  0.4496  0.1448 -0.0364
 2348SOL    HW124186   5.135   5.235   0.471 -0.9510 -1.0339 -1.8062
 2348SOL    HW224187   5.008   5.267   0.547 -0.0402 -0.3279 -0.5495
 2349SOL     OW24188   4.992   2.717   2.160 -0.8344 -0.2310  0.2080
 2349SOL    HW124189   4.918   2.665   2.192  0.0798 -0.8220  1.4583
 2349SOL    HW224190   4.967   2.808   2.178 -0.9424 -0.4714  1.3355
 2350SOL     OW24191   3.482   3.245   1.506 -0.6795 -0.7023  0.0132
 2350SOL    HW124192   3.531   3.323   1.483 -0.9489 -0.5686 -0.1117
 2350SOL    HW224193   3.458   3.258   1.598 -0.2527 -0.8904  0.1520
 2351SOL     OW24194   2.867   2.041   7.090  0.1649  0.0991 -0.2595
 2351SOL    HW124195   2.951   2.062   7.131  0.1139  0.4182 -0.3196
 2351SOL    HW224196   2.805   2.036   7.162 -0.5182  3.3896 -0.4783
 2352SOL     OW24197   5.381   0.060   6.418 -0.4763 -0.5868  0.2532
 2352SOL    HW124198   5.291   0.067   6.386 -0.4680  0.4335  0.4151
 2352SOL    HW224199   5.372   0.031   6.509 -0.7100  0.6251  0.6305
 2353SOL     OW24200   4.226   3.511   0.704 -0.1088 -0.1969  0.0294
 2353SOL    HW124201   4.276   3.465   0.772 -3.0422  0.1704  2.6873
 2353SOL    HW224202   4.264   3.598   0.701  2.4228 -1.2264 -1.6271
 2354SOL     OW24203   1.921   2.340   0.414  0.0009 -0.4491  0.5687
 2354SOL    HW124204   1.826   2.344   0.407 -0.1257  1.3266  2.3692
 2354SOL    HW224205   1.940   2.252   0.445 -1.2117 -0.3009  1.7954
 2355SOL     OW24206   0.648   3.808   5.774 -0.4099 -0.0641 -0.2831
 2355SOL    HW124207   0.626   3.883   5.720  0.6164 -0.5267 -1.3851
 2355SOL    HW224208   0.697   3.845   5.848 -2.1454  0.6120  0.5839
 2356SOL     OW24209   4.602   4.815   0.482 -0.0383  1.1642  0.1745
 2356SOL    HW124210   4.542   4.888   0.467 -0.8116  0.1825 -1.9644
 2356SOL    HW224211   4.682   4.840   0.436  0.2520  1.3194  0.7572
 2357SOL     OW24212   4.979   4.903   5.761  0.7959  0.3401 -0.2515
 2357SOL    HW124213   4.954   4.841   5.693 -0.7802  1.2953 -0.5827
 2357SOL    HW224214   4.905   4.905   5.821  0.9393  1.6469 -0.0743
 2358SOL     OW24215   1.700   0.350   6.152  0.0273  0.2532 -0.3989
 2358SOL    HW124216   1.674   0.407   6.079  0.0342 -0.5460 -1.0459
 2358SOL    HW224217   1.795   0.352   6.152  0.1208 -1.4239 -1.8335
 2359SOL     OW24218   3.538   2.760   6.306 -0.4288 -0.3874 -0.0751
 2359SOL    HW124219   3.562   2.670   6.327  3.1457  0.0856 -1.4214
 2359SOL    HW224220   3.593   2.813   6.364 -1.1377  0.9146 -0.5594
 2360SOL     OW24221   3.737   2.061   0.567 -0.0827  0.2820 -0.1078
 2360SOL    HW124222   3.832   2.072   0.560  0.0112 -0.9110 -1.1400
 2360SOL    HW224223   3.708   2.133   0.622  1.0521  2.4211 -2.1582
 2361SOL     OW24224   2.139   1.722   6.179  0.4999 -0.3064  0.4497
 2361SOL    HW124225   2.142   1.816   6.161  0.8045 -0.3974  0.0199
 2361SOL    HW224226   2.158   1.681   6.094  0.3476 -0.7563  0.6317
 2362SOL     OW24227   0.843   2.635   6.499 -0.0853  0.4069  0.3614
 2362SOL    HW124228   0.800   2.649   6.414 -0.9560  0.2976  0.7703
 2362SOL    HW224229   0.803   2.555   6.532 -0.0831  0.7014  1.0843
 2363SOL     OW24230   1.844   5.605   6.641  0.2029 -0.6523  0.1002
 2363SOL    HW124231   1.817   5.697   6.650  2.2093 -0.0199  0.1774
 2363SOL    HW224232   1.878   5.599   6.552  0.6436 -1.1551  0.2991
 2364SOL     OW24233   3.080   3.422   7.453  0.2786 -0.2941 -0.3541
 2364SOL    HW124234   3.030   3.451   7.377  2.0242  0.5254 -1.2388
 2364SOL    HW224235   3.151   3.485   7.461  0.6568 -0.8779  1.4426
 2365SOL     OW24236   0.146   1.050   1.326 -0.2065  0.2864 -0.0053
 2365SOL    HW124237   0.205   1.048   1.251 -0.5162 -1.1883 -0.2498
 2365SOL    HW224238   0.134   1.143   1.345  2.2577  0.6164  0.1434
 2366SOL     OW24239   0.139   5.043   5.577  0.0525 -0.3632 -0.0463
 2366SOL    HW124240   0.103   4.975   5.634  0.9617 -0.3556  0.5445
 2366SOL    HW224241   0.070   5.108   5.571 -0.1063 -0.4342  0.9290
 2367SOL     OW24242   0.862   5.729   0.369  0.4233 -0.2390  0.5262
 2367SOL    HW124243   0.909   5.757   0.290 -0.8383 -0.8067 -0.4629
 2367SOL    HW224244   0.913   5.655   0.402  0.9509 -0.0136  0.2313
 2368SOL     OW24245   3.988   6.268   0.087 -0.2097  0.0129 -0.5644
 2368SOL    HW124246   3.966   6.326   0.159 -1.0604 -1.3244  0.3052
 2368SOL    HW224247   4.070   6.227   0.113 -0.3574 -0.2421 -0.4976
 2369SOL     OW24248   4.216   5.944   7.394 -0.2701  0.9523 -0.4567
 2369SOL    HW124249   4.146   5.908   7.338 -0.4171 -2.2026  1.4787
 2369SOL    HW224250   4.296   5.930   7.344 -0.3899 -1.9039 -0.0668
 2370SOL     OW24251   0.204   1.005   6.014  0.0972  0.0679  0.7104
 2370SOL    HW124252   0.132   1.064   5.994  0.8274  0.6654 -0.2647
 2370SOL    HW224253   0.163   0.918   6.021 -0.4747 -0.0042 -2.1347
 2371SOL     OW24254   2.685   6.587   1.601  0.2989 -0.1697 -0.1124
 2371SOL    HW124255   2.654   6.498   1.581  0.7516 -0.3246 -0.1404
 2371SOL    HW224256   2.663   6.601   1.693 -1.5800  0.4507 -0.6108
 2372SOL     OW24257   2.835   4.739   0.592 -0.2579  0.5618 -0.5117
 2372SOL    HW124258   2.928   4.743   0.614 -0.6625  2.2719  1.1597
 2372SOL    HW224259   2.796   4.692   0.666 -0.7988  0.2570 -0.9874
 2373SOL     OW24260   0.941   2.900   5.263 -0.1927  0.4150 -0.1229
 2373SOL    HW124261   0.847   2.906   5.277 -0.4583  0.5088 -1.7564
 2373SOL    HW224262   0.953   2.915   5.169  1.6208  2.3566  0.3093
 2374SOL     OW24263   2.033   3.275   6.237 -0.2500  0.1414  0.0099
 2374SOL    HW124264   2.009   3.246   6.149 -2.3427 -0.6951  0.7871
 2374SOL    HW224265   2.078   3.200   6.276  0.2768  0.3503 -0.1950
 2375SOL     OW24266   4.115   5.326   6.644 -0.2585  0.4820 -0.0325
 2375SOL    HW124267   4.101   5.302   6.552  0.0930 -0.2535  0.0951
 2375SOL    HW224268   4.195   5.281   6.668 -0.2345  0.8423  0.5823
 2376SOL     OW24269   6.096   2.979   6.984 -0.2992 -0.1389 -0.7818
 2376SOL    HW124270   6.071   3.031   7.060 -1.2264  0.1411 -1.2606
 2376SOL    HW224271   6.076   2.889   7.009  0.5372 -0.1842 -0.2537
 2377SOL     OW24272   5.938   2.012   5.683  0.2932  0.3788  0.6904
 2377SOL    HW124273   5.851   1.997   5.645 -0.4379 -0.5536  2.5992
 2377SOL    HW224274   5.989   1.936   5.659 -0.0452 -0.0210  1.2156
 2378SOL     OW24275   5.617   5.333   5.867  0.6427  0.3311 -0.5683
 2378SOL    HW124276   5.648   5.333   5.958  1.0242 -2.0851 -0.6148
 2378SOL    HW224277   5.528   5.366   5.872  0.7831  0.5738  0.6380
 2379SOL     OW24278   3.552   0.020   6.076 -0.2937 -0.0168  0.4561
 2379SOL    HW124279   3.552   0.022   6.172 -1.7656 -0.1267  0.4692
 2379SOL    HW224280   3.485   0.083   6.050 -0.2632 -0.3628 -0.4913
 2380SOL     OW24281   1.899   5.528   1.537 -0.5344  0.0429  0.1726
 2380SOL    HW124282   1.988   5.563   1.522 -0.7093  0.2975 -0.3163
 2380SOL    HW224283   1.843   5.582   1.481 -0.9668 -0.2783  0.2916
 2381SOL     OW24284   2.239   0.669   6.376 -0.0319  0.4530  0.2145
 2381SOL    HW124285   2.167   0.688   6.437 -0.4134 -1.1176  0.3022
 2381SOL    HW224286   2.208   0.594   6.326  0.6173  1.2023 -1.3731
 2382SOL     OW24287   4.039   3.095   1.406 -0.1919 -0.0422 -0.2515
 2382SOL    HW124288   4.073   3.055   1.326  2.5518  0.0106  0.7813
 2382SOL    HW224289   3.980   3.029   1.442  1.8091 -1.9304 -0.2002
 2383SOL     OW24290   3.596   1.150   6.588  0.0767 -0.0287  0.0415
 2383SOL    HW124291   3.568   1.135   6.497 -1.2974 -1.0509  0.6036
 2383SOL    HW224292   3.690   1.167   6.581 -0.0656  0.2730 -1.6053
 2384SOL     OW24293   0.015   1.700   1.221  0.6822  0.0644  0.1805
 2384SOL    HW124294   0.067   1.660   1.291 -0.2613 -1.9714 -0.2042
 2384SOL    HW224295  -0.075   1.693   1.252  0.2463 -0.8862 -1.1966
 2385SOL     OW24296   6.390   5.122   0.271  0.3025  0.5007  0.7669
 2385SOL    HW124297   6.318   5.084   0.322  0.7812 -3.0355 -0.9056
 2385SOL    HW224298   6.468   5.103   0.322  0.5079 -0.3048  0.1528
 2386SOL     OW24299   1.942   0.408   6.380 -0.5603  0.0553 -0.0662
 2386SOL    HW124300   1.848   0.402   6.393 -0.4363  1.4881  2.0519
 2386SOL    HW224301   1.956   0.494   6.339 -0.1902 -0.3083 -0.7188
 2387SOL     OW24302   5.970   5.613   6.235 -0.5110  0.3051  0.4261
 2387SOL    HW124303   5.947   5.533   6.187 -1.9450 -0.7935  2.7616
 2387SOL    HW224304   5.886   5.650   6.261  0.1715  0.3023  2.8548
 2388SOL     OW24305   2.704   0.509   5.424  0.0190  0.2171 -0.0151
 2388SOL    HW124306   2.685   0.462   5.344  0.9726 -0.3953  0.1054
 2388SOL    HW224307   2.791   0.479   5.450  0.4927  1.7367  0.2824
 2389SOL     OW24308   4.605   3.668   0.465 -0.8537  0.3108 -0.4311
 2389SOL    HW124309   4.629   3.751   0.424  2.3838 -0.8057 -1.1061
 2389SOL    HW224310   4.657   3.665   0.546 -1.3564 -0.8003 -0.1210
 2390SOL     OW24311   3.543   5.933   7.286  0.4408 -0.3732 -0.5267
 2390SOL    HW124312   3.510   6.010   7.239 -0.3995 -0.8906 -0.8241
 2390SOL    HW224313   3.506   5.940   7.373 -0.7584 -1.1006 -0.9440
 2391SOL     OW24314   0.912   5.628   1.399  0.2006 -0.0423 -0.1954
 2391SOL    HW124315   0.920   5.590   1.487 -0.8097  0.9635  0.3544
 2391SOL    HW224316   1.002   5.635   1.368  0.5393 -0.8658  0.5515
 2392SOL     OW24317   2.601   6.327   1.600  0.0218 -0.4112  0.1799
 2392SOL    HW124318   2.627   6.311   1.691 -2.2210 -0.3833  0.8934
 2392SOL    HW224319   2.505   6.322   1.601 -0.3488  2.9780 -1.5047
 2393SOL     OW24320   4.057   1.446   6.953 -0.4291  0.0094 -1.2304
 2393SOL    HW124321   4.063   1.351   6.963 -1.5901  0.0388  0.0395
 2393SOL    HW224322   4.147   1.477   6.962  0.1030 -1.0241 -2.5898
 2394SOL     OW24323   4.153   0.315   2.014  0.0255 -0.0595  0.0939
 2394SOL    HW124324   4.065   0.278   2.021 -0.1921  0.5552  0.6526
 2394SOL    HW224325   4.141   0.396   1.965 -0.0936  1.2476  2.1987
 2395SOL     OW24326   5.387   1.248   1.971  0.1862 -0.1502  0.0266
 2395SOL    HW124327   5.361   1.212   1.885  0.2713 -1.4663  0.5235
 2395SOL    HW224328   5.309   1.237   2.025  0.5292 -0.5034  0.4562
 2396SOL     OW24329   2.212   5.467   7.385 -0.1758  0.5009 -0.2531
 2396SOL    HW124330   2.235   5.525   7.312 -0.8174  1.7236  0.4678
 2396SOL    HW224331   2.265   5.389   7.372  1.6641  1.7343 -0.6453
 2397SOL     OW24332   5.897   6.590   6.445 -0.7278 -0.3564 -0.2578
 2397SOL    HW124333   5.914   6.498   6.426  0.3795 -0.3295  0.4737
 2397SOL    HW224334   5.806   6.592   6.475 -0.7773 -1.2099 -0.3144
 2398SOL     OW24335   5.772   6.452   2.295  0.2470  0.2281 -0.1074
 2398SOL    HW124336   5.693   6.437   2.243 -0.5362  0.2222  1.0258
 2398SOL    HW224337   5.739   6.474   2.382  1.5065  0.2803  0.3819
 2399SOL     OW24338   5.997   4.888   6.020 -0.4935 -0.1251  0.0500
 2399SOL    HW124339   5.972   4.891   6.112 -0.6153  0.5294 -0.0014
 2399SOL    HW224340   5.965   4.803   5.989 -1.0470 -0.0606  0.4352
 2400SOL     OW24341   0.766   1.901   0.691 -0.2327  0.1135 -0.6252
 2400SOL    HW124342   0.701   1.936   0.751 -1.3824 -1.0951 -1.1184
 2400SOL    HW224343   0.790   1.815   0.727  0.6975  0.3078 -0.7404
 2401SOL     OW24344   4.268   3.265   1.805 -0.2152 -0.1705 -0.1829
 2401SOL    HW124345   4.193   3.232   1.756 -0.0118 -1.0481  0.0954
 2401SOL    HW224346   4.298   3.191   1.857  1.2069 -0.0030 -0.7211
 2402SOL     OW24347   5.751   0.273   0.433 -0.0404  0.0452 -0.0383
 2402SOL    HW124348   5.769   0.210   0.503  1.2382  1.1667  0.7184
 2402SOL    HW224349   5.789   0.234   0.355 -0.8307 -0.9026  0.0385
 2403SOL     OW24350   3.628   3.649   6.967 -0.4497  0.9166 -0.5968
 2403SOL    HW124351   3.602   3.571   7.016  2.5227  0.5097  0.4866
 2403SOL    HW224352   3.662   3.615   6.884  2.0565  0.8418  0.3846
 2404SOL     OW24353   2.146   2.291   1.788 -0.3614 -0.4219 -0.7661
 2404SOL    HW124354   2.092   2.234   1.732 -1.1232  1.3518 -1.9213
 2404SOL    HW224355   2.085   2.356   1.821  0.6329  0.1766 -0.0718
 2405SOL     OW24356   5.794   4.267   5.507 -0.1652  0.5246  0.5689
 2405SOL    HW124357   5.774   4.354   5.473  2.1167  0.4490 -1.1906
 2405SOL    HW224358   5.830   4.219   5.432 -3.5210 -2.8055  0.8052
 2406SOL     OW24359   1.115   3.214   6.251  0.3282 -0.4847  0.2221
 2406SOL    HW124360   1.188   3.271   6.228  0.3823 -1.0220 -0.9770
 2406SOL    HW224361   1.113   3.215   6.347  1.0961  0.5483  0.2364
 2407SOL     OW24362   3.348   3.496   6.221  0.6038 -0.3280  0.8592
 2407SOL    HW124363   3.344   3.542   6.305  1.2719  0.8397  0.2651
 2407SOL    HW224364   3.438   3.506   6.192  0.7876 -2.0814  0.7261
 2408SOL     OW24365   1.996   3.015   6.653  0.0297 -0.2240 -0.0179
 2408SOL    HW124366   2.075   2.961   6.661 -0.4771 -1.4304 -2.2739
 2408SOL    HW224367   1.928   2.962   6.695  0.1282  0.2140  0.7236
 2409SOL     OW24368   2.475   1.075   7.487 -0.3219  0.5175  0.8462
 2409SOL    HW124369   2.550   1.050   7.433  1.9969  3.7405  2.2273
 2409SOL    HW224370   2.407   1.099   7.424 -0.4802 -2.7495 -0.4435
 2410SOL     OW24371   5.589   6.495   1.199  0.1133 -0.3468 -0.3515
 2410SOL    HW124372   5.676   6.470   1.168 -0.1654 -1.1817 -0.4806
 2410SOL    HW224373   5.604   6.577   1.247  0.8047  0.0589 -1.2221
 2411SOL     OW24374   4.067   4.211   2.179  0.3240  0.7957 -0.3770
 2411SOL    HW124375   4.042   4.277   2.114 -0.7054 -0.3743 -1.2158
 2411SOL    HW224376   4.095   4.262   2.255  0.0069  2.1970 -1.1592
 2412SOL     OW24377   0.228   0.481   1.730 -0.0307 -0.1274  0.2351
 2412SOL    HW124378   0.183   0.544   1.787  0.0675  0.1072  0.0551
 2412SOL    HW224379   0.320   0.489   1.753  0.0085 -0.0371  0.0488
 2413SOL     OW24380   1.307   1.191   0.820  0.7161  0.7213  0.1814
 2413SOL    HW124381   1.260   1.272   0.842 -1.0726 -0.3922  0.6586
 2413SOL    HW224382   1.360   1.173   0.898 -0.3397  0.4599  0.8698
 2414SOL     OW24383   4.569   5.464   1.648 -0.4484  0.2743  0.0432
 2414SOL    HW124384   4.655   5.431   1.623 -0.3098  1.6383 -1.4276
 2414SOL    HW224385   4.579   5.559   1.653 -2.3092  0.7241 -2.3917
 2415SOL     OW24386   6.562   2.632   6.581  0.4483 -0.6440 -0.2719
 2415SOL    HW124387   6.467   2.638   6.585  0.4577  1.5367 -1.8876
 2415SOL    HW224388   6.587   2.601   6.669 -1.7529 -2.3521 -0.1606
 2416SOL     OW24389   2.113   4.411   7.185  0.2072 -0.0961  0.8903
 2416SOL    HW124390   2.049   4.448   7.124  1.3454  1.0344  0.3499
 2416SOL    HW224391   2.061   4.390   7.263 -0.7886  1.0830  0.5845
 2417SOL     OW24392   6.254   0.880   7.196  0.8239 -0.4086 -0.6298
 2417SOL    HW124393   6.237   0.953   7.255 -0.4789 -0.4669 -0.8953
 2417SOL    HW224394   6.297   0.919   7.120  1.8906 -0.2290  0.0539
 2418SOL     OW24395   1.508   3.664   6.466  0.5671  0.0299 -0.1741
 2418SOL    HW124396   1.468   3.714   6.538 -1.2617  0.7241 -1.5928
 2418SOL    HW224397   1.523   3.577   6.503 -1.6894 -0.0639  0.6821
 2419SOL     OW24398   3.603   3.662   6.519 -0.0399 -0.1842  0.2658
 2419SOL    HW124399   3.673   3.644   6.457 -0.6845  0.4395 -0.6762
 2419SOL    HW224400   3.634   3.625   6.602  0.4784 -1.8136 -0.6054
 2420SOL     OW24401   3.886   6.486   6.977  0.1900 -0.0165  0.2347
 2420SOL    HW124402   3.939   6.526   6.908  0.6011 -1.4171 -0.2980
 2420SOL    HW224403   3.947   6.468   7.048  0.6637 -2.2854 -0.6552
 2421SOL     OW24404   5.878   1.383   0.773  0.0360 -0.0425 -0.1431
 2421SOL    HW124405   5.846   1.401   0.685 -0.4513 -1.6513 -0.3448
 2421SOL    HW224406   5.832   1.445   0.829  1.7615  2.2902 -1.1736
 2422SOL     OW24407   2.810   2.022   0.397  0.2120  0.7595 -0.2577
 2422SOL    HW124408   2.844   2.060   0.478 -0.3294  0.3422  0.1736
 2422SOL    HW224409   2.888   1.998   0.347  0.5604  2.0914 -0.3810
 2423SOL     OW24410   4.802   6.155   7.122 -0.1284 -0.1278  0.3712
 2423SOL    HW124411   4.749   6.109   7.057  0.6920 -0.4670 -0.0706
 2423SOL    HW224412   4.879   6.185   7.074  1.3721 -1.9358  1.5244
 2424SOL     OW24413   4.889   1.726   0.634  0.4449 -0.0234 -0.0088
 2424SOL    HW124414   4.794   1.739   0.644  0.7927  2.0939  1.3680
 2424SOL    HW224415   4.901   1.707   0.541 -1.2617  0.6535 -0.4102
 2425SOL     OW24416   1.027   3.193   1.922  0.0157 -0.3952 -0.2835
 2425SOL    HW124417   0.998   3.106   1.950 -0.9887 -0.1178 -0.3997
 2425SOL    HW224418   0.966   3.254   1.965  1.3806  0.3453  0.6874
 2426SOL     OW24419   0.094   2.074   7.053  0.6917  0.8329 -0.2466
 2426SOL    HW124420   0.165   2.034   7.003  1.5959  1.1690  0.7434
 2426SOL    HW224421   0.034   2.001   7.072  0.6574  0.5844 -1.2413
 2427SOL     OW24422   5.762   0.727   1.188  0.1147 -0.1658  0.3189
 2427SOL    HW124423   5.849   0.692   1.169 -0.6289 -1.3000 -1.1990
 2427SOL    HW224424   5.779   0.814   1.224  1.8548  0.1245 -1.0706
 2428SOL     OW24425   0.816   5.160   6.075  0.0868  0.1561  0.2047
 2428SOL    HW124426   0.870   5.231   6.111 -0.6292  0.3971  0.8228
 2428SOL    HW224427   0.736   5.203   6.045 -0.6159 -0.4544  1.1447
 2429SOL     OW24428   2.768   0.329   0.994  0.6119 -0.1503 -0.0383
 2429SOL    HW124429   2.721   0.367   0.920  0.7722 -0.2500 -0.1931
 2429SOL    HW224430   2.813   0.253   0.958  0.6156 -0.2551  0.1831
 2430SOL     OW24431   0.184   5.377   6.204  0.0427  0.1634  0.3907
 2430SOL    HW124432   0.168   5.336   6.119 -0.4332  0.0332  0.5406
 2430SOL    HW224433   0.142   5.463   6.198  1.0692  0.6651  0.0636
 2431SOL     OW24434   0.398   1.301   7.232  0.0704  0.4403  0.6552
 2431SOL    HW124435   0.364   1.212   7.237  1.3174 -0.2202 -1.3274
 2431SOL    HW224436   0.475   1.300   7.289  0.0850  0.2302  0.6352
 2432SOL     OW24437   1.310   0.518   7.032 -0.1103 -0.6565  0.0062
 2432SOL    HW124438   1.397   0.556   7.049 -0.8284 -0.4052  4.2467
 2432SOL    HW224439   1.256   0.593   7.008  0.3809 -0.5045 -0.6754
 2433SOL     OW24440   5.237   2.147   0.615 -0.0785 -0.5469  0.4602
 2433SOL    HW124441   5.319   2.109   0.648 -0.4835 -0.3402  1.7657
 2433SOL    HW224442   5.193   2.075   0.571  0.9773 -0.5618 -0.6281
 2434SOL     OW24443   5.882   4.719   0.781 -0.3612  0.5580 -0.0744
 2434SOL    HW124444   5.921   4.749   0.699 -0.8455  0.4741 -0.3350
 2434SOL    HW224445   5.956   4.714   0.842 -0.1105  1.3114 -0.2998
 2435SOL     OW24446   2.958   2.867   5.797 -0.0361  0.1314 -0.4989
 2435SOL    HW124447   3.008   2.945   5.771  0.0099  0.0452 -0.6714
 2435SOL    HW224448   3.003   2.795   5.754  0.8546 -0.1770  0.9149
 2436SOL     OW24449   0.823   1.701   0.904 -0.6755 -0.1703  0.4980
 2436SOL    HW124450   0.915   1.692   0.878 -0.6284  0.0429  0.5873
 2436SOL    HW224451   0.822   1.676   0.996 -0.3396  1.7310  1.0812
 2437SOL     OW24452   4.686   6.315   1.121 -0.8812  0.6717 -0.1933
 2437SOL    HW124453   4.758   6.292   1.180 -1.4008  1.5564  0.8208
 2437SOL    HW224454   4.711   6.400   1.085 -0.7736  0.3352 -0.9386
 2438SOL     OW24455   5.769   2.512   6.955 -0.4409 -0.3794 -0.2259
 2438SOL    HW124456   5.803   2.477   6.873 -0.2363  0.6590 -0.6005
 2438SOL    HW224457   5.779   2.440   7.018  3.0295  0.0027 -0.1602
 2439SOL     OW24458   2.590   5.848   7.254 -0.5307  0.8593  0.3877
 2439SOL    HW124459   2.598   5.923   7.313 -0.7298  0.2805  1.1688
 2439SOL    HW224460   2.497   5.824   7.259 -0.2956  0.0207  0.8340
 2440SOL     OW24461   5.757   0.819   6.804  0.2887 -0.1845 -0.0888
 2440SOL    HW124462   5.708   0.836   6.885 -0.4250  0.7289 -0.6824
 2440SOL    HW224463   5.801   0.736   6.819  1.1831  0.5756  1.7097
 2441SOL     OW24464   6.124   0.642   1.093  0.0297 -0.4974 -0.2177
 2441SOL    HW124465   6.073   0.713   1.053  2.2773  0.9799 -0.6576
 2441SOL    HW224466   6.078   0.562   1.067 -1.9850  0.7216 -0.6228
 2442SOL     OW24467   5.933   2.394   6.786 -0.1561 -0.1284 -0.2503
 2442SOL    HW124468   5.898   2.328   6.726 -0.9087  1.2461 -1.3754
 2442SOL    HW224469   6.004   2.349   6.832 -0.2914 -1.5514 -1.3636
 2443SOL     OW24470   4.944   2.376   2.259  0.2031 -0.0140 -0.0999
 2443SOL    HW124471   4.929   2.328   2.177 -0.3885  0.8861 -0.5335
 2443SOL    HW224472   4.899   2.459   2.247  0.0601  0.1155  1.1699
 2444SOL     OW24473   2.741   0.380   1.279  0.5196  0.0915  0.0988
 2444SOL    HW124474   2.778   0.369   1.192 -2.6231  1.1127 -1.5025
 2444SOL    HW224475   2.683   0.305   1.290  0.7833  0.0400  1.2933
 2445SOL     OW24476   2.334   2.230   6.240 -0.3993  0.2657 -0.0500
 2445SOL    HW124477   2.323   2.136   6.253  1.8671 -0.1332 -0.5826
 2445SOL    HW224478   2.341   2.241   6.145 -1.1879  1.0805 -0.0369
 2446SOL     OW24479   1.817   0.729   6.090 -0.1631  0.8876  0.2194
 2446SOL    HW124480   1.780   0.815   6.068 -0.2031  0.9389  0.4773
 2446SOL    HW224481   1.746   0.668   6.076  0.0996  0.7937 -0.7304
 2447SOL     OW24482   4.046   1.907   0.736 -0.1846 -0.0931 -0.0212
 2447SOL    HW124483   4.057   1.980   0.797 -3.2657  1.6137 -1.3215
 2447SOL    HW224484   4.067   1.944   0.650  0.1788 -1.3280 -0.4851
 2448SOL     OW24485   4.407   0.245   1.958  0.0082  0.0038  0.0180
 2448SOL    HW124486   4.320   0.273   1.985  0.1199  0.8774 -0.5055
 2448SOL    HW224487   4.392   0.193   1.879  0.0948  1.9312 -1.3384
 2449SOL     OW24488   1.287   2.282   0.198 -0.7794 -0.4531  0.3118
 2449SOL    HW124489   1.285   2.324   0.112 -0.7580 -0.0275  0.5186
 2449SOL    HW224490   1.332   2.199   0.183  0.4528  0.2201  0.1638
 2450SOL     OW24491   5.122   4.174   6.009 -0.0662 -0.5484 -0.1072
 2450SOL    HW124492   5.115   4.248   6.069  0.2551 -2.7244  2.8611
 2450SOL    HW224493   5.210   4.179   5.973 -0.4579  1.1160 -0.9254
 2451SOL     OW24494   1.398   4.787   1.642  0.4108  0.0651 -0.1767
 2451SOL    HW124495   1.468   4.757   1.700  1.9633 -0.4853 -2.2522
 2451SOL    HW224496   1.414   4.881   1.631  0.9122 -0.0836 -0.7460
 2452SOL     OW24497   0.025   4.754   6.565  0.5604  0.0930 -0.0061
 2452SOL    HW124498   0.006   4.679   6.509 -1.8745 -0.5045  1.4628
 2452SOL    HW224499  -0.042   4.818   6.542  1.0787  0.8365  0.5113
 2453SOL     OW24500   3.839   1.089   1.077  0.2683 -0.8890 -0.1355
 2453SOL    HW124501   3.829   1.013   1.134  1.0503  0.2002  1.5486
 2453SOL    HW224502   3.844   1.163   1.137  1.5069  0.2956 -1.6228
 2454SOL     OW24503   6.509   1.153   6.190  0.1705 -0.2511  0.1429
 2454SOL    HW124504   6.423   1.195   6.188  0.9340  1.3385 -1.5489
 2454SOL    HW224505   6.555   1.196   6.262  0.6844  1.3969 -1.1084
 2455SOL     OW24506   5.868   0.585   0.438  0.1243 -0.3365 -0.5170
 2455SOL    HW124507   5.798   0.534   0.480  2.0997 -2.3043  0.5980
 2455SOL    HW224508   5.922   0.519   0.394  1.8809  0.9706 -0.4062
 2456SOL     OW24509   4.183   5.088   0.111  0.0703  0.1578  0.0690
 2456SOL    HW124510   4.126   5.160   0.138 -2.1786 -0.2558 -3.0388
 2456SOL    HW224511   4.250   5.130   0.056  0.1332  0.1292  0.1234
 2457SOL     OW24512   1.670   2.047   0.509 -0.1636 -0.0817 -0.0532
 2457SOL    HW124513   1.614   2.123   0.493  0.0725  0.2884  0.8206
 2457SOL    HW224514   1.723   2.072   0.585 -0.3134 -1.2415  0.4468
 2458SOL     OW24515   1.678   6.068   0.591  0.0679  0.1126  0.2752
 2458SOL    HW124516   1.599   6.109   0.627 -1.0635 -2.3149  0.7520
 2458SOL    HW224517   1.664   6.069   0.496  0.0478  0.7451  0.2749
 2459SOL     OW24518   6.071   3.328   6.883 -0.1250  0.4756 -0.3605
 2459SOL    HW124519   6.073   3.284   6.968  0.7540 -0.8310 -1.0186
 2459SOL    HW224520   5.982   3.362   6.875  0.3750  2.6694  2.0417
 2460SOL     OW24521   3.687   3.845   7.426  0.2625 -0.3876 -0.4159
 2460SOL    HW124522   3.730   3.775   7.378 -0.9740 -0.9251 -0.7796
 2460SOL    HW224523   3.619   3.801   7.478  1.3235  0.2226  1.5740
 2461SOL     OW24524   0.506   3.864   0.770  0.1276  0.0283 -0.5762
 2461SOL    HW124525   0.472   3.940   0.724  2.8996  0.8680 -1.4388
 2461SOL    HW224526   0.598   3.884   0.785  0.4076 -2.1865  1.3041
 2462SOL     OW24527   4.006   5.736   6.860  0.0731  0.1506  0.7040
 2462SOL    HW124528   4.084   5.684   6.842  1.3865  1.5548  2.0152
 2462SOL    HW224529   4.016   5.814   6.805 -1.8616 -0.8372 -1.2302
 2463SOL     OW24530   2.429   4.968   1.457  0.0071 -0.3500 -0.3689
 2463SOL    HW124531   2.511   4.951   1.410  0.6955 -0.6493  0.9010
 2463SOL    HW224532   2.414   4.889   1.509  0.9694  1.1037  2.3195
 2464SOL     OW24533   2.646   4.021   0.131  0.5494 -0.2537  0.2586
 2464SOL    HW124534   2.630   3.948   0.071 -0.6667  0.1861  0.0222
 2464SOL    HW224535   2.739   4.043   0.117  0.4557 -0.5634 -1.0108
 2465SOL     OW24536   2.162   5.974   1.154 -0.6401  0.5546 -0.8349
 2465SOL    HW124537   2.134   6.023   1.232 -0.5517  0.8702 -1.0008
 2465SOL    HW224538   2.149   5.882   1.178 -1.0938  0.6669 -0.6279
 2466SOL     OW24539   1.964   2.089   2.102 -0.3436  0.3672  0.2453
 2466SOL    HW124540   1.994   2.177   2.082 -0.0225  0.6153  1.6772
 2466SOL    HW224541   2.044   2.035   2.099 -0.4339  0.2440  0.0091
 2467SOL     OW24542   4.889   5.915   1.074  0.1933  0.0550  0.2676
 2467SOL    HW124543   4.981   5.939   1.079  0.3500 -0.5337  0.2535
 2467SOL    HW224544   4.889   5.819   1.077 -0.4168  0.0535  0.2899
 2468SOL     OW24545   3.471   1.588   5.944 -0.3901 -0.2502 -0.1853
 2468SOL    HW124546   3.444   1.678   5.964 -2.0052 -0.7208 -0.0928
 2468SOL    HW224547   3.486   1.548   6.030 -0.8975 -0.4172 -0.1728
 2469SOL     OW24548   4.680   4.939   7.016 -0.4908  0.2303 -0.2439
 2469SOL    HW124549   4.733   4.960   7.093  0.3811 -1.4123 -0.3438
 2469SOL    HW224550   4.742   4.900   6.955 -1.6570 -1.0478 -0.6724
 2470SOL     OW24551   5.221   1.141   6.843  0.0218  0.2425  0.5349
 2470SOL    HW124552   5.163   1.125   6.918  2.0827 -2.2473  1.7495
 2470SOL    HW224553   5.177   1.098   6.770 -0.1248 -0.8052  1.2214
 2471SOL     OW24554   6.004   4.466   4.983  0.4531 -0.1827  0.1213
 2471SOL    HW124555   6.047   4.404   4.923  1.0315  0.0383  0.3049
 2471SOL    HW224556   5.992   4.416   5.064  0.1324 -0.3234 -0.0123
 2472SOL     OW24557   2.024   1.271   0.799  0.2503 -0.6251 -0.1218
 2472SOL    HW124558   1.934   1.243   0.780  1.0935 -2.0625 -2.4250
 2472SOL    HW224559   2.038   1.347   0.742  0.8652 -1.1764 -0.7248
 2473SOL     OW24560   0.226   6.572   0.571  0.2926  0.4103  0.2526
 2473SOL    HW124561   0.154   6.629   0.601  0.3159  0.5518  0.0365
 2473SOL    HW224562   0.305   6.622   0.588  0.2343  1.0635 -1.3168
 2474SOL     OW24563   5.290   6.301   6.688 -0.3048 -0.1475 -0.2566
 2474SOL    HW124564   5.333   6.354   6.755 -3.0954  3.1738 -0.7835
 2474SOL    HW224565   5.256   6.225   6.735  3.0310 -1.1642  0.7505
 2475SOL     OW24566   2.622   4.173   5.296  0.2111 -0.2438 -0.0102
 2475SOL    HW124567   2.626   4.176   5.391  1.4390  0.4549 -0.0696
 2475SOL    HW224568   2.567   4.097   5.277  0.7962 -1.0003  1.2344
 2476SOL     OW24569   1.967   3.905   1.556  0.0158 -0.4642  0.0757
 2476SOL    HW124570   1.925   3.990   1.570 -0.5696 -0.6934 -0.2259
 2476SOL    HW224571   2.056   3.925   1.530 -0.4271  0.0965 -1.0828
 2477SOL     OW24572   0.494   0.898   6.067 -0.1587  0.9843  0.0931
 2477SOL    HW124573   0.438   0.838   6.018 -0.1832 -0.4732  1.8116
 2477SOL    HW224574   0.475   0.878   6.159  3.5090  0.0338  0.7883
 2478SOL     OW24575   1.389   3.893   0.475  0.4474  0.2603 -0.0643
 2478SOL    HW124576   1.338   3.853   0.404  0.2839  0.2024  0.0840
 2478SOL    HW224577   1.352   3.854   0.554  1.2701 -0.4056  0.0056
 2479SOL     OW24578   1.228   1.979   1.340  0.3052  0.0603  0.6579
 2479SOL    HW124579   1.287   1.950   1.270  0.5656  0.4026  0.7343
 2479SOL    HW224580   1.170   2.042   1.298  0.5157  0.3289  0.7670
 2480SOL     OW24581   2.517   4.850   6.902 -0.2524  0.2753  0.7682
 2480SOL    HW124582   2.592   4.791   6.896  1.2303  2.1451  0.2042
 2480SOL    HW224583   2.475   4.845   6.816  0.9215  1.3432  0.1046
 2481SOL     OW24584   2.473   2.927   6.454  0.3596  0.0424 -0.4713
 2481SOL    HW124585   2.399   2.909   6.511  1.6543 -0.4491  1.1634
 2481SOL    HW224586   2.511   2.841   6.436  0.4503  0.2699 -1.4153
 2482SOL     OW24587   6.341   5.518   0.742 -0.1231  1.0513  0.5118
 2482SOL    HW124588   6.348   5.609   0.715 -2.1742  1.0485 -0.2296
 2482SOL    HW224589   6.323   5.470   0.661 -0.5512  0.2106  1.0795
 2483SOL     OW24590   1.806   0.663   2.046 -0.1511  0.4078 -0.9377
 2483SOL    HW124591   1.882   0.610   2.068  0.0709  0.3685 -1.7507
 2483SOL    HW224592   1.792   0.647   1.952  0.3213  2.2921 -1.3582
 2484SOL     OW24593   0.431   1.225   0.417  0.1595  0.3429  0.0208
 2484SOL    HW124594   0.491   1.233   0.490  0.6895  0.5248 -0.4285
 2484SOL    HW224595   0.348   1.197   0.456 -0.3614  3.0315  1.0557
 2485SOL     OW24596   1.136   3.905   6.364 -0.1008 -0.0576 -0.6964
 2485SOL    HW124597   1.149   3.906   6.459  1.4832  1.3966 -0.8718
 2485SOL    HW224598   1.194   3.835   6.333  0.8469  0.7215 -0.7294
 2486SOL     OW24599   4.603   4.181   0.507  0.7575  0.5685 -0.7700
 2486SOL    HW124600   4.620   4.270   0.535  3.6258 -0.4742  1.3024
 2486SOL    HW224601   4.513   4.163   0.534  1.1041  1.9239  1.4833
 2487SOL     OW24602   1.356   6.494   0.271 -0.8189  0.1682  0.2820
 2487SOL    HW124603   1.369   6.399   0.277 -1.7864  0.0421  0.3933
 2487SOL    HW224604   1.445   6.529   0.268 -0.4461 -0.7613 -0.0791
 2488SOL     OW24605   3.787   5.494   0.479 -0.0977 -0.2268 -0.7446
 2488SOL    HW124606   3.777   5.399   0.485 -0.5723 -0.1559 -0.3931
 2488SOL    HW224607   3.880   5.510   0.496  0.2895 -0.7401 -2.2077
 2489SOL     OW24608   5.408   0.294   6.687  0.3821  0.3458  0.1923
 2489SOL    HW124609   5.458   0.272   6.608 -0.2634 -0.2550 -0.0627
 2489SOL    HW224610   5.388   0.387   6.678 -2.0024 -0.2513 -1.7365
 2490SOL     OW24611   3.683   5.346   2.169 -0.0628  0.0431  0.1373
 2490SOL    HW124612   3.627   5.269   2.174 -1.2418  0.8840  0.5119
 2490SOL    HW224613   3.630   5.412   2.124  0.9680  0.5994 -0.3052
 2491SOL     OW24614   3.738   2.071   0.286  0.4014  0.0550  0.6730
 2491SOL    HW124615   3.701   2.108   0.366 -1.1776 -0.7813  0.3620
 2491SOL    HW224616   3.819   2.028   0.314  0.1815  0.3083  1.7064
 2492SOL     OW24617   5.205   0.542   6.123 -0.4036 -0.4022  0.3414
 2492SOL    HW124618   5.187   0.627   6.163 -0.5033  0.3153 -1.1517
 2492SOL    HW224619   5.265   0.562   6.051  0.6554 -1.7970  0.7942
 2493SOL     OW24620   5.519   5.928   1.693 -0.1977  0.2913  0.6577
 2493SOL    HW124621   5.512   5.954   1.601  2.1990 -0.5041  0.1784
 2493SOL    HW224622   5.586   5.986   1.729 -0.1595 -0.2997  1.5489
 2494SOL     OW24623   5.157   0.329   0.118  0.1109 -0.2137  0.3444
 2494SOL    HW124624   5.072   0.353   0.081 -0.3607 -1.5823  0.4856
 2494SOL    HW224625   5.183   0.250   0.071  0.3971 -0.8977  1.5923
 2495SOL     OW24626   1.604   4.689   0.200 -0.1326 -0.3977  0.0929
 2495SOL    HW124627   1.649   4.721   0.278 -0.7088  0.1432  0.2064
 2495SOL    HW224628   1.675   4.673   0.137  0.1855  0.9802  0.0814
 2496SOL     OW24629   6.487   1.578   6.914  0.6692 -0.7836  0.3161
 2496SOL    HW124630   6.509   1.580   6.821 -0.5842  0.5915 -0.0008
 2496SOL    HW224631   6.411   1.520   6.920 -1.2199  1.4743 -0.0842
 2497SOL     OW24632   2.746   1.396   7.443  0.6770 -0.6067  0.5388
 2497SOL    HW124633   2.700   1.353   7.370  1.7834  0.3812 -0.7789
 2497SOL    HW224634   2.787   1.324   7.491  0.6278 -1.2094 -0.3026
 2498SOL     OW24635   2.945   1.607   6.653 -0.1976 -0.4655 -0.3965
 2498SOL    HW124636   2.899   1.633   6.573  0.6658  1.7856 -0.2374
 2498SOL    HW224637   3.029   1.572   6.622  0.2946  0.7575 -0.5064
 2499SOL     OW24638   4.181   4.330   6.196  0.1813  0.4653 -0.0868
 2499SOL    HW124639   4.102   4.355   6.147 -1.4783 -1.8866  1.1731
 2499SOL    HW224640   4.178   4.383   6.275 -1.1950 -0.8256  0.7824
 2500SOL     OW24641   4.483   4.221   7.052 -0.0824  0.0813  0.1995
 2500SOL    HW124642   4.502   4.137   7.094 -0.3035  0.8394  1.8851
 2500SOL    HW224643   4.427   4.267   7.114 -0.9944  1.0033 -1.2498
 2501SOL     OW24644   1.384   1.829   5.959 -0.2564 -0.1413 -0.0085
 2501SOL    HW124645   1.429   1.914   5.970 -0.6466  0.2377 -1.1951
 2501SOL    HW224646   1.433   1.786   5.889  0.0259 -0.9796  0.6895
 2502SOL     OW24647   0.527   5.483   0.646 -0.0913 -0.0076 -0.0065
 2502SOL    HW124648   0.570   5.405   0.610 -1.1246  0.0374 -1.4451
 2502SOL    HW224649   0.459   5.449   0.704 -0.0910 -0.1682 -0.0983
 2503SOL     OW24650   1.656   1.229   1.258  0.1355 -0.4110  0.1309
 2503SOL    HW124651   1.691   1.279   1.184  0.9714  0.8616  1.3370
 2503SOL    HW224652   1.581   1.183   1.221  0.9131 -0.3442 -1.6655
 2504SOL     OW24653   5.339   3.645   1.706  0.1769 -0.5211 -0.4237
 2504SOL    HW124654   5.281   3.592   1.760 -1.6534  1.2508 -0.5504
 2504SOL    HW224655   5.341   3.601   1.621  0.6968 -1.7016  0.1815
 2505SOL     OW24656   2.309   6.487   0.842  0.0756 -0.7368 -0.5496
 2505SOL    HW124657   2.329   6.403   0.799  1.8112 -0.3223 -0.6193
 2505SOL    HW224658   2.347   6.479   0.929  0.7936  0.1844 -0.7616
 2506SOL     OW24659   5.697   1.059   0.096  0.4140 -0.0443  0.2161
 2506SOL    HW124660   5.770   1.061   0.034 -0.5237  0.2053 -0.8940
 2506SOL    HW224661   5.657   0.973   0.085 -0.4923  0.4396 -0.4246
 2507SOL     OW24662   3.863   5.968   6.098  0.2726 -0.4662  0.1988
 2507SOL    HW124663   3.941   5.933   6.055  0.3558 -0.4422  0.3292
 2507SOL    HW224664   3.890   5.984   6.188 -0.6312 -3.1329  1.0380
 2508SOL     OW24665   0.016   5.882   6.229 -0.2032  0.2150 -0.0754
 2508SOL    HW124666   0.051   5.903   6.316  0.1953 -0.1735 -0.1396
 2508SOL    HW224667   0.011   5.967   6.185  0.4381  0.3087  0.0193
 2509SOL     OW24668   4.404   4.764   5.687  0.2386 -0.5781  0.2381
 2509SOL    HW124669   4.410   4.854   5.655 -1.0462 -0.0932  1.2327
 2509SOL    HW224670   4.494   4.739   5.706  0.6229  0.4914 -0.0956
 2510SOL     OW24671   2.015   6.261   0.972 -0.3652  0.1809 -0.5432
 2510SOL    HW124672   1.943   6.244   0.911  0.6176 -2.3990 -1.0984
 2510SOL    HW224673   2.094   6.259   0.918  0.3822 -0.4068  0.5313
 2511SOL     OW24674   3.312   4.033   4.992 -0.1294  0.1545  0.0727
 2511SOL    HW124675   3.250   3.968   4.960 -0.9562 -0.3884  2.5303
 2511SOL    HW224676   3.267   4.076   5.064  0.9976  2.3973 -0.4647
 2512SOL     OW24677   0.415   4.611   0.404  0.3909  0.0559  0.6885
 2512SOL    HW124678   0.394   4.696   0.364  0.3696  0.0475  0.6814
 2512SOL    HW224679   0.331   4.564   0.403  0.0066  0.6364  2.1746
 2513SOL     OW24680   6.545   4.409   5.701 -0.6005  0.2658  0.1915
 2513SOL    HW124681   6.468   4.359   5.726  0.9637 -1.9701  0.9549
 2513SOL    HW224682   6.600   4.409   5.780  1.1770 -0.3537 -0.9610
 2514SOL     OW24683   5.417   1.933   1.716 -0.7817 -0.0725  0.2714
 2514SOL    HW124684   5.478   1.885   1.772 -0.3914  0.7376  0.5489
 2514SOL    HW224685   5.351   1.968   1.777 -1.0836 -0.2772  0.0661
 2515SOL     OW24686   2.760   6.316   5.897  0.0029 -0.2194 -0.8857
 2515SOL    HW124687   2.671   6.310   5.931 -0.1073  0.5569 -1.0227
 2515SOL    HW224688   2.756   6.272   5.812 -0.2751 -0.1057 -0.9343
 2516SOL     OW24689   1.784   4.581   1.505 -0.4561  0.0709 -0.3148
 2516SOL    HW124690   1.780   4.632   1.424 -0.8561 -0.9184 -0.9453
 2516SOL    HW224691   1.747   4.496   1.481 -0.9833 -0.1035  1.0204
 2517SOL     OW24692   6.006   1.668   1.203  0.2348 -0.3289 -0.2480
 2517SOL    HW124693   5.935   1.662   1.266 -0.7581  0.4140 -1.2421
 2517SOL    HW224694   6.045   1.754   1.220 -0.2294  0.0019 -0.8279
 2518SOL     OW24695   1.532   0.735   6.471 -0.1804 -0.3865 -0.1117
 2518SOL    HW124696   1.507   0.688   6.391  1.4513 -0.8406 -0.3755
 2518SOL    HW224697   1.565   0.819   6.440  0.3415 -0.5169  0.0797
 2519SOL     OW24698   6.291   5.995   0.915 -0.3288  0.1039  0.3335
 2519SOL    HW124699   6.217   6.040   0.874 -0.0658 -0.8086 -1.2331
 2519SOL    HW224700   6.351   6.065   0.940 -0.3464  0.7039 -1.1835
 2520SOL     OW24701   2.452   3.348   0.258 -0.1803 -0.3335  0.0729
 2520SOL    HW124702   2.389   3.277   0.262  1.4105 -1.8593 -0.4761
 2520SOL    HW224703   2.432   3.394   0.176 -1.3528  0.0254  0.5436
 2521SOL     OW24704   3.986   1.341   5.201  0.6984  0.6075  0.1947
 2521SOL    HW124705   4.080   1.327   5.212  0.1824 -1.9852  2.2289
 2521SOL    HW224706   3.959   1.272   5.140 -0.0165  0.8845  0.1989
 2522SOL     OW24707   2.977   0.755   0.798 -0.1354  0.0039 -0.0868
 2522SOL    HW124708   3.044   0.702   0.754 -0.0771 -0.3457  0.4167
 2522SOL    HW224709   2.922   0.691   0.843 -0.8689  0.2839 -0.5679
 2523SOL     OW24710   4.672   0.688   7.198 -0.3423 -0.6018  0.3474
 2523SOL    HW124711   4.660   0.600   7.164  1.5553 -0.9605  0.5159
 2523SOL    HW224712   4.633   0.686   7.285  1.0113 -1.7563  0.9651
 2524SOL     OW24713   3.587   1.074   6.912  0.1359 -0.1290  0.1371
 2524SOL    HW124714   3.640   1.009   6.867  0.7957  0.3352  0.2274
 2524SOL    HW224715   3.565   1.138   6.844  0.8002  0.3626  0.3680
 2525SOL     OW24716   6.361   1.390   6.323  0.3725 -0.0242  0.1910
 2525SOL    HW124717   6.363   1.457   6.254  1.9220 -0.6095 -0.3862
 2525SOL    HW224718   6.367   1.439   6.405 -1.1547  0.6661 -0.0773
 2526SOL     OW24719   5.509   0.672   1.276 -0.3330 -0.0447 -0.6461
 2526SOL    HW124720   5.596   0.688   1.240 -0.6652 -0.0992 -1.4893
 2526SOL    HW224721   5.523   0.604   1.342  0.1322 -0.7133 -1.4115
 2527SOL     OW24722   1.706   1.690   6.057  0.1037 -0.7724 -0.5311
 2527SOL    HW124723   1.668   1.770   6.094  0.3813 -1.0489  0.3999
 2527SOL    HW224724   1.646   1.666   5.986 -0.5673 -0.3155 -0.1389
 2528SOL     OW24725   1.716   4.149   1.734  0.0768 -0.2755 -0.0370
 2528SOL    HW124726   1.670   4.106   1.663 -2.0568  1.1454  0.4010
 2528SOL    HW224727   1.648   4.190   1.787  1.6685 -0.1373  2.0925
 2529SOL     OW24728   1.602   0.194   5.897 -0.4160 -0.2754  0.4835
 2529SOL    HW124729   1.621   0.119   5.841  0.7005  0.8192 -0.6775
 2529SOL    HW224730   1.643   0.268   5.852 -1.7543  1.0941  1.4169
 2530SOL     OW24731   6.029   2.539   0.732  0.2912 -0.7322  0.4268
 2530SOL    HW124732   6.089   2.601   0.772  1.4132 -0.0644 -2.1070
 2530SOL    HW224733   5.955   2.534   0.792  3.0907 -2.1932  4.1097
 2531SOL     OW24734   5.715   6.483   5.794  0.3088 -0.5243  1.0190
 2531SOL    HW124735   5.786   6.452   5.738  0.0966  0.8534 -0.0531
 2531SOL    HW224736   5.723   6.578   5.793 -1.0714 -0.3832  1.5389
 2532SOL     OW24737   3.562   3.283   1.078 -0.1486 -0.3909  0.4835
 2532SOL    HW124738   3.627   3.214   1.088 -0.5779 -0.7616  0.7766
 2532SOL    HW224739   3.612   3.365   1.076  0.4079 -0.7433 -0.4251
 2533SOL     OW24740   0.948   1.027   6.022  0.7164  0.0472  0.1942
 2533SOL    HW124741   0.863   0.984   6.014  0.0902  0.9710  1.5429
 2533SOL    HW224742   0.942   1.104   5.965  0.1847  0.7642  1.1874
 2534SOL     OW24743   1.947   4.413   1.100  0.1721  0.0532 -0.1544
 2534SOL    HW124744   2.002   4.480   1.060  0.1711 -0.2594 -0.6852
 2534SOL    HW224745   1.970   4.332   1.055 -3.1606  0.4249 -2.9910
 2535SOL     OW24746   0.232   6.481   2.147 -0.0214 -0.0557  0.7322
 2535SOL    HW124747   0.248   6.511   2.237  1.9946 -0.6225  0.6272
 2535SOL    HW224748   0.137   6.473   2.140 -0.3155  1.6328  2.2634
 2536SOL     OW24749   5.889   4.107   0.623 -0.9188  0.5367 -0.4575
 2536SOL    HW124750   5.943   4.030   0.603 -2.2160 -0.6371  0.3576
 2536SOL    HW224751   5.910   4.170   0.554 -0.8647 -1.1036 -2.0216
 2537SOL     OW24752   5.612   4.381   0.244  0.1976 -0.3257 -0.5798
 2537SOL    HW124753   5.624   4.454   0.304  0.9021  1.0874 -2.3559
 2537SOL    HW224754   5.606   4.304   0.300  0.5453  0.9579  1.2856
 2538SOL     OW24755   6.436   0.166   6.363  0.1731 -0.6508 -0.4147
 2538SOL    HW124756   6.397   0.086   6.399 -2.0177  0.7110  0.4438
 2538SOL    HW224757   6.418   0.161   6.269 -0.7384 -0.8013 -0.2495
 2539SOL     OW24758   2.993   4.507   5.815 -0.0903  0.1439  0.5648
 2539SOL    HW124759   2.951   4.559   5.746  0.2576  0.1286  0.3415
 2539SOL    HW224760   2.982   4.416   5.786  1.2061  0.1880 -0.1402
 2540SOL     OW24761   0.508   1.104   6.755 -0.0426  0.1151  0.2648
 2540SOL    HW124762   0.427   1.108   6.704 -0.7422 -1.5165  1.1513
 2540SOL    HW224763   0.493   1.162   6.829 -0.5438 -0.4217  0.5930
 2541SOL     OW24764   1.684   1.336   0.753 -0.3909  0.0350  0.0764
 2541SOL    HW124765   1.687   1.413   0.810 -0.4097 -0.9246  1.4240
 2541SOL    HW224766   1.708   1.263   0.810  0.7049 -0.8374 -1.4221
 2542SOL     OW24767   0.126   6.076   1.997  0.0049 -0.0987 -0.6582
 2542SOL    HW124768   0.207   6.106   1.956 -1.0825  1.5119 -1.7472
 2542SOL    HW224769   0.088   6.014   1.934 -1.2701  1.7746 -1.8380
 2543SOL     OW24770   6.045   1.037   2.009  0.2049  0.3441 -0.2305
 2543SOL    HW124771   6.005   1.099   1.948  1.1050  2.3268  1.0852
 2543SOL    HW224772   6.139   1.052   1.999  0.3745  0.3881  1.2893
 2544SOL     OW24773   5.170   2.921   6.895  0.2622  0.5959 -0.5072
 2544SOL    HW124774   5.148   2.837   6.936 -1.2042  1.1988  0.0067
 2544SOL    HW224775   5.172   2.983   6.968  2.5024  0.8492 -0.7083
 2545SOL     OW24776   1.396   0.908   1.133 -0.2253 -0.3654  0.3951
 2545SOL    HW124777   1.421   0.834   1.078  1.1265  0.7066 -0.5069
 2545SOL    HW224778   1.394   0.873   1.222  4.4883 -0.7199  0.6046
 2546SOL     OW24779   1.039   4.040   0.681 -0.2567  0.1407 -0.2188
 2546SOL    HW124780   1.102   4.002   0.743 -0.9563 -0.7061 -0.0054
 2546SOL    HW224781   1.091   4.101   0.628  0.3002  1.0730  1.3515
 2547SOL     OW24782   3.017   5.528   0.920  0.3183  0.1035  0.5397
 2547SOL    HW124783   2.975   5.582   0.853  0.9273 -0.9318 -0.7068
 2547SOL    HW224784   3.072   5.467   0.872  0.6333 -0.8121  1.9802
 2548SOL     OW24785   2.845   6.558   5.338  0.0173  0.5725  0.2498
 2548SOL    HW124786   2.778   6.620   5.310 -2.2577 -2.5011 -1.8987
 2548SOL    HW224787   2.916   6.568   5.274 -0.5559  0.6470 -0.3859
 2549SOL     OW24788   6.129   4.664   1.817 -0.0933 -0.0652  0.0325
 2549SOL    HW124789   6.182   4.718   1.876  0.4023  0.6064 -1.0111
 2549SOL    HW224790   6.057   4.632   1.872 -0.6816  2.0452  0.5770
 2550SOL     OW24791   4.623   2.433   0.377  0.3810  0.0744  0.5116
 2550SOL    HW124792   4.665   2.380   0.310  0.1780  0.3414  0.1710
 2550SOL    HW224793   4.582   2.370   0.436  1.5037 -0.2109  1.0301
 2551SOL     OW24794   2.602   3.894   0.486  0.6589 -0.3594  0.4236
 2551SOL    HW124795   2.695   3.912   0.501  0.5641  0.2760  0.2622
 2551SOL    HW224796   2.570   3.970   0.438  0.1984 -0.8715 -0.0980
 2552SOL     OW24797   0.642   4.222   0.070 -0.2581 -0.4131  0.2343
 2552SOL    HW124798   0.591   4.147   0.039  0.9191 -0.9433 -0.4993
 2552SOL    HW224799   0.578   4.292   0.081 -1.0809 -0.9271 -1.0713
 2553SOL     OW24800   4.378   2.925   1.751  0.1475 -0.4261 -0.3661
 2553SOL    HW124801   4.300   2.891   1.707 -0.2818 -0.9668  0.7854
 2553SOL    HW224802   4.346   2.960   1.834  1.2146 -1.3187  0.4559
 2554SOL     OW24803   5.259   2.650   1.818 -0.1594  0.0754  0.0077
 2554SOL    HW124804   5.241   2.645   1.724  0.5920  1.0596 -0.1982
 2554SOL    HW224805   5.204   2.722   1.849  0.5149  0.5666  0.0833
 2555SOL     OW24806   4.738   1.007   1.426 -0.2578 -0.1442  0.6460
 2555SOL    HW124807   4.763   0.921   1.393  2.3538  0.3711  1.0662
 2555SOL    HW224808   4.752   1.001   1.521 -0.2286  0.6882  0.7036
 2556SOL     OW24809   3.609   4.136   1.039  0.1490 -0.3404  0.1258
 2556SOL    HW124810   3.606   4.074   0.966  0.5060  2.5243 -2.5043
 2556SOL    HW224811   3.698   4.173   1.036 -0.3074  0.9017  1.0898
 2557SOL     OW24812   2.039   2.567   0.569 -0.2588 -0.1187 -0.1331
 2557SOL    HW124813   1.966   2.587   0.627  0.0289 -0.4997  0.3737
 2557SOL    HW224814   2.010   2.490   0.520 -0.0696 -0.4912  0.3255
 2558SOL     OW24815   5.174   4.280   5.340 -0.0673 -0.0436 -0.2897
 2558SOL    HW124816   5.198   4.228   5.417 -0.5172  0.9288  0.5402
 2558SOL    HW224817   5.249   4.273   5.282  2.0493  2.3569  1.9177
 2559SOL     OW24818   5.230   6.281   5.305  0.5103  0.4985 -0.0456
 2559SOL    HW124819   5.322   6.256   5.313  1.1353  2.7040  0.4561
 2559SOL    HW224820   5.232   6.376   5.294 -1.8255  1.0876  3.2085
 2560SOL     OW24821   5.083   4.165   6.852 -0.2336 -0.1067 -0.6189
 2560SOL    HW124822   5.010   4.227   6.854  1.0080  1.4024  0.6309
 2560SOL    HW224823   5.047   4.083   6.884 -0.9048  1.2097  2.2357
 2561SOL     OW24824   3.138   0.669   0.397  0.1557 -0.2272  0.3340
 2561SOL    HW124825   3.114   0.591   0.348  1.7467 -0.0884 -0.7633
 2561SOL    HW224826   3.058   0.721   0.401 -0.2989 -0.7464 -1.1983
 2562SOL     OW24827   1.793   0.527   1.375 -0.5944  0.0048 -0.2472
 2562SOL    HW124828   1.803   0.617   1.405  0.9109 -0.0233 -0.5805
 2562SOL    HW224829   1.708   0.499   1.409  0.2343  0.5366  2.4994
 2563SOL     OW24830   4.521   0.299   2.215 -0.3545  0.1061 -0.2486
 2563SOL    HW124831   4.487   0.251   2.139  0.0457  0.1020 -0.4254
 2563SOL    HW224832   4.540   0.232   2.280  0.6060 -0.0232 -0.6494
 2564SOL     OW24833   3.126   2.137   6.808 -0.2307 -1.0383 -0.8546
 2564SOL    HW124834   3.044   2.186   6.798 -0.1667 -0.5817  0.7546
 2564SOL    HW224835   3.170   2.177   6.882  1.1108 -1.7809 -1.2253
 2565SOL     OW24836   0.204   1.137   5.676 -0.4272  0.2346  0.3112
 2565SOL    HW124837   0.293   1.167   5.694  0.6152 -2.5852  0.4478
 2565SOL    HW224838   0.178   1.090   5.755 -3.1106  2.9685  1.2644
 2566SOL     OW24839   6.063   4.792   1.268 -0.1499  0.4243  0.2446
 2566SOL    HW124840   6.129   4.758   1.328  0.8256  1.4521 -0.2060
 2566SOL    HW224841   6.104   4.869   1.228 -0.9867  0.1062 -1.3142
 2567SOL     OW24842   5.812   1.518   0.998  0.7307 -0.0462  0.1120
 2567SOL    HW124843   5.866   1.590   1.032  0.5865  0.2331 -0.2411
 2567SOL    HW224844   5.735   1.517   1.054  0.4546  0.4668 -0.2455
 2568SOL     OW24845   2.156   1.587   6.797 -0.1017  0.1431  0.1963
 2568SOL    HW124846   2.114   1.665   6.763 -1.5640  0.8858  3.3628
 2568SOL    HW224847   2.194   1.614   6.881  0.5215 -2.2255  0.7594
 2569SOL     OW24848   3.601   0.081   1.301  0.0083  0.2825  0.1093
 2569SOL    HW124849   3.544   0.095   1.376 -1.0183 -0.2655 -0.5477
 2569SOL    HW224850   3.547   0.103   1.225  0.4690 -0.8091 -0.5581
 2570SOL     OW24851   4.145   0.666   1.218  0.4062  0.2747  0.1703
 2570SOL    HW124852   4.226   0.717   1.224  0.9987 -0.1931 -2.6078
 2570SOL    HW224853   4.114   0.660   1.309  2.4998  2.0008  1.0932
 2571SOL     OW24854   2.361   0.040   0.630  0.3969  0.5498 -0.5658
 2571SOL    HW124855   2.342  -0.012   0.708  1.7691  0.4050 -0.2998
 2571SOL    HW224856   2.446   0.081   0.648 -0.1589  2.0770 -1.1886
 2572SOL     OW24857   4.383   2.261   0.943 -0.1952  0.6975 -0.5123
 2572SOL    HW124858   4.372   2.293   1.033  0.1762  0.7294 -0.4772
 2572SOL    HW224859   4.407   2.339   0.892  0.3174  0.5560 -0.4996
 2573SOL     OW24860   5.066   1.956   0.170  0.4572  0.4084 -0.5454
 2573SOL    HW124861   4.981   1.969   0.128  0.3438 -0.3682 -0.5838
 2573SOL    HW224862   5.111   2.040   0.162  0.3958  0.3227 -2.1160
 2574SOL     OW24863   5.471   2.345   5.953  0.0269 -0.0464  0.3393
 2574SOL    HW124864   5.381   2.359   5.921  0.1459 -0.1159 -0.0235
 2574SOL    HW224865   5.466   2.264   6.003 -0.5611  0.9648  2.0255
 2575SOL     OW24866   2.052   2.097   1.600  0.5734 -0.2065  0.1623
 2575SOL    HW124867   2.053   2.049   1.517 -2.0387 -1.1694  0.6115
 2575SOL    HW224868   2.102   2.042   1.660  0.8632 -0.4370 -0.2861
 2576SOL     OW24869   6.467   0.781   1.274  0.0431 -0.4202 -0.1208
 2576SOL    HW124870   6.508   0.745   1.352 -2.6183 -1.5446  0.8980
 2576SOL    HW224871   6.442   0.870   1.299  1.1035 -0.0203 -0.4629
 2577SOL     OW24872   5.478   0.383   0.050  0.1352  0.0074  0.1857
 2577SOL    HW124873   5.428   0.327  -0.010 -1.8840  0.6891  1.1249
 2577SOL    HW224874   5.539   0.429  -0.006 -0.3014 -0.8497 -1.0496
 2578SOL     OW24875   2.317   4.822   7.382  0.0299 -0.4663  0.2230
 2578SOL    HW124876   2.393   4.773   7.410  0.8422 -0.2134 -1.4501
 2578SOL    HW224877   2.292   4.784   7.298  0.4983  1.6903 -0.9873
 2579SOL     OW24878   3.294   0.157   0.492  0.2057  0.2546 -0.1946
 2579SOL    HW124879   3.349   0.107   0.433 -1.0875 -0.7769 -0.5831
 2579SOL    HW224880   3.331   0.245   0.491  0.6108  0.0999 -2.0301
 2580SOL     OW24881   1.982   1.201   0.051 -0.6420  0.6159 -0.5557
 2580SOL    HW124882   2.017   1.114   0.070 -1.6763  0.1003 -0.9197
 2580SOL    HW224883   2.044   1.239  -0.011  0.1481  0.3946  0.0758
 2581SOL     OW24884   4.359   2.654   0.543 -0.0806  0.1046  0.1534
 2581SOL    HW124885   4.355   2.616   0.455  0.6313 -1.1507  0.6392
 2581SOL    HW224886   4.428   2.604   0.588  0.1559  1.2956  1.1587
 2582SOL     OW24887   3.448   1.663   1.263 -0.2666 -0.2952 -0.2653
 2582SOL    HW124888   3.529   1.697   1.300  0.0232 -1.9640  0.7664
 2582SOL    HW224889   3.379   1.715   1.303  0.1934 -0.3836  0.6697
 2583SOL     OW24890   1.426   3.596   5.262 -0.6570  0.1038  0.0185
 2583SOL    HW124891   1.331   3.600   5.260 -0.6872  0.0111  0.8263
 2583SOL    HW224892   1.454   3.688   5.261 -0.7401  0.1255 -0.5664
 2584SOL     OW24893   0.720   0.970   7.480  0.0303 -0.3522  0.1112
 2584SOL    HW124894   0.725   0.876   7.463  1.1216 -0.4138  0.6389
 2584SOL    HW224895   0.628   0.992   7.468 -0.0933 -1.3166 -0.8738
 2585SOL     OW24896   2.176   2.784   6.867 -0.1853 -1.2117  0.9200
 2585SOL    HW124897   2.151   2.855   6.927 -1.1570 -2.4206  2.0278
 2585SOL    HW224898   2.203   2.713   6.926 -0.8808 -2.3374 -0.0940
 2586SOL     OW24899   0.957   6.034   1.063  0.0809  0.0045 -0.3983
 2586SOL    HW124900   1.037   5.986   1.083  1.0942 -0.1190 -4.0364
 2586SOL    HW224901   0.887   5.983   1.104  1.6231 -1.3528  0.6687
 2587SOL     OW24902   2.860   1.668   0.019  0.2413 -0.4873 -0.3737
 2587SOL    HW124903   2.948   1.686   0.052 -0.4995  0.1729  1.3278
 2587SOL    HW224904   2.861   1.574  -0.001  1.1629 -0.5930  0.1271
 2588SOL     OW24905   2.905   6.389   6.609  0.2819  0.7619  0.6885
 2588SOL    HW124906   2.976   6.325   6.599 -1.7121 -1.7352  1.3471
 2588SOL    HW224907   2.923   6.455   6.542  2.7795 -0.1799  0.3189
 2589SOL     OW24908   0.849   5.291   1.241 -0.1868  0.2897  0.0662
 2589SOL    HW124909   0.938   5.285   1.206  0.0654 -1.6789  0.9151
 2589SOL    HW224910   0.804   5.350   1.181  0.9360 -0.8802 -2.0456
 2590SOL     OW24911   0.334   2.866   6.405 -0.0163 -0.1177  0.4175
 2590SOL    HW124912   0.366   2.796   6.463 -0.8300 -1.8440 -1.0974
 2590SOL    HW224913   0.413   2.905   6.368  0.4415 -0.8453  0.6055
 2591SOL     OW24914   1.577   3.405   0.472  0.1046  0.9263  0.8392
 2591SOL    HW124915   1.652   3.426   0.528  1.1593 -2.1834  0.7880
 2591SOL    HW224916   1.603   3.438   0.386  0.9503  0.8878  1.0608
 2592SOL     OW24917   3.073   4.296   1.937  0.5326  0.8785  0.4736
 2592SOL    HW124918   2.997   4.352   1.953 -1.2878 -1.4452  0.5374
 2592SOL    HW224919   3.125   4.302   2.018 -1.4842 -0.1946  1.9350
 2593SOL     OW24920   2.562   0.257   5.649 -0.2805 -0.3460  0.6121
 2593SOL    HW124921   2.511   0.242   5.569  0.7055  0.6177 -0.2329
 2593SOL    HW224922   2.646   0.291   5.618 -0.0512  0.5185  2.0813
 2594SOL     OW24923   2.608   1.101   4.973  0.1786  0.3551 -0.4699
 2594SOL    HW124924   2.631   1.029   4.914  1.7500 -0.8538  1.4798
 2594SOL    HW224925   2.540   1.064   5.030 -2.5052  2.0055 -2.3545
 2595SOL     OW24926   2.021   5.414   1.032 -0.9106  0.5299  0.0513
 2595SOL    HW124927   2.063   5.478   0.975 -0.9342  0.2959 -0.2275
 2595SOL    HW224928   2.065   5.425   1.117  0.5465 -0.5200 -0.5279
 2596SOL     OW24929   1.166   1.092   6.165  0.1276 -0.1815 -0.0863
 2596SOL    HW124930   1.201   1.159   6.106 -0.2487  0.5966  0.5668
 2596SOL    HW224931   1.084   1.063   6.123 -1.3618  2.0073  1.1240
 2597SOL     OW24932   5.599   6.326   1.787  0.0244  0.3001  0.1587
 2597SOL    HW124933   5.645   6.242   1.794 -1.3267 -0.6406 -1.5019
 2597SOL    HW224934   5.637   6.368   1.710 -0.2053  0.6251  0.2212
 2598SOL     OW24935   2.834   5.563   5.625  0.2001  0.1948 -0.4052
 2598SOL    HW124936   2.845   5.519   5.541 -0.0623 -0.5885 -0.0333
 2598SOL    HW224937   2.752   5.611   5.617  0.5767  0.7769 -0.8722
 2599SOL     OW24938   3.061   4.618   6.397 -0.2967 -0.2392  0.4516
 2599SOL    HW124939   3.002   4.640   6.325 -1.0281  1.7337  1.5683
 2599SOL    HW224940   3.128   4.563   6.357 -1.6599 -0.6998 -1.3292
 2600SOL     OW24941   3.981   0.301   5.401  0.1965  0.3088  0.1526
 2600SOL    HW124942   4.050   0.286   5.336 -0.6502 -0.1758 -0.6703
 2600SOL    HW224943   3.989   0.228   5.462 -0.4012 -0.5166 -0.7056
 2601SOL     OW24944   1.479   1.143   1.027  0.6161 -0.1941 -0.0096
 2601SOL    HW124945   1.539   1.145   0.952  1.1915 -1.9717  0.3584
 2601SOL    HW224946   1.472   1.050   1.049 -1.3462  0.0890  0.7181
 2602SOL     OW24947   4.600   2.995   1.028  0.4159 -0.2318 -0.3188
 2602SOL    HW124948   4.647   3.067   0.986 -1.5381  0.3514 -1.6617
 2602SOL    HW224949   4.668   2.941   1.067  1.9773  2.5741  1.2061
 2603SOL     OW24950   6.072   4.697   0.975  0.4201  0.3507  0.6924
 2603SOL    HW124951   6.079   4.755   1.051  1.8097 -0.4480  1.2013
 2603SOL    HW224952   6.093   4.610   1.008  1.3411  0.0263 -0.6498
 2604SOL     OW24953   0.646   4.340   4.916  0.3415  0.3808 -0.2785
 2604SOL    HW124954   0.586   4.307   4.849 -0.5080  2.6594 -0.7186
 2604SOL    HW224955   0.655   4.267   4.977 -1.2095 -0.7462 -1.3030
 2605SOL     OW24956   2.849   5.206   7.004  0.4488  0.8891  0.1510
 2605SOL    HW124957   2.878   5.281   7.055  0.7313  1.5791 -0.9863
 2605SOL    HW224958   2.788   5.242   6.939 -3.2369 -0.4901  2.4861
 2606SOL     OW24959   4.238   3.354   0.044 -0.0655 -0.2752 -0.5857
 2606SOL    HW124960   4.326   3.386   0.024 -1.4379  2.8727 -2.3146
 2606SOL    HW224961   4.224   3.379   0.135  0.5725 -0.1038 -0.5294
 2607SOL     OW24962   4.886   1.005   6.280 -0.1541  0.2744 -0.3719
 2607SOL    HW124963   4.960   1.066   6.278 -0.2894  0.4633  0.1636
 2607SOL    HW224964   4.832   1.036   6.353 -0.5795 -0.0735 -0.5362
 2608SOL     OW24965   0.560   0.971   1.005 -0.3872  0.3689 -0.3979
 2608SOL    HW124966   0.574   0.886   1.047 -0.8226  1.0136  1.1543
 2608SOL    HW224967   0.620   0.972   0.931 -0.6363 -1.4246 -0.6562
 2609SOL     OW24968   1.032   1.402   6.271  0.3626  0.0686  0.1394
 2609SOL    HW124969   1.065   1.321   6.310  1.9180  0.4279 -0.3802
 2609SOL    HW224970   1.025   1.383   6.178  0.7850  0.5420  0.0068
 2610SOL     OW24971   4.479   6.597   5.963  0.5737 -0.3052  0.1421
 2610SOL    HW124972   4.396   6.552   5.976  0.7504 -0.7916 -0.3641
 2610SOL    HW224973   4.511   6.616   6.051 -1.8265  3.2365  0.4353
 2611SOL     OW24974   2.518   4.644   6.070  0.1332  0.0348 -0.2435
 2611SOL    HW124975   2.519   4.723   6.123 -0.9517 -1.6219  2.4843
 2611SOL    HW224976   2.452   4.588   6.111 -0.4899 -1.6171 -3.1411
 2612SOL     OW24977   0.593   0.841   6.653 -0.1482 -0.2259  0.7453
 2612SOL    HW124978   0.656   0.912   6.644  0.1504 -0.0639  3.3347
 2612SOL    HW224979   0.634   0.779   6.714 -0.4184 -2.6741 -1.3826
 2613SOL     OW24980   5.039   0.613   7.429 -0.5256 -0.2250  0.1225
 2613SOL    HW124981   4.999   0.618   7.343  0.0599  0.5407 -0.1230
 2613SOL    HW224982   5.012   0.529   7.464 -1.9215  0.0608 -0.2287
 2614SOL     OW24983   2.848   1.391   0.857 -0.3415 -0.1612  0.0012
 2614SOL    HW124984   2.829   1.319   0.797 -0.9075 -1.4562  1.6620
 2614SOL    HW224985   2.781   1.384   0.925 -0.1009  1.6428  0.4687
 2615SOL     OW24986   5.922   1.211   1.818 -0.5838  0.1415 -0.6266
 2615SOL    HW124987   5.840   1.219   1.769 -0.0983  2.3209 -1.1981
 2615SOL    HW224988   5.918   1.281   1.883  0.7407  0.1989 -0.5687
 2616SOL     OW24989   1.898   3.261   4.849  0.1867  0.0535  0.2134
 2616SOL    HW124990   1.836   3.209   4.798  0.9014 -0.8711  0.2516
 2616SOL    HW224991   1.930   3.328   4.787  0.5045 -0.6036 -0.3546
 2617SOL     OW24992   6.179   2.456   1.730  0.6166 -0.7837  0.0113
 2617SOL    HW124993   6.156   2.370   1.763 -0.5096 -0.5533 -0.1041
 2617SOL    HW224994   6.257   2.442   1.677  0.4278 -1.7335 -0.0295
 2618SOL     OW24995   6.447   1.205   0.805  0.1577 -0.3961 -0.0465
 2618SOL    HW124996   6.511   1.134   0.810  2.3512  1.1319 -3.1517
 2618SOL    HW224997   6.466   1.260   0.881 -0.1559 -1.9286  1.2054
 2619SOL     OW24998   1.080   6.020   0.835 -0.0584  0.3375  0.7224
 2619SOL    HW124999   1.019   6.046   0.903 -0.8859 -0.2829  0.2281
 2619SOL    HW225000   1.107   5.932   0.859  0.8380  0.6859  1.0587
 2620SOL     OW25001   4.292   4.638   6.590  0.6076  0.0470 -0.4734
 2620SOL    HW125002   4.220   4.575   6.595  1.0337 -0.4370 -0.2472
 2620SOL    HW225003   4.286   4.687   6.672 -0.2181  0.8646 -1.0070
 2621SOL     OW25004   3.150   5.386   0.740 -0.0831 -0.4136 -0.6869
 2621SOL    HW125005   3.157   5.405   0.646 -0.3973 -0.9494 -0.8249
 2621SOL    HW225006   3.076   5.326   0.747 -1.9035  1.8388  0.2524
 2622SOL     OW25007   0.294   2.096   0.702 -0.1820 -0.2953 -0.3524
 2622SOL    HW125008   0.202   2.111   0.727 -0.5194 -1.2044 -0.9938
 2622SOL    HW225009   0.291   2.017   0.649  0.7771  0.4921 -1.6307
 2623SOL     OW25010   5.429   0.794   1.788 -0.2160 -0.7077  0.0963
 2623SOL    HW125011   5.385   0.758   1.865 -0.8742 -2.0656 -0.8721
 2623SOL    HW225012   5.522   0.795   1.812 -0.2957 -2.0765  0.5646
 2624SOL     OW25013   6.057   2.503   6.299 -0.1947  0.1698  0.1100
 2624SOL    HW125014   6.145   2.540   6.298  0.7323 -1.6854  2.7362
 2624SOL    HW225015   6.023   2.522   6.387 -1.7217 -0.6680 -0.2543
 2625SOL     OW25016   2.211   4.762   0.506  0.1622  0.1487 -0.0783
 2625SOL    HW125017   2.161   4.730   0.581 -1.5323  0.8966 -0.8187
 2625SOL    HW225018   2.158   4.737   0.430  0.9615  0.9112 -0.9105
 2626SOL     OW25019   3.964   2.507   7.247 -0.1379 -0.2647  0.8491
 2626SOL    HW125020   4.034   2.549   7.196 -0.2905 -0.9976  0.0094
 2626SOL    HW225021   3.965   2.552   7.331 -0.6973  1.8405 -0.2082
 2627SOL     OW25022   4.279   1.735   1.729 -0.0800  0.0920  0.6575
 2627SOL    HW125023   4.316   1.688   1.655 -1.0593 -0.6481  0.6116
 2627SOL    HW225024   4.325   1.701   1.805 -1.2367 -1.4868  0.6972
 2628SOL     OW25025   4.971   3.176   6.848  0.4858 -0.4427  0.3329
 2628SOL    HW125026   5.060   3.205   6.827  0.3530 -0.6807 -0.6463
 2628SOL    HW225027   4.938   3.241   6.910  0.7137  0.6849 -0.6783
 2629SOL     OW25028   3.417   1.195   5.967 -0.5112  0.4197 -0.1713
 2629SOL    HW125029   3.326   1.173   5.988 -0.2472 -1.3243 -0.7005
 2629SOL    HW225030   3.416   1.214   5.873 -0.1068 -1.0903 -0.5087
 2630SOL     OW25031   4.495   4.108   0.951 -0.1359 -0.2886 -0.1364
 2630SOL    HW125032   4.553   4.184   0.948 -1.7218  1.0087  0.5000
 2630SOL    HW225033   4.551   4.036   0.979  1.0370  1.0348  1.0650
 2631SOL     OW25034   4.737   3.203   1.612 -0.1838 -0.0939  0.4786
 2631SOL    HW125035   4.728   3.155   1.529  0.1187 -0.2162  0.5131
 2631SOL    HW225036   4.721   3.137   1.680  0.9861 -0.3495  0.5444
 2632SOL     OW25037   2.184   4.304   5.790 -0.4765  0.0214 -0.4750
 2632SOL    HW125038   2.250   4.235   5.787  0.9288  1.2842  0.1719
 2632SOL    HW225039   2.184   4.341   5.701  0.5763  0.7858 -0.1775
 2633SOL     OW25040   5.790   4.011   1.722  0.1457  0.5002  0.3182
 2633SOL    HW125041   5.797   4.002   1.817  0.2370 -2.6994  0.1350
 2633SOL    HW225042   5.867   4.062   1.696  0.9010  0.1914  1.8489
 2634SOL     OW25043   0.209   3.686   1.822 -0.3899  0.3760  0.0951
 2634SOL    HW125044   0.155   3.712   1.897 -0.4339  0.4782  0.0276
 2634SOL    HW225045   0.157   3.619   1.777 -0.4338  0.4315  0.0637
 2635SOL     OW25046   6.285   3.973   1.569  0.1051 -0.1669 -0.2596
 2635SOL    HW125047   6.202   3.949   1.610  0.1215  0.0354 -0.1046
 2635SOL    HW225048   6.346   3.904   1.595  0.0763 -0.1222 -0.0725
 2636SOL     OW25049   4.215   2.620   5.748  0.1143  0.4730  0.2008
 2636SOL    HW125050   4.241   2.709   5.768 -0.4723  1.1731 -1.8786
 2636SOL    HW225051   4.124   2.628   5.718  0.2218 -0.7325 -0.5267
 2637SOL     OW25052   0.949   6.495   5.625 -0.0056  0.2302  0.0258
 2637SOL    HW125053   1.006   6.572   5.632 -0.4378  0.6530 -0.9628
 2637SOL    HW225054   1.009   6.421   5.617  0.4324  0.3397  1.8247
 2638SOL     OW25055   3.544   4.888   6.849 -0.2937 -0.1192 -0.1529
 2638SOL    HW125056   3.609   4.823   6.876  1.2693  2.0893  1.7633
 2638SOL    HW225057   3.512   4.925   6.931 -0.8581  1.7638 -1.1647
 2639SOL     OW25058   4.879   3.910   0.927  0.1439 -0.3213 -0.2938
 2639SOL    HW125059   4.916   3.977   0.986 -2.1003  1.3687 -0.6655
 2639SOL    HW225060   4.819   3.860   0.983  1.2784 -1.6034 -0.1907
 2640SOL     OW25061   5.793   5.405   6.620 -0.4134  0.0108 -0.4752
 2640SOL    HW125062   5.738   5.335   6.655 -0.8100  0.1814 -0.7544
 2640SOL    HW225063   5.824   5.452   6.697  1.0975 -1.3804 -0.1768
 2641SOL     OW25064   1.095   1.954   0.346  0.6489  0.2774 -0.0600
 2641SOL    HW125065   1.062   1.959   0.256  0.1261  0.3651  0.1287
 2641SOL    HW225066   1.042   1.886   0.388  1.3007 -0.1892  0.0197
 2642SOL     OW25067   5.251   1.711   6.091 -0.2394  0.0892  0.3368
 2642SOL    HW125068   5.185   1.771   6.056  0.3166  0.3974 -0.2073
 2642SOL    HW225069   5.331   1.764   6.098  0.2424 -0.5610 -0.0764
 2643SOL     OW25070   5.311   1.533   0.318  0.2918 -0.1805  0.2897
 2643SOL    HW125071   5.257   1.541   0.240  1.2427  1.1813 -0.2768
 2643SOL    HW225072   5.333   1.624   0.341 -0.6878 -0.4852  2.6770
 2644SOL     OW25073   5.633   3.632   0.048  0.2771  0.2392  0.5920
 2644SOL    HW125074   5.637   3.593   0.135  2.0356  0.0465  0.4639
 2644SOL    HW225075   5.718   3.675   0.037  0.3088 -0.2133 -1.2459
 2645SOL     OW25076   2.269   5.929   0.544 -0.4483 -0.2259  0.4357
 2645SOL    HW125077   2.217   6.007   0.561 -1.2756 -0.2617 -1.6532
 2645SOL    HW225078   2.206   5.857   0.545 -0.3937 -0.3418 -1.5350
 2646SOL     OW25079   5.793   1.704   7.415 -0.2293 -0.2107 -0.4937
 2646SOL    HW125080   5.721   1.744   7.463 -0.4169 -1.9135  0.7158
 2646SOL    HW225081   5.859   1.774   7.408 -0.6373  0.4038  1.3132
 2647SOL     OW25082   0.196   0.724   0.072 -0.1136 -0.1084  0.1901
 2647SOL    HW125083   0.108   0.691   0.054 -0.4358  0.9877 -0.3297
 2647SOL    HW225084   0.252   0.646   0.067 -0.8121 -0.5521 -1.2154
 2648SOL     OW25085   1.328   2.937   6.031  0.4402 -0.0829  0.7718
 2648SOL    HW125086   1.258   2.986   5.988 -0.2998  0.6877  2.7424
 2648SOL    HW225087   1.289   2.852   6.052  0.0064  0.3814  1.9585
 2649SOL     OW25088   5.914   2.233   0.634  0.2930  0.4576 -0.2668
 2649SOL    HW125089   5.945   2.323   0.635 -0.0292  0.5837 -0.9946
 2649SOL    HW225090   5.876   2.220   0.720  0.7509  0.8671  0.0037
 2650SOL     OW25091   4.234   4.589   7.203 -0.4704  0.2101 -0.2576
 2650SOL    HW125092   4.225   4.537   7.123  1.1459 -1.1420  0.3739
 2650SOL    HW225093   4.328   4.586   7.223 -0.7182  1.1998  1.2512
 2651SOL     OW25094   2.602   5.267   5.757 -0.1886  0.0881  0.5107
 2651SOL    HW125095   2.557   5.326   5.818  0.5561  0.9113  0.2957
 2651SOL    HW225096   2.632   5.325   5.686 -1.6938 -0.9587 -1.0436
 2652SOL     OW25097   2.565   3.368   0.918  0.3581 -0.0141 -0.3805
 2652SOL    HW125098   2.500   3.298   0.920  0.1643 -0.1189 -4.0466
 2652SOL    HW225099   2.635   3.335   0.861  1.2996  1.9335 -0.4315
 2653SOL     OW25100   0.626   6.094   1.517  0.0486 -0.2122  0.4305
 2653SOL    HW125101   0.633   6.163   1.583  1.8274 -0.3969  0.4688
 2653SOL    HW225102   0.533   6.069   1.519 -0.4319  1.4859  1.0980
 2654SOL     OW25103   0.227   1.517   6.532 -0.3558  0.2378 -0.3037
 2654SOL    HW125104   0.292   1.489   6.468  0.3711  1.2401 -0.0231
 2654SOL    HW225105   0.237   1.456   6.605 -0.7434 -0.5076 -0.8658
 2655SOL     OW25106   1.583   5.588   7.222  0.8963  0.2295  0.5002
 2655SOL    HW125107   1.510   5.635   7.261  0.9454  0.2713  0.5409
 2655SOL    HW225108   1.542   5.531   7.156  0.8032  0.0656  0.7008
 2656SOL     OW25109   5.144   2.853   1.965  0.0022  0.2177  0.1751
 2656SOL    HW125110   5.083   2.815   2.028  2.1551 -0.8194  1.7913
 2656SOL    HW225111   5.190   2.921   2.015 -0.6725  1.8710 -1.3697
 2657SOL     OW25112   5.822   3.124   1.272  0.0587 -0.5044  1.3097
 2657SOL    HW125113   5.726   3.120   1.281 -0.2917  1.3901 -0.6749
 2657SOL    HW225114   5.848   3.188   1.339 -0.2823  0.1770  0.8043
 2658SOL     OW25115   0.098   3.378   7.193  0.3358  0.4695 -0.1173
 2658SOL    HW125116   0.129   3.328   7.118  0.4773  1.8505 -1.0075
 2658SOL    HW225117   0.075   3.464   7.157 -2.0019  0.3773  0.9594
 2659SOL     OW25118   4.889   5.877   2.184  0.1190 -0.0501  0.1767
 2659SOL    HW125119   4.825   5.850   2.251 -1.8597  1.6204 -0.9200
 2659SOL    HW225120   4.909   5.968   2.206 -1.6464  1.0199 -2.1527
 2660SOL     OW25121   5.222   5.128   0.145  0.5611  0.0131  0.2077
 2660SOL    HW125122   5.281   5.161   0.077 -2.0106  0.6881 -1.8319
 2660SOL    HW225123   5.196   5.041   0.114  0.6924 -0.4139  1.2491
 2661SOL     OW25124   1.972   6.309   6.398  0.0475 -0.7830 -0.3164
 2661SOL    HW125125   1.960   6.324   6.304  0.4096  1.1401 -0.0959
 2661SOL    HW225126   2.058   6.346   6.417 -1.2674  1.7017  1.2859
 2662SOL     OW25127   4.436   3.259   6.782  0.3361 -0.5358 -0.3576
 2662SOL    HW125128   4.364   3.249   6.720 -0.4441 -0.7562  0.5455
 2662SOL    HW225129   4.414   3.198   6.853  0.6731  0.4194  0.5897
 2663SOL     OW25130   3.809   4.917   0.151  0.0228 -0.3376 -0.5093
 2663SOL    HW125131   3.750   4.939   0.079  0.7551 -1.1096 -1.3803
 2663SOL    HW225132   3.815   4.997   0.202 -1.5794 -0.1749 -0.5204
 2664SOL     OW25133   1.302   3.170   0.871 -0.2687 -0.4496  0.5825
 2664SOL    HW125134   1.384   3.128   0.896 -1.2805 -0.7195  3.9013
 2664SOL    HW225135   1.322   3.264   0.868 -0.1141 -0.3724  2.8930
 2665SOL     OW25136   4.474   4.720   1.051 -0.3994 -0.2819  0.1790
 2665SOL    HW125137   4.397   4.776   1.058 -0.2803  0.0211 -0.8057
 2665SOL    HW225138   4.506   4.734   0.962 -0.5423 -2.1658 -0.2042
 2666SOL     OW25139   1.024   0.863   7.181  0.1389  0.0388  0.3434
 2666SOL    HW125140   1.092   0.892   7.242 -1.2253  2.6804  0.7731
 2666SOL    HW225141   0.981   0.944   7.154 -2.6441 -1.4857 -0.1247
 2667SOL     OW25142   4.512   4.156   6.136 -0.1386  0.4636 -0.1702
 2667SOL    HW125143   4.605   4.143   6.156  0.0518  2.1947  0.2752
 2667SOL    HW225144   4.499   4.250   6.144 -1.6256  0.4336 -1.6747
 2668SOL     OW25145   5.584   1.834   0.052 -0.1181  0.0314 -0.7578
 2668SOL    HW125146   5.540   1.842   0.136  0.6286 -0.2093 -0.3263
 2668SOL    HW225147   5.641   1.911   0.047 -0.9168  0.5825 -1.5150
 2669SOL     OW25148   4.788   4.180   1.917 -0.0400 -0.3373 -0.1603
 2669SOL    HW125149   4.827   4.175   1.829  3.4815 -0.1230  1.2239
 2669SOL    HW225150   4.854   4.226   1.969 -0.3407 -3.5609  3.4291
 2670SOL     OW25151   5.529   4.000   6.012 -0.1145 -0.2835  0.2027
 2670SOL    HW125152   5.590   3.986   5.939 -1.7888 -1.2895 -1.0655
 2670SOL    HW225153   5.477   4.075   5.986 -1.4648 -1.3263 -0.1856
 2671SOL     OW25154   4.074   3.421   0.919  0.2270 -0.0186 -0.0900
 2671SOL    HW125155   4.077   3.461   0.832 -0.2826 -0.6471 -0.4099
 2671SOL    HW225156   4.163   3.389   0.934  0.4681  0.6350 -0.1164
 2672SOL     OW25157   2.753   0.331   5.965  0.3907  0.3889 -0.4732
 2672SOL    HW125158   2.827   0.349   6.022 -1.2286 -0.3811  2.0170
 2672SOL    HW225159   2.790   0.279   5.893  2.4023  0.8354  0.1894
 2673SOL     OW25160   5.346   5.078   6.006  0.3432 -0.1085  0.0019
 2673SOL    HW125161   5.412   5.117   6.063  2.5791 -3.1645 -0.2099
 2673SOL    HW225162   5.368   5.109   5.918  2.1520 -1.7698 -0.1814
 2674SOL     OW25163   0.226   6.074   5.945 -0.6854 -0.4091 -0.4374
 2674SOL    HW125164   0.151   6.108   5.897 -0.3074  1.5982  0.2764
 2674SOL    HW225165   0.300   6.084   5.885 -0.5705  0.0661 -0.2207
 2675SOL     OW25166   3.709   0.003   6.659 -0.5374  0.0023  0.3998
 2675SOL    HW125167   3.717   0.066   6.730 -1.1270 -1.1883  1.5463
 2675SOL    HW225168   3.625   0.023   6.618  0.4086  1.5889 -0.9084
 2676SOL     OW25169   2.432   6.431   1.073 -0.4044  0.9746  0.5073
 2676SOL    HW125170   2.435   6.340   1.104 -1.4844  0.6639 -0.2322
 2676SOL    HW225171   2.459   6.483   1.149  0.1674  0.0469  0.9605
 2677SOL     OW25172   4.648   3.763   2.827  0.3421 -0.1670  0.2659
 2677SOL    HW125173   4.650   3.757   2.732 -0.4339 -3.6360  0.3462
 2677SOL    HW225174   4.586   3.833   2.845  0.1794  0.2735 -1.7603
 2678SOL     OW25175   0.089   0.526   2.075  0.0990  0.1378  0.1747
 2678SOL    HW125176   0.120   0.437   2.063  1.7275  0.5692  0.9341
 2678SOL    HW225177   0.137   0.559   2.151 -0.4397  1.6706 -0.0996
 2679SOL     OW25178   3.253   2.331   6.991  0.3745  0.4610  0.1200
 2679SOL    HW125179   3.233   2.349   7.083  3.1212  1.6556  0.5791
 2679SOL    HW225180   3.267   2.418   6.953  0.1122 -0.0700 -1.2441
 2680SOL     OW25181   4.236   3.650   2.465 -0.0545  0.1227 -0.6393
 2680SOL    HW125182   4.283   3.567   2.467  1.0037  0.6990  1.0391
 2680SOL    HW225183   4.290   3.709   2.519 -0.7013  1.9364 -1.8810
 2681SOL     OW25184   5.494   2.580   6.920 -0.2746 -0.0940  0.5130
 2681SOL    HW125185   5.585   2.551   6.911  0.0332  1.0775 -0.3743
 2681SOL    HW225186   5.444   2.517   6.869  0.1464 -0.2586  0.2960
 2682SOL     OW25187   2.451   2.397   0.034 -0.0605  0.5151  0.3617
 2682SOL    HW125188   2.477   2.328   0.094 -1.3146  0.0819  0.4194
 2682SOL    HW225189   2.359   2.413   0.052 -0.8083 -0.3904 -2.1675
 2683SOL     OW25190   6.237   5.635   6.271  0.5202 -0.2528  0.5209
 2683SOL    HW125191   6.151   5.596   6.254  1.2307 -1.0156 -1.5812
 2683SOL    HW225192   6.258   5.683   6.191  1.6933  0.6707  1.3403
 2684SOL     OW25193   5.341   5.956   1.430 -0.2991  0.2348  0.0436
 2684SOL    HW125194   5.360   6.047   1.407  0.4452  0.4031  1.2664
 2684SOL    HW225195   5.245   5.951   1.430 -0.3651  1.2735  0.9221
 2685SOL     OW25196   5.960   5.104   6.984 -0.1825  0.3443  0.0079
 2685SOL    HW125197   6.005   5.181   6.952  0.3546  0.3530  0.7615
 2685SOL    HW225198   5.986   5.097   7.076  2.0391 -2.2958 -0.6881
 2686SOL     OW25199   6.410   5.586   6.854 -0.1715 -0.1066  0.0887
 2686SOL    HW125200   6.501   5.570   6.878 -0.6461 -2.2273  0.7221
 2686SOL    HW225201   6.379   5.650   6.918  1.4557  2.5383 -1.5912
 2687SOL     OW25202   4.891   5.293   6.555 -0.2748 -0.2506 -0.1121
 2687SOL    HW125203   4.926   5.206   6.573 -1.7542 -0.7153  0.7351
 2687SOL    HW225204   4.857   5.287   6.466  1.0191 -0.0356 -0.6401
 2688SOL     OW25205   1.074   1.078   1.691  0.5888 -0.1497  0.2540
 2688SOL    HW125206   1.169   1.068   1.683  0.4070 -1.5318 -0.5245
 2688SOL    HW225207   1.052   1.151   1.633  1.0454 -0.5798 -0.4678
 2689SOL     OW25208   3.092   0.427   1.149 -0.1540 -0.0836 -0.4065
 2689SOL    HW125209   3.072   0.513   1.186  2.2205  0.5213 -0.3544
 2689SOL    HW225210   3.021   0.370   1.180 -0.8783  1.4812  0.9557
 2690SOL     OW25211   6.551   6.453   2.184  0.1575  0.2452  0.7661
 2690SOL    HW125212   6.472   6.442   2.238 -0.4602  0.1153 -0.1292
 2690SOL    HW225213   6.537   6.538   2.140  0.2157 -0.0704  0.1283
 2691SOL     OW25214   1.155   4.556   6.338  0.1215 -0.0486 -0.1193
 2691SOL    HW125215   1.119   4.552   6.427  0.6982 -1.8852  0.0896
 2691SOL    HW225216   1.079   4.543   6.281  0.0606 -1.3737  0.2259
 2692SOL     OW25217   4.224   1.624   2.082  0.0777  0.2681 -0.2519
 2692SOL    HW125218   4.303   1.641   2.032  1.4186 -0.4018  1.5336
 2692SOL    HW225219   4.153   1.631   2.018  1.7538 -1.7231 -2.5170
 2693SOL     OW25220   0.294   3.477   6.536  0.0376  0.4647  0.7463
 2693SOL    HW125221   0.323   3.542   6.600 -0.1530  0.5032  0.7948
 2693SOL    HW225222   0.233   3.421   6.585  1.4155 -0.7425  1.1485
 2694SOL     OW25223   6.332   3.204   1.889 -0.2257 -0.3604 -0.3320
 2694SOL    HW125224   6.421   3.213   1.855 -0.3242  2.0848 -0.1583
 2694SOL    HW225225   6.277   3.209   1.811 -0.3578  3.2256 -0.1591
 2695SOL     OW25226   5.846   6.523   1.103  0.0417 -0.0046  0.4243
 2695SOL    HW125227   5.897   6.587   1.151  0.4309 -0.4474  0.6120
 2695SOL    HW225228   5.908   6.453   1.082 -0.1971  0.0182 -0.4220
 2696SOL     OW25229   2.924   3.386   6.249  0.3933 -0.4520 -0.1911
 2696SOL    HW125230   2.994   3.391   6.183  0.6611  0.0234  0.1216
 2696SOL    HW225231   2.959   3.435   6.324 -0.9376  1.2705 -0.6217
 2697SOL     OW25232   4.582   2.608   0.920 -0.6027 -0.1760  0.4704
 2697SOL    HW125233   4.606   2.593   0.829 -2.2832  0.5408 -0.1264
 2697SOL    HW225234   4.489   2.633   0.917 -0.6617 -0.0072  2.3608
 2698SOL     OW25235   4.733   4.149   6.346 -0.0641  0.3625 -0.0983
 2698SOL    HW125236   4.680   4.078   6.381 -0.6706  1.2475  0.8161
 2698SOL    HW225237   4.697   4.228   6.385  1.4747  1.0545 -0.0124
 2699SOL     OW25238   2.702   2.151   5.971  0.2922 -0.7896  0.0075
 2699SOL    HW125239   2.717   2.245   5.976  1.1633 -0.7739 -1.9775
 2699SOL    HW225240   2.614   2.142   5.933  0.3359 -0.7718 -0.0980
 2700SOL     OW25241   3.332   6.373   0.480 -0.7826  0.0018 -0.2497
 2700SOL    HW125242   3.367   6.443   0.425  2.9155 -0.8123  0.8164
 2700SOL    HW225243   3.318   6.300   0.420 -0.9213  0.4347 -0.7487
 2701SOL     OW25244   3.494   2.782   1.143 -0.2804 -0.2702  0.2582
 2701SOL    HW125245   3.466   2.775   1.234 -0.5212  0.1403  0.2188
 2701SOL    HW225246   3.590   2.777   1.146 -0.1585  1.6581  0.7396
 2702SOL     OW25247   2.047   1.019   2.494  0.3476  0.1214  0.0953
 2702SOL    HW125248   1.964   0.971   2.488  0.2744  0.4360 -2.1585
 2702SOL    HW225249   2.087   1.010   2.408  2.9628 -0.4745  1.2687
 2703SOL     OW25250   3.394   3.319   0.329 -0.0663 -0.4528 -0.1738
 2703SOL    HW125251   3.430   3.374   0.398 -0.7216  0.3333 -0.4490
 2703SOL    HW225252   3.386   3.232   0.370  0.8087 -0.3098  0.3097
 2704SOL     OW25253   2.386   0.372   5.833 -0.1455 -0.6435 -0.1308
 2704SOL    HW125254   2.305   0.335   5.797 -0.5486  0.6224 -0.5927
 2704SOL    HW225255   2.452   0.357   5.765 -0.7878  1.2841 -1.2464
 2705SOL     OW25256   1.442   1.927   5.643  0.7340 -0.0842 -0.6891
 2705SOL    HW125257   1.390   1.847   5.650 -0.3199  0.7205  2.3082
 2705SOL    HW225258   1.499   1.912   5.568  0.7588 -3.7349 -0.1377
 2706SOL     OW25259   2.405   2.409   6.599  0.2757 -0.4714  0.9302
 2706SOL    HW125260   2.493   2.420   6.633  0.1942  1.0035  0.7380
 2706SOL    HW225261   2.407   2.450   6.513 -1.0933  1.6051  1.7842
 2707SOL     OW25262   1.165   2.061   7.076 -0.1347 -0.2363  0.0175
 2707SOL    HW125263   1.116   2.078   7.156  2.7366 -1.8974  2.3211
 2707SOL    HW225264   1.136   1.974   7.048 -1.0493  0.2934 -0.7369
 2708SOL     OW25265   4.517   4.739   0.750  0.3455  0.2840 -0.2921
 2708SOL    HW125266   4.569   4.766   0.675  1.0664  1.3255  0.5418
 2708SOL    HW225267   4.428   4.728   0.716  0.6141  0.9813 -1.2416
 2709SOL     OW25268   3.131   1.479   6.510 -0.4627 -0.3810 -0.8022
 2709SOL    HW125269   3.090   1.393   6.502 -1.5455  0.1511 -1.1714
 2709SOL    HW225270   3.157   1.501   6.421 -1.4179  0.2518 -0.9336
 2710SOL     OW25271   5.777   2.792   1.286 -0.0995 -0.3392 -0.6738
 2710SOL    HW125272   5.770   2.886   1.268 -0.6406 -0.1924  0.2029
 2710SOL    HW225273   5.693   2.756   1.258 -0.4696 -0.3030  0.3214
 2711SOL     OW25274   5.889   1.501   7.217  0.3414  0.5881 -0.2551
 2711SOL    HW125275   5.867   1.540   7.133  0.1280 -0.1791 -0.5608
 2711SOL    HW225276   5.863   1.566   7.282 -0.3983  0.7713 -0.7339
 2712SOL     OW25277   2.775   5.010   4.938  0.3449  0.0813 -0.1802
 2712SOL    HW125278   2.815   5.094   4.961 -1.2374  0.9817 -0.5213
 2712SOL    HW225279   2.711   5.032   4.870 -0.7206 -1.2525  0.3320
 2713SOL     OW25280   4.144   3.586   1.526  0.4382  0.9207  0.4288
 2713SOL    HW125281   4.135   3.649   1.454  1.3282 -0.4966 -0.9931
 2713SOL    HW225282   4.154   3.501   1.482 -0.4937 -0.2061  2.2719
 2714SOL     OW25283   6.589   1.428   7.216 -0.2291 -0.3774 -0.1169
 2714SOL    HW125284   6.606   1.401   7.306  1.5323 -1.4437 -0.7089
 2714SOL    HW225285   6.551   1.516   7.223  1.7738  0.4270  1.6007
 2715SOL     OW25286   2.732   3.134   1.076  0.0423 -0.0907 -0.0808
 2715SOL    HW125287   2.820   3.096   1.082  0.4942  0.5554 -1.7610
 2715SOL    HW225288   2.724   3.158   0.983 -1.3460  1.1814  0.3393
 2716SOL     OW25289   3.098   1.162   0.153 -0.0007 -0.1243  0.4388
 2716SOL    HW125290   3.100   1.212   0.235  0.0391 -0.7060  0.7968
 2716SOL    HW225291   3.136   1.221   0.088  0.0183  0.3222  0.8521
 2717SOL     OW25292   3.113   1.697   7.003 -0.6396  0.4015  0.2482
 2717SOL    HW125293   3.055   1.651   6.942 -1.0337 -0.4269  1.2268
 2717SOL    HW225294   3.058   1.717   7.078 -0.1008  1.2213  0.4394
 2718SOL     OW25295   4.245   5.920   5.656  0.0202  0.2154  0.3117
 2718SOL    HW125296   4.199   5.957   5.581  1.3387 -0.5820 -0.9290
 2718SOL    HW225297   4.256   5.827   5.634 -2.0508 -0.7504  2.7548
 2719SOL     OW25298   3.001   2.080   1.052 -0.2847 -0.7110 -0.3781
 2719SOL    HW125299   2.951   1.998   1.057  0.4926 -1.1567  0.5158
 2719SOL    HW225300   2.956   2.139   1.113 -0.1040 -0.9046 -0.0518
 2720SOL     OW25301   4.598   5.198   7.214  1.0282 -0.1615  0.4458
 2720SOL    HW125302   4.563   5.137   7.279  2.6407  0.2916  1.8312
 2720SOL    HW225303   4.521   5.238   7.174 -0.0506 -0.1242  2.4268
 2721SOL     OW25304   3.549   3.520   1.535 -0.5715 -0.3055 -0.1245
 2721SOL    HW125305   3.509   3.561   1.459 -0.3295  1.1114  0.4740
 2721SOL    HW225306   3.513   3.568   1.610  1.5998  0.5008  0.4737
 2722SOL     OW25307   3.894   2.690   6.847  1.0140 -0.2585 -0.0334
 2722SOL    HW125308   3.903   2.596   6.864  0.8005 -0.1400  0.8054
 2722SOL    HW225309   3.954   2.708   6.775  1.3084 -0.9742  0.0275
 2723SOL     OW25310   0.701   5.802   0.871 -0.1347 -0.0144 -0.3963
 2723SOL    HW125311   0.789   5.772   0.895 -0.1308  0.6294  0.4315
 2723SOL    HW225312   0.707   5.820   0.777 -0.2977 -3.1086 -1.1384
 2724SOL     OW25313   4.895   1.458   1.413  0.5082 -0.3814  0.1648
 2724SOL    HW125314   4.801   1.453   1.392  0.3787  0.5985  0.4876
 2724SOL    HW225315   4.930   1.373   1.384 -0.4719 -0.7549  0.0295
 2725SOL     OW25316   3.691   3.263   6.406  0.9434 -0.0212 -0.3029
 2725SOL    HW125317   3.759   3.271   6.473  0.0083 -0.3106  0.7037
 2725SOL    HW225318   3.739   3.249   6.324  2.0723 -1.1660  0.5230
 2726SOL     OW25319   1.645   1.285   5.989  0.2436 -0.9864 -0.3859
 2726SOL    HW125320   1.572   1.339   5.958  1.0821 -0.7661 -2.0900
 2726SOL    HW225321   1.693   1.342   6.049 -0.8106 -1.0604  0.5855
 2727SOL     OW25322   2.841   1.239   2.220  0.8130 -0.7378  0.1777
 2727SOL    HW125323   2.860   1.205   2.308  1.3203  2.0111  1.2176
 2727SOL    HW225324   2.926   1.252   2.180  0.7102  0.5551  0.3427
 2728SOL     OW25325   6.206   0.093   0.887  0.3640 -0.3595  0.1759
 2728SOL    HW125326   6.110   0.087   0.882  0.2949  0.8670 -0.4367
 2728SOL    HW225327   6.223   0.183   0.913  1.3726 -0.0164 -1.4784
 2729SOL     OW25328   2.643   0.192   7.419  0.1123 -0.4669 -0.7963
 2729SOL    HW125329   2.714   0.198   7.482 -0.6246 -1.0754  0.1325
 2729SOL    HW225330   2.686   0.185   7.334  1.1186  0.8932 -0.4270
 2730SOL     OW25331   6.161   2.351   5.875  0.1892 -0.4103  0.6974
 2730SOL    HW125332   6.230   2.294   5.910  1.1267  0.3795  0.2021
 2730SOL    HW225333   6.130   2.306   5.796  2.7749  0.9004 -1.2301
 2731SOL     OW25334   1.833   4.845   1.100  0.0495  0.3723  0.4246
 2731SOL    HW125335   1.790   4.837   1.186 -1.9603  0.2765 -0.5255
 2731SOL    HW225336   1.874   4.931   1.101 -0.4163  0.5978  1.3014
 2732SOL     OW25337   1.387   6.400   1.267  0.4576 -0.0810  0.7561
 2732SOL    HW125338   1.364   6.428   1.356 -0.9658 -1.1936  0.7686
 2732SOL    HW225339   1.363   6.474   1.212  1.1423  0.5346  1.2558
 2733SOL     OW25340   6.490   1.672   5.642  0.1486 -0.4162  0.0130
 2733SOL    HW125341   6.423   1.732   5.675 -0.5407 -0.9225 -0.4248
 2733SOL    HW225342   6.561   1.678   5.706 -0.8527 -0.8460  1.2312
 2734SOL     OW25343   0.340   4.169   6.088  0.1369  0.1435 -1.0869
 2734SOL    HW125344   0.253   4.165   6.048 -0.2032  0.1207 -0.3729
 2734SOL    HW225345   0.372   4.257   6.067 -0.4606  0.4980 -0.5802
 2735SOL     OW25346   3.089   1.729   0.823 -0.3411 -0.4763  0.2391
 2735SOL    HW125347   3.156   1.709   0.888 -0.3504  2.4963  1.2852
 2735SOL    HW225348   3.100   1.822   0.804 -1.6637 -0.7867 -2.5389
 2736SOL     OW25349   2.739   2.475   1.422  0.6025  0.2651  0.4160
 2736SOL    HW125350   2.826   2.437   1.407 -0.9934 -3.3089 -0.9040
 2736SOL    HW225351   2.733   2.486   1.516  1.7377 -1.5528  0.7402
 2737SOL     OW25352   3.773   6.574   0.760  0.1722  0.2806 -0.2754
 2737SOL    HW125353   3.800   6.577   0.852  0.1162 -1.6230 -0.1546
 2737SOL    HW225354   3.688   6.530   0.762  1.1116 -1.7166 -1.3664
 2738SOL     OW25355   3.995   4.092   0.311  0.5964 -0.3039  0.4674
 2738SOL    HW125356   3.966   4.076   0.221  1.0915  1.0067  0.0564
 2738SOL    HW225357   4.045   4.013   0.333  0.6160 -0.5754 -0.4680
 2739SOL     OW25358   3.743   3.887   6.911  0.5705 -0.3751 -0.3144
 2739SOL    HW125359   3.696   3.807   6.936  0.6360 -0.4421 -0.4077
 2739SOL    HW225360   3.718   3.901   6.820  0.2064 -0.0423 -0.1662
 2740SOL     OW25361   2.438   1.436   6.910  0.3545  0.0777  0.1013
 2740SOL    HW125362   2.361   1.492   6.907  0.4040  0.1003 -1.6279
 2740SOL    HW225363   2.501   1.484   6.963  0.2758  1.5264 -1.0697
 2741SOL     OW25364   0.819   2.299   1.358 -0.3520  0.2263 -0.2202
 2741SOL    HW125365   0.886   2.343   1.411  0.9655 -1.2895 -0.5403
 2741SOL    HW225366   0.756   2.266   1.422  0.3633 -0.1792  0.2992
 2742SOL     OW25367   3.890   5.507   5.295 -0.0433 -0.0920  0.1787
 2742SOL    HW125368   3.878   5.412   5.289  2.1304 -0.3466 -1.0018
 2742SOL    HW225369   3.806   5.543   5.268 -0.5087 -1.6837 -0.6359
 2743SOL     OW25370   2.845   4.000   6.774  0.3393 -0.2973  0.1229
 2743SOL    HW125371   2.889   4.028   6.854  1.7806  0.5971 -0.9213
 2743SOL    HW225372   2.814   4.081   6.734  1.6843 -0.4586 -1.3439
 2744SOL     OW25373   5.470   1.068   6.621 -0.2252  0.0845 -0.8731
 2744SOL    HW125374   5.496   1.090   6.710  0.2038  1.0699 -1.2283
 2744SOL    HW225375   5.490   0.975   6.612 -0.0537  0.0333 -0.0255
 2745SOL     OW25376   3.317   1.007   5.730  0.0278 -0.0956  0.4889
 2745SOL    HW125377   3.315   1.084   5.674  1.9240  1.4419  2.3950
 2745SOL    HW225378   3.237   1.014   5.783 -1.0761 -0.8411 -1.0067
 2746SOL     OW25379   2.901   3.787   6.070  0.0225 -0.8276  0.1698
 2746SOL    HW125380   2.969   3.746   6.015 -0.4106  0.5427 -1.4739
 2746SOL    HW225381   2.824   3.789   6.014 -1.1029 -1.3662  1.6479
 2747SOL     OW25382   5.864   5.310   0.003 -0.2504  0.7675  0.2834
 2747SOL    HW125383   5.854   5.337   0.094  0.7867  0.3760  0.5192
 2747SOL    HW225384   5.790   5.351  -0.042  0.3489  2.6544  0.9097
 2748SOL     OW25385   4.482   4.516   7.213  0.7639  0.4605 -0.1015
 2748SOL    HW125386   4.518   4.508   7.301 -0.0352 -2.3870  0.0405
 2748SOL    HW225387   4.554   4.490   7.155  0.2967 -0.9663 -0.0658
 2749SOL     OW25388   3.627   5.379   1.620  0.0681 -0.3884 -0.6528
 2749SOL    HW125389   3.619   5.471   1.644 -0.1562 -0.5046 -0.2731
 2749SOL    HW225390   3.706   5.349   1.666 -1.0726 -0.9414  1.0196
 2750SOL     OW25391   5.329   6.331   6.403 -0.1123  0.4767  0.0535
 2750SOL    HW125392   5.313   6.356   6.494 -0.8015  1.5329 -0.3439
 2750SOL    HW225393   5.292   6.243   6.396 -0.1154  0.4117  0.7739
 2751SOL     OW25394   0.374   6.564   0.112 -0.5870  0.0630  0.0300
 2751SOL    HW125395   0.336   6.586   0.027  0.5818  0.2878 -0.4437
 2751SOL    HW225396   0.451   6.511   0.092 -0.8858 -0.7869  1.0025
 2752SOL     OW25397   3.882   0.063   0.503  0.3697  0.0882 -0.2113
 2752SOL    HW125398   3.842   0.021   0.579 -2.0684 -0.6513 -1.7939
 2752SOL    HW225399   3.878   0.157   0.522  0.3081 -0.1031  0.7808
 2753SOL     OW25400   3.989   5.959   0.130  0.1640 -0.3508 -0.1255
 2753SOL    HW125401   3.912   5.959   0.073  0.4670  0.2142 -0.5394
 2753SOL    HW225402   4.063   5.968   0.071  0.4225  1.4246  0.4000
 2754SOL     OW25403   0.837   4.366   7.380  0.7549 -0.1380 -0.3433
 2754SOL    HW125404   0.876   4.299   7.325 -1.4829 -0.8416 -1.1781
 2754SOL    HW225405   0.790   4.318   7.448  0.0790  0.5927 -0.2681
 2755SOL     OW25406   3.814   2.924   5.303 -0.2151  0.3396 -0.3769
 2755SOL    HW125407   3.839   2.919   5.396 -0.3559 -0.6026 -0.3764
 2755SOL    HW225408   3.722   2.951   5.304  0.0011  1.0928 -0.2765
 2756SOL     OW25409   4.335   4.984   6.287 -0.2846 -0.2210 -0.3817
 2756SOL    HW125410   4.258   5.003   6.234 -0.1867  0.8955 -0.1452
 2756SOL    HW225411   4.404   4.966   6.223 -1.2432 -3.7248 -0.6355
 2757SOL     OW25412   5.461   1.384   6.088  0.6462 -0.6875 -0.2531
 2757SOL    HW125413   5.542   1.342   6.118  0.6895 -0.1176  0.4668
 2757SOL    HW225414   5.484   1.426   6.005  0.9700 -0.9101 -0.2745
 2758SOL     OW25415   0.541   4.178   5.727  0.4311 -0.1565 -0.3345
 2758SOL    HW125416   0.619   4.161   5.675  0.8502 -2.3598  0.9223
 2758SOL    HW225417   0.572   4.184   5.817 -0.4237  2.5429 -0.1277
 2759SOL     OW25418   4.295   5.980   5.899 -0.0486  0.3517 -0.2341
 2759SOL    HW125419   4.301   6.075   5.913 -1.3725  0.4561 -0.2468
 2759SOL    HW225420   4.276   5.972   5.805 -2.5602  0.2421  0.2160
 2760SOL     OW25421   5.824   6.106   0.055  0.2487 -0.0980  0.5534
 2760SOL    HW125422   5.860   6.021   0.079 -0.8288 -0.4419  1.0398
 2760SOL    HW225423   5.732   6.088   0.034  0.2235  0.8134 -0.1871
 2761SOL     OW25424   0.952   1.258   1.208 -0.3434  0.2877 -0.7362
 2761SOL    HW125425   1.038   1.260   1.166 -0.9054 -1.5838 -2.0967
 2761SOL    HW225426   0.891   1.280   1.138 -1.0637  0.5256 -0.0505
 2762SOL     OW25427   0.171   1.321   1.424  0.1710  0.1749  0.4948
 2762SOL    HW125428   0.097   1.274   1.461  0.0127  0.3839  0.4375
 2762SOL    HW225429   0.204   1.376   1.495  0.1856  0.1883  0.4777
 2763SOL     OW25430   3.104   4.004   5.784  0.2843 -0.5176 -0.1724
 2763SOL    HW125431   3.019   4.040   5.808  0.2028 -0.4821 -0.5092
 2763SOL    HW225432   3.114   4.026   5.692  1.2145  0.5790  0.1701
 2764SOL     OW25433   4.718   0.962   1.029  0.5062  0.3209  0.1106
 2764SOL    HW125434   4.688   0.932   0.944 -2.4537  2.2837  0.3023
 2764SOL    HW225435   4.809   0.988   1.015  0.8366 -1.5589 -1.7925
 2765SOL     OW25436   1.888   1.520   5.912  0.4435  0.3656  0.3686
 2765SOL    HW125437   1.810   1.555   5.955  1.7791  3.2066  0.6388
 2765SOL    HW225438   1.946   1.494   5.984  0.5373  0.0681  0.1903
 2766SOL     OW25439   2.953   2.177   1.681  0.1629  0.1044  0.1194
 2766SOL    HW125440   3.039   2.142   1.703 -0.2462 -0.0609  1.5371
 2766SOL    HW225441   2.955   2.267   1.713  0.1743  0.4591 -0.8421
 2767SOL     OW25442   5.888   1.739   6.767  0.6766  0.3593  0.2417
 2767SOL    HW125443   5.935   1.696   6.839  0.1093  0.2526  0.5600
 2767SOL    HW225444   5.947   1.733   6.693  1.0430 -0.0363  0.5578
 2768SOL     OW25445   2.262   2.815   0.715 -0.3486 -0.4453 -0.2976
 2768SOL    HW125446   2.228   2.828   0.627 -0.8211 -0.3506 -0.1031
 2768SOL    HW225447   2.188   2.834   0.773 -0.1730 -0.9372  0.1018
 2769SOL     OW25448   1.109   2.445   0.591 -0.0362  0.2369 -0.1561
 2769SOL    HW125449   1.144   2.514   0.535 -2.0051  2.7614  1.4707
 2769SOL    HW225450   1.019   2.433   0.560 -0.0971 -0.7252  0.3666
 2770SOL     OW25451   4.778   3.616   6.169  0.7831  0.2448 -0.0649
 2770SOL    HW125452   4.858   3.604   6.119 -0.4029 -1.3467 -1.7039
 2770SOL    HW225453   4.735   3.531   6.168 -1.6264  1.3682 -0.5071
 2771SOL     OW25454   0.481   1.716   0.707  0.0309  0.0295  0.1493
 2771SOL    HW125455   0.469   1.698   0.801  0.5065 -2.0465 -0.1433
 2771SOL    HW225456   0.393   1.736   0.675 -0.5553 -1.6448  0.6048
 2772SOL     OW25457   4.122   4.843   0.190 -0.0553 -0.3742  0.3906
 2772SOL    HW125458   4.133   4.935   0.167  2.8830 -1.0590 -1.4711
 2772SOL    HW225459   4.124   4.796   0.107  0.9771 -2.2691  1.4051
 2773SOL     OW25460   6.271   3.059   0.350 -0.3327  0.6381 -0.1408
 2773SOL    HW125461   6.268   2.964   0.336  0.6938  0.5604  0.0843
 2773SOL    HW225462   6.225   3.096   0.274  0.7918  0.0268 -1.1448
 2774SOL     OW25463   5.489   0.487   1.708 -0.6136 -0.8135 -0.3087
 2774SOL    HW125464   5.398   0.514   1.720 -0.4406  0.2949 -1.2277
 2774SOL    HW225465   5.540   0.561   1.741 -0.1182  0.4752 -3.5506
 2775SOL     OW25466   4.355   1.059   2.369 -0.1291 -0.3287  0.0572
 2775SOL    HW125467   4.310   1.054   2.453  0.0548 -1.3617  0.0996
 2775SOL    HW225468   4.321   1.139   2.329 -2.0970 -1.1088  0.0460
 2776SOL     OW25469   5.401   1.824   7.086 -0.9691 -0.3185 -0.4903
 2776SOL    HW125470   5.410   1.774   7.006 -0.0519 -0.3177 -0.3976
 2776SOL    HW225471   5.370   1.761   7.151 -2.0361 -0.2450 -0.9120
 2777SOL     OW25472   4.120   4.459   5.450  0.9218 -0.8001  0.1351
 2777SOL    HW125473   4.038   4.493   5.486  1.1709 -0.2771  0.2193
 2777SOL    HW225474   4.146   4.525   5.385  0.2329 -1.9546 -1.3880
 2778SOL     OW25475   4.816   6.485   7.080  0.5330  0.2590  0.3731
 2778SOL    HW125476   4.767   6.446   7.007  0.1132  2.1413 -0.4179
 2778SOL    HW225477   4.900   6.440   7.080 -0.1764 -1.1271 -0.0077
 2779SOL     OW25478   2.142   5.036   7.460 -0.4580 -0.4662 -0.3556
 2779SOL    HW125479   2.173   4.962   7.407 -0.1622 -0.5357 -0.0942
 2779SOL    HW225480   2.148   5.003   7.550 -1.3405 -0.4958 -0.3017
 2780SOL     OW25481   0.148   2.536   0.513 -0.2532 -0.2706 -0.2580
 2780SOL    HW125482   0.086   2.568   0.579 -0.7345 -0.1977 -0.7395
 2780SOL    HW225483   0.102   2.465   0.469  0.8788 -1.8027  0.9285
 2781SOL     OW25484   1.981   5.787   0.132  0.5156  0.5808 -0.1611
 2781SOL    HW125485   1.941   5.714   0.085  0.9100  0.3714 -0.1680
 2781SOL    HW225486   1.972   5.765   0.224 -0.3165  1.0214 -0.1222
 2782SOL     OW25487   0.091   3.543   1.559 -0.2633 -0.1852 -0.2902
 2782SOL    HW125488   0.006   3.566   1.522 -0.6779  1.4609  1.4968
 2782SOL    HW225489   0.070   3.498   1.641  0.5583  0.3926  0.2565
 2783SOL     OW25490   0.407   6.374   6.325  0.1456 -0.3671 -0.3426
 2783SOL    HW125491   0.389   6.290   6.367 -0.4570  0.5486  1.3444
 2783SOL    HW225492   0.401   6.438   6.396  1.2491  1.0374 -1.4502
 2784SOL     OW25493   2.010   0.128   0.016  0.1286  0.0563 -0.8726
 2784SOL    HW125494   2.065   0.198   0.049 -0.0539 -0.0422 -0.3474
 2784SOL    HW225495   1.970   0.090   0.094  0.6623 -0.9983 -1.0973
 2785SOL     OW25496   0.427   0.421   5.528 -0.1752 -0.1930 -0.4869
 2785SOL    HW125497   0.337   0.387   5.529 -0.0186 -0.7005  1.5897
 2785SOL    HW225498   0.419   0.510   5.563  0.2243 -0.6372  0.8027
 2786SOL     OW25499   3.985   1.220   7.360  0.6881  0.1256 -0.4036
 2786SOL    HW125500   4.038   1.148   7.394  0.6195 -0.0403 -0.6472
 2786SOL    HW225501   3.938   1.182   7.286 -1.1411 -0.2562  0.8756
 2787SOL     OW25502   6.065   1.600   0.500  0.0071 -0.5325 -0.0233
 2787SOL    HW125503   6.151   1.641   0.493  0.4616 -0.8687  2.5715
 2787SOL    HW225504   6.057   1.546   0.421  1.4080  0.8268 -1.1403
 2788SOL     OW25505   1.125   5.830   0.240 -0.3491  0.0214 -0.0166
 2788SOL    HW125506   1.108   5.880   0.320  1.5348  1.3608 -0.3786
 2788SOL    HW225507   1.197   5.771   0.263 -1.1220 -1.0445 -0.2104
 2789SOL     OW25508   3.562   1.409   0.164  0.2327  0.3236  0.4197
 2789SOL    HW125509   3.516   1.445   0.088 -0.1000  0.5003  0.7058
 2789SOL    HW225510   3.650   1.390   0.131 -0.3085 -0.8930 -0.3632
 2790SOL     OW25511   3.069   5.265   1.818  0.0675 -0.0896  0.5067
 2790SOL    HW125512   3.121   5.292   1.894 -0.5915  0.7367  0.6813
 2790SOL    HW225513   3.041   5.347   1.778 -0.6160 -0.5245  0.0774
 2791SOL     OW25514   4.515   5.118   6.919 -0.0332  0.2574 -0.1527
 2791SOL    HW125515   4.554   5.062   6.985 -0.6356  0.0465  0.0290
 2791SOL    HW225516   4.581   5.123   6.850  0.6451  0.5621  0.4994
 2792SOL     OW25517   0.175   3.923   0.486  0.0758 -0.2103 -0.1320
 2792SOL    HW125518   0.212   3.835   0.490  0.4636 -0.1480 -1.5755
 2792SOL    HW225519   0.123   3.923   0.405 -0.8854  0.5328  0.4622
 2793SOL     OW25520   1.577   6.470   7.374  0.5637 -0.0453 -0.1509
 2793SOL    HW125521   1.571   6.394   7.431  0.1297  0.2227  0.1727
 2793SOL    HW225522   1.633   6.442   7.302  2.0500 -0.0505  0.9555
 2794SOL     OW25523   4.034   2.167   5.477  0.4146  0.1858 -0.0221
 2794SOL    HW125524   4.027   2.184   5.383  1.5673  0.3181 -0.1007
 2794SOL    HW225525   4.120   2.125   5.488  0.8569  1.3147  1.1096
 2795SOL     OW25526   5.150   0.253   0.526 -0.0574 -0.2934 -0.3807
 2795SOL    HW125527   5.206   0.183   0.493  2.1769  0.8522  0.7404
 2795SOL    HW225528   5.188   0.333   0.491  0.2754  0.6787  1.9976
 2796SOL     OW25529   4.598   0.409   7.141 -0.0084 -0.4194  0.4727
 2796SOL    HW125530   4.552   0.377   7.063  0.4278 -1.0403  0.4599
 2796SOL    HW225531   4.671   0.348   7.153  1.3724  1.0576 -0.0454
 2797SOL     OW25532   0.948   0.306   6.710 -0.0024  0.4250  0.2329
 2797SOL    HW125533   0.982   0.385   6.751 -0.4773  0.4431  0.5980
 2797SOL    HW225534   0.960   0.237   6.776  2.2153 -0.2562 -0.7732
 2798SOL     OW25535   4.184   0.595   6.930 -0.2988  0.3000 -0.3613
 2798SOL    HW125536   4.266   0.630   6.964 -1.3057  0.2671  2.4007
 2798SOL    HW225537   4.146   0.667   6.879  1.8056 -0.0270 -2.5675
 2799SOL     OW25538   3.307   0.076   1.675 -0.2004 -0.4574  0.0415
 2799SOL    HW125539   3.348   0.019   1.740 -0.6112 -0.1918  0.5476
 2799SOL    HW225540   3.251   0.134   1.727  0.4898  0.6569 -0.4069
 2800SOL     OW25541   4.696   3.272   0.724  0.1182  0.0100  0.2593
 2800SOL    HW125542   4.731   3.259   0.812 -2.8433 -2.5386  1.2296
 2800SOL    HW225543   4.709   3.188   0.680  1.4469  1.2024 -1.8022
 2801SOL     OW25544   3.832   1.360   0.464 -0.5814 -0.3234 -0.4793
 2801SOL    HW125545   3.815   1.427   0.530 -0.1606  0.0641 -0.7546
 2801SOL    HW225546   3.847   1.280   0.514 -2.1160 -0.4648 -0.1804
 2802SOL     OW25547   2.346   1.003   0.388 -0.3009 -0.3493 -0.0849
 2802SOL    HW125548   2.322   0.911   0.377  0.6829 -0.5116 -0.9627
 2802SOL    HW225549   2.329   1.021   0.481 -2.0071 -0.9617 -0.2464
 2803SOL     OW25550   4.867   5.981   5.316  0.2971  0.2114 -0.3439
 2803SOL    HW125551   4.860   5.940   5.230  0.4617 -0.6840  0.0561
 2803SOL    HW225552   4.960   5.999   5.327  0.5331 -1.3554  0.3902
 2804SOL     OW25553   3.540   0.659   5.753  0.0958 -0.4242  0.0906
 2804SOL    HW125554   3.551   0.642   5.846  0.2560 -0.6548  0.0317
 2804SOL    HW225555   3.628   0.682   5.722  0.3724 -1.9086 -0.3133
 2805SOL     OW25556   4.762   5.925   5.555 -0.2306  0.1198  0.4270
 2805SOL    HW125557   4.780   5.946   5.463 -0.0753  0.0858  0.4492
 2805SOL    HW225558   4.694   5.857   5.551 -0.4727  0.3648  0.3464
 2806SOL     OW25559   3.603   4.875   5.153 -0.3846  0.4128  0.0494
 2806SOL    HW125560   3.572   4.936   5.219  1.3736  0.6798  0.6923
 2806SOL    HW225561   3.697   4.893   5.146  0.0393 -1.6548 -0.3352
 2807SOL     OW25562   0.939   0.189   1.911  0.2510 -0.0730 -0.3626
 2807SOL    HW125563   1.012   0.130   1.928 -2.0599 -2.5038  2.1408
 2807SOL    HW225564   0.898   0.154   1.831 -0.3622 -1.1458  0.3979
 2808SOL     OW25565   1.090   2.757   6.572  0.2389  0.1056  0.3366
 2808SOL    HW125566   1.003   2.718   6.586 -0.5742  2.2022  1.5295
 2808SOL    HW225567   1.150   2.700   6.619 -1.0270  0.7179  2.8662
 2809SOL     OW25568   1.316   3.244   0.204  0.1605  0.0700 -1.1021
 2809SOL    HW125569   1.299   3.295   0.283  1.6646 -1.1532  0.0592
 2809SOL    HW225570   1.400   3.202   0.219 -1.4946 -3.8192 -1.3570
 2810SOL     OW25571   5.526   2.937   6.139  0.1721  0.2169  0.2242
 2810SOL    HW125572   5.457   2.949   6.204 -1.4070 -2.4356 -0.7996
 2810SOL    HW225573   5.554   2.846   6.150  0.5859  0.0091 -2.0667
 2811SOL     OW25574   3.832   0.734   0.029  0.0063 -0.3830 -0.2906
 2811SOL    HW125575   3.791   0.655  -0.005  0.2163 -1.7509  2.3877
 2811SOL    HW225576   3.766   0.774   0.084  0.1190  1.0205 -1.1326
 2812SOL     OW25577   3.867   5.342   0.012  0.2414  0.5383  0.2330
 2812SOL    HW125578   3.898   5.310   0.096  1.0303  2.4515  0.7157
 2812SOL    HW225579   3.805   5.412   0.033 -0.2562  0.4345 -0.7801
 2813SOL     OW25580   5.688   4.106   5.202 -0.0516 -0.5592  0.7586
 2813SOL    HW125581   5.771   4.107   5.248  1.1783 -5.2704 -0.7731
 2813SOL    HW225582   5.711   4.123   5.110 -1.1119  0.0318  0.5867
 2814SOL     OW25583   3.012   5.869   6.613 -0.4107 -0.4308  0.3166
 2814SOL    HW125584   3.073   5.850   6.542  0.4863  2.6472  0.1312
 2814SOL    HW225585   2.928   5.882   6.568 -0.4909 -1.2789  0.1925
 2815SOL     OW25586   4.324   0.978   0.779  0.1456 -0.2236  0.3479
 2815SOL    HW125587   4.268   0.969   0.702  1.1203  1.9119 -0.6705
 2815SOL    HW225588   4.410   0.948   0.750  0.0551 -1.4472  1.2734
 2816SOL     OW25589   3.771   6.155   1.450 -0.0801  0.0814 -0.4289
 2816SOL    HW125590   3.768   6.062   1.428  1.7526  0.0622 -0.7775
 2816SOL    HW225591   3.821   6.158   1.532  1.3392  0.8412 -1.2725
 2817SOL     OW25592   1.957   3.080   6.010 -0.3569  0.3256 -0.1015
 2817SOL    HW125593   2.002   3.043   5.935  0.8772  1.0861  0.2283
 2817SOL    HW225594   1.915   3.159   5.977  0.3216  0.7495  0.0104
 2818SOL     OW25595   5.454   1.489   1.750  0.5840 -0.4731  0.2409
 2818SOL    HW125596   5.419   1.555   1.809  0.2179 -2.1303  1.9804
 2818SOL    HW225597   5.548   1.486   1.770  0.9016  0.5452 -0.9450
 2819SOL     OW25598   4.294   2.685   1.161  0.2194 -0.4969 -0.1025
 2819SOL    HW125599   4.224   2.653   1.103 -2.1434  2.7857  0.6091
 2819SOL    HW225600   4.326   2.764   1.118  0.5961  0.2847  1.5275
 2820SOL     OW25601   4.003   5.626   1.172  0.6275 -0.8431 -0.0440
 2820SOL    HW125602   3.951   5.550   1.147  0.6973 -0.9888  0.2421
 2820SOL    HW225603   3.949   5.702   1.150  0.4116 -0.9865 -0.0063
 2821SOL     OW25604   0.782   6.589   5.412  0.2273  0.4076  0.7597
 2821SOL    HW125605   0.844   6.565   5.480 -0.0254 -0.6023  0.6438
 2821SOL    HW225606   0.785   6.685   5.410  3.4828  0.4033 -0.8243
 2822SOL     OW25607   4.736   1.614   1.004 -0.2051  0.1229  0.1393
 2822SOL    HW125608   4.735   1.691   0.947  0.0155 -0.4333 -0.6376
 2822SOL    HW225609   4.765   1.647   1.088 -0.2431  0.9146 -0.1481
 2823SOL     OW25610   3.796   2.460   5.708  0.6215 -0.2988 -0.5832
 2823SOL    HW125611   3.845   2.538   5.680  0.4755 -0.5397 -1.5185
 2823SOL    HW225612   3.801   2.400   5.634  2.5759 -2.0970  0.8724
 2824SOL     OW25613   0.112   4.653   5.923 -0.2068  0.0948 -0.0606
 2824SOL    HW125614   0.194   4.605   5.907 -0.6561 -0.6392 -0.2380
 2824SOL    HW225615   0.051   4.586   5.954 -1.2454  0.2789 -1.5905
 2825SOL     OW25616   1.837   1.591   0.426  0.4276 -0.0219  0.0461
 2825SOL    HW125617   1.894   1.521   0.395 -0.0418  0.3380 -1.7563
 2825SOL    HW225618   1.896   1.653   0.469  1.0283 -0.8204  0.4096
 2826SOL     OW25619   5.683   2.393   0.576 -0.2616 -0.4698 -0.4480
 2826SOL    HW125620   5.623   2.370   0.646  2.3647  0.6908  2.4093
 2826SOL    HW225621   5.693   2.313   0.525 -1.6609 -1.5982  0.9806
 2827SOL     OW25622   0.693   6.315   5.455 -0.3340 -0.4790  0.2512
 2827SOL    HW125623   0.711   6.410   5.455 -0.3090 -0.4774  0.8930
 2827SOL    HW225624   0.780   6.275   5.448 -0.4169 -0.4613 -1.1443
 2828SOL     OW25625   2.858   2.209   1.268 -0.2062  0.2542 -0.1913
 2828SOL    HW125626   2.849   2.122   1.306  0.6324  1.1323  2.1591
 2828SOL    HW225627   2.893   2.263   1.338  1.8023  1.9348 -2.3193
 2829SOL     OW25628   1.773   1.499   1.215  0.5492  0.4868 -0.4448
 2829SOL    HW125629   1.758   1.450   1.296  1.8667 -0.3626 -0.6697
 2829SOL    HW225630   1.846   1.557   1.235 -0.7179  2.1150 -0.3193
 2830SOL     OW25631   0.395   5.763   0.227  0.0167 -0.0656 -0.1518
 2830SOL    HW125632   0.308   5.722   0.225  0.3405 -0.8424  0.7104
 2830SOL    HW225633   0.416   5.768   0.321  0.6526  0.6518 -0.3275
 2831SOL     OW25634   2.151   3.539   0.702  0.2647 -0.5409 -0.1679
 2831SOL    HW125635   2.075   3.598   0.703 -1.4979 -2.6870  0.6365
 2831SOL    HW225636   2.162   3.517   0.610 -1.7962 -2.1616 -0.1102
 2832SOL     OW25637   3.778   2.784   1.120 -0.0565 -0.1248 -0.3353
 2832SOL    HW125638   3.869   2.807   1.100  0.1915  1.0042  1.7590
 2832SOL    HW225639   3.786   2.714   1.185 -0.6742  0.1741  0.0623
 2833SOL     OW25640   4.326   2.666   0.861 -0.5871 -0.0593 -0.0002
 2833SOL    HW125641   4.348   2.758   0.848 -1.5785 -0.1139 -2.6397
 2833SOL    HW225642   4.312   2.631   0.773 -1.1540 -2.5137  0.9660
 2834SOL     OW25643   4.286   4.662   0.635  0.1576 -0.2769 -0.0523
 2834SOL    HW125644   4.258   4.574   0.661  0.2244 -0.2430  0.1376
 2834SOL    HW225645   4.235   4.681   0.557 -0.4587 -0.1634  0.3686
 2835SOL     OW25646   0.514   1.787   6.956  0.0277  0.3490 -0.1183
 2835SOL    HW125647   0.444   1.801   6.893 -0.6014  1.5074  0.7985
 2835SOL    HW225648   0.471   1.789   7.041  0.5586 -3.0119  0.3742
 2836SOL     OW25649   4.646   5.122   6.207 -0.0114 -0.0934  0.0329
 2836SOL    HW125650   4.667   5.031   6.228  0.1209 -0.1197 -0.2145
 2836SOL    HW225651   4.640   5.124   6.112 -2.5305 -0.4000  0.1036
 2837SOL     OW25652   1.361   2.498   6.369 -0.0422 -0.4503  0.4734
 2837SOL    HW125653   1.277   2.514   6.326  0.4427  0.3573 -0.2092
 2837SOL    HW225654   1.385   2.583   6.407  1.1320 -0.2817 -0.5734
 2838SOL     OW25655   4.067   5.091   2.038 -0.0576  0.7951 -0.6178
 2838SOL    HW125656   4.037   5.162   2.093  0.0029  0.4950 -0.1914
 2838SOL    HW225657   3.987   5.048   2.007 -0.1002  1.2098 -1.0973
 2839SOL     OW25658   4.929   0.568   7.187 -0.5446  0.1878  0.3033
 2839SOL    HW125659   4.854   0.617   7.153 -0.1050 -0.7493 -2.3140
 2839SOL    HW225660   4.982   0.549   7.109  1.5897 -0.5611  1.8471
 2840SOL     OW25661   4.405   0.111   1.692 -0.3390  0.3034  0.3770
 2840SOL    HW125662   4.482   0.162   1.668 -0.1681 -0.6520 -1.2797
 2840SOL    HW225663   4.333   0.150   1.642 -0.2606 -0.8574 -0.6819
 2841SOL     OW25664   6.434   2.587   0.329  0.4069 -0.0706 -0.4300
 2841SOL    HW125665   6.393   2.672   0.347 -0.7634 -0.2621 -1.9881
 2841SOL    HW225666   6.496   2.605   0.259  0.9376 -0.3219 -0.0283
 2842SOL     OW25667   1.844   1.808   5.428  0.1352 -0.0922 -0.6052
 2842SOL    HW125668   1.921   1.850   5.466  0.7849 -0.0168 -1.9325
 2842SOL    HW225669   1.880   1.738   5.373 -0.8640 -1.6600  0.6437
 2843SOL     OW25670   2.119   3.532   7.451  0.5676 -0.2913 -1.0164
 2843SOL    HW125671   2.176   3.478   7.397  0.8654 -0.3979 -0.5933
 2843SOL    HW225672   2.135   3.621   7.421  1.5146 -0.2438 -0.3787
 2844SOL     OW25673   4.483   1.765   6.935 -0.2750  0.1793 -0.1596
 2844SOL    HW125674   4.422   1.694   6.913  0.1634  0.1884 -1.5174
 2844SOL    HW225675   4.497   1.755   7.029  0.3495 -2.0182 -0.4171
 2845SOL     OW25676   5.375   4.284   0.744 -0.0476  0.7598  0.2008
 2845SOL    HW125677   5.284   4.292   0.716  0.1412 -3.4761 -2.4384
 2845SOL    HW225678   5.425   4.290   0.662  2.0764  2.1811  1.5083
 2846SOL     OW25679   0.906   2.531   0.191 -0.3931  0.1338 -0.4652
 2846SOL    HW125680   0.899   2.470   0.119  0.5835  1.4560 -1.7420
 2846SOL    HW225681   0.817   2.541   0.224 -1.2377  1.0599 -2.8510
 2847SOL     OW25682   5.803   4.920   0.350  0.1210  0.3850 -0.5349
 2847SOL    HW125683   5.815   5.002   0.398  0.5254  0.1837 -0.2818
 2847SOL    HW225684   5.870   4.921   0.282  0.3795  0.0932 -0.2889
 2848SOL     OW25685   1.217   2.152   6.787  0.0863  0.7499 -0.1875
 2848SOL    HW125686   1.183   2.132   6.874 -0.8815  1.9811 -0.2491
 2848SOL    HW225687   1.247   2.067   6.753  0.0933  0.1810  1.1630
 2849SOL     OW25688   2.551   3.660   0.586  0.3500  0.7593 -0.3260
 2849SOL    HW125689   2.573   3.749   0.562  1.5775  0.4161 -0.5455
 2849SOL    HW225690   2.575   3.653   0.678 -0.4403  0.8532 -0.0998
 2850SOL     OW25691   0.104   3.089   5.305  0.1819 -0.8192  0.0210
 2850SOL    HW125692   0.158   3.045   5.239  1.2381 -0.3770  0.5561
 2850SOL    HW225693   0.162   3.097   5.381  1.4715  4.6671 -1.0781
 2851SOL     OW25694   1.176   3.265   5.783  0.2298  0.1217 -0.3002
 2851SOL    HW125695   1.102   3.317   5.752  0.4676  1.2626  0.9849
 2851SOL    HW225696   1.137   3.203   5.845  0.3341  0.7818  0.4449
 2852SOL     OW25697   3.576   1.315   1.385 -0.1391  0.7103 -0.0785
 2852SOL    HW125698   3.610   1.310   1.295  0.2698 -0.6059  0.1261
 2852SOL    HW225699   3.513   1.244   1.390  1.4393 -0.6771  1.3128
 2853SOL     OW25700   2.844   4.601   5.601 -0.4562 -0.4051 -0.3558
 2853SOL    HW125701   2.773   4.545   5.568 -0.1637  0.2517 -2.1827
 2853SOL    HW225702   2.898   4.619   5.525  0.8188  0.4043  0.7003
 2854SOL     OW25703   0.425   0.678   5.633 -0.4657  0.6997 -0.2335
 2854SOL    HW125704   0.335   0.709   5.645 -0.3242  0.9389  0.2074
 2854SOL    HW225705   0.471   0.753   5.594 -0.9318 -0.0751 -2.4223
 2855SOL     OW25706   4.089   2.249   1.236 -0.7971  0.5024  0.2110
 2855SOL    HW125707   4.099   2.177   1.299  1.2591  0.3765 -0.2033
 2855SOL    HW225708   4.173   2.255   1.192 -1.2608  2.4922 -0.5268
 2856SOL     OW25709   3.562   3.043   5.421  0.4828  0.2949  0.1142
 2856SOL    HW125710   3.478   3.084   5.403  0.5065  0.1210 -0.4164
 2856SOL    HW225711   3.540   2.954   5.450  0.4783  0.3127  0.1658
 2857SOL     OW25712   4.197   1.759   0.902 -0.0839  0.4324  0.3865
 2857SOL    HW125713   4.143   1.803   0.837  0.2124 -1.6873 -1.4223
 2857SOL    HW225714   4.285   1.760   0.866  0.0521 -0.9724  0.6269
 2858SOL     OW25715   0.752   6.566   1.063  0.0359  0.0374 -0.0375
 2858SOL    HW125716   0.752   6.658   1.038 -0.3142  0.3778  1.1253
 2858SOL    HW225717   0.661   6.539   1.054  0.2325 -0.3538 -0.8991
 2859SOL     OW25718   3.194   4.448   1.509 -0.0117 -0.0015  0.2505
 2859SOL    HW125719   3.100   4.467   1.508 -0.4465 -1.9705  0.2458
 2859SOL    HW225720   3.201   4.362   1.550  1.8152  0.1547  0.3514
 2860SOL     OW25721   5.169   5.382   1.726  0.0793 -0.1489 -0.1054
 2860SOL    HW125722   5.237   5.426   1.777 -1.6563  1.9537  0.5403
 2860SOL    HW225723   5.209   5.366   1.641  1.2886  1.3796  0.1332
 2861SOL     OW25724   2.687   1.345   6.559 -0.3616  0.1122 -0.0943
 2861SOL    HW125725   2.665   1.355   6.466  0.1811 -0.1486 -0.2543
 2861SOL    HW225726   2.729   1.427   6.583 -1.7402  0.7419  0.2952
 2862SOL     OW25727   1.450   2.719   6.506  0.7679 -0.6373  0.0055
 2862SOL    HW125728   1.421   2.810   6.504 -0.3757 -0.9676  0.4404
 2862SOL    HW225729   1.459   2.699   6.599  2.8286 -0.4443 -0.1214
 2863SOL     OW25730   4.208   4.328   0.302  0.1502 -0.1706  0.1583
 2863SOL    HW125731   4.275   4.297   0.241  1.5678  0.5413  1.2952
 2863SOL    HW225732   4.128   4.331   0.250  1.1157 -0.4685 -1.4120
 2864SOL     OW25733   3.342   3.944   6.802 -0.3628 -0.2359  0.1349
 2864SOL    HW125734   3.282   4.009   6.766  0.0417 -0.1954 -0.4839
 2864SOL    HW225735   3.410   3.935   6.736  0.2339 -0.3953  0.7546
 2865SOL     OW25736   1.756   0.360   7.250 -0.6924 -0.4752  0.2334
 2865SOL    HW125737   1.670   0.348   7.290  0.1295 -1.4021  1.8248
 2865SOL    HW225738   1.784   0.272   7.226 -0.3286 -0.1444 -0.5918
 2866SOL     OW25739   3.289   3.420   0.649 -0.1198 -0.1325 -0.4308
 2866SOL    HW125740   3.270   3.367   0.726  1.4188 -1.0198 -0.6024
 2866SOL    HW225741   3.233   3.384   0.580 -1.9960  1.1016  0.3825
 2867SOL     OW25742   4.346   5.044   0.857 -0.2343  0.1825  0.2212
 2867SOL    HW125743   4.329   5.032   0.764  0.1962 -0.9284  0.2759
 2867SOL    HW225744   4.370   5.136   0.865 -0.2406  0.2799 -0.7654
 2868SOL     OW25745   3.174   3.775   6.371 -0.8054 -0.0943 -0.4595
 2868SOL    HW125746   3.140   3.859   6.403  0.8887  0.7665 -0.7931
 2868SOL    HW225747   3.227   3.798   6.294  0.9060 -1.2392  0.2957
 2869SOL     OW25748   5.803   2.149   0.901  1.1648 -0.1626  0.0750
 2869SOL    HW125749   5.769   2.068   0.862  1.5274 -0.4160  0.2784
 2869SOL    HW225750   5.729   2.186   0.949 -0.1363  1.5474 -2.9468
 2870SOL     OW25751   3.189   3.592   7.132  0.5159  0.5484  0.0382
 2870SOL    HW125752   3.261   3.653   7.117  0.4405  0.5301 -0.3940
 2870SOL    HW225753   3.197   3.527   7.063 -0.4769  1.0728 -0.5843
 2871SOL     OW25754   4.784   4.278   1.056  0.0094  0.0345 -0.3567
 2871SOL    HW125755   4.781   4.331   0.976 -0.6556  1.5395  0.6262
 2871SOL    HW225756   4.877   4.271   1.076  0.1488  0.1615 -0.9270
 2872SOL     OW25757   0.180   0.612   6.241 -0.9059  0.8335  0.5468
 2872SOL    HW125758   0.254   0.633   6.297 -2.1151  0.9743  2.1815
 2872SOL    HW225759   0.138   0.537   6.283  0.3045 -1.6766 -2.3377
 2873SOL     OW25760   2.408   5.975   0.958  0.0941  0.4846  0.5292
 2873SOL    HW125761   2.490   5.934   0.931  0.1680  0.0186  1.4352
 2873SOL    HW225762   2.361   5.906   1.004 -0.3630  1.0451  0.9074
 2874SOL     OW25763   0.953   5.888   5.863 -0.3196 -0.0680 -0.0451
 2874SOL    HW125764   0.912   5.975   5.856  0.7545  0.3593 -1.7323
 2874SOL    HW225765   0.925   5.842   5.784  0.2157 -0.7757  0.1666
 2875SOL     OW25766   0.210   1.741   1.471  0.5029 -0.1682 -0.4023
 2875SOL    HW125767   0.209   1.832   1.441  1.2666 -0.0529 -0.0919
 2875SOL    HW225768   0.170   1.744   1.558  2.7110  0.2803  0.6685
 2876SOL     OW25769   4.930   5.220   5.903  0.7752 -0.2717 -0.1455
 2876SOL    HW125770   4.987   5.149   5.931 -0.3077 -0.3873  1.9868
 2876SOL    HW225771   4.963   5.297   5.949 -0.6466 -0.3229  1.0475
 2877SOL     OW25772   1.909   1.462   6.594  0.0175  0.3744 -0.3072
 2877SOL    HW125773   1.984   1.436   6.647 -0.4814  0.4300  0.4376
 2877SOL    HW225774   1.929   1.428   6.507  1.6462  1.7360 -0.5334
 2878SOL     OW25775   0.836   0.683   7.248  0.0526  0.3372  0.9209
 2878SOL    HW125776   0.884   0.652   7.325  2.1285  0.3837 -0.2939
 2878SOL    HW225777   0.897   0.740   7.203 -1.1098  0.3003 -0.7907
 2879SOL     OW25778   6.390   2.034   5.664  0.4382 -0.7391 -0.3996
 2879SOL    HW125779   6.457   2.076   5.718  2.6369 -3.0773 -1.1006
 2879SOL    HW225780   6.421   2.046   5.574 -2.5727  2.1035 -1.2772
 2880SOL     OW25781   2.939   1.890   6.123 -0.2078  0.3456  0.1404
 2880SOL    HW125782   2.886   1.913   6.047 -0.5753  0.4914  0.4398
 2880SOL    HW225783   2.955   1.974   6.168  2.1945  0.6746 -1.1660
 2881SOL     OW25784   3.590   2.932   0.806 -0.1124  0.5442 -0.2441
 2881SOL    HW125785   3.530   3.006   0.815  0.0008  0.5355  0.6593
 2881SOL    HW225786   3.663   2.967   0.755  1.2192  1.8834  2.3787
 2882SOL     OW25787   5.048   3.712   5.697  0.7179  0.0255 -0.4426
 2882SOL    HW125788   5.016   3.693   5.609 -1.1864  1.8150 -0.2115
 2882SOL    HW225789   5.137   3.746   5.684 -0.0528  1.6473 -1.8512
 2883SOL     OW25790   4.332   4.691   6.182  0.6229 -0.2751  0.4600
 2883SOL    HW125791   4.252   4.738   6.157  0.3687 -0.0693  1.6108
 2883SOL    HW225792   4.403   4.744   6.147  0.2698 -0.2950 -0.3056
 2884SOL     OW25793   4.663   3.969   0.151  0.2432 -0.3538 -0.2791
 2884SOL    HW125794   4.709   3.958   0.068  1.2353  0.6164  0.1173
 2884SOL    HW225795   4.590   4.028   0.130  0.2410 -0.4522 -0.5453
 2885SOL     OW25796   1.339   4.372   6.200 -0.5418 -0.1070 -0.5347
 2885SOL    HW125797   1.289   4.398   6.277  0.4351  0.6630 -0.1412
 2885SOL    HW225798   1.328   4.445   6.139  0.8302  0.4929 -0.0887
 2886SOL     OW25799   1.733   0.070   6.139 -0.3859 -0.4981 -0.3831
 2886SOL    HW125800   1.698   0.154   6.111 -1.2551 -0.1103  1.7175
 2886SOL    HW225801   1.815   0.061   6.090 -0.5425  1.2929 -1.0509
 2887SOL     OW25802   5.886   4.279   0.408 -0.1639  0.3940  0.3307
 2887SOL    HW125803   5.928   4.312   0.487  2.8343 -0.7194 -0.6778
 2887SOL    HW225804   5.913   4.338   0.339  1.7819 -1.6013 -0.7366
 2888SOL     OW25805   3.107   0.856   5.443 -0.3158  0.3929  0.2319
 2888SOL    HW125806   3.086   0.771   5.405 -0.7118  0.8328 -0.5820
 2888SOL    HW225807   3.192   0.844   5.486 -0.3647 -0.4002  0.1120
 2889SOL     OW25808   5.682   0.696   1.902 -0.2916 -0.4018  0.0880
 2889SOL    HW125809   5.762   0.736   1.937  0.7967 -1.4027 -1.1555
 2889SOL    HW225810   5.667   0.620   1.958  0.1165 -0.6846 -0.1805
 2890SOL     OW25811   1.780   5.818   0.583  0.5761  0.3104  0.3610
 2890SOL    HW125812   1.740   5.782   0.663  0.4100  1.6460  0.9077
 2890SOL    HW225813   1.748   5.908   0.579  1.2736  0.5237 -0.7595
 2891SOL     OW25814   0.122   4.051   1.277  0.0100  0.1937  0.2533
 2891SOL    HW125815   0.164   4.033   1.193  0.4383 -1.1677  0.7222
 2891SOL    HW225816   0.034   4.079   1.254 -0.0477 -0.6586 -0.6563
 2892SOL     OW25817   4.852   6.065   0.252 -0.2960  0.5540  0.7427
 2892SOL    HW125818   4.865   6.160   0.252 -0.6403  0.6081 -0.4976
 2892SOL    HW225819   4.760   6.053   0.276 -0.3687  0.5494  0.4585
 2893SOL     OW25820   4.353   2.648   2.222  0.3562 -0.1122 -0.2190
 2893SOL    HW125821   4.445   2.677   2.227 -0.0542  1.3910 -0.7712
 2893SOL    HW225822   4.327   2.668   2.132 -0.6146 -0.2241  0.0300
 2894SOL     OW25823   6.078   6.271   6.947  0.0950  0.3823  0.2230
 2894SOL    HW125824   5.988   6.254   6.972  0.1058  0.7958  0.5603
 2894SOL    HW225825   6.080   6.256   6.852 -0.3234  0.3724  0.2136
 2895SOL     OW25826   0.732   5.640   0.019 -0.1212  0.1895  0.0138
 2895SOL    HW125827   0.714   5.551   0.048  0.6758  0.8795  2.9542
 2895SOL    HW225828   0.819   5.635  -0.022 -0.4995 -0.5108 -0.7426
 2896SOL     OW25829   3.591   5.499   4.939 -0.4557  0.6346  0.4177
 2896SOL    HW125830   3.511   5.455   4.967 -0.0013  0.2193  1.0961
 2896SOL    HW225831   3.561   5.568   4.880 -1.0309 -2.0720 -2.7173
 2897SOL     OW25832   3.258   2.937   0.698  0.3392 -0.5227  1.1684
 2897SOL    HW125833   3.306   2.857   0.675  2.2670  1.0480 -0.7076
 2897SOL    HW225834   3.320   2.988   0.750  0.7086  1.4025 -0.9889
 2898SOL     OW25835   3.420   4.765   7.183 -0.0590  0.1621  0.0958
 2898SOL    HW125836   3.358   4.743   7.252 -2.1892  2.1801 -1.0108
 2898SOL    HW225837   3.389   4.716   7.107  0.7333 -0.0836 -0.0797
 2899SOL     OW25838   0.510   4.620   6.724 -0.2760  0.0491 -0.8100
 2899SOL    HW125839   0.498   4.695   6.783 -0.9772 -0.8178  0.1896
 2899SOL    HW225840   0.603   4.598   6.732 -0.0323  0.8877 -1.2215
 2900SOL     OW25841   5.605   2.984   6.565  0.0461 -0.5412 -0.5851
 2900SOL    HW125842   5.574   2.955   6.651 -0.0124 -0.2071 -0.4917
 2900SOL    HW225843   5.699   2.997   6.576  0.5357 -2.9577 -1.2470
 2901SOL     OW25844   3.497   0.887   1.643 -0.2291 -0.3809  0.1416
 2901SOL    HW125845   3.514   0.935   1.562  2.3438  0.1074  0.8740
 2901SOL    HW225846   3.421   0.930   1.681  0.3531  1.3655 -0.5652
 2902SOL     OW25847   2.032   2.795   6.407  0.3158  0.2582  0.2740
 2902SOL    HW125848   1.941   2.820   6.391  0.3203  0.1078  0.0174
 2902SOL    HW225849   2.052   2.730   6.340  0.5798  0.2098  0.3964
 2903SOL     OW25850   5.635   6.449   2.057 -0.1374  1.2884 -0.0611
 2903SOL    HW125851   5.596   6.532   2.087 -0.1196  0.9592  0.9198
 2903SOL    HW225852   5.651   6.462   1.964 -0.0846  2.4135  0.0909
 2904SOL     OW25853   2.949   4.512   0.086 -0.0147 -0.6600  0.1897
 2904SOL    HW125854   2.913   4.598   0.108 -0.6215 -0.7667 -0.3384
 2904SOL    HW225855   2.882   4.472   0.031  0.4616 -1.2943  0.0607
 2905SOL     OW25856   5.327   2.290   6.918  0.2517  0.0894 -0.1066
 2905SOL    HW125857   5.288   2.277   6.832 -0.7233 -0.4972  0.4146
 2905SOL    HW225858   5.253   2.306   6.977  0.6314 -2.2102  1.1174
 2906SOL     OW25859   5.712   2.801   6.947  0.3736 -0.1071 -0.4738
 2906SOL    HW125860   5.649   2.802   6.875 -2.3520  0.1724  1.7466
 2906SOL    HW225861   5.719   2.709   6.972  0.7882 -0.1217 -0.6259
 2907SOL     OW25862   6.334   1.345   5.874  0.3319  0.1556  0.3006
 2907SOL    HW125863   6.295   1.336   5.787  0.1250  1.3519  0.2576
 2907SOL    HW225864   6.348   1.439   5.885 -1.4543  0.2704  2.3208
 2908SOL     OW25865   1.589   3.758   7.359 -0.1171  0.1379 -0.3439
 2908SOL    HW125866   1.575   3.770   7.265  0.4231  0.8683 -0.3411
 2908SOL    HW225867   1.571   3.665   7.374  1.9930 -0.5474 -1.5806
 2909SOL     OW25868   2.134   1.047   7.249  0.3096  0.3032 -0.5277
 2909SOL    HW125869   2.149   0.964   7.293 -0.1809  0.7707  0.5652
 2909SOL    HW225870   2.046   1.040   7.212 -0.8970  1.2633  1.9013
 2910SOL     OW25871   5.030   2.776   1.558 -0.0585 -0.1048  0.5084
 2910SOL    HW125872   5.095   2.705   1.551 -0.5581 -0.4700 -0.5619
 2910SOL    HW225873   4.982   2.772   1.476  0.8506  2.4500 -0.2311
 2911SOL     OW25874   1.599   2.512   0.386 -0.0777  0.0990 -0.5342
 2911SOL    HW125875   1.573   2.574   0.455 -0.6373  0.1360 -0.7684
 2911SOL    HW225876   1.568   2.427   0.418 -0.2013  0.0937 -0.6680
 2912SOL     OW25877   6.084   2.138   0.029  0.1646  0.3110 -0.2105
 2912SOL    HW125878   6.144   2.184  -0.029  1.2078 -0.5592  0.1329
 2912SOL    HW225879   6.140   2.102   0.098 -0.8572  0.1131  0.5530
 2913SOL     OW25880   4.206   3.941   7.176 -0.6965 -0.1597 -0.1039
 2913SOL    HW125881   4.183   4.028   7.143 -0.8544  0.0519  0.5352
 2913SOL    HW225882   4.134   3.918   7.235 -1.2038 -1.2042 -1.1055
 2914SOL     OW25883   3.525   6.289   0.977  0.0215 -0.3600  0.3117
 2914SOL    HW125884   3.596   6.294   0.913  0.3513 -0.6904  0.6472
 2914SOL    HW225885   3.569   6.268   1.060 -0.4407 -0.3171  0.5690
 2915SOL     OW25886   1.940   6.049   6.955 -0.2268 -0.1931  0.3844
 2915SOL    HW125887   1.874   5.981   6.966 -0.3446  0.0392  1.1460
 2915SOL    HW225888   1.925   6.083   6.867 -1.2466 -0.0177  0.6176
 2916SOL     OW25889   6.093   1.304   6.617  0.2052 -0.3702 -0.9378
 2916SOL    HW125890   6.123   1.221   6.655 -0.0938 -0.2377 -0.3887
 2916SOL    HW225891   6.074   1.283   6.526  0.4351 -0.8310 -0.8850
 2917SOL     OW25892   4.417   4.148   5.420 -0.1356 -0.1438  0.3817
 2917SOL    HW125893   4.328   4.180   5.407  0.1654  0.1677 -1.0642
 2917SOL    HW225894   4.442   4.111   5.335  1.6961  1.2731  0.2254
 2918SOL     OW25895   2.975   5.870   6.893 -0.4855 -0.1516  0.8560
 2918SOL    HW125896   3.006   5.956   6.923  0.6641 -0.4999  0.7164
 2918SOL    HW225897   2.996   5.869   6.799 -0.3279 -0.6552  0.8964
 2919SOL     OW25898   1.411   0.779   7.469  0.1670 -0.1630 -0.5215
 2919SOL    HW125899   1.407   0.754   7.561 -3.6187  0.9730 -0.1842
 2919SOL    HW225900   1.496   0.822   7.459  0.5095  0.1116  2.5640
 2920SOL     OW25901   2.354   0.878   6.194 -0.1656 -0.2715 -0.5993
 2920SOL    HW125902   2.447   0.854   6.203 -0.3391 -0.5408  0.5979
 2920SOL    HW225903   2.311   0.835   6.268 -1.0359  0.9162 -0.3959
 2921SOL     OW25904   4.727   5.686   1.394  0.0429 -0.3290  0.8362
 2921SOL    HW125905   4.669   5.695   1.470 -2.0675 -0.0838 -0.7112
 2921SOL    HW225906   4.704   5.759   1.337  2.2205  0.0152  0.3174
 2922SOL     OW25907   4.772   3.087   7.150 -0.0501 -0.1960 -0.0620
 2922SOL    HW125908   4.681   3.116   7.142 -0.3635 -0.0341  2.8905
 2922SOL    HW225909   4.771   2.997   7.119 -1.7490 -0.8862  1.7583
 2923SOL     OW25910   0.001   5.673   1.932  0.3750 -0.1674 -0.1374
 2923SOL    HW125911  -0.062   5.672   1.860 -0.6338 -1.0240  0.7196
 2923SOL    HW225912   0.010   5.765   1.956 -1.2230 -0.1006  0.2844
 2924SOL     OW25913   0.799   3.739   0.677  0.0147 -0.1268  0.6720
 2924SOL    HW125914   0.858   3.772   0.609  0.4836  0.2647  1.2680
 2924SOL    HW225915   0.785   3.813   0.735 -1.2845 -0.1349  0.3978
 2925SOL     OW25916   0.507   4.684   5.746 -0.2424  0.2571  0.1024
 2925SOL    HW125917   0.495   4.772   5.712  2.0106  1.5197  2.2451
 2925SOL    HW225918   0.589   4.654   5.707  1.1910  0.8480  2.4514
 2926SOL     OW25919   4.277   4.950   1.983 -0.2589  0.3128  0.5694
 2926SOL    HW125920   4.351   4.989   2.029  0.2490 -1.1052  1.0102
 2926SOL    HW225921   4.201   4.999   2.015  0.2619  0.3909  1.7396
 2927SOL     OW25922   4.362   5.231   6.711 -0.3353  0.0910 -0.1553
 2927SOL    HW125923   4.395   5.190   6.631 -2.4692 -0.1770 -0.9574
 2927SOL    HW225924   4.438   5.276   6.747  1.2059 -1.5189 -1.1946
 2928SOL     OW25925   0.867   2.662   6.158  0.6246  0.4330 -0.1416
 2928SOL    HW125926   0.785   2.650   6.206  2.4565 -0.2624  3.1249
 2928SOL    HW225927   0.895   2.751   6.181  2.2051 -0.3903  1.3651
 2929SOL     OW25928   3.482   4.626   1.222 -0.1999  0.0787  0.4830
 2929SOL    HW125929   3.463   4.588   1.308 -0.6330 -0.0904  0.3162
 2929SOL    HW225930   3.567   4.668   1.233 -0.1915 -0.0521  0.9596
 2930SOL     OW25931   5.706   1.418   0.549 -0.6315  0.0007 -0.1657
 2930SOL    HW125932   5.637   1.359   0.579 -0.9060  0.4059  0.0068
 2930SOL    HW225933   5.684   1.438   0.458  0.4124 -1.5376 -0.8049
 2931SOL     OW25934   4.380   0.529   7.280 -0.2265 -0.1559  0.7205
 2931SOL    HW125935   4.445   0.470   7.242 -0.0298  0.3655  0.2344
 2931SOL    HW225936   4.384   0.512   7.374  0.6103 -0.1375  0.6941
 2932SOL     OW25937   2.502   2.076   0.024  0.6636  0.4979  0.3342
 2932SOL    HW125938   2.490   2.128   0.104 -0.9731  0.3652  0.2158
 2932SOL    HW225939   2.425   2.096  -0.029 -0.0320 -1.9763  0.2677
 2933SOL     OW25940   6.571   4.389   1.319 -0.2594  0.3640 -0.1842
 2933SOL    HW125941   6.519   4.469   1.306  1.5234  2.1416  2.5142
 2933SOL    HW225942   6.535   4.350   1.398  0.1593 -0.4492 -0.3833
 2934SOL     OW25943   0.952   5.314   0.891  0.5133 -0.0626  0.4280
 2934SOL    HW125944   0.911   5.401   0.890  2.2799  0.8263 -0.9013
 2934SOL    HW225945   0.991   5.306   0.978  0.4991  0.5826  0.4981
 2935SOL     OW25946   4.259   2.218   6.608  0.6517  0.9529 -0.3335
 2935SOL    HW125947   4.307   2.137   6.627  1.0391  1.4300  0.7900
 2935SOL    HW225948   4.240   2.255   6.694 -0.5994  1.4424 -0.8067
 2936SOL     OW25949   2.684   6.299   5.075  0.2507 -0.3511  0.1804
 2936SOL    HW125950   2.779   6.297   5.066  0.1467 -1.4822 -1.0421
 2936SOL    HW225951   2.652   6.289   4.985 -1.0212 -0.2861  0.6154
 2937SOL     OW25952   3.360   4.463   6.399  0.0845 -0.2517  0.5530
 2937SOL    HW125953   3.415   4.537   6.373  0.0189  0.1570  1.5595
 2937SOL    HW225954   3.412   4.415   6.463 -0.8491  0.3454  1.7951
 2938SOL     OW25955   2.083   4.192   0.672  0.0383  0.2164  0.1128
 2938SOL    HW125956   2.124   4.258   0.728 -1.3183  0.9243  0.3263
 2938SOL    HW225957   2.156   4.151   0.625  0.8596  2.6095 -0.8439
 2939SOL     OW25958   0.031   3.969   1.775 -0.7964  0.0779  0.1627
 2939SOL    HW125959   0.100   4.034   1.791  1.6779 -1.8075 -1.9790
 2939SOL    HW225960   0.041   3.906   1.847  0.2141 -0.5211 -0.4763
 2940SOL     OW25961   0.200   0.780   5.727  0.7883  0.1996 -0.0783
 2940SOL    HW125962   0.222   0.778   5.820  0.1178  0.4861  0.0925
 2940SOL    HW225963   0.124   0.722   5.720  1.6199 -0.8519 -0.6695
 2941SOL     OW25964   5.667   1.008   6.329  0.6753  0.1473 -0.4810
 2941SOL    HW125965   5.722   0.962   6.393 -2.0365  0.5250  2.3822
 2941SOL    HW225966   5.584   0.959   6.329 -0.6028  2.1784 -1.0434
 2942SOL     OW25967   2.426   4.088   4.903  0.0320 -0.4251  0.2222
 2942SOL    HW125968   2.410   3.998   4.874 -2.3032  0.0002  0.0333
 2942SOL    HW225969   2.342   4.132   4.896  0.5385  1.1632  2.6171
 2943SOL     OW25970   1.049   0.173   1.293  0.3871 -0.8226  0.2357
 2943SOL    HW125971   1.044   0.248   1.234 -0.9914 -0.7925  0.3551
 2943SOL    HW225972   1.078   0.210   1.376  3.2927 -1.0097 -0.6107
 2944SOL     OW25973   6.119   5.299   0.303  0.5163 -0.0970  0.1271
 2944SOL    HW125974   6.144   5.384   0.266 -0.0288  0.6135  1.3158
 2944SOL    HW225975   6.029   5.312   0.331  0.6298 -0.8881  0.8714
 2945SOL     OW25976   1.103   5.040   0.049  0.1223  0.3239  0.0944
 2945SOL    HW125977   1.122   5.042  -0.045 -1.7155 -1.0259 -0.3637
 2945SOL    HW225978   1.038   5.109   0.062  1.5147  1.5736  0.7183
 2946SOL     OW25979   4.374   6.394   7.394  0.4364  0.1900  0.9232
 2946SOL    HW125980   4.344   6.315   7.441 -1.1702 -0.4272 -1.0113
 2946SOL    HW225981   4.461   6.370   7.361  0.0846 -0.6964  0.5967
 2947SOL     OW25982   4.916   3.623   7.095  0.0015  0.4974 -0.1944
 2947SOL    HW125983   4.963   3.699   7.131 -0.7639  2.1617 -2.4742
 2947SOL    HW225984   4.964   3.601   7.015 -0.3174 -0.8768 -0.0320
 2948SOL     OW25985   0.612   3.132   1.174 -0.3489 -0.4886  0.1314
 2948SOL    HW125986   0.669   3.088   1.237  2.0935  1.4782 -0.5686
 2948SOL    HW225987   0.610   3.223   1.202 -2.4643 -0.3095 -0.4197
 2949SOL     OW25988   5.179   2.419   0.145 -0.4600 -0.1310  0.6871
 2949SOL    HW125989   5.177   2.511   0.171  0.8562  0.7464 -1.8740
 2949SOL    HW225990   5.258   2.385   0.186  0.5570  0.6976 -0.4911
 2950SOL     OW25991   5.939   5.738   7.200 -0.2638  0.3166  0.4137
 2950SOL    HW125992   5.943   5.822   7.245  1.8066  1.1227 -1.0938
 2950SOL    HW225993   5.959   5.759   7.109  0.8736 -1.8442  0.0839
 2951SOL     OW25994   2.727   5.759   5.886  0.3796 -0.0820 -0.0165
 2951SOL    HW125995   2.783   5.682   5.898  0.8674  0.3540  0.5773
 2951SOL    HW225996   2.787   5.834   5.890 -0.1734  0.3627  0.1130
 2952SOL     OW25997   2.706   1.995   2.384  0.2080 -0.2114  0.2759
 2952SOL    HW125998   2.763   2.006   2.460 -2.2909  1.5889  2.0765
 2952SOL    HW225999   2.684   1.902   2.384  1.2401 -0.4784  0.9785
 2953SOL     OW26000   6.080   3.902   6.834  0.2507 -0.6765 -0.0409
 2953SOL    HW126001   6.000   3.902   6.781 -1.1054  1.4655  1.8039
 2953SOL    HW226002   6.075   3.821   6.885 -0.5947 -0.7399 -0.2037
 2954SOL     OW26003   2.143   0.088   1.667  0.0596 -0.3223 -0.4539
 2954SOL    HW126004   2.131   0.166   1.613 -2.3222  0.6507  1.2763
 2954SOL    HW226005   2.096   0.019   1.620 -0.5840  0.1073 -0.4544
 2955SOL     OW26006   4.105   5.242   7.140  0.2207 -0.2759  0.1918
 2955SOL    HW126007   4.054   5.192   7.204  3.9204 -3.5766  0.9669
 2955SOL    HW226008   4.040   5.269   7.075 -2.7246 -3.0418  1.6512
 2956SOL     OW26009   5.816   2.965   7.398 -0.1235 -0.2212  0.2183
 2956SOL    HW126010   5.851   3.035   7.343 -3.4894  0.7276 -0.9664
 2956SOL    HW226011   5.797   2.894   7.337 -0.7735 -0.4695  0.7016
 2957SOL     OW26012   5.517   6.155   6.955 -0.1691  0.5021  0.0808
 2957SOL    HW126013   5.466   6.157   7.036 -0.0511  1.1877  0.1463
 2957SOL    HW226014   5.487   6.231   6.905 -0.4737 -0.0985 -0.6719
 2958SOL     OW26015   4.839   4.171   7.048 -0.3366 -0.2104  0.2115
 2958SOL    HW126016   4.846   4.236   6.978  0.3789  0.5011  0.9273
 2958SOL    HW226017   4.769   4.112   7.019  0.4658 -0.4041 -1.4797
 2959SOL     OW26018   1.165   6.256   0.727 -0.0898  0.2172  0.2864
 2959SOL    HW126019   1.118   6.193   0.782 -2.0038  0.7651 -0.6113
 2959SOL    HW226020   1.200   6.320   0.789 -2.2735  0.8763  0.9607
 2960SOL     OW26021   1.247   4.624   6.943 -0.0341  0.1643 -0.0400
 2960SOL    HW126022   1.193   4.548   6.921  0.6766  0.0334 -1.4715
 2960SOL    HW226023   1.260   4.618   7.037 -1.8933 -0.2023  0.2279
 2961SOL     OW26024   2.710   4.677   6.820  0.0383  0.1141  0.0906
 2961SOL    HW126025   2.794   4.679   6.775 -0.1918  0.0043 -0.3506
 2961SOL    HW226026   2.659   4.612   6.772 -0.9394  1.4846 -0.7985
 2962SOL     OW26027   4.557   2.003   7.313  0.4110 -0.3403 -0.6391
 2962SOL    HW126028   4.539   1.911   7.292 -0.4584 -0.0058 -1.4021
 2962SOL    HW226029   4.498   2.023   7.385  0.4944 -0.3330 -0.5727
 2963SOL     OW26030   4.657   6.277   0.533  0.2321 -0.4162 -0.2128
 2963SOL    HW126031   4.639   6.362   0.574 -1.5992 -0.2497 -1.2311
 2963SOL    HW226032   4.745   6.254   0.562  0.8190  1.8787  0.0146
 2964SOL     OW26033   4.421   1.990   1.419  0.5732  0.4756 -0.7723
 2964SOL    HW126034   4.347   1.951   1.373  0.8744  1.4353 -2.1120
 2964SOL    HW226035   4.490   1.923   1.414 -0.7081 -1.2623  2.1925
 2965SOL     OW26036   2.308   0.544   1.272 -0.1926 -0.5066  0.5891
 2965SOL    HW126037   2.380   0.594   1.312 -0.6584 -0.3041  1.1897
 2965SOL    HW226038   2.263   0.504   1.346 -2.1261  1.2592  0.4722
 2966SOL     OW26039   4.587   0.692   7.467  0.2578  0.2626 -0.1743
 2966SOL    HW126040   4.598   0.616   7.525 -2.7766  0.6035  1.0161
 2966SOL    HW226041   4.592   0.768   7.525  0.5679  0.8166 -0.9149
 2967SOL     OW26042   0.345   4.202   1.187  0.0720 -0.2246  0.3189
 2967SOL    HW126043   0.276   4.182   1.251 -0.8575  1.1986 -0.1869
 2967SOL    HW226044   0.393   4.275   1.226  0.4402 -0.3179  0.0450
 2968SOL     OW26045   3.407   3.812   5.297  0.5127  0.1406 -0.2144
 2968SOL    HW126046   3.451   3.839   5.217  1.4649  0.5167  0.4132
 2968SOL    HW226047   3.363   3.730   5.274  2.3894 -0.8191 -0.6219
 2969SOL     OW26048   5.406   2.023   6.839 -0.3208 -0.1572  0.0253
 2969SOL    HW126049   5.332   1.972   6.805 -0.0220  0.7508 -2.1338
 2969SOL    HW226050   5.366   2.105   6.868 -0.2957 -0.1438  0.0214
 2970SOL     OW26051   4.946   1.075   1.882 -0.6581  0.0798 -0.1396
 2970SOL    HW126052   4.957   1.151   1.939  1.1871  2.3083 -3.1314
 2970SOL    HW226053   5.004   1.009   1.919  1.6592  1.9790 -0.1168
 2971SOL     OW26054   3.324   4.610   4.007  0.4898 -0.2102 -0.0836
 2971SOL    HW126055   3.361   4.690   4.044  1.4937  0.1786 -1.7931
 2971SOL    HW226056   3.338   4.543   4.074 -0.6181  1.0488  1.5042
 2972SOL     OW26057   2.262   6.181   0.803 -0.0075  0.5940  0.1387
 2972SOL    HW126058   2.201   6.136   0.746  1.8835  0.7594 -2.1552
 2972SOL    HW226059   2.312   6.111   0.846 -0.6290  0.4926  0.7213
 2973SOL     OW26060   1.882   3.232   5.652 -1.0046  0.3587  0.3872
 2973SOL    HW126061   1.962   3.273   5.619  0.0130 -0.1289  2.1282
 2973SOL    HW226062   1.838   3.199   5.573 -0.2165  1.8576 -0.7380
 2974SOL     OW26063   1.126   6.048   0.069 -0.3106 -0.4456 -0.0577
 2974SOL    HW126064   1.034   6.028   0.049 -0.0567 -0.2979 -1.4773
 2974SOL    HW226065   1.149   5.988   0.141 -1.7555  0.1279  0.9302
 2975SOL     OW26066   2.851   5.939   0.117 -0.7736 -0.2315  0.2893
 2975SOL    HW126067   2.791   5.872   0.151  0.5657 -0.8369  1.5816
 2975SOL    HW226068   2.852   5.924   0.023 -1.2198 -1.4375  0.4563
 2976SOL     OW26069   3.675   0.608   5.332  0.3556 -0.6401  0.0598
 2976SOL    HW126070   3.702   0.693   5.365 -0.0775 -0.8950  1.0928
 2976SOL    HW226071   3.720   0.600   5.248 -0.0837  0.8708 -0.3498
 2977SOL     OW26072   2.087   1.369   6.059 -0.4439  0.4355 -0.6367
 2977SOL    HW126073   2.169   1.343   6.016  0.8681  0.4376  1.7023
 2977SOL    HW226074   2.044   1.286   6.079  0.5203  0.2501  0.8527
 2978SOL     OW26075   5.301   4.114   5.527  0.2091  0.3380  0.3004
 2978SOL    HW126076   5.266   4.032   5.562  1.5925  0.2468  1.5465
 2978SOL    HW226077   5.383   4.089   5.485 -0.5206  0.7462 -1.4734
 2979SOL     OW26078   3.624   5.056   1.194  0.0226 -0.2495  0.0000
 2979SOL    HW126079   3.679   5.025   1.266  0.9264 -2.1827 -1.4264
 2979SOL    HW226080   3.684   5.065   1.120 -1.1690  0.0212 -0.9669
 2980SOL     OW26081   3.658   0.636   7.169  0.1682  0.1652 -0.0921
 2980SOL    HW126082   3.588   0.652   7.232  1.5145 -1.1659  1.8866
 2980SOL    HW226083   3.658   0.541   7.158  0.3751  0.3254 -1.6505
 2981SOL     OW26084   2.463   6.468   1.363  0.6513 -0.4338 -0.2558
 2981SOL    HW126085   2.388   6.409   1.362  0.1535  0.1206  1.7456
 2981SOL    HW226086   2.539   6.411   1.373  0.1327 -0.7713  2.2776
 2982SOL     OW26087   2.985   6.464   1.137  0.1797  0.3654 -1.0394
 2982SOL    HW126088   3.057   6.465   1.201 -1.0304 -0.1603  0.3876
 2982SOL    HW226089   2.976   6.371   1.114  0.5690  0.5449 -1.9643
 2983SOL     OW26090   0.697   3.735   0.208 -0.6315  0.6326  0.3739
 2983SOL    HW126091   0.658   3.648   0.199 -0.0173  0.3648  0.2693
 2983SOL    HW226092   0.655   3.787   0.139 -1.8602  0.7456  1.1755
 2984SOL     OW26093   4.983   5.556   1.176 -0.5774  0.0504  0.6838
 2984SOL    HW126094   5.050   5.509   1.125 -0.5311  0.0489  0.7455
 2984SOL    HW226095   4.907   5.560   1.118 -0.3736  0.4592  0.4395
 2985SOL     OW26096   4.234   1.289   6.412 -0.5122  0.2307 -0.4049
 2985SOL    HW126097   4.218   1.216   6.470 -1.3734 -1.0790 -2.1821
 2985SOL    HW226098   4.323   1.276   6.381  0.2444  1.3903  1.1883
 2986SOL     OW26099   3.697   3.405   1.901 -0.1895  0.0464 -0.0630
 2986SOL    HW126100   3.676   3.324   1.948 -0.6049 -0.2200 -0.6889
 2986SOL    HW226101   3.612   3.449   1.891 -0.0725  0.2009 -0.3725
 2987SOL     OW26102   3.229   5.362   0.219 -0.2025  0.4276  0.2595
 2987SOL    HW126103   3.225   5.278   0.175  1.2560  0.8593 -0.7813
 2987SOL    HW226104   3.322   5.375   0.237 -0.4857  1.4879  1.0542
 2988SOL     OW26105   4.570   4.347   7.462  0.4969 -0.3230 -0.0884
 2988SOL    HW126106   4.533   4.379   7.545  0.6351  1.1603 -0.5690
 2988SOL    HW226107   4.665   4.343   7.478  0.6863  1.3658 -0.5792
 2989SOL     OW26108   2.449   1.120   6.100 -0.2679 -0.6734  0.2664
 2989SOL    HW126109   2.448   1.139   6.193 -0.5363 -0.0030  0.1315
 2989SOL    HW226110   2.404   1.036   6.092 -0.8969 -0.3754  0.6661
 2990SOL     OW26111   3.440   2.180   0.923 -0.3896 -0.1126  0.2034
 2990SOL    HW126112   3.486   2.105   0.959  0.1610 -0.1397 -0.5319
 2990SOL    HW226113   3.435   2.243   0.995  1.3773  0.1587  0.1335
 2991SOL     OW26114   5.122   1.150   6.322  0.0562  0.0221  0.0801
 2991SOL    HW126115   5.181   1.096   6.374 -1.2614 -1.6183 -0.0265
 2991SOL    HW226116   5.137   1.239   6.353  0.1105 -0.7562  2.5269
 2992SOL     OW26117   5.196   4.518   1.183  0.2824  0.6556 -0.0131
 2992SOL    HW126118   5.180   4.439   1.235 -2.7648  1.5728  0.6938
 2992SOL    HW226119   5.196   4.589   1.247 -0.0582  1.4836 -0.9014
 2993SOL     OW26120   3.426   3.185   1.787 -0.0939  0.4990 -0.2422
 2993SOL    HW126121   3.459   3.141   1.865 -0.4919 -1.5833 -1.1666
 2993SOL    HW226122   3.349   3.234   1.817 -0.5995 -0.7564  0.5821
 2994SOL     OW26123   4.480   2.001   6.798 -0.0561  0.2092  0.0350
 2994SOL    HW126124   4.515   1.922   6.840 -0.2530 -0.0137 -0.2156
 2994SOL    HW226125   4.517   1.999   6.709  1.6401  1.5103  0.6660
 2995SOL     OW26126   5.217   6.006   5.360 -0.0977  0.4222  0.2498
 2995SOL    HW126127   5.209   6.099   5.341 -3.1113  0.0444 -0.7606
 2995SOL    HW226128   5.215   6.000   5.455 -1.9911  1.2922  0.2905
 2996SOL     OW26129   2.873   0.223   5.750  0.2350  0.3776 -0.1783
 2996SOL    HW126130   2.845   0.200   5.661 -0.6465 -0.0096  0.1879
 2996SOL    HW226131   2.950   0.278   5.737 -0.2156  0.7947 -1.2017
 2997SOL     OW26132   2.107   6.006   7.228 -0.5495 -0.4121 -0.1688
 2997SOL    HW126133   2.163   6.059   7.284 -0.6086  1.1235 -1.5111
 2997SOL    HW226134   2.064   6.068   7.170 -2.3403 -1.7187 -0.3384
 2998SOL     OW26135   5.378   3.056   7.396  0.4308 -0.1243 -0.0621
 2998SOL    HW126136   5.379   3.114   7.320 -1.0688 -0.9999 -0.8071
 2998SOL    HW226137   5.336   3.108   7.465 -0.0606 -0.0036 -0.4452
 2999SOL     OW26138   2.125   3.380   1.177 -0.2463  0.2315 -0.6963
 2999SOL    HW126139   2.213   3.393   1.213 -0.8700  1.9689  0.3499
 2999SOL    HW226140   2.135   3.389   1.083  0.5918  1.3052 -0.5272
 3000SOL     OW26141   5.153   3.136   0.616  0.3687  0.0407 -0.3362
 3000SOL    HW126142   5.075   3.088   0.586  1.4258 -0.6520 -2.1316
 3000SOL    HW226143   5.119   3.202   0.675 -1.4471 -1.1245  0.0047
 3001SOL     OW26144   5.039   6.241   6.163 -0.2834  0.0744  0.4277
 3001SOL    HW126145   5.016   6.175   6.098  2.2291 -1.0335  0.5718
 3001SOL    HW226146   5.088   6.307   6.115  0.2120  0.0634  0.9106
 3002SOL     OW26147   2.814   1.948   1.355 -0.1500  0.1474 -0.3618
 3002SOL    HW126148   2.897   1.937   1.400 -0.0018 -1.7944 -0.9759
 3002SOL    HW226149   2.819   1.887   1.281 -1.2786  1.5583 -1.6778
 3003SOL     OW26150   5.654   3.254   0.848  0.3352  0.2982 -0.0622
 3003SOL    HW126151   5.562   3.265   0.873  0.2937 -0.2495  0.0456
 3003SOL    HW226152   5.653   3.259   0.752  0.5420  2.7219  0.0151
 3004SOL     OW26153   5.861   1.857   6.456  0.0463 -0.1266 -0.0172
 3004SOL    HW126154   5.919   1.785   6.482  1.2400  0.6345 -0.4727
 3004SOL    HW226155   5.781   1.813   6.426  0.2640 -1.1970  0.8845
 3005SOL     OW26156   5.038   2.127   6.856 -0.0428 -0.6311 -0.0829
 3005SOL    HW126157   5.004   2.204   6.811  0.6494  0.0202  0.4948
 3005SOL    HW226158   5.072   2.071   6.787 -2.2134 -1.3020 -0.7013
 3006SOL     OW26159   3.268   0.962   0.207 -0.0097  0.6111  0.4740
 3006SOL    HW126160   3.335   0.981   0.141 -1.5505 -0.3124 -1.4770
 3006SOL    HW226161   3.207   1.036   0.200  0.3160  0.9941  1.5855
 3007SOL     OW26162   1.827   4.927   5.978  0.1374 -0.1271  0.4149
 3007SOL    HW126163   1.743   4.966   5.953  0.7955  0.8040 -0.4230
 3007SOL    HW226164   1.817   4.908   6.072 -0.7738  0.6074  0.4880
 3008SOL     OW26165   5.911   4.982   1.416  0.0788  0.5548  0.2177
 3008SOL    HW126166   5.944   5.059   1.463 -0.0370 -0.2623  1.6967
 3008SOL    HW226167   5.983   4.920   1.418 -0.3675  0.0350  0.4638
 3009SOL     OW26168   1.785   4.496   1.763 -0.7650 -0.5130 -0.4480
 3009SOL    HW126169   1.776   4.529   1.674 -0.6222 -0.1504 -0.3300
 3009SOL    HW226170   1.829   4.412   1.754 -0.2558 -0.2226 -0.6754
 3010SOL     OW26171   0.234   1.813   0.633 -0.0091 -0.2400  0.3251
 3010SOL    HW126172   0.156   1.804   0.687  0.3322 -0.3803  0.7939
 3010SOL    HW226173   0.228   1.740   0.571 -0.3512 -0.1329  0.2303
 3011SOL     OW26174   5.246   6.435   1.679  0.6538 -0.1534  0.4269
 3011SOL    HW126175   5.310   6.498   1.647 -0.0870  0.3239 -0.1600
 3011SOL    HW226176   5.251   6.442   1.774 -0.3536  1.8081  0.3887
 3012SOL     OW26177   6.058   3.679   7.444 -0.7805  0.3933  1.1018
 3012SOL    HW126178   6.100   3.741   7.504 -0.0793  2.2234 -1.1285
 3012SOL    HW226179   5.966   3.706   7.442 -0.2049  2.5775 -1.0571
 3013SOL     OW26180   0.147   0.091   2.328 -0.0068  0.6481 -0.0304
 3013SOL    HW126181   0.069   0.070   2.277  1.1696 -0.0575 -1.6248
 3013SOL    HW226182   0.137   0.183   2.351 -0.9873  0.7360 -0.7878
 3014SOL     OW26183   0.485   1.881   6.326  0.1775  0.3581 -0.3551
 3014SOL    HW126184   0.575   1.851   6.315  0.6021  1.9166 -1.4063
 3014SOL    HW226185   0.433   1.819   6.275  0.3769 -1.5861  1.6192
 3015SOL     OW26186   1.751   0.687   7.257 -0.2653 -0.3517 -0.0767
 3015SOL    HW126187   1.840   0.693   7.223 -0.3709 -0.6779 -0.4245
 3015SOL    HW226188   1.723   0.599   7.235 -0.3946 -0.5224  0.7449
 3016SOL     OW26189   2.078   3.864   0.489  0.3398 -0.0784  0.4973
 3016SOL    HW126190   2.147   3.799   0.478 -1.3003 -1.5113 -2.5249
 3016SOL    HW226191   2.094   3.928   0.420 -0.7821  0.0805  0.3636
 3017SOL     OW26192   3.564   2.816   7.099  0.1057  1.1015 -0.2460
 3017SOL    HW126193   3.546   2.736   7.148 -0.1233  1.0274 -0.4511
 3017SOL    HW226194   3.643   2.852   7.140 -0.3918  1.3237  0.5187
 3018SOL     OW26195   2.012   4.764   5.193  0.2333 -0.6033  0.3111
 3018SOL    HW126196   1.935   4.820   5.203  1.8607  1.7131  0.6788
 3018SOL    HW226197   2.072   4.793   5.262  3.5840  1.5476 -3.1167
 3019SOL     OW26198   1.416   1.819   0.247  0.2878  0.0031 -0.3533
 3019SOL    HW126199   1.382   1.730   0.231  1.7478 -0.8285  0.9238
 3019SOL    HW226200   1.376   1.845   0.330 -0.5988  0.8234 -1.0098
 3020SOL     OW26201   2.723   2.378   1.078  0.6650 -0.1567  0.3024
 3020SOL    HW126202   2.781   2.454   1.078  2.3487 -1.3728  0.4183
 3020SOL    HW226203   2.759   2.321   1.146  0.1091 -1.5377 -0.5177
 3021SOL     OW26204   4.339   3.053   0.106  0.2969 -0.4445  0.1166
 3021SOL    HW126205   4.250   3.025   0.127 -0.0557  0.2407 -0.4205
 3021SOL    HW226206   4.387   3.043   0.188 -0.6718  0.7173  0.8516
 3022SOL     OW26207   2.203   0.269   0.622  0.4180  0.3682  0.0980
 3022SOL    HW126208   2.237   0.314   0.700  1.4393  2.9836 -1.7049
 3022SOL    HW226209   2.258   0.192   0.613  0.5461  0.2288  1.7057
 3023SOL     OW26210   0.487   5.473   6.637  0.0899 -0.3941  0.1423
 3023SOL    HW126211   0.493   5.390   6.684 -0.6477 -0.8684 -0.5685
 3023SOL    HW226212   0.445   5.450   6.554 -0.0042  0.6695 -0.1148
 3024SOL     OW26213   2.330   1.301   5.913 -0.0612  0.3955  0.1709
 3024SOL    HW126214   2.384   1.241   5.964  0.5728 -0.4807 -1.4608
 3024SOL    HW226215   2.259   1.247   5.879  0.1438  0.6862 -0.7683
 3025SOL     OW26216   2.339   5.777   7.325  0.0003 -0.0069 -0.4331
 3025SOL    HW126217   2.310   5.786   7.416  1.3062 -1.0344  0.1141
 3025SOL    HW226218   2.258   5.762   7.276 -1.1714  3.8238 -0.0118
 3026SOL     OW26219   2.480   3.219   5.754 -0.0350 -0.2722 -0.3781
 3026SOL    HW126220   2.513   3.168   5.680  0.4781  0.1052 -0.4136
 3026SOL    HW226221   2.558   3.257   5.794 -0.1055 -1.9462  1.4728
 3027SOL     OW26222   5.786   0.288   7.180 -0.3024  0.4595 -0.3350
 3027SOL    HW126223   5.773   0.373   7.139 -0.2697  1.4441  1.5667
 3027SOL    HW226224   5.698   0.261   7.208 -0.0844  0.7298  0.6390
 3028SOL     OW26225   6.285   3.845   6.662  0.5253  0.2536  0.0469
 3028SOL    HW126226   6.208   3.838   6.718 -0.2924  0.3558 -1.0408
 3028SOL    HW226227   6.356   3.867   6.722 -0.4714  1.1400  0.9538
 3029SOL     OW26228   5.459   6.417   5.827  0.2021 -0.5004 -0.0690
 3029SOL    HW126229   5.449   6.322   5.819 -0.2392 -0.5144  0.5659
 3029SOL    HW226230   5.552   6.433   5.815  0.0157 -0.7595 -2.5991
 3030SOL     OW26231   5.948   0.671   1.470  0.2803 -0.1550  0.2439
 3030SOL    HW126232   5.936   0.711   1.556 -1.0635 -0.2576  0.1173
 3030SOL    HW226233   5.864   0.680   1.427  0.8574 -0.3667 -0.9631
 3031SOL     OW26234   5.793   0.643   2.354 -0.4030  0.3483  0.1843
 3031SOL    HW126235   5.874   0.640   2.302 -0.1765 -1.5035  0.5436
 3031SOL    HW226236   5.815   0.696   2.430 -0.0053  1.1207 -0.4531
 3032SOL     OW26237   5.442   5.645   5.643  0.1390 -0.4616  0.5431
 3032SOL    HW126238   5.401   5.603   5.719 -1.6382 -0.2105 -0.2213
 3032SOL    HW226239   5.372   5.650   5.577  1.4531 -0.1053 -0.8951
 3033SOL     OW26240   1.727   6.014   7.257 -0.1536 -0.0472 -0.0352
 3033SOL    HW126241   1.733   5.935   7.204  1.0757 -0.5646  0.8185
 3033SOL    HW226242   1.692   6.081   7.198 -0.8502 -1.1270 -0.8648
 3034SOL     OW26243   2.432   5.565   0.115 -0.1559  0.0857 -1.0330
 3034SOL    HW126244   2.462   5.543   0.027 -0.8437 -0.9137 -1.0328
 3034SOL    HW226245   2.347   5.606   0.102 -0.7124 -0.9534 -0.7977
 3035SOL     OW26246   5.510   2.978   2.033 -0.4983  0.2145  0.0680
 3035SOL    HW126247   5.528   2.885   2.040 -0.5550  0.2969  1.7481
 3035SOL    HW226248   5.486   2.992   1.941  0.5747 -1.2128 -0.4483
 3036SOL     OW26249   6.305   1.084   2.011  0.0614  0.3843 -0.2183
 3036SOL    HW126250   6.370   1.050   2.073  0.8726  1.7260 -0.3067
 3036SOL    HW226251   6.341   1.065   1.925  0.2836  1.0403 -0.2689
 3037SOL     OW26252   2.808   1.093   7.125  0.0463 -0.5850 -0.5909
 3037SOL    HW126253   2.789   1.065   7.035 -2.4442  1.0910 -0.6933
 3037SOL    HW226254   2.743   1.161   7.143  2.2152  1.1133  1.5405
 3038SOL     OW26255   3.487   2.939   0.300 -0.6084 -0.5250  0.1095
 3038SOL    HW126256   3.411   2.889   0.269 -2.5727  2.5212 -0.5175
 3038SOL    HW226257   3.454   2.989   0.374  1.3872 -0.5405  1.0700
 3039SOL     OW26258   3.033   0.455   7.392  0.0311  0.3919  0.0852
 3039SOL    HW126259   3.127   0.447   7.376 -0.2285  0.3070 -1.5278
 3039SOL    HW226260   2.995   0.378   7.351 -0.9111  1.3796 -0.9702
 3040SOL     OW26261   3.776   6.291   0.820  0.4696  0.1990  0.0348
 3040SOL    HW126262   3.779   6.366   0.762 -0.0876  0.7296  0.6731
 3040SOL    HW226263   3.719   6.228   0.776 -0.3627  0.8013  0.2388
 3041SOL     OW26264   0.460   2.273   1.621 -0.5406  0.2502  0.4233
 3041SOL    HW126265   0.468   2.211   1.693 -3.1310 -1.6004 -0.7051
 3041SOL    HW226266   0.511   2.234   1.550 -0.1731  0.7152  0.4227
 3042SOL     OW26267   4.681   0.926   7.050  0.1927  0.1453 -0.2189
 3042SOL    HW126268   4.732   0.995   7.090  0.9068  0.5197 -1.6927
 3042SOL    HW226269   4.687   0.852   7.110 -0.9957  1.4771  1.6330
 3043SOL     OW26270   3.087   0.410   6.402  0.0355 -0.2577  0.0811
 3043SOL    HW126271   2.993   0.410   6.420  0.2439  1.3641  1.3768
 3043SOL    HW226272   3.119   0.493   6.438  1.9635 -0.7480 -0.3670
 3044SOL     OW26273   5.212   4.695   1.679  0.1128  0.0848  0.3703
 3044SOL    HW126274   5.299   4.733   1.664 -0.6232  1.4802 -0.5896
 3044SOL    HW226275   5.161   4.766   1.718 -0.9157 -0.3450 -0.1466
 3045SOL     OW26276   2.278   4.195   5.447  0.1340 -0.4103 -0.0021
 3045SOL    HW126277   2.253   4.278   5.488 -0.3803 -0.2699 -0.5808
 3045SOL    HW226278   2.309   4.219   5.360  1.8584 -0.6407  0.5077
 3046SOL     OW26279   2.287   1.270   1.210  0.5961  0.1685 -0.2089
 3046SOL    HW126280   2.302   1.183   1.247  0.9896  0.1719 -0.3508
 3046SOL    HW226281   2.211   1.303   1.256  1.6590  0.5781  1.3194
 3047SOL     OW26282   3.769   1.685   6.919 -0.0421 -0.1587 -0.0171
 3047SOL    HW126283   3.821   1.673   6.840 -0.8909 -1.5005 -0.4020
 3047SOL    HW226284   3.760   1.780   6.927  2.9213  0.1823  0.4187
 3048SOL     OW26285   3.322   5.594   0.051 -0.2921 -0.4164 -0.6564
 3048SOL    HW126286   3.352   5.616   0.140 -0.7859  0.6554 -0.7355
 3048SOL    HW226287   3.365   5.511   0.031  1.1703  0.1625 -0.0728
 3049SOL     OW26288   4.396   3.382   6.446  0.6342  0.2689 -0.6162
 3049SOL    HW126289   4.303   3.358   6.452  0.7115  0.1971  0.4289
 3049SOL    HW226290   4.442   3.299   6.441  0.6953  0.2691 -0.1482
 3050SOL     OW26291   1.978   3.548   1.819 -0.3429  0.4511  0.3068
 3050SOL    HW126292   1.916   3.605   1.774  1.3647  1.1288 -1.3234
 3050SOL    HW226293   1.955   3.460   1.791  0.9026  0.8786 -2.3296
 3051SOL     OW26294   3.259   0.369   0.711 -0.1513  0.0628  0.5793
 3051SOL    HW126295   3.265   0.418   0.628  0.4106 -1.4680 -0.3235
 3051SOL    HW226296   3.170   0.334   0.711 -1.1697  2.3823  2.0538
 3052SOL     OW26297   0.691   3.148   2.062  0.0867  0.1492  0.0706
 3052SOL    HW126298   0.597   3.134   2.049  0.2786 -0.1790 -1.1116
 3052SOL    HW226299   0.707   3.236   2.030  0.2003  0.1695  0.1828
 3053SOL     OW26300   4.977   5.878   6.137  0.0454 -0.0422  0.6661
 3053SOL    HW126301   5.053   5.821   6.124  0.0544 -0.0706  0.8451
 3053SOL    HW226302   4.977   5.934   6.059  1.0576  0.8824  1.2947
 3054SOL     OW26303   5.400   2.292   7.400 -0.1756 -0.1001 -0.4423
 3054SOL    HW126304   5.467   2.286   7.332  1.5187 -1.3955  1.2567
 3054SOL    HW226305   5.416   2.376   7.442 -0.7226  0.3391 -1.0728
 3055SOL     OW26306   3.701   2.653   6.029  0.2561 -0.0875 -0.3300
 3055SOL    HW126307   3.735   2.566   6.009  0.5375 -0.1273  0.3075
 3055SOL    HW226308   3.613   2.637   6.062 -0.2722 -0.0108 -1.6228
 3056SOL     OW26309   2.626   5.721   0.907  0.1741  0.2380 -0.3256
 3056SOL    HW126310   2.703   5.779   0.902  0.0242  0.4499 -0.2177
 3056SOL    HW226311   2.626   5.673   0.824  0.7463 -0.1784 -0.0875
 3057SOL     OW26312   0.305   5.126   7.102  0.2374  0.1700 -0.0435
 3057SOL    HW126313   0.313   5.164   7.014  0.5186 -0.9660 -0.5153
 3057SOL    HW226314   0.278   5.036   7.087  1.9905 -0.5655  0.9642
 3058SOL     OW26315   5.374   6.240   1.959 -0.3467 -0.4155 -0.3765
 3058SOL    HW126316   5.353   6.330   1.981 -0.5425 -0.5841  0.1342
 3058SOL    HW226317   5.448   6.246   1.899 -0.9015  0.1188 -1.0144
 3059SOL     OW26318   4.130   3.853   1.709 -0.2161  0.1208  0.1345
 3059SOL    HW126319   4.127   3.767   1.751  0.4114  0.5462  1.0663
 3059SOL    HW226320   4.211   3.851   1.658 -1.8631 -1.0998 -2.6931
 3060SOL     OW26321   1.999   2.504   1.426 -1.1271 -0.4252  0.4619
 3060SOL    HW126322   1.915   2.548   1.436 -0.7562  0.5813 -0.6027
 3060SOL    HW226323   2.024   2.519   1.335  0.2617 -0.5859  0.7840
 3061SOL     OW26324   1.863   4.587   5.790  0.3096  0.7057  0.5507
 3061SOL    HW126325   1.896   4.502   5.759 -1.4269  0.5579 -1.0655
 3061SOL    HW226326   1.929   4.650   5.762  0.6713  0.1043  0.0138
 3062SOL     OW26327   5.955   2.925   1.051  0.3689 -0.1676  0.3976
 3062SOL    HW126328   6.010   2.976   0.991 -0.4505  0.2258 -0.0393
 3062SOL    HW226329   5.866   2.944   1.023 -0.1380  1.2007  2.6535
 3063SOL     OW26330   5.474   6.559   5.531  0.0460 -0.0626  0.0189
 3063SOL    HW126331   5.561   6.553   5.492  0.6308 -0.6344  1.3526
 3063SOL    HW226332   5.460   6.653   5.543  0.9635 -0.0132  0.8176
 3064SOL     OW26333   5.344   0.425   5.411  0.6211  0.4259 -0.6362
 3064SOL    HW126334   5.341   0.494   5.477  0.4344 -0.6422  0.5059
 3064SOL    HW226335   5.253   0.403   5.394  0.6964 -0.0768 -0.4074
 3065SOL     OW26336   1.093   3.074   5.980 -0.5568  0.5679 -0.2505
 3065SOL    HW126337   1.105   3.118   6.064  0.0138 -0.2873  0.1210
 3065SOL    HW226338   1.023   3.010   5.996 -0.0617  0.0141 -0.2688
 3066SOL     OW26339   1.592   1.733   1.262 -0.5328 -0.4703  0.2500
 3066SOL    HW126340   1.629   1.656   1.218 -1.3214 -0.2461 -0.8172
 3066SOL    HW226341   1.651   1.747   1.337  0.5143 -1.1858 -0.4028
 3067SOL     OW26342   2.012   0.383   1.439 -0.4257  0.2707 -0.3776
 3067SOL    HW126343   1.942   0.432   1.395  0.0514  2.0008  0.7076
 3067SOL    HW226344   1.990   0.388   1.532  0.7706  0.2247 -0.0811
 3068SOL     OW26345   0.778   3.875   6.042 -0.0369 -0.2386  0.1546
 3068SOL    HW126346   0.828   3.897   6.121 -0.6379  1.0159  0.2021
 3068SOL    HW226347   0.771   3.779   6.045  0.2890 -0.2452  1.4107
 3069SOL     OW26348   1.190   2.186   6.460  0.3320 -0.1259  0.1749
 3069SOL    HW126349   1.209   2.192   6.366  1.4884 -0.2034  0.3833
 3069SOL    HW226350   1.263   2.134   6.495 -0.8254 -1.2977  0.9097
 3070SOL     OW26351   1.446   1.654   6.393 -0.2846 -0.1176 -0.0098
 3070SOL    HW126352   1.525   1.637   6.445 -0.8121 -0.8203  0.5712
 3070SOL    HW226353   1.472   1.633   6.303 -0.5060 -2.8879  0.4854
 3071SOL     OW26354   1.362   0.214   5.695  0.5087 -0.2330  0.0920
 3071SOL    HW126355   1.381   0.225   5.789 -3.4708 -0.0217  1.0214
 3071SOL    HW226356   1.387   0.298   5.656 -1.1555  1.0650  1.6763
 3072SOL     OW26357   1.344   6.591   1.930 -0.3137  0.1381 -0.4695
 3072SOL    HW126358   1.253   6.564   1.916  0.0611 -0.2377 -2.4548
 3072SOL    HW226359   1.354   6.670   1.876 -0.1258  1.7065  1.7349
 3073SOL     OW26360   0.912   0.117   6.936 -0.2507 -0.1952 -0.0088
 3073SOL    HW126361   1.003   0.136   6.916 -0.6406  0.7223 -1.0390
 3073SOL    HW226362   0.913   0.082   7.025  1.0002  0.7289  0.3646
 3074SOL     OW26363   5.368   0.053   5.951 -0.4643  0.0109  0.3570
 3074SOL    HW126364   5.425   0.044   6.027 -0.4182  0.9701  0.4472
 3074SOL    HW226365   5.369  -0.033   5.910 -0.9568 -0.7047  1.7659
 3075SOL     OW26366   3.909   4.760   7.123  0.1816  0.4712 -0.5866
 3075SOL    HW126367   3.828   4.808   7.141  0.6659  1.0357  0.1419
 3075SOL    HW226368   3.973   4.797   7.183  1.4294  1.1777 -2.2555
 3076SOL     OW26369   3.692   2.756   0.308  0.2538  0.6648  0.0974
 3076SOL    HW126370   3.627   2.825   0.315 -1.0452 -0.4902 -0.1938
 3076SOL    HW226371   3.708   2.728   0.398 -1.6176 -0.7673  0.0524
 3077SOL     OW26372   2.973   4.024   7.027  0.5840 -0.2402  0.0145
 3077SOL    HW126373   2.930   3.960   7.084 -0.3469  0.3406 -0.0176
 3077SOL    HW226374   3.044   4.060   7.081  0.7970 -0.9153  0.2024
 3078SOL     OW26375   0.289   0.165   6.308 -0.2527  0.0739 -0.0876
 3078SOL    HW126376   0.249   0.135   6.389 -1.2734 -0.1827 -0.6749
 3078SOL    HW226377   0.301   0.259   6.320  1.0114 -0.1740  0.9316
 3079SOL     OW26378   1.481   2.085   0.171  1.0821  0.4954 -0.1176
 3079SOL    HW126379   1.463   2.006   0.222  2.1831  0.6399  0.5395
 3079SOL    HW226380   1.521   2.052   0.090 -0.7713  0.2598 -0.9789
 3080SOL     OW26381   5.079   5.975   1.433 -0.3975 -0.0039  0.1999
 3080SOL    HW126382   5.038   6.002   1.351 -0.3628  0.9102  0.4694
 3080SOL    HW226383   5.077   6.054   1.487  2.0215  0.1865  0.1055
 3081SOL     OW26384   1.304   4.844   0.438  0.4159  0.3852  0.2249
 3081SOL    HW126385   1.328   4.887   0.355  1.6899 -1.0617 -0.1970
 3081SOL    HW226386   1.385   4.843   0.489  0.4700 -1.5465  0.1773
 3082SOL     OW26387   4.894   0.745   6.198 -0.0924 -0.5958 -0.0828
 3082SOL    HW126388   4.876   0.837   6.180  2.3147  0.0482  0.4021
 3082SOL    HW226389   4.834   0.722   6.269  0.6957  1.2668  1.2792
 3083SOL     OW26390   3.132   5.434   5.546 -0.5253  0.0579  0.3406
 3083SOL    HW126391   3.042   5.462   5.565 -0.1909  1.7376 -0.3576
 3083SOL    HW226392   3.152   5.474   5.461  0.5472 -1.1475 -0.0078
 3084SOL     OW26393   4.058   0.473   7.133 -0.1784 -0.2321 -0.2920
 3084SOL    HW126394   4.122   0.485   7.064  0.5123 -1.5623  0.0874
 3084SOL    HW226395   4.021   0.560   7.147 -0.5012  0.0298 -2.4608
 3085SOL     OW26396   3.974   4.425   0.174  0.1913 -0.2481  0.0074
 3085SOL    HW126397   3.921   4.377   0.110  0.0414  0.2062 -0.2128
 3085SOL    HW226398   3.916   4.495   0.205  0.4250 -0.1812  0.2907
 3086SOL     OW26399   5.291   3.330   2.138 -0.3128 -0.0262  0.5741
 3086SOL    HW126400   5.333   3.284   2.211  0.0607 -3.8647 -1.8294
 3086SOL    HW226401   5.357   3.393   2.108  1.3037 -1.5583  0.7770
 3087SOL     OW26402   3.994   5.974   1.323  1.0070 -0.0219  0.1932
 3087SOL    HW126403   3.922   5.914   1.343  0.6440  0.6887  1.1022
 3087SOL    HW226404   3.960   6.028   1.252 -0.6130  2.2867  2.5003
 3088SOL     OW26405   0.335   2.618   6.656  0.5440 -0.1261  0.2585
 3088SOL    HW126406   0.294   2.532   6.663  1.3881 -0.7301 -1.4967
 3088SOL    HW226407   0.407   2.616   6.719 -0.0003 -0.3433  0.8831
 3089SOL     OW26408   3.860   2.414   1.252  0.2378  0.0529  0.3330
 3089SOL    HW126409   3.796   2.358   1.297 -0.1554 -0.0694 -0.3635
 3089SOL    HW226410   3.923   2.352   1.214 -2.1213 -0.3066 -3.5181
 3090SOL     OW26411   5.558   4.826   6.913 -0.0722 -0.3797 -0.1712
 3090SOL    HW126412   5.641   4.792   6.879  0.7868  2.0902 -0.8000
 3090SOL    HW226413   5.584   4.875   6.992 -0.9156  0.3267 -0.3155
 3091SOL     OW26414   6.180   4.177   6.802  0.0852 -0.0262 -0.1494
 3091SOL    HW126415   6.237   4.103   6.823  1.1489  0.4969 -1.0870
 3091SOL    HW226416   6.093   4.139   6.795  0.9154 -1.6954 -2.9872
 3092SOL     OW26417   5.928   4.182   5.747 -0.1876  0.6263 -0.0804
 3092SOL    HW126418   5.873   4.193   5.669 -0.5652  1.6330  0.3120
 3092SOL    HW226419   5.960   4.270   5.766 -0.0355  0.3738  0.8583
 3093SOL     OW26420   4.138   4.813   5.723  0.2585  1.0571  0.3936
 3093SOL    HW126421   4.103   4.820   5.635  0.8276 -0.2176  0.0450
 3093SOL    HW226422   4.233   4.806   5.711  0.2053 -1.4711  0.9177
 3094SOL     OW26423   1.503   4.723   6.645  0.2239 -0.0295 -0.0119
 3094SOL    HW126424   1.492   4.656   6.713 -0.4545 -0.9385 -0.9878
 3094SOL    HW226425   1.414   4.749   6.622  0.4298 -0.0444 -0.8554
 3095SOL     OW26426   1.930   0.801   1.373 -0.7245  0.5457  0.1306
 3095SOL    HW126427   1.978   0.745   1.312 -0.9082  2.0871 -1.5063
 3095SOL    HW226428   1.968   0.888   1.362 -3.3712  1.7060 -0.7842
 3096SOL     OW26429   4.929   1.686   1.265 -0.2692 -0.5138 -0.1314
 3096SOL    HW126430   4.931   1.752   1.334 -0.5245 -1.0240  0.3810
 3096SOL    HW226431   4.896   1.607   1.309 -1.9059 -0.4478 -1.1620
 3097SOL     OW26432   4.251   2.711   1.976  0.1975 -0.0969  0.1303
 3097SOL    HW126433   4.222   2.654   1.905  1.1579  0.2712 -0.5877
 3097SOL    HW226434   4.232   2.800   1.945  0.4119  0.0561  0.4246
 3098SOL     OW26435   2.731   0.051   1.176  0.3891 -0.0002  0.1894
 3098SOL    HW126436   2.769  -0.036   1.163  3.3108  1.4447 -1.9345
 3098SOL    HW226437   2.711   0.082   1.088 -2.3065  0.8943  1.0010
 3099SOL     OW26438   5.610   6.435   6.405 -0.4079  0.0629 -0.2663
 3099SOL    HW126439   5.555   6.373   6.358  1.5437 -1.1927 -1.0393
 3099SOL    HW226440   5.549   6.494   6.448 -2.3266 -1.3917 -0.8640
 3100SOL     OW26441   2.303   5.623   6.179 -0.0217  0.0046  0.5115
 3100SOL    HW126442   2.219   5.579   6.171  0.4858 -1.0020  0.6239
 3100SOL    HW226443   2.281   5.713   6.203 -1.2750  0.7958 -2.9854
 3101SOL     OW26444   4.642   1.348   1.619  0.2582 -0.1178  0.0810
 3101SOL    HW126445   4.583   1.274   1.605  0.4363 -0.2099 -0.2124
 3101SOL    HW226446   4.678   1.365   1.532  0.9275 -0.2857  0.3259
 3102SOL     OW26447   6.079   4.160   1.374  0.2591 -0.0664 -0.3184
 3102SOL    HW126448   6.118   4.245   1.397 -1.1245  0.1407  1.5276
 3102SOL    HW226449   6.017   4.180   1.304  0.6962  0.2491 -0.6233
 3103SOL     OW26450   2.961   0.686   5.230 -0.1193  0.0868  0.2002
 3103SOL    HW126451   2.976   0.745   5.156  0.4729 -0.6324 -0.2695
 3103SOL    HW226452   2.943   0.601   5.190  0.1296 -0.2995  0.8833
 3104SOL     OW26453   0.744   3.928   0.416 -0.4079 -0.7885  0.1376
 3104SOL    HW126454   0.726   3.866   0.346  0.1479  0.8269 -1.5056
 3104SOL    HW226455   0.839   3.923   0.429 -0.0757  0.9367 -1.2753
 3105SOL     OW26456   6.512   2.227   1.027 -0.1189 -0.1489 -0.4433
 3105SOL    HW126457   6.491   2.240   0.934  1.5308  2.0024 -0.6097
 3105SOL    HW226458   6.554   2.141   1.030 -3.5571 -2.0183 -0.9666
 3106SOL     OW26459   5.069   3.881   0.740  0.3386  0.3189 -0.4626
 3106SOL    HW126460   5.148   3.929   0.760  0.0269  2.1835 -3.1679
 3106SOL    HW226461   5.013   3.891   0.818  1.2939  2.1708  0.0145
 3107SOL     OW26462   5.042   1.405   5.871  0.3767 -0.2649 -0.1293
 3107SOL    HW126463   5.094   1.395   5.951 -1.0836 -0.4615  0.8529
 3107SOL    HW226464   5.004   1.319   5.856  0.4915 -0.1811 -0.9405
 3108SOL     OW26465   1.906   2.115   1.122  0.4231  0.3703 -0.2430
 3108SOL    HW126466   1.908   2.086   1.213  3.2519 -0.2871 -0.4293
 3108SOL    HW226467   1.974   2.182   1.117  0.4120  0.2875 -1.9056
 3109SOL     OW26468   5.589   2.809   0.088 -0.3719  0.2277 -0.0377
 3109SOL    HW126469   5.564   2.900   0.102 -1.1434 -0.1840  1.5162
 3109SOL    HW226470   5.654   2.792   0.157  1.4702  0.2080 -1.6914
 3110SOL     OW26471   0.465   5.065   0.436 -0.0658  0.3780  0.1684
 3110SOL    HW126472   0.370   5.079   0.441 -0.2354 -0.5790 -0.2044
 3110SOL    HW226473   0.481   5.047   0.344  0.0810 -2.0466  0.6163
 3111SOL     OW26474   1.998   0.868   5.652 -0.3694  0.1101  0.1022
 3111SOL    HW126475   1.979   0.941   5.593 -1.7735 -0.4508 -0.1801
 3111SOL    HW226476   1.983   0.790   5.598  3.7765 -0.4839 -0.4659
 3112SOL     OW26477   1.584   5.538   6.789  0.1439  0.1348  0.0621
 3112SOL    HW126478   1.661   5.567   6.739  0.4193  2.4572  1.6663
 3112SOL    HW226479   1.521   5.609   6.778 -1.2126 -1.0277  0.0613
 3113SOL     OW26480   4.811   2.817   7.012  0.0408 -0.0755 -0.1414
 3113SOL    HW126481   4.884   2.758   6.996 -1.7597 -2.0610 -1.5217
 3113SOL    HW226482   4.733   2.762   7.006 -1.6565  2.1108  0.3518
 3114SOL     OW26483   0.689   2.995   7.132  0.0923 -0.3784  0.6487
 3114SOL    HW126484   0.717   2.981   7.222  2.0974  0.3625  0.2099
 3114SOL    HW226485   0.721   3.082   7.110 -1.0359 -0.2343 -0.5502
 3115SOL     OW26486   5.725   5.328   6.333 -0.1573  0.3632 -0.0108
 3115SOL    HW126487   5.806   5.279   6.347  0.5413  1.2357 -0.8696
 3115SOL    HW226488   5.685   5.332   6.420  0.9967  0.3769  0.5516
 3116SOL     OW26489   1.026   1.397   0.125 -0.2768 -0.1671  0.0784
 3116SOL    HW126490   1.070   1.375   0.207  2.0919 -0.0728 -1.0884
 3116SOL    HW226491   0.945   1.346   0.127 -0.0523 -0.5227  2.2445
 3117SOL     OW26492   2.427   4.542   6.486  0.8001  0.5468  0.1778
 3117SOL    HW126493   2.428   4.498   6.401 -2.5638  0.9701 -0.2191
 3117SOL    HW226494   2.432   4.471   6.550 -1.0415 -0.1977 -0.4424
 3118SOL     OW26495   2.855   5.869   0.854 -0.2615  0.5989  0.1128
 3118SOL    HW126496   2.901   5.800   0.807 -1.1482  0.3270 -0.3710
 3118SOL    HW226497   2.800   5.912   0.788  0.2689  1.7704  0.4081
 3119SOL     OW26498   5.102   5.666   0.788 -0.2625 -0.0472 -0.7291
 3119SOL    HW126499   5.173   5.676   0.725 -0.7779  1.0011 -1.1690
 3119SOL    HW226500   5.111   5.576   0.820  1.9834  0.4081  0.1223
 3120SOL     OW26501   1.658   1.366   6.725 -0.3620 -0.4980 -0.1395
 3120SOL    HW126502   1.590   1.432   6.710  0.1626 -0.1570 -1.1374
 3120SOL    HW226503   1.727   1.390   6.664  1.9632  0.9454  2.7704
 3121SOL     OW26504   1.625   4.129   6.407  0.1028 -0.1325  0.2216
 3121SOL    HW126505   1.675   4.195   6.359 -1.5808  0.9647 -0.1181
 3121SOL    HW226506   1.622   4.163   6.497  0.8622 -0.7641  0.5043
 3122SOL     OW26507   5.433   2.384   1.209 -0.4857 -0.5015 -0.2035
 3122SOL    HW126508   5.434   2.451   1.140  1.5457  0.3853  0.6217
 3122SOL    HW226509   5.463   2.304   1.166  1.2103  0.1530 -0.2902
 3123SOL     OW26510   4.661   3.704   2.545 -0.2638 -0.3390 -0.3102
 3123SOL    HW126511   4.630   3.712   2.455 -0.9021 -1.5927 -0.2159
 3123SOL    HW226512   4.752   3.675   2.537 -0.3597 -0.5773 -0.5459
 3124SOL     OW26513   5.004   5.808   5.596 -0.0760 -0.0154 -0.5486
 3124SOL    HW126514   4.919   5.842   5.568 -0.3065 -0.5121 -0.4560
 3124SOL    HW226515   5.013   5.838   5.686 -0.0053  0.3150 -0.6644
 3125SOL     OW26516   1.809   0.665   0.030 -0.5277  0.1782  0.4091
 3125SOL    HW126517   1.791   0.670  -0.064 -1.1372 -1.0518  0.4324
 3125SOL    HW226518   1.764   0.740   0.068 -1.9226 -0.3860 -0.0645
 3126SOL     OW26519   4.278   5.416   0.447  0.1074 -0.4946 -0.1864
 3126SOL    HW126520   4.202   5.391   0.500 -1.0131  0.2678 -1.3676
 3126SOL    HW226521   4.243   5.479   0.384  2.2580  2.0213  0.9759
 3127SOL     OW26522   0.743   2.433   6.636 -0.0028 -0.1210  0.0680
 3127SOL    HW126523   0.655   2.397   6.620  0.6273 -3.0484  2.3160
 3127SOL    HW226524   0.729   2.501   6.701 -0.6342 -0.6519  0.5063
 3128SOL     OW26525   4.401   1.220   1.529 -0.5588  0.3391  0.2585
 3128SOL    HW126526   4.368   1.134   1.555 -1.6211  0.5051 -0.4898
 3128SOL    HW226527   4.383   1.225   1.435 -1.3092  1.7120  0.4488
 3129SOL     OW26528   3.210   5.600   1.208 -0.2793 -0.5987 -0.0624
 3129SOL    HW126529   3.128   5.585   1.160  0.5755 -1.1143 -1.4041
 3129SOL    HW226530   3.222   5.694   1.207 -1.2991 -0.4378  0.9248
 3130SOL     OW26531   4.903   1.106   0.090  0.7483  0.7960 -0.2019
 3130SOL    HW126532   4.812   1.087   0.115 -0.1261  1.4223 -2.6548
 3130SOL    HW226533   4.953   1.034   0.128 -1.0953 -0.8376 -0.6717
 3131SOL     OW26534   4.404   2.370   1.465 -0.1249  0.3180  0.2764
 3131SOL    HW126535   4.335   2.318   1.505 -1.1167  1.0528 -0.4264
 3131SOL    HW226536   4.480   2.313   1.463 -1.3027 -1.3001 -0.9107
 3132SOL     OW26537   2.250   0.380   6.731 -0.2705 -0.0895 -0.3381
 3132SOL    HW126538   2.157   0.391   6.711 -0.2403  1.3260  0.2029
 3132SOL    HW226539   2.279   0.467   6.759  0.7830 -0.9222  1.3078
 3133SOL     OW26540   2.103   4.968   0.222  0.0201 -0.1522  0.1912
 3133SOL    HW126541   2.066   5.043   0.268  2.4921 -0.6702  3.3712
 3133SOL    HW226542   2.066   4.892   0.267 -1.7350 -0.9502 -2.3858
 3134SOL     OW26543   5.231   1.849   1.535  0.2022  0.0952  0.0535
 3134SOL    HW126544   5.302   1.889   1.584 -0.3678  1.8212 -0.4562
 3134SOL    HW226545   5.273   1.778   1.486  1.4923  0.7495  0.1529
 3135SOL     OW26546   1.304   6.191   0.242  0.4720 -0.3250  0.4895
 3135SOL    HW126547   1.252   6.132   0.187  1.1894 -0.3955 -0.1280
 3135SOL    HW226548   1.258   6.192   0.325 -0.3641 -0.6069  0.0436
 3136SOL     OW26549   3.922   1.145   5.033 -0.0885 -0.2995 -0.4562
 3136SOL    HW126550   3.840   1.103   5.060  0.0029 -0.5140 -0.5095
 3136SOL    HW226551   3.965   1.080   4.979  0.5908 -0.5867  0.4070
 3137SOL     OW26552   4.938   1.202   1.327 -0.2468  0.2240 -0.5925
 3137SOL    HW126553   4.960   1.192   1.234  1.0991 -1.6214 -0.1287
 3137SOL    HW226554   4.881   1.128   1.347  0.4827 -0.1305  0.3013
 3138SOL     OW26555   0.567   6.432   5.923 -0.4977  0.3484  0.1291
 3138SOL    HW126556   0.579   6.351   5.874 -3.4144  1.0010 -2.0161
 3138SOL    HW226557   0.628   6.494   5.882 -0.0489 -0.1229  0.0747
 3139SOL     OW26558   4.059   4.133   6.772 -0.6393 -0.0792 -1.0770
 3139SOL    HW126559   4.000   4.208   6.761 -1.0873 -0.1431  0.6526
 3139SOL    HW226560   4.043   4.079   6.694 -3.3032 -0.3700 -0.4330
 3140SOL     OW26561   1.002   4.094   1.014  0.2051  0.1090 -0.2080
 3140SOL    HW126562   1.038   4.007   0.995 -0.4930 -0.1965 -0.1703
 3140SOL    HW226563   1.012   4.104   1.109  1.5164  0.6464 -0.3735
 3141SOL     OW26564   3.746   2.833   6.491  0.2369  0.3346  0.0312
 3141SOL    HW126565   3.788   2.918   6.502 -1.4993  1.4433 -1.3200
 3141SOL    HW226566   3.815   2.769   6.508  1.4106  1.9773  1.7751
 3142SOL     OW26567   2.006   4.405   0.225  0.5268 -0.8652 -0.5199
 3142SOL    HW126568   2.077   4.347   0.198  1.4131 -1.0877  1.9887
 3142SOL    HW226569   1.988   4.380   0.316 -1.1040  0.8338 -0.3144
 3143SOL     OW26570   6.422   6.578   1.552 -0.3693  0.4175  0.2364
 3143SOL    HW126571   6.395   6.579   1.644 -0.6946  1.1108  0.1435
 3143SOL    HW226572   6.359   6.519   1.510 -0.1560  0.0174  0.4768
 3144SOL     OW26573   0.683   0.548   0.657  0.2160 -0.3036  0.3378
 3144SOL    HW126574   0.667   0.600   0.578  0.5931  2.4973  1.9729
 3144SOL    HW226575   0.601   0.555   0.707  0.0660 -1.8389  0.3552
 3145SOL     OW26576   5.377   4.026   1.324 -0.4245 -0.8167  0.3828
 3145SOL    HW126577   5.419   3.943   1.301 -0.6395 -0.5873 -0.9369
 3145SOL    HW226578   5.449   4.089   1.330 -0.5319 -0.1016 -3.2855
 3146SOL     OW26579   1.262   2.974   6.567  0.2883 -0.1587  0.3688
 3146SOL    HW126580   1.197   2.907   6.545 -1.7790  1.4854  1.0981
 3146SOL    HW226581   1.240   3.000   6.657  2.5342 -0.1161  0.9636
 3147SOL     OW26582   3.655   4.899   7.177  0.1529 -0.5028  0.3408
 3147SOL    HW126583   3.608   4.938   7.251 -0.6171 -1.7793  0.5643
 3147SOL    HW226584   3.619   4.811   7.170  1.0048 -0.7814 -0.8730
 3148SOL     OW26585   5.073   2.675   7.006 -0.7658 -0.0848 -0.2095
 3148SOL    HW126586   5.122   2.618   7.065 -0.9094  0.2678  0.2559
 3148SOL    HW226587   5.110   2.657   6.919 -0.7063 -0.7719 -0.0478
 3149SOL     OW26588   5.992   3.581   2.082  0.7848  0.1741  0.4263
 3149SOL    HW126589   6.057   3.544   2.022 -1.3583 -2.4060 -0.5387
 3149SOL    HW226590   5.940   3.640   2.027  0.1961 -0.4661  0.2834
 3150SOL     OW26591   3.998   3.970   6.574 -0.4535  0.0008  0.6695
 3150SOL    HW126592   3.918   3.993   6.526 -0.1675 -1.0386 -0.3555
 3150SOL    HW226593   4.066   3.973   6.507  0.4658  1.2751  1.6095
 3151SOL     OW26594   4.722   0.818   6.561  0.3985 -0.2178  0.1469
 3151SOL    HW126595   4.672   0.741   6.586 -2.0265  1.0113 -0.5976
 3151SOL    HW226596   4.694   0.837   6.472  1.1714  1.3146  0.1985
 3152SOL     OW26597   1.287   4.799   5.868  0.1683  0.3034 -0.9635
 3152SOL    HW126598   1.217   4.752   5.913 -0.3017  0.0777 -1.8985
 3152SOL    HW226599   1.316   4.865   5.931  1.2980 -1.6031  0.6218
 3153SOL     OW26600   0.315   0.857   6.706  0.3940 -0.5840 -0.0769
 3153SOL    HW126601   0.279   0.898   6.627  0.3584  1.1479  0.7931
 3153SOL    HW226602   0.409   0.849   6.687  0.5371  0.6480  0.0191
 3154SOL     OW26603   2.467   2.686   6.921  0.4396  0.1125 -0.3823
 3154SOL    HW126604   2.416   2.684   6.840  1.2519 -0.8105 -0.8878
 3154SOL    HW226605   2.409   2.647   6.986  0.4800 -0.9398 -0.9548
 3155SOL     OW26606   6.030   1.828   1.584  0.2334  0.1953  0.1878
 3155SOL    HW126607   6.047   1.761   1.650  0.6751  0.4475  0.3368
 3155SOL    HW226608   6.085   1.902   1.611  0.2308  0.3876 -0.3258
 3156SOL     OW26609   4.676   5.113   5.924  0.2112  0.4958 -0.6573
 3156SOL    HW126610   4.768   5.135   5.938  0.3792 -1.3719  2.0909
 3156SOL    HW226611   4.678   5.030   5.876  0.0554 -0.1782  0.4625
 3157SOL     OW26612   3.163   6.179   5.911  0.0309  0.1128 -0.9551
 3157SOL    HW126613   3.094   6.119   5.882  1.2633 -0.1414 -3.6463
 3157SOL    HW226614   3.123   6.265   5.911 -0.7942 -0.2643 -0.5540
 3158SOL     OW26615   6.242   0.749   6.637 -0.3517 -0.1456  1.1508
 3158SOL    HW126616   6.206   0.710   6.717 -1.0552  0.1444  0.9770
 3158SOL    HW226617   6.325   0.703   6.624 -1.0808 -1.4737  1.0484
 3159SOL     OW26618   2.150   6.331   7.300 -0.1518 -0.2921  0.1714
 3159SOL    HW126619   2.210   6.312   7.228  0.0412  0.4566  0.1307
 3159SOL    HW226620   2.063   6.328   7.260 -0.0432  0.1575 -0.1051
 3160SOL     OW26621   3.545   1.933   1.021 -0.6246  0.2674 -0.1070
 3160SOL    HW126622   3.474   1.870   1.028 -0.5888  0.2701  0.3013
 3160SOL    HW226623   3.618   1.883   0.984 -0.4133 -0.0797  0.7659
 3161SOL     OW26624   1.708   3.171   6.477  0.0899 -0.1195 -0.1968
 3161SOL    HW126625   1.664   3.229   6.415  0.7196 -0.1858 -0.7241
 3161SOL    HW226626   1.764   3.228   6.529  2.4330 -0.4201 -2.1898
 3162SOL     OW26627   4.774   2.509   2.029  0.0784  0.2077 -0.4805
 3162SOL    HW126628   4.816   2.571   1.970 -1.1666  1.7098  0.1411
 3162SOL    HW226629   4.767   2.555   2.113 -0.9151 -0.7521  0.0044
 3163SOL     OW26630   3.453   1.291   5.704  0.2801  0.0141  0.1130
 3163SOL    HW126631   3.371   1.276   5.655 -0.7750 -0.9850  2.0475
 3163SOL    HW226632   3.522   1.281   5.638 -1.0407 -1.4858 -1.1525
 3164SOL     OW26633   4.784   4.438   0.192 -0.3884  0.0521  0.0517
 3164SOL    HW126634   4.734   4.448   0.272 -0.4227 -0.1089  0.0498
 3164SOL    HW226635   4.875   4.434   0.221 -0.3685  0.4268  0.0491
 3165SOL     OW26636   5.014   3.115   5.671 -0.1906  0.1017  0.1578
 3165SOL    HW126637   4.953   3.116   5.597 -2.1218  1.4078  1.6243
 3165SOL    HW226638   5.028   3.023   5.690 -0.3103 -0.2412 -1.3179
 3166SOL     OW26639   4.396   1.591   6.282  0.3413  0.0463  0.1001
 3166SOL    HW126640   4.465   1.609   6.218 -0.1692  0.6749 -0.2913
 3166SOL    HW226641   4.406   1.660   6.348 -1.2298  1.4628 -1.0745
 3167SOL     OW26642   2.817   4.380   7.211 -0.0159  0.1892 -0.0018
 3167SOL    HW126643   2.782   4.367   7.299 -1.1362  0.7283 -0.3470
 3167SOL    HW226644   2.821   4.476   7.201  1.8493  0.1628  0.1169
 3168SOL     OW26645   1.453   4.496   0.968 -0.1100 -0.2469  0.0144
 3168SOL    HW126646   1.539   4.463   0.997 -0.5638  0.3455  2.1930
 3168SOL    HW226647   1.390   4.437   1.010 -0.8069 -0.3486 -1.1423
 3169SOL     OW26648   0.655   5.684   5.842 -0.1602  0.3569 -0.7192
 3169SOL    HW126649   0.694   5.623   5.904 -0.2999 -0.9842 -1.9133
 3169SOL    HW226650   0.728   5.718   5.791 -0.1065  1.0542 -0.1937
 3170SOL     OW26651   0.001   2.512   6.257 -0.3740 -0.4358 -0.1673
 3170SOL    HW126652  -0.080   2.559   6.280 -0.4466 -1.0295  0.8639
 3170SOL    HW226653   0.062   2.580   6.231 -1.5453 -0.0529 -2.1007
 3171SOL     OW26654   5.138   6.392   1.000 -0.1213 -0.1124 -0.3177
 3171SOL    HW126655   5.221   6.377   1.045 -0.9311 -1.1113  0.9090
 3171SOL    HW226656   5.122   6.311   0.952 -0.1014  0.3015 -1.0240
 3172SOL     OW26657   1.792   4.171   0.327  0.4209  0.2113  0.0994
 3172SOL    HW126658   1.802   4.140   0.417 -4.3971 -1.1592  0.4435
 3172SOL    HW226659   1.731   4.245   0.334  1.1714  1.0900 -1.9440
 3173SOL     OW26660   5.557   5.868   0.025  0.4312 -0.0673  0.1328
 3173SOL    HW126661   5.608   5.794  -0.008  1.3633  0.6658 -0.0954
 3173SOL    HW226662   5.491   5.827   0.082  0.9214 -1.0714  0.0115
 3174SOL     OW26663   5.929   0.265   0.950  0.0377 -0.4689 -0.8936
 3174SOL    HW126664   5.977   0.332   0.901 -1.2757  0.4164 -1.0329
 3174SOL    HW226665   5.920   0.303   1.038  3.0589 -2.3652  0.3938
 3175SOL     OW26666   5.627   3.082   0.086 -0.2517  0.2145  0.3333
 3175SOL    HW126667   5.714   3.059   0.054  0.0288  0.6933  0.7426
 3175SOL    HW226668   5.573   3.088   0.007  0.3116  0.8805 -0.0114
 3176SOL     OW26669   3.330   5.041   0.361 -0.2345  0.0762  0.0841
 3176SOL    HW126670   3.324   4.945   0.362  0.6055  0.0163  1.0664
 3176SOL    HW226671   3.282   5.067   0.282 -2.2652 -1.0242  0.8810
 3177SOL     OW26672   6.491   3.786   1.646 -0.2622  0.3820 -0.1210
 3177SOL    HW126673   6.536   3.842   1.709  1.5995 -0.0631 -0.9858
 3177SOL    HW226674   6.477   3.704   1.693  0.3716  0.3269 -0.0219
 3178SOL     OW26675   4.933   2.642   7.459 -0.3756  0.1135 -0.8573
 3178SOL    HW126676   5.014   2.686   7.435  1.5433 -2.6391  0.0778
 3178SOL    HW226677   4.944   2.552   7.428 -1.7288 -1.1477  1.9277
 3179SOL     OW26678   3.225   0.779   6.266  0.2587 -0.0852 -0.2437
 3179SOL    HW126679   3.199   0.730   6.344  1.3223 -1.3806 -0.6720
 3179SOL    HW226680   3.199   0.723   6.192  1.1109  0.1821 -0.7590
 3180SOL     OW26681   2.705   2.363   0.802 -1.0448 -0.3779  0.0970
 3180SOL    HW126682   2.666   2.282   0.771  3.8127 -2.4693 -1.4835
 3180SOL    HW226683   2.709   2.353   0.897 -0.5389 -2.0269 -0.0784
 3181SOL     OW26684   1.937   6.254   2.190 -0.5670 -0.0885  0.5845
 3181SOL    HW126685   1.979   6.173   2.216 -1.0431  0.2430  2.5834
 3181SOL    HW226686   2.009   6.317   2.182 -0.1339 -0.7500 -1.4832
 3182SOL     OW26687   6.071   3.721   0.325  0.3026  0.0951  0.1908
 3182SOL    HW126688   6.079   3.796   0.266  0.1726  1.9912  2.4352
 3182SOL    HW226689   6.161   3.697   0.347  0.3210  0.9755  1.0982
 3183SOL     OW26690   1.092   1.782   7.082 -0.1491  0.4071 -0.1155
 3183SOL    HW126691   1.090   1.711   7.147  0.0225  0.5333  0.0260
 3183SOL    HW226692   1.045   1.746   7.007  1.9233 -0.7295 -0.9533
 3184SOL     OW26693   5.637   0.367   5.968  0.2931 -0.4704  0.6914
 3184SOL    HW126694   5.695   0.354   5.893  1.0565  1.0121  0.9786
 3184SOL    HW226695   5.552   0.335   5.939  0.3764  0.7984 -1.1105
 3185SOL     OW26696   1.493   4.130   7.221  0.6006 -0.0269  0.3759
 3185SOL    HW126697   1.499   4.058   7.284 -2.8311 -0.7500  0.0707
 3185SOL    HW226698   1.524   4.207   7.269 -1.8771 -0.5376  3.0468
 3186SOL     OW26699   1.971   2.618   0.055 -0.1285 -0.2384  0.4631
 3186SOL    HW126700   2.007   2.702   0.084  0.5273 -0.2891 -0.1652
 3186SOL    HW226701   1.889   2.609   0.104 -0.3753  0.9183  0.2936
 3187SOL     OW26702   3.736   1.415   0.788  0.0540 -0.1281  0.1720
 3187SOL    HW126703   3.779   1.463   0.859 -1.4721  1.0251  0.3612
 3187SOL    HW226704   3.685   1.347   0.832  0.3676 -0.4405  0.0591
 3188SOL     OW26705   4.843   5.288   1.273  0.4319  0.2036  0.0601
 3188SOL    HW126706   4.840   5.320   1.182 -0.2338 -0.1823 -0.0542
 3188SOL    HW226707   4.814   5.197   1.267  3.5605 -0.9265  0.1893
 3189SOL     OW26708   1.811   6.185   7.436  0.5961  0.0538  0.2050
 3189SOL    HW126709   1.885   6.212   7.382  0.3943 -0.0598 -0.1332
 3189SOL    HW226710   1.766   6.117   7.384  1.0129 -0.8366  0.9680
 3190SOL     OW26711   5.055   6.577   1.209  0.2307 -0.2451  0.1978
 3190SOL    HW126712   5.117   6.530   1.153  0.8152  2.2061 -1.3768
 3190SOL    HW226713   5.099   6.660   1.227 -1.7841  0.7465  0.7538
 3191SOL     OW26714   1.103   2.124   0.615 -0.1797 -0.3869  0.3637
 3191SOL    HW126715   1.063   2.143   0.530  0.6144  0.0986  0.0809
 3191SOL    HW226716   1.184   2.175   0.615  0.0991 -0.8081  1.1944
 3192SOL     OW26717   2.479   3.923   2.146  0.1001  0.0398 -0.4448
 3192SOL    HW126718   2.552   3.867   2.172  0.2535  0.0462 -0.8481
 3192SOL    HW226719   2.402   3.868   2.156  0.3149 -0.4646 -1.4731
 3193SOL     OW26720   4.348   1.176   7.005  0.5385  0.4212  0.0512
 3193SOL    HW126721   4.351   1.141   6.916  0.7855  0.7831 -0.0870
 3193SOL    HW226722   4.265   1.146   7.040  0.4824  0.1968 -0.2726
 3194SOL     OW26723   0.505   4.369   1.466 -0.3100  0.1126 -0.1268
 3194SOL    HW126724   0.411   4.349   1.465 -0.1630 -0.6047 -0.6908
 3194SOL    HW226725   0.510   4.460   1.493 -1.1441  0.0050  0.4265
 3195SOL     OW26726   3.460   4.102   5.679 -0.6630 -0.8479  0.3218
 3195SOL    HW126727   3.417   4.100   5.594  0.6558 -1.5582 -0.3646
 3195SOL    HW226728   3.552   4.117   5.659 -0.5270  0.4314  1.7250
 3196SOL     OW26729   3.150   0.255   1.845  0.5111 -0.3115  0.0378
 3196SOL    HW126730   3.173   0.263   1.938  1.1030 -1.7610  0.0429
 3196SOL    HW226731   3.058   0.229   1.846  0.6388 -0.7731  0.2436
 3197SOL     OW26732   2.056   0.521   0.078  0.1933 -0.3163  0.1345
 3197SOL    HW126733   2.039   0.474  -0.003  2.2736 -0.6041 -0.1852
 3197SOL    HW226734   1.975   0.569   0.096 -1.3179 -2.4896 -0.5372
 3198SOL     OW26735   2.743   4.087   0.659 -0.0620 -0.4280  0.5121
 3198SOL    HW126736   2.650   4.064   0.653 -0.1088  0.0798 -1.6761
 3198SOL    HW226737   2.756   4.152   0.589  1.4643  1.2452  2.2446
 3199SOL     OW26738   0.557   3.177   0.911  0.6303  0.0831 -0.0756
 3199SOL    HW126739   0.509   3.258   0.897  1.8359  0.6100 -1.4193
 3199SOL    HW226740   0.568   3.172   1.006 -0.1829  1.0418  0.0872
 3200SOL     OW26741   0.478   5.718   0.527 -0.0056  0.3581 -0.1381
 3200SOL    HW126742   0.481   5.629   0.562  2.0654  1.0129  1.6004
 3200SOL    HW226743   0.457   5.773   0.603 -0.8465  1.4258 -1.0949
 3201SOL     OW26744   2.541   1.346   1.132 -0.1834  0.0151 -0.4803
 3201SOL    HW126745   2.596   1.311   1.063  0.6994  0.2309  0.1010
 3201SOL    HW226746   2.457   1.302   1.120  0.8558 -2.2861  0.1932
 3202SOL     OW26747   2.983   1.013   5.636 -0.2340  0.1117 -0.2241
 3202SOL    HW126748   2.982   1.105   5.612 -1.3557  0.2818  0.3812
 3202SOL    HW226749   3.030   0.969   5.565  1.2607  1.2665  0.0057
 3203SOL     OW26750   6.119   5.356   0.006  0.4777  0.3662  0.2421
 3203SOL    HW126751   6.114   5.451  -0.008 -0.2812  0.2456 -0.3978
 3203SOL    HW226752   6.028   5.329   0.018  0.4935 -0.5459 -1.4828
 3204SOL     OW26753   5.325   5.664   7.450 -0.8130 -0.3192  0.3601
 3204SOL    HW126754   5.266   5.598   7.414 -2.5011  0.4343  1.6360
 3204SOL    HW226755   5.388   5.680   7.379 -0.0020 -3.5991  0.1720
 3205SOL     OW26756   2.791   4.236   6.641  0.1926  0.0058  0.6290
 3205SOL    HW126757   2.733   4.296   6.687  0.7990 -0.2636  1.7809
 3205SOL    HW226758   2.827   4.287   6.569 -3.0278 -0.3874 -1.4741
 3206SOL     OW26759   0.324   4.790   0.813 -0.4313 -0.6843 -0.8076
 3206SOL    HW126760   0.313   4.701   0.779 -0.9289 -1.0159  0.1722
 3206SOL    HW226761   0.287   4.847   0.746  0.1925 -1.1876 -1.5981
 3207SOL     OW26762   5.256   0.218   0.955 -0.0310 -0.4916  0.5589
 3207SOL    HW126763   5.343   0.192   0.923 -0.8274 -2.5994 -0.0271
 3207SOL    HW226764   5.201   0.218   0.877 -0.9718 -1.0586  1.2037
 3208SOL     OW26765   2.717   1.186   0.665 -0.0376  0.1009  0.4344
 3208SOL    HW126766   2.687   1.096   0.652  1.6050 -0.3801 -0.1883
 3208SOL    HW226767   2.636   1.238   0.666 -0.9307 -1.2111 -0.5259
 3209SOL     OW26768   0.599   1.146   2.547 -0.6747 -0.1797 -0.3227
 3209SOL    HW126769   0.547   1.097   2.610  3.1112 -2.7102  1.2441
 3209SOL    HW226770   0.583   1.103   2.463 -2.4059  0.3218 -0.2773
 3210SOL     OW26771   4.843   0.759   1.498  0.4972 -0.5775  0.0512
 3210SOL    HW126772   4.898   0.731   1.426 -0.9811 -2.5126 -0.3945
 3210SOL    HW226773   4.904   0.789   1.565  1.9355  3.4820 -2.6863
 3211SOL     OW26774   5.338   0.028   6.682 -0.1991 -0.8002  0.0226
 3211SOL    HW126775   5.243   0.013   6.685 -0.3385  0.1786  1.3872
 3211SOL    HW226776   5.347   0.123   6.693  0.8939 -0.6534 -1.7628
 3212SOL     OW26777   5.469   2.785   7.330  0.1319 -0.2657 -0.4726
 3212SOL    HW126778   5.541   2.759   7.387 -0.1654 -0.3433 -0.1257
 3212SOL    HW226779   5.437   2.867   7.367 -1.2282 -1.2207  0.5739
 3213SOL     OW26780   0.547   5.336   7.251 -0.1697  0.2186 -0.0325
 3213SOL    HW126781   0.610   5.342   7.322 -0.5934  0.0616  0.3628
 3213SOL    HW226782   0.598   5.306   7.176  0.2465  0.2097  0.2533
 3214SOL     OW26783   4.863   4.675   0.737 -0.0124 -0.7573  0.0729
 3214SOL    HW126784   4.908   4.661   0.820 -1.0274 -0.2760  0.7175
 3214SOL    HW226785   4.806   4.599   0.727  1.3704 -1.7270 -1.0887
 3215SOL     OW26786   1.291   1.628   1.871 -0.2611 -0.1689 -0.4361
 3215SOL    HW126787   1.377   1.642   1.831 -1.3033  2.1806 -2.0958
 3215SOL    HW226788   1.299   1.665   1.959  0.8576 -1.5669  0.0967
 3216SOL     OW26789   1.677   0.821   0.353 -0.3297  0.3828  0.6680
 3216SOL    HW126790   1.765   0.794   0.379 -0.2223  0.3540  0.2884
 3216SOL    HW226791   1.629   0.832   0.435  0.1573  0.8417  0.8945
 3217SOL     OW26792   0.714   0.576   5.975  0.3604  0.0092 -0.2028
 3217SOL    HW126793   0.781   0.514   6.004  0.4011 -1.1912 -2.5688
 3217SOL    HW226794   0.651   0.523   5.926 -0.2336  1.6658 -1.3519
 3218SOL     OW26795   4.940   5.819   7.323 -0.1650  0.4541 -0.0095
 3218SOL    HW126796   4.961   5.778   7.239 -0.9224 -0.0997  0.0645
 3218SOL    HW226797   5.025   5.836   7.363  0.2147  0.9305 -0.9783
 3219SOL     OW26798   1.889   1.785   1.828 -0.4039  0.2324 -0.0051
 3219SOL    HW126799   1.954   1.718   1.808 -1.6798 -1.3312  0.7914
 3219SOL    HW226800   1.933   1.868   1.811  1.6235 -0.7728  0.0589
 3220SOL     OW26801   4.043   5.561   6.279  0.1350 -0.2497 -0.6173
 3220SOL    HW126802   4.040   5.583   6.372 -1.2366  1.1803 -0.9650
 3220SOL    HW226803   4.132   5.582   6.253  0.2649  0.2351  0.1671
 3221SOL     OW26804   4.798   5.446   2.106 -0.2606  0.2556 -0.0605
 3221SOL    HW126805   4.890   5.426   2.121 -0.0425  2.1841  1.7991
 3221SOL    HW226806   4.789   5.451   2.011  1.0464 -1.9160 -0.3467
 3222SOL     OW26807   4.710   2.993   0.410  0.3743 -0.4868  0.2074
 3222SOL    HW126808   4.620   2.979   0.380  0.3930 -0.0422 -0.0668
 3222SOL    HW226809   4.758   2.915   0.381 -0.5812 -2.3752  3.2003
 3223SOL     OW26810   2.407   0.604   7.371  0.1845 -0.0793  0.3159
 3223SOL    HW126811   2.502   0.604   7.356  0.1483 -3.6032 -0.8971
 3223SOL    HW226812   2.370   0.561   7.294 -2.1461 -0.9757  1.8044
 3224SOL     OW26813   1.925   2.481   7.072 -0.1233 -0.4374 -0.9590
 3224SOL    HW126814   1.976   2.555   7.105  0.9878 -0.2415 -2.9223
 3224SOL    HW226815   1.834   2.508   7.082  0.1897  0.1713  0.5315
 3225SOL     OW26816   3.811   5.233   5.178  0.2419 -0.3348  0.7727
 3225SOL    HW126817   3.864   5.210   5.101 -0.6657 -1.0702  0.3361
 3225SOL    HW226818   3.804   5.151   5.227 -0.2564 -0.1779  0.9697
 3226SOL     OW26819   1.509   2.628   0.629  0.1661 -0.3619 -0.5804
 3226SOL    HW126820   1.474   2.663   0.712  1.1143 -0.8684  0.0505
 3226SOL    HW226821   1.573   2.693   0.601  0.7354 -0.7732 -0.2625
 3227SOL     OW26822   6.550   4.534   6.405 -0.2951 -0.6625  0.6831
 3227SOL    HW126823   6.632   4.489   6.422 -0.2278 -0.6237  0.4652
 3227SOL    HW226824   6.505   4.480   6.340  0.1685  0.0189 -0.2278
 3228SOL     OW26825   4.701   5.319   5.033  0.0694 -0.2327  0.1331
 3228SOL    HW126826   4.611   5.351   5.037  0.2188  0.4351 -1.1496
 3228SOL    HW226827   4.754   5.394   5.061  0.3219  0.1412 -1.2354
 3229SOL     OW26828   6.186   5.109   1.342 -0.5047  0.0227  0.3638
 3229SOL    HW126829   6.128   5.139   1.412  0.0956  2.7559 -0.1937
 3229SOL    HW226830   6.274   5.118   1.378 -0.2675 -0.4843 -0.0757
 3230SOL     OW26831   6.210   1.665   7.456  0.2771  0.4574  0.5418
 3230SOL    HW126832   6.285   1.716   7.486 -0.0785  1.2269  0.1477
 3230SOL    HW226833   6.223   1.579   7.495  2.0937  0.1470 -0.6357
 3231SOL     OW26834   4.812   3.971   6.607  1.0766  0.5760  0.0977
 3231SOL    HW126835   4.905   3.976   6.586  1.7031 -0.0036  2.4067
 3231SOL    HW226836   4.773   3.923   6.534  2.6554  0.4492 -0.7050
 3232SOL     OW26837   0.498   5.485   6.991  0.1999 -0.7238 -0.4891
 3232SOL    HW126838   0.561   5.554   6.973  0.8774 -1.5164 -1.2559
 3232SOL    HW226839   0.451   5.515   7.069  1.4436 -0.0733  0.0419
 3233SOL     OW26840   5.669   2.209   6.922  0.1475  0.0375  0.1347
 3233SOL    HW126841   5.658   2.256   7.004  2.3635  1.1450 -0.1369
 3233SOL    HW226842   5.599   2.144   6.922 -1.3484  1.5567  1.7781
 3234SOL     OW26843   5.101   2.713   6.550  0.2962 -0.1446 -0.4796
 3234SOL    HW126844   5.010   2.688   6.568 -0.1973  1.4480 -0.6188
 3234SOL    HW226845   5.102   2.808   6.562  1.4455  0.1561 -2.6031
 3235SOL     OW26846   3.241   2.770   5.812 -0.0089 -0.1791  0.6321
 3235SOL    HW126847   3.219   2.703   5.748 -0.7451 -1.9484  2.6315
 3235SOL    HW226848   3.205   2.851   5.775  0.0009 -1.0361 -1.3660
 3236SOL     OW26849   1.923   6.521   0.979  0.5110 -0.5220 -0.2601
 3236SOL    HW126850   1.982   6.596   0.981  2.1306 -1.7088  2.3737
 3236SOL    HW226851   1.981   6.444   0.980 -1.0966 -1.8473 -1.4902
 3237SOL     OW26852   6.215   2.259   0.755  0.1511 -0.9288 -0.1656
 3237SOL    HW126853   6.244   2.333   0.702  2.3421 -0.8539  1.0213
 3237SOL    HW226854   6.165   2.298   0.826  0.1778 -0.7009 -0.2708
 3238SOL     OW26855   2.086   5.317   0.121  0.5065  0.2025 -0.2909
 3238SOL    HW126856   2.124   5.240   0.080 -0.4256 -0.7302  0.5661
 3238SOL    HW226857   2.107   5.389   0.061  1.0607 -0.7693 -1.2854
 3239SOL     OW26858   5.927   0.210   6.694 -0.1947  0.1278  0.0608
 3239SOL    HW126859   5.869   0.149   6.741 -1.0150  1.0342  0.2646
 3239SOL    HW226860   5.981   0.154   6.639 -0.2176 -0.8594  1.0018
 3240SOL     OW26861   4.610   5.391   2.330  0.3312 -0.5821  0.2892
 3240SOL    HW126862   4.663   5.436   2.264  0.2603  1.9510  1.8390
 3240SOL    HW226863   4.628   5.298   2.316  0.7662 -0.1234 -2.8762
 3241SOL     OW26864   5.826   1.796   0.524  0.2260  0.3075 -0.0922
 3241SOL    HW126865   5.868   1.868   0.570 -1.0692  1.0446 -0.0031
 3241SOL    HW226866   5.897   1.737   0.500  1.0665  0.5058  1.7894
 3242SOL     OW26867   2.154   2.048   6.438  0.2359 -0.0262 -0.0736
 3242SOL    HW126868   2.206   2.065   6.517  1.2522  1.0842 -0.9407
 3242SOL    HW226869   2.136   2.135   6.402 -0.7244 -0.4899 -0.7493
 3243SOL     OW26870   5.651   5.570   0.400 -0.1040  0.3305  0.7217
 3243SOL    HW126871   5.656   5.664   0.379 -0.4168  0.3488  0.7266
 3243SOL    HW226872   5.583   5.536   0.342  0.0560  0.0908  0.6718
 3244SOL     OW26873   6.015   0.915   2.353  0.4922 -0.2498 -0.0747
 3244SOL    HW126874   6.047   0.961   2.275 -0.2560 -0.5543 -0.5789
 3244SOL    HW226875   6.006   0.824   2.325  1.8045 -0.7046  0.8647
 3245SOL     OW26876   3.617   6.439   5.409  0.1084 -0.1080  0.1330
 3245SOL    HW126877   3.681   6.416   5.476 -1.9721 -0.3807  2.1647
 3245SOL    HW226878   3.649   6.397   5.329  1.5149 -1.7232  1.4707
 3246SOL     OW26879   0.588   6.530   0.808 -0.3032 -0.0527 -0.9016
 3246SOL    HW126880   0.630   6.610   0.777 -1.6886  0.3426 -1.8430
 3246SOL    HW226881   0.547   6.555   0.890  0.3253 -0.1456 -0.5516
 3247SOL     OW26882   2.165   4.783   6.280 -1.0320 -0.9635  0.0339
 3247SOL    HW126883   2.243   4.835   6.300 -1.7173 -0.6067  2.0293
 3247SOL    HW226884   2.151   4.729   6.358 -3.1046 -0.5709  0.0002
 3248SOL     OW26885   3.508   1.409   6.143  0.5494 -0.2840  0.1348
 3248SOL    HW126886   3.556   1.336   6.182  0.0686  0.0063  1.3235
 3248SOL    HW226887   3.452   1.368   6.077  1.2812 -0.8081 -0.1810
 3249SOL     OW26888   1.576   1.845   0.627 -0.4332  0.3671  0.2842
 3249SOL    HW126889   1.628   1.766   0.610 -1.3479 -0.3742  0.8794
 3249SOL    HW226890   1.616   1.912   0.571 -0.2753 -0.7702 -1.0044
 3250SOL     OW26891   1.448   1.989   0.851  0.4364 -0.1870  0.3196
 3250SOL    HW126892   1.488   1.934   0.784 -0.7651 -2.0486  1.0531
 3250SOL    HW226893   1.356   1.995   0.826  0.6854  2.2394 -0.1852
 3251SOL     OW26894   3.929   2.449   0.368  0.2357  0.5028  0.4803
 3251SOL    HW126895   3.975   2.371   0.334  0.2969 -0.7471  3.1580
 3251SOL    HW226896   3.836   2.428   0.360  0.1531  1.3756 -1.3127
 3252SOL     OW26897   1.683   2.716   6.271 -0.0031  0.0118  0.4929
 3252SOL    HW126898   1.621   2.708   6.344  0.2887 -0.2121  0.7208
 3252SOL    HW226899   1.723   2.803   6.283  0.7570 -0.4114  1.1824
 3253SOL     OW26900   0.387   3.836   6.023 -0.7171 -0.3651  0.3094
 3253SOL    HW126901   0.296   3.831   5.993 -1.1369 -0.5200  1.5407
 3253SOL    HW226902   0.409   3.929   6.018 -0.3847 -0.5171 -1.5236
 3254SOL     OW26903   3.926   0.879   1.248  0.2639 -0.0471  0.1772
 3254SOL    HW126904   3.904   0.860   1.339  0.4322  0.9898  0.4489
 3254SOL    HW226905   3.967   0.799   1.216 -0.1517 -0.5589  0.8945
 3255SOL     OW26906   2.136   0.772   0.898 -0.0330  0.0778 -0.6533
 3255SOL    HW126907   2.061   0.761   0.840  0.2864  1.8118 -1.4688
 3255SOL    HW226908   2.141   0.866   0.914  0.9447 -0.1797  0.7989
 3256SOL     OW26909   4.572   3.978   7.131  0.2059 -0.1431 -0.4503
 3256SOL    HW126910   4.611   3.946   7.049  0.7127  2.9182 -1.5438
 3256SOL    HW226911   4.586   3.907   7.193  1.4703 -1.8688 -2.5522
 3257SOL     OW26912   3.083   3.614   2.162  0.0580 -0.1777 -0.3880
 3257SOL    HW126913   3.038   3.601   2.078 -0.5252 -0.4633 -0.0388
 3257SOL    HW226914   3.169   3.647   2.138 -0.9006  2.0400 -1.0122
 3258SOL     OW26915   1.459   5.532   1.211  0.1405  0.1427  0.0736
 3258SOL    HW126916   1.485   5.480   1.134  0.1994 -0.0602  0.2269
 3258SOL    HW226917   1.441   5.619   1.177  1.9724  0.5624  0.0800
 3259SOL     OW26918   5.232   3.704   6.963  0.0010 -0.3978 -0.3120
 3259SOL    HW126919   5.197   3.666   6.882  2.0075  0.1562 -1.4905
 3259SOL    HW226920   5.172   3.776   6.984 -1.9922 -2.0614  0.1745
 3260SOL     OW26921   5.634   0.507   1.016  0.1183  0.2357  0.3385
 3260SOL    HW126922   5.560   0.563   0.994  0.2208  0.8742  1.5380
 3260SOL    HW226923   5.701   0.567   1.050  0.6097 -0.4922  0.6988
 3261SOL     OW26924   0.120   4.766   7.131 -0.9926  0.3776  0.8509
 3261SOL    HW126925   0.086   4.782   7.219 -2.0788 -0.0285  0.5167
 3261SOL    HW226926   0.208   4.805   7.132 -0.8828  0.1384  2.1859
 3262SOL     OW26927   5.143   3.466   6.337 -0.1228 -0.0521 -0.2281
 3262SOL    HW126928   5.133   3.559   6.354  1.1967  0.0838 -0.1201
 3262SOL    HW226929   5.235   3.455   6.316  0.1489 -1.6056  1.5330
 3263SOL     OW26930   0.157   0.352   2.717 -0.1641 -0.1877 -0.6640
 3263SOL    HW126931   0.108   0.434   2.716  0.0522 -0.0639 -1.7025
 3263SOL    HW226932   0.091   0.286   2.741 -0.7382  0.0570 -1.5050
 3264SOL     OW26933   0.318   1.072   1.122 -0.0007 -0.0748 -0.3831
 3264SOL    HW126934   0.292   1.086   1.031 -2.2432 -2.0980 -0.1446
 3264SOL    HW226935   0.392   1.011   1.117 -0.5916 -0.7613 -0.8422
 3265SOL     OW26936   2.376   5.222   7.359 -0.8257  0.3359 -0.5989
 3265SOL    HW126937   2.428   5.165   7.302 -1.1355 -0.3015 -0.2473
 3265SOL    HW226938   2.336   5.163   7.422  1.0217  1.2009  1.5120
 3266SOL     OW26939   2.611   0.058   7.011  0.4223  0.1765  0.2365
 3266SOL    HW126940   2.646   0.140   7.046 -0.1254  0.7326 -0.4757
 3266SOL    HW226941   2.546   0.086   6.946  1.9054 -0.7946 -1.7725
 3267SOL     OW26942   4.986   4.451   6.414 -0.0862 -0.1921 -0.1817
 3267SOL    HW126943   4.898   4.414   6.419 -0.2698  0.3509  1.0986
 3267SOL    HW226944   4.980   4.519   6.348 -0.7343  0.0845  0.1522
 3268SOL     OW26945   1.756   0.389   6.783 -0.5811 -0.3262 -0.1238
 3268SOL    HW126946   1.696   0.314   6.774 -0.4942 -0.4580  0.3345
 3268SOL    HW226947   1.741   0.442   6.705  0.4270 -1.5737 -1.2138
 3269SOL     OW26948   4.611   1.674   6.082 -0.3668  0.4261  0.8620
 3269SOL    HW126949   4.557   1.738   6.036 -1.2574 -0.0896  1.1565
 3269SOL    HW226950   4.691   1.669   6.031 -1.6438 -0.7653 -1.1783
 3270SOL     OW26951   2.887   0.418   0.367  0.2741 -0.1586  0.2388
 3270SOL    HW126952   2.898   0.323   0.364 -1.5832 -0.4895  1.6546
 3270SOL    HW226953   2.803   0.434   0.323  0.8369  0.9112 -0.4899
 3271SOL     OW26954   5.228   2.661   0.310  0.2853  0.0686  0.1570
 3271SOL    HW126955   5.248   2.727   0.244  1.3269 -0.0989  0.2754
 3271SOL    HW226956   5.314   2.631   0.341 -0.1511 -1.2862  0.1605
 3272SOL     OW26957   4.381   4.470   6.389  0.1501 -0.2702  0.8555
 3272SOL    HW126958   4.349   4.533   6.453  0.2006 -0.4907  1.1039
 3272SOL    HW226959   4.369   4.512   6.304  0.8366  0.3550  1.0583
 3273SOL     OW26960   1.503   1.188   2.331 -0.1033 -0.4577 -0.8399
 3273SOL    HW126961   1.489   1.131   2.407 -1.2608  1.2387  0.3174
 3273SOL    HW226962   1.571   1.249   2.360  0.1128 -0.3687 -1.5219
 3274SOL     OW26963   5.466   6.169   6.066  0.7345 -0.4479  0.1676
 3274SOL    HW126964   5.480   6.148   5.973  0.3214 -1.6565  0.3617
 3274SOL    HW226965   5.554   6.177   6.102  0.9811  2.4612 -0.7965
 3275SOL     OW26966   5.605   3.660   6.744 -0.0014 -0.6271 -0.6798
 3275SOL    HW126967   5.528   3.664   6.687 -0.5939  1.1200  0.1594
 3275SOL    HW226968   5.570   3.636   6.830  0.6398 -1.5261 -0.6590
 3276SOL     OW26969   0.343   4.050   1.997 -0.3559 -0.4981 -0.1361
 3276SOL    HW126970   0.360   3.961   1.967 -0.6620 -0.0296 -1.7983
 3276SOL    HW226971   0.322   4.098   1.918 -0.5239  0.9908  0.7782
 3277SOL     OW26972   5.884   3.339   7.445  0.2072 -0.5780  0.0341
 3277SOL    HW126973   5.912   3.361   7.534  0.4842 -0.8341  0.0149
 3277SOL    HW226974   5.790   3.353   7.445  0.2773 -0.0961  0.2267
 3278SOL     OW26975   4.725   3.922   5.216 -0.5124  0.4577  0.7075
 3278SOL    HW126976   4.638   3.961   5.212 -0.0532  1.5467  1.1337
 3278SOL    HW226977   4.708   3.828   5.220 -1.6699  0.6553  0.9091
 3279SOL     OW26978   2.695   0.657   7.412 -0.2666  0.6242  0.5022
 3279SOL    HW126979   2.754   0.635   7.485  1.8280  0.8370 -1.0158
 3279SOL    HW226980   2.727   0.603   7.339 -2.7163 -0.0859 -0.1192
 3280SOL     OW26981   4.807   6.555   1.667  0.1233 -0.4858  0.6496
 3280SOL    HW126982   4.717   6.549   1.635 -0.1250  1.9745  0.6879
 3280SOL    HW226983   4.860   6.524   1.594 -0.6683  0.3491 -0.3103
 3281SOL     OW26984   4.204   5.031   5.482  0.0529 -0.0310  0.1654
 3281SOL    HW126985   4.166   4.944   5.478  0.3891 -0.4350  3.2780
 3281SOL    HW226986   4.292   5.021   5.446  0.4140 -1.2084  1.3438
 3282SOL     OW26987   0.266   3.900   6.952 -0.0814 -0.3306  0.5565
 3282SOL    HW126988   0.259   3.885   6.858  0.9140 -1.3398  0.6234
 3282SOL    HW226989   0.360   3.901   6.969 -0.2530 -1.1272  1.6817
 3283SOL     OW26990   3.376   4.349   0.065  0.0463  0.3177  0.3881
 3283SOL    HW126991   3.398   4.370   0.155 -0.6956 -0.3189  0.7318
 3283SOL    HW226992   3.397   4.428   0.015 -0.3739  0.9865  1.2539
 3284SOL     OW26993   4.269   6.558   1.141 -1.1163  0.1918 -0.1440
 3284SOL    HW126994   4.174   6.556   1.144 -1.1160  0.4771  0.1570
 3284SOL    HW226995   4.296   6.562   1.233 -0.7220 -3.0800  0.0151
 3285SOL     OW26996   3.691   1.151   5.899 -0.4382 -0.1176  0.4219
 3285SOL    HW126997   3.603   1.189   5.894 -0.2670  0.1161 -1.9621
 3285SOL    HW226998   3.732   1.194   5.974 -1.1904  2.4436 -0.5411
 3286SOL     OW26999   0.673   1.595   6.832 -0.2481  0.0596  0.1858
 3286SOL    HW127000   0.623   1.590   6.751 -0.9513  0.1333  0.6054
 3286SOL    HW227001   0.617   1.644   6.892 -0.8616 -2.0588  1.4879
 3287SOL     OW27002   6.560   6.469   0.361 -0.1930 -0.1431 -0.3907
 3287SOL    HW127003   6.656   6.468   0.357 -0.0524  0.2006  1.8365
 3287SOL    HW227004   6.534   6.548   0.314  0.6358 -0.0582 -0.7147
 3288SOL     OW27005   0.141   3.082   5.727 -0.0659  0.1016  0.1931
 3288SOL    HW127006   0.071   3.026   5.693 -0.1815  1.3549 -1.7688
 3288SOL    HW227007   0.216   3.024   5.737 -1.3607 -1.3378  2.6017
 3289SOL     OW27008   5.013   0.938   7.313  0.0647  0.2403 -0.4165
 3289SOL    HW127009   4.976   0.908   7.230  1.9536 -2.1530 -0.5100
 3289SOL    HW227010   4.978   0.876   7.378 -1.3665  2.0615  0.6655
 3290SOL     OW27011   3.866   4.006   1.433 -0.1946  0.4847  0.0428
 3290SOL    HW127012   3.900   4.079   1.381  0.0146 -0.4728 -1.2346
 3290SOL    HW227013   3.929   3.935   1.419 -1.4862 -0.6096 -0.5067
 3291SOL     OW27014   6.048   1.127   5.938  0.0701  0.3850  0.1180
 3291SOL    HW127015   6.016   1.182   5.866 -0.2606 -1.6105 -1.3569
 3291SOL    HW227016   5.972   1.117   5.995 -0.8490 -1.0428 -1.2679
 3292SOL     OW27017   3.167   1.026   2.287  0.5349 -0.0169  0.3656
 3292SOL    HW127018   3.140   1.029   2.195  3.9211  0.3546 -0.7722
 3292SOL    HW227019   3.154   1.115   2.318 -2.5705 -0.5892  0.9995
 3293SOL     OW27020   6.197   0.743   6.214 -0.0806  0.5243 -0.1942
 3293SOL    HW127021   6.285   0.709   6.231 -0.5960 -0.4704  0.5690
 3293SOL    HW227022   6.201   0.835   6.241  0.5636  0.3289  0.3820
 3294SOL     OW27023   4.733   1.092   0.582 -0.0266  0.3299 -0.1987
 3294SOL    HW127024   4.772   1.168   0.539  0.5221  0.4407  0.4716
 3294SOL    HW227025   4.687   1.129   0.657 -1.5753  0.2169 -1.0604
 3295SOL     OW27026   2.381   4.538   0.878  0.2753 -0.1841 -0.7712
 3295SOL    HW127027   2.404   4.573   0.791  1.4835 -1.5793 -1.0481
 3295SOL    HW227028   2.465   4.513   0.916 -0.4936 -2.6427 -0.5436
 3296SOL     OW27029   3.374   5.989   0.003  0.2321  0.2248 -0.0079
 3296SOL    HW127030   3.430   5.997   0.080  0.1545  0.0430  0.0704
 3296SOL    HW227031   3.316   5.915   0.024  1.2065 -0.8242 -0.8571
 3297SOL     OW27032   6.384   1.162   5.485  0.6361  0.2777  0.1213
 3297SOL    HW127033   6.463   1.111   5.504  1.3523  1.0770 -0.6386
 3297SOL    HW227034   6.414   1.252   5.481 -0.2864  0.5696 -0.4179
 3298SOL     OW27035   4.021   1.887   1.079  0.6514  0.6630 -0.2285
 3298SOL    HW127036   4.054   1.974   1.101 -0.2422  0.3061  3.0839
 3298SOL    HW227037   4.096   1.841   1.043  1.7853  2.1041  0.1977
 3299SOL     OW27038   5.056   5.105   0.930 -0.3171 -0.6206  0.3564
 3299SOL    HW127039   5.049   5.097   0.835 -0.3647  1.4901  0.1219
 3299SOL    HW227040   5.140   5.148   0.944 -0.9855  0.4840  1.1357
 3300SOL     OW27041   2.835   3.045   5.455 -0.2386  0.2391  0.6164
 3300SOL    HW127042   2.909   2.986   5.470 -0.3758  0.2434  1.3912
 3300SOL    HW227043   2.820   3.042   5.361 -0.7854 -1.6302  0.7215
 3301SOL     OW27044   4.270   0.855   7.474  0.3803  0.2575  0.1885
 3301SOL    HW127045   4.227   0.775   7.505  1.4038  0.3048  1.8763
 3301SOL    HW227046   4.332   0.825   7.407 -0.1573 -0.1806 -0.1196
 3302SOL     OW27047   3.250   1.203   5.538  0.7400 -0.0001 -0.0205
 3302SOL    HW127048   3.157   1.213   5.517  0.9646  0.1620 -0.9781
 3302SOL    HW227049   3.291   1.183   5.454  1.5998  0.1269  0.3675
 3303SOL     OW27050   4.821   5.733   6.625 -0.1309  0.2698 -0.7367
 3303SOL    HW127051   4.788   5.675   6.557  1.8607 -0.7993 -0.8709
 3303SOL    HW227052   4.873   5.799   6.577  1.8132 -0.8572 -0.3008
 3304SOL     OW27053   2.422   2.436   1.029 -0.6487 -0.6035 -0.0300
 3304SOL    HW127054   2.386   2.501   0.968  0.8342 -0.4078 -0.7495
 3304SOL    HW227055   2.504   2.474   1.058 -1.4896 -0.5308  2.4523
 3305SOL     OW27056   2.869   3.869   0.314 -0.3082 -0.8656 -0.1210
 3305SOL    HW127057   2.907   3.908   0.235  1.9019 -2.8377 -0.1242
 3305SOL    HW227058   2.915   3.913   0.386  1.6696 -2.7809 -0.1138
 3306SOL     OW27059   3.830   2.871   7.163  0.9220 -0.4727  0.3841
 3306SOL    HW127060   3.876   2.790   7.182 -1.0084 -1.4301  1.2703
 3306SOL    HW227061   3.873   2.937   7.218  2.8606 -0.7322 -0.7547
 3307SOL     OW27062   3.225   6.581   5.672  0.5291 -0.7146  0.1728
 3307SOL    HW127063   3.218   6.650   5.738 -1.5105 -0.7433  0.0402
 3307SOL    HW227064   3.310   6.540   5.690  0.9092  0.5470  1.4957
 3308SOL     OW27065   5.497   1.917   0.376  0.2984  0.1188  0.0989
 3308SOL    HW127066   5.574   1.972   0.392 -0.0395  0.1325  1.8466
 3308SOL    HW227067   5.501   1.849   0.443 -1.4899  0.4478  0.5961
 3309SOL     OW27068   2.866   3.361   6.699 -0.0778  0.2589 -0.0359
 3309SOL    HW127069   2.932   3.301   6.732 -0.7668  0.3347  1.5733
 3309SOL    HW227070   2.786   3.309   6.693 -0.2136  0.5179 -0.5991
 3310SOL     OW27071   3.032   3.997   0.605 -0.7800  0.3369  0.1626
 3310SOL    HW127072   2.957   4.049   0.634 -0.7282  1.4616 -1.5534
 3310SOL    HW227073   3.104   4.060   0.599 -0.7760  0.2238 -2.2280
 3311SOL     OW27074   3.648   0.799   6.657  0.6178 -0.4154  0.1799
 3311SOL    HW127075   3.626   0.838   6.572 -1.0293 -0.0847  0.7220
 3311SOL    HW227076   3.603   0.714   6.656  0.8927 -0.5674  0.5837
 3312SOL     OW27077   2.100   5.711   1.241  0.1653 -0.0776 -0.0589
 3312SOL    HW127078   2.072   5.689   1.330 -1.5225 -0.4535 -0.6477
 3312SOL    HW227079   2.192   5.685   1.238 -0.2997 -2.0287  0.9475
 3313SOL     OW27080   2.209   1.237   0.293 -0.9379  0.2389 -0.4454
 3313SOL    HW127081   2.267   1.304   0.257  0.3110 -1.1634 -1.1700
 3313SOL    HW227082   2.256   1.155   0.279 -3.0289 -0.9566 -0.9068
 3314SOL     OW27083   5.038   1.986   6.451 -0.0322  0.2509  0.2169
 3314SOL    HW127084   4.962   1.964   6.398 -0.5332  0.5696  0.7906
 3314SOL    HW227085   5.113   1.972   6.393 -0.4549 -1.0307 -0.0395
 3315SOL     OW27086   0.564   2.147   1.394 -0.1879  0.6610 -0.6783
 3315SOL    HW127087   0.480   2.117   1.359 -0.2651 -0.0531  0.0821
 3315SOL    HW227088   0.629   2.112   1.333 -0.4235  1.0558 -1.1661
 3316SOL     OW27089   5.563   5.256   1.689 -0.5768  0.7097 -0.4254
 3316SOL    HW127090   5.559   5.254   1.594  1.8002 -2.5599 -0.6223
 3316SOL    HW227091   5.647   5.215   1.711 -1.7170 -0.1620  3.0869
 3317SOL     OW27092   6.009   1.116   7.175 -0.3921 -0.3657  0.5065
 3317SOL    HW127093   6.065   1.123   7.097 -0.5372  1.1107  0.5070
 3317SOL    HW227094   5.920   1.109   7.140 -0.4458  0.1617  0.5399
 3318SOL     OW27095   0.384   5.252   0.674 -0.0759 -0.4710  0.5352
 3318SOL    HW127096   0.438   5.196   0.619  0.0473  1.5860 -1.6231
 3318SOL    HW227097   0.397   5.220   0.763  0.7625 -3.1327 -0.4736
 3319SOL     OW27098   2.439   5.642   5.323 -0.5592 -0.0379  0.4501
 3319SOL    HW127099   2.358   5.633   5.273 -0.0956 -0.0379 -0.3220
 3319SOL    HW227100   2.473   5.553   5.330  0.0984  0.1250 -0.4826
 3320SOL     OW27101   5.604   4.141   5.707  0.0249  0.2942 -0.5570
 3320SOL    HW127102   5.673   4.182   5.656  0.8556 -0.2654  0.0909
 3320SOL    HW227103   5.572   4.070   5.652  0.5103  0.0568 -0.5287
 3321SOL     OW27104   2.684   1.177   0.980  0.1990 -0.3501  0.0913
 3321SOL    HW127105   2.656   1.089   0.953 -0.9882  0.1816 -0.4976
 3321SOL    HW227106   2.749   1.161   1.048 -0.6758 -1.6840  0.6780
 3322SOL     OW27107   5.238   3.310   6.785  0.4868  0.2032 -1.2280
 3322SOL    HW127108   5.275   3.375   6.846 -0.8859 -1.7334  1.9465
 3322SOL    HW227109   5.298   3.235   6.791 -0.1449 -0.3394 -1.5962
 3323SOL     OW27110   6.092   4.401   5.841 -0.0138 -0.4534  0.9360
 3323SOL    HW127111   6.083   4.491   5.874 -2.2605 -0.3434  0.1787
 3323SOL    HW227112   6.050   4.347   5.908 -1.0447 -0.6407  0.1519
 3324SOL     OW27113   3.316   2.578   6.245  0.1222  0.1697  0.5961
 3324SOL    HW127114   3.230   2.599   6.281 -0.1818 -0.7266  0.4409
 3324SOL    HW227115   3.341   2.497   6.289 -0.1511 -0.8294 -0.9715
 3325SOL     OW27116   5.995   5.393   6.070  0.0449 -0.5725 -0.5787
 3325SOL    HW127117   6.079   5.411   6.027 -0.1288  0.0787 -0.6706
 3325SOL    HW227118   5.965   5.312   6.031  0.9350 -1.1580 -0.0767
 3326SOL     OW27119   2.269   3.149   0.627  0.3194  0.5632 -0.0890
 3326SOL    HW127120   2.361   3.151   0.603  0.3771  0.2372  0.1028
 3326SOL    HW227121   2.231   3.083   0.569 -0.0491  1.5756 -1.0456
 3327SOL     OW27122   1.168   1.898   0.800  0.3715  0.3508  0.2026
 3327SOL    HW127123   1.138   1.893   0.891 -0.3345 -1.1784 -0.0733
 3327SOL    HW227124   1.142   1.985   0.770  0.1048  0.6551  1.2826
 3328SOL     OW27125   1.266   4.965   5.216  0.1481 -0.1153  0.4171
 3328SOL    HW127126   1.298   5.025   5.283  0.1451 -0.5219  0.7877
 3328SOL    HW227127   1.174   4.953   5.238  0.0771 -0.0283  0.1686
 3329SOL     OW27128   6.260   4.618   0.132  0.3780 -0.3910  0.2987
 3329SOL    HW127129   6.294   4.548   0.076  0.9706  0.3142 -0.2356
 3329SOL    HW227130   6.304   4.697   0.102 -1.0623  0.4130  0.1732
 3330SOL     OW27131   0.221   6.158   1.029 -0.1178 -0.6293 -0.4304
 3330SOL    HW127132   0.290   6.131   1.088  0.4561  0.1937 -0.7059
 3330SOL    HW227133   0.223   6.254   1.031  0.9895 -0.5046 -2.9551
 3331SOL     OW27134   0.601   5.775   6.950 -0.1875 -0.8038 -0.1543
 3331SOL    HW127135   0.662   5.732   6.890  1.9586  1.2186  0.4553
 3331SOL    HW227136   0.605   5.868   6.927 -3.6385 -0.6001 -0.5309
 3332SOL     OW27137   6.501   0.643   0.412 -0.4442 -0.5646 -0.1958
 3332SOL    HW127138   6.435   0.576   0.392 -1.7565  0.4892  0.4024
 3332SOL    HW227139   6.583   0.606   0.381 -0.7638 -3.3166  1.9244
 3333SOL     OW27140   0.333   3.032   5.459  0.1009 -1.0943 -0.8368
 3333SOL    HW127141   0.346   3.000   5.549 -1.9106  2.0273  0.7308
 3333SOL    HW227142   0.417   3.072   5.436  0.0275 -0.0340  0.5707
 3334SOL     OW27143   2.626   5.398   7.398  0.0903 -0.1809 -0.1386
 3334SOL    HW127144   2.665   5.458   7.334  0.1004 -1.1556 -1.0659
 3334SOL    HW227145   2.567   5.343   7.347 -1.3451  0.2379  0.9991
 3335SOL     OW27146   5.425   1.843   0.751  0.2041 -0.1550 -0.4717
 3335SOL    HW127147   5.342   1.799   0.768  0.2637 -0.8730 -1.8871
 3335SOL    HW227148   5.479   1.778   0.705  1.4899  0.3593  0.2413
 3336SOL     OW27149   5.635   4.409   6.961 -0.1322  0.3015 -0.0514
 3336SOL    HW127150   5.620   4.490   6.913 -0.6682  0.3681  0.2246
 3336SOL    HW227151   5.564   4.404   7.024 -0.2694 -0.5313 -0.2532
 3337SOL     OW27152   3.066   1.136   7.139  0.2355  0.1756 -0.5229
 3337SOL    HW127153   2.973   1.129   7.118  0.2285  1.6971 -1.1422
 3337SOL    HW227154   3.070   1.194   7.215  0.7052  0.5453 -0.8216
 3338SOL     OW27155   2.379   5.248   6.920  0.4752  0.2539 -0.1196
 3338SOL    HW127156   2.411   5.329   6.960 -3.1826  0.9881  1.8630
 3338SOL    HW227157   2.379   5.184   6.992  2.6336 -1.3895 -1.4770
 3339SOL     OW27158   2.458   6.442   6.540 -0.3036 -0.6286 -1.0550
 3339SOL    HW127159   2.368   6.474   6.537 -0.2598 -0.5092 -3.7830
 3339SOL    HW227160   2.451   6.349   6.520  0.1018 -0.9254  0.1112
 3340SOL     OW27161   0.972   1.491   1.605 -0.4009 -0.1320  0.1971
 3340SOL    HW127162   0.879   1.477   1.623 -1.3884  1.8012 -2.6952
 3340SOL    HW227163   0.998   1.414   1.555 -0.3704 -0.7704  1.1769
 3341SOL     OW27164   2.543   6.060   4.802 -0.3407  0.1838  0.4016
 3341SOL    HW127165   2.594   6.137   4.777  1.8614 -1.5777 -0.9231
 3341SOL    HW227166   2.470   6.059   4.740 -1.9870  2.5820  2.1397
 3342SOL     OW27167   4.030   3.722   1.334  0.8277 -0.7016  0.8608
 3342SOL    HW127168   4.056   3.693   1.247  1.7071 -1.0524  1.2343
 3342SOL    HW227169   3.940   3.690   1.343  1.1131 -1.6575  0.5185
 3343SOL     OW27170   3.226   6.015   7.262  0.1211  0.1693 -0.0948
 3343SOL    HW127171   3.245   5.922   7.251  0.5276  0.1802  0.4467
 3343SOL    HW227172   3.290   6.045   7.327  2.0068  1.5167 -2.4266
 3344SOL     OW27173   5.775   0.429   6.843 -0.2141  0.0348  0.2927
 3344SOL    HW127174   5.787   0.357   6.781 -1.2688  0.2505 -0.1847
 3344SOL    HW227175   5.841   0.493   6.817  0.6957 -0.7270  0.6899
 3345SOL     OW27176   3.384   4.326   5.133  0.1375 -0.3092 -0.2018
 3345SOL    HW127177   3.307   4.298   5.184 -0.1282 -1.4735 -1.1787
 3345SOL    HW227178   3.457   4.317   5.194 -0.3754 -0.1243  0.4567
 3346SOL     OW27179   2.920   5.238   6.321 -0.4119 -0.0257  0.0611
 3346SOL    HW127180   2.872   5.289   6.256  0.1139 -1.9209 -1.9532
 3346SOL    HW227181   3.002   5.214   6.277  0.0226 -1.3088  1.4708
 3347SOL     OW27182   5.327   1.334   0.016 -0.0320 -0.2073  0.0769
 3347SOL    HW127183   5.300   1.423  -0.004 -0.8969 -1.0171 -2.9192
 3347SOL    HW227184   5.357   1.298  -0.068  0.2590 -2.7277  1.1529
 3348SOL     OW27185   0.610   1.241   0.606 -0.0474  0.1572  0.1439
 3348SOL    HW127186   0.647   1.325   0.632 -0.0771  0.6711 -1.3969
 3348SOL    HW227187   0.638   1.181   0.675  0.3540  1.3258  1.0337
 3349SOL     OW27188   4.122   4.734   0.446 -0.3849  0.7203  0.8302
 3349SOL    HW127189   4.038   4.771   0.473 -0.8100  0.3476  0.0743
 3349SOL    HW227190   4.132   4.761   0.355  0.4278  0.9495  0.9807
 3350SOL     OW27191   1.561   3.134   0.090 -0.0729  0.0291  0.5402
 3350SOL    HW127192   1.624   3.176   0.032  2.2115  2.4451  4.2937
 3350SOL    HW227193   1.594   3.045   0.101  0.0310 -0.1347 -1.0110
 3351SOL     OW27194   5.557   3.953   1.624 -0.0534 -0.0222  0.0516
 3351SOL    HW127195   5.533   3.870   1.666 -0.5479  0.0078 -0.1660
 3351SOL    HW227196   5.639   3.978   1.667  0.7707 -1.2359 -0.7340
 3352SOL     OW27197   5.113   1.287   7.291  0.1895  0.3194  0.5028
 3352SOL    HW127198   5.096   1.199   7.326 -1.0412  0.4745  0.3337
 3352SOL    HW227199   5.204   1.284   7.263 -0.2800 -1.4396 -1.0207
 3353SOL     OW27200   1.667   3.889   0.322 -0.0040 -0.3876 -0.0238
 3353SOL    HW127201   1.598   3.931   0.374  0.0497  0.8523 -0.8942
 3353SOL    HW227202   1.748   3.909   0.370 -0.2195 -1.8612  1.0085
 3354SOL     OW27203   3.280   4.379   4.204 -0.2243 -0.5114  0.0899
 3354SOL    HW127204   3.196   4.363   4.245 -0.5720  0.4169 -0.2367
 3354SOL    HW227205   3.344   4.364   4.273 -0.6528 -1.1683  0.3552
 3355SOL     OW27206   2.201   3.187   5.762  1.1782 -0.3096  0.6243
 3355SOL    HW127207   2.291   3.199   5.791  1.7305  1.4882 -1.5467
 3355SOL    HW227208   2.169   3.275   5.742 -0.5372 -1.0378 -0.1157
 3356SOL     OW27209   1.513   2.910   0.380  0.0968  0.6575 -0.0819
 3356SOL    HW127210   1.579   2.863   0.431 -0.0021 -0.4374 -0.9039
 3356SOL    HW227211   1.561   2.945   0.305 -0.0821  0.6421 -0.2062
 3357SOL     OW27212   0.947   5.423   1.664  0.4543  0.3254  0.1782
 3357SOL    HW127213   1.042   5.413   1.671  0.3775 -0.4932  0.2107
 3357SOL    HW227214   0.927   5.501   1.715  1.0207  0.0335  0.8585
 3358SOL     OW27215   5.555   4.332   2.468 -0.0148  0.3710  0.0643
 3358SOL    HW127216   5.504   4.342   2.387  1.2006  1.9960 -0.5695
 3358SOL    HW227217   5.565   4.422   2.500  1.9045  0.0362  0.4856
 3359SOL     OW27218   1.556   1.117   6.672 -0.2151  0.2646  0.0375
 3359SOL    HW127219   1.599   1.200   6.692  0.1666 -0.0357  0.4924
 3359SOL    HW227220   1.577   1.061   6.747 -0.1120 -0.3780 -0.4663
 3360SOL     OW27221   5.314   5.465   5.814 -0.3749  0.0269  0.2372
 3360SOL    HW127222   5.226   5.500   5.805  0.4818  2.1964 -0.4419
 3360SOL    HW227223   5.334   5.472   5.907 -0.4338  0.8778  0.1951
 3361SOL     OW27224   2.753   4.657   1.139 -0.5731 -0.1662 -0.0620
 3361SOL    HW127225   2.781   4.613   1.219  0.4485  0.9024  0.1905
 3361SOL    HW227226   2.695   4.594   1.096  1.5000 -2.1496 -0.1710
 3362SOL     OW27227   3.620   4.373   1.690  0.5025  0.2801  0.3161
 3362SOL    HW127228   3.524   4.373   1.691  0.3922  2.0175 -1.6486
 3362SOL    HW227229   3.645   4.337   1.774 -1.9112  1.7719  1.8035
 3363SOL     OW27230   3.010   3.361   2.231 -0.0561 -0.3419 -0.4683
 3363SOL    HW127231   3.017   3.455   2.215  0.3932 -0.5845 -1.8259
 3363SOL    HW227232   3.028   3.351   2.324 -0.5636  0.9578 -0.2070
 3364SOL     OW27233   5.350   3.784   5.898 -0.5142 -0.2819 -0.0962
 3364SOL    HW127234   5.428   3.835   5.919 -0.4749 -0.2965 -0.2069
 3364SOL    HW227235   5.381   3.693   5.897 -0.6018 -0.3148  0.1856
 3365SOL     OW27236   4.922   3.325   6.435 -0.0204 -0.7684 -0.1331
 3365SOL    HW127237   5.004   3.362   6.401 -1.6517  1.7574 -1.6155
 3365SOL    HW227238   4.902   3.378   6.512 -0.4003 -1.2431  0.1039
 3366SOL     OW27239   5.230   5.918   6.577 -0.3561  0.2340  0.6054
 3366SOL    HW127240   5.221   5.886   6.666 -1.1164 -3.8964 -0.7332
 3366SOL    HW227241   5.323   5.911   6.557 -0.4807 -1.2369  0.4036
 3367SOL     OW27242   2.752   1.729   2.072 -0.2117 -0.1553  0.1419
 3367SOL    HW127243   2.659   1.734   2.093 -0.1246 -0.2839  0.5551
 3367SOL    HW227244   2.775   1.637   2.081 -0.0617 -0.1363 -0.0342
 3368SOL     OW27245   4.787   1.132   6.539 -0.6382 -0.2702 -0.5193
 3368SOL    HW127246   4.747   1.218   6.538  1.3548  0.7953  1.5955
 3368SOL    HW227247   4.765   1.096   6.625  1.9730 -0.0583  0.3055
 3369SOL     OW27248   2.608   2.582   7.417 -0.0328 -0.0194 -0.2005
 3369SOL    HW127249   2.692   2.536   7.419 -0.2440 -0.3716  1.1350
 3369SOL    HW227250   2.543   2.514   7.435 -0.9706 -0.3853 -3.9539
 3370SOL     OW27251   4.714   2.680   7.325  0.1234  0.5390  0.2071
 3370SOL    HW127252   4.792   2.662   7.377 -0.3318 -1.0538  0.3968
 3370SOL    HW227253   4.747   2.697   7.237  0.6559 -1.6195 -0.0694
 3371SOL     OW27254   3.401   0.783   5.550 -0.8070 -0.2345  0.1924
 3371SOL    HW127255   3.401   0.865   5.599  2.3003 -0.1231  0.2335
 3371SOL    HW227256   3.438   0.719   5.611  2.1622 -0.3221 -1.4855
 3372SOL     OW27257   6.105   0.573   7.345  0.0469  0.1605  0.0507
 3372SOL    HW127258   6.148   0.569   7.430 -1.1905 -0.3465  0.6787
 3372SOL    HW227259   6.087   0.482   7.323 -2.8607  0.4083  0.9892
 3373SOL     OW27260   3.337   2.710   0.007 -0.2993  0.3135  0.3050
 3373SOL    HW127261   3.291   2.783  -0.035  0.9059 -0.2247 -2.1698
 3373SOL    HW227262   3.429   2.732  -0.002  0.0508 -0.9371  0.6419
 3374SOL     OW27263   5.894   3.248   1.026 -0.1844 -0.0283  0.1235
 3374SOL    HW127264   5.811   3.259   0.979 -0.8477  0.6846  1.4049
 3374SOL    HW227265   5.878   3.177   1.088  0.1843  0.0642  0.3272
 3375SOL     OW27266   1.499   1.972   1.889 -0.0117 -0.7410  0.0298
 3375SOL    HW127267   1.575   1.980   1.947 -0.3394 -1.7072  0.6151
 3375SOL    HW227268   1.436   1.920   1.938 -1.0526  0.0133 -0.4642
 3376SOL     OW27269   5.009   1.160   7.031  0.5309  0.1332 -0.2028
 3376SOL    HW127270   4.934   1.187   7.084  2.1283  1.3178  1.5710
 3376SOL    HW227271   5.017   1.066   7.046  0.2980  0.2653  0.7945
 3377SOL     OW27272   0.238   4.245   5.407  0.4806  0.0654 -0.3681
 3377SOL    HW127273   0.211   4.326   5.452  1.9099  1.2006 -1.4554
 3377SOL    HW227274   0.197   4.251   5.321  0.7209 -0.2998 -0.5064
 3378SOL     OW27275   5.227   2.611   6.770 -0.0111 -0.7908  0.3983
 3378SOL    HW127276   5.239   2.663   6.690  2.2040 -0.5553  0.8159
 3378SOL    HW227277   5.230   2.520   6.740  0.3940 -0.7018  0.1611
 3379SOL     OW27278   2.279   0.031   7.111  0.9080  0.2209 -0.0745
 3379SOL    HW127279   2.372   0.007   7.113  1.0001  0.3353 -1.7784
 3379SOL    HW227280   2.233  -0.053   7.114  1.1144  0.0776 -0.6923
 3380SOL     OW27281   6.561   0.140   1.033  0.1899 -0.3000  0.1161
 3380SOL    HW127282   6.467   0.158   1.035  0.1102 -0.5483 -0.9739
 3380SOL    HW227283   6.584   0.138   0.940  1.0214 -1.5814  0.3213
 3381SOL     OW27284   6.474   3.784   0.492 -0.7544  0.1016  0.2165
 3381SOL    HW127285   6.518   3.859   0.453  0.1926 -1.0662 -1.0422
 3381SOL    HW227286   6.417   3.751   0.422 -0.8064 -0.6267  0.5925
 3382SOL     OW27287   2.175   1.918   2.131 -0.4513  0.5086 -0.0124
 3382SOL    HW127288   2.150   1.872   2.051 -3.4078 -0.4323  1.3121
 3382SOL    HW227289   2.194   1.848   2.194 -3.3893  0.9178  1.5469
 3383SOL     OW27290   6.092   5.594   0.528  0.0622 -0.5766  0.7849
 3383SOL    HW127291   6.170   5.646   0.507  0.1709 -1.3164 -0.8192
 3383SOL    HW227292   6.025   5.625   0.466  0.0956 -2.2092 -0.1377
 3384SOL     OW27293   1.553   1.186   6.238 -0.7129 -0.6398 -0.7285
 3384SOL    HW127294   1.598   1.238   6.171  1.5183  1.5034  2.2027
 3384SOL    HW227295   1.467   1.228   6.247 -0.1484  0.5166 -0.6497
 3385SOL     OW27296   1.157   0.739   6.989 -0.3697 -0.3115 -0.1687
 3385SOL    HW127297   1.148   0.809   6.923 -1.1735  0.0628  0.3257
 3385SOL    HW227298   1.107   0.771   7.064  0.1882 -0.9294  0.4720
 3386SOL     OW27299   4.969   5.873   6.423 -0.1314 -0.3545 -0.4217
 3386SOL    HW127300   5.062   5.860   6.440 -0.2548 -0.5698  0.0922
 3386SOL    HW227301   4.953   5.824   6.342  0.1801 -0.3943 -0.4612
 3387SOL     OW27302   4.756   0.517   1.534 -0.4468  0.9610  0.1560
 3387SOL    HW127303   4.806   0.585   1.489  0.6333 -0.9517 -1.7103
 3387SOL    HW227304   4.817   0.480   1.597 -0.4953  0.6581  0.0271
 3388SOL     OW27305   1.292   1.352   1.466  0.0689 -0.0560  0.3390
 3388SOL    HW127306   1.347   1.323   1.538  1.3016  0.5642 -0.3195
 3388SOL    HW227307   1.330   1.436   1.439 -0.6550 -0.0478 -0.7129
 3389SOL     OW27308   4.932   3.961   6.212  0.0433 -0.0383 -0.5471
 3389SOL    HW127309   4.861   4.007   6.257  0.1189 -1.6156  1.3062
 3389SOL    HW227310   4.897   3.943   6.125 -1.4290  0.1813 -0.0349
 3390SOL     OW27311   5.702   5.709   6.209 -0.2905  0.3359  0.4495
 3390SOL    HW127312   5.630   5.712   6.272 -0.1313  0.6632  0.6147
 3390SOL    HW227313   5.708   5.797   6.173  0.2218  0.3872  0.6521
 3391SOL     OW27314   0.278   0.733   0.355 -0.1457 -0.0884 -0.5904
 3391SOL    HW127315   0.225   0.762   0.280 -0.1458 -2.0312 -1.3843
 3391SOL    HW227316   0.242   0.648   0.378 -0.0118  0.3774  1.5400
 3392SOL     OW27317   5.582   4.391   6.516  0.2744 -0.4147 -0.1451
 3392SOL    HW127318   5.654   4.334   6.489 -0.2824 -1.0001 -0.4166
 3392SOL    HW227319   5.518   4.384   6.445 -0.5421 -0.7822  0.6085
 3393SOL     OW27320   2.299   4.134   6.766 -0.3876 -0.1290 -0.2692
 3393SOL    HW127321   2.329   4.059   6.714 -0.5624  0.3792 -1.1178
 3393SOL    HW227322   2.304   4.103   6.857 -2.5182 -1.9191 -0.6792
 3394SOL     OW27323   2.466   5.700   5.830  0.1661 -0.0617  0.3374
 3394SOL    HW127324   2.558   5.708   5.858  0.2202 -1.4566  0.6285
 3394SOL    HW227325   2.464   5.743   5.744  0.7411  1.2967  0.9614
 3395SOL     OW27326   3.265   1.882   6.302 -0.5760 -0.1985  0.4060
 3395SOL    HW127327   3.192   1.866   6.361 -0.2129  1.2766  1.3087
 3395SOL    HW227328   3.329   1.815   6.325 -2.6811 -3.5718 -2.4749
 3396SOL     OW27329   1.007   3.783   7.477 -0.6070  0.3844  0.4072
 3396SOL    HW127330   0.980   3.745   7.561  0.3724 -0.5967  0.3002
 3396SOL    HW227331   1.065   3.855   7.502 -0.1610 -0.0294  0.5724
 3397SOL     OW27332   0.025   0.554   6.915  0.8548  0.0471 -0.2667
 3397SOL    HW127333  -0.037   0.571   6.986  2.2400 -0.5956  1.1897
 3397SOL    HW227334  -0.027   0.555   6.836 -0.4541  2.9892  0.4875
 3398SOL     OW27335   4.683   5.827   2.383  0.2389  0.8225 -0.0914
 3398SOL    HW127336   4.722   5.812   2.469  0.5379  2.1343  0.0180
 3398SOL    HW227337   4.594   5.857   2.403 -0.0419  0.1254 -0.2763
 3399SOL     OW27338   2.687   5.233   6.502  0.1068 -0.3290  0.2143
 3399SOL    HW127339   2.613   5.229   6.441 -0.1127  0.3953  0.4275
 3399SOL    HW227340   2.763   5.250   6.446 -0.2525  1.5556  0.2157
 3400SOL     OW27341   2.661   4.677   6.413  0.0797  0.6319  0.0779
 3400SOL    HW127342   2.658   4.744   6.482 -0.9958  1.4773 -0.7462
 3400SOL    HW227343   2.582   4.624   6.429 -1.2843  2.0334 -1.6085
 3401SOL     OW27344   0.471   4.542   4.918 -0.4251  0.3809  0.0951
 3401SOL    HW127345   0.559   4.510   4.896 -0.7209 -0.7046  0.4349
 3401SOL    HW227346   0.440   4.482   4.986 -2.5208 -0.9996 -1.9325
 3402SOL     OW27347   5.995   0.720   6.508  0.0944 -0.0146 -0.4718
 3402SOL    HW127348   6.081   0.728   6.549 -0.1572 -2.2531  0.6732
 3402SOL    HW227349   6.014   0.702   6.416  0.8174  0.4050 -0.4110
 3403SOL     OW27350   2.844   5.521   0.118 -0.1668  0.4844 -0.3260
 3403SOL    HW127351   2.800   5.606   0.120  1.1185  1.2079 -1.4597
 3403SOL    HW227352   2.774   5.457   0.135 -0.9895  1.7853  1.5065
 3404SOL     OW27353   3.493   1.612   1.849  0.6967 -0.2023 -0.4933
 3404SOL    HW127354   3.553   1.680   1.819  0.8219  0.6150  1.4558
 3404SOL    HW227355   3.415   1.658   1.878 -0.7661 -1.2269 -2.5597
 3405SOL     OW27356   2.402   0.155   6.848  0.0887  0.3545 -0.1209
 3405SOL    HW127357   2.366   0.239   6.820 -2.4552 -1.2446 -2.0622
 3405SOL    HW227358   2.330   0.112   6.893  1.4744 -0.7003  1.2044
 3406SOL     OW27359   6.511   1.382   1.287  0.0001  0.3157 -0.0875
 3406SOL    HW127360   6.598   1.398   1.251  0.3717 -0.9626  0.1818
 3406SOL    HW227361   6.515   1.416   1.377  0.4728 -0.3889  0.1679
 3407SOL     OW27362   4.204   6.539   0.833 -0.2210 -0.0972  0.2330
 3407SOL    HW127363   4.140   6.472   0.811  1.6434 -2.5198  1.5840
 3407SOL    HW227364   4.176   6.572   0.918  0.4940 -1.5675  1.1014
 3408SOL     OW27365   4.888   6.174   1.860 -0.0362 -0.1883  0.7871
 3408SOL    HW127366   4.818   6.190   1.923 -0.5998 -1.1716  0.4281
 3408SOL    HW227367   4.966   6.163   1.914 -0.4873 -0.8717  1.3047
 3409SOL     OW27368   3.389   1.738   6.735  0.3298  0.1105 -0.2226
 3409SOL    HW127369   3.422   1.797   6.667  0.8881  0.1275  0.0607
 3409SOL    HW227370   3.313   1.783   6.771  1.2481  1.0748  0.5770
 3410SOL     OW27371   0.160   4.488   5.521 -0.3179 -0.1374 -0.0584
 3410SOL    HW127372   0.083   4.481   5.577 -0.1344  1.0650  0.3744
 3410SOL    HW227373   0.234   4.480   5.580 -0.0769 -1.9464 -0.5611
 3411SOL     OW27374   2.519   5.894   6.300 -0.0478  0.0766  0.1206
 3411SOL    HW127375   2.442   5.907   6.245 -1.2087 -3.3817  0.7071
 3411SOL    HW227376   2.489   5.836   6.371  2.8499 -0.5950  0.9349
 3412SOL     OW27377   5.533   4.727   0.803  0.2087 -0.2532 -0.0431
 3412SOL    HW127378   5.625   4.701   0.809 -0.3468 -2.7577 -1.3411
 3412SOL    HW227379   5.490   4.681   0.875 -0.3104 -0.6187 -0.5720
 3413SOL     OW27380   3.116   3.161   7.113 -0.0180 -0.6004 -0.4039
 3413SOL    HW127381   3.071   3.166   7.029  0.2341  0.5706 -0.4907
 3413SOL    HW227382   3.180   3.232   7.110 -0.9007  0.3354  1.2728
 3414SOL     OW27383   5.339   5.989   2.113 -0.3336 -0.2825  0.5437
 3414SOL    HW127384   5.402   5.919   2.099 -0.1134  0.0442 -0.1773
 3414SOL    HW227385   5.372   6.062   2.060 -1.2439 -0.0608  0.2645
 3415SOL     OW27386   4.551   5.570   1.118  0.3002  0.4053  0.0443
 3415SOL    HW127387   4.584   5.641   1.173  0.7626  0.2861 -0.0704
 3415SOL    HW227388   4.565   5.491   1.169  0.4132  0.3296 -0.1025
 3416SOL     OW27389   3.730   3.131   5.613 -0.1133 -0.2093 -0.0392
 3416SOL    HW127390   3.793   3.061   5.629 -1.0363 -0.5613  2.6329
 3416SOL    HW227391   3.667   3.095   5.551  2.3137  0.2288 -2.9471
 3417SOL     OW27392   1.264   4.316   5.927  0.2143  0.0911 -0.1925
 3417SOL    HW127393   1.304   4.401   5.906 -1.0178  0.2840 -2.0163
 3417SOL    HW227394   1.322   4.278   5.993  1.9268  1.4546 -0.8236
 3418SOL     OW27395   2.405   0.173   0.216 -0.4129  0.2755 -0.6694
 3418SOL    HW127396   2.484   0.188   0.269 -0.5652  1.9916 -0.8514
 3418SOL    HW227397   2.411   0.238   0.146 -2.4427  1.1194 -0.1388
 3419SOL     OW27398   1.044   6.141   6.740  0.3116  0.0125  0.3400
 3419SOL    HW127399   1.115   6.117   6.680 -0.3210  0.3009 -0.5581
 3419SOL    HW227400   1.080   6.214   6.791  0.8421 -0.1869  0.2618
 3420SOL     OW27401   5.159   5.849   5.131 -0.3763 -0.2641  0.1498
 3420SOL    HW127402   5.225   5.781   5.119  0.3504  0.0336  2.1463
 3420SOL    HW227403   5.200   5.913   5.188 -0.9555  2.0362 -1.8335
 3421SOL     OW27404   5.874   0.964   1.319 -0.2612  0.0923 -0.2423
 3421SOL    HW127405   5.854   1.045   1.272 -0.1041  0.8488  0.9480
 3421SOL    HW227406   5.965   0.945   1.298 -0.1860  0.4328 -0.2188
 3422SOL     OW27407   1.140   3.958   6.647 -0.5222 -0.0594  0.0685
 3422SOL    HW127408   1.051   3.994   6.652 -1.8559 -2.9400 -0.4957
 3422SOL    HW227409   1.169   3.955   6.738 -0.8824  1.1527  0.2391
 3423SOL     OW27410   1.806   2.774   1.700 -0.1119 -0.2488  0.2768
 3423SOL    HW127411   1.783   2.716   1.772  0.9703 -0.5648  0.3806
 3423SOL    HW227412   1.762   2.737   1.624  0.5122 -1.1749  0.3562
 3424SOL     OW27413   5.689   0.429   5.477 -0.4752 -0.1495  0.2506
 3424SOL    HW127414   5.711   0.457   5.388  0.2898 -2.2863 -0.2956
 3424SOL    HW227415   5.754   0.472   5.533 -1.0684  1.3437 -0.1629
 3425SOL     OW27416   1.465   2.694   6.768  1.0080  0.5811  0.6158
 3425SOL    HW127417   1.520   2.707   6.844 -0.8380  1.9360  1.8143
 3425SOL    HW227418   1.409   2.619   6.791  2.0155 -0.5359 -0.4242
 3426SOL     OW27419   0.412   5.775   5.697  0.2085 -0.1700 -0.3825
 3426SOL    HW127420   0.505   5.769   5.723  0.2960  1.1809 -0.2959
 3426SOL    HW227421   0.402   5.708   5.629  0.8953 -1.2855  0.5650
 3427SOL     OW27422   1.982   2.465   1.912 -0.0686  0.3163  0.1856
 3427SOL    HW127423   1.892   2.498   1.908 -0.4398 -0.7385 -0.2550
 3427SOL    HW227424   1.996   2.447   2.005 -0.0217  1.2286  0.3716
 3428SOL     OW27425   4.910   2.666   1.826 -0.6195  0.2796  0.2613
 3428SOL    HW127426   4.917   2.738   1.888 -2.9223  0.2972  0.5819
 3428SOL    HW227427   4.930   2.705   1.741  1.2389  0.5508  0.7892
 3429SOL     OW27428   5.513   1.266   0.644  0.3094  0.7291  0.0736
 3429SOL    HW127429   5.440   1.324   0.664 -0.6926 -0.7789  1.0106
 3429SOL    HW227430   5.554   1.249   0.729  2.0411  1.8682 -0.4814
 3430SOL     OW27431   2.736   5.167   6.098 -0.1574 -0.2593 -0.1241
 3430SOL    HW127432   2.730   5.262   6.113  2.9162 -0.0986  0.5746
 3430SOL    HW227433   2.817   5.155   6.050 -0.4773 -2.5720 -0.2014
 3431SOL     OW27434   3.633   6.462   6.909 -0.5449 -0.0808  0.6543
 3431SOL    HW127435   3.646   6.543   6.860 -0.1350 -0.8334 -0.5213
 3431SOL    HW227436   3.721   6.431   6.929 -0.5988 -1.3635 -0.8625
 3432SOL     OW27437   1.932   4.967   6.287  0.6272  1.0641 -0.5251
 3432SOL    HW127438   1.889   4.913   6.353  0.7744  1.9819  0.3427
 3432SOL    HW227439   2.025   4.944   6.294  0.5007  0.2982 -1.2464
 3433SOL     OW27440   5.346   4.084   6.903  0.0711  0.2260 -0.1472
 3433SOL    HW127441   5.267   4.133   6.928 -0.2280 -0.5210  0.4357
 3433SOL    HW227442   5.392   4.142   6.842  0.1725  1.5989  1.1658
 3434SOL     OW27443   2.738   6.220   2.035 -0.1144  0.4669  0.2946
 3434SOL    HW127444   2.677   6.192   2.103 -0.8893 -1.3789 -1.0758
 3434SOL    HW227445   2.691   6.287   1.985  1.1763  3.3681  2.6311
 3435SOL     OW27446   5.866   5.532   6.860  0.1463 -0.0324  0.6195
 3435SOL    HW127447   5.783   5.578   6.870 -1.0278 -1.9663  0.3228
 3435SOL    HW227448   5.872   5.475   6.937  2.2966  1.5996  1.7726
 3436SOL     OW27449   5.155   4.190   0.102  0.1947 -0.1766  0.3536
 3436SOL    HW127450   5.099   4.267   0.116 -0.8258 -1.0733  1.4449
 3436SOL    HW227451   5.172   4.157   0.190 -0.3126 -1.8309 -0.1411
 3437SOL     OW27452   2.139   1.311   7.316 -0.5677  0.0306  0.2431
 3437SOL    HW127453   2.054   1.338   7.281 -1.5113 -1.8132  0.9969
 3437SOL    HW227454   2.171   1.245   7.255 -0.0090  0.1728  0.3732
 3438SOL     OW27455   4.075   2.718   6.123 -0.4269 -0.0736 -0.0241
 3438SOL    HW127456   3.992   2.704   6.169 -3.0743  1.2056 -3.8626
 3438SOL    HW227457   4.085   2.640   6.068 -0.0405  0.5519 -0.8598
 3439SOL     OW27458   3.831   4.322   1.056  0.4024  0.1365 -0.1091
 3439SOL    HW127459   3.761   4.387   1.056  0.6385  0.4622  1.9938
 3439SOL    HW227460   3.901   4.361   1.004 -0.2569  0.6200 -0.6480
 3440SOL     OW27461   6.357   1.796   1.236 -0.3812 -0.1702 -0.5154
 3440SOL    HW127462   6.403   1.829   1.314 -0.8653 -1.3003  0.2689
 3440SOL    HW227463   6.286   1.860   1.222  0.3024  0.5808 -0.6421
 3441SOL     OW27464   6.467   1.042   7.377 -0.2471 -0.2667  0.5475
 3441SOL    HW127465   6.526   0.985   7.328 -0.1597  0.4971 -0.2678
 3441SOL    HW227466   6.524   1.087   7.439 -0.1522 -0.3454  0.5182
 3442SOL     OW27467   0.829   3.983   5.184 -0.5840 -0.3779 -0.1948
 3442SOL    HW127468   0.749   4.006   5.137 -1.2574 -2.0506  0.0646
 3442SOL    HW227469   0.806   3.995   5.277  0.7184  2.8543 -0.1471
 3443SOL     OW27470   1.935   3.963   0.194 -0.1081 -0.4937  1.0041
 3443SOL    HW127471   1.892   3.917   0.121  0.4608 -1.3453  1.1885
 3443SOL    HW227472   1.872   4.030   0.220  0.3323  0.9933 -1.3723
 3444SOL     OW27473   3.445   0.076   6.648 -0.0935  0.2807  0.1850
 3444SOL    HW127474   3.422   0.006   6.709  0.0881  0.5564  0.5721
 3444SOL    HW227475   3.382   0.067   6.576 -2.4170  1.9271  1.8723
 3445SOL     OW27476   5.862   0.384   5.796 -0.8001 -0.4967 -0.2751
 3445SOL    HW127477   5.953   0.392   5.822 -0.4340 -0.9440 -1.3637
 3445SOL    HW227478   5.850   0.450   5.728 -1.0118 -1.1050 -0.8399
 3446SOL     OW27479   5.060   1.637   0.162 -0.1735 -0.3315 -0.7144
 3446SOL    HW127480   5.067   1.610   0.070  0.7654  0.2686 -0.8418
 3446SOL    HW227481   5.109   1.719   0.166  0.0483 -0.5027  0.3861
 3447SOL     OW27482   6.217   5.497   5.907 -0.0883  0.5207 -0.0026
 3447SOL    HW127483   6.301   5.488   5.952 -0.4907 -2.9241  0.3578
 3447SOL    HW227484   6.233   5.463   5.818 -1.3718 -1.9433  0.6081
 3448SOL     OW27485   3.187   2.306   0.506  0.3554  0.2721  0.4772
 3448SOL    HW127486   3.210   2.321   0.598  0.8438 -0.4303  0.4768
 3448SOL    HW227487   3.170   2.394   0.472 -1.5937  0.4173  1.6741
 3449SOL     OW27488   1.358   5.651   7.332 -0.0943  0.4668  0.2011
 3449SOL    HW127489   1.350   5.697   7.415 -0.6161 -0.2783  0.5696
 3449SOL    HW227490   1.267   5.641   7.301  0.0744  0.4695 -0.3115
 3450SOL     OW27491   0.994   4.571   1.364  0.1782  0.5801 -0.1563
 3450SOL    HW127492   1.052   4.504   1.401  0.6613  1.1116  0.0589
 3450SOL    HW227493   0.933   4.522   1.309  2.4240  0.2003 -2.5130
 3451SOL     OW27494   0.790   3.771   7.306  0.3829  0.1939  0.5513
 3451SOL    HW127495   0.729   3.789   7.378  0.0184  0.5257  0.1579
 3451SOL    HW227496   0.876   3.783   7.345  0.1779  1.5600  0.6321
 3452SOL     OW27497   0.241   4.852   6.094 -0.0669 -0.4908 -0.5583
 3452SOL    HW127498   0.225   4.944   6.071  0.3129 -0.5952 -1.2675
 3452SOL    HW227499   0.190   4.803   6.030 -1.1723 -0.7814  0.5085
 3453SOL     OW27500   2.536   0.580   6.498  0.1061 -0.1059  0.1497
 3453SOL    HW127501   2.557   0.488   6.513 -1.5726 -0.8368 -1.5822
 3453SOL    HW227502   2.447   0.579   6.462 -0.5530  2.3261  1.4740
 3454SOL     OW27503   0.078   4.377   5.937  0.4915  0.3101 -0.1159
 3454SOL    HW127504   0.108   4.289   5.912  0.6281  0.7898 -1.7303
 3454SOL    HW227505   0.109   4.387   6.027 -0.5801 -1.7517  0.5592
 3455SOL     OW27506   2.710   1.454   2.084  0.4713 -0.4423 -0.9510
 3455SOL    HW127507   2.625   1.458   2.128  0.3801  0.4524 -1.1836
 3455SOL    HW227508   2.753   1.378   2.123 -0.8595 -1.5970 -1.6120
 3456SOL     OW27509   3.566   3.831   2.017 -0.4393  0.5536 -1.0239
 3456SOL    HW127510   3.546   3.843   1.924 -1.7640  3.4937 -0.4816
 3456SOL    HW227511   3.639   3.892   2.034  1.7280 -1.9756 -0.6285
 3457SOL     OW27512   5.967   6.360   2.137 -0.3098  0.4184  0.0362
 3457SOL    HW127513   5.914   6.324   2.065 -1.4403 -2.8102  2.2716
 3457SOL    HW227514   5.903   6.383   2.204  0.8495  1.3708  0.8455
 3458SOL     OW27515   0.775   4.611   5.712 -0.6713  0.3576 -0.5220
 3458SOL    HW127516   0.759   4.587   5.803  0.0012 -1.8565 -0.9253
 3458SOL    HW227517   0.840   4.680   5.717 -0.8279  0.4458  0.6803
 3459SOL     OW27518   3.615   1.209   0.923  0.5108 -0.2185  0.5614
 3459SOL    HW127519   3.567   1.131   0.898  0.1104 -0.4175  1.9217
 3459SOL    HW227520   3.685   1.178   0.980  1.4528  0.2227 -0.3176
 3460SOL     OW27521   3.133   1.871   5.839 -0.0744  0.1034  0.8459
 3460SOL    HW127522   3.065   1.939   5.846 -1.1087 -0.6883 -0.8042
 3460SOL    HW227523   3.109   1.822   5.760  1.5561 -1.1857  1.1081
 3461SOL     OW27524   2.173   0.273   7.113 -0.1676 -0.6717 -0.0667
 3461SOL    HW127525   2.217   0.198   7.151  2.0547  1.2249  1.4186
 3461SOL    HW227526   2.142   0.243   7.028  1.8583 -2.8661 -0.1157
 3462SOL     OW27527   4.530   3.410   7.020  0.5212  0.1484  0.5621
 3462SOL    HW127528   4.551   3.320   7.045 -0.7110 -0.2849  0.1289
 3462SOL    HW227529   4.485   3.402   6.935  1.4744  1.2792 -0.0857
 3463SOL     OW27530   1.761   5.327   7.014 -0.0135  0.3995 -0.1873
 3463SOL    HW127531   1.835   5.370   6.970 -2.1189  3.5483 -1.0301
 3463SOL    HW227532   1.711   5.286   6.943 -0.2660  0.2724  0.0599
 3464SOL     OW27533   5.003   3.968   0.002 -0.1941  0.5770 -0.1168
 3464SOL    HW127534   5.017   3.895   0.063  0.3240 -0.5638 -1.5552
 3464SOL    HW227535   5.069   4.032   0.028  0.8622 -0.4185 -0.2409
 3465SOL     OW27536   2.459   6.028   7.029 -0.3488  0.1321 -0.2516
 3465SOL    HW127537   2.378   6.043   6.980  0.1892 -1.0430 -1.5480
 3465SOL    HW227538   2.467   6.106   7.085 -1.8944  0.6871 -0.7460
 3466SOL     OW27539   6.110   4.451   1.137 -0.2007  0.3303 -0.0594
 3466SOL    HW127540   6.128   4.376   1.081 -1.1124  1.1080 -1.4627
 3466SOL    HW227541   6.120   4.418   1.226  3.0625 -0.5318 -0.5969
 3467SOL     OW27542   5.802   4.366   1.047 -0.2556  0.1909  0.3445
 3467SOL    HW127543   5.840   4.350   1.133 -0.1576 -0.1730  0.2349
 3467SOL    HW227544   5.711   4.392   1.065 -0.5016 -0.7664  0.5156
 3468SOL     OW27545   4.904   4.609   2.344  0.2012  0.5026 -0.5283
 3468SOL    HW127546   4.930   4.581   2.256 -1.8695  0.3258 -1.1314
 3468SOL    HW227547   4.962   4.560   2.402 -0.1419 -1.4475 -1.7317
 3469SOL     OW27548   2.670   0.710   0.295 -0.3724 -0.2877  0.4060
 3469SOL    HW127549   2.692   0.763   0.371  1.9813  0.6443 -0.8251
 3469SOL    HW227550   2.741   0.726   0.233 -1.3065 -2.3435 -1.3299
 3470SOL     OW27551   3.111   6.069   0.132 -0.2984 -0.7255  0.1905
 3470SOL    HW127552   3.159   5.993   0.162  0.7416 -0.8311 -1.5554
 3470SOL    HW227553   3.020   6.040   0.124  0.0567 -1.7303 -0.2755
 3471SOL     OW27554   5.765   5.608   1.172 -0.2857  0.4612  0.4034
 3471SOL    HW127555   5.750   5.520   1.139  0.4097  0.3783  0.2872
 3471SOL    HW227556   5.688   5.658   1.145  0.2211  0.3837 -1.3247
 3472SOL     OW27557   5.173   3.416   1.840  0.4687 -0.2823 -0.1454
 3472SOL    HW127558   5.118   3.383   1.769 -0.2044  1.1136 -0.3185
 3472SOL    HW227559   5.127   3.392   1.920  0.2546 -0.2246 -0.2503
 3473SOL     OW27560   3.359   3.260   6.601  0.3124  0.2637 -0.3021
 3473SOL    HW127561   3.409   3.340   6.616  0.6008  0.0432 -0.0660
 3473SOL    HW227562   3.367   3.242   6.507 -0.1610  0.7779 -0.4416
 3474SOL     OW27563   6.000   0.463   1.836 -0.2156 -0.0504  0.0929
 3474SOL    HW127564   6.038   0.514   1.907  0.1803  0.1557 -0.2594
 3474SOL    HW227565   5.921   0.424   1.873 -0.0266  0.0790  0.6318
 3475SOL     OW27566   0.885   2.895   5.850 -0.3907 -0.3289  0.3567
 3475SOL    HW127567   0.953   2.828   5.849 -0.0361  0.0315  0.4665
 3475SOL    HW227568   0.873   2.919   5.758 -0.0209 -0.0366  0.3848
 3476SOL     OW27569   4.077   5.074   6.186  0.4906 -0.3689  0.3954
 3476SOL    HW127570   4.075   5.157   6.234  0.0755 -0.7569  1.0548
 3476SOL    HW227571   3.989   5.038   6.198  1.1293 -1.6527  1.4436
 3477SOL     OW27572   1.986   2.594   6.181 -0.2548  0.4206  1.1373
 3477SOL    HW127573   2.052   2.650   6.138  0.0811 -0.2244  0.8011
 3477SOL    HW227574   1.972   2.522   6.120 -0.9509  0.3176  1.4094
 3478SOL     OW27575   1.135   2.581   0.352  0.2182 -0.4397  0.0364
 3478SOL    HW127576   1.188   2.642   0.301 -0.3360 -1.4359 -1.8437
 3478SOL    HW227577   1.079   2.538   0.287 -2.1804 -0.1690  1.8036
 3479SOL     OW27578   4.071   1.376   6.033  0.1416 -0.0574  0.2119
 3479SOL    HW127579   4.165   1.392   6.042  0.0599  0.9377 -0.4657
 3479SOL    HW227580   4.042   1.442   5.970 -0.9140 -0.7074 -0.0088
 3480SOL     OW27581   2.274   4.487   0.603  0.1168 -0.5430  0.0048
 3480SOL    HW127582   2.198   4.546   0.610  0.4921  0.0098 -0.4515
 3480SOL    HW227583   2.243   4.415   0.548  0.3116  0.3587 -1.3220
 3481SOL     OW27584   6.400   5.878   0.120 -0.1902 -0.4181  0.1906
 3481SOL    HW127585   6.370   5.960   0.081 -0.3753  0.2993  1.7691
 3481SOL    HW227586   6.480   5.856   0.072  0.3825  1.1751  0.3561
 3482SOL     OW27587   6.415   1.922   6.084 -0.3793  0.2513  0.8713
 3482SOL    HW127588   6.417   1.953   6.175  1.1431  2.9706  0.0144
 3482SOL    HW227589   6.506   1.905   6.062 -0.5620  0.9550 -0.5513
 3483SOL     OW27590   1.856   4.689   0.039 -0.0836  0.5318 -0.3128
 3483SOL    HW127591   1.885   4.780   0.028  0.4190  0.4077 -0.0137
 3483SOL    HW227592   1.937   4.639   0.052 -0.2963 -0.0661 -1.1981
 3484SOL     OW27593   1.278   4.329   1.110  0.3562  0.1057 -0.4744
 3484SOL    HW127594   1.314   4.249   1.149 -0.6430 -0.5679 -0.8917
 3484SOL    HW227595   1.184   4.323   1.126  0.1765  0.8190 -1.2050
 3485SOL     OW27596   1.140   0.270   7.297 -0.0672 -0.4057  0.1935
 3485SOL    HW127597   1.165   0.350   7.343 -0.9096 -0.1358  0.2033
 3485SOL    HW227598   1.165   0.200   7.357  3.4364 -0.3877 -1.0386
 3486SOL     OW27599   1.089   3.331   7.047 -0.1627  0.5293  0.2600
 3486SOL    HW127600   1.078   3.307   7.139  0.0576  0.1945  0.2043
 3486SOL    HW227601   1.159   3.273   7.016 -2.1700 -1.4094 -0.8731
 3487SOL     OW27602   1.269   5.297   6.123 -0.4819  0.6748  0.4811
 3487SOL    HW127603   1.180   5.320   6.151  0.0538  3.3261  0.3111
 3487SOL    HW227604   1.325   5.363   6.166  1.2180  0.0637 -0.6899
 3488SOL     OW27605   0.465   0.649   0.841 -0.6885 -0.2906 -0.0238
 3488SOL    HW127606   0.482   0.612   0.927 -2.1424  0.2144  0.5102
 3488SOL    HW227607   0.529   0.720   0.832 -1.0719  0.1958  1.0028
 3489SOL     OW27608   0.451   4.037   7.350 -0.0771  0.0118 -0.0253
 3489SOL    HW127609   0.367   3.994   7.368  0.0726 -1.1086 -1.7392
 3489SOL    HW227610   0.427   4.127   7.327 -1.0310 -0.7191 -2.1248
 3490SOL     OW27611   5.042   5.513   6.610  0.5585  0.4077 -0.2233
 3490SOL    HW127612   4.990   5.440   6.578  0.9816 -0.3393  0.7149
 3490SOL    HW227613   4.981   5.587   6.616 -0.0778 -0.1060 -0.3679
 3491SOL     OW27614   0.843   6.050   6.568  0.6811  0.0396  0.3636
 3491SOL    HW127615   0.839   6.132   6.519  1.5761 -1.5263 -2.6084
 3491SOL    HW227616   0.913   6.064   6.632  1.7337  1.2333 -0.9659
 3492SOL     OW27617   4.428   2.520   6.931  0.1638 -0.1868 -0.3340
 3492SOL    HW127618   4.462   2.565   7.009  0.2473 -1.3072  0.2914
 3492SOL    HW227619   4.456   2.429   6.941  0.8605 -0.1945 -2.0857
 3493SOL     OW27620   6.446   4.384   6.182 -0.7667 -0.2647 -0.3082
 3493SOL    HW127621   6.413   4.463   6.139 -2.3398 -0.9233 -0.3847
 3493SOL    HW227622   6.492   4.336   6.113 -1.1605 -0.1509 -0.6536
 3494SOL     OW27623   4.076   4.592   6.935 -0.1177 -0.5537 -0.0071
 3494SOL    HW127624   4.054   4.643   7.013 -0.3578  0.1875 -0.5525
 3494SOL    HW227625   4.092   4.657   6.867 -1.3389 -1.1992 -0.9637
 3495SOL     OW27626   2.934   0.935   6.041  0.0348  0.8976 -0.0809
 3495SOL    HW127627   2.840   0.955   6.038 -0.5043 -0.9835  1.4827
 3495SOL    HW227628   2.949   0.907   6.131  2.0894  1.0259 -0.3386
 3496SOL     OW27629   5.109   1.030   0.685  0.1512  0.5974 -0.0406
 3496SOL    HW127630   5.020   0.998   0.675  0.5302 -0.5865  0.2188
 3496SOL    HW227631   5.149   1.015   0.599 -1.0253  5.0953 -1.6844
 3497SOL     OW27632   5.065   3.374   5.567  0.2906  0.1771  0.4645
 3497SOL    HW127633   5.064   3.295   5.622 -1.3119  1.1423  1.9271
 3497SOL    HW227634   5.156   3.403   5.570  0.7131 -1.1082  0.6613
 3498SOL     OW27635   5.442   6.442   6.879 -0.4646  0.0603  0.3344
 3498SOL    HW127636   5.400   6.519   6.840  1.0048  0.9862  0.5022
 3498SOL    HW227637   5.515   6.478   6.929  0.4227 -1.4767  0.1892
 3499SOL     OW27638   6.005   0.967   1.584 -0.2964  0.2798  0.2497
 3499SOL    HW127639   5.952   0.952   1.506  0.3374  1.8606 -0.5252
 3499SOL    HW227640   5.992   0.889   1.637 -0.7589 -0.8251 -1.4217
 3500SOL     OW27641   2.515   2.767   0.825  0.1023 -0.6289  0.1427
 3500SOL    HW127642   2.576   2.738   0.758  1.7538  0.4122  1.1373
 3500SOL    HW227643   2.452   2.821   0.777 -0.6928 -2.4956 -1.0561
 3501SOL     OW27644   2.577   4.252   5.611  0.5334 -0.0030 -0.4487
 3501SOL    HW127645   2.491   4.235   5.648  0.9430  1.9906  1.6742
 3501SOL    HW227646   2.633   4.269   5.686  2.0795  1.6655 -1.8600
 3502SOL     OW27647   3.092   1.208   6.448 -0.0644  0.7735  0.1132
 3502SOL    HW127648   3.165   1.159   6.484  1.0388  1.9997 -0.3607
 3502SOL    HW227649   3.123   1.238   6.362 -1.1440  1.2555 -0.1277
 3503SOL     OW27650   2.728   3.076   0.816 -0.1076 -0.2126 -0.8150
 3503SOL    HW127651   2.658   3.041   0.762  0.3778 -1.2989 -0.7624
 3503SOL    HW227652   2.807   3.066   0.763 -0.2123  3.0687 -1.8258
 3504SOL     OW27653   3.324   4.869   4.174 -0.2387  0.5641  0.8568
 3504SOL    HW127654   3.285   4.932   4.235 -0.3634 -0.0662  1.4423
 3504SOL    HW227655   3.273   4.879   4.094 -0.7566  0.6714  1.1924
 3505SOL     OW27656   3.952   2.021   1.952  1.0335  0.0301  0.3232
 3505SOL    HW127657   3.926   1.938   1.992  1.8841 -0.7088 -0.6179
 3505SOL    HW227658   3.909   2.088   2.006 -2.4957 -1.0673 -0.8317
 3506SOL     OW27659   2.145   5.171   6.443  0.4171 -0.1100  0.2765
 3506SOL    HW127660   2.110   5.188   6.530 -0.6005  1.5766 -0.3970
 3506SOL    HW227661   2.194   5.251   6.422  0.5672 -0.4558 -0.7243
 3507SOL     OW27662   1.352   3.218   1.553  0.0395  0.2577 -0.4262
 3507SOL    HW127663   1.277   3.253   1.602  0.4361  0.3019  0.1656
 3507SOL    HW227664   1.411   3.185   1.621 -0.2863 -1.5329 -0.9430
 3508SOL     OW27665   4.465   1.571   6.633 -0.0641 -0.4604 -0.0008
 3508SOL    HW127666   4.547   1.619   6.650  0.8745 -1.2978 -1.8517
 3508SOL    HW227667   4.408   1.635   6.591  0.1818 -0.2586 -0.0298
 3509SOL     OW27668   3.295   2.427   7.244 -0.1815  0.1640 -0.0960
 3509SOL    HW127669   3.341   2.510   7.256  1.1817 -0.6669  0.7090
 3509SOL    HW227670   3.363   2.361   7.254 -0.8316 -1.0281 -2.7509
 3510SOL     OW27671   2.795   4.957   1.916  0.4447  0.8259  0.1890
 3510SOL    HW127672   2.832   4.879   1.958 -2.0222  0.5171  1.9659
 3510SOL    HW227673   2.746   4.922   1.842  0.2180  0.7980  0.3521
 3511SOL     OW27674   3.699   4.552   6.949 -0.0579 -0.2835 -0.0535
 3511SOL    HW127675   3.741   4.612   6.888  2.4060 -1.3302  0.4826
 3511SOL    HW227676   3.625   4.516   6.900 -1.2039  2.6031 -0.6085
 3512SOL     OW27677   5.601   2.966   7.148  0.4139 -0.0597 -0.3938
 3512SOL    HW127678   5.531   2.909   7.179 -0.2150  0.2132 -1.2864
 3512SOL    HW227679   5.658   2.909   7.096 -0.3897  0.1689 -1.5569
 3513SOL     OW27680   0.154   3.822   5.631 -0.4694 -0.3316 -0.2532
 3513SOL    HW127681   0.244   3.854   5.643 -1.1031  1.2238  0.5196
 3513SOL    HW227682   0.150   3.799   5.538  1.4931 -2.9864  0.1747
 3514SOL     OW27683   5.204   4.917   0.345 -0.0889 -0.3346  0.4332
 3514SOL    HW127684   5.269   4.880   0.285  0.3118 -0.2879  0.8272
 3514SOL    HW227685   5.247   4.996   0.380 -1.1230  0.8169 -0.7917
 3515SOL     OW27686   0.351   0.916   1.714 -0.1462 -0.1763 -0.4718
 3515SOL    HW127687   0.272   0.876   1.749  0.3240 -1.1061 -0.4535
 3515SOL    HW227688   0.326   1.007   1.696 -0.8976 -0.1548  0.6029
 3516SOL     OW27689   0.621   3.961   6.823  0.0191  0.2953 -0.5549
 3516SOL    HW127690   0.620   3.901   6.749  0.6276 -2.2115  1.3258
 3516SOL    HW227691   0.602   3.906   6.899  0.0346  2.6224  1.2625
 3517SOL     OW27692   4.179   5.064   6.813  0.3611 -0.7382 -0.8629
 3517SOL    HW127693   4.251   5.117   6.780  3.4585 -2.7388  2.0763
 3517SOL    HW227694   4.201   5.048   6.904 -3.9625 -1.4279  0.2557
 3518SOL     OW27695   4.103   0.551   5.665 -0.3155 -0.1532  0.7103
 3518SOL    HW127696   4.052   0.556   5.584  2.0432  1.7717 -0.7942
 3518SOL    HW227697   4.098   0.640   5.701  1.7461  0.0361  0.6069
 3519SOL     OW27698   4.338   2.140   7.471 -1.3835  0.4585 -0.3607
 3519SOL    HW127699   4.257   2.161   7.425 -0.7078  1.5164 -1.1045
 3519SOL    HW227700   4.365   2.222   7.513 -0.9480 -0.0018  0.2978
 3520SOL     OW27701   3.901   0.904   6.977 -0.0908  0.3621  0.3463
 3520SOL    HW127702   3.987   0.885   6.939  0.8015  1.3341  1.7311
 3520SOL    HW227703   3.844   0.923   6.903  0.9666 -0.0416 -0.5877
 3521SOL     OW27704   2.822   6.278   5.392 -0.6129 -0.3934  0.1999
 3521SOL    HW127705   2.819   6.373   5.395  0.4766 -0.3696  1.6289
 3521SOL    HW227706   2.774   6.255   5.313 -0.9936  1.3277 -0.1098
 3522SOL     OW27707   4.641   0.254   1.658 -0.5398 -0.0168 -0.1002
 3522SOL    HW127708   4.651   0.268   1.564 -1.2028 -2.4826 -0.5985
 3522SOL    HW227709   4.726   0.277   1.695 -0.9275  3.1991 -0.9157
 3523SOL     OW27710   0.365   1.784   7.177 -0.2943  0.2186 -0.1826
 3523SOL    HW127711   0.336   1.697   7.204 -1.7068  0.6784 -0.1367
 3523SOL    HW227712   0.290   1.840   7.193  0.6538  1.4875 -0.0711
 3524SOL     OW27713   0.273   5.532   6.868 -0.1127 -0.0816 -0.0417
 3524SOL    HW127714   0.352   5.526   6.922  0.1300  0.5511 -0.3127
 3524SOL    HW227715   0.302   5.576   6.789 -0.3954 -1.2980 -0.8397
 3525SOL     OW27716   4.309   6.357   0.382  0.0651 -0.3615  0.0117
 3525SOL    HW127717   4.218   6.338   0.360  0.1707 -0.8340 -0.0301
 3525SOL    HW227718   4.305   6.415   0.458 -0.2844  0.3004 -0.4967
 3526SOL     OW27719   6.522   1.689   0.308  0.2853 -0.2859 -0.1600
 3526SOL    HW127720   6.522   1.719   0.217  1.2685  0.0553 -0.0581
 3526SOL    HW227721   6.563   1.602   0.305 -3.5935 -2.3289 -0.6264
 3527SOL     OW27722   5.577   0.442   1.443 -0.2972 -1.2582 -0.1044
 3527SOL    HW127723   5.554   0.470   1.531  1.6635  0.2166  0.0131
 3527SOL    HW227724   5.497   0.403   1.408 -1.4232 -0.8927  1.9260
 3528SOL     OW27725   1.191   1.514   6.476  0.1217  0.1384  0.4852
 3528SOL    HW127726   1.101   1.544   6.460  0.1189 -0.5443 -0.9898
 3528SOL    HW227727   1.244   1.560   6.411  0.2605 -2.1844 -1.1674
 3529SOL     OW27728   0.918   4.101   6.682  0.0343 -0.3966  0.4270
 3529SOL    HW127729   0.913   4.196   6.672  0.6099 -0.2726  1.2723
 3529SOL    HW227730   0.841   4.069   6.635 -1.6249  0.6436  2.2863
 3530SOL     OW27731   4.746   1.506   7.473  0.2320  0.1896 -0.4885
 3530SOL    HW127732   4.760   1.541   7.561 -2.9114 -1.1759  0.7173
 3530SOL    HW227733   4.693   1.427   7.487  0.1795 -0.4202 -3.5706
 3531SOL     OW27734   2.040   4.916   1.360 -0.2236 -0.1250 -0.3464
 3531SOL    HW127735   2.082   4.871   1.287  0.5188  0.3263 -0.2127
 3531SOL    HW227736   2.099   4.900   1.434  1.0322  2.4790 -0.6502
 3532SOL     OW27737   5.162   0.569   6.455 -0.4183 -0.4041 -0.3135
 3532SOL    HW127738   5.141   0.633   6.388  1.8160 -0.3788 -1.0852
 3532SOL    HW227739   5.182   0.489   6.407 -1.1381 -1.0965  0.5023
 3533SOL     OW27740   0.810   5.116   0.783 -0.1389  0.1129  0.5160
 3533SOL    HW127741   0.857   5.039   0.752  1.7150  2.0391 -1.8812
 3533SOL    HW227742   0.876   5.170   0.826 -1.5305  0.1688  2.7476
 3534SOL     OW27743   5.872   4.461   6.672 -0.1567  0.0738  0.8178
 3534SOL    HW127744   5.935   4.474   6.743  1.5717 -1.7245 -0.2659
 3534SOL    HW227745   5.882   4.368   6.649  1.8541  1.1636 -3.9098
 3535SOL     OW27746   2.463   2.174   1.002  0.3231  0.3488 -0.0096
 3535SOL    HW127747   2.540   2.174   0.945 -0.0248 -1.3949 -0.5293
 3535SOL    HW227748   2.431   2.264   0.999  2.1717  1.0436 -0.0002
 3536SOL     OW27749   2.653   4.347   1.481 -0.6577  0.6127 -0.5027
 3536SOL    HW127750   2.610   4.432   1.493 -2.8717 -0.5740  0.6439
 3536SOL    HW227751   2.703   4.333   1.561 -0.1932  0.8669 -0.7434
 3537SOL     OW27752   0.633   0.420   2.061  0.0079 -0.0075  0.1637
 3537SOL    HW127753   0.570   0.458   2.122  0.6037  0.3251  0.5813
 3537SOL    HW227754   0.653   0.333   2.097  0.9131  0.4735  0.8602
 3538SOL     OW27755   5.029   0.439   1.548  0.3343  0.0513 -0.9586
 3538SOL    HW127756   5.029   0.478   1.636 -0.1114  0.3035 -1.0704
 3538SOL    HW227757   5.033   0.344   1.565 -2.5771 -0.0893 -0.5484
 3539SOL     OW27758   6.467   1.985   5.422 -0.0481 -0.0809  0.2116
 3539SOL    HW127759   6.410   1.949   5.354  0.7569  0.8657 -1.0254
 3539SOL    HW227760   6.543   1.926   5.423  0.9182  1.0417 -1.2761
 3540SOL     OW27761   1.908   5.110   1.629  0.4810  0.5841  0.0687
 3540SOL    HW127762   1.842   5.042   1.641  0.2787  0.7188 -0.2778
 3540SOL    HW227763   1.970   5.073   1.566 -0.2651  1.1629 -1.0456
 3541SOL     OW27764   2.186   2.129   0.943  0.6544 -0.5419 -0.6026
 3541SOL    HW127765   2.167   2.050   0.993  1.8792 -0.4071  0.1105
 3541SOL    HW227766   2.276   2.151   0.965  0.0608  1.6106  0.0209
 3542SOL     OW27767   4.584   0.943   2.072 -0.0126  0.3293  0.3547
 3542SOL    HW127768   4.614   0.958   2.162  2.7314  0.3818 -0.4776
 3542SOL    HW227769   4.642   0.874   2.039 -0.5059  0.7783 -1.5720
 3543SOL     OW27770   3.092   6.208   6.639  0.6184  0.3701  0.6180
 3543SOL    HW127771   3.066   6.164   6.558  2.0439  1.8061 -0.6686
 3543SOL    HW227772   3.078   6.141   6.707 -0.9363 -0.7673 -0.7073
 3544SOL     OW27773   2.566   1.000   1.841 -0.0521  0.2226  0.4792
 3544SOL    HW127774   2.657   1.013   1.816  0.1860 -0.7510  0.8154
 3544SOL    HW227775   2.567   0.926   1.901 -0.8663  1.2564  1.8116
 3545SOL     OW27776   3.249   1.634   1.649  0.3065 -0.3803 -0.2399
 3545SOL    HW127777   3.279   1.676   1.729 -3.2175 -1.9186  2.1340
 3545SOL    HW227778   3.315   1.567   1.630  0.3642 -1.1805  2.4755
 3546SOL     OW27779   2.531   5.790   5.561  0.7201 -0.2158 -0.0196
 3546SOL    HW127780   2.492   5.727   5.501 -1.4481  0.9756  0.0073
 3546SOL    HW227781   2.609   5.822   5.516  1.0719 -1.8406 -0.6323
 3547SOL     OW27782   0.118   0.423   7.224 -0.7016 -0.0068  0.0193
 3547SOL    HW127783   0.069   0.382   7.153 -0.1378  1.8200 -1.5430
 3547SOL    HW227784   0.062   0.496   7.252 -0.7760 -0.5235  1.2893
 3548SOL     OW27785   0.806   0.113   1.679 -0.7303  0.1218  0.3104
 3548SOL    HW127786   0.732   0.174   1.687 -0.4551  0.6189 -0.6852
 3548SOL    HW227787   0.765   0.028   1.663 -1.1008  0.2155  0.7448
 3549SOL     OW27788   3.527   0.332   6.743 -0.3095  0.2504  0.1686
 3549SOL    HW127789   3.482   0.255   6.709  0.3005  0.5280 -1.3236
 3549SOL    HW227790   3.467   0.405   6.728 -0.0890  0.3548 -0.2215
 3550SOL     OW27791   0.011   5.742   7.456  0.4502  0.4955 -0.9062
 3550SOL    HW127792   0.049   5.752   7.369  0.9906  0.4842 -0.6807
 3550SOL    HW227793  -0.028   5.654   7.456  1.5266 -0.0016 -0.7483
 3551SOL     OW27794   6.587   6.437   6.712 -0.2360 -0.1531  0.1517
 3551SOL    HW127795   6.612   6.462   6.801  0.1283  0.3274 -0.0776
 3551SOL    HW227796   6.517   6.374   6.723  1.8891 -2.5452  0.8927
 3552SOL     OW27797   6.568   0.773   1.936 -0.3501 -0.2624 -0.4838
 3552SOL    HW127798   6.606   0.697   1.980  0.9345  1.6597  1.9706
 3552SOL    HW227799   6.475   0.768   1.954 -0.2535 -1.1187 -0.1727
 3553SOL     OW27800   4.624   6.021   6.651  0.2068 -0.6876 -0.2223
 3553SOL    HW127801   4.547   6.077   6.665  0.9820  0.4248 -0.3139
 3553SOL    HW227802   4.666   6.016   6.737  1.9678  1.6522 -0.8699
 3554SOL     OW27803   1.307   6.546   7.328  0.0477 -0.6445  0.0393
 3554SOL    HW127804   1.376   6.490   7.364  1.2542  1.2282  0.8272
 3554SOL    HW227805   1.316   6.538   7.233 -0.3637 -2.3737  0.1131
 3555SOL     OW27806   2.786   1.389   5.774  0.1011 -0.7288 -0.2450
 3555SOL    HW127807   2.813   1.396   5.682  1.4896  0.5100  0.2264
 3555SOL    HW227808   2.801   1.297   5.796  1.8647 -0.5696 -0.6570
 3556SOL     OW27809   2.655   0.444   0.782  0.6696  0.1403  0.0799
 3556SOL    HW127810   2.735   0.471   0.736  0.3969  0.0130 -0.4841
 3556SOL    HW227811   2.628   0.522   0.830  0.6969  0.4263 -0.3624
 3557SOL     OW27812   6.445   6.229   0.305 -0.0466  0.6030 -0.3382
 3557SOL    HW127813   6.526   6.185   0.279  0.1690  0.4289  0.5780
 3557SOL    HW227814   6.473   6.317   0.332 -0.1558  0.5476 -0.0347
 3558SOL     OW27815   0.408   0.506   6.543 -0.0894  0.0854  0.0869
 3558SOL    HW127816   0.431   0.530   6.633 -0.0320  1.9357 -0.3921
 3558SOL    HW227817   0.452   0.422   6.529  0.1496 -0.0885  1.6719
 3559SOL     OW27818   1.639   6.006   4.900 -0.2407 -0.4048 -0.5536
 3559SOL    HW127819   1.709   6.048   4.951 -0.5111 -1.6800  0.9179
 3559SOL    HW227820   1.671   6.010   4.809  1.3690 -0.2220 -0.0193
 3560SOL     OW27821   3.831   4.422   2.052 -0.5077 -0.2949  0.4718
 3560SOL    HW127822   3.773   4.375   1.992 -1.9407  2.8301 -0.7859
 3560SOL    HW227823   3.917   4.419   2.009 -0.1956 -2.8096  1.1156
 3561SOL     OW27824   3.160   1.334   7.414 -0.2516 -0.2078  0.0319
 3561SOL    HW127825   3.110   1.404   7.372 -1.5299 -1.4431 -0.5648
 3561SOL    HW227826   3.252   1.359   7.400 -0.6673  1.2740 -0.2569
 3562SOL     OW27827   0.975   3.321   1.405  0.2635 -0.3358  0.8472
 3562SOL    HW127828   0.928   3.399   1.435  1.6890  0.5543  0.8713
 3562SOL    HW227829   0.917   3.248   1.428 -1.0264  0.6886  0.9854
 3563SOL     OW27830   3.907   6.498   5.893  0.0117  0.0259  0.3080
 3563SOL    HW127831   3.939   6.479   5.805 -0.1706  0.8110  0.0587
 3563SOL    HW227832   3.851   6.424   5.915  2.0208 -1.4170  0.7908
 3564SOL     OW27833   0.059   2.584   0.809  0.0377 -0.8536  0.2070
 3564SOL    HW127834  -0.002   2.642   0.765 -1.9102 -1.5866  1.7942
 3564SOL    HW227835   0.064   2.617   0.899 -0.1583 -2.3813  0.8128
 3565SOL     OW27836   2.613   6.037   2.225 -0.0582  0.0251  0.1115
 3565SOL    HW127837   2.703   6.005   2.230 -0.3727 -0.7626  1.2944
 3565SOL    HW227838   2.567   5.969   2.177 -0.2449 -0.1656  0.5482
 3566SOL     OW27839   3.395   1.006   6.199 -0.2404  0.7890  0.5854
 3566SOL    HW127840   3.322   0.947   6.220 -0.1867  0.7720  0.7222
 3566SOL    HW227841   3.354   1.079   6.152 -0.0701 -0.2484 -1.2554
 3567SOL     OW27842   3.352   6.133   6.969  0.0350 -0.4091 -0.1568
 3567SOL    HW127843   3.347   6.041   6.998 -0.0863  0.0047  1.2065
 3567SOL    HW227844   3.446   6.148   6.953  0.1652 -0.5195  0.4848
 3568SOL     OW27845   4.651   3.678   1.279 -0.1943 -0.0282 -0.4445
 3568SOL    HW127846   4.719   3.675   1.346  0.9553 -0.4723 -1.5884
 3568SOL    HW227847   4.596   3.602   1.297  1.1746 -1.2082 -1.0567
 3569SOL     OW27848   2.560   5.869   5.216 -0.3009  0.1028 -0.3465
 3569SOL    HW127849   2.503   5.796   5.243 -0.1347  0.0914 -0.0151
 3569SOL    HW227850   2.638   5.859   5.270 -0.8659  1.3638  0.7765
 3570SOL     OW27851   4.460   4.193   0.241 -0.2519 -0.6532  0.2771
 3570SOL    HW127852   4.536   4.174   0.297  0.2125 -0.1055 -0.1511
 3570SOL    HW227853   4.463   4.287   0.228 -1.4832 -0.5181  0.8993
 3571SOL     OW27854   0.167   2.493   1.723 -0.2638 -0.5188  0.6522
 3571SOL    HW127855   0.142   2.400   1.721  0.6948 -0.8092  1.5859
 3571SOL    HW227856   0.085   2.539   1.742 -0.6214 -1.2272  0.8678
 3572SOL     OW27857   0.339   4.464   0.731 -0.1401  0.4629 -0.7116
 3572SOL    HW127858   0.378   4.383   0.764  0.7201  0.7049 -1.1098
 3572SOL    HW227859   0.412   4.512   0.692 -0.4997  1.7958  0.2086
 3573SOL     OW27860   0.750   2.266   6.237 -0.2408  0.1932 -0.0278
 3573SOL    HW127861   0.666   2.226   6.258 -0.2237  0.6831  0.9979
 3573SOL    HW227862   0.810   2.233   6.304  0.4036 -0.1724 -0.7648
 3574SOL     OW27863   1.808   3.209   7.049 -0.6125  0.3171 -0.4358
 3574SOL    HW127864   1.747   3.189   6.978 -0.0981 -2.2787 -0.2391
 3574SOL    HW227865   1.799   3.136   7.110  0.3636  1.5147  1.2356
 3575SOL     OW27866   1.034   1.260   1.479  0.4704  0.2711  0.1678
 3575SOL    HW127867   1.128   1.280   1.479  0.5888 -0.2043 -1.2594
 3575SOL    HW227868   1.012   1.248   1.387 -0.8727 -0.2362  0.5368
 3576SOL     OW27869   0.395   4.233   0.259 -0.1198  0.1392  0.1408
 3576SOL    HW127870   0.417   4.141   0.267  3.4177  0.8753  0.7466
 3576SOL    HW227871   0.348   4.254   0.340 -0.2716 -0.9550  0.3493
 3577SOL     OW27872   1.525   3.073   1.725 -0.3577  0.2665  0.8050
 3577SOL    HW127873   1.555   2.991   1.764  0.1805  0.0798  0.0164
 3577SOL    HW227874   1.605   3.123   1.710 -0.5070  0.1345 -0.4956
 3578SOL     OW27875   1.274   3.669   6.817 -0.8377  0.0260  0.6822
 3578SOL    HW127876   1.256   3.763   6.823 -0.4575  0.2625 -1.2185
 3578SOL    HW227877   1.370   3.663   6.818 -0.7795 -0.1130 -1.1536
 3579SOL     OW27878   0.454   5.988   7.304 -0.5444 -0.7034  0.4294
 3579SOL    HW127879   0.526   6.050   7.296 -0.7860 -0.6058 -1.2704
 3579SOL    HW227880   0.494   5.902   7.296 -0.5580 -0.6614 -0.1200
 3580SOL     OW27881   5.504   5.402   2.110 -0.8082  0.6053  0.0646
 3580SOL    HW127882   5.564   5.329   2.122  0.0249  1.0761 -1.0613
 3580SOL    HW227883   5.419   5.368   2.139  0.0211  0.0208  1.9530
 3581SOL     OW27884   4.619   4.796   6.740  0.1153 -0.0439 -0.5621
 3581SOL    HW127885   4.618   4.703   6.718 -0.9093 -0.1155 -0.2732
 3581SOL    HW227886   4.581   4.801   6.828  0.7499  0.5923 -0.3075
 3582SOL     OW27887   1.661   0.937   7.440  0.6744 -0.5516 -0.1105
 3582SOL    HW127888   1.639   1.022   7.477 -2.3454 -0.9729 -0.7449
 3582SOL    HW227889   1.712   0.958   7.362  0.3389  0.6567 -0.0318
 3583SOL     OW27890   6.173   1.320   5.658 -0.4506  0.2299 -0.5053
 3583SOL    HW127891   6.095   1.301   5.711  0.4593  1.4837  1.4132
 3583SOL    HW227892   6.163   1.265   5.581 -3.0332  0.0416 -0.1445
 3584SOL     OW27893   2.676   5.997   0.670  0.4857 -0.2461  0.0648
 3584SOL    HW127894   2.619   6.073   0.657  1.3008  0.3490 -0.1034
 3584SOL    HW227895   2.761   6.026   0.638  0.8390 -1.1883  0.1406
 3585SOL     OW27896   4.356   2.918   0.986 -0.3984  0.8365 -0.1751
 3585SOL    HW127897   4.447   2.939   0.967  0.0381 -0.5006  0.3444
 3585SOL    HW227898   4.331   2.979   1.055  1.1775 -0.9204  2.0982
 3586SOL     OW27899   0.337   4.504   5.876 -0.3441  0.0156 -0.1478
 3586SOL    HW127900   0.397   4.550   5.817 -0.3071 -1.5923 -1.4245
 3586SOL    HW227901   0.298   4.435   5.823 -0.1026 -1.7056  1.7566
 3587SOL     OW27902   5.358   5.077   1.737  0.0738 -0.3101 -0.5616
 3587SOL    HW127903   5.410   5.140   1.687  1.8133 -0.4792  0.9330
 3587SOL    HW227904   5.356   5.113   1.826 -2.1172 -0.5046 -0.4807
 3588SOL     OW27905   1.004   6.207   5.489  0.3036  0.8859 -0.0152
 3588SOL    HW127906   1.065   6.262   5.441  0.4777  0.3055 -0.4638
 3588SOL    HW227907   0.952   6.163   5.422 -1.5495  2.3704  0.3469
 3589SOL     OW27908   5.110   3.088   1.799  0.0861 -0.1528 -0.0570
 3589SOL    HW127909   5.122   3.011   1.854  2.4963 -0.8800 -1.4539
 3589SOL    HW227910   5.052   3.145   1.850  0.6131 -1.6086  2.3328
 3590SOL     OW27911   2.464   2.071   5.864 -0.0103 -0.0254  0.0237
 3590SOL    HW127912   2.437   2.124   5.789 -0.0873  0.6781  0.5385
 3590SOL    HW227913   2.454   1.981   5.835 -0.7981  0.2401 -0.5444
 3591SOL     OW27914   5.278   1.940   1.173  0.1188  0.6838 -0.4367
 3591SOL    HW127915   5.351   1.916   1.116  0.2107  0.6027 -0.2861
 3591SOL    HW227916   5.318   1.990   1.244 -0.1169  1.5807 -0.9224
 3592SOL     OW27917   0.693   1.252   6.512  0.1245 -0.1966  0.2335
 3592SOL    HW127918   0.666   1.186   6.576 -0.7072 -1.0187 -0.9111
 3592SOL    HW227919   0.768   1.295   6.551 -0.5564 -0.4558  1.8881
 3593SOL     OW27920   6.299   1.731   0.468 -0.0995  0.2304 -0.0492
 3593SOL    HW127921   6.351   1.719   0.548  0.2793 -2.5368 -0.5905
 3593SOL    HW227922   6.363   1.722   0.397 -0.9806 -1.3460 -0.6912
 3594SOL     OW27923   2.103   5.761   7.148  0.5152  0.2094  0.5369
 3594SOL    HW127924   2.087   5.853   7.170 -0.8341  0.0723  0.2429
 3594SOL    HW227925   2.022   5.716   7.173  0.9237 -0.7943  0.1087
 3595SOL     OW27926   0.310   1.096   0.830  0.3234  0.5590  0.5020
 3595SOL    HW127927   0.291   1.174   0.778 -0.6618  0.0503  0.0585
 3595SOL    HW227928   0.325   1.027   0.765 -0.5735 -0.0040  0.8783
 3596SOL     OW27929   5.312   4.014   0.756 -0.8912  0.0653 -0.2617
 3596SOL    HW127930   5.336   4.104   0.780 -1.1206  0.5226 -1.6944
 3596SOL    HW227931   5.393   3.975   0.725 -0.6316 -0.4790  1.0211
 3597SOL     OW27932   3.165   2.010   0.510  0.3003  0.4780 -0.4301
 3597SOL    HW127933   3.156   2.099   0.478 -0.1483 -0.1123 -2.0350
 3597SOL    HW227934   3.203   2.019   0.598 -0.3088  2.2484 -0.3296
 3598SOL     OW27935   4.077   5.860   5.996 -0.3878 -0.1456  0.2499
 3598SOL    HW127936   4.147   5.906   5.949 -1.1933  0.8918  0.0286
 3598SOL    HW227937   4.072   5.774   5.953 -0.5804  0.5022 -1.0686
 3599SOL     OW27938   1.776   2.960   6.297  0.1659 -0.2112 -0.2940
 3599SOL    HW127939   1.818   3.000   6.221 -2.6544  2.2170 -0.7319
 3599SOL    HW227940   1.757   3.034   6.355 -0.2263 -1.6822  1.5518
 3600SOL     OW27941   3.979   0.804   5.776  0.5427 -0.0334 -0.0752
 3600SOL    HW127942   3.911   0.738   5.791  1.9969 -1.4083  0.6847
 3600SOL    HW227943   3.995   0.800   5.681  0.3167 -0.4378 -0.0973
 3601SOL     OW27944   5.262   3.739   0.426 -0.1443  0.1025 -0.1387
 3601SOL    HW127945   5.231   3.672   0.486  1.7027  0.1370  0.9176
 3601SOL    HW227946   5.263   3.820   0.477  0.2513  0.3884 -0.5829
 3602SOL     OW27947   4.621   1.134   0.297  0.2641 -0.4752 -0.0912
 3602SOL    HW127948   4.543   1.144   0.351  1.6171 -0.4056  1.9721
 3602SOL    HW227949   4.609   1.050   0.253 -1.6922  0.3012 -1.1348
 3603SOL     OW27950   1.764   3.742   5.445  0.1364  0.3685  0.5073
 3603SOL    HW127951   1.702   3.744   5.372  1.4130  0.6326 -0.6261
 3603SOL    HW227952   1.777   3.834   5.469  2.0031  0.5855 -1.0352
 3604SOL     OW27953   1.740   0.613   1.785 -0.0130  0.3094  0.5476
 3604SOL    HW127954   1.673   0.545   1.773  0.0224  0.5822 -1.4993
 3604SOL    HW227955   1.693   0.695   1.775 -0.0230  0.6699  2.8621
 3605SOL     OW27956   2.548   1.994   0.390  0.0006 -0.1863 -0.4140
 3605SOL    HW127957   2.642   2.001   0.374 -0.4431  2.3012 -2.7444
 3605SOL    HW227958   2.529   1.901   0.382  1.9897 -0.5314 -2.0101
 3606SOL     OW27959   6.550   2.834   0.085  0.2563 -0.4416 -0.9151
 3606SOL    HW127960   6.478   2.826   0.023 -1.2258 -1.4033  0.8213
 3606SOL    HW227961   6.596   2.750   0.080 -1.2994 -1.4804  0.8706
 3607SOL     OW27962   5.142   1.142   5.718 -0.4296  0.8137 -0.7340
 3607SOL    HW127963   5.153   1.127   5.811  0.6448  2.5137 -0.5503
 3607SOL    HW227964   5.047   1.135   5.703 -0.5998  0.4725  0.4525
 3608SOL     OW27965   0.596   1.922   7.265 -0.4327  0.1311 -0.1166
 3608SOL    HW127966   0.601   1.935   7.359  1.1282  1.6638 -0.3748
 3608SOL    HW227967   0.520   1.865   7.253 -0.8682  0.1853  2.0211
 3609SOL     OW27968   4.534   0.914   0.500  0.0992  0.0264 -0.4397
 3609SOL    HW127969   4.457   0.963   0.470 -1.6635 -2.3687 -0.2047
 3609SOL    HW227970   4.600   0.980   0.518 -1.8506  2.2049 -0.8506
 3610SOL     OW27971   6.529   0.658   0.074  0.2304  0.1070  0.0446
 3610SOL    HW127972   6.495   0.578   0.114 -0.1992 -0.1503 -0.8057
 3610SOL    HW227973   6.456   0.720   0.076  0.6103  0.5512  0.8520
 3611SOL     OW27974   6.381   2.626   7.038  0.0145 -0.2696  0.2632
 3611SOL    HW127975   6.454   2.626   7.100 -0.5653  2.1058  1.0260
 3611SOL    HW227976   6.356   2.718   7.029 -1.7315 -0.8303 -1.3833
 3612SOL     OW27977   4.921   3.693   2.810 -0.5111 -0.4878  0.4455
 3612SOL    HW127978   4.831   3.723   2.818 -1.2813 -2.4780 -0.0826
 3612SOL    HW227979   4.929   3.666   2.719  1.0280  0.8135  0.1633
 3613SOL     OW27980   6.220   5.113   6.678 -0.6364 -0.1884 -0.2251
 3613SOL    HW127981   6.201   5.027   6.641 -0.5902 -0.0353 -0.6070
 3613SOL    HW227982   6.199   5.104   6.771 -0.4332 -0.6716 -0.2240
 3614SOL     OW27983   3.470   5.553   6.605  0.0275  0.6049 -0.0873
 3614SOL    HW127984   3.399   5.583   6.663 -0.6257 -0.4861 -0.3023
 3614SOL    HW227985   3.427   5.538   6.521  0.1094 -1.8038  0.2373
 3615SOL     OW27986   2.274   3.928   1.082 -0.3019 -0.7670 -0.0417
 3615SOL    HW127987   2.254   3.842   1.044  0.5942 -1.1837  0.4203
 3615SOL    HW227988   2.363   3.948   1.052 -0.7200  0.2989 -0.6664
 3616SOL     OW27989   3.861   1.705   1.367 -0.2910  0.1624  0.6719
 3616SOL    HW127990   3.893   1.729   1.281 -1.3368  1.5263  0.6149
 3616SOL    HW227991   3.904   1.622   1.388 -0.1450 -0.2685 -1.2177
 3617SOL     OW27992   4.319   1.437   6.067  0.1760 -0.0617 -0.6755
 3617SOL    HW127993   4.320   1.484   6.150  0.0221  1.2646 -1.3861
 3617SOL    HW227994   4.411   1.420   6.048  0.2236 -0.2069 -0.3158
 3618SOL     OW27995   2.354   0.347   5.351 -0.6375  1.2133 -0.4291
 3618SOL    HW127996   2.369   0.256   5.375 -1.4931  1.6016  1.7826
 3618SOL    HW227997   2.371   0.350   5.257  0.8200 -0.9061 -0.2966
 3619SOL     OW27998   3.561   0.436   6.049  0.1604  0.2680  0.3225
 3619SOL    HW127999   3.634   0.497   6.041 -0.6201  1.1228 -0.6710
 3619SOL    HW228000   3.513   0.465   6.126  0.4018  0.2149  0.4940
 3620SOL     OW28001   0.469   0.487   1.846  0.6143 -0.2133  0.5117
 3620SOL    HW128002   0.476   0.485   1.941  0.9333 -0.6101  0.4808
 3620SOL    HW228003   0.545   0.537   1.817 -0.4972  1.6114  0.5587
 3621SOL     OW28004   4.967   2.589   0.865 -0.1956  0.2950 -0.3984
 3621SOL    HW128005   5.012   2.546   0.793  0.0394 -0.4897  0.2042
 3621SOL    HW228006   4.973   2.527   0.938 -0.0999  1.2219  0.4100
 3622SOL     OW28007   2.229   5.291   1.723  0.1399  0.2185 -0.1167
 3622SOL    HW128008   2.135   5.304   1.735 -0.2042 -1.5192 -0.5490
 3622SOL    HW228009   2.250   5.343   1.645 -0.8133 -0.5252 -0.9164
 3623SOL     OW28010   3.805   2.614   0.844  0.8897 -0.2834  0.0226
 3623SOL    HW128011   3.841   2.536   0.886  2.3528  0.5604  0.4146
 3623SOL    HW228012   3.718   2.623   0.881  1.1276 -1.1016  0.8252
 3624SOL     OW28013   5.501   2.164   1.022 -0.2147  0.3660  0.4401
 3624SOL    HW128014   5.520   2.071   1.008 -1.2549  0.2394 -0.2921
 3624SOL    HW228015   5.410   2.174   0.996  0.6003  2.1212 -2.2769
 3625SOL     OW28016   5.530   3.832   7.303 -0.6081 -0.6845  0.0338
 3625SOL    HW128017   5.472   3.846   7.228 -3.5491 -2.9819  1.6374
 3625SOL    HW228018   5.471   3.830   7.379  1.8795 -1.0007  2.1104
 3626SOL     OW28019   5.572   3.456   1.116  0.9060 -0.0892 -0.0243
 3626SOL    HW128020   5.653   3.496   1.084  1.5807  0.1232  1.7878
 3626SOL    HW228021   5.589   3.441   1.209 -0.5067 -1.7064  0.0088
 3627SOL     OW28022   2.742   0.760   6.833  0.1502  0.4649 -0.0060
 3627SOL    HW128023   2.770   0.760   6.741 -0.4781  0.7083 -0.2042
 3627SOL    HW228024   2.649   0.738   6.829  0.3602 -0.5656  0.6541
 3628SOL     OW28025   3.536   2.983   1.556 -0.2611 -0.1991 -0.1896
 3628SOL    HW128026   3.535   2.997   1.651  2.2278  0.9697 -0.2250
 3628SOL    HW228027   3.522   3.070   1.519 -1.1527 -0.6359 -0.9028
 3629SOL     OW28028   3.816   3.035   0.375 -0.1335 -0.2868 -0.1180
 3629SOL    HW128029   3.777   2.993   0.298 -1.9710  1.4229 -0.1880
 3629SOL    HW228030   3.910   3.033   0.358 -0.4469 -0.6177 -2.0545
 3630SOL     OW28031   2.559   2.580   1.258  0.2130 -0.1773  0.0275
 3630SOL    HW128032   2.528   2.656   1.308 -0.7819 -0.4670 -0.1303
 3630SOL    HW228033   2.642   2.556   1.300 -0.5563 -0.3585  1.4878
 3631SOL     OW28034   2.764   3.475   6.465 -0.1081  0.0075  0.5611
 3631SOL    HW128035   2.831   3.464   6.532 -1.3426  0.1549  1.8489
 3631SOL    HW228036   2.803   3.437   6.386  2.3922  2.0726  0.6511
 3632SOL     OW28037   1.009   3.485   0.017  0.0345 -0.2097  0.0027
 3632SOL    HW128038   0.981   3.410   0.070 -0.9530  0.9923  1.2586
 3632SOL    HW228039   1.002   3.560   0.076  1.2058  0.8656 -1.1507
 3633SOL     OW28040   4.271   0.058   2.192 -0.0881 -0.2891 -0.3404
 3633SOL    HW128041   4.250   0.141   2.149  0.5187 -0.3793 -0.8183
 3633SOL    HW228042   4.209  -0.005   2.154 -0.2662 -0.1415 -0.2930
 3634SOL     OW28043   5.254   6.054   2.371 -0.1154  0.2062 -0.3658
 3634SOL    HW128044   5.337   6.022   2.404 -0.2137  0.2860 -0.0407
 3634SOL    HW228045   5.256   6.034   2.277 -0.4423 -1.3175 -0.0707
 3635SOL     OW28046   3.482   3.698   0.102  0.4840  0.3014  0.0553
 3635SOL    HW128047   3.477   3.673   0.195 -0.2192 -0.5977 -0.2122
 3635SOL    HW228048   3.514   3.620   0.058 -1.5978 -0.1491 -0.7742
 3636SOL     OW28049   0.110   6.150   0.220  0.1262 -0.4969 -0.4261
 3636SOL    HW128050   0.141   6.156   0.130 -0.5250 -1.6569 -0.7442
 3636SOL    HW228051   0.159   6.218   0.267  0.6459 -0.0415 -1.5924
 3637SOL     OW28052   4.859   2.493   6.154  0.0575 -0.0171  0.7375
 3637SOL    HW128053   4.949   2.461   6.163  0.3461  0.3613 -0.5454
 3637SOL    HW228054   4.862   2.550   6.077 -1.2043  0.3074  0.9115
 3638SOL     OW28055   2.306   1.038   1.373 -0.0856  0.2453  0.8753
 3638SOL    HW128056   2.281   0.968   1.434  0.8380  0.6091  1.6956
 3638SOL    HW228057   2.389   1.008   1.337 -0.5005  0.1587 -0.0285
 3639SOL     OW28058   2.501   2.380   6.039  0.7739 -0.0048 -0.4199
 3639SOL    HW128059   2.584   2.395   5.994 -0.0157  0.4047 -1.8143
 3639SOL    HW228060   2.436   2.377   5.969 -0.3058 -1.0378  0.5808
 3640SOL     OW28061   5.454   2.509   0.354  0.2327 -0.1420  0.1538
 3640SOL    HW128062   5.503   2.499   0.272 -0.6182  2.5949 -0.7970
 3640SOL    HW228063   5.398   2.431   0.358  3.5632 -2.7298  0.6421
 3641SOL     OW28064   4.765   1.439   1.992 -0.7790 -0.6161  0.5659
 3641SOL    HW128065   4.683   1.401   1.960 -1.0415  0.1650  0.2738
 3641SOL    HW228066   4.747   1.533   1.995  0.3392 -0.3619 -0.2058
 3642SOL     OW28067   4.753   4.961   0.137 -0.0097 -0.2199  0.2554
 3642SOL    HW128068   4.708   4.876   0.139 -0.7306  0.1304 -0.6220
 3642SOL    HW228069   4.825   4.951   0.199 -0.1656 -1.4305  0.2657
 3643SOL     OW28070   0.265   2.089   7.270  0.0636  0.3715  0.1500
 3643SOL    HW128071   0.238   2.056   7.355  1.4643 -0.1828  0.4149
 3643SOL    HW228072   0.191   2.069   7.212 -0.4543 -0.2451  0.9988
 3644SOL     OW28073   0.673   5.439   1.925  0.4108 -0.2223  0.3936
 3644SOL    HW128074   0.682   5.514   1.984 -1.1589  0.1489  0.2192
 3644SOL    HW228075   0.735   5.456   1.854 -0.6276  1.4664 -0.1660
 3645SOL     OW28076   5.783   4.251   0.075  0.0203  0.0438  0.0450
 3645SOL    HW128077   5.830   4.324   0.114 -0.4575 -0.0894  0.8845
 3645SOL    HW228078   5.691   4.267   0.097 -0.0847 -0.8206  0.2522
 3646SOL     OW28079   0.136   0.279   7.470  0.5168 -0.1444  0.1847
 3646SOL    HW128080   0.143   0.350   7.406 -1.1222 -0.1510 -0.0413
 3646SOL    HW228081   0.095   0.207   7.422 -0.2266 -0.3422  1.0930
 3647SOL     OW28082   3.682   0.171   5.034  0.3337 -0.1479 -0.6752
 3647SOL    HW128083   3.636   0.235   4.980  1.9388  1.8343  0.1630
 3647SOL    HW228084   3.760   0.149   4.983  0.2016 -0.8121 -0.5932
 3648SOL     OW28085   5.763   4.249   4.920  0.4232 -0.8119  0.5703
 3648SOL    HW128086   5.695   4.316   4.923  0.8613 -0.2946 -0.3492
 3648SOL    HW228087   5.837   4.293   4.878  0.9088 -1.7199  0.4479
 3649SOL     OW28088   3.280   6.397   6.506  0.0778  0.0569 -0.0078
 3649SOL    HW128089   3.213   6.346   6.552 -0.3110  0.5736  0.0085
 3649SOL    HW228090   3.338   6.331   6.468 -1.2029 -0.4660 -1.1955
 3650SOL     OW28091   6.497   3.948   7.190 -0.3284  0.3071  0.2086
 3650SOL    HW128092   6.529   4.031   7.228 -1.0193 -0.0215  1.5685
 3650SOL    HW228093   6.403   3.962   7.178 -0.1912  0.2455 -1.0242
 3651SOL     OW28094   0.891   0.828   0.195 -0.1129  0.5709 -0.7709
 3651SOL    HW128095   0.943   0.902   0.161  0.9749 -0.1956 -0.8385
 3651SOL    HW228096   0.944   0.751   0.175  0.0422 -0.0111  1.6638
 3652SOL     OW28097   4.426   5.104   5.177  0.4024  0.5624  0.0150
 3652SOL    HW128098   4.490   5.073   5.112  2.1789  2.0701  0.9497
 3652SOL    HW228099   4.454   5.063   5.259  1.1187  2.3707  0.7213
 3653SOL     OW28100   5.127   1.235   0.212  0.5996 -0.2255 -0.7082
 3653SOL    HW128101   5.182   1.240   0.133 -0.3513 -2.0946 -1.5408
 3653SOL    HW228102   5.038   1.245   0.179  0.2649  0.3941  0.3406
 3654SOL     OW28103   0.027   6.220   2.270  0.1758 -0.1543 -0.0126
 3654SOL    HW128104  -0.011   6.302   2.238  0.4659  0.3865  0.9731
 3654SOL    HW228105   0.072   6.182   2.194  0.2848  0.7502 -0.4070
 3655SOL     OW28106   1.433   1.569   1.446 -0.6964 -0.4503 -0.2433
 3655SOL    HW128107   1.402   1.653   1.480 -0.0453  0.5040 -1.8595
 3655SOL    HW228108   1.476   1.592   1.364  0.6528 -2.2224 -0.0814
 3656SOL     OW28109   5.362   2.684   1.155  0.0831  0.0821 -0.0264
 3656SOL    HW128110   5.270   2.697   1.177  0.8007  3.5616  1.6673
 3656SOL    HW228111   5.366   2.695   1.060 -1.3021 -1.0765 -0.2534
 3657SOL     OW28112   5.616   5.149   2.073  0.1744 -0.2838 -0.1190
 3657SOL    HW128113   5.610   5.057   2.099 -0.3093  0.0315  0.9407
 3657SOL    HW228114   5.529   5.170   2.039  0.4360 -0.3519 -0.8367
 3658SOL     OW28115   3.078   0.022   0.597  0.2422 -0.6859 -0.3139
 3658SOL    HW128116   3.101  -0.048   0.659  0.9823  0.4319  0.7148
 3658SOL    HW228117   3.162   0.047   0.557  0.1977  0.4376  0.2472
 3659SOL     OW28118   3.407   5.060   6.624 -0.4261 -0.3934  0.2394
 3659SOL    HW128119   3.321   5.022   6.641 -0.3062  0.0868  2.1751
 3659SOL    HW228120   3.463   5.024   6.693  0.9244 -0.6120 -0.9226
 3660SOL     OW28121   2.931   0.582   6.985 -0.3018 -0.0083 -0.3294
 3660SOL    HW128122   2.892   0.652   6.933 -0.2330  0.0718 -0.2733
 3660SOL    HW228123   3.025   0.601   6.986 -0.4877  1.0899  1.4171
 3661SOL     OW28124   2.801   3.358   0.756 -0.5727 -0.1870 -0.3638
 3661SOL    HW128125   2.823   3.413   0.680 -0.2207  0.6256  0.3111
 3661SOL    HW228126   2.839   3.273   0.735 -1.7843 -0.4297 -1.7783
 3662SOL     OW28127   0.839   2.423   0.555 -0.2824 -0.4046  0.1505
 3662SOL    HW128128   0.821   2.379   0.472  0.5427  0.4882 -0.5139
 3662SOL    HW228129   0.855   2.352   0.617 -2.6222 -1.1602 -0.0056
 3663SOL     OW28130   1.200   2.429   7.092  0.2240  0.0081 -0.3881
 3663SOL    HW128131   1.281   2.446   7.043  0.5307 -0.0173  0.1121
 3663SOL    HW228132   1.215   2.346   7.137  0.7825  1.0713  1.4813
 3664SOL     OW28133   5.471   3.219   6.102  0.5510 -0.5457 -0.1237
 3664SOL    HW128134   5.513   3.241   6.019  0.7066 -0.7400 -0.0964
 3664SOL    HW228135   5.478   3.124   6.109  0.1031 -0.5834 -0.1194
 3665SOL     OW28136   0.882   0.890   1.101 -0.4190  0.1053 -0.0578
 3665SOL    HW128137   0.907   0.943   1.025 -2.5772  2.9129  1.0569
 3665SOL    HW228138   0.953   0.904   1.164  0.0267 -0.0367 -0.5152
 3666SOL     OW28139   3.635   6.302   0.168  0.0487 -0.4088 -0.4013
 3666SOL    HW128140   3.601   6.365   0.105  0.3967 -0.0466 -0.2262
 3666SOL    HW228141   3.660   6.226   0.115  1.1472  0.2234 -0.8015
 3667SOL     OW28142   3.288   4.607   0.999 -0.0772 -0.0842  0.4201
 3667SOL    HW128143   3.200   4.577   1.019 -0.0821 -1.0081 -0.9346
 3667SOL    HW228144   3.322   4.638   1.084 -0.4080 -3.0053  1.7583
 3668SOL     OW28145   4.768   0.397   6.786 -0.5186 -0.1596  0.1923
 3668SOL    HW128146   4.694   0.360   6.834 -0.7063  0.3306  0.2861
 3668SOL    HW228147   4.790   0.331   6.720 -1.1028 -0.2609  0.0951
 3669SOL     OW28148   5.154   1.722   0.779 -0.3307  0.5773 -0.8428
 3669SOL    HW128149   5.062   1.718   0.754 -0.2130 -0.8174 -1.1436
 3669SOL    HW228150   5.157   1.682   0.866  0.3840 -2.7491 -2.2107
 3670SOL     OW28151   0.626   4.405   7.126 -0.0529  0.2816 -0.1963
 3670SOL    HW128152   0.695   4.339   7.129  0.2922  0.6719  1.5486
 3670SOL    HW228153   0.545   4.355   7.141  0.1254  0.1532  0.3457
 3671SOL     OW28154   4.225   1.717   0.388  0.6317  0.9810 -0.2378
 3671SOL    HW128155   4.205   1.768   0.310 -2.6685  0.3073 -0.0115
 3671SOL    HW228156   4.180   1.633   0.374  0.8869  0.4127  1.8847
 3672SOL     OW28157   1.064   6.541   1.919 -0.2086 -0.9239  0.0893
 3672SOL    HW128158   1.030   6.471   1.864 -1.7496  0.3304 -0.6116
 3672SOL    HW228159   1.020   6.528   2.003 -0.8700 -0.5139 -0.1906
 3673SOL     OW28160   2.153   0.538   5.351  0.0878 -0.1250  0.3694
 3673SOL    HW128161   2.228   0.500   5.306 -0.9695  1.6189 -3.2840
 3673SOL    HW228162   2.090   0.467   5.358 -0.6639 -0.0166 -3.4330
 3674SOL     OW28163   5.958   5.322   5.541 -0.7490  0.2140  0.4662
 3674SOL    HW128164   5.866   5.296   5.543 -0.5459 -0.6023 -0.2779
 3674SOL    HW228165   5.976   5.340   5.448 -0.6209  2.1133  0.8087
 3675SOL     OW28166   5.934   5.730   5.385 -0.0748 -0.1413  0.1098
 3675SOL    HW128167   5.929   5.824   5.366 -0.0993  0.1122  1.3045
 3675SOL    HW228168   5.901   5.688   5.306  0.6461  0.8253 -0.7377
 3676SOL     OW28169   6.156   5.518   5.101 -0.3653 -0.1862  0.5675
 3676SOL    HW128170   6.133   5.493   5.012  0.6182 -0.6984  0.4466
 3676SOL    HW228171   6.168   5.434   5.147  0.3216  0.0623  0.8561
 3677SOL     OW28172   0.775   6.113   6.909  0.3555 -0.1333  0.2819
 3677SOL    HW128173   0.823   6.078   6.985  0.5460 -1.9714 -0.6263
 3677SOL    HW228174   0.835   6.103   6.836 -0.6850 -0.6415 -0.5311
 3678SOL     OW28175   0.662   3.534   0.822 -0.0782  0.2138 -0.2237
 3678SOL    HW128176   0.716   3.455   0.829  0.9480  0.9691  0.8134
 3678SOL    HW228177   0.721   3.599   0.783  0.0421  1.2774  1.6460
 3679SOL     OW28178   3.640   4.248   6.321 -0.1393 -0.3169  0.0337
 3679SOL    HW128179   3.547   4.230   6.312  0.2984 -3.2630  0.4226
 3679SOL    HW228180   3.653   4.333   6.277 -3.2609  1.1739  1.6785
 3680SOL     OW28181   1.565   1.001   0.571  0.2950 -0.2591  0.3407
 3680SOL    HW128182   1.524   0.930   0.620  1.9566 -0.8489  0.9660
 3680SOL    HW228183   1.510   1.077   0.588 -1.2428 -1.2603  0.0706
 3681SOL     OW28184   1.325   2.140   5.744  0.2502  0.4838  0.6880
 3681SOL    HW128185   1.366   2.070   5.694 -0.6475 -1.2543  2.2667
 3681SOL    HW228186   1.397   2.199   5.766  0.8638  0.6338 -1.4959
 3682SOL     OW28187   3.885   1.836   0.369  0.0556 -0.4808  0.1343
 3682SOL    HW128188   3.888   1.775   0.295 -0.9738 -1.5323  0.9094
 3682SOL    HW228189   3.803   1.815   0.414  1.0572 -0.4741  2.0860
 3683SOL     OW28190   1.230   0.755   0.404  0.4359 -0.0201  0.1292
 3683SOL    HW128191   1.234   0.850   0.395 -0.6599  0.3153  2.3229
 3683SOL    HW228192   1.300   0.734   0.467 -0.5916 -0.3662  1.1956
 3684SOL     OW28193   1.956   0.834   1.653  0.0566  0.2839  0.0071
 3684SOL    HW128194   1.874   0.873   1.682 -0.0002  0.3065 -0.1828
 3684SOL    HW228195   1.938   0.803   1.564 -0.3981 -1.6735  0.7393
 3685SOL     OW28196   1.960   4.934   0.682  0.6352 -0.0763  0.3886
 3685SOL    HW128197   1.963   4.838   0.681 -0.6112 -0.1362  0.6471
 3685SOL    HW228198   1.997   4.959   0.767  2.7914 -0.2077 -0.4497
 3686SOL     OW28199   3.048   3.957   7.394 -0.7109 -0.0135  0.0338
 3686SOL    HW128200   3.119   3.986   7.337 -1.2858 -0.4414 -0.9358
 3686SOL    HW228201   3.088   3.892   7.452 -0.2595 -0.0891 -0.3574
 3687SOL     OW28202   0.112   1.663   0.050  0.0997  0.4282  0.1150
 3687SOL    HW128203   0.201   1.651   0.083 -0.3874  0.0553  1.3201
 3687SOL    HW228204   0.078   1.574   0.041 -0.2050  0.5770 -0.2291
 3688SOL     OW28205   1.633   4.817   0.896  0.3004  0.5261 -0.5484
 3688SOL    HW128206   1.698   4.799   0.963 -0.6760  0.1112  0.3126
 3688SOL    HW228207   1.658   4.902   0.860  1.4048  0.2938 -0.3537
 3689SOL     OW28208   4.033   0.774   0.783  0.2599  0.1747 -0.2051
 3689SOL    HW128209   3.972   0.845   0.800 -0.0277  0.3525 -1.8803
 3689SOL    HW228210   4.092   0.808   0.715  1.7782 -0.2606  0.8275
 3690SOL     OW28211   5.370   1.524   0.721 -0.3047  0.4043 -0.2485
 3690SOL    HW128212   5.317   1.593   0.762 -0.3009 -0.2662  0.9447
 3690SOL    HW228213   5.315   1.445   0.728  0.9834 -0.4037  1.4164
 3691SOL     OW28214   2.416   1.499   2.308  0.3769 -0.4606 -0.3059
 3691SOL    HW128215   2.383   1.416   2.342  1.1671 -0.5180  0.3347
 3691SOL    HW228216   2.487   1.523   2.367  1.2130 -0.1311 -1.4201
 3692SOL     OW28217   0.304   2.471   6.150 -0.8017  0.2915  0.6003
 3692SOL    HW128218   0.309   2.480   6.245 -3.3962 -0.4465  0.8973
 3692SOL    HW228219   0.258   2.549   6.120 -0.0246  0.5096 -0.0761
 3693SOL     OW28220   1.075   6.355   5.986 -0.4017 -0.4772  0.0890
 3693SOL    HW128221   1.103   6.335   5.897  1.2264  0.8067  0.2703
 3693SOL    HW228222   1.000   6.414   5.975  0.1851  0.1823 -0.4451
 3694SOL     OW28223   3.764   4.710   1.927 -0.2105 -0.1481 -0.4716
 3694SOL    HW128224   3.838   4.654   1.904  2.1028  2.2325  0.6678
 3694SOL    HW228225   3.730   4.673   2.009  1.4119  0.1299  0.3746
 3695SOL     OW28226   2.012   3.031   0.298 -0.5938  0.0823 -0.2416
 3695SOL    HW128227   1.987   3.013   0.208  0.9150  0.0746 -0.6811
 3695SOL    HW228228   1.940   3.084   0.333 -0.6267  1.1477 -1.8304
 3696SOL     OW28229   0.731   0.185   1.264 -0.1710 -0.8600 -0.2583
 3696SOL    HW128230   0.721   0.187   1.169  0.5417  0.3905 -0.3294
 3696SOL    HW228231   0.823   0.162   1.279 -0.1722 -0.6431  0.1137
 3697SOL     OW28232   4.079   2.809   6.673  0.0323 -0.1578 -0.1774
 3697SOL    HW128233   4.013   2.768   6.617  0.4794  0.6953 -1.3764
 3697SOL    HW228234   4.153   2.749   6.671  0.4933  0.4134 -1.5090
 3698SOL     OW28235   2.885   1.225   1.174  0.2310  0.2666 -0.0622
 3698SOL    HW128236   2.976   1.203   1.152  0.1744  0.8449 -0.9008
 3698SOL    HW228237   2.856   1.152   1.228  1.2626  0.1770  0.3901
 3699SOL     OW28238   2.662   0.330   5.211  0.0658  0.2416  0.0081
 3699SOL    HW128239   2.665   0.256   5.271  0.6759 -0.2739 -0.6257
 3699SOL    HW228240   2.595   0.306   5.147 -2.6608  2.0419  1.9905
 3700SOL     OW28241   0.795   5.045   7.175 -0.3159  0.2310 -0.2052
 3700SOL    HW128242   0.772   4.969   7.122  2.1334 -0.5718 -0.2550
 3700SOL    HW228243   0.759   5.120   7.128  0.3794 -0.6036 -2.1657
 3701SOL     OW28244   0.401   1.561   1.982 -0.4484 -0.1367 -0.1217
 3701SOL    HW128245   0.458   1.512   1.923  0.4641 -2.3182  2.3524
 3701SOL    HW228246   0.320   1.573   1.932  0.1606 -2.1059 -1.7315
 3702SOL     OW28247   1.613   6.590   0.233 -0.2950 -0.1624 -0.1603
 3702SOL    HW128248   1.654   6.504   0.242 -2.6319 -1.3954 -0.6502
 3702SOL    HW228249   1.684   6.652   0.251  1.5649 -2.1578 -0.2224
 3703SOL     OW28250   4.677   4.851   5.836 -0.0470  0.2615  0.3700
 3703SOL    HW128251   4.630   4.884   5.759 -1.7928 -1.1673  0.7412
 3703SOL    HW228252   4.711   4.765   5.809  0.1824  0.1867  0.8825
 3704SOL     OW28253   5.857   0.118   0.236 -1.0724  0.0393 -0.6149
 3704SOL    HW128254   5.815   0.069   0.165  0.2427 -1.4444 -0.4010
 3704SOL    HW228255   5.858   0.209   0.205 -1.3067 -0.4470 -2.0984
 3705SOL     OW28256   4.156   4.003   0.598  0.6709  0.6371 -0.2763
 3705SOL    HW128257   4.145   3.946   0.674 -2.0221  2.2928  0.6901
 3705SOL    HW228258   4.122   3.951   0.525  2.2600 -0.5500 -0.2254
 3706SOL     OW28259   2.430   6.162   1.166  0.0137 -0.0727  0.4553
 3706SOL    HW128260   2.339   6.188   1.182  0.0038  0.9068 -1.0396
 3706SOL    HW228261   2.424   6.091   1.102  0.3656  2.1970 -2.2567
 3707SOL     OW28262   0.056   5.394   1.434 -0.6915 -0.5155 -0.0637
 3707SOL    HW128263   0.069   5.458   1.363  0.9981 -0.3177  0.3794
 3707SOL    HW228264   0.008   5.442   1.501 -1.0358 -0.2773 -0.4702
 3708SOL     OW28265   4.616   6.092   1.442  0.2295 -0.3363  0.5344
 3708SOL    HW128266   4.554   6.066   1.510  0.7962 -1.2058  0.7372
 3708SOL    HW228267   4.631   6.185   1.457 -0.6162 -0.2424  0.8148
 3709SOL     OW28268   5.307   3.469   6.059  0.2128 -0.0808 -0.4638
 3709SOL    HW128269   5.347   3.415   6.127  0.1038  2.1886  1.5544
 3709SOL    HW228270   5.380   3.494   6.002  0.5633 -0.8965 -0.3827
 3710SOL     OW28271   4.730   3.906   6.877  0.1018  0.0022  0.3432
 3710SOL    HW128272   4.717   3.820   6.838  2.0968  0.0861 -0.6304
 3710SOL    HW228273   4.779   3.955   6.811  0.4572  1.3331  1.5381
 3711SOL     OW28274   2.310   2.166   6.665  0.1977  0.3347  0.1264
 3711SOL    HW128275   2.320   2.260   6.653 -2.3628  0.6357 -0.2035
 3711SOL    HW228276   2.289   2.155   6.757  0.1213  0.1145  0.0843
 3712SOL     OW28277   4.566   0.409   6.128  0.1061 -0.1511  0.3972
 3712SOL    HW128278   4.628   0.340   6.105  1.4179  1.3266 -0.7456
 3712SOL    HW228279   4.516   0.424   6.048  1.0793  1.4175  0.0369
 3713SOL     OW28280   3.171   0.692   1.333 -0.2682 -0.1390 -0.2603
 3713SOL    HW128281   3.201   0.657   1.416  0.2937  0.7490 -0.0712
 3713SOL    HW228282   3.249   0.690   1.277 -0.9704 -2.0804 -1.2591
 3714SOL     OW28283   0.799   3.220   7.272 -0.6191  0.0714 -0.2403
 3714SOL    HW128284   0.884   3.245   7.307 -1.2456  2.3284 -0.2186
 3714SOL    HW228285   0.743   3.208   7.348 -0.1116 -2.5093 -0.1908
 3715SOL     OW28286   1.096   2.988   1.209  0.3052 -0.1239  0.4333
 3715SOL    HW128287   1.180   3.018   1.245  0.2149  0.0590  0.4903
 3715SOL    HW228288   1.110   2.895   1.191  0.5497 -0.0741  0.3595
 3716SOL     OW28289   6.090   5.300   6.858  0.6241  0.4815 -0.5254
 3716SOL    HW128290   6.109   5.346   6.940 -0.7559  2.7900 -1.3778
 3716SOL    HW228291   6.167   5.317   6.803  1.3002 -0.5902  0.0471
 3717SOL     OW28292   0.397   3.085   6.981  0.9404 -0.0290 -0.1022
 3717SOL    HW128293   0.366   3.024   6.914  0.0138 -2.5064  2.3619
 3717SOL    HW228294   0.490   3.096   6.963  0.8308 -1.0800 -1.4609
 3718SOL     OW28295   5.373   0.081   0.469 -0.1036 -0.3896 -0.2077
 3718SOL    HW128296   5.441   0.060   0.533 -1.2246 -0.9888  0.8292
 3718SOL    HW228297   5.407   0.158   0.423 -0.0278  1.2208  2.3441
 3719SOL     OW28298   1.930   4.740   5.556  0.1202 -0.3134 -0.2592
 3719SOL    HW128299   2.023   4.726   5.538  0.6660  0.8201  1.4067
 3719SOL    HW228300   1.910   4.825   5.517 -0.0422 -0.2460 -0.0335
 3720SOL     OW28301   1.474   6.234   0.025 -0.0851  0.4708 -0.3267
 3720SOL    HW128302   1.469   6.144  -0.010 -0.7299  0.9673 -1.6020
 3720SOL    HW228303   1.405   6.238   0.090  0.1875 -0.0672  0.0019
 3721SOL     OW28304   5.438   3.542   0.849 -0.4246 -0.2283 -0.2440
 3721SOL    HW128305   5.483   3.519   0.930 -0.0903  0.7028 -0.1555
 3721SOL    HW228306   5.501   3.595   0.800 -1.5914  1.5799  0.1266
 3722SOL     OW28307   2.718   2.723   0.144 -0.0598 -0.3141  0.3190
 3722SOL    HW128308   2.675   2.716   0.059 -1.4047 -1.4387  1.0642
 3722SOL    HW228309   2.802   2.765   0.124 -0.4297 -0.3551 -1.5217
 3723SOL     OW28310   3.850   1.102   2.586 -0.3617 -0.4411 -0.3742
 3723SOL    HW128311   3.760   1.129   2.603 -0.2723  0.9653 -1.8532
 3723SOL    HW228312   3.842   1.016   2.545 -1.1322  0.1051 -1.4245
 3724SOL     OW28313   4.108   1.564   1.057  0.4471  0.1819  0.2706
 3724SOL    HW128314   4.083   1.482   1.016  0.5373  0.2763  0.0254
 3724SOL    HW228315   4.144   1.617   0.986 -0.1539  0.6568  0.3083
 3725SOL     OW28316   3.056   0.882   6.600  0.1062 -0.0749 -0.6431
 3725SOL    HW128317   2.984   0.944   6.584 -0.9081 -1.5662 -2.1632
 3725SOL    HW228318   3.095   0.912   6.682 -1.8415  1.1803 -0.0968
 3726SOL     OW28319   0.559   3.069   5.768 -0.4911 -0.1123 -0.5261
 3726SOL    HW128320   0.484   3.011   5.754 -1.0199  0.9250 -2.3471
 3726SOL    HW228321   0.617   3.051   5.695 -0.1395  0.8529 -0.5014
 3727SOL     OW28322   2.693   1.574   1.438  0.3019 -0.1440  0.0628
 3727SOL    HW128323   2.770   1.615   1.476  0.7404 -0.9986  0.1142
 3727SOL    HW228324   2.640   1.647   1.405  1.5071  0.4125 -0.7024
 3728SOL     OW28325   3.876   0.851   1.502 -0.0161  0.9625  0.6010
 3728SOL    HW128326   3.849   0.909   1.573 -1.8604  0.6126  0.2365
 3728SOL    HW228327   3.859   0.763   1.535  0.9927  0.7010  0.4503
 3729SOL     OW28328   1.997   4.091   5.640  0.1013  0.1309  0.4331
 3729SOL    HW128329   2.079   4.089   5.591 -1.0377  1.7038 -1.7146
 3729SOL    HW228330   1.931   4.059   5.578 -0.9847 -0.9609  2.0541
 3730SOL     OW28331   1.608   4.733   1.799  0.7330  0.2217  0.1926
 3730SOL    HW128332   1.669   4.781   1.856  1.8788  1.4367 -1.9606
 3730SOL    HW228333   1.657   4.655   1.772  0.4763  0.0433  0.2368
 3731SOL     OW28334   0.541   4.870   0.980 -0.1817  0.0129 -0.4697
 3731SOL    HW128335   0.458   4.856   0.936  0.2577 -1.6731 -0.8341
 3731SOL    HW228336   0.603   4.816   0.932  1.1216  1.1319 -0.1324
 3732SOL     OW28337   2.499   6.205   0.650 -0.0578 -0.1415 -0.2649
 3732SOL    HW128338   2.472   6.281   0.599 -0.8138 -0.2470 -0.0349
 3732SOL    HW228339   2.419   6.175   0.693  0.9085  1.3993  2.9774
 3733SOL     OW28340   2.248   5.793   0.093  0.0644 -0.1153  0.1647
 3733SOL    HW128341   2.153   5.793   0.104 -0.1620 -1.4523 -1.4454
 3733SOL    HW228342   2.278   5.869   0.142 -1.8747  0.5722  0.3506
 3734SOL     OW28343   3.530   5.330   1.274  0.2404 -0.1960  0.6760
 3734SOL    HW128344   3.563   5.335   1.363  0.0082  0.0379  0.7513
 3734SOL    HW228345   3.563   5.246   1.240 -0.1294 -0.5452  1.1708
 3735SOL     OW28346   1.825   6.197   5.054 -0.7124  0.4069  0.5064
 3735SOL    HW128347   1.755   6.163   5.109 -0.6339  0.5561  0.6986
 3735SOL    HW228348   1.901   6.204   5.112 -0.7959  1.1610  0.5359
 3736SOL     OW28349   1.420   3.108   6.875 -0.0207  0.5804  0.4413
 3736SOL    HW128350   1.480   3.163   6.825  0.0657  0.8110  0.7928
 3736SOL    HW228351   1.333   3.128   6.838  0.0451  0.7285  0.3657
 3737SOL     OW28352   6.455   5.500   7.444 -0.2066  0.2018 -0.1485
 3737SOL    HW128353   6.448   5.405   7.456 -1.6057  0.4580  1.3959
 3737SOL    HW228354   6.427   5.515   7.353  0.6162 -0.8944 -0.6080
 3738SOL     OW28355   1.956   3.751   0.689  0.0745 -0.3657 -0.7530
 3738SOL    HW128356   1.986   3.789   0.606  0.9398 -1.5226 -0.9930
 3738SOL    HW228357   1.998   3.805   0.756 -1.1588  1.0044 -1.0119
 3739SOL     OW28358   0.442   3.982   0.322 -0.2501 -0.1751 -0.2683
 3739SOL    HW128359   0.532   3.962   0.350 -0.0827 -1.9975 -1.8450
 3739SOL    HW228360   0.387   3.927   0.378 -0.5471  1.8264  1.5199
 3740SOL     OW28361   1.466   2.426   1.050 -0.1159 -0.0097 -0.3492
 3740SOL    HW128362   1.421   2.430   0.965 -3.4499  4.8211  1.1947
 3740SOL    HW228363   1.401   2.388   1.109  0.4273  0.8034  0.8014
 3741SOL     OW28364   5.021   1.968   0.881  0.3028  0.2916 -0.0417
 3741SOL    HW128365   5.006   1.955   0.975 -1.3438 -0.4420 -0.3520
 3741SOL    HW228366   5.112   1.944   0.867  0.6655  0.7225  1.4121
 3742SOL     OW28367   2.612   4.274   5.011  0.4781  0.4113  0.4431
 3742SOL    HW128368   2.549   4.211   4.976  0.3168  0.3322  0.8741
 3742SOL    HW228369   2.620   4.251   5.103  0.2746  1.1442  0.6483
 3743SOL     OW28370   5.090   5.269   2.426  0.5435  0.2824 -0.0126
 3743SOL    HW128371   5.109   5.358   2.397 -0.5669  0.4218 -0.3840
 3743SOL    HW228372   5.168   5.219   2.403  0.2046  0.6416 -2.1949
 3744SOL     OW28373   0.523   0.324   1.343  0.0019  0.1795 -0.1664
 3744SOL    HW128374   0.594   0.263   1.324  1.6665  1.8878  0.1702
 3744SOL    HW228375   0.451   0.269   1.375  1.6426 -1.5331  0.8076
 3745SOL     OW28376   1.817   6.243   5.511  0.7320  0.4584 -0.0321
 3745SOL    HW128377   1.815   6.293   5.593 -0.6286 -0.8373  0.7504
 3745SOL    HW228378   1.727   6.217   5.496  0.8659  1.0348 -2.2247
 3746SOL     OW28379   3.820   3.442   1.657  0.4371  0.3019  0.3350
 3746SOL    HW128380   3.773   3.413   1.736 -0.9407 -0.1266 -0.5903
 3746SOL    HW228381   3.753   3.487   1.605  1.4569  1.0660 -0.3521
 3747SOL     OW28382   4.773   1.737   7.223  0.3064  0.6768  0.0458
 3747SOL    HW128383   4.787   1.645   7.200 -2.8790  0.3294 -0.9765
 3747SOL    HW228384   4.708   1.735   7.293 -0.7471  2.1158 -0.8094
 3748SOL     OW28385   1.353   2.659   7.363  0.1341  0.0030  0.3652
 3748SOL    HW128386   1.380   2.701   7.282  0.1846  0.2051  0.4866
 3748SOL    HW228387   1.435   2.644   7.411  0.0903  0.0452  0.4551
 3749SOL     OW28388   0.572   3.939   7.108  0.2750 -0.4366  0.2705
 3749SOL    HW128389   0.658   3.928   7.149 -0.1306  1.0727  1.6423
 3749SOL    HW228390   0.518   3.976   7.178 -1.2094 -0.3397 -0.8935
 3750SOL     OW28391   1.568   4.608   6.927  0.6016 -0.4417  0.2537
 3750SOL    HW128392   1.656   4.609   6.889  0.5822 -0.7702  0.2023
 3750SOL    HW228393   1.573   4.673   6.998  0.8731 -0.4289  0.2264
 3751SOL     OW28394   6.586   1.955   0.757 -0.5948  0.2863 -0.2016
 3751SOL    HW128395   6.506   2.003   0.775 -0.8687 -0.0849 -0.3948
 3751SOL    HW228396   6.590   1.887   0.824 -0.2793  0.4939 -0.0068
 3752SOL     OW28397   0.965   1.770   1.496  0.0607  0.1203  0.6485
 3752SOL    HW128398   0.946   1.677   1.484 -0.6673  0.3288  0.1391
 3752SOL    HW228399   1.002   1.775   1.585 -2.1503 -0.3518  1.6699
 3753SOL     OW28400   2.116   2.951   5.843 -0.1362 -0.0626 -0.4220
 3753SOL    HW128401   2.111   2.902   5.761  1.4992  0.3843 -0.8380
 3753SOL    HW228402   2.135   3.041   5.816  0.3685  0.1059  0.4366
 3754SOL     OW28403   3.550   6.213   6.819  0.4147  0.6450 -0.1073
 3754SOL    HW128404   3.564   6.306   6.834  0.0650  0.8220 -0.8509
 3754SOL    HW228405   3.549   6.203   6.724  1.3974 -0.2662 -0.0482
 3755SOL     OW28406   4.021   6.514   7.242  0.8222 -0.1920  0.0770
 3755SOL    HW128407   4.081   6.568   7.293 -0.6549 -0.6580  2.4296
 3755SOL    HW228408   4.034   6.425   7.274 -0.9228 -0.3341  0.4841
 3756SOL     OW28409   6.235   4.033   7.137  0.2613 -0.0877  0.1198
 3756SOL    HW128410   6.141   4.019   7.152  0.0434  2.3328  1.6340
 3756SOL    HW228411   6.243   4.128   7.125  2.4256 -0.3456 -0.9394
 3757SOL     OW28412   6.312   3.591   5.292  0.2935 -0.3213  0.0660
 3757SOL    HW128413   6.306   3.596   5.196  0.1912 -1.0092  0.0312
 3757SOL    HW228414   6.405   3.601   5.311  0.3834 -0.7405 -0.1437
 3758SOL     OW28415   4.104   5.926   6.693 -0.3416  0.3344 -0.4825
 3758SOL    HW128416   4.028   5.940   6.636  0.5880  3.8460 -1.1259
 3758SOL    HW228417   4.179   5.944   6.637  1.1451 -3.3899  0.0382
 3759SOL     OW28418   2.925   5.722   6.248 -0.2241  0.1105  0.4776
 3759SOL    HW128419   2.939   5.796   6.189  1.5412 -0.4535  0.1101
 3759SOL    HW228420   2.902   5.762   6.332  0.3384  1.0562  0.1946
 3760SOL     OW28421   1.435   4.162   0.509  0.6179 -0.2284  0.1766
 3760SOL    HW128422   1.368   4.182   0.444  2.3913 -0.1343 -1.7384
 3760SOL    HW228423   1.422   4.069   0.529 -0.4118 -0.0720  0.2572
 3761SOL     OW28424   6.378   4.075   5.997  1.3298 -0.2068  0.1352
 3761SOL    HW128425   6.315   4.004   6.003 -0.1703  0.9413 -1.3053
 3761SOL    HW228426   6.429   4.069   6.078 -0.8220 -0.9732  1.5007
 3762SOL     OW28427   5.724   6.340   6.052  0.0431  0.3275  0.6658
 3762SOL    HW128428   5.738   6.261   6.001 -1.0447 -0.1127  1.0355
 3762SOL    HW228429   5.708   6.409   5.987 -1.1935 -0.2015  0.3814
 3763SOL     OW28430   3.259   4.830   5.965 -0.2931 -0.6535  0.0501
 3763SOL    HW128431   3.296   4.915   5.985 -0.0494 -1.0010  1.1507
 3763SOL    HW228432   3.165   4.846   5.957 -0.3129 -0.3731  0.8066
 3764SOL     OW28433   1.404   4.543   0.357  0.1409 -0.2714  0.0720
 3764SOL    HW128434   1.436   4.565   0.270 -0.2623 -0.0952 -0.0348
 3764SOL    HW228435   1.311   4.565   0.355  0.4514  1.2947  1.0552
 3765SOL     OW28436   3.749   1.969   7.432  0.0521 -0.3352 -0.0009
 3765SOL    HW128437   3.680   1.989   7.369 -0.5474 -0.0564  0.7324
 3765SOL    HW228438   3.710   1.903   7.490 -0.0177  0.6752  1.1283
 3766SOL     OW28439   2.453   0.590   0.444  0.3986  0.7521  0.1076
 3766SOL    HW128440   2.541   0.625   0.435  1.1138 -1.1402 -0.7436
 3766SOL    HW228441   2.465   0.495   0.449 -1.6168  0.4143 -0.4612
 3767SOL     OW28442   4.890   2.566   0.521  0.3541  0.2462  0.1688
 3767SOL    HW128443   4.910   2.659   0.534 -1.3254  0.3628  2.6269
 3767SOL    HW228444   4.962   2.520   0.564  1.0120  0.3839 -0.7552
 3768SOL     OW28445   3.099   0.119   1.015 -0.0937 -0.2703  0.0525
 3768SOL    HW128446   3.065   0.038   1.053 -0.6015 -0.2078 -0.2639
 3768SOL    HW228447   3.058   0.189   1.067 -2.0112 -0.1229 -1.5154
 3769SOL     OW28448   1.901   4.334   5.724  0.3911 -0.4463 -0.1619
 3769SOL    HW128449   1.950   4.252   5.723 -1.1235 -1.4293  0.9366
 3769SOL    HW228450   1.812   4.308   5.750  0.0860  1.6529  1.1417
 3770SOL     OW28451   2.676   5.296   1.440  0.3684  0.9720 -0.4069
 3770SOL    HW128452   2.586   5.323   1.420  0.0149 -1.3490 -2.3112
 3770SOL    HW228453   2.688   5.214   1.393  3.6768  1.4415 -0.6265
 3771SOL     OW28454   0.760   0.400   1.460  0.3268 -0.3747 -0.2683
 3771SOL    HW128455   0.723   0.451   1.531 -0.5020 -2.0392  0.5405
 3771SOL    HW228456   0.686   0.354   1.421  0.8588  0.0016 -1.8201
 3772SOL     OW28457   2.379   6.402   1.743  0.4692  0.0814 -0.3450
 3772SOL    HW128458   2.335   6.343   1.804 -1.1602  0.7457 -0.8220
 3772SOL    HW228459   2.314   6.419   1.675  1.2261  1.6433 -0.7251
 3773SOL     OW28460   2.391   2.173   5.295 -0.4882 -0.3748  1.2287
 3773SOL    HW128461   2.352   2.250   5.337 -0.2908 -0.8657  2.3548
 3773SOL    HW228462   2.465   2.150   5.351  0.5887 -0.3130 -0.0996
 3774SOL     OW28463   1.906   0.914   2.121  0.0157  0.1127 -0.2029
 3774SOL    HW128464   1.862   0.832   2.101  0.6661 -0.2161 -0.3146
 3774SOL    HW228465   1.836   0.972   2.151 -0.0989 -1.3831  2.7520
 3775SOL     OW28466   0.261   0.468   1.128 -0.1370 -0.0647 -0.0443
 3775SOL    HW128467   0.167   0.482   1.121  0.0415  0.9889 -0.6266
 3775SOL    HW228468   0.274   0.430   1.215 -1.2589 -1.8942 -0.6269
 3776SOL     OW28469   0.099   5.249   7.226 -0.2124  0.1810 -0.6048
 3776SOL    HW128470   0.148   5.181   7.180  0.9000  0.6411 -0.1379
 3776SOL    HW228471   0.017   5.206   7.251  0.0066 -0.6546 -1.2736
 3777SOL     OW28472   6.538   5.286   5.912 -0.0511  0.4217 -0.7059
 3777SOL    HW128473   6.508   5.373   5.941 -0.9976 -0.0362 -0.2862
 3777SOL    HW228474   6.634   5.290   5.922 -0.1810  0.9543  0.6690
 3778SOL     OW28475   3.637   4.289   0.760 -0.0387 -0.4883 -0.1009
 3778SOL    HW128476   3.712   4.230   0.771 -0.1204 -0.2104  2.5098
 3778SOL    HW228477   3.637   4.343   0.839 -0.7733  2.1540 -1.7817
 3779SOL     OW28478   3.835   2.934   1.559  0.0919 -0.0720  0.2440
 3779SOL    HW128479   3.794   2.977   1.634 -0.0326  2.1127 -1.0108
 3779SOL    HW228480   3.786   2.852   1.548  1.4599 -1.5690  3.7989
 3780SOL     OW28481   5.861   4.164   6.675  0.2181 -0.1761  0.8582
 3780SOL    HW128482   5.789   4.101   6.680 -2.1495  2.2961  0.3450
 3780SOL    HW228483   5.922   4.126   6.612 -1.4843 -1.6165 -0.0183
 3781SOL     OW28484   5.714   0.548   7.085  0.0051 -0.1406  0.4275
 3781SOL    HW128485   5.766   0.628   7.077  1.0433 -0.8506 -0.1945
 3781SOL    HW228486   5.720   0.507   6.998  0.7317 -1.6259  1.1433
 3782SOL     OW28487   3.227   6.166   0.677 -0.1751  0.3257  0.2290
 3782SOL    HW128488   3.273   6.195   0.599  0.5006  0.7299  0.7646
 3782SOL    HW228489   3.284   6.191   0.750 -0.5904 -0.4225  0.8340
 3783SOL     OW28490   0.852   5.414   6.520  0.2884  0.4086  0.7566
 3783SOL    HW128491   0.854   5.365   6.602  2.7878 -0.6274  0.1697
 3783SOL    HW228492   0.786   5.482   6.534 -0.0055 -0.2928  3.2629
 3784SOL     OW28493   0.527   1.783   2.092 -0.0952  0.8375  0.4112
 3784SOL    HW128494   0.615   1.746   2.080 -0.6599 -0.2696 -0.4831
 3784SOL    HW228495   0.468   1.709   2.082 -1.1673  1.6476  0.5682
 3785SOL     OW28496   2.893   1.126   6.625 -0.3207  0.1226 -0.0343
 3785SOL    HW128497   2.841   1.199   6.656 -0.0167  0.0267  0.7406
 3785SOL    HW228498   2.941   1.160   6.550 -1.8781  0.0573 -1.1061
 3786SOL     OW28499   6.531   4.840   6.256 -0.0318  0.4222  0.5234
 3786SOL    HW128500   6.616   4.842   6.300  1.0855 -0.7576 -1.4367
 3786SOL    HW228501   6.471   4.883   6.317  1.5987 -0.2658  2.7368
 3787SOL     OW28502   2.228   3.995   5.186  0.1583  0.9227  0.2557
 3787SOL    HW128503   2.156   3.963   5.133  1.5884 -0.9382 -0.6489
 3787SOL    HW228504   2.223   4.090   5.177 -0.5299  0.7266 -2.0044
 3788SOL     OW28505   4.975   6.077   5.944  0.4931  0.5124 -0.5524
 3788SOL    HW128506   4.894   6.040   5.908  0.5007 -0.8860  0.7547
 3788SOL    HW228507   5.044   6.035   5.893  0.4306  0.6118 -0.7192
 3789SOL     OW28508   3.101   2.581   7.346  0.1889 -0.1469  0.0839
 3789SOL    HW128509   3.153   2.524   7.289  0.1766 -1.4656  1.3307
 3789SOL    HW228510   3.164   2.618   7.408  0.2073  1.2919 -0.7453
 3790SOL     OW28511   1.615   0.080   6.400 -0.0700 -0.4691  0.8402
 3790SOL    HW128512   1.675   0.009   6.425  0.4123 -0.0205  0.9840
 3790SOL    HW228513   1.661   0.126   6.330 -0.8174 -0.8899  0.0592
 3791SOL     OW28514   6.171   0.645   6.898 -0.3006 -0.1592  0.4085
 3791SOL    HW128515   6.202   0.666   6.986  3.7687  1.1412 -1.0875
 3791SOL    HW228516   6.192   0.553   6.886  1.6673  0.3088 -0.0157
 3792SOL     OW28517   1.809   4.333   6.575  0.9576 -0.4930  0.2058
 3792SOL    HW128518   1.899   4.342   6.545  0.6389 -1.1623 -1.0158
 3792SOL    HW228519   1.761   4.401   6.527  0.6986 -0.6037  0.3056
 3793SOL     OW28520   3.605   3.439   6.128  0.1856  0.1786  0.8685
 3793SOL    HW128521   3.686   3.390   6.113  1.3866  2.1157  0.7068
 3793SOL    HW228522   3.574   3.460   6.040  0.5656  1.0574  0.9337
 3794SOL     OW28523   2.648   2.436   6.889  0.2854 -0.0850  0.1232
 3794SOL    HW128524   2.598   2.512   6.919 -1.7489  0.0254 -3.1284
 3794SOL    HW228525   2.609   2.362   6.934 -0.1961  0.3914  0.5060
 3795SOL     OW28526   6.338   1.615   7.197  0.5847  0.7960  0.0050
 3795SOL    HW128527   6.330   1.696   7.147  0.9611  1.2712  0.6946
 3795SOL    HW228528   6.332   1.642   7.289 -0.9495 -0.1454  0.2276
 3796SOL     OW28529   2.993   5.077   0.403  0.1253  0.1024  0.0141
 3796SOL    HW128530   3.060   5.108   0.464  0.4581 -0.1293 -0.2302
 3796SOL    HW228531   2.954   5.157   0.369  0.6489  0.2505 -0.2470
 3797SOL     OW28532   5.113   2.550   6.351  0.3110  0.2443 -0.3170
 3797SOL    HW128533   5.105   2.617   6.283 -4.1917  1.5273  1.1370
 3797SOL    HW228534   5.117   2.600   6.433  1.2869 -1.2983  0.6221
 3798SOL     OW28535   0.326   6.054   5.701  0.1968  0.5898 -0.4134
 3798SOL    HW128536   0.360   6.116   5.638  1.1665  1.3606  0.8167
 3798SOL    HW228537   0.375   5.974   5.686 -0.3011  0.4405 -1.2943
 3799SOL     OW28538   2.277   3.904   0.756  0.0816 -0.2224  0.4544
 3799SOL    HW128539   2.282   3.838   0.825  0.2122  0.5652  1.2209
 3799SOL    HW228540   2.313   3.861   0.678 -2.4821 -2.0084  0.1447
 3800SOL     OW28541   6.115   3.908   0.105  0.9165 -0.7531  0.0894
 3800SOL    HW128542   6.188   3.968   0.093  2.3990 -2.9303 -3.0948
 3800SOL    HW228543   6.038   3.956   0.073  1.5904  0.2946 -0.0047
 3801SOL     OW28544   4.994   1.921   1.140 -0.0616  0.4164  0.0257
 3801SOL    HW128545   4.944   1.845   1.169 -1.7239  1.1829 -0.7423
 3801SOL    HW228546   5.085   1.899   1.160 -0.4731 -1.8845 -0.4448
 3802SOL     OW28547   1.205   2.106   6.151 -0.3648 -0.1501 -0.6946
 3802SOL    HW128548   1.174   2.020   6.180 -0.2671 -1.5331 -4.1747
 3802SOL    HW228549   1.271   2.086   6.085  0.2233  2.6569 -1.0682
 3803SOL     OW28550   3.854   0.963   0.812  0.7975 -0.1091 -0.3158
 3803SOL    HW128551   3.761   0.949   0.795  1.2237  0.1936 -3.4785
 3803SOL    HW228552   3.856   1.009   0.896 -1.8319 -0.8173  0.2152
 3804SOL     OW28553   1.903   4.853   6.720 -0.4244 -0.2399  0.5239
 3804SOL    HW128554   1.843   4.886   6.786 -0.5519  1.6883 -0.5046
 3804SOL    HW228555   1.990   4.876   6.753 -0.4961  0.8839 -0.0156
 3805SOL     OW28556   2.833   0.201   5.493  0.4018 -0.0157  0.5623
 3805SOL    HW128557   2.744   0.177   5.466  0.4943  0.3957 -0.1480
 3805SOL    HW228558   2.882   0.203   5.411  1.1881 -0.7106  0.9949
 3806SOL     OW28559   1.828   3.711   1.676  0.3348  0.3770  0.6084
 3806SOL    HW128560   1.737   3.740   1.684  0.9919  2.1050  3.0469
 3806SOL    HW228561   1.877   3.790   1.655  1.4555 -0.1909  0.9936
 3807SOL     OW28562   5.354   5.993   6.254  0.9927 -0.3100 -0.3925
 3807SOL    HW128563   5.390   6.042   6.180  4.1369  0.6985  1.5778
 3807SOL    HW228564   5.299   6.056   6.300  1.9047  0.2279  0.0025
 3808SOL     OW28565   3.675   4.643   2.182 -0.3104  0.2069  0.3496
 3808SOL    HW128566   3.695   4.688   2.264 -2.9989 -0.4423  1.4526
 3808SOL    HW228567   3.717   4.557   2.190 -0.5593  0.1486  1.0420
 3809SOL     OW28568   0.437   5.275   0.125 -0.2741 -0.2342 -0.1655
 3809SOL    HW128569   0.442   5.316   0.212 -0.4032 -0.8126  0.1192
 3809SOL    HW228570   0.367   5.323   0.080  1.5180  1.8307 -0.9103
 3810SOL     OW28571   1.463   6.104   1.471 -0.0740  0.3874 -0.0851
 3810SOL    HW128572   1.382   6.095   1.421  0.2315 -3.4039 -0.2268
 3810SOL    HW228573   1.533   6.095   1.405  0.5939  3.7928  0.0033
 3811SOL     OW28574   6.058   4.391   6.350  0.2073 -0.3974  0.0462
 3811SOL    HW128575   6.123   4.461   6.337 -1.2388  1.5873  2.5417
 3811SOL    HW228576   6.092   4.341   6.425 -0.9602  0.5403  1.2464
 3812SOL     OW28577   6.493   4.979   1.699 -0.1762 -0.4059  0.2432
 3812SOL    HW128578   6.474   4.885   1.694 -0.6356 -0.2685 -0.7847
 3812SOL    HW228579   6.588   4.984   1.707 -0.2131 -0.9787  1.1510
 3813SOL     OW28580   6.048   4.781   1.589 -0.1432  0.2867  0.3736
 3813SOL    HW128581   6.083   4.727   1.660 -1.8999  0.2034  1.2392
 3813SOL    HW228582   6.119   4.787   1.526 -0.0752 -3.7456 -0.1951
 3814SOL     OW28583   4.916   5.248   7.192 -0.7829  0.0226  0.2377
 3814SOL    HW128584   4.823   5.243   7.170 -0.7464  0.7459 -0.1291
 3814SOL    HW228585   4.920   5.227   7.285 -0.9252 -3.3783 -0.3921
 3815SOL     OW28586   5.308   1.157   5.474 -0.1249  0.6827  0.3794
 3815SOL    HW128587   5.386   1.106   5.455  0.5744  1.7405  0.3055
 3815SOL    HW228588   5.276   1.123   5.557  0.5511  0.3943  0.5277
 3816SOL     OW28589   1.122   0.718   0.706  0.3958 -0.2581 -0.5965
 3816SOL    HW128590   1.081   0.664   0.774  1.4281  0.6260  0.7783
 3816SOL    HW228591   1.205   0.674   0.687 -1.0941 -2.1380 -3.4958
 3817SOL     OW28592   2.015   0.405   7.316  0.3795  0.5805 -0.0713
 3817SOL    HW128593   1.920   0.405   7.302 -0.2752 -2.5903  2.9043
 3817SOL    HW228594   2.048   0.337   7.257  1.0263  2.0816 -1.5449
 3818SOL     OW28595   5.460   1.220   1.661 -0.4704  0.2466 -0.1279
 3818SOL    HW128596   5.410   1.292   1.698 -1.2224 -1.4663  2.4008
 3818SOL    HW228597   5.551   1.238   1.687 -0.6690  0.2194  0.5913
 3819SOL     OW28598   4.202   2.635   7.170 -0.7353  0.2985 -0.0904
 3819SOL    HW128599   4.235   2.710   7.221 -0.8519 -0.0896  0.5704
 3819SOL    HW228600   4.229   2.654   7.080 -2.9733  2.4444 -0.4247
 3820SOL     OW28601   4.771   2.188   0.282 -0.1317  0.1348 -0.5245
 3820SOL    HW128602   4.743   2.126   0.349 -0.4722  0.6747 -0.1499
 3820SOL    HW228603   4.755   2.143   0.199  2.2473 -1.3680 -0.2587
 3821SOL     OW28604   4.018   0.571   1.442 -0.3620  0.0111 -0.0569
 3821SOL    HW128605   4.034   0.505   1.509 -0.5359  0.4965  0.4657
 3821SOL    HW228606   3.923   0.574   1.432 -0.3581  0.2140 -0.0448
 3822SOL     OW28607   5.199   6.017   7.322  0.4541  0.4034 -0.4059
 3822SOL    HW128608   5.129   6.075   7.292  0.3703  0.0219 -0.9747
 3822SOL    HW228609   5.184   6.007   7.415 -1.2397 -0.9796 -0.7837
 3823SOL     OW28610   2.300   2.972   1.213 -0.1243  0.4715 -0.1275
 3823SOL    HW128611   2.379   2.966   1.159 -0.2902 -3.0391 -0.1611
 3823SOL    HW228612   2.328   2.942   1.299 -1.2574 -0.1275  0.0493
 3824SOL     OW28613   5.313   1.609   7.458  0.3698  0.0404 -0.2012
 3824SOL    HW128614   5.293   1.631   7.367 -0.2430  0.8708  0.1318
 3824SOL    HW228615   5.369   1.680   7.489  2.0425 -1.1029 -0.4251
 3825SOL     OW28616   2.665   0.868   1.204 -0.0643 -0.1038  0.2750
 3825SOL    HW128617   2.672   0.784   1.249  2.1651  0.7607  1.7313
 3825SOL    HW228618   2.577   0.867   1.166  0.0907 -3.3256 -0.3222
 3826SOL     OW28619   3.378   5.941   5.616 -0.1599  0.2879 -0.0314
 3826SOL    HW128620   3.442   5.977   5.555  0.2784  1.7901  1.2391
 3826SOL    HW228621   3.371   6.007   5.685 -0.6883 -1.2917  1.5069
 3827SOL     OW28622   3.456   1.992   1.577 -0.6316 -0.3786 -0.1826
 3827SOL    HW128623   3.544   1.956   1.591 -1.0548 -0.3504  3.5456
 3827SOL    HW228624   3.420   1.939   1.506  2.2036 -0.6106 -1.6264
 3828SOL     OW28625   5.001   2.370   7.431 -0.4497 -0.4268 -0.3723
 3828SOL    HW128626   5.026   2.278   7.425  0.4580 -0.4639  2.5450
 3828SOL    HW228627   5.056   2.406   7.500  1.0802  3.0384 -3.0352
 3829SOL     OW28628   0.770   1.803   0.028  0.0591 -0.2618 -0.3819
 3829SOL    HW128629   0.838   1.754   0.076 -1.1950  0.2795  2.1023
 3829SOL    HW228630   0.696   1.743   0.024 -0.8396  0.6830  1.0236
 3830SOL     OW28631   6.420   3.963   6.862 -0.0018 -0.2843 -0.2637
 3830SOL    HW128632   6.408   3.902   6.935  0.5238  0.1447  0.1886
 3830SOL    HW228633   6.449   4.044   6.903  0.4784 -0.0915 -0.9721
 3831SOL     OW28634   2.964   2.809   0.724  0.4752  0.2194 -0.3653
 3831SOL    HW128635   3.058   2.801   0.708  0.7107  0.0337  0.9888
 3831SOL    HW228636   2.945   2.741   0.789 -0.4406  0.7888 -0.0270
 3832SOL     OW28637   4.996   4.240   0.447 -0.2119 -0.1328  0.5082
 3832SOL    HW128638   4.959   4.173   0.505  0.7315 -0.6275  0.5632
 3832SOL    HW228639   5.073   4.197   0.408  1.2822  1.3690  1.6343
 3833SOL     OW28640   0.037   2.872   0.345 -0.3543 -0.0518 -0.2341
 3833SOL    HW128641   0.003   2.907   0.263  3.0193 -0.1397 -1.8383
 3833SOL    HW228642   0.103   2.809   0.319  0.1722 -0.8314  2.5983
 3834SOL     OW28643   3.824   0.075   6.080  0.4418  0.1206  0.2418
 3834SOL    HW128644   3.734   0.063   6.050  0.8626 -3.0168 -0.1327
 3834SOL    HW228645   3.878   0.056   6.003  1.4201 -2.4584  1.4316
 3835SOL     OW28646   4.099   5.636   5.857 -0.3235  0.0000 -0.1040
 3835SOL    HW128647   4.032   5.576   5.891 -0.3558 -0.3490 -0.7757
 3835SOL    HW228648   4.099   5.621   5.763  1.7172 -1.0678  0.0323
 3836SOL     OW28649   2.568   5.274   1.085 -0.0179  0.7635 -0.0985
 3836SOL    HW128650   2.644   5.323   1.056  0.1721 -0.6244 -2.2008
 3836SOL    HW228651   2.599   5.224   1.160  1.9510 -1.4739 -2.1973
 3837SOL     OW28652   3.859   2.999   0.057  0.4260  0.2165 -0.0316
 3837SOL    HW128653   3.886   3.083   0.094 -0.4523  1.1732 -1.4426
 3837SOL    HW228654   3.792   3.022  -0.008  0.8548 -1.4853 -1.1510
 3838SOL     OW28655   2.254   4.248   0.104  0.3309 -0.0047 -0.2357
 3838SOL    HW128656   2.180   4.257   0.044  0.5467  0.6461 -0.4235
 3838SOL    HW228657   2.235   4.170   0.156 -0.9362  0.6804  0.3621
 3839SOL     OW28658   3.593   1.826   0.611  0.4872  0.2267  0.5855
 3839SOL    HW128659   3.517   1.798   0.561 -0.2683 -0.5628  2.0807
 3839SOL    HW228660   3.608   1.917   0.585 -1.3026  0.5637  0.6147
 3840SOL     OW28661   5.759   5.328   0.297 -0.5025  0.4127 -0.3532
 3840SOL    HW128662   5.780   5.379   0.375 -1.3650  0.4855 -0.1569
 3840SOL    HW228663   5.744   5.239   0.329 -0.0982  0.2731 -0.5440
 3841SOL     OW28664   4.708   3.034   1.403  0.5167  0.0573 -0.2618
 3841SOL    HW128665   4.622   2.992   1.407 -0.5175  1.9209 -1.4794
 3841SOL    HW228666   4.769   2.962   1.387 -0.9834 -1.1672 -0.6966
 3842SOL     OW28667   2.351   1.824   7.449 -0.1644  0.3036  0.0872
 3842SOL    HW128668   2.416   1.756   7.469  0.6331  0.6570 -1.2306
 3842SOL    HW228669   2.401   1.894   7.408 -1.0447  1.5399  1.0571
 3843SOL     OW28670   5.822   1.416   1.968  0.0318  0.0202 -0.0874
 3843SOL    HW128671   5.801   1.479   1.899 -1.1318 -0.9316 -0.6505
 3843SOL    HW228672   5.740   1.407   2.017  0.4930 -0.2432  0.6474
 3844SOL     OW28673   4.372   4.895   0.049  0.5808 -0.1915 -0.3390
 3844SOL    HW128674   4.437   4.965   0.040  1.1434 -0.5610  0.5963
 3844SOL    HW228675   4.298   4.937   0.092 -0.6354  0.6917 -3.0793
 3845SOL     OW28676   2.431   1.532   0.675 -0.1448  0.3101 -0.1789
 3845SOL    HW128677   2.458   1.592   0.605 -0.7408  0.1817 -0.5335
 3845SOL    HW228678   2.491   1.549   0.747  1.8227 -0.9464 -1.4069
 3846SOL     OW28679   0.017   3.242   1.099  0.0648  0.4570  0.2131
 3846SOL    HW128680   0.009   3.183   1.174 -1.0432  0.3448  0.0247
 3846SOL    HW228681   0.102   3.219   1.060 -0.4158 -1.1437  0.0374
 3847SOL     OW28682   0.728   4.906   6.255  0.3119  0.0444  0.2299
 3847SOL    HW128683   0.747   4.820   6.293 -0.1742 -0.3780 -0.4441
 3847SOL    HW228684   0.801   4.922   6.194 -0.3256 -0.5675 -0.7208
 3848SOL     OW28685   6.448   6.089   5.994  0.0518 -0.0473 -0.2063
 3848SOL    HW128686   6.369   6.125   5.956  1.7391  2.6833 -1.4343
 3848SOL    HW228687   6.519   6.119   5.937  1.8734 -4.6228 -0.7806
 3849SOL     OW28688   5.380   6.188   7.192  0.1292 -0.7609  0.4974
 3849SOL    HW128689   5.358   6.260   7.252 -4.1948 -0.7039 -0.8665
 3849SOL    HW228690   5.339   6.111   7.231 -1.6172 -0.9734 -1.5962
 3850SOL     OW28691   4.697   6.540   0.897 -0.0154  0.0024 -0.2891
 3850SOL    HW128692   4.788   6.531   0.867  1.0245  0.9471  2.2375
 3850SOL    HW228693   4.679   6.634   0.888 -1.0491 -0.2818 -1.4427
 3851SOL     OW28694   1.322   3.502   7.120 -0.7417  0.6198 -0.5668
 3851SOL    HW128695   1.235   3.495   7.082 -0.8848  2.7054 -0.7363
 3851SOL    HW228696   1.342   3.596   7.119  0.9614  0.3354  0.6888
 3852SOL     OW28697   2.942   6.267   6.085  0.0251 -0.5442 -0.2193
 3852SOL    HW128698   3.005   6.339   6.083 -0.3822 -0.1478 -3.1136
 3852SOL    HW228699   2.873   6.294   6.025 -0.5689 -2.9786 -0.7322
 3853SOL     OW28700   4.921   3.455   1.412 -0.2953  0.1614  0.2081
 3853SOL    HW128701   4.981   3.490   1.345 -2.4694  0.8408 -1.4940
 3853SOL    HW228702   4.891   3.532   1.460 -1.9306  0.1955 -0.8230
 3854SOL     OW28703   2.239   6.386   1.523 -0.2182 -0.2947 -0.0530
 3854SOL    HW128704   2.231   6.324   1.451 -1.0163 -0.8574  0.4979
 3854SOL    HW228705   2.159   6.439   1.519  0.2363  0.4002 -0.2325
 3855SOL     OW28706   4.483   0.651   0.394  0.1382  0.0903  0.1946
 3855SOL    HW128707   4.419   0.608   0.451  0.5779  0.2578  0.8263
 3855SOL    HW228708   4.507   0.731   0.440  0.9641 -0.0747  0.0814
 3856SOL     OW28709   1.644   0.076   0.647  0.9783  0.3767  0.1491
 3856SOL    HW128710   1.712   0.010   0.660  0.5043 -0.3820 -1.0534
 3856SOL    HW228711   1.691   0.154   0.618  1.4657  0.2908  0.7052
 3857SOL     OW28712   6.065   5.733   6.908 -0.0171  0.8999 -0.5428
 3857SOL    HW128713   6.068   5.772   6.821  0.5687  0.8816 -0.5373
 3857SOL    HW228714   6.005   5.659   6.900 -3.1665  3.1878  0.0333
 3858SOL     OW28715   0.227   0.648   0.667  0.3846  0.3370 -0.0913
 3858SOL    HW128716   0.293   0.614   0.727  0.3611  1.7167  0.7535
 3858SOL    HW228717   0.266   0.726   0.629 -0.1432  0.2571 -0.8197
 3859SOL     OW28718   0.237   5.732   6.494 -0.7273 -0.3430  0.6111
 3859SOL    HW128719   0.151   5.736   6.535 -0.6303 -0.7798  0.8637
 3859SOL    HW228720   0.294   5.784   6.550 -0.6018 -0.9133  1.0147
 3860SOL     OW28721   0.511   4.130   4.760  0.2608 -0.0936 -0.1432
 3860SOL    HW128722   0.415   4.129   4.763  0.2698  0.0285  0.2096
 3860SOL    HW228723   0.535   4.040   4.739  0.1070 -0.4625  1.1780
 3861SOL     OW28724   6.122   0.155   1.443  0.0188  0.1692  0.2260
 3861SOL    HW128725   6.143   0.248   1.435  2.8095 -0.5140 -2.6043
 3861SOL    HW228726   6.144   0.132   1.533  3.2167  1.5065 -0.0911
 3862SOL     OW28727   2.703   5.277   6.782 -0.5001 -0.4623 -0.1333
 3862SOL    HW128728   2.663   5.359   6.755 -1.4492 -1.2383 -1.1326
 3862SOL    HW228729   2.728   5.234   6.701 -1.1761 -1.7301  0.2984
 3863SOL     OW28730   4.802   6.421   6.047 -0.1645  0.4128 -0.1663
 3863SOL    HW128731   4.868   6.374   6.097 -0.0299  1.1815  0.4028
 3863SOL    HW228732   4.720   6.376   6.066  0.0674 -0.0332 -0.2171
 3864SOL     OW28733   2.904   6.063   0.559 -0.2371 -0.2349 -0.1094
 3864SOL    HW128734   2.962   6.109   0.619  1.5406 -0.7332 -1.3705
 3864SOL    HW228735   2.899   6.119   0.482 -1.5103 -0.1679  0.0056
 3865SOL     OW28736   4.364   3.350   2.680 -0.2258  0.5017  0.4972
 3865SOL    HW128737   4.450   3.378   2.711 -0.1177  0.1594  0.5054
 3865SOL    HW228738   4.365   3.365   2.586 -0.1068  0.3631  0.4772
 3866SOL     OW28739   1.811   6.214   0.823  0.1886 -0.4717  0.6131
 3866SOL    HW128740   1.733   6.182   0.870  0.1250 -1.3066 -0.0284
 3866SOL    HW228741   1.777   6.282   0.765  0.1007 -0.1277  1.0712
 3867SOL     OW28742   4.732   4.421   1.409  0.0813 -0.3472  0.2936
 3867SOL    HW128743   4.774   4.482   1.348 -0.1693  0.7487  1.1836
 3867SOL    HW228744   4.641   4.418   1.381  0.2833 -1.0801 -0.3338
 3868SOL     OW28745   4.241   5.776   0.616 -0.1253  0.9090  0.1883
 3868SOL    HW128746   4.256   5.840   0.546 -0.2344  1.9357  1.0701
 3868SOL    HW228747   4.326   5.734   0.629 -0.1356  0.6196 -0.6335
 3869SOL     OW28748   4.908   3.572   0.564 -0.1578  0.0238  0.6800
 3869SOL    HW128749   4.838   3.627   0.600 -1.0121  0.0479 -0.9216
 3869SOL    HW228750   4.939   3.521   0.638 -2.1794 -0.3032  1.3596
 3870SOL     OW28751   2.832   0.510   1.581 -0.0706 -0.0740  0.5980
 3870SOL    HW128752   2.827   0.602   1.608 -2.2000 -0.2910  1.1447
 3870SOL    HW228753   2.795   0.462   1.655  1.9185 -1.4920  0.7244
 3871SOL     OW28754   3.487   5.849   5.331 -0.4084 -0.3543  0.3329
 3871SOL    HW128755   3.465   5.828   5.240  2.1101 -1.1939 -0.1478
 3871SOL    HW228756   3.512   5.941   5.329  0.5981 -0.6287 -0.0376
 3872SOL     OW28757   5.115   6.579   6.002  0.3577 -0.1675 -0.6045
 3872SOL    HW128758   5.153   6.494   6.024  2.4401  0.6560 -0.7539
 3872SOL    HW228759   5.190   6.640   6.003 -0.9335  1.5199 -1.2540
 3873SOL     OW28760   5.937   6.313   0.391  0.5903  0.2884 -0.1304
 3873SOL    HW128761   6.011   6.257   0.369 -0.8958 -1.4383 -0.9504
 3873SOL    HW228762   5.919   6.362   0.311  0.8083  0.6588  0.0474
 3874SOL     OW28763   3.447   6.199   6.448  0.5024 -0.0574 -0.1094
 3874SOL    HW128764   3.486   6.153   6.373 -1.9503 -1.4390 -0.6525
 3874SOL    HW228765   3.434   6.131   6.514 -0.1106  0.5459  0.4102
 3875SOL     OW28766   6.075   2.173   6.611  0.5480 -0.2482 -0.4610
 3875SOL    HW128767   5.993   2.151   6.656  0.1112  0.9944 -0.6058
 3875SOL    HW228768   6.120   2.089   6.601 -0.8521 -1.0042 -0.6695
 3876SOL     OW28769   3.068   2.866   6.731 -0.3903 -0.4834  0.1580
 3876SOL    HW128770   3.040   2.781   6.764  0.2077 -0.5159  0.6044
 3876SOL    HW228771   3.141   2.891   6.789  0.1180 -0.1488 -0.6143
 3877SOL     OW28772   6.429   1.615   0.665  0.2404 -0.0690  0.0534
 3877SOL    HW128773   6.445   1.687   0.726 -1.2837  0.2527  0.1163
 3877SOL    HW228774   6.345   1.579   0.693  1.0299 -1.9877  0.1187
 3878SOL     OW28775   3.396   6.149   5.795 -0.1390 -0.0709  0.2539
 3878SOL    HW128776   3.311   6.165   5.836 -0.6614  2.1522 -1.4847
 3878SOL    HW228777   3.450   6.222   5.825  0.3728 -0.0796 -0.6336
 3879SOL     OW28778   3.506   2.007   7.301 -0.6751  0.3522 -0.4839
 3879SOL    HW128779   3.486   2.101   7.300  1.0207  0.7944 -3.7952
 3879SOL    HW228780   3.432   1.967   7.255 -0.5230  0.2798 -0.6634
 3880SOL     OW28781   4.123   2.144   0.905 -0.3300  0.5771  0.1633
 3880SOL    HW128782   4.211   2.180   0.909  0.4383 -1.1712 -0.1777
 3880SOL    HW228783   4.068   2.218   0.879  1.1267  1.5451 -0.2691
 3881SOL     OW28784   5.447   1.246   7.267  0.2384 -0.0600 -0.3671
 3881SOL    HW128785   5.417   1.296   7.190  0.3393  2.1821  0.9459
 3881SOL    HW228786   5.543   1.248   7.260  0.5385  3.7307  1.6979
 3882SOL     OW28787   4.808   2.798   0.777 -0.2343 -0.3679 -0.2069
 3882SOL    HW128788   4.751   2.733   0.734  1.4189 -1.5616 -0.7247
 3882SOL    HW228789   4.867   2.745   0.831  0.0585  0.8647  0.7100
 3883SOL     OW28790   2.061   6.166   1.433  0.5575 -0.1591  0.0026
 3883SOL    HW128791   2.017   6.250   1.417  0.8281 -0.4037 -2.2470
 3883SOL    HW228792   1.996   6.100   1.408  0.4005 -0.6730  1.6274
 3884SOL     OW28793   2.260   5.368   0.724 -0.3425  0.1700  0.1770
 3884SOL    HW128794   2.251   5.459   0.753  1.0633  0.3762  0.0481
 3884SOL    HW228795   2.283   5.319   0.803 -0.9249 -0.0575  0.2138
 3885SOL     OW28796   5.559   0.157   7.232 -0.3686  0.1189 -0.1454
 3885SOL    HW128797   5.481   0.182   7.182 -1.7594  0.7928  2.1935
 3885SOL    HW228798   5.542   0.066   7.258  1.4760 -1.1160 -2.7699
 3886SOL     OW28799   2.992   2.476   6.244 -0.5573  0.2911 -0.2292
 3886SOL    HW128800   2.968   2.491   6.152  0.9383  1.2588 -0.4943
 3886SOL    HW228801   2.982   2.561   6.286 -0.1191  0.1099  0.2460
 3887SOL     OW28802   0.377   5.870   6.667 -0.4202  0.5507  0.3001
 3887SOL    HW128803   0.353   5.899   6.755 -0.2206  2.4372 -0.2202
 3887SOL    HW228804   0.453   5.924   6.644 -1.1432  0.9100 -1.4249
 3888SOL     OW28805   6.115   2.257   1.225 -0.4129  0.0954 -0.4186
 3888SOL    HW128806   6.208   2.281   1.231 -0.5710  0.5407  0.4292
 3888SOL    HW228807   6.069   2.340   1.240 -0.9461  0.0367 -1.6596
 3889SOL     OW28808   4.999   2.799   0.443  0.0540 -0.0176 -0.4912
 3889SOL    HW128809   5.064   2.753   0.389 -1.3391 -0.5690 -1.7542
 3889SOL    HW228810   5.027   2.890   0.440  1.6753 -0.4453  0.3281
 3890SOL     OW28811   0.570   4.679   7.171 -0.4516  0.5915 -0.1585
 3890SOL    HW128812   0.542   4.603   7.121  3.4886 -0.3057 -1.3395
 3890SOL    HW228813   0.600   4.643   7.254 -2.1179  1.4353  0.8587
 3891SOL     OW28814   5.917   2.499   5.984  0.1560  0.2895 -0.1022
 3891SOL    HW128815   6.000   2.457   5.961  0.7111  1.0238  0.4903
 3891SOL    HW228816   5.891   2.547   5.906 -0.0056 -0.4022 -0.4765
 3892SOL     OW28817   4.926   2.165   2.623 -0.2610  0.7746 -0.1048
 3892SOL    HW128818   4.895   2.139   2.537  0.9404 -0.9542 -0.0788
 3892SOL    HW228819   4.850   2.154   2.680 -0.5432 -0.0416 -0.6170
 3893SOL     OW28820   5.443   4.802   1.690  0.4293  0.3130 -0.2765
 3893SOL    HW128821   5.450   4.896   1.705  0.7366  0.3523 -0.6466
 3893SOL    HW228822   5.533   4.770   1.693  0.2153 -0.1881  1.1736
 3894SOL     OW28823   6.289   6.411   0.035  0.8151  0.1400  0.0986
 3894SOL    HW128824   6.342   6.438   0.110  0.5677  1.0266 -0.0386
 3894SOL    HW228825   6.346   6.350  -0.013  0.6531 -1.1093  1.4457
 3895SOL     OW28826   4.823   4.346   6.124  0.8286  0.3634 -0.6773
 3895SOL    HW128827   4.768   4.347   6.202  1.2560 -0.5842 -0.3411
 3895SOL    HW228828   4.786   4.413   6.067  0.7496  1.3648  0.5010
 3896SOL     OW28829   6.030   3.773   6.509  0.0009 -0.3726  0.3858
 3896SOL    HW128830   5.980   3.724   6.575  1.4550 -0.6215  1.3460
 3896SOL    HW228831   6.120   3.771   6.541  0.3360  1.7533 -0.2808
 3897SOL     OW28832   2.571   0.290   6.484 -0.5243  0.5700  0.3693
 3897SOL    HW128833   2.588   0.237   6.561 -2.0072  2.5655  2.2023
 3897SOL    HW228834   2.476   0.295   6.479 -0.4330  2.4022 -0.1767
 3898SOL     OW28835   6.582   2.140   0.107  0.2679  0.4052  0.5475
 3898SOL    HW128836   6.662   2.089   0.092  0.1908  0.7570 -1.2206
 3898SOL    HW228837   6.577   2.149   0.202  0.6984 -2.2054  0.8707
 3899SOL     OW28838   0.716   2.986   0.683  0.1092  0.0010  0.5298
 3899SOL    HW128839   0.743   3.000   0.773 -0.8617  0.7110  0.7364
 3899SOL    HW228840   0.629   2.947   0.690 -0.9010  2.0041 -0.0544
 3900SOL     OW28841   5.108   2.426   0.675 -0.4195  0.1084 -0.4545
 3900SOL    HW128842   5.174   2.491   0.651 -0.2538 -0.0513 -0.4357
 3900SOL    HW228843   5.128   2.350   0.620 -0.5346  0.0281 -0.3872
 3901SOL     OW28844   6.309   3.350   6.337 -0.4140 -0.0996  0.1531
 3901SOL    HW128845   6.394   3.349   6.380 -0.7331  2.1424  0.9981
 3901SOL    HW228846   6.327   3.315   6.249  1.5683  0.9625  0.0549
 3902SOL     OW28847   2.567   4.135   0.374 -0.3026 -0.3151  0.0087
 3902SOL    HW128848   2.592   4.099   0.289  1.4138  0.0319  0.3420
 3902SOL    HW228849   2.550   4.228   0.356  0.4702 -0.1469  0.0959
 3903SOL     OW28850   6.549   1.162   5.923 -0.0759 -0.2638 -0.8533
 3903SOL    HW128851   6.535   1.174   6.017  0.9755 -1.2836 -0.5517
 3903SOL    HW228852   6.517   1.244   5.884  0.1725  0.4934  0.4524
 3904SOL     OW28853   2.374   2.996   7.189 -0.3495 -0.0283  0.1333
 3904SOL    HW128854   2.463   2.979   7.156 -0.3374 -2.3056  1.1563
 3904SOL    HW228855   2.387   3.058   7.260  0.5917 -1.1175  0.9564
 3905SOL     OW28856   5.721   3.914   7.012  0.5545 -0.2318  0.2840
 3905SOL    HW128857   5.627   3.895   7.006  0.5259 -1.2908  2.8138
 3905SOL    HW228858   5.731   3.998   6.967 -1.5374 -0.2329 -0.2981
 3906SOL     OW28859   0.267   5.227   6.853 -1.0299 -0.1567 -0.0434
 3906SOL    HW128860   0.204   5.186   6.794 -1.5181  0.4037  0.0885
 3906SOL    HW228861   0.237   5.317   6.863  1.4391  1.0848 -2.4208
 3907SOL     OW28862   4.861   4.616   6.796 -0.1085 -0.2236 -0.2952
 3907SOL    HW128863   4.856   4.710   6.782  0.6440 -0.1431 -0.0875
 3907SOL    HW228864   4.955   4.598   6.806 -0.3145 -0.8505  0.6456
 3908SOL     OW28865   2.495   0.735   6.705  0.1815  0.3902 -0.1812
 3908SOL    HW128866   2.527   0.681   6.633  1.6947  0.7976  0.1656
 3908SOL    HW228867   2.456   0.812   6.663  1.5374  0.8874 -0.5697
 3909SOL     OW28868   4.199   3.624   6.540  0.0080  0.0347 -0.6237
 3909SOL    HW128869   4.273   3.638   6.599 -1.4917 -0.2382  1.4360
 3909SOL    HW228870   4.220   3.675   6.462  1.6896  1.1263  0.4746
 3910SOL     OW28871   3.285   5.070   1.776  0.2511  0.6832  0.1554
 3910SOL    HW128872   3.213   5.132   1.776  1.3344  2.0219  1.2037
 3910SOL    HW228873   3.279   5.026   1.861 -1.0060 -1.3397 -0.8998
 3911SOL     OW28874   5.138   1.394   6.414 -0.4851  0.2567  0.4328
 3911SOL    HW128875   5.225   1.433   6.421  0.4171 -1.7248  0.9402
 3911SOL    HW228876   5.079   1.461   6.450  0.8291  1.5625  0.2454
 3912SOL     OW28877   4.220   0.648   5.994 -0.1188 -0.3539 -0.0768
 3912SOL    HW128878   4.261   0.733   5.977  0.1239 -0.6202 -0.8721
 3912SOL    HW228879   4.148   0.643   5.931 -0.8327 -0.2718  0.7138
 3913SOL     OW28880   5.867   5.830   0.592  0.1661  0.3334 -0.1560
 3913SOL    HW128881   5.848   5.802   0.682  0.9215  0.1677 -0.0477
 3913SOL    HW228882   5.961   5.847   0.591  0.3184 -0.4803 -1.1343
 3914SOL     OW28883   2.493   4.408   0.285  0.9361  0.1191 -0.1450
 3914SOL    HW128884   2.500   4.448   0.198 -1.6549  0.8868 -0.0750
 3914SOL    HW228885   2.524   4.475   0.345  1.9530 -0.1144 -0.3850
 3915SOL     OW28886   2.218   0.852   1.570 -0.3059 -0.0464  0.4685
 3915SOL    HW128887   2.126   0.836   1.591 -0.1687 -2.0131 -0.1932
 3915SOL    HW228888   2.257   0.764   1.565  0.9595  0.5532 -2.0364
 3916SOL     OW28889   3.876   6.063   1.096  0.3932  0.4490 -0.1030
 3916SOL    HW128890   3.930   6.076   1.018 -0.5993  2.0141 -0.5713
 3916SOL    HW228891   3.802   6.122   1.083 -0.4633 -0.2658  1.4097
 3917SOL     OW28892   2.249   1.107   2.637 -0.3429  0.3112 -0.2749
 3917SOL    HW128893   2.227   1.201   2.636  0.3093  0.4633 -1.1854
 3917SOL    HW228894   2.176   1.065   2.593 -0.5907  0.3943  0.0479
 3918SOL     OW28895   4.881   3.054   6.421 -0.2407 -0.5209 -0.1071
 3918SOL    HW128896   4.889   3.148   6.440  1.3521 -0.5138 -0.6025
 3918SOL    HW228897   4.858   3.014   6.505  1.3531  0.0877  0.6597
 3919SOL     OW28898   4.369   3.978   6.577  0.1154  0.2144  0.1505
 3919SOL    HW128899   4.377   4.022   6.662  0.5699  0.6725 -0.1190
 3919SOL    HW228900   4.351   4.049   6.515 -1.5866 -0.2693  0.0431
 3920SOL     OW28901   6.087   1.340   7.341 -0.8802 -0.2797  0.7989
 3920SOL    HW128902   6.043   1.276   7.285 -2.1190  0.3883  0.9772
 3920SOL    HW228903   6.039   1.422   7.327 -0.0969  0.3242  1.5110
 3921SOL     OW28904   4.721   5.581   0.566 -0.5504  0.2712  0.1344
 3921SOL    HW128905   4.638   5.619   0.595 -0.7246  0.4115 -0.5322
 3921SOL    HW228906   4.695   5.506   0.513 -0.2628  0.5289 -0.3756
 3922SOL     OW28907   2.564   1.662   0.004  0.3177  1.0078 -0.1476
 3922SOL    HW128908   2.597   1.591  -0.050 -0.9700  1.0818 -1.0734
 3922SOL    HW228909   2.642   1.714   0.026  1.0977 -0.0149 -0.4445
 3923SOL     OW28910   4.818   5.300   0.193  0.1761  0.1644  0.6937
 3923SOL    HW128911   4.785   5.212   0.213  1.5811 -0.1144  1.9466
 3923SOL    HW228912   4.753   5.359   0.233 -1.0453 -0.2596 -0.5938
 3924SOL     OW28913   1.313   0.465   1.293 -0.2507 -0.4378  0.0605
 3924SOL    HW128914   1.356   0.550   1.295 -1.6353  0.3166 -0.8223
 3924SOL    HW228915   1.317   0.434   1.383  0.9232  0.2063  0.2533
 3925SOL     OW28916   2.639   3.964   0.916  0.6364  0.2135  0.0179
 3925SOL    HW128917   2.573   4.029   0.891  0.0200 -1.1005 -2.0162
 3925SOL    HW228918   2.714   3.984   0.859  1.4270  0.7046  1.1994
 3926SOL     OW28919   6.072   2.116   0.966 -0.3357  0.0361 -0.4331
 3926SOL    HW128920   6.111   2.203   0.976  0.7175 -0.5763  1.4086
 3926SOL    HW228921   5.978   2.132   0.956  0.0495  1.4468 -2.4305
 3927SOL     OW28922   6.046   0.311   7.245 -0.3391  0.4876  0.5129
 3927SOL    HW128923   6.066   0.329   7.153 -0.0638  0.0838  0.4938
 3927SOL    HW228924   5.950   0.299   7.246 -0.2000 -0.9174  0.0233
 3928SOL     OW28925   5.071   3.800   7.260  0.6866  0.0681  0.0281
 3928SOL    HW128926   5.128   3.733   7.297 -0.5124 -0.1101  1.6760
 3928SOL    HW228927   5.038   3.848   7.336 -1.0101  0.4430 -0.8962
 3929SOL     OW28928   6.193   4.949   5.860 -0.1484 -0.3199 -0.4787
 3929SOL    HW128929   6.111   4.934   5.905  0.0239 -0.3482 -0.1710
 3929SOL    HW228930   6.258   4.961   5.930 -0.0716  0.7408 -0.7062
 3930SOL     OW28931   4.464   4.373   2.619 -0.3862  0.0932 -0.3734
 3930SOL    HW128932   4.420   4.370   2.703 -1.6323  0.2893 -0.9975
 3930SOL    HW228933   4.414   4.437   2.568  0.2690 -0.1065 -1.2984
 3931SOL     OW28934   5.821   3.674   7.106 -0.2454 -0.0809 -0.0250
 3931SOL    HW128935   5.843   3.726   7.183 -0.7987  0.8992 -0.5162
 3931SOL    HW228936   5.765   3.731   7.053 -0.2178 -0.8889 -0.9547
 3932SOL     OW28937   2.713   3.186   6.314  0.6693  0.2887 -0.0572
 3932SOL    HW128938   2.796   3.219   6.280  0.6092 -0.0425 -0.5429
 3932SOL    HW228939   2.732   3.096   6.339  0.8154  0.6568  1.1873
 3933SOL     OW28940   3.225   5.643   5.751 -0.1128 -0.0817 -0.0731
 3933SOL    HW128941   3.216   5.578   5.682  0.1839 -0.5136  0.2854
 3933SOL    HW228942   3.320   5.652   5.764 -0.1486  0.4227 -0.1169
 3934SOL     OW28943   4.816   3.695   1.477  0.3433 -0.6389 -0.7523
 3934SOL    HW128944   4.907   3.724   1.478  0.0397  0.3452 -0.3750
 3934SOL    HW228945   4.766   3.771   1.506 -0.7473 -0.6807 -2.3678
 3935SOL     OW28946   0.133   0.394   2.375  0.4091  0.4742  0.3481
 3935SOL    HW128947   0.160   0.474   2.330 -0.6720  0.3721 -0.5254
 3935SOL    HW228948   0.108   0.424   2.463 -0.5809  1.2173 -0.1614
 3936SOL     OW28949   4.154   6.526   6.847  0.0951  0.5530 -0.5226
 3936SOL    HW128950   4.205   6.505   6.769  3.9087  0.6808  1.7224
 3936SOL    HW228951   4.172   6.455   6.908 -1.0244  1.5464  1.0520
 3937SOL     OW28952   6.288   5.819   5.754  0.1616 -0.2292  0.3146
 3937SOL    HW128953   6.303   5.756   5.684  1.1269 -1.3216  1.4400
 3937SOL    HW228954   6.375   5.832   5.793  0.3046  2.9860 -0.7910
 3938SOL     OW28955   0.120   3.669   7.034  0.1444  1.1040  0.7220
 3938SOL    HW128956   0.158   3.757   7.036 -0.5250  1.4290 -0.2435
 3938SOL    HW228957   0.194   3.612   7.011  0.3770  1.5370  0.3773
 3939SOL     OW28958   5.104   0.308   6.996  0.1812  0.0978 -0.7274
 3939SOL    HW128959   5.113   0.241   6.928  2.0947 -1.0492  0.5598
 3939SOL    HW228960   5.078   0.387   6.948  2.0949 -0.4739 -2.9112
 3940SOL     OW28961   1.898   1.431   1.689 -0.3522 -0.5222 -0.0640
 3940SOL    HW128962   1.957   1.493   1.732 -0.2789  1.1280 -2.3444
 3940SOL    HW228963   1.927   1.345   1.720  2.0518  0.3438  0.3121
 3941SOL     OW28964   4.503   3.140   7.120  0.2168  0.1883 -1.0392
 3941SOL    HW128965   4.444   3.082   7.072  1.2313 -0.5375 -1.4532
 3941SOL    HW228966   4.445   3.204   7.161 -0.8512 -0.4942 -1.4226
 3942SOL     OW28967   2.522   5.010   0.668 -0.8155  0.5500  0.2182
 3942SOL    HW128968   2.606   5.023   0.624  0.1590  0.6265  1.9965
 3942SOL    HW228969   2.457   5.029   0.601  0.5652 -0.0357 -1.3667
 3943SOL     OW28970   0.661   2.287   0.052  0.2661 -0.1567  0.1042
 3943SOL    HW128971   0.633   2.347   0.121  1.3661 -1.1395  1.4809
 3943SOL    HW228972   0.707   2.342  -0.012 -1.4431  0.8852 -0.2728
 3944SOL     OW28973   1.285   0.554   7.353 -0.0194 -0.2017  0.5445
 3944SOL    HW128974   1.338   0.633   7.355  1.9811 -1.4542 -0.5024
 3944SOL    HW228975   1.308   0.511   7.271 -1.2724 -1.7331  0.9393
 3945SOL     OW28976   2.479   3.950   5.311 -0.3949 -0.1948  0.0156
 3945SOL    HW128977   2.455   3.923   5.400 -1.4066 -1.1831 -0.5289
 3945SOL    HW228978   2.397   3.943   5.261  0.6622 -2.1610 -1.5771
 3946SOL     OW28979   1.273   5.587   5.478 -0.3027  0.1135  0.1552
 3946SOL    HW128980   1.198   5.612   5.532 -0.4163  0.7418 -0.2952
 3946SOL    HW228981   1.306   5.507   5.521 -0.2219  0.7449  1.3137
 3947SOL     OW28982   0.739   4.969   6.669 -0.6747  0.3145 -0.0478
 3947SOL    HW128983   0.675   5.000   6.605 -1.5987 -0.1133  0.6376
 3947SOL    HW228984   0.718   4.876   6.682  0.7036 -0.0880 -0.5059
 3948SOL     OW28985   4.651   0.839   0.768  0.0692  0.3300 -0.8858
 3948SOL    HW128986   4.620   0.842   0.677 -0.6139  2.4075 -0.6209
 3948SOL    HW228987   4.738   0.799   0.761  0.0821  0.5528 -2.4622
 3949SOL     OW28988   5.289   1.191   2.446  0.2877  0.2281 -0.8744
 3949SOL    HW128989   5.235   1.128   2.493  1.4467 -1.1641 -1.3517
 3949SOL    HW228990   5.237   1.214   2.369 -0.7553  0.9938  0.0248
 3950SOL     OW28991   4.870   0.628   1.020 -0.3379 -0.1279 -0.1153
 3950SOL    HW128992   4.919   0.686   0.962 -1.2805  0.4671 -0.3382
 3950SOL    HW228993   4.897   0.655   1.108 -0.7451  0.6482 -0.2161
 3951SOL     OW28994   2.693   6.339   0.440 -0.1808 -0.5433 -0.0165
 3951SOL    HW128995   2.762   6.346   0.374  0.3836  2.4955  0.7224
 3951SOL    HW228996   2.647   6.257   0.420  2.8348 -2.0729 -1.2928
 3952SOL     OW28997   3.626   6.307   5.810  0.4921  0.0434  0.1492
 3952SOL    HW128998   3.672   6.333   5.730  0.3644  0.8114  0.3146
 3952SOL    HW228999   3.696   6.276   5.868  0.8955  1.6876  0.5891
 3953SOL     OW29000   3.109   1.681   6.064 -0.3895 -0.0799 -0.4394
 3953SOL    HW129001   3.140   1.705   5.976 -0.6249 -2.0449 -1.1131
 3953SOL    HW229002   3.056   1.756   6.092 -0.0322  0.7335 -1.8170
 3954SOL     OW29003   3.002   3.314   1.003 -0.0827 -0.4332 -0.3994
 3954SOL    HW129004   3.066   3.368   1.050  2.6678 -2.1251 -1.8979
 3954SOL    HW229005   2.934   3.375   0.976  0.6372  1.4126  1.6592
 3955SOL     OW29006   3.560   5.627   0.576  0.2206 -0.3442  0.6137
 3955SOL    HW129007   3.621   5.602   0.507  0.0737  0.1516  0.2959
 3955SOL    HW229008   3.614   5.644   0.653  0.7849  2.4781 -0.2988
 3956SOL     OW29009   0.722   1.568   1.424  0.0255 -0.0414 -0.0646
 3956SOL    HW129010   0.751   1.523   1.503  2.2628  3.3485  1.2631
 3956SOL    HW229011   0.628   1.580   1.436  0.2412 -0.0397  1.8598
 3957SOL     OW29012   1.327   5.937   6.022 -0.4292  0.0264 -0.7212
 3957SOL    HW129013   1.276   5.927   5.942 -0.6510  0.1690 -0.5985
 3957SOL    HW229014   1.263   5.963   6.089  0.0943  2.2665 -1.0070
 3958SOL     OW29015   0.435   1.258   5.723  0.0210  0.1582 -0.4269
 3958SOL    HW129016   0.508   1.312   5.693  1.9457 -2.4772 -0.8067
 3958SOL    HW229017   0.467   1.218   5.803 -1.6609  0.1598  0.2769
 3959SOL     OW29018   6.159   0.307   0.456 -0.4939 -0.1375  0.5196
 3959SOL    HW129019   6.075   0.288   0.417 -1.0629  0.9996  1.1292
 3959SOL    HW229020   6.193   0.222   0.484 -1.6283 -0.5626  0.6398
 3960SOL     OW29021   5.354   2.476   0.969  0.0294  0.0346  0.1655
 3960SOL    HW129022   5.446   2.489   0.945 -0.1810 -0.9463 -1.3025
 3960SOL    HW229023   5.309   2.553   0.933  0.0191 -0.3990 -0.7628
 3961SOL     OW29024   4.059   2.907   1.186  0.2734  0.2432 -0.2717
 3961SOL    HW129025   4.035   2.824   1.228  0.1667  0.0400 -0.7255
 3961SOL    HW229026   4.111   2.881   1.110 -2.0352  0.4142 -2.0042
 3962SOL     OW29027   0.831   6.101   1.786  0.2646 -0.0179 -0.0324
 3962SOL    HW129028   0.772   6.173   1.765  1.7160  1.0097 -0.7656
 3962SOL    HW229029   0.806   6.031   1.726  0.4650  0.7873 -1.0833
 3963SOL     OW29030   4.236   4.096   1.956  0.0187  0.0179  0.3470
 3963SOL    HW129031   4.190   4.025   2.001  0.6286 -0.4175  0.2897
 3963SOL    HW229032   4.166   4.147   1.916 -0.5115  0.2098  1.4779
 3964SOL     OW29033   1.694   0.822   1.244  0.3727  0.0283 -0.5068
 3964SOL    HW129034   1.719   0.914   1.243  5.3380 -1.0499 -1.4438
 3964SOL    HW229035   1.762   0.779   1.296 -1.8777 -3.1920  0.1349
 3965SOL     OW29036   3.385   4.161   6.322 -0.3184 -0.2458  0.5453
 3965SOL    HW129037   3.361   4.189   6.234  0.2871  0.4264  0.5866
 3965SOL    HW229038   3.323   4.205   6.380 -0.9311 -0.9542  0.4395
 3966SOL     OW29039   0.590   3.839   7.477  0.1878  0.0296  0.3885
 3966SOL    HW129040   0.542   3.783   7.416  0.1648  0.9525 -0.4800
 3966SOL    HW229041   0.567   3.928   7.450  0.5243  0.4670  1.4862
 3967SOL     OW29042   5.892   4.042   7.443  0.0853 -0.1735 -0.5171
 3967SOL    HW129043   5.857   4.123   7.481 -2.9250 -0.1341 -2.9448
 3967SOL    HW229044   5.922   4.068   7.356  0.4619 -1.4154 -0.7707
 3968SOL     OW29045   3.421   2.070   6.965 -0.2246 -0.1230 -0.4414
 3968SOL    HW129046   3.348   2.039   7.017 -0.0705  0.9273  0.4365
 3968SOL    HW229047   3.382   2.132   6.904 -0.1311  0.0946 -0.2796
 3969SOL     OW29048   2.198   4.719   5.464 -0.6350 -0.0814  0.1073
 3969SOL    HW129049   2.255   4.690   5.535 -0.1715 -0.4550 -0.4125
 3969SOL    HW229050   2.257   4.764   5.403 -0.4220 -2.6040 -1.6653
 3970SOL     OW29051   2.391   3.152   0.896  0.9897  0.5289  0.3282
 3970SOL    HW129052   2.365   3.131   0.806 -1.2159  0.8017  0.8368
 3970SOL    HW229053   2.312   3.188   0.935  1.8521  0.2527  2.4422
 3971SOL     OW29054   0.427   1.573   1.444  0.2214  0.0611 -0.2293
 3971SOL    HW129055   0.349   1.623   1.421 -1.2149 -0.8010  2.3782
 3971SOL    HW229056   0.403   1.525   1.524  2.0480 -3.4798 -1.5612
 3972SOL     OW29057   3.981   2.251   6.197  0.2292  0.1262  0.3303
 3972SOL    HW129058   3.935   2.319   6.147  0.0742 -0.4871 -0.3794
 3972SOL    HW229059   3.987   2.177   6.137 -3.2133 -2.0087  2.3026
 3973SOL     OW29060   1.059   4.692   6.728 -0.4147  0.1367  0.1326
 3973SOL    HW129061   1.127   4.684   6.795  0.0927 -2.6248 -0.5707
 3973SOL    HW229062   1.093   4.758   6.667  1.2682 -0.5501  0.2626
 3974SOL     OW29063   2.485   2.815   0.255  0.3159 -0.1148 -0.4216
 3974SOL    HW129064   2.414   2.755   0.278 -0.2016  0.4041 -0.6428
 3974SOL    HW229065   2.558   2.758   0.231  0.2013 -0.6583  0.4780
 3975SOL     OW29066   3.064   4.055   6.059 -1.4627 -0.5031 -0.8849
 3975SOL    HW129067   3.099   3.978   6.104 -0.5991  0.5309  0.2592
 3975SOL    HW229068   3.090   4.043   5.968  1.5830  0.0046 -0.1741
 3976SOL     OW29069   3.371   2.371   1.840 -0.3879  0.3459 -0.2610
 3976SOL    HW129070   3.330   2.301   1.891 -2.1206 -0.0770 -2.1224
 3976SOL    HW229071   3.374   2.446   1.900  0.5344 -0.9793  1.4314
 3977SOL     OW29072   6.373   6.114   1.598 -0.2895 -0.1028 -0.3195
 3977SOL    HW129073   6.347   6.030   1.636 -2.2357  0.4918 -0.1797
 3977SOL    HW229074   6.375   6.098   1.504 -0.1403 -0.4285 -0.2620
 3978SOL     OW29075   4.171   4.017   1.220 -0.4326 -0.8445 -0.1356
 3978SOL    HW129076   4.143   3.950   1.157  1.2746  0.0391 -1.9572
 3978SOL    HW229077   4.226   3.970   1.283  2.4992 -1.0276 -2.5660
 3979SOL     OW29078   1.947   0.708   5.440  0.2215 -0.0536 -0.1625
 3979SOL    HW129079   2.017   0.660   5.395  2.0978  1.3983  1.0673
 3979SOL    HW229080   1.880   0.642   5.457  0.9531 -1.3551 -2.0077
 3980SOL     OW29081   0.702   1.167   6.209  0.0895 -0.4189  0.4653
 3980SOL    HW129082   0.684   1.162   6.303 -3.2801  1.6920  0.0793
 3980SOL    HW229083   0.738   1.254   6.196  1.6795 -1.1298 -0.1133
 3981SOL     OW29084   1.576   3.228   6.723  0.3569 -0.1531 -0.7158
 3981SOL    HW129085   1.624   3.166   6.667  0.8649  0.8692 -1.4634
 3981SOL    HW229086   1.604   3.314   6.691  0.4147  0.4676  0.9329
 3982SOL     OW29087   1.501   0.109   6.973  0.0650 -0.2599  0.2974
 3982SOL    HW129088   1.504   0.151   6.887  2.7838 -0.3041  0.2682
 3982SOL    HW229089   1.431   0.154   7.019 -0.8556  0.3970 -1.6228
 3983SOL     OW29090   0.524   6.188   0.166  0.0686 -0.2152 -0.7275
 3983SOL    HW129091   0.590   6.217   0.103  1.0328  0.4062  0.5286
 3983SOL    HW229092   0.528   6.093   0.163  0.5121 -0.1893 -1.1869
 3984SOL     OW29093   0.668   2.949   6.024 -0.5813  0.0750  0.3234
 3984SOL    HW129094   0.678   2.876   6.085 -3.8874 -0.0886  0.8683
 3984SOL    HW229095   0.731   2.931   5.954  1.7968 -0.8832  2.5561
 3985SOL     OW29096   3.987   5.739   0.501  0.4004  0.0224 -0.0875
 3985SOL    HW129097   4.076   5.752   0.534 -0.1798  3.7887  0.5100
 3985SOL    HW229098   3.935   5.718   0.579  0.2518  1.4925  0.2485
 3986SOL     OW29099   6.308   4.457   7.387 -0.1692  0.3694  0.1259
 3986SOL    HW129100   6.236   4.424   7.334 -1.9637  3.0322  0.7082
 3986SOL    HW229101   6.346   4.528   7.334 -1.4203  2.4661  1.8656
 3987SOL     OW29102   4.740   2.914   5.654  0.6477 -0.0709 -0.8371
 3987SOL    HW129103   4.809   2.898   5.589  0.2800  0.4056 -1.3659
 3987SOL    HW229104   4.685   2.836   5.650 -0.7541  0.9205 -2.9013
 3988SOL     OW29105   5.424   5.713   0.209 -0.0289  0.2356  0.8525
 3988SOL    HW129106   5.387   5.689   0.124  1.7721  0.0901  0.0555
 3988SOL    HW229107   5.372   5.664   0.273 -2.1195  1.1759 -0.0341
 3989SOL     OW29108   2.417   5.454   5.896  0.2623 -0.0534  0.3442
 3989SOL    HW129109   2.327   5.458   5.928  0.3269 -2.6659  1.1090
 3989SOL    HW229110   2.437   5.543   5.869 -3.4406  0.1855 -2.4105
 3990SOL     OW29111   2.038   1.521   5.479  0.0014 -0.0603  0.3150
 3990SOL    HW129112   2.098   1.476   5.419 -0.4937 -1.7302  1.0205
 3990SOL    HW229113   2.094   1.575   5.534  0.5989  0.3372 -0.6627
 3991SOL     OW29114   2.445   4.346   6.687 -0.1452 -0.0633  0.0635
 3991SOL    HW129115   2.492   4.357   6.770 -0.7438  1.8165  0.1926
 3991SOL    HW229116   2.388   4.271   6.702 -0.0908  0.1203  1.2994
 3992SOL     OW29117   1.055   3.468   5.558 -0.3004 -0.2303 -0.3847
 3992SOL    HW129118   1.116   3.533   5.522  1.7044 -1.9288 -0.2350
 3992SOL    HW229119   0.985   3.520   5.596  2.5455  2.0828  2.2613
 3993SOL     OW29120   2.945   1.707   0.418 -0.1142  0.2272 -0.2748
 3993SOL    HW129121   2.927   1.682   0.508  0.3191 -0.2374 -0.3159
 3993SOL    HW229122   2.898   1.642   0.365  0.6037 -0.2194 -0.3808
 3994SOL     OW29123   1.190   6.094   7.048  0.1791 -0.1622 -0.0502
 3994SOL    HW129124   1.237   6.073   7.129  0.3603  1.1106  0.1876
 3994SOL    HW229125   1.103   6.055   7.061 -0.2067  1.0549  1.2975
 3995SOL     OW29126   4.020   2.041   1.466  0.0227 -0.7837 -0.7807
 3995SOL    HW129127   4.030   1.974   1.398 -1.2109 -1.5648 -0.2402
 3995SOL    HW229128   4.067   2.005   1.542  0.3372 -0.4920 -0.8352
 3996SOL     OW29129   5.610   1.485   0.303 -0.1277  0.0571  0.3787
 3996SOL    HW129130   5.518   1.495   0.280 -0.0690  1.4282  0.6866
 3996SOL    HW229131   5.648   1.438   0.228 -0.6075  1.5499 -0.8532
 3997SOL     OW29132   2.683   0.374   6.877  0.1166 -0.0616 -0.3898
 3997SOL    HW129133   2.726   0.453   6.843  0.7512  0.2673  1.1053
 3997SOL    HW229134   2.755   0.319   6.908 -0.4255 -0.4763  0.1410
 3998SOL     OW29135   2.610   4.047   6.928  0.2510 -0.2948  0.1210
 3998SOL    HW129136   2.658   4.019   6.850  2.6999 -1.5813  1.9677
 3998SOL    HW229137   2.624   3.977   6.992  0.0458  1.6037  2.3881
 3999SOL     OW29138   4.626   5.909   1.242 -0.9615  0.0031  0.2029
 3999SOL    HW129139   4.702   5.923   1.186 -0.9625 -0.5380  0.0610
 3999SOL    HW229140   4.629   5.981   1.305 -1.2590  0.9317 -0.8157
 4000SOL     OW29141   5.575   4.942   1.071 -0.0661  0.2097 -0.3913
 4000SOL    HW129142   5.563   4.864   1.124  0.7646  1.3145  1.5175
 4000SOL    HW229143   5.506   5.002   1.102  0.5518  0.9374 -0.4064
 4001SOL     OW29144   4.517   5.300   0.584  0.2787 -0.6602  0.0097
 4001SOL    HW129145   4.461   5.377   0.579  2.0325  0.6285 -0.7385
 4001SOL    HW229146   4.578   5.318   0.655  1.4475 -0.8249 -0.9253
 4002SOL     OW29147   4.464   5.962   7.311 -0.0502 -0.5627  0.1191
 4002SOL    HW129148   4.524   6.001   7.375 -0.5480  0.3334  0.0672
 4002SOL    HW229149   4.487   5.870   7.308 -1.3872 -1.0863  3.1410
 4003SOL     OW29150   0.832   3.630   5.639 -0.5380 -0.1449  0.1024
 4003SOL    HW129151   0.787   3.697   5.691 -1.3289  0.0749 -0.8324
 4003SOL    HW229152   0.870   3.677   5.566  1.0164 -0.3803  0.7268
 4004SOL     OW29153   2.360   6.526   5.803 -0.4720 -0.2961  0.4482
 4004SOL    HW129154   2.410   6.604   5.828 -1.3768  0.6295 -0.5448
 4004SOL    HW229155   2.276   6.560   5.773 -0.7622 -1.6387 -0.3293
 4005SOL     OW29156   1.503   5.125   5.104  0.6176 -0.0225 -0.1881
 4005SOL    HW129157   1.459   5.122   5.189  0.8026  2.6015  0.0741
 4005SOL    HW229158   1.594   5.105   5.123  0.9016  1.7621  0.4807
 4006SOL     OW29159   0.729   0.887   5.946  0.2204  0.4740 -0.8807
 4006SOL    HW129160   0.691   0.799   5.952 -1.0571  1.0811  0.4132
 4006SOL    HW229161   0.667   0.943   5.991  2.4375  1.6109  0.9333
 4007SOL     OW29162   4.448   1.721   7.282  0.0339 -0.2218  0.0596
 4007SOL    HW129163   4.405   1.720   7.367 -0.1499 -0.2326 -0.0323
 4007SOL    HW229164   4.441   1.631   7.250 -0.3158 -0.1165 -0.1724
 4008SOL     OW29165   1.823   5.617   5.656  0.8749  0.1861  0.5445
 4008SOL    HW129166   1.857   5.618   5.567  0.6069  1.6525  0.4362
 4008SOL    HW229167   1.857   5.535   5.694  1.1764 -0.3356 -0.8126
 4009SOL     OW29168   3.568   1.532   0.598 -0.0335 -0.0169 -0.1980
 4009SOL    HW129169   3.512   1.579   0.660  1.8903  2.6871 -0.3384
 4009SOL    HW229170   3.625   1.479   0.654  0.6324  1.1860  0.3094
 4010SOL     OW29171   0.366   3.631   6.750  0.4459  0.2333 -0.3087
 4010SOL    HW129172   0.378   3.631   6.845 -0.5007 -1.1981 -0.1460
 4010SOL    HW229173   0.345   3.721   6.728  0.8995  0.6310  0.8119
 4011SOL     OW29174   3.381   0.318   0.150 -0.6962  0.0551 -0.2789
 4011SOL    HW129175   3.444   0.307   0.078 -0.6490  1.7384 -0.5323
 4011SOL    HW229176   3.420   0.384   0.207 -1.5230 -0.0125  0.3914
 4012SOL     OW29177   1.691   5.861   0.877 -0.0456 -0.1070  0.4881
 4012SOL    HW129178   1.665   5.951   0.894  1.4019  0.6351 -0.9958
 4012SOL    HW229179   1.768   5.848   0.932  2.0473  0.8850 -2.0272
 4013SOL     OW29180   0.697   3.552   0.513 -0.2891  0.4292  0.3146
 4013SOL    HW129181   0.731   3.626   0.563 -0.1340  0.1737  0.5906
 4013SOL    HW229182   0.632   3.591   0.454 -0.3188  0.7637  0.5624
 4014SOL     OW29183   3.364   2.592   1.977  0.8449 -0.1367 -0.2922
 4014SOL    HW129184   3.415   2.638   2.043 -0.3624  1.0162 -0.1228
 4014SOL    HW229185   3.308   2.659   1.939  0.0109 -1.2073 -1.0037
 4015SOL     OW29186   4.307   1.935   0.550  0.1456 -0.0434 -0.3304
 4015SOL    HW129187   4.300   2.010   0.492 -1.1386 -0.0082 -0.1784
 4015SOL    HW229188   4.251   1.868   0.509  1.1373 -0.8622 -0.3802
 4016SOL     OW29189   2.562   3.141   0.604 -0.5400  0.1138  0.2201
 4016SOL    HW129190   2.601   3.220   0.568 -0.4184  1.1579  2.4987
 4016SOL    HW229191   2.592   3.071   0.546 -0.6317  1.6784 -1.8399
 4017SOL     OW29192   3.738   4.433   7.449  0.0008 -0.1990 -0.2823
 4017SOL    HW129193   3.660   4.453   7.397 -0.1391  0.2816  0.1130
 4017SOL    HW229194   3.764   4.345   7.420 -2.2160 -1.5272  1.4628
 4018SOL     OW29195   0.572   6.218   0.902  0.3129  0.5537  0.0252
 4018SOL    HW129196   0.623   6.179   0.832 -1.5360 -1.0505 -0.5030
 4018SOL    HW229197   0.541   6.301   0.866 -1.0768 -0.4959 -1.3443
 4019SOL     OW29198   6.458   0.376   0.006  0.3560  0.3266 -0.5003
 4019SOL    HW129199   6.408   0.320  -0.053 -1.2725 -0.5600  1.6022
 4019SOL    HW229200   6.549   0.363  -0.021 -0.2817 -0.0902 -2.7144
 4020SOL     OW29201   2.187   5.768   5.495 -0.0119 -0.1422  0.5035
 4020SOL    HW129202   2.209   5.753   5.403 -0.1799  0.3029  0.3866
 4020SOL    HW229203   2.133   5.847   5.494 -1.8796 -1.3523  0.7381
 4021SOL     OW29204   0.064   1.904   6.028  0.1823  0.3942 -0.4818
 4021SOL    HW129205   0.118   1.858   5.964 -1.2787  0.7451 -2.0482
 4021SOL    HW229206   0.075   1.997   6.008  1.9438  0.7428  1.6994
 4022SOL     OW29207   3.231   4.207   6.715 -0.4756  0.5172  0.4516
 4022SOL    HW129208   3.250   4.242   6.628 -0.7369  0.0537  0.2054
 4022SOL    HW229209   3.197   4.282   6.764  0.0565  0.8747  0.2841
 4023SOL     OW29210   6.319   2.955   5.490 -0.0630 -0.1376 -0.0349
 4023SOL    HW129211   6.264   2.967   5.413 -1.9767  0.3175  1.3174
 4023SOL    HW229212   6.289   2.872   5.528  0.6656 -0.2266  0.3693
 4024SOL     OW29213   0.804   4.355   6.742  0.1475 -0.2600  0.5935
 4024SOL    HW129214   0.718   4.363   6.699  0.5495 -1.5994 -0.5297
 4024SOL    HW229215   0.803   4.424   6.808 -2.4253 -1.2024  1.6881
 4025SOL     OW29216   3.442   3.509   1.891  0.4648 -0.6623 -0.2659
 4025SOL    HW129217   3.431   3.575   1.822  0.1207 -0.4896 -0.0476
 4025SOL    HW229218   3.374   3.445   1.875  0.3126 -0.5632 -0.0213
 4026SOL     OW29219   4.021   3.446   6.980 -0.5694 -0.0102 -0.0099
 4026SOL    HW129220   4.053   3.510   7.043  3.1680 -1.9357  0.3375
 4026SOL    HW229221   4.023   3.492   6.896  0.2104  0.8863  0.4820
 4027SOL     OW29222   0.200   0.318   0.905 -0.8029  0.1162  0.5484
 4027SOL    HW129223   0.287   0.286   0.881 -0.1310  1.8870  0.5295
 4027SOL    HW229224   0.212   0.356   0.992 -1.0153  2.3019 -0.3144
 4028SOL     OW29225   1.108   3.265   1.179  0.1685 -0.1824  0.0689
 4028SOL    HW129226   1.082   3.305   1.262 -0.5144  1.0005 -0.6793
 4028SOL    HW229227   1.178   3.204   1.203  2.1969  2.3488  1.1966
 4029SOL     OW29228   1.751   3.142   0.344 -0.3958 -0.5337  0.0386
 4029SOL    HW129229   1.679   3.169   0.400  0.7326  0.1874  1.2136
 4029SOL    HW229230   1.737   3.188   0.261 -2.3941 -2.0475 -0.5410
 4030SOL     OW29231   6.594   1.687   6.192 -1.0243  0.7217 -0.0922
 4030SOL    HW129232   6.639   1.764   6.158  0.3773  0.1717  0.4603
 4030SOL    HW229233   6.642   1.663   6.271 -1.9745 -0.2017  0.2398
 4031SOL     OW29234   4.696   0.451   5.221  0.6732 -0.1327  0.6754
 4031SOL    HW129235   4.748   0.408   5.289  0.9368  1.3774  1.4709
 4031SOL    HW229236   4.756   0.513   5.180  0.7901 -1.6552 -1.6323
 4032SOL     OW29237   5.280   0.460   1.398 -0.2176 -0.3066 -0.1749
 4032SOL    HW129238   5.206   0.482   1.454  0.4100  1.6430 -0.0616
 4032SOL    HW229239   5.241   0.437   1.314 -1.0092 -0.7368  0.3004
 4033SOL     OW29240   2.498   1.728   2.166  0.0054 -0.2593 -0.3784
 4033SOL    HW129241   2.441   1.760   2.097 -1.0765 -0.1147  0.5533
 4033SOL    HW229242   2.447   1.660   2.210 -0.2614  1.1597  1.6806
 4034SOL     OW29243   3.681   0.259   0.762  0.0860 -0.4004  0.3796
 4034SOL    HW129244   3.681   0.163   0.764  1.1269 -0.4373 -0.3447
 4034SOL    HW229245   3.755   0.283   0.818 -0.1388 -0.0213  0.5137
 4035SOL     OW29246   5.105   4.743   5.477  0.3719  0.1680 -0.1081
 4035SOL    HW129247   5.028   4.741   5.534  0.8995  0.1056  0.6150
 4035SOL    HW229248   5.078   4.694   5.400 -0.6704  1.0529 -0.3362
 4036SOL     OW29249   2.335   0.878   2.111  0.6028 -0.2917 -0.0665
 4036SOL    HW129250   2.258   0.834   2.074  0.1829  0.9177 -0.6961
 4036SOL    HW229251   2.408   0.845   2.060  0.1282  0.7012 -1.4545
 4037SOL     OW29252   2.374   5.481   1.159  0.6453  0.2714 -0.1234
 4037SOL    HW129253   2.296   5.440   1.195 -0.6207  1.9177 -0.8927
 4037SOL    HW229254   2.422   5.408   1.117 -0.8190 -0.6470 -0.2702
 4038SOL     OW29255   5.381   0.600   0.238 -0.3133  0.0365  0.0532
 4038SOL    HW129256   5.342   0.650   0.166  2.3003  1.1389 -0.7084
 4038SOL    HW229257   5.409   0.518   0.198 -1.1718 -0.4656  0.4471
 4039SOL     OW29258   3.473   5.116   0.582  0.4593  0.5962 -1.3346
 4039SOL    HW129259   3.435   5.095   0.497 -0.9140 -0.9941 -0.3953
 4039SOL    HW229260   3.421   5.064   0.645  2.5538  0.3342  0.2880
 4040SOL     OW29261   1.283   2.983   0.543  0.0473 -0.8349 -1.0226
 4040SOL    HW129262   1.347   2.941   0.485  1.6600  1.0621 -0.7289
 4040SOL    HW229263   1.336   3.033   0.604 -1.7220 -0.1327  0.0003
 4041SOL     OW29264   0.304   2.456   7.424  0.2308  0.0850  0.3869
 4041SOL    HW129265   0.226   2.436   7.372 -1.3954  1.3848  2.1692
 4041SOL    HW229266   0.314   2.381   7.483  1.3442 -0.8204 -0.8931
 4042SOL     OW29267   0.913   4.335   0.952 -0.0954  0.5775  0.1976
 4042SOL    HW129268   0.835   4.324   0.897  0.5610 -0.2593 -0.5848
 4042SOL    HW229269   0.934   4.246   0.982 -0.9154  1.0842  2.5069
 4043SOL     OW29270   2.879   3.514   5.859 -0.5946  0.2438  0.7182
 4043SOL    HW129271   2.932   3.502   5.780  0.2088 -0.3327  1.3283
 4043SOL    HW229272   2.844   3.602   5.852 -1.7627 -0.3150 -1.0144
 4044SOL     OW29273   1.453   2.081   6.526  0.2896  0.0374  0.0437
 4044SOL    HW129274   1.447   2.176   6.537 -2.1919  0.3813 -2.8135
 4044SOL    HW229275   1.538   2.067   6.484  1.4408  0.7126  2.0258
 4045SOL     OW29276   6.390   1.687   1.813 -0.4910  0.4848  0.0906
 4045SOL    HW129277   6.479   1.697   1.779 -0.4638  0.3567  0.1231
 4045SOL    HW229278   6.375   1.766   1.865 -1.5379  2.0525 -2.4106
 4046SOL     OW29279   3.407   5.035   6.140  0.2208  0.0859  0.4476
 4046SOL    HW129280   3.347   4.970   6.177  2.8363 -2.0459  1.2985
 4046SOL    HW229281   3.428   5.093   6.212 -1.8629  1.8480 -0.2350
 4047SOL     OW29282   0.164   4.098   7.124  0.4696  0.2095 -0.3643
 4047SOL    HW129283   0.196   4.178   7.082  0.0131  0.1421 -0.8503
 4047SOL    HW229284   0.197   4.027   7.069  1.6517  0.0061  0.5772
 4048SOL     OW29285   2.340   2.953   1.961 -0.2436 -0.3628 -0.6433
 4048SOL    HW129286   2.254   2.989   1.980 -0.3244 -1.6021  1.6564
 4048SOL    HW229287   2.338   2.865   1.998  1.8513 -0.5970 -0.9684
 4049SOL     OW29288   0.748   2.011   1.243  0.3632 -0.6184 -0.7239
 4049SOL    HW129289   0.762   2.081   1.180  1.1281 -2.0671 -2.2287
 4049SOL    HW229290   0.803   1.939   1.213 -0.5706 -1.9740  0.6164
 4050SOL     OW29291   1.514   4.972   6.446 -0.7498  0.1130 -0.1843
 4050SOL    HW129292   1.603   4.939   6.463 -0.1751  1.0886 -1.1656
 4050SOL    HW229293   1.479   4.914   6.378 -0.2643  0.6484 -0.9080
 4051SOL     OW29294   1.134   4.513   0.253 -0.2541  0.3162 -0.1273
 4051SOL    HW129295   1.042   4.498   0.271 -0.4071 -0.5194 -1.4707
 4051SOL    HW229296   1.136   4.547   0.163  0.6635  1.5768  0.3365
 4052SOL     OW29297   5.045   1.969   0.461 -0.4575 -0.1289 -0.1977
 4052SOL    HW129298   5.059   1.874   0.462  0.1463 -0.0624 -0.9415
 4052SOL    HW229299   5.025   1.990   0.369  1.4043  0.6953 -0.4803
 4053SOL     OW29300   1.382   1.445   0.410 -0.7645  0.2871  0.2552
 4053SOL    HW129301   1.462   1.462   0.459 -1.1444 -0.8931  1.3573
 4053SOL    HW229302   1.409   1.443   0.318  0.5011 -0.2945  0.6292
 4054SOL     OW29303   3.246   5.909   1.109 -0.1434 -0.1551  0.3754
 4054SOL    HW129304   3.266   5.977   1.173  0.5742  0.0439 -0.0508
 4054SOL    HW229305   3.150   5.911   1.101 -0.0458  2.4414 -1.3558
 4055SOL     OW29306   1.454   2.101   6.025 -0.1556 -0.2707 -0.3247
 4055SOL    HW129307   1.427   2.137   6.110 -0.6255  0.0842 -0.6159
 4055SOL    HW229308   1.475   2.178   5.972  0.4480 -0.5044 -0.4334
 4056SOL     OW29309   0.028   0.542   5.733  0.3593 -0.2843 -0.1352
 4056SOL    HW129310   0.073   0.458   5.741 -1.9887 -1.9647 -2.5666
 4056SOL    HW229311  -0.036   0.542   5.804  0.5407 -0.4697  0.0257
 4057SOL     OW29312   1.241   3.947   0.865 -0.3384  0.6186  0.9192
 4057SOL    HW129313   1.334   3.925   0.863 -0.4505  0.1474 -0.6601
 4057SOL    HW229314   1.206   3.901   0.941 -0.1284 -2.9110 -0.9549
 4058SOL     OW29315   4.442   0.324   5.169  0.1626 -0.2367  0.4338
 4058SOL    HW129316   4.473   0.234   5.165  0.3828 -0.1049 -1.0689
 4058SOL    HW229317   4.520   0.376   5.188  0.0525 -0.3371  1.1985
 4059SOL     OW29318   6.163   3.444   0.055 -0.3750  0.7816  0.0601
 4059SOL    HW129319   6.116   3.512   0.007 -1.9854 -0.8697 -0.8830
 4059SOL    HW229320   6.199   3.387  -0.014 -1.4598 -0.8116  0.7555
 4060SOL     OW29321   3.921   1.397   6.698 -0.4532 -0.1613 -0.2721
 4060SOL    HW129322   4.001   1.443   6.674  0.0297 -0.3127  0.9623
 4060SOL    HW229323   3.906   1.420   6.790 -0.8193 -1.5397  0.0438
 4061SOL     OW29324   0.851   1.209   0.086  0.3444  0.1591 -0.4494
 4061SOL    HW129325   0.840   1.123   0.044  2.9174 -0.3925 -0.1670
 4061SOL    HW229326   0.775   1.217   0.144  0.6446 -2.4955  0.4415
 4062SOL     OW29327   3.412   5.963   6.582  0.1231  0.5238 -0.0486
 4062SOL    HW129328   3.448   5.917   6.657 -0.2215 -0.0241 -0.2159
 4062SOL    HW229329   3.383   5.894   6.522 -0.6842  0.9376 -0.1594
 4063SOL     OW29330   0.094   0.193   6.950 -0.0528  0.4128  0.0788
 4063SOL    HW129331   0.023   0.253   6.976  1.2472  1.6144  0.9982
 4063SOL    HW229332   0.174   0.236   6.979  0.9832 -1.6275  0.4465
 4064SOL     OW29333   6.407   2.074   7.227  0.1001 -0.1591  0.6638
 4064SOL    HW129334   6.502   2.076   7.232  0.1581  0.1141 -0.3248
 4064SOL    HW229335   6.386   1.984   7.201  0.1377 -0.0414  0.2096
 4065SOL     OW29336   1.182   4.799   5.511 -0.0832 -0.4930 -0.0038
 4065SOL    HW129337   1.241   4.874   5.518  0.5095 -0.9029 -0.4735
 4065SOL    HW229338   1.158   4.797   5.418 -0.7970 -0.3686  0.1710
 4066SOL     OW29339   4.851   6.267   1.364  0.9087 -0.2447 -0.4292
 4066SOL    HW129340   4.892   6.300   1.444 -0.4383 -0.6434  0.4605
 4066SOL    HW229341   4.814   6.182   1.390 -0.4660  0.1001 -1.1937
 4067SOL     OW29342   2.934   1.755   7.190  0.3230  0.0716  0.0437
 4067SOL    HW129343   2.926   1.805   7.271  0.9674  1.3585 -0.6647
 4067SOL    HW229344   2.844   1.742   7.160  0.1400  0.6840  0.3202
 4068SOL     OW29345   0.388   2.877   1.266 -0.0529 -0.0543 -0.1603
 4068SOL    HW129346   0.469   2.843   1.304  0.3543 -1.5306 -2.2374
 4068SOL    HW229347   0.402   2.875   1.172 -2.8215 -1.2656 -0.6493
 4069SOL     OW29348   0.048   3.490   1.232 -0.5624  0.0405 -0.3195
 4069SOL    HW129349   0.011   3.416   1.184 -2.2119  1.4751 -1.3711
 4069SOL    HW229350  -0.016   3.508   1.301 -0.6549  1.0602 -0.6601
 4070SOL     OW29351   1.141   5.491   1.097 -1.2218  0.7918 -0.2141
 4070SOL    HW129352   1.184   5.489   1.012 -0.7452  0.3324  0.0304
 4070SOL    HW229353   1.126   5.398   1.118 -0.1281  0.8264  0.8028
 4071SOL     OW29354   6.264   0.100   0.129 -0.1655  0.1210 -0.2712
 4071SOL    HW129355   6.273   0.099   0.034  0.5157  0.8622 -0.2218
 4071SOL    HW229356   6.353   0.102   0.162 -0.3858 -0.4710  0.4001
 4072SOL     OW29357   5.364   5.150   1.174  0.3900  0.5755  0.2260
 4072SOL    HW129358   5.306   5.213   1.217  0.6551  0.9769  0.0040
 4072SOL    HW229359   5.418   5.114   1.245  0.6765  1.0747  0.2669
 4073SOL     OW29360   2.064   0.925   0.114  0.4795 -0.4592  0.0217
 4073SOL    HW129361   2.005   0.933   0.189  0.5969  2.3454 -0.0949
 4073SOL    HW229362   2.146   0.893   0.153  0.0567 -0.6272  0.8069
 4074SOL     OW29363   3.497   1.242   0.482  0.5166  0.3185  0.8190
 4074SOL    HW129364   3.529   1.323   0.521 -1.0224  0.9238  0.8997
 4074SOL    HW229365   3.469   1.268   0.394 -1.3068  0.2404  1.3233
 4075SOL     OW29366   0.169   0.331   5.468 -0.0378 -0.4130 -0.0583
 4075SOL    HW129367   0.159   0.421   5.439 -2.0604 -0.5927 -0.1017
 4075SOL    HW229368   0.079   0.298   5.473  0.4776 -1.7085  2.1895
 4076SOL     OW29369   0.466   6.007   0.655  0.4053 -0.2631 -0.6515
 4076SOL    HW129370   0.384   5.997   0.704  0.1421  0.1889 -0.9916
 4076SOL    HW229371   0.466   6.098   0.627  3.0324  1.0193  2.8830
 4077SOL     OW29372   2.306   0.280   6.486  0.0455  0.1600 -0.1200
 4077SOL    HW129373   2.228   0.248   6.441 -0.0091  0.9226 -0.5895
 4077SOL    HW229374   2.273   0.313   6.570  0.1082 -1.0135  0.3861
 4078SOL     OW29375   6.130   0.425   1.444  0.1135  0.4336 -0.4495
 4078SOL    HW129376   6.095   0.513   1.455  0.4031  1.1532 -4.1567
 4078SOL    HW229377   6.207   0.436   1.389  1.4935 -1.9766  0.8151
 4079SOL     OW29378   6.459   6.101   7.001 -0.1437 -0.0808 -0.1612
 4079SOL    HW129379   6.471   6.028   6.941  0.9661 -0.5634  0.6221
 4079SOL    HW229380   6.372   6.087   7.039 -0.1007 -0.7679 -0.3057
 4080SOL     OW29381   5.773   3.576   1.475  0.4083  0.2766  0.3730
 4080SOL    HW129382   5.693   3.528   1.452 -0.1354  0.0205  2.5660
 4080SOL    HW229383   5.753   3.667   1.455 -0.0937  0.1022  0.0545
 4081SOL     OW29384   4.489   1.146   5.792  0.0961  0.1970 -0.1219
 4081SOL    HW129385   4.551   1.202   5.839  2.2957 -2.3008  0.1925
 4081SOL    HW229386   4.473   1.191   5.710  1.4841  1.4542  0.2539
 4082SOL     OW29387   6.171   4.460   1.404 -0.2077  0.0897  0.0435
 4082SOL    HW129388   6.247   4.519   1.399  0.6637 -0.8185  1.7040
 4082SOL    HW229389   6.098   4.517   1.427  0.1572  0.8458 -0.6274
 4083SOL     OW29390   4.006   1.661   1.906  0.1964  0.1973  0.3021
 4083SOL    HW129391   3.925   1.694   1.945 -1.2023 -1.6409 -0.8264
 4083SOL    HW229392   4.005   1.694   1.816  0.4497 -0.1941  0.1490
 4084SOL     OW29393   6.114   2.999   0.784 -0.2680 -0.4697 -0.0011
 4084SOL    HW129394   6.021   2.996   0.763 -0.5436  1.0864  0.8371
 4084SOL    HW229395   6.154   3.043   0.709 -0.1278 -1.4178 -0.5063
 4085SOL     OW29396   3.612   1.730   1.480 -0.8073 -0.1675 -0.0874
 4085SOL    HW129397   3.601   1.637   1.498 -0.4776 -0.0672  0.6813
 4085SOL    HW229398   3.700   1.737   1.441 -0.4078 -0.0565  0.8233
 4086SOL     OW29399   5.863   5.980   7.205 -0.1924 -0.2088  0.8345
 4086SOL    HW129400   5.905   6.053   7.249  0.8669 -0.1843 -0.1632
 4086SOL    HW229401   5.831   6.017   7.122  1.1694 -1.0169 -0.1057
 4087SOL     OW29402   0.327   4.595   1.230 -0.4850  0.0134 -0.2340
 4087SOL    HW129403   0.325   4.579   1.324  0.4308 -0.2907 -0.2541
 4087SOL    HW229404   0.327   4.690   1.221  0.1279  0.0515  0.1081
 4088SOL     OW29405   3.221   6.460   0.853  0.2212  0.4325 -0.5820
 4088SOL    HW129406   3.277   6.537   0.856  1.5586 -0.5316  0.4472
 4088SOL    HW229407   3.278   6.387   0.876 -1.3146 -0.6967 -0.1453
 4089SOL     OW29408   4.371   3.023   6.922 -0.4002  0.0729  0.9477
 4089SOL    HW129409   4.286   3.024   6.878  0.0346  1.7753  0.0117
 4089SOL    HW229410   4.406   2.936   6.905 -0.2686  0.6095 -2.2211
 4090SOL     OW29411   3.516   5.150   0.031 -0.1060  0.2815 -0.2577
 4090SOL    HW129412   3.483   5.060   0.037  2.2338 -0.7785 -1.6874
 4090SOL    HW229413   3.544   5.172   0.120  1.7348 -1.4879 -0.3242
 4091SOL     OW29414   4.013   1.167   6.269 -0.4308 -0.3824 -0.0751
 4091SOL    HW129415   4.068   1.235   6.308  0.4118 -1.9890  1.6762
 4091SOL    HW229416   4.076   1.106   6.229 -1.0987 -0.9165 -0.3249
 4092SOL     OW29417   4.206   5.879   0.886  0.6139 -0.3748  0.3288
 4092SOL    HW129418   4.193   5.870   0.792  0.4582 -1.3920  0.4304
 4092SOL    HW229419   4.166   5.963   0.908 -3.2699 -1.9419  0.1292
 4093SOL     OW29420   4.491   4.104   7.438  0.2339  0.0877  0.6028
 4093SOL    HW129421   4.562   4.045   7.412 -1.6105 -1.7561 -0.5066
 4093SOL    HW229422   4.524   4.192   7.418  1.7163 -0.7981 -1.1069
 4094SOL     OW29423   2.764   5.469   6.158 -0.4168 -0.2464  0.5924
 4094SOL    HW129424   2.669   5.476   6.162 -0.5878 -1.2468 -0.8811
 4094SOL    HW229425   2.796   5.555   6.184 -1.8051  0.9066 -1.2827
 4095SOL     OW29426   2.982   5.893   1.113  0.0779 -0.0855  0.0782
 4095SOL    HW129427   2.924   5.823   1.144 -0.4440  0.9077  1.4451
 4095SOL    HW229428   2.966   5.898   1.019 -0.2301 -1.4611  0.0325
 4096SOL     OW29429   0.732   4.653   5.995 -0.1000 -0.5271 -0.1325
 4096SOL    HW129430   0.753   4.746   6.000  0.1264 -0.6408  1.1739
 4096SOL    HW229431   0.638   4.651   5.975  0.0816 -0.0296 -1.0837
 4097SOL     OW29432   0.569   2.525   1.552 -0.6284  0.2474  0.1155
 4097SOL    HW129433   0.542   2.444   1.509 -0.1175  0.1326  0.0023
 4097SOL    HW229434   0.488   2.563   1.586 -0.7893 -0.6537  0.7628
 4098SOL     OW29435   1.480   2.354   6.566 -0.4212 -0.1310 -0.2318
 4098SOL    HW129436   1.450   2.417   6.501  1.1535  0.2204 -0.6735
 4098SOL    HW229437   1.571   2.379   6.584 -0.9930  0.2055  2.6470
 4099SOL     OW29438   6.592   5.546   1.060  0.1146  0.1596 -0.3654
 4099SOL    HW129439   6.631   5.583   1.139  0.6189  1.3178 -1.1240
 4099SOL    HW229440   6.609   5.612   0.992 -1.4312 -0.2199 -1.1595
 4100SOL     OW29441   1.059   4.911   6.223 -0.1902  0.5408 -0.1175
 4100SOL    HW129442   1.128   4.962   6.180  0.4389  1.6215  2.0135
 4100SOL    HW229443   1.028   4.851   6.156  0.6539  2.1660 -2.0701
 4101SOL     OW29444   4.647   0.627   6.293 -0.3396 -0.0891  0.7172
 4101SOL    HW129445   4.632   0.545   6.246  0.5577 -0.5649  1.2267
 4101SOL    HW229446   4.678   0.599   6.379 -0.7431  0.7830  1.1557
 4102SOL     OW29447   2.433   1.864   7.053 -0.1146  0.4521  0.9173
 4102SOL    HW129448   2.492   1.902   6.987  0.2898 -0.6259  0.6443
 4102SOL    HW229449   2.384   1.939   7.086  1.6137  1.4546  1.3687
 4103SOL     OW29450   6.256   0.893   1.719 -0.4160 -0.1508 -0.6550
 4103SOL    HW129451   6.334   0.940   1.688 -0.7031  1.1079  0.4342
 4103SOL    HW229452   6.183   0.934   1.672 -0.6249  0.2514 -0.0010
 4104SOL     OW29453   1.374   4.857   6.927  0.2397 -0.0982 -0.1798
 4104SOL    HW129454   1.418   4.850   7.011  2.4362 -1.4820 -1.3510
 4104SOL    HW229455   1.316   4.781   6.924 -0.1350  0.1714  0.2435
 4105SOL     OW29456   5.649   4.656   5.953 -0.1965 -0.4875  0.4285
 4105SOL    HW129457   5.611   4.572   5.928  2.0150 -1.1428 -1.0329
 4105SOL    HW229458   5.578   4.719   5.942 -1.2925 -1.8346 -0.5808
 4106SOL     OW29459   3.103   0.217   0.171 -0.0592 -0.4792 -0.0781
 4106SOL    HW129460   3.190   0.253   0.154  0.3069 -1.6702 -0.8642
 4106SOL    HW229461   3.119   0.126   0.195 -1.0501 -0.5127  0.5079
 4107SOL     OW29462   6.236   3.557   7.223  0.2835  0.1621 -0.3309
 4107SOL    HW129463   6.274   3.616   7.157  1.2765 -0.9520 -0.7898
 4107SOL    HW229464   6.178   3.613   7.274 -0.0586  1.1835 -1.7804
 4108SOL     OW29465   5.504   0.798   6.375  0.2348 -0.5306 -0.3130
 4108SOL    HW129466   5.557   0.725   6.343  0.0681 -1.0653  0.5905
 4108SOL    HW229467   5.494   0.780   6.469 -0.4428  0.2568 -0.2314
 4109SOL     OW29468   4.862   2.918   0.080 -0.0828 -0.1206 -0.7622
 4109SOL    HW129469   4.778   2.949   0.048  0.0071  0.3467 -0.5429
 4109SOL    HW229470   4.855   2.822   0.076 -1.1246 -0.1286  0.5290
 4110SOL     OW29471   1.844   4.069   0.571 -0.0943  0.1650  0.4877
 4110SOL    HW129472   1.922   4.118   0.593 -2.1196  2.3977  3.4925
 4110SOL    HW229473   1.809   4.040   0.656 -2.8449 -0.1567 -0.6453
 4111SOL     OW29474   3.863   4.905   5.771 -0.5028 -0.4856 -0.1604
 4111SOL    HW129475   3.925   4.841   5.739 -0.6923 -0.9025  0.2962
 4111SOL    HW229476   3.827   4.945   5.692 -2.3466 -2.8043 -0.6051
 4112SOL     OW29477   4.663   5.892   0.404  0.6326  0.5054  0.6042
 4112SOL    HW129478   4.738   5.877   0.462  1.1184 -0.3183 -0.2087
 4112SOL    HW229479   4.610   5.813   0.414  0.9848  0.1212 -0.4478
 4113SOL     OW29480   5.011   1.157   1.073  0.6228 -0.1956  0.2831
 4113SOL    HW129481   5.039   1.081   1.022 -0.6139  0.2586 -1.1319
 4113SOL    HW229482   5.037   1.232   1.020  0.1330  0.3152  0.7582
 4114SOL     OW29483   1.682   0.504   6.528 -0.2731  0.5568  0.0578
 4114SOL    HW129484   1.658   0.594   6.506 -0.8045  0.2612 -0.6173
 4114SOL    HW229485   1.609   0.451   6.495  0.9039 -0.2941 -1.3257
 4115SOL     OW29486   3.037   4.019   6.472  0.6582 -0.2979 -0.0590
 4115SOL    HW129487   3.070   4.091   6.525  0.2097 -0.7428  0.8526
 4115SOL    HW229488   2.943   4.036   6.463  0.6401 -0.5000 -0.2801
 4116SOL     OW29489   5.470   0.573   2.083  0.0314  0.5262 -0.2707
 4116SOL    HW129490   5.409   0.635   2.042  0.1211  0.1346 -1.0243
 4116SOL    HW229491   5.437   0.487   2.057 -0.7224  0.1803  1.6523
 4117SOL     OW29492   6.354   4.945   0.650  0.2072  0.3536 -0.0233
 4117SOL    HW129493   6.322   4.865   0.691  1.2722 -0.1989 -0.2415
 4117SOL    HW229494   6.318   5.015   0.704 -1.9428 -0.1719 -0.6452
 4118SOL     OW29495   1.335   3.071   1.326 -0.2148 -0.1626  0.2973
 4118SOL    HW129496   1.424   3.059   1.293 -0.6196 -0.9342 -0.5740
 4118SOL    HW229497   1.345   3.122   1.407  1.0292 -0.4602  0.3440
 4119SOL     OW29498   1.328   3.478   0.371  0.0794  0.3925 -0.6561
 4119SOL    HW129499   1.349   3.503   0.281 -0.7209 -0.7728 -1.2044
 4119SOL    HW229500   1.413   3.462   0.412  0.4289  0.1568 -1.4531
 4120SOL     OW29501   6.498   0.341   7.098  0.1599 -0.4208 -0.1191
 4120SOL    HW129502   6.413   0.383   7.085  1.2396  2.2065  0.5595
 4120SOL    HW229503   6.488   0.292   7.179  0.1099  2.6815  1.9493
 4121SOL     OW29504   5.405   0.714   1.030  0.6645 -0.3239 -0.2136
 4121SOL    HW129505   5.404   0.715   1.126 -0.7449  1.5934 -0.1874
 4121SOL    HW229506   5.322   0.673   1.005  0.3909  0.4099 -0.5604
 4122SOL     OW29507   6.601   3.108   1.308  0.2825  0.7387 -0.5458
 4122SOL    HW129508   6.588   3.132   1.400 -0.0380  3.0396 -1.1263
 4122SOL    HW229509   6.653   3.028   1.312  1.9278  1.7874  1.6531
 4123SOL     OW29510   4.066   4.493   6.520 -0.2976 -0.6688 -0.1295
 4123SOL    HW129511   3.989   4.497   6.463 -0.5142 -1.7910  0.0623
 4123SOL    HW229512   4.061   4.406   6.560  1.1263 -0.7893 -0.1863
 4124SOL     OW29513   3.774   3.989   7.159  0.3924  0.1096  0.5094
 4124SOL    HW129514   3.759   3.957   7.070  1.6794  1.7295 -0.3517
 4124SOL    HW229515   3.836   3.926   7.197  1.0692  0.2736 -0.3051
 4125SOL     OW29516   5.040   2.834   5.667  0.2544 -0.4944  0.2650
 4125SOL    HW129517   5.103   2.839   5.739 -0.0837  0.1081  0.5342
 4125SOL    HW229518   5.079   2.774   5.604  0.4073 -1.2836  1.0969
 4126SOL     OW29519   5.325   5.203   7.383 -0.3922  0.5993  0.1473
 4126SOL    HW129520   5.346   5.214   7.290 -0.7153  0.0849  0.0113
 4126SOL    HW229521   5.290   5.289   7.409 -1.3606  0.4244 -0.4990
 4127SOL     OW29522   0.749   0.810   1.847 -0.7042  0.0879  0.1149
 4127SOL    HW129523   0.811   0.880   1.866 -1.7750  0.8668  0.8119
 4127SOL    HW229524   0.707   0.792   1.931 -2.2301  0.3826 -0.5614
 4128SOL     OW29525   5.494   3.463   0.246 -0.2262  0.2596  0.3718
 4128SOL    HW129526   5.420   3.519   0.224 -0.1504  0.1462 -0.1869
 4128SOL    HW229527   5.494   3.458   0.341 -1.1135  0.0132  0.3610
 4129SOL     OW29528   5.508   6.582   1.851 -0.2614 -0.0458 -0.3055
 4129SOL    HW129529   5.415   6.570   1.873  0.6032 -0.9994  3.6108
 4129SOL    HW229530   5.537   6.495   1.824  0.0358 -0.4502  1.2241
 4130SOL     OW29531   0.779   2.873   1.693  0.3274  0.1427 -0.4271
 4130SOL    HW129532   0.687   2.850   1.681  0.2079  1.0052 -1.2643
 4130SOL    HW229533   0.827   2.797   1.659 -0.0737  0.3144 -1.4070
 4131SOL     OW29534   2.257   0.785   5.233  0.0943  0.2744 -0.3248
 4131SOL    HW129535   2.184   0.807   5.176 -0.4424 -0.3191  0.1248
 4131SOL    HW229536   2.239   0.696   5.262 -0.0051  0.7943  1.3054
 4132SOL     OW29537   2.477   1.473   5.756 -0.1386  0.2083 -0.0905
 4132SOL    HW129538   2.562   1.493   5.797 -0.1650 -0.9994  0.5927
 4132SOL    HW229539   2.425   1.433   5.826 -0.7709 -0.3656 -0.8688
 4133SOL     OW29540   6.260   6.349   6.199 -0.3527  0.1613 -0.0254
 4133SOL    HW129541   6.281   6.413   6.132  1.6436 -1.6310 -1.2489
 4133SOL    HW229542   6.264   6.398   6.281  1.5331  1.5576 -0.8670
 4134SOL     OW29543   3.028   6.045   1.397  0.2491  0.1961  0.3458
 4134SOL    HW129544   2.984   6.047   1.483 -0.2554 -2.6944  0.2387
 4134SOL    HW229545   3.027   5.953   1.372 -1.2643  1.1185 -3.6444
 4135SOL     OW29546   4.474   5.485   6.967  0.4239 -0.1183 -0.8370
 4135SOL    HW129547   4.453   5.418   7.032  0.8056 -0.3111 -0.9098
 4135SOL    HW229548   4.523   5.438   6.899  0.0135  0.0745 -1.2787
 4136SOL     OW29549   5.408   6.096   0.942  0.2041  0.4119  0.0493
 4136SOL    HW129550   5.401   6.175   0.996  0.9245  0.3899  0.1836
 4136SOL    HW229551   5.500   6.092   0.917  0.2884 -0.6715  0.4753
 4137SOL     OW29552   4.534   5.578   5.781 -0.4954 -0.0631  0.7760
 4137SOL    HW129553   4.491   5.619   5.857 -1.2313  0.3604  0.1479
 4137SOL    HW229554   4.475   5.597   5.708  0.0793 -0.6897  0.1438
 4138SOL     OW29555   6.075   4.299   2.219  0.0329 -0.2825 -0.2112
 4138SOL    HW129556   6.104   4.369   2.278  0.6771 -1.5730  1.0646
 4138SOL    HW229557   6.051   4.345   2.139 -1.2277  1.6080  1.1323
 4139SOL     OW29558   1.463   4.355   6.804  0.0294  0.0759 -0.4525
 4139SOL    HW129559   1.403   4.382   6.734 -0.2548 -1.0341 -0.6582
 4139SOL    HW229560   1.495   4.437   6.841 -1.1624  0.6919 -0.7250
 4140SOL     OW29561   4.506   5.187   0.220  0.2802  0.1392 -0.0645
 4140SOL    HW129562   4.532   5.108   0.267 -0.6199  0.6663  1.3678
 4140SOL    HW229563   4.447   5.233   0.279  0.4523  1.6946 -1.0241
 4141SOL     OW29564   4.450   3.990   1.799  0.1861 -0.4140 -0.3070
 4141SOL    HW129565   4.465   3.907   1.845 -0.6443  0.6449  2.0530
 4141SOL    HW229566   4.374   4.028   1.843  1.0150  1.9576 -0.7757
 4142SOL     OW29567   3.596   5.842   6.791  0.7404 -0.2009 -0.4229
 4142SOL    HW129568   3.516   5.807   6.829  0.9305 -1.2811 -0.9747
 4142SOL    HW229569   3.627   5.907   6.854 -0.5235  0.1790 -0.1720
 4143SOL     OW29570   5.388   4.694   1.401 -0.1549  0.5512  0.2300
 4143SOL    HW129571   5.424   4.781   1.421 -0.0007  0.4241  0.5136
 4143SOL    HW229572   5.465   4.636   1.401 -0.1956  0.4903 -0.4144
 4144SOL     OW29573   1.592   5.913   6.845 -0.4491  0.2130 -0.3872
 4144SOL    HW129574   1.530   5.983   6.865 -2.4969 -1.4470 -0.5960
 4144SOL    HW229575   1.600   5.864   6.926  0.6648  0.4146 -0.3557
 4145SOL     OW29576   0.411   0.682   1.567  0.1437  0.0131 -0.6826
 4145SOL    HW129577   0.347   0.691   1.497 -1.0583 -1.1717  0.2163
 4145SOL    HW229578   0.385   0.748   1.632 -1.3702 -1.6913  0.5248
 4146SOL     OW29579   2.173   4.665   6.545 -0.1810 -0.7982  0.4550
 4146SOL    HW129580   2.262   4.628   6.549  0.5710  0.5800 -1.6105
 4146SOL    HW229581   2.167   4.721   6.623  0.4043 -1.6266  1.1085
 4147SOL     OW29582   2.564   2.204   7.041 -0.0025 -0.3802 -0.0932
 4147SOL    HW129583   2.602   2.158   7.116  0.5243 -1.5722 -1.0590
 4147SOL    HW229584   2.548   2.136   6.976 -0.5189  0.6093 -1.0468
 4148SOL     OW29585   2.968   2.052   5.508  0.1077  0.1538  0.4817
 4148SOL    HW129586   2.955   2.147   5.503 -1.0530 -0.0309 -0.4393
 4148SOL    HW229587   2.882   2.015   5.488  0.3781 -1.0947  1.5217
 4149SOL     OW29588   5.450   2.023   2.020 -0.3408  0.0148 -0.6426
 4149SOL    HW129589   5.368   2.028   1.972 -0.5106 -0.6310 -0.4312
 4149SOL    HW229590   5.511   1.982   1.959 -0.2782  0.1395 -0.6645
 4150SOL     OW29591   2.991   3.306   0.216  0.2787 -0.3445  0.0569
 4150SOL    HW129592   2.947   3.390   0.229 -1.9254 -1.3803 -0.2590
 4150SOL    HW229593   3.046   3.320   0.138  2.4950  1.6647  1.8106
 4151SOL     OW29594   5.913   0.383   1.183 -0.0528 -0.3190 -0.1715
 4151SOL    HW129595   5.974   0.399   1.255 -0.0082 -0.4558 -0.1782
 4151SOL    HW229596   5.827   0.381   1.224  0.2038 -5.2710  0.8023
 4152SOL     OW29597   1.450   0.687   1.640 -0.4828  0.3995  0.6574
 4152SOL    HW129598   1.472   0.740   1.717  0.4287 -0.6914  1.1795
 4152SOL    HW229599   1.442   0.598   1.674  0.3582 -0.1720 -0.5826
 4153SOL     OW29600   4.908   1.353   6.181  0.6805 -0.5741 -0.6136
 4153SOL    HW129601   4.927   1.329   6.090  1.6336  3.5997 -1.7283
 4153SOL    HW229602   4.995   1.365   6.220  0.3083  0.9714 -0.2200
 4154SOL     OW29603   1.168   1.469   6.754  0.0400 -0.2572  0.2916
 4154SOL    HW129604   1.097   1.528   6.781 -1.0443 -1.1538 -0.5067
 4154SOL    HW229605   1.170   1.477   6.658  0.7487 -0.5670  0.2751
 4155SOL     OW29606   5.777   1.184   1.204 -0.0582  0.4488 -0.2452
 4155SOL    HW129607   5.781   1.234   1.123 -0.5950  2.4771  0.9108
 4155SOL    HW229608   5.686   1.191   1.232  0.3055  0.5446  0.9753
 4156SOL     OW29609   1.752   1.415   6.178 -0.4802  0.3236 -0.6214
 4156SOL    HW129610   1.736   1.507   6.200  0.3973  0.4359 -0.4185
 4156SOL    HW229611   1.828   1.390   6.231  0.0389 -0.1637 -1.5575
 4157SOL     OW29612   0.794   2.490   1.164  0.1718 -0.3493  0.0778
 4157SOL    HW129613   0.789   2.417   1.226 -0.4853  1.0174  1.7429
 4157SOL    HW229614   0.715   2.483   1.112 -0.2406 -0.4455  0.7031
 4158SOL     OW29615   5.338   5.320   7.113 -0.5906  0.9392  0.6848
 4158SOL    HW129616   5.416   5.311   7.058 -0.8439  0.9589  0.3195
 4158SOL    HW229617   5.269   5.277   7.063 -0.4804 -0.5418  1.7166
 4159SOL     OW29618   3.858   5.647   6.085 -0.3409 -0.0627 -0.3626
 4159SOL    HW129619   3.816   5.718   6.132  1.3585  0.1272  0.9815
 4159SOL    HW229620   3.933   5.622   6.140 -0.2436 -2.1576 -1.3208
 4160SOL     OW29621   3.706   6.204   5.277 -0.4644  0.2506  0.8849
 4160SOL    HW129622   3.721   6.171   5.189 -0.8683  0.2702  0.8068
 4160SOL    HW229623   3.776   6.166   5.329 -1.5416 -1.6798  1.0327
 4161SOL     OW29624   2.449   3.279   1.210  0.3714 -0.1060 -0.3187
 4161SOL    HW129625   2.455   3.219   1.136  0.9957 -0.4392 -0.0078
 4161SOL    HW229626   2.534   3.271   1.254  0.4168  0.9111 -0.2033
 4162SOL     OW29627   5.358   4.808   6.107 -0.2255  0.1351 -0.4843
 4162SOL    HW129628   5.370   4.900   6.084 -0.7719  0.3925  0.2362
 4162SOL    HW229629   5.367   4.761   6.024 -0.5964  0.8919 -0.9591
 4163SOL     OW29630   1.441   5.443   7.022 -0.1048  0.2136  0.1124
 4163SOL    HW129631   1.510   5.452   6.956 -0.2459 -1.3780 -0.2924
 4163SOL    HW229632   1.379   5.514   7.003 -0.4275 -0.5489 -1.8404
 4164SOL     OW29633   2.945   2.424   1.820  0.3438  0.0677  0.3622
 4164SOL    HW129634   2.874   2.480   1.788  0.2729  0.5948  1.4050
 4164SOL    HW229635   3.018   2.484   1.835  1.5110 -0.6446 -1.9689
 4165SOL     OW29636   0.529   2.790   1.731 -0.2344  0.6685  0.1863
 4165SOL    HW129637   0.468   2.741   1.676  0.1694 -1.8252  1.8301
 4165SOL    HW229638   0.488   2.791   1.818  1.3780  0.2028  0.9863
 4166SOL     OW29639   2.330   1.236   2.315  0.3320 -0.2761  0.2347
 4166SOL    HW129640   2.250   1.183   2.316  1.5567 -2.2377  1.7693
 4166SOL    HW229641   2.372   1.213   2.232 -0.1583 -0.0641 -0.0795
 4167SOL     OW29642   6.346   2.143   5.938  0.0702  0.1988 -0.4452
 4167SOL    HW129643   6.351   2.061   5.987  0.7595  0.4490 -0.0796
 4167SOL    HW229644   6.434   2.154   5.901 -0.0404  0.7353 -0.5508
 4168SOL     OW29645   4.745   6.574   6.543 -0.0318  0.0285 -0.5498
 4168SOL    HW129646   4.746   6.481   6.565 -0.0547  0.3664  0.9841
 4168SOL    HW229647   4.682   6.582   6.471 -0.7282 -1.0049 -0.0688
 4169SOL     OW29648   3.399   4.757   0.690  0.6515 -0.0592 -0.5003
 4169SOL    HW129649   3.453   4.797   0.758 -0.5061  1.9451 -0.6747
 4169SOL    HW229650   3.460   4.737   0.619  1.8161 -1.8592  0.9386
 4170SOL     OW29651   0.289   1.441   1.685 -0.5444 -0.0924  0.1834
 4170SOL    HW129652   0.233   1.500   1.734 -0.0585  0.6004 -0.0814
 4170SOL    HW229653   0.366   1.430   1.741 -0.4437 -0.1299  0.0365
 4171SOL     OW29654   2.010   4.700   0.335  0.7149  0.0697  0.1306
 4171SOL    HW129655   1.933   4.692   0.391  0.5470  0.7719  0.0158
 4171SOL    HW229656   2.000   4.630   0.271 -0.1349  0.5084 -0.2372
 4172SOL     OW29657   5.055   4.620   0.973  0.4466 -0.2381  0.2210
 4172SOL    HW129658   5.090   4.555   1.033  0.4406 -1.4853 -1.0781
 4172SOL    HW229659   5.125   4.685   0.964 -0.1176  0.8601  2.7384
 4173SOL     OW29660   6.538   0.660   5.479  0.3107 -0.1910  0.2979
 4173SOL    HW129661   6.534   0.588   5.542 -0.6751 -0.0036  0.4572
 4173SOL    HW229662   6.596   0.627   5.410  0.5093 -0.8226  0.7492
 4174SOL     OW29663   5.388   1.668   1.970  0.4159  0.0018 -0.0160
 4174SOL    HW129664   5.456   1.723   1.931  1.1717 -0.6251  0.3888
 4174SOL    HW229665   5.332   1.730   2.017 -1.5456  1.0367 -3.3820
 4175SOL     OW29666   3.480   0.711   0.630  0.0850  0.2636  0.2711
 4175SOL    HW129667   3.502   0.773   0.561 -0.1885  0.3884  0.2928
 4175SOL    HW229668   3.543   0.640   0.621 -2.1269 -1.5619 -2.4588
 4176SOL     OW29669   1.774   5.886   5.615 -0.0989 -0.6348 -0.2166
 4176SOL    HW129670   1.705   5.878   5.550  0.2431 -2.1976 -0.4387
 4176SOL    HW229671   1.782   5.798   5.652 -0.7932  0.3425  2.5061
 4177SOL     OW29672   3.815   4.773   6.868  0.0998 -0.0256 -0.1453
 4177SOL    HW129673   3.849   4.855   6.831  0.7236 -0.2122  0.0023
 4177SOL    HW229674   3.853   4.769   6.956  0.0226 -0.4419 -0.1306
 4178SOL     OW29675   2.335   6.263   2.005 -0.8315  0.1958 -0.1441
 4178SOL    HW129676   2.253   6.266   2.055 -0.9611 -1.5860 -0.1947
 4178SOL    HW229677   2.403   6.270   2.071 -1.0170  0.0512  0.0656
 4179SOL     OW29678   4.141   1.431   7.404  0.0771 -0.2966 -0.1884
 4179SOL    HW129679   4.164   1.420   7.496  0.7576  0.6563 -0.2418
 4179SOL    HW229680   4.080   1.359   7.387 -0.4862 -0.1658  1.1432
 4180SOL     OW29681   1.423   4.502   0.627 -0.2066  0.4434 -1.0671
 4180SOL    HW129682   1.444   4.510   0.534  1.2796  0.1204 -0.7981
 4180SOL    HW229683   1.376   4.583   0.648  2.5886  2.2955 -1.3576
 4181SOL     OW29684   0.047   3.240   6.205  0.5513 -0.1973 -0.2381
 4181SOL    HW129685  -0.033   3.208   6.246 -0.1747 -0.0492 -1.5069
 4181SOL    HW229686   0.116   3.220   6.269 -0.3027 -1.5172  0.3184
 4182SOL     OW29687   3.374   0.432   0.475 -0.0727 -0.0517 -0.7409
 4182SOL    HW129688   3.462   0.460   0.500 -0.5551  1.3751 -0.5652
 4182SOL    HW229689   3.359   0.474   0.390 -0.2708 -0.9944 -1.1868
 4183SOL     OW29690   5.209   4.739   0.559 -0.0287  0.0538 -0.1634
 4183SOL    HW129691   5.204   4.811   0.622  1.6457  0.7392 -0.7496
 4183SOL    HW229692   5.187   4.780   0.475 -0.1340 -0.3687 -0.3428
 4184SOL     OW29693   5.717   2.127   0.452  0.3485 -0.3358 -0.5526
 4184SOL    HW129694   5.769   2.117   0.532 -0.8986 -0.3066  0.3001
 4184SOL    HW229695   5.781   2.142   0.383  1.5880 -2.0799  0.1373
 4185SOL     OW29696   5.387   6.222   1.395  0.3914 -0.2825  0.3872
 4185SOL    HW129697   5.377   6.317   1.401  0.2749 -0.2436 -0.2607
 4185SOL    HW229698   5.478   6.205   1.418  1.0734  0.2418 -1.6498
 4186SOL     OW29699   2.514   0.331   0.450  0.3571  0.4362  0.0068
 4186SOL    HW129700   2.572   0.328   0.374 -0.5032 -1.1083 -0.6261
 4186SOL    HW229701   2.553   0.269   0.512 -0.2207 -0.0834 -0.1418
 4187SOL     OW29702   1.692   3.199   7.371 -0.5956  0.0815  0.3144
 4187SOL    HW129703   1.763   3.263   7.379 -0.9716  0.5161  0.2169
 4187SOL    HW229704   1.634   3.236   7.305 -2.1157  0.9005  2.0168
 4188SOL     OW29705   4.641   1.398   1.349 -0.9269 -0.4357  0.0202
 4188SOL    HW129706   4.603   1.320   1.309  3.1626 -1.4273 -2.6243
 4188SOL    HW229707   4.575   1.466   1.338 -3.4078 -2.7580 -0.4395
 4189SOL     OW29708   2.101   1.136   5.889  0.3335 -0.0760  0.3801
 4189SOL    HW129709   2.146   1.101   5.812  0.0504  1.5354 -0.5799
 4189SOL    HW229710   2.008   1.121   5.870  0.3230 -0.9833  1.1054
 4190SOL     OW29711   2.389   0.558   6.899  0.2473 -0.1652  0.5814
 4190SOL    HW129712   2.470   0.508   6.887 -0.0388 -0.2920 -1.2016
 4190SOL    HW229713   2.406   0.641   6.855  0.3215  0.8960  2.5448
 4191SOL     OW29714   1.075   2.604   7.269  0.1100 -0.4050 -0.1344
 4191SOL    HW129715   1.128   2.545   7.214  0.4265  1.1869 -1.6568
 4191SOL    HW229716   0.995   2.619   7.218  0.7834  1.8013 -0.6688
 4192SOL     OW29717   1.017   2.607   1.274  0.1479  0.3009 -0.7928
 4192SOL    HW129718   0.923   2.592   1.267 -0.1090  0.4848  1.4396
 4192SOL    HW229719   1.047   2.540   1.335  1.5742 -0.0508 -1.8375
 4193SOL     OW29720   4.504   4.889   6.083 -0.3289 -0.6324  0.0008
 4193SOL    HW129721   4.497   4.903   5.988  0.5723 -0.7502 -0.0901
 4193SOL    HW229722   4.596   4.867   6.097 -0.5128 -0.8610  0.8766
 4194SOL     OW29723   5.243   4.181   6.623  0.2779  0.0177 -0.1636
 4194SOL    HW129724   5.327   4.223   6.639 -0.1130  0.4838  0.7410
 4194SOL    HW229725   5.196   4.188   6.706 -0.6726 -0.1901 -0.6675
 4195SOL     OW29726   5.652   4.832   1.337  0.0883  0.3363  0.5577
 4195SOL    HW129727   5.731   4.885   1.326 -0.3623  1.0121  0.4831
 4195SOL    HW229728   5.681   4.742   1.324  0.6560  0.6539 -0.5420
 4196SOL     OW29729   6.167   3.359   2.370  0.5585 -0.0719  0.0275
 4196SOL    HW129730   6.208   3.388   2.288  1.4132 -2.1456 -0.3499
 4196SOL    HW229731   6.231   3.383   2.438  0.0061  1.3365  0.0833
 4197SOL     OW29732   6.292   1.826   5.766  0.2973  0.2394  0.6625
 4197SOL    HW129733   6.318   1.841   5.857 -1.2042 -0.5566  1.2777
 4197SOL    HW229734   6.327   1.901   5.718 -1.5002  2.3972  2.4500
 4198SOL     OW29735   3.434   0.632   6.705  0.5154 -0.2674  0.1203
 4198SOL    HW129736   3.343   0.616   6.678 -0.2830  1.6239  1.4656
 4198SOL    HW229737   3.427   0.695   6.776  2.8839 -0.5410  0.6774
 4199SOL     OW29738   6.050   4.343   1.946  0.4877 -0.3119 -0.3595
 4199SOL    HW129739   5.973   4.285   1.951 -0.7111  1.0067 -2.4415
 4199SOL    HW229740   6.014   4.429   1.928  2.4819  0.3605 -1.3584
 4200SOL     OW29741   1.532   4.817   7.159  0.3241  0.1581  0.5386
 4200SOL    HW129742   1.574   4.762   7.225 -0.6906 -2.6265 -0.9659
 4200SOL    HW229743   1.531   4.905   7.198  0.9831 -1.0653  3.6001
 4201SOL     OW29744   3.076   5.529   1.677 -0.1029 -0.3874 -0.6064
 4201SOL    HW129745   3.016   5.604   1.681  0.4059  0.0088 -0.2850
 4201SOL    HW229746   3.162   5.567   1.693 -0.0575 -1.3308  1.6854
 4202SOL     OW29747   0.640   0.625   7.468  0.3129  0.7587  0.3103
 4202SOL    HW129748   0.579   0.554   7.488 -0.6920  1.8481  1.1812
 4202SOL    HW229749   0.726   0.582   7.471  0.0029  0.0512  3.5737
 4203SOL     OW29750   3.623   5.521   0.058 -0.0126 -0.2843 -0.0321
 4203SOL    HW129751   3.583   5.584   0.118  0.6497 -1.4570  1.7193
 4203SOL    HW229752   3.627   5.567  -0.026 -1.9381  1.0409  0.5339
 4204SOL     OW29753   5.818   5.141   0.507 -0.3781  0.6324 -0.3928
 4204SOL    HW129754   5.774   5.144   0.592  0.5583 -0.9319  0.1874
 4204SOL    HW229755   5.911   5.147   0.528 -0.0276 -1.4666 -1.1325
 4205SOL     OW29756   5.003   4.762   0.004  0.0456 -0.0155  0.5498
 4205SOL    HW129757   4.919   4.715   0.004  0.1678 -0.2359  0.4748
 4205SOL    HW229758   5.050   4.725   0.079 -0.5744  1.2791  1.6134
 4206SOL     OW29759   0.733   0.227   0.153  0.0431 -0.0719 -0.1023
 4206SOL    HW129760   0.692   0.180   0.226 -0.0078  0.2904  0.1067
 4206SOL    HW229761   0.738   0.318   0.184 -1.2429  0.3618 -1.0794
 4207SOL     OW29762   3.549   2.657   1.706  0.7455  0.1032 -0.0650
 4207SOL    HW129763   3.487   2.595   1.743 -0.4619  0.9382 -0.6128
 4207SOL    HW229764   3.530   2.740   1.750 -1.0125  1.2357 -2.6620
 4208SOL     OW29765   5.550   5.150   6.244 -0.7241 -0.5774  0.0052
 4208SOL    HW129766   5.476   5.162   6.304  0.2697  2.0226  0.8459
 4208SOL    HW229767   5.620   5.204   6.280  1.1070 -1.7327 -1.6153
 4209SOL     OW29768   2.949   2.574   6.008 -0.6696 -0.4128 -0.2306
 4209SOL    HW129769   2.956   2.667   6.029  1.1672 -0.6416  0.3758
 4209SOL    HW229770   2.987   2.566   5.920 -1.8928 -0.4587 -0.7827
 4210SOL     OW29771   1.090   1.972   5.795 -0.2935 -0.0517 -0.1301
 4210SOL    HW129772   1.173   2.018   5.782 -1.1773  1.4210 -0.9053
 4210SOL    HW229773   1.038   1.996   5.718 -0.1746 -3.9872 -1.6772
 4211SOL     OW29774   5.578   5.639   6.955 -0.1026  0.3297  0.2999
 4211SOL    HW129775   5.553   5.581   6.884  1.6309  0.0613 -0.1442
 4211SOL    HW229776   5.521   5.716   6.945 -1.5489 -0.7292  0.1323
 4212SOL     OW29777   5.184   1.288   1.374 -0.2269  0.0285 -0.5355
 4212SOL    HW129778   5.094   1.255   1.375 -0.3296  0.2999  0.6582
 4212SOL    HW229779   5.238   1.212   1.395 -0.2816  0.1036 -0.1018
 4213SOL     OW29780   2.474   6.519   0.091 -0.5036 -0.2813 -0.0608
 4213SOL    HW129781   2.463   6.572   0.171  2.8076  0.4451  0.0607
 4213SOL    HW229782   2.396   6.538   0.039 -1.5362  1.2770  1.8925
 4214SOL     OW29783   4.193   3.978   5.226  0.2568 -0.4239  0.1068
 4214SOL    HW129784   4.230   3.936   5.304  0.2452 -0.7998 -0.0888
 4214SOL    HW229785   4.180   4.069   5.252  0.8928 -0.3922  0.3288
 4215SOL     OW29786   4.753   3.723   0.716 -0.5372  0.2432 -0.0692
 4215SOL    HW129787   4.808   3.801   0.718 -1.4297  0.8738  0.9396
 4215SOL    HW229788   4.759   3.688   0.805 -1.0205 -0.2117 -0.2148
 4216SOL     OW29789   3.554   1.164   2.574  0.7162 -0.2784  0.3250
 4216SOL    HW129790   3.539   1.254   2.605  1.0145 -0.2502  0.3863
 4216SOL    HW229791   3.466   1.126   2.568  0.5199  0.2746 -0.4715
 4217SOL     OW29792   0.798   0.721   6.791 -0.0657  0.0820 -0.2921
 4217SOL    HW129793   0.890   0.700   6.772  0.7953  2.6351  0.6133
 4217SOL    HW229794   0.803   0.780   6.867 -2.4962  0.1361 -0.1096
 4218SOL     OW29795   3.966   5.277   6.321  0.1450 -0.4390  0.8042
 4218SOL    HW129796   3.997   5.364   6.299 -0.6878 -0.8312 -2.3308
 4218SOL    HW229797   3.875   5.290   6.349 -0.3640 -0.3741 -0.8087
 4219SOL     OW29798   4.191   6.302   5.667 -0.2787  0.1164  0.2678
 4219SOL    HW129799   4.169   6.219   5.624 -0.4036 -0.4809  1.4409
 4219SOL    HW229800   4.118   6.360   5.645 -0.4523 -0.2411 -0.1306
 4220SOL     OW29801   5.339   3.946   0.028 -0.3042 -0.2086 -0.1908
 4220SOL    HW129802   5.305   4.022  -0.020  0.3603 -0.3265 -0.8577
 4220SOL    HW229803   5.421   3.978   0.068 -0.6625 -0.2175  0.5835
 4221SOL     OW29804   3.919   0.710   7.150  0.2393  0.2032  0.6806
 4221SOL    HW129805   3.915   0.796   7.109 -0.4449  0.5883  1.5197
 4221SOL    HW229806   3.828   0.680   7.153  0.5240 -0.7834 -0.0709
 4222SOL     OW29807   2.257   4.302   1.194  0.2721 -0.5215  0.4816
 4222SOL    HW129808   2.351   4.309   1.212  0.5668 -1.2670 -0.6678
 4222SOL    HW229809   2.219   4.380   1.235  2.0058  2.4527 -2.9224
 4223SOL     OW29810   3.312   2.888   7.209  0.3901 -0.9270  0.5720
 4223SOL    HW129811   3.285   2.979   7.208 -0.3816 -1.0527  2.8686
 4223SOL    HW229812   3.407   2.890   7.202  0.2685 -0.1320 -1.6861
 4224SOL     OW29813   3.811   2.345   5.986 -0.0229 -0.4699 -0.0384
 4224SOL    HW129814   3.821   2.327   5.892  0.7911 -3.3382  0.4753
 4224SOL    HW229815   3.784   2.261   6.023  1.6109  0.0195  2.5295
 4225SOL     OW29816   0.868   0.284   7.234  0.6194  0.4617  0.3818
 4225SOL    HW129817   0.840   0.342   7.163  0.3310  0.7401  0.7201
 4225SOL    HW229818   0.963   0.297   7.239  0.5254  1.0920  0.6163
 4226SOL     OW29819   1.276   2.426   0.805  0.5357  0.1729 -0.4037
 4226SOL    HW129820   1.200   2.417   0.748  1.5910  0.3163 -1.8846
 4226SOL    HW229821   1.294   2.519   0.806  0.3601  0.2099  0.4375
 4227SOL     OW29822   2.300   3.701   0.473  0.4310  0.5282 -0.0043
 4227SOL    HW129823   2.291   3.650   0.393 -1.1246  1.4891 -0.4870
 4227SOL    HW229824   2.377   3.665   0.517 -0.5176 -2.1273 -0.3729
 4228SOL     OW29825   1.183   1.101   2.011  0.1652  0.6573  0.3646
 4228SOL    HW129826   1.250   1.040   1.982 -0.5439  1.4383 -3.4623
 4228SOL    HW229827   1.218   1.188   1.989 -1.5839  1.1259 -0.8561
 4229SOL     OW29828   4.079   5.595   0.810 -0.2455 -0.5027 -0.9080
 4229SOL    HW129829   4.005   5.656   0.817  1.4348  1.7089 -1.2495
 4229SOL    HW229830   4.149   5.637   0.860  0.2597 -3.5514  1.2335
 4230SOL     OW29831   2.243   3.178   0.230  0.1771 -0.5396  0.1008
 4230SOL    HW129832   2.180   3.220   0.171  0.6305 -0.0667 -0.0472
 4230SOL    HW229833   2.191   3.110   0.275 -0.6833  0.4793  0.7066
 4231SOL     OW29834   6.578   6.318   1.230  0.1467 -0.2488  0.0593
 4231SOL    HW129835   6.584   6.256   1.302 -1.8880 -0.1146  0.4027
 4231SOL    HW229836   6.573   6.263   1.151 -2.4719 -0.6636  0.4132
 4232SOL     OW29837   3.121   0.209   6.668 -0.1007 -0.5038 -0.0331
 4232SOL    HW129838   3.140   0.198   6.575  0.2148 -2.1067  0.1968
 4232SOL    HW229839   3.027   0.190   6.676 -0.0824 -0.5759  0.0093
 4233SOL     OW29840   5.506   0.091   2.170 -0.0277  0.5115  0.1176
 4233SOL    HW129841   5.467   0.125   2.090 -1.2799  0.7302  0.8022
 4233SOL    HW229842   5.450   0.125   2.240 -0.8228 -2.2154  0.9079
 4234SOL     OW29843   5.635   3.254   2.648 -0.2455  0.1985  0.2011
 4234SOL    HW129844   5.553   3.210   2.670  0.4264 -0.9150  0.5577
 4234SOL    HW229845   5.650   3.315   2.721 -0.3026 -0.2367  0.5800
 4235SOL     OW29846   2.158   3.416   6.959  0.1461  0.2180 -0.2440
 4235SOL    HW129847   2.209   3.368   6.893  0.4357  1.2685 -0.8137
 4235SOL    HW229848   2.070   3.422   6.921  0.2885  0.7363 -0.5143
 4236SOL     OW29849   5.834   6.119   6.669 -0.6068  0.4750 -0.4322
 4236SOL    HW129850   5.747   6.155   6.651 -0.9567 -0.1009  0.0804
 4236SOL    HW229851   5.819   6.025   6.680 -0.0631  0.4925  0.5642
 4237SOL     OW29852   1.622   0.564   7.044 -0.8180  0.5732 -0.4116
 4237SOL    HW129853   1.610   0.474   7.075 -1.3448  0.7477 -0.1040
 4237SOL    HW229854   1.671   0.554   6.962 -0.1433  0.0554  0.0412
 4238SOL     OW29855   4.381   2.421   1.962  0.2910  0.3280  0.2351
 4238SOL    HW129856   4.304   2.367   1.944  0.1039  0.6255  0.1375
 4238SOL    HW229857   4.354   2.478   2.035 -0.3355  1.9502 -1.1947
 4239SOL     OW29858   5.042   3.906   7.006 -0.1895 -0.1912 -0.3182
 4239SOL    HW129859   5.058   3.904   7.100  2.7998  2.1339 -0.6163
 4239SOL    HW229860   4.947   3.917   6.997 -0.5455 -0.5587  2.3788
 4240SOL     OW29861   4.395   0.550   2.254  0.3254  0.2616 -0.5882
 4240SOL    HW129862   4.424   0.460   2.267 -0.5750  0.1018  0.4053
 4240SOL    HW229863   4.474   0.603   2.269  0.6974 -0.3128 -0.4905
 4241SOL     OW29864   0.042   4.953   0.275 -0.2011  0.5341 -0.0175
 4241SOL    HW129865   0.130   4.916   0.272 -0.8408 -0.9751 -2.1018
 4241SOL    HW229866   0.006   4.921   0.359  0.9595  0.5450  0.5027
 4242SOL     OW29867   2.498   6.344   5.990 -0.4078  0.3373  0.3241
 4242SOL    HW129868   2.528   6.384   6.071 -2.5423  0.1377  1.2836
 4242SOL    HW229869   2.466   6.418   5.938 -0.7474  0.2835  0.4540
 4243SOL     OW29870   2.043   5.764   0.641 -0.0108  0.2768  0.7459
 4243SOL    HW129871   1.972   5.701   0.652  1.2992 -1.5785 -0.6467
 4243SOL    HW229872   2.000   5.849   0.637 -2.0788 -0.7205  0.4097
 4244SOL     OW29873   0.935   3.314   6.637  0.2229  0.1520  0.0832
 4244SOL    HW129874   0.898   3.350   6.557 -0.5669 -0.6346  0.0883
 4244SOL    HW229875   0.990   3.385   6.671  2.0014 -0.0871 -2.0513
 4245SOL     OW29876   4.855   0.506   6.432 -0.3611  0.4777 -0.1419
 4245SOL    HW129877   4.837   0.414   6.414  0.3045  0.6872 -2.1007
 4245SOL    HW229878   4.935   0.505   6.485 -1.6159 -0.1176  1.8361
 4246SOL     OW29879   4.102   0.629   0.089  0.0818  0.0997  0.2222
 4246SOL    HW129880   4.104   0.540   0.053  1.1851  0.7651 -1.4846
 4246SOL    HW229881   4.011   0.657   0.078 -0.7286 -1.3677  2.3834
 4247SOL     OW29882   4.756   4.637   0.000 -0.0347  0.3637 -0.5229
 4247SOL    HW129883   4.767   4.560   0.056  1.0326  1.2748  0.5566
 4247SOL    HW229884   4.661   4.645  -0.010 -0.1494 -1.3227 -0.9952
 4248SOL     OW29885   5.783   5.679   0.002  0.5667 -0.6658  0.1331
 4248SOL    HW129886   5.839   5.678  -0.076 -1.0191  0.2360 -1.0761
 4248SOL    HW229887   5.744   5.592   0.005  0.8990 -0.8165  0.1280
 4249SOL     OW29888   5.294   6.389   6.135 -0.1731 -0.3763  0.4147
 4249SOL    HW129889   5.305   6.376   6.229  0.3038 -1.3226  0.2456
 4249SOL    HW229890   5.368   6.341   6.096  0.8617  1.7437 -0.3515
 4250SOL     OW29891   5.411   4.914   7.423  0.1166 -0.1525  0.1186
 4250SOL    HW129892   5.484   4.973   7.405 -0.2562 -0.1265 -1.5525
 4250SOL    HW229893   5.334   4.965   7.397 -0.3516 -0.7516  0.3268
 4251SOL     OW29894   3.847   0.386   6.945 -0.5663 -0.2399 -0.3238
 4251SOL    HW129895   3.868   0.451   6.878 -1.6891  1.4957  0.9240
 4251SOL    HW229896   3.923   0.386   7.003  0.0694 -1.1696 -1.1278
 4252SOL     OW29897   0.272   1.616   0.453 -0.4545 -0.1550 -0.1177
 4252SOL    HW129898   0.231   1.571   0.380  1.4585 -1.7099 -0.3166
 4252SOL    HW229899   0.359   1.576   0.461 -0.1508  0.7793  2.2556
 4253SOL     OW29900   4.857   4.251   1.668  0.5223  0.2107  0.2269
 4253SOL    HW129901   4.834   4.307   1.594 -0.3535  0.3255  0.5821
 4253SOL    HW229902   4.952   4.240   1.660  0.5958  1.1016 -0.2962
 4254SOL     OW29903   4.466   2.005   0.926 -0.3782 -0.1175  0.6671
 4254SOL    HW129904   4.461   2.101   0.932  2.3109  0.1789 -0.4608
 4254SOL    HW229905   4.400   1.981   0.861  1.3135  1.4300 -1.7719
 4255SOL     OW29906   6.048   4.428   7.271 -0.9270  0.3521 -0.0556
 4255SOL    HW129907   5.992   4.397   7.201  0.0233 -1.9045  0.1172
 4255SOL    HW229908   6.003   4.506   7.305 -2.9883 -0.3233 -1.0951
 4256SOL     OW29909   4.021   3.139   1.058 -0.5647  0.2843 -0.2822
 4256SOL    HW129910   3.927   3.152   1.047 -0.4995  1.6106  0.4843
 4256SOL    HW229911   4.029   3.070   1.124 -0.9628 -0.8028 -1.3249
 4257SOL     OW29912   1.254   4.235   0.862 -0.2750  0.1786 -0.1489
 4257SOL    HW129913   1.286   4.272   0.944  0.2809  1.6260 -0.9805
 4257SOL    HW229914   1.241   4.142   0.881  1.3472  0.1587  1.1395
 4258SOL     OW29915   2.645   3.700   0.270  0.0402  0.4992  0.0947
 4258SOL    HW129916   2.591   3.747   0.334  1.0266  0.4144  1.0218
 4258SOL    HW229917   2.727   3.751   0.266  1.0944 -1.0279  1.0552
 4259SOL     OW29918   0.204   0.641   5.363 -0.0163  0.5089 -0.1389
 4259SOL    HW129919   0.296   0.623   5.347 -0.0497  0.1262  0.0736
 4259SOL    HW229920   0.202   0.729   5.399  0.5606 -0.4781  2.5436
 4260SOL     OW29921   6.388   2.667   0.697  0.7275  0.1614  0.7705
 4260SOL    HW129922   6.452   2.717   0.647  0.9292  0.4509  1.3096
 4260SOL    HW229923   6.390   2.579   0.659  2.3445 -0.1891  1.5579
 4261SOL     OW29924   6.148   1.546   5.537  0.2019  0.2647 -0.2584
 4261SOL    HW129925   6.158   1.486   5.611  0.0603 -0.2745 -0.6725
 4261SOL    HW229926   6.203   1.509   5.468  1.2454  1.3803 -0.0685
 4262SOL     OW29927   4.740   0.115   5.314  0.2999 -0.1119 -0.4136
 4262SOL    HW129928   4.765   0.199   5.353  1.9686 -0.6323 -0.3032
 4262SOL    HW229929   4.808   0.054   5.342 -0.7005 -1.4440 -0.7712
 4263SOL     OW29930   1.013   3.233   5.396 -0.1581  0.0419  0.1130
 4263SOL    HW129931   0.926   3.231   5.434  0.6879 -0.8757  2.1406
 4263SOL    HW229932   1.065   3.285   5.457  0.9972 -0.4838 -0.3855
 4264SOL     OW29933   3.074   4.843   0.325  0.1130 -0.0352  0.4431
 4264SOL    HW129934   3.011   4.771   0.327  0.0713 -0.0378 -0.5856
 4264SOL    HW229935   3.023   4.920   0.349 -0.3937  0.0315 -0.7975
 4265SOL     OW29936   5.285   3.448   1.476  0.1937 -0.1334  0.7058
 4265SOL    HW129937   5.213   3.496   1.436  0.4156 -0.6648 -0.3736
 4265SOL    HW229938   5.273   3.357   1.446  0.7165 -0.4269  1.3553
 4266SOL     OW29939   4.048   3.939   0.055 -0.2902  0.1170  0.3344
 4266SOL    HW129940   4.136   3.924   0.090 -0.4537  0.1575  0.7673
 4266SOL    HW229941   4.058   4.015  -0.002 -0.0792  0.2273  0.5159
 4267SOL     OW29942   0.820   3.990   0.827 -0.3177  0.3681 -0.0613
 4267SOL    HW129943   0.859   4.033   0.904  3.3962  0.0976 -1.5754
 4267SOL    HW229944   0.887   3.997   0.760 -2.6375 -1.1454 -2.7331
 4268SOL     OW29945   5.957   4.027   7.138  0.0216  0.2700 -0.4961
 4268SOL    HW129946   5.912   3.950   7.103  0.1493 -0.7247  1.3687
 4268SOL    HW229947   5.936   4.097   7.077 -1.9961 -0.7241 -1.0281
 4269SOL     OW29948   2.678   4.991   5.807 -0.4648  0.0856 -0.0916
 4269SOL    HW129949   2.645   5.079   5.826  1.2498  1.5405 -3.0351
 4269SOL    HW229950   2.622   4.959   5.737 -0.9728 -1.1498  0.8537
 4270SOL     OW29951   4.469   1.283   6.268 -0.3826 -0.0730 -0.1846
 4270SOL    HW129952   4.514   1.365   6.290  0.1996 -0.7122  1.1142
 4270SOL    HW229953   4.538   1.226   6.234 -0.3021 -0.8106  1.1373
 4271SOL     OW29954   5.803   2.757   6.495  0.9407 -0.0623 -0.0823
 4271SOL    HW129955   5.718   2.776   6.534  0.1846 -3.1910  0.0812
 4271SOL    HW229956   5.784   2.742   6.402  1.3541 -0.5630 -0.0879
 4272SOL     OW29957   1.752   3.774   6.346  1.1979 -0.5603 -0.2204
 4272SOL    HW129958   1.677   3.790   6.403  0.2965  0.4800 -1.6272
 4272SOL    HW229959   1.723   3.705   6.286  1.6415 -0.7003 -0.2769
 4273SOL     OW29960   0.519   0.705   0.464  0.2629  0.6120 -0.1621
 4273SOL    HW129961   0.427   0.713   0.438  0.6636  1.3725 -1.4748
 4273SOL    HW229962   0.566   0.752   0.396  1.6584 -0.0514  0.3213
 4274SOL     OW29963   5.915   3.182   7.205  0.1817  0.1197 -0.1729
 4274SOL    HW129964   5.830   3.175   7.161 -0.3275 -1.0097  0.9358
 4274SOL    HW229965   5.898   3.238   7.282 -0.0744 -1.7116  1.1635
 4275SOL     OW29966   0.353   3.419   0.897  0.2312 -0.1567  0.5719
 4275SOL    HW129967   0.344   3.449   0.987 -0.3397  1.3065  0.0485
 4275SOL    HW229968   0.320   3.491   0.843 -1.2664 -1.7071 -0.7502
 4276SOL     OW29969   4.945   4.368   0.818 -0.1793  0.1893 -0.8008
 4276SOL    HW129970   5.030   4.405   0.791  0.6755  0.1742  1.6175
 4276SOL    HW229971   4.944   4.280   0.781  0.6503  0.3773 -1.2951
 4277SOL     OW29972   0.944   3.763   5.410  0.7474  0.4798 -0.0934
 4277SOL    HW129973   0.958   3.733   5.320  0.8347  0.5114 -0.0913
 4277SOL    HW229974   0.880   3.834   5.402  0.4948  0.2538 -0.0911
 4278SOL     OW29975   4.522   0.877   0.171  0.3358 -0.4159 -0.2266
 4278SOL    HW129976   4.441   0.887   0.121  0.0828  1.6978  0.4926
 4278SOL    HW229977   4.496   0.832   0.251 -0.6936  2.2296  1.0536
 4279SOL     OW29978   2.235   5.667   0.381  0.0472  0.3794  0.0043
 4279SOL    HW129979   2.307   5.723   0.353  0.7547 -1.1844 -1.4795
 4279SOL    HW229980   2.260   5.579   0.354 -1.4528 -0.5476  1.4088
 4280SOL     OW29981   1.879   5.507   0.666  0.0879 -0.2300 -0.0652
 4280SOL    HW129982   1.949   5.449   0.698  0.5333  1.1402  1.6421
 4280SOL    HW229983   1.814   5.448   0.630  0.4995 -1.8339  1.6340
 4281SOL     OW29984   3.571   4.686   1.633 -0.6197 -0.3368 -0.3741
 4281SOL    HW129985   3.627   4.658   1.705 -0.8965  1.9118  0.8226
 4281SOL    HW229986   3.532   4.606   1.600 -0.5245 -1.4699  2.0287
 4282SOL     OW29987   2.422   3.175   6.381  0.0881 -0.3364 -0.0912
 4282SOL    HW129988   2.459   3.091   6.407  0.2016  0.3497  2.1624
 4282SOL    HW229989   2.437   3.232   6.456  1.0451  2.0556 -1.9882
 4283SOL     OW29990   4.597   1.324   6.537 -0.1390 -0.4325 -0.3107
 4283SOL    HW129991   4.606   1.361   6.449 -2.1585 -1.2019 -0.9118
 4283SOL    HW229992   4.546   1.389   6.585 -1.3198 -1.1430 -0.5478
 4284SOL     OW29993   1.578   6.103   0.940 -0.4339  0.5787 -0.8680
 4284SOL    HW129994   1.517   6.104   1.014 -1.7337 -2.0004 -1.7780
 4284SOL    HW229995   1.523   6.123   0.864  0.3220  0.4906 -1.4456
 4285SOL     OW29996   0.427   3.941   5.648 -0.0970 -0.1719 -0.2842
 4285SOL    HW129997   0.462   4.024   5.680 -1.0825  0.0147  0.3620
 4285SOL    HW229998   0.438   3.944   5.553 -0.7725  1.0171 -0.3377
 4286SOL     OW29999   2.153   0.784   7.331  0.2238 -0.1670  0.0085
 4286SOL    HW130000   2.235   0.737   7.343  1.7032  2.4924  0.9859
 4286SOL    HW230001   2.112   0.785   7.417  0.2297  0.3743  0.0087
 4287SOL     OW30002   0.719   5.813   6.513  0.2096 -0.2290 -0.6149
 4287SOL    HW130003   0.740   5.905   6.527 -1.6733  0.2951 -0.9948
 4287SOL    HW230004   0.800   5.774   6.481  1.6248  0.8293  1.4549
 4288SOL     OW30005   4.083   1.197   2.653  0.0097 -0.1989 -0.1373
 4288SOL    HW130006   3.992   1.178   2.630  0.3287  0.0179 -1.6915
 4288SOL    HW230007   4.131   1.117   2.631  0.1503 -0.4605  1.0611
 4289SOL     OW30008   1.297   3.035   5.645  0.2306  0.2645  0.9125
 4289SOL    HW130009   1.239   3.005   5.575  1.3164 -0.3701  0.2625
 4289SOL    HW230010   1.245   3.100   5.693 -0.0678  1.8062 -1.3347
 4290SOL     OW30011   4.293   0.867   2.135 -0.2490  0.1394  0.6049
 4290SOL    HW130012   4.315   0.938   2.075 -1.0126 -1.0169 -1.1340
 4290SOL    HW230013   4.330   0.894   2.219  2.2015  1.1414 -0.6981
 4291SOL     OW30014   3.689   5.763   6.312  0.1920 -0.8967  0.3470
 4291SOL    HW130015   3.668   5.856   6.325  2.2118 -0.2732 -0.4693
 4291SOL    HW230016   3.712   5.730   6.399 -0.5151 -0.6382  0.6365
 4292SOL     OW30017   1.955   0.995   0.350  0.2281 -0.2178 -0.2493
 4292SOL    HW130018   1.936   1.080   0.391  0.8438  0.1095 -0.6162
 4292SOL    HW230019   2.019   0.955   0.409  0.0373 -0.3680 -0.1455
 4293SOL     OW30020   5.584   3.551   7.214 -0.1600  0.0693  0.4841
 4293SOL    HW130021   5.673   3.577   7.190 -0.0661 -1.0375 -0.4232
 4293SOL    HW230022   5.543   3.632   7.243  1.7665  0.2757  2.9836
 4294SOL     OW30023   0.306   5.348   7.380  0.3656 -0.0007 -0.5845
 4294SOL    HW130024   0.382   5.325   7.326 -0.5680 -0.5944 -1.6997
 4294SOL    HW230025   0.231   5.314   7.331 -0.6203  0.5078  0.5243
 4295SOL     OW30026   2.598   0.309   1.508  0.3904 -0.4223 -0.7011
 4295SOL    HW130027   2.652   0.268   1.575 -0.5583 -0.2841  0.1660
 4295SOL    HW230028   2.649   0.385   1.480 -0.1826  0.8908  1.5559
 4296SOL     OW30029   0.953   3.652   0.215  0.4051 -0.2803  0.6146
 4296SOL    HW130030   0.947   3.571   0.266  0.0999  1.2067  3.0939
 4296SOL    HW230031   0.862   3.678   0.199  0.4460  0.7959  1.9684
 4297SOL     OW30032   6.088   2.719   1.731  0.2662 -0.0356  0.4439
 4297SOL    HW130033   6.000   2.712   1.768  0.4103 -1.1584  0.6099
 4297SOL    HW230034   6.118   2.628   1.723  0.8134  0.2492 -1.0693
 4298SOL     OW30035   0.604   5.231   0.917  0.5245  0.0997 -0.0851
 4298SOL    HW130036   0.648   5.285   0.982  1.0953  0.5912 -0.8685
 4298SOL    HW230037   0.673   5.176   0.880 -0.0288 -1.1427  0.6393
 4299SOL     OW30038   3.250   2.980   2.127 -0.0721 -0.0399 -0.0910
 4299SOL    HW130039   3.221   2.935   2.048  0.3742  1.5952 -1.2429
 4299SOL    HW230040   3.333   3.020   2.103 -0.4127  1.3412  0.8784
 4300SOL     OW30041   6.312   3.431   0.492 -0.4062  0.4760 -0.1030
 4300SOL    HW130042   6.400   3.447   0.526  0.4587  0.0040 -1.9918
 4300SOL    HW230043   6.324   3.422   0.398 -2.0947 -2.1151 -0.1724
 4301SOL     OW30044   0.835   6.252   7.475  0.4330 -0.4546  0.1176
 4301SOL    HW130045   0.920   6.290   7.451  0.5114  0.0974  1.2147
 4301SOL    HW230046   0.847   6.220   7.564 -0.4605 -0.5516  0.2136
 4302SOL     OW30047   6.147   0.488   6.126  0.4649  0.3167 -0.5563
 4302SOL    HW130048   6.160   0.583   6.129  0.6307  0.3054 -0.9022
 4302SOL    HW230049   6.147   0.467   6.033 -5.1105  0.7256 -0.9895
 4303SOL     OW30050   2.934   1.198   2.474 -0.0269  0.4991  0.6150
 4303SOL    HW130051   3.028   1.214   2.466 -0.1002  1.0550  0.8196
 4303SOL    HW230052   2.923   1.166   2.564  0.0669 -0.3452  0.3353
 4304SOL     OW30053   5.523   5.056   0.250 -0.1164  0.0531 -0.4041
 4304SOL    HW130054   5.558   5.017   0.330  0.1888 -1.5363 -1.2630
 4304SOL    HW230055   5.532   4.987   0.184 -1.4310  0.9139 -1.5373
 4305SOL     OW30056   1.004   3.741   0.490 -0.3145  0.7349 -0.3780
 4305SOL    HW130057   1.090   3.698   0.489 -1.5188 -1.8875  0.3251
 4305SOL    HW230058   0.976   3.740   0.398 -0.5222 -0.5208 -0.3220
 4306SOL     OW30059   1.091   6.239   6.310 -0.1519  0.0241 -0.0699
 4306SOL    HW130060   1.098   6.322   6.264 -1.2518 -1.2311 -2.6819
 4306SOL    HW230061   1.001   6.238   6.344  0.4186  0.6113  1.5831
 4307SOL     OW30062   4.896   4.997   1.156  0.0134  0.2315  0.0357
 4307SOL    HW130063   4.857   4.942   1.088  0.0570  0.7746 -0.4356
 4307SOL    HW230064   4.974   5.034   1.115  0.7396 -0.4219  0.7895
 4308SOL     OW30065   5.728   6.402   6.722  0.1080  0.2668 -0.4938
 4308SOL    HW130066   5.719   6.443   6.808 -0.7740 -0.8501 -0.0317
 4308SOL    HW230067   5.664   6.447   6.667  0.8344  1.1418 -0.6508
 4309SOL     OW30068   5.322   3.948   1.991 -0.3221 -0.6507 -0.2511
 4309SOL    HW130069   5.273   3.999   2.055  2.2849  0.1892  1.2011
 4309SOL    HW230070   5.328   3.860   2.029  1.1554 -0.1729  0.7199
 4310SOL     OW30071   5.066   6.546   0.192 -0.7188 -0.2700  0.0912
 4310SOL    HW130072   5.095   6.608   0.125 -0.2698 -0.2724  0.2828
 4310SOL    HW230073   5.097   6.583   0.274 -1.9033  0.1155  0.3867
 4311SOL     OW30074   3.132   5.802   1.884  0.9778 -0.4650  0.0146
 4311SOL    HW130075   3.126   5.711   1.914 -0.6695  0.2551  2.2281
 4311SOL    HW230076   3.064   5.809   1.817  0.4745 -0.6880  0.4849
 4312SOL     OW30077   5.149   0.099   6.282 -0.2810 -0.1200 -0.0759
 4312SOL    HW130078   5.082   0.034   6.258 -0.8004  1.2223 -2.6191
 4312SOL    HW230079   5.126   0.176   6.231  2.0369  1.0890  0.5967
 4313SOL     OW30080   0.657   5.218   0.563 -0.4271 -0.4163 -0.0042
 4313SOL    HW130081   0.698   5.166   0.632 -0.2742 -1.5116 -0.9030
 4313SOL    HW230082   0.611   5.155   0.508  0.3251  0.2911 -1.5139
 4314SOL     OW30083   5.536   4.444   1.126  0.4148 -0.1300 -0.0852
 4314SOL    HW130084   5.484   4.490   1.060  0.0525  0.0187  0.2977
 4314SOL    HW230085   5.473   4.390   1.174  0.2644  1.3775  1.5385
 4315SOL     OW30086   6.232   4.719   0.374  0.3568  0.3822  0.4033
 4315SOL    HW130087   6.307   4.676   0.414  0.9520  0.0594 -0.9805
 4315SOL    HW230088   6.233   4.688   0.283 -1.7889 -0.0824  0.4830
 4316SOL     OW30089   3.356   2.521   0.259  0.0489 -0.1778 -0.8011
 4316SOL    HW130090   3.347   2.603   0.307 -2.1630  1.0262 -3.0510
 4316SOL    HW230091   3.382   2.547   0.171  1.1697 -2.0957 -1.1031
 4317SOL     OW30092   3.840   6.203   7.109  0.4659 -0.6478 -0.1236
 4317SOL    HW130093   3.933   6.189   7.089  0.6596  1.9104 -1.4141
 4317SOL    HW230094   3.839   6.235   7.199  0.6802 -1.8132  0.3122
 4318SOL     OW30095   6.404   4.317   1.527 -0.3334  0.5232  0.2955
 4318SOL    HW130096   6.334   4.379   1.510 -0.8173 -0.0388  0.2412
 4318SOL    HW230097   6.361   4.243   1.569 -0.0739 -0.6091 -1.3630
 4319SOL     OW30098   1.083   6.281   1.012  0.3365 -0.1556 -0.0033
 4319SOL    HW130099   1.165   6.259   1.056 -0.6885 -1.0045  1.5982
 4319SOL    HW230100   1.019   6.219   1.049 -0.5046 -1.4458 -3.2528
 4320SOL     OW30101   2.616   1.065   0.242 -0.6757  0.1157 -0.6265
 4320SOL    HW130102   2.562   0.994   0.276  0.1530 -0.8137 -1.1819
 4320SOL    HW230103   2.595   1.068   0.148  0.0256 -0.0825 -0.7953
 4321SOL     OW30104   3.296   1.661   1.026  0.1446  0.0798 -0.1782
 4321SOL    HW130105   3.336   1.586   0.982 -0.3719  0.4824 -1.4109
 4321SOL    HW230106   3.335   1.663   1.113  1.8208 -0.2848 -0.8922
 4322SOL     OW30107   0.916   5.499   7.311  0.1980 -0.1771  0.5403
 4322SOL    HW130108   0.997   5.550   7.320 -1.0657  1.6904  2.2086
 4322SOL    HW230109   0.905   5.455   7.395 -0.0354 -1.2558 -0.0286
 4323SOL     OW30110   5.426   1.297   1.005 -0.3154 -0.3016 -0.6075
 4323SOL    HW130111   5.512   1.288   0.963 -0.0676 -2.1589  0.2024
 4323SOL    HW230112   5.379   1.217   0.981 -1.2372 -0.0243  0.2340
 4324SOL     OW30113   4.026   2.038   0.491  0.5724  0.0594  0.1126
 4324SOL    HW130114   3.988   1.956   0.459 -1.9037  0.8472  0.8206
 4324SOL    HW230115   4.047   2.087   0.411  2.2516 -1.2860 -0.3223
 4325SOL     OW30116   4.897   0.086   7.294 -0.0603 -0.6476 -0.2018
 4325SOL    HW130117   4.938   0.006   7.327 -0.1691 -0.4473  0.4400
 4325SOL    HW230118   4.966   0.151   7.296 -0.5612 -0.1241  1.5750
 4326SOL     OW30119   2.397   2.380   7.175  0.2971 -0.4652  0.0110
 4326SOL    HW130120   2.420   2.380   7.268  2.7485 -0.0302 -0.5259
 4326SOL    HW230121   2.464   2.325   7.134  0.5056  1.0309 -1.7581
 4327SOL     OW30122   5.551   5.370   0.145 -0.0541  0.0404  0.2550
 4327SOL    HW130123   5.624   5.348   0.203 -0.1846  0.9174  0.7670
 4327SOL    HW230124   5.475   5.326   0.184 -0.2070  0.9008  0.9558
 4328SOL     OW30125   0.996   4.713   7.223  0.3124  0.1172  0.0966
 4328SOL    HW130126   0.972   4.784   7.283  2.2622 -0.1552  1.2997
 4328SOL    HW230127   1.049   4.756   7.155  0.4931 -0.0065  0.1601
 4329SOL     OW30128   4.601   3.366   0.390  0.4144 -0.2175  0.1541
 4329SOL    HW130129   4.656   3.428   0.438  0.0608 -0.1990  0.5415
 4329SOL    HW230130   4.660   3.295   0.365  0.7311  0.0764  0.0760
 4330SOL     OW30131   2.639   3.644   0.859  0.0708 -0.1590  0.0439
 4330SOL    HW130132   2.564   3.632   0.917  1.2668  1.7295  2.1494
 4330SOL    HW230133   2.672   3.556   0.843 -0.7864 -0.7934  1.5964
 4331SOL     OW30134   3.067   2.463   0.922 -0.0705 -0.5885  0.3067
 4331SOL    HW130135   3.024   2.507   0.996 -0.5561 -0.3835 -0.0928
 4331SOL    HW230136   3.001   2.402   0.889 -0.0979 -0.2055 -0.3679
 4332SOL     OW30137   4.273   3.125   7.347 -0.1952 -0.0824  0.3081
 4332SOL    HW130138   4.296   3.119   7.439 -0.0027 -0.3391  0.2453
 4332SOL    HW230139   4.231   3.210   7.338  0.9772  0.5156  0.3667
 4333SOL     OW30140   2.811   2.152   6.647 -0.2998 -0.2446 -0.0071
 4333SOL    HW130141   2.796   2.074   6.595 -3.2692  0.1764 -0.0080
 4333SOL    HW230142   2.819   2.223   6.583  0.0587 -0.2455  0.0362
 4334SOL     OW30143   5.038   4.900   6.262 -0.1060 -0.3030  0.9563
 4334SOL    HW130144   5.042   4.938   6.350 -1.0227 -1.2989  1.4477
 4334SOL    HW230145   5.117   4.933   6.218  0.9641 -0.6789  2.5054
 4335SOL     OW30146   3.525   4.254   1.270  0.1129  0.5837  0.1637
 4335SOL    HW130147   3.491   4.167   1.288  0.4657  0.4028 -0.0258
 4335SOL    HW230148   3.569   4.245   1.185  1.3375  0.6151  0.7849
 4336SOL     OW30149   5.569   6.600   0.670 -0.1776 -0.1314  0.0724
 4336SOL    HW130150   5.647   6.597   0.614 -0.4589 -0.3242 -0.3139
 4336SOL    HW230151   5.602   6.629   0.755  0.3593 -0.4647 -0.0156
 4337SOL     OW30152   3.982   4.497   6.063 -0.1102 -0.5941 -0.4274
 4337SOL    HW130153   4.064   4.532   6.028  0.7066 -2.1365 -0.1168
 4337SOL    HW230154   3.915   4.554   6.026  0.8517 -1.0447 -3.1050
 4338SOL     OW30155   3.946   1.173   0.626  0.2088 -0.0251 -0.7091
 4338SOL    HW130156   4.031   1.131   0.613  1.1440  1.6490 -0.4017
 4338SOL    HW230157   3.898   1.114   0.683  1.1011 -1.0928 -1.0323
 4339SOL     OW30158   6.035   5.198   5.017  0.1187 -0.0165  0.4760
 4339SOL    HW130159   6.038   5.107   5.045 -1.8504  0.8626  4.0777
 4339SOL    HW230160   5.951   5.208   4.974  0.4253  0.0896 -0.1152
 4340SOL     OW30161   2.939   5.636   0.689 -0.2991  0.8240 -0.3726
 4340SOL    HW130162   2.967   5.680   0.608 -2.2513  3.1217  0.0629
 4340SOL    HW230163   2.848   5.612   0.673  0.3681 -2.2501 -0.1494
 4341SOL     OW30164   2.123   3.939   6.922 -0.9341  0.0254 -0.0707
 4341SOL    HW130165   2.104   3.969   6.833 -1.4219 -1.0044 -0.3375
 4341SOL    HW230166   2.064   3.864   6.935  1.3810 -1.9438 -0.1094
 4342SOL     OW30167   5.919   6.005   0.870 -0.5121  0.9565  0.2861
 4342SOL    HW130168   5.984   6.037   0.807 -0.2301 -2.3768 -1.3387
 4342SOL    HW230169   5.949   6.039   0.954  0.4037  3.6852 -1.0086
 4343SOL     OW30170   3.545   0.028   0.091 -0.0048 -0.2851  0.2468
 4343SOL    HW130171   3.620  -0.014   0.050  0.3601  1.4251 -0.9706
 4343SOL    HW230172   3.549   0.119   0.061 -2.1819  0.0239  0.6978
 4344SOL     OW30173   4.937   4.970   0.376 -0.9058  0.2760  0.0692
 4344SOL    HW130174   5.025   4.942   0.351 -1.5464 -0.1142 -1.9093
 4344SOL    HW230175   4.951   5.045   0.434  0.7688 -1.8955  2.7252
 4345SOL     OW30176   5.934   0.559   0.870 -0.1169  0.3056  0.0285
 4345SOL    HW130177   5.868   0.562   0.800  0.0187  0.6027 -0.0911
 4345SOL    HW230178   5.962   0.650   0.880  0.3959  0.1587 -0.0407
 4346SOL     OW30179   1.211   0.844   1.490  0.7934 -0.1450 -0.2120
 4346SOL    HW130180   1.252   0.919   1.532  0.4700 -0.2589  0.3095
 4346SOL    HW230181   1.274   0.773   1.501  1.1548  0.0722 -0.8143
 4347SOL     OW30182   3.565   0.847   1.331 -0.3763 -0.2415  1.0377
 4347SOL    HW130183   3.657   0.822   1.332 -0.8133 -2.1591 -0.6342
 4347SOL    HW230184   3.523   0.788   1.393 -0.2817  1.8631  3.2346
 4348SOL     OW30185   3.348   0.031   1.411 -0.1677  0.6616 -0.1770
 4348SOL    HW130186   3.347   0.053   1.504  1.5824 -0.6560  0.2068
 4348SOL    HW230187   3.277   0.083   1.373 -1.6717  0.3835  2.0796
 4349SOL     OW30188   1.577   3.534   7.008 -0.6247  0.0584  0.3517
 4349SOL    HW130189   1.599   3.565   7.096 -1.0645 -0.7054  0.7463
 4349SOL    HW230190   1.494   3.488   7.019 -0.4436 -0.4664 -0.3684
 4350SOL     OW30191   4.612   1.135   1.214  0.2277  0.7605  0.0301
 4350SOL    HW130192   4.659   1.087   1.282  3.5061  1.6721 -1.4083
 4350SOL    HW230193   4.605   1.074   1.141 -0.6422  0.7347  0.1180
 4351SOL     OW30194   3.221   4.863   5.286  0.3038 -0.1695  0.1341
 4351SOL    HW130195   3.243   4.943   5.238  1.7461 -0.3091  0.5143
 4351SOL    HW230196   3.215   4.795   5.219 -0.1058  0.0932 -0.0988
 4352SOL     OW30197   2.222   1.896   1.319 -0.1834  0.0401  0.1778
 4352SOL    HW130198   2.272   1.938   1.249  0.1362 -0.6165 -0.0054
 4352SOL    HW230199   2.288   1.875   1.386 -0.2771 -0.4356  0.1282
 4353SOL     OW30200   0.165   5.754   0.615  0.0533  0.0755  0.4623
 4353SOL    HW130201   0.180   5.749   0.520 -1.1076  0.9211  0.2201
 4353SOL    HW230202   0.138   5.844   0.631 -1.8775 -0.5887  1.2743
 4354SOL     OW30203   6.586   5.718   0.862  0.1404 -0.1615  0.0679
 4354SOL    HW130204   6.509   5.727   0.807  1.3746 -1.5375 -2.0337
 4354SOL    HW230205   6.656   5.763   0.814  0.8245  0.5008  1.6025
 4355SOL     OW30206   6.050   1.612   6.921 -0.3472  0.1489  0.3556
 4355SOL    HW130207   6.070   1.665   6.998  0.3236 -0.7443  0.8238
 4355SOL    HW230208   6.066   1.522   6.950  0.0473 -0.1883 -0.8671
 4356SOL     OW30209   5.529   0.561   6.824  0.1534 -0.3427  0.2755
 4356SOL    HW130210   5.600   0.500   6.805  2.2851  1.2480  2.3678
 4356SOL    HW230211   5.475   0.516   6.889 -1.4980 -1.9585 -2.0468
 4357SOL     OW30212   3.985   2.616   7.482 -0.1607  0.2622 -0.1511
 4357SOL    HW130213   4.003   2.548   7.547 -1.8188 -0.7885 -0.7142
 4357SOL    HW230214   3.948   2.688   7.532 -0.7066 -0.2378  0.1770
 4358SOL     OW30215   1.005   4.853   5.283  0.0439 -0.4482 -0.0724
 4358SOL    HW130216   0.927   4.844   5.338  0.2426 -0.3694  0.2210
 4358SOL    HW230217   0.977   4.821   5.197  0.2423 -2.3430  0.5151
 4359SOL     OW30218   1.456   2.868   1.057 -0.2471  0.6347  0.0712
 4359SOL    HW130219   1.518   2.913   1.114  1.4699 -0.7682 -0.5877
 4359SOL    HW230220   1.376   2.860   1.109  0.6941  0.9478  1.6229
 4360SOL     OW30221   0.034   3.683   5.025  0.6541  0.1154  0.5881
 4360SOL    HW130222   0.025   3.588   5.019 -1.6958  0.3579 -1.4018
 4360SOL    HW230223   0.012   3.703   5.116 -1.8134 -1.0729  0.3371
 4361SOL     OW30224   2.045   6.065   0.071  0.2433 -0.4443  0.0825
 4361SOL    HW130225   2.014   5.975   0.077  1.9053 -1.1477 -1.1758
 4361SOL    HW230226   1.968   6.115   0.043 -0.5326 -1.5634  0.1249
 4362SOL     OW30227   4.829   3.227   0.297 -0.2962  0.0842  0.1941
 4362SOL    HW130228   4.820   3.140   0.336  1.1304 -0.1828 -0.0263
 4362SOL    HW230229   4.831   3.212   0.203 -2.1149  0.5808  0.0339
 4363SOL     OW30230   3.241   0.585   2.396  0.5085 -0.3690 -0.3984
 4363SOL    HW130231   3.326   0.562   2.432  0.9013  1.5304  0.0092
 4363SOL    HW230232   3.234   0.533   2.316  1.5969 -1.3007  0.0796
 4364SOL     OW30233   4.077   5.144   0.706  1.0277 -0.4605 -0.4928
 4364SOL    HW130234   3.985   5.120   0.708  1.2854 -1.5152 -0.5422
 4364SOL    HW230235   4.096   5.176   0.795  0.5141  0.1872 -0.6136
 4365SOL     OW30236   3.129   4.117   5.556 -0.2065  0.7318 -0.2552
 4365SOL    HW130237   3.058   4.155   5.503  1.7856  1.6591 -2.4430
 4365SOL    HW230238   3.198   4.098   5.493  1.1520 -1.0847  1.6470
 4366SOL     OW30239   6.601   1.735   5.391 -0.0843 -0.5291  0.0107
 4366SOL    HW130240   6.652   1.661   5.358 -1.0042 -0.7740 -0.9027
 4366SOL    HW230241   6.569   1.705   5.476  0.0228 -0.9513 -0.0957
 4367SOL     OW30242   3.143   1.035   5.198  0.9167 -0.2715  0.4243
 4367SOL    HW130243   3.121   0.978   5.272  1.5225 -1.1402 -0.0435
 4367SOL    HW230244   3.217   1.087   5.228  0.1300  0.5548  0.9814
 4368SOL     OW30245   3.388   5.326   0.856 -0.3548  0.0482  0.2774
 4368SOL    HW130246   3.366   5.323   0.949 -1.6307 -1.9520 -0.0167
 4368SOL    HW230247   3.329   5.393   0.820 -0.7835 -0.0878  0.7109
 4369SOL     OW30248   6.121   6.071   6.733 -0.5021  0.2566  0.4813
 4369SOL    HW130249   6.031   6.100   6.718 -0.5130 -0.5154 -1.1933
 4369SOL    HW230250   6.124   5.983   6.694  1.4367  0.9912 -1.1948
 4370SOL     OW30251   0.259   3.180   0.981  0.2898 -0.1186  0.1655
 4370SOL    HW130252   0.342   3.139   1.004  1.1134  0.7041 -1.1748
 4370SOL    HW230253   0.284   3.265   0.943 -1.1556  0.1173 -0.3382
 4371SOL     OW30254   2.517   1.180   6.379  0.1353  0.0610  0.3457
 4371SOL    HW130255   2.542   1.267   6.348 -0.5243  0.7254  1.6186
 4371SOL    HW230256   2.550   1.176   6.469 -1.6886 -0.1706  1.0347
 4372SOL     OW30257   5.798   0.894   6.518  0.3033  0.3475 -0.3877
 4372SOL    HW130258   5.803   0.906   6.613  0.9089  1.1797 -0.5094
 4372SOL    HW230259   5.853   0.817   6.501 -3.3943 -2.7729  0.3766
 4373SOL     OW30260   5.523   2.081   0.650 -0.6363 -0.0293 -0.1447
 4373SOL    HW130261   5.527   1.989   0.677  1.7073 -0.1028 -0.5480
 4373SOL    HW230262   5.567   2.084   0.566 -0.9664  1.4392 -0.2998
 4374SOL     OW30263   3.980   2.226   7.100 -0.3010 -0.6681 -0.0072
 4374SOL    HW130264   4.074   2.242   7.087 -0.3235  0.5479  1.1167
 4374SOL    HW230265   3.977   2.142   7.145  0.4665  0.5180  2.4166
 4375SOL     OW30266   6.411   5.736   5.517  0.1069  0.5427  0.2968
 4375SOL    HW130267   6.470   5.761   5.446  1.4819 -2.4905  0.2586
 4375SOL    HW230268   6.327   5.720   5.474  0.3868  0.6639 -0.3026
 4376SOL     OW30269   3.478   3.993   1.373 -0.5544  0.2102  0.3748
 4376SOL    HW130270   3.553   3.954   1.329 -0.1073  1.4937 -0.0532
 4376SOL    HW230271   3.493   3.977   1.466  1.5972  2.6028  0.5306
 4377SOL     OW30272   5.181   1.960   6.682  0.0566 -0.5002  0.3315
 4377SOL    HW130273   5.118   1.975   6.612  0.4031 -0.9206 -0.0773
 4377SOL    HW230274   5.255   1.917   6.639  0.4424 -0.3989  0.8825
 4378SOL     OW30275   5.628   4.521   5.143 -0.3104 -0.2029 -0.0251
 4378SOL    HW130276   5.612   4.506   5.049  1.6054  0.1064 -0.4424
 4378SOL    HW230277   5.545   4.556   5.175 -0.1144  2.8180 -2.3273
 4379SOL     OW30278   3.490   5.862   0.933 -0.1585  0.1973  0.2213
 4379SOL    HW130279   3.417   5.864   0.994 -1.6866 -2.0511 -1.3750
 4379SOL    HW230280   3.465   5.922   0.862  0.7071  1.2750  0.7885
 4380SOL     OW30281   0.353   0.451   5.955 -0.1627  0.6015  0.2562
 4380SOL    HW130282   0.435   0.403   5.942  0.2839  1.0567  1.2977
 4380SOL    HW230283   0.289   0.383   5.978 -0.0923  0.2484 -0.5333
 4381SOL     OW30284   3.736   5.161   0.580 -0.0389 -0.7372 -0.0375
 4381SOL    HW130285   3.716   5.218   0.654 -0.4991  1.3923 -1.6968
 4381SOL    HW230286   3.653   5.118   0.559 -0.3736  0.0963 -0.4538
 4382SOL     OW30287   5.011   3.045   1.026 -0.0126  0.7327  0.0954
 4382SOL    HW130288   5.033   3.030   0.934  0.4298 -3.0909  0.6706
 4382SOL    HW230289   5.089   3.018   1.074 -1.1775  0.0251  1.6734
 4383SOL     OW30290   0.139   0.380   6.677  0.0200  0.4804 -0.0303
 4383SOL    HW130291   0.173   0.388   6.766 -1.0855 -0.1452  0.4656
 4383SOL    HW230292   0.140   0.470   6.643 -1.2583  1.0218  1.2786
 4384SOL     OW30293   6.004   5.560   0.233  0.5523  0.3289  0.4514
 4384SOL    HW130294   6.080   5.595   0.187  0.5668 -0.0468  0.1896
 4384SOL    HW230295   5.942   5.634   0.236  0.7896  0.5318  0.3651
 4385SOL     OW30296   2.150   1.307   6.798 -0.3725 -0.3641  0.0263
 4385SOL    HW130297   2.166   1.401   6.796  0.9062 -0.5627  0.2482
 4385SOL    HW230298   2.230   1.268   6.765 -1.2234 -1.3610 -0.9548
 4386SOL     OW30299   3.479   6.482   1.840 -0.5881 -0.1634  0.2211
 4386SOL    HW130300   3.490   6.391   1.868 -2.0948 -0.4667 -0.0948
 4386SOL    HW230301   3.431   6.523   1.912  0.2700  0.4526  0.4579
 4387SOL     OW30302   6.437   0.178   6.828  0.1972  0.1105 -0.3366
 4387SOL    HW130303   6.532   0.171   6.831  0.3925  1.6893 -1.6999
 4387SOL    HW230304   6.406   0.089   6.847  1.8967 -0.3331  0.6137
 4388SOL     OW30305   2.210   1.707   0.320  0.4906 -0.5135  0.1218
 4388SOL    HW130306   2.178   1.632   0.271  0.1625 -0.2749 -0.0286
 4388SOL    HW230307   2.185   1.783   0.268  0.0951 -0.2559  0.6820
 4389SOL     OW30308   2.984   6.251   7.223  0.4957 -0.0929 -0.1074
 4389SOL    HW130309   2.904   6.200   7.210 -0.2063  1.0082 -0.3058
 4389SOL    HW230310   2.963   6.337   7.185  1.7873  0.2018 -0.1736
 4390SOL     OW30311   5.391   5.463   6.076  0.4036 -0.1556 -0.1111
 4390SOL    HW130312   5.486   5.451   6.081  0.5729  0.8853 -0.6514
 4390SOL    HW230313   5.362   5.456   6.167  0.9454 -0.7938  0.0292
 4391SOL     OW30314   0.893   2.468   0.920  0.3231 -0.1385  0.2666
 4391SOL    HW130315   0.876   2.505   1.007  1.7857  0.8694  0.1656
 4391SOL    HW230316   0.886   2.542   0.860 -2.2046 -1.0944 -0.7534
 4392SOL     OW30317   3.730   4.650   6.616 -0.6308  0.2533 -0.0418
 4392SOL    HW130318   3.789   4.641   6.542 -0.3723  2.8456 -0.2320
 4392SOL    HW230319   3.785   4.685   6.686 -1.4103  0.2858  0.5618
 4393SOL     OW30320   1.265   4.270   0.307  0.7817  0.5665 -0.5264
 4393SOL    HW130321   1.235   4.358   0.284  0.8328  0.6755 -0.1847
 4393SOL    HW230322   1.186   4.216   0.303  0.2928  1.0601  1.4490
 4394SOL     OW30323   3.042   1.956   1.479 -0.1078 -0.2708  0.1815
 4394SOL    HW130324   3.001   1.954   1.566 -1.2088  1.9611 -0.2266
 4394SOL    HW230325   3.110   2.022   1.487 -0.7759  0.5703 -0.8569
 4395SOL     OW30326   0.740   3.284   6.993 -0.4373 -1.0466 -0.1900
 4395SOL    HW130327   0.775   3.371   6.974  0.7439 -1.4906 -0.1517
 4395SOL    HW230328   0.756   3.271   7.087  0.2896 -1.6780 -0.3898
 4396SOL     OW30329   3.439   5.205   6.374 -0.2632 -0.3690 -0.1867
 4396SOL    HW130330   3.442   5.174   6.464  0.0005  2.4427  0.8886
 4396SOL    HW230331   3.373   5.275   6.375 -1.8081 -1.6626 -2.7151
 4397SOL     OW30332   3.294   0.614   5.378 -0.0046  0.0258  0.5187
 4397SOL    HW130333   3.299   0.644   5.287  2.9155  0.0811  0.5912
 4397SOL    HW230334   3.360   0.665   5.424 -2.3619  1.0106  3.0735
 4398SOL     OW30335   4.812   1.707   5.594  0.2846 -0.0109 -0.2863
 4398SOL    HW130336   4.887   1.691   5.538  1.1018 -0.5317  0.9076
 4398SOL    HW230337   4.788   1.620   5.627  1.0083  0.4584  1.6058
 4399SOL     OW30338   5.745   1.308   6.074  0.1520  0.1868 -0.3416
 4399SOL    HW130339   5.765   1.321   5.981  1.5686  0.6289  0.0023
 4399SOL    HW230340   5.811   1.246   6.104 -0.4586 -0.1470  0.3236
 4400SOL     OW30341   3.839   5.129   0.304  0.7167  0.2841 -0.1889
 4400SOL    HW130342   3.841   5.125   0.400 -1.3756 -1.5449 -0.1479
 4400SOL    HW230343   3.787   5.207   0.285 -1.4540 -0.9605  0.3070
 4401SOL     OW30344   5.155   5.340   0.310 -0.2097  0.6411 -0.6510
 4401SOL    HW130345   5.060   5.349   0.320 -0.4163  0.3839 -2.1312
 4401SOL    HW230346   5.169   5.247   0.294  0.1068  0.9099 -2.0158
 4402SOL     OW30347   5.889   6.491   1.865 -0.4973 -0.4209 -0.6110
 4402SOL    HW130348   5.940   6.518   1.941  0.4475  0.1547 -1.4273
 4402SOL    HW230349   5.866   6.399   1.883 -0.6789 -0.1569  0.5556
 4403SOL     OW30350   4.973   6.285   6.931  0.1836 -0.1314  0.4154
 4403SOL    HW130351   4.944   6.345   6.862  0.7914 -0.7829 -0.4261
 4403SOL    HW230352   5.040   6.230   6.889 -0.6582 -1.6904  1.0440
 4404SOL     OW30353   3.564   5.490   1.943  0.3341  0.1338 -0.2707
 4404SOL    HW130354   3.555   5.402   1.908 -2.3904  0.7223 -1.3073
 4404SOL    HW230355   3.575   5.546   1.866 -0.6055  0.9440  0.1589
 4405SOL     OW30356   2.904   5.167   5.794  0.4020 -0.2080  0.3220
 4405SOL    HW130357   2.910   5.241   5.855 -0.9765 -0.7429  1.1530
 4405SOL    HW230358   2.812   5.140   5.798  0.1585 -0.0136 -2.3394
 4406SOL     OW30359   5.395   3.121   0.720 -0.3984  0.1731  0.3703
 4406SOL    HW130360   5.323   3.137   0.659  0.3047 -1.2570 -0.8964
 4406SOL    HW230361   5.365   3.159   0.802 -2.6249 -0.4261 -0.0924
 4407SOL     OW30362   5.695   3.239   6.722 -0.7936 -0.3325 -0.3747
 4407SOL    HW130363   5.739   3.162   6.757 -0.9313 -0.8912 -1.4095
 4407SOL    HW230364   5.693   3.301   6.795 -1.1493 -1.4919  0.6083
 4408SOL     OW30365   4.385   3.975   5.941 -0.0850 -0.6443 -0.3924
 4408SOL    HW130366   4.389   4.036   6.015  0.8419  1.4233 -2.0523
 4408SOL    HW230367   4.475   3.947   5.927 -0.0795 -0.2091 -1.3442
 4409SOL     OW30368   4.140   0.403   1.169 -0.7646 -0.3938  0.6025
 4409SOL    HW130369   4.228   0.385   1.201 -0.7979 -0.9180  0.4177
 4409SOL    HW230370   4.125   0.495   1.190 -0.1057 -0.2506  0.4799
 4410SOL     OW30371   2.147   2.224   5.939  0.1631 -0.5655 -0.7392
 4410SOL    HW130372   2.227   2.264   5.907 -0.0311 -0.0269 -0.5599
 4410SOL    HW230373   2.087   2.297   5.952 -0.4634 -0.9937 -1.1731
 4411SOL     OW30374   1.843   6.137   6.714  0.6168 -0.1741  0.6158
 4411SOL    HW130375   1.868   6.181   6.633  1.2040 -2.0520 -0.2964
 4411SOL    HW230376   1.764   6.181   6.743  1.2616  1.5537 -0.1201
 4412SOL     OW30377   1.411   1.576   6.130  0.5964 -0.0219  0.5735
 4412SOL    HW130378   1.427   1.514   6.059 -2.3557 -0.0096 -0.2362
 4412SOL    HW230379   1.412   1.662   6.088 -0.0840  0.0725  0.7320
 4413SOL     OW30380   4.803   6.530   1.275 -0.3992  0.7073  1.0549
 4413SOL    HW130381   4.895   6.529   1.249 -1.1224  1.1831 -1.7750
 4413SOL    HW230382   4.796   6.459   1.339  1.5237 -0.7451 -0.2299
 4414SOL     OW30383   6.506   0.285   5.511 -0.1274  0.5540  0.1449
 4414SOL    HW130384   6.413   0.271   5.496  0.3772 -3.6003 -0.4704
 4414SOL    HW230385   6.514   0.296   5.605 -1.1242 -2.6537  0.7448
 4415SOL     OW30386   3.643   1.721   5.138  0.0677 -0.0825 -0.4978
 4415SOL    HW130387   3.639   1.817   5.144  0.8309 -0.0623 -0.2538
 4415SOL    HW230388   3.594   1.701   5.058  0.7082  0.5900 -1.0847
 4416SOL     OW30389   3.526   0.909   6.433 -0.3941 -0.0249 -0.2860
 4416SOL    HW130390   3.472   0.936   6.359 -2.4153 -3.1485 -0.1075
 4416SOL    HW230391   3.591   0.850   6.395 -0.5580 -0.5457  0.2289
 4417SOL     OW30392   0.008   1.356   5.634  0.1825 -0.2844  0.0095
 4417SOL    HW130393   0.062   1.279   5.651  0.5878 -0.4525 -1.8254
 4417SOL    HW230394   0.023   1.413   5.710 -0.1241 -1.9667  1.4036
 4418SOL     OW30395   4.694   2.468   1.473 -0.1578  0.4321 -0.1039
 4418SOL    HW130396   4.602   2.446   1.459 -0.1686  1.8042 -2.7819
 4418SOL    HW230397   4.692   2.542   1.534 -0.8822  0.9423 -0.7325
 4419SOL     OW30398   5.287   3.509   5.682 -0.0887  0.0085 -0.3220
 4419SOL    HW130399   5.233   3.522   5.760  0.2584 -0.3210 -0.0248
 4419SOL    HW230400   5.377   3.515   5.713  0.0668 -1.4340 -0.4629
 4420SOL     OW30401   4.025   0.323   0.254 -0.7704  0.3416 -0.0333
 4420SOL    HW130402   4.037   0.337   0.160  0.2918 -3.8406 -0.7010
 4420SOL    HW230403   4.114   0.311   0.288 -1.2840 -3.1246  0.4197
 4421SOL     OW30404   3.767   0.483   7.470 -0.3984 -0.3989 -0.2547
 4421SOL    HW130405   3.753   0.426   7.545 -0.4151 -0.3323 -0.2068
 4421SOL    HW230406   3.829   0.436   7.415 -1.4486 -1.0830 -0.8920
 4422SOL     OW30407   5.100   1.102   6.014 -0.5089 -0.2899 -0.0617
 4422SOL    HW130408   5.012   1.063   6.015 -1.3484  1.4318  2.6456
 4422SOL    HW230409   5.129   1.097   6.105  1.2049  1.3283 -0.4797
 4423SOL     OW30410   0.810   2.794   6.735 -0.2470 -0.2877  0.3155
 4423SOL    HW130411   0.832   2.887   6.737 -0.0909 -0.2742 -1.1214
 4423SOL    HW230412   0.818   2.769   6.643  0.0894 -1.8170  0.7229
 4424SOL     OW30413   0.777   6.334   6.625  0.0898  0.8124  0.0855
 4424SOL    HW130414   0.856   6.382   6.650 -0.2719  1.8147 -0.6349
 4424SOL    HW230415   0.727   6.326   6.706  0.3267  1.3406  0.2899
 4425SOL     OW30416   5.634   1.648   6.421 -0.3611  0.3690 -0.2396
 4425SOL    HW130417   5.548   1.606   6.425 -1.3043  2.1620 -0.3804
 4425SOL    HW230418   5.672   1.618   6.339 -1.5367  0.7142 -0.9412
 4426SOL     OW30419   0.334   2.670   1.577 -0.2511 -0.6697 -0.5803
 4426SOL    HW130420   0.284   2.596   1.611 -0.1804 -0.0847  0.8727
 4426SOL    HW230421   0.269   2.723   1.530 -1.4766  0.8378  2.4797
 4427SOL     OW30422   5.642   4.603   6.734  0.1963 -0.2448  0.0814
 4427SOL    HW130423   5.621   4.597   6.641 -1.7043 -2.8933  0.5622
 4427SOL    HW230424   5.735   4.581   6.738 -0.0425 -1.6978 -1.1193
 4428SOL     OW30425   4.570   6.309   5.941 -0.4081  0.1299  0.1280
 4428SOL    HW130426   4.525   6.323   5.857 -0.6175 -0.6602  0.1046
 4428SOL    HW230427   4.660   6.336   5.924 -0.8855  1.9637  0.2428
 4429SOL     OW30428   1.314   6.135   5.561  0.0595  0.1150  0.3135
 4429SOL    HW130429   1.284   6.155   5.473  1.2351  1.6358  0.2394
 4429SOL    HW230430   1.324   6.039   5.561 -0.4866  0.0334 -1.0027
 4430SOL     OW30431   3.804   1.366   0.021 -0.3915  0.5309 -0.6543
 4430SOL    HW130432   3.886   1.326  -0.007 -0.7981  0.1279 -1.2945
 4430SOL    HW230433   3.762   1.395  -0.060 -0.5086  1.4791 -0.2665
 4431SOL     OW30434   6.222   3.572   1.190 -0.1297  0.0703 -0.7117
 4431SOL    HW130435   6.275   3.493   1.179  0.4851  0.5474 -1.2744
 4431SOL    HW230436   6.265   3.638   1.135 -0.4810  0.8712 -0.0542
 4432SOL     OW30437   5.442   4.422   7.164 -0.6754 -0.3301  0.2511
 4432SOL    HW130438   5.377   4.467   7.110 -1.1093 -1.5612 -0.2700
 4432SOL    HW230439   5.392   4.361   7.217  0.0724 -1.8135 -0.6683
 4433SOL     OW30440   6.391   0.401   0.285 -0.4168  0.3192 -0.6756
 4433SOL    HW130441   6.319   0.369   0.339  0.8654 -1.1400  0.2439
 4433SOL    HW230442   6.348   0.445   0.212 -2.2518 -0.9680 -0.4397
 4434SOL     OW30443   4.616   2.327   2.261 -0.5626 -0.1431  0.6193
 4434SOL    HW130444   4.676   2.389   2.221 -0.8943  1.0127  1.8134
 4434SOL    HW230445   4.529   2.361   2.239 -0.9358 -2.5124 -2.2229
 4435SOL     OW30446   1.398   2.688   2.024  0.2994  0.5253 -0.4182
 4435SOL    HW130447   1.457   2.665   2.095 -0.7154 -0.3668  0.1543
 4435SOL    HW230448   1.391   2.609   1.971 -0.9936  0.3472 -0.0241
 4436SOL     OW30449   3.662   5.332   0.776 -0.1379 -0.4752  0.4330
 4436SOL    HW130450   3.667   5.427   0.776 -0.4190 -0.4571  0.1369
 4436SOL    HW230451   3.568   5.313   0.775 -0.1210 -0.7643  2.0222
 4437SOL     OW30452   4.239   2.922   6.071  0.3174 -0.0061  0.1691
 4437SOL    HW130453   4.324   2.882   6.089  0.1656 -0.3416  0.1654
 4437SOL    HW230454   4.180   2.847   6.060  0.1210  0.2165 -0.3116
 4438SOL     OW30455   4.497   6.386   5.255  0.0791  0.6886 -0.1382
 4438SOL    HW130456   4.573   6.342   5.294  0.1811  0.9248 -0.0733
 4438SOL    HW230457   4.422   6.346   5.300  0.0650 -0.6490 -1.2693
 4439SOL     OW30458   5.207   5.635   5.526 -0.4968 -0.1882  0.0284
 4439SOL    HW130459   5.169   5.551   5.553 -0.7531  0.4910  1.9018
 4439SOL    HW230460   5.132   5.694   5.521 -0.6772 -0.4951 -3.5113
 4440SOL     OW30461   2.791   4.773   6.010  0.1240  0.9346  0.0044
 4440SOL    HW130462   2.698   4.755   6.024  0.1645  0.9653  0.3128
 4440SOL    HW230463   2.793   4.842   5.944 -0.0739  1.0436  0.1128
 4441SOL     OW30464   2.240   3.042   6.093 -0.2231  0.4129  0.8602
 4441SOL    HW130465   2.242   3.047   6.189  0.4027  2.2192  0.7949
 4441SOL    HW230466   2.147   3.031   6.072 -0.4676  0.8245  1.6550
 4442SOL     OW30467   6.203   6.138   0.222 -0.3337  0.0444 -0.3179
 4442SOL    HW130468   6.290   6.170   0.245  0.3308 -1.0726 -1.1500
 4442SOL    HW230469   6.172   6.199   0.155  0.4530 -0.3681 -1.0929
 4443SOL     OW30470   2.510   4.291   1.265  0.0438  0.2623  0.4077
 4443SOL    HW130471   2.512   4.197   1.248 -0.6662  0.2247  0.5086
 4443SOL    HW230472   2.565   4.302   1.343  0.7217  0.0350 -0.0260
 4444SOL     OW30473   0.052   0.861   7.295  0.0498 -0.2813  0.0971
 4444SOL    HW130474   0.021   0.775   7.322 -1.4602 -0.0997 -0.8996
 4444SOL    HW230475   0.077   0.851   7.203 -0.0585  0.3017 -0.0058
 4445SOL     OW30476   5.396   3.231   2.381  0.7756 -0.4253  0.1091
 4445SOL    HW130477   5.435   3.259   2.464  2.1773 -0.2873 -0.5622
 4445SOL    HW230478   5.442   3.150   2.359 -0.5806 -1.2413  0.1399
 4446SOL     OW30479   6.036   0.728   2.763  0.1769 -0.3566 -0.0102
 4446SOL    HW130480   6.091   0.772   2.697  0.2017 -0.2942  0.0517
 4446SOL    HW230481   6.085   0.648   2.784  0.0415 -0.5046 -0.2569
 4447SOL     OW30482   6.471   5.845   1.103  0.6208  0.1134  0.1108
 4447SOL    HW130483   6.503   5.771   1.051 -0.0240  0.4262 -0.7601
 4447SOL    HW230484   6.389   5.870   1.060 -0.7176 -0.5412  2.1537
 4448SOL     OW30485   4.338   1.056   0.380  0.7153 -0.1511  0.1922
 4448SOL    HW130486   4.287   1.130   0.415  0.0027 -0.6455  0.2109
 4448SOL    HW230487   4.273   0.991   0.357  1.0957  0.3890 -2.7082
 4449SOL     OW30488   6.085   0.345   6.975 -0.1016 -0.2010  0.3976
 4449SOL    HW130489   6.130   0.347   6.891  0.1414  1.8645  0.5267
 4449SOL    HW230490   5.996   0.316   6.954 -0.1202  0.5505 -0.6321
 4450SOL     OW30491   3.718   0.181   6.850  0.3563 -0.8719 -0.0847
 4450SOL    HW130492   3.661   0.248   6.812  0.6458 -1.8176 -2.3628
 4450SOL    HW230493   3.792   0.230   6.885  0.0466  0.0860 -0.7231
 4451SOL     OW30494   5.589   6.541   0.287  0.4302 -0.0573 -0.4054
 4451SOL    HW130495   5.662   6.575   0.339  0.6136  0.0148 -0.7055
 4451SOL    HW230496   5.525   6.511   0.352 -0.2037  1.8380 -0.0901
 4452SOL     OW30497   5.834   0.770   2.576 -0.4746 -0.2910 -0.0657
 4452SOL    HW130498   5.858   0.859   2.550  0.9094 -0.7992 -0.6322
 4452SOL    HW230499   5.874   0.759   2.662 -0.0307 -0.5944 -0.3063
 4453SOL     OW30500   0.585   3.496   0.180 -0.2092 -0.3659 -0.1499
 4453SOL    HW130501   0.638   3.442   0.121 -0.1104 -0.3387 -0.0864
 4453SOL    HW230502   0.519   3.436   0.213 -0.7960 -0.1732 -0.9501
 4454SOL     OW30503   4.431   0.054   0.287 -0.0791  0.6026  0.3834
 4454SOL    HW130504   4.467  -0.034   0.290 -1.3355  0.0745  0.3365
 4454SOL    HW230505   4.483   0.104   0.349  0.9866 -0.0341  0.0221
 4455SOL     OW30506   0.126   3.059   0.089  0.2920 -0.2815  0.1696
 4455SOL    HW130507   0.065   2.986   0.090 -0.2033  0.1285  1.1628
 4455SOL    HW230508   0.133   3.083  -0.003 -3.0010  1.2601  0.2015
 4456SOL     OW30509   2.507   2.077   6.484 -0.3735 -0.3835  0.4195
 4456SOL    HW130510   2.443   2.112   6.546 -0.8918 -1.2632  0.3961
 4456SOL    HW230511   2.568   2.149   6.470 -1.5546  0.5975  0.1671
 4457SOL     OW30512   4.645   1.017   2.354  0.0224  0.0557  0.0708
 4457SOL    HW130513   4.551   1.031   2.342 -0.0990 -1.4544 -1.0867
 4457SOL    HW230514   4.662   1.045   2.443 -1.3546  1.1697  0.0182
 4458SOL     OW30515   3.395   5.923   0.652  0.5267  0.0997 -0.2701
 4458SOL    HW130516   3.331   5.990   0.627 -0.0664  0.0069  0.8881
 4458SOL    HW230517   3.352   5.840   0.631  0.3371  0.0410  0.3353
 4459SOL     OW30518   2.275   2.663   0.323 -0.6322  0.0340 -0.7830
 4459SOL    HW130519   2.300   2.622   0.406  0.8257  1.0944 -0.6654
 4459SOL    HW230520   2.245   2.590   0.269  1.9508 -1.2798 -0.6209
 4460SOL     OW30521   6.443   2.886   6.270  0.4104 -0.6922  0.3492
 4460SOL    HW130522   6.526   2.842   6.289  0.6770  0.3957  1.8714
 4460SOL    HW230523   6.445   2.966   6.323 -1.0764 -0.0163 -0.5394
 4461SOL     OW30524   4.921   5.157   7.465 -0.1646 -0.7394  0.0298
 4461SOL    HW130525   4.875   5.097   7.524 -0.5181 -0.5762 -0.0750
 4461SOL    HW230526   4.907   5.243   7.505  1.3979 -0.8370  0.8716
 4462SOL     OW30527   0.136   4.161   0.619  0.4974  0.2143  0.1041
 4462SOL    HW130528   0.155   4.082   0.569  0.8048 -0.0618  0.6477
 4462SOL    HW230529   0.072   4.134   0.684 -1.2230  0.9632 -1.2006
 4463SOL     OW30530   0.577   4.107   5.045  0.5969 -0.0751 -0.0434
 4463SOL    HW130531   0.493   4.105   5.092  0.1174  1.7437 -0.7621
 4463SOL    HW230532   0.559   4.062   4.962  0.4817 -0.1204  0.0060
 4464SOL     OW30533   5.660   1.193   0.868 -0.0927 -0.2036  0.2525
 4464SOL    HW130534   5.669   1.100   0.886 -2.1383 -0.7233 -1.1294
 4464SOL    HW230535   5.743   1.217   0.826  1.7111 -0.6080  3.2728
 4465SOL     OW30536   3.975   3.695   6.058  0.0412  0.7329 -0.1748
 4465SOL    HW130537   4.024   3.731   6.131 -2.2681  0.5854  1.5564
 4465SOL    HW230538   3.893   3.744   6.057 -0.3027  0.2208 -2.2163
 4466SOL     OW30539   6.279   3.166   0.925  0.0878 -0.5237 -0.0925
 4466SOL    HW130540   6.204   3.116   0.892  0.2470  1.4654 -4.1222
 4466SOL    HW230541   6.356   3.120   0.891  0.7450 -1.5867  2.5778
 4467SOL     OW30542   3.268   3.393   6.957 -0.3911  0.0368  0.0838
 4467SOL    HW130543   3.314   3.460   6.906 -1.7900  0.1357 -1.1186
 4467SOL    HW230544   3.334   3.326   6.974  0.2569  0.2601 -1.4043
 4468SOL     OW30545   2.833   4.453   1.314  0.0843  0.2599  0.0351
 4468SOL    HW130546   2.886   4.481   1.389  1.2835 -1.4641 -0.1196
 4468SOL    HW230547   2.750   4.425   1.353  0.7374 -0.7376  0.7710
 4469SOL     OW30548   3.750   3.088   1.099  0.1202 -0.0681  0.6039
 4469SOL    HW130549   3.768   3.001   1.062  2.2681  0.5649 -0.0172
 4469SOL    HW230550   3.737   3.071   1.192  1.3475 -1.0061  0.6370
 4470SOL     OW30551   5.806   1.198   0.296 -0.1121  0.1512  0.0247
 4470SOL    HW130552   5.797   1.104   0.312 -2.1219  0.1132 -0.9124
 4470SOL    HW230553   5.753   1.213   0.217 -1.4927  2.3451  1.2642
 4471SOL     OW30554   6.411   6.362   7.137  0.3847  0.6147  0.4359
 4471SOL    HW130555   6.491   6.381   7.088  2.9600 -1.0489  3.6575
 4471SOL    HW230556   6.378   6.281   7.097  2.0738 -0.3721  0.9370
 4472SOL     OW30557   0.204   4.293   0.075  0.5422 -0.0731  0.3805
 4472SOL    HW130558   0.133   4.328   0.130 -0.8398 -2.4783  0.2500
 4472SOL    HW230559   0.277   4.280   0.136 -0.5272 -1.4363  1.4316
 4473SOL     OW30560   3.732   5.682   6.562  0.0111 -0.4467 -0.4084
 4473SOL    HW130561   3.668   5.610   6.564 -0.2843 -0.1718  0.8296
 4473SOL    HW230562   3.714   5.732   6.641  0.4188  0.8311 -1.0993
 4474SOL     OW30563   3.603   2.466   0.066  0.0438 -0.2888 -0.1368
 4474SOL    HW130564   3.632   2.557   0.059  1.5568 -0.8778 -3.3037
 4474SOL    HW230565   3.682   2.417   0.088 -0.3685 -1.0140 -0.2433
 4475SOL     OW30566   2.173   6.510   6.527 -0.1995 -0.1926 -0.4462
 4475SOL    HW130567   2.139   6.585   6.478  0.6875 -0.0793 -0.9135
 4475SOL    HW230568   2.125   6.512   6.609 -0.3232  0.7821 -0.5233
 4476SOL     OW30569   0.762   3.010   5.594  0.6815  0.7118 -0.1355
 4476SOL    HW130570   0.735   3.089   5.547 -1.0216 -0.7685 -1.7886
 4476SOL    HW230571   0.801   2.954   5.527 -1.7541 -1.4425  0.0709
 4477SOL     OW30572   3.088   0.190   1.337  0.3165 -0.4642 -0.0334
 4477SOL    HW130573   3.004   0.151   1.360 -0.2497 -0.5771 -2.1192
 4477SOL    HW230574   3.110   0.245   1.412 -2.0853  0.3329  0.1745
 4478SOL     OW30575   4.050   3.835   0.421  0.0250 -0.2040 -0.3907
 4478SOL    HW130576   3.956   3.829   0.403  0.1848  0.3458 -1.4839
 4478SOL    HW230577   4.089   3.774   0.359  0.1944 -3.3050  2.4703
 4479SOL     OW30578   5.005   6.111   2.303  0.0973  0.2215  0.4804
 4479SOL    HW130579   5.001   6.202   2.333  0.9985  0.6425 -0.6019
 4479SOL    HW230580   5.082   6.075   2.347  1.2848  0.7733 -1.0431
 4480SOL     OW30581   4.610   2.245   7.181  0.4577  0.3864 -0.2688
 4480SOL    HW130582   4.606   2.166   7.234  0.8234  0.2121 -0.5059
 4480SOL    HW230583   4.699   2.249   7.148  0.5743  1.1324  0.0997
 4481SOL     OW30584   3.973   5.401   6.919 -0.2063  0.2610  0.1988
 4481SOL    HW130585   3.903   5.335   6.910 -0.2526  0.2642  0.5218
 4481SOL    HW230586   4.001   5.418   6.830 -0.7945  0.4460  0.0468
 4482SOL     OW30587   4.176   4.164   7.433 -0.0484 -0.4751 -0.2650
 4482SOL    HW130588   4.271   4.157   7.443 -0.1138  0.8552  1.9547
 4482SOL    HW230589   4.163   4.247   7.387 -0.1429  0.7403  1.8262
 4483SOL     OW30590   2.400   3.463   0.017 -0.2089 -0.2821  0.0614
 4483SOL    HW130591   2.424   3.382  -0.029  0.6270 -0.7953  1.3492
 4483SOL    HW230592   2.435   3.533  -0.037  1.4913 -0.9093  0.3070
 4484SOL     OW30593   5.853   6.371   0.118  0.0148  0.7139 -0.6655
 4484SOL    HW130594   5.846   6.279   0.092 -0.0913  0.1639  1.2220
 4484SOL    HW230595   5.766   6.395   0.149  0.3970  1.0306  0.1913
 4485SOL     OW30596   2.170   2.563   0.891 -0.1969  0.3783 -0.3774
 4485SOL    HW130597   2.104   2.542   0.825  1.0220  0.2038 -1.5798
 4485SOL    HW230598   2.159   2.657   0.905  1.1392  0.9686 -2.7295
 4486SOL     OW30599   4.218   0.341   6.841  0.2843 -0.3900 -0.0417
 4486SOL    HW130600   4.187   0.422   6.882  1.4241  0.1555 -0.2127
 4486SOL    HW230601   4.173   0.338   6.756  0.5337  0.2735 -0.2022
 4487SOL     OW30602   5.771   3.048   2.543  0.4775  0.1022  0.1744
 4487SOL    HW130603   5.729   3.113   2.599 -0.4118  2.0869 -2.5593
 4487SOL    HW230604   5.856   3.086   2.521  2.1445 -2.0345  2.4163
 4488SOL     OW30605   4.552   4.204   5.663 -0.3185 -0.1560 -0.0341
 4488SOL    HW130606   4.517   4.184   5.576 -2.1075  0.0975  0.5843
 4488SOL    HW230607   4.624   4.142   5.675  0.3094  0.1456 -1.8825
 4489SOL     OW30608   1.717   3.939   6.015 -0.4308 -0.0383 -0.3246
 4489SOL    HW130609   1.808   3.917   5.994 -0.6025 -0.1824 -0.9212
 4489SOL    HW230610   1.718   4.034   6.028 -0.0327 -0.1441  0.5265
 4490SOL     OW30611   4.260   5.693   6.451  0.8605 -0.9232  0.6558
 4490SOL    HW130612   4.188   5.664   6.508 -1.1353  0.1812 -1.1647
 4490SOL    HW230613   4.273   5.620   6.391 -1.1723  0.0814 -1.1536
 4491SOL     OW30614   3.095   1.339   5.758 -0.1790  0.0439 -0.4211
 4491SOL    HW130615   3.158   1.324   5.687  0.4791  0.4449  0.0698
 4491SOL    HW230616   3.010   1.339   5.714  0.3545  3.5271 -1.8193
 4492SOL     OW30617   4.707   4.211   6.623  0.7393 -0.2598 -0.6219
 4492SOL    HW130618   4.643   4.192   6.691  0.0688 -1.4207 -1.5465
 4492SOL    HW230619   4.754   4.129   6.609  2.3764  0.5315 -0.0647
 4493SOL     OW30620   2.841   1.154   0.067 -0.1583 -0.5280  0.5913
 4493SOL    HW130621   2.800   1.068   0.082 -0.3432 -0.4835  0.3460
 4493SOL    HW230622   2.926   1.147   0.110  0.2845 -1.2164 -0.3636
 4494SOL     OW30623   1.206   6.146   6.536  0.1356  0.2284 -0.1203
 4494SOL    HW130624   1.269   6.210   6.569  0.8927 -0.7275  0.3527
 4494SOL    HW230625   1.179   6.180   6.451  1.7170  0.3963 -0.5889
 4495SOL     OW30626   3.651   3.232   0.493  0.6125  0.4562  0.0300
 4495SOL    HW130627   3.685   3.146   0.468  1.3415  0.8279 -0.2731
 4495SOL    HW230628   3.695   3.293   0.435 -0.4645  0.9751 -0.2642
 4496SOL     OW30629   2.410   0.739   1.768  0.5907 -0.0147  0.3923
 4496SOL    HW130630   2.461   0.738   1.849  2.3968 -0.8533 -0.6860
 4496SOL    HW230631   2.432   0.822   1.726 -0.9556  0.7869  1.0622
 4497SOL     OW30632   1.821   1.163   5.827 -0.0619 -0.1162 -0.1750
 4497SOL    HW130633   1.750   1.189   5.885 -0.6321  1.3195 -1.4418
 4497SOL    HW230634   1.828   1.235   5.764 -0.8937 -2.5013 -3.2029
 4498SOL     OW30635   4.656   6.396   6.871 -0.5092  0.1826 -0.2527
 4498SOL    HW130636   4.628   6.482   6.840  0.0010  0.0721 -1.0438
 4498SOL    HW230637   4.652   6.340   6.793  1.4833  0.0630 -0.3256
 4499SOL     OW30638   3.324   0.034   1.984 -0.1801 -0.5300 -0.4248
 4499SOL    HW130639   3.315  -0.016   2.065 -1.3784 -0.2745 -0.3927
 4499SOL    HW230640   3.296   0.123   2.006 -0.6107 -0.4761 -1.1355
 4500SOL     OW30641   2.526   3.775   0.015  0.0668 -0.3142  0.0546
 4500SOL    HW130642   2.586   3.713  -0.027 -0.0745  0.3041 -1.0976
 4500SOL    HW230643   2.552   3.775   0.107  0.5286 -1.5460 -0.0566
 4501SOL     OW30644   5.734   1.578   6.188 -0.5422  0.2361  0.6145
 4501SOL    HW130645   5.736   1.495   6.140 -1.2132 -0.2561  1.3926
 4501SOL    HW230646   5.725   1.645   6.121 -0.5848 -0.3679  0.0039
 4502SOL     OW30647   4.052   4.112   7.028  0.5900  0.1647  0.1351
 4502SOL    HW130648   3.959   4.094   7.038  0.5667  0.7384  1.1268
 4502SOL    HW230649   4.066   4.118   6.934 -0.4360  0.3780 -0.0105
 4503SOL     OW30650   4.304   5.563   6.181 -0.2275  0.1516 -0.1992
 4503SOL    HW130651   4.398   5.552   6.196  0.0470 -1.4648 -2.6923
 4503SOL    HW230652   4.298   5.613   6.100 -1.5390  0.3039 -0.0355
 4504SOL     OW30653   4.418   3.856   1.297  0.1548  0.2337 -0.8676
 4504SOL    HW130654   4.459   3.773   1.320  2.0566  0.9870 -1.2653
 4504SOL    HW230655   4.414   3.905   1.379  1.8090  0.8289 -1.0960
 4505SOL     OW30656   2.959   6.250   5.060  0.0063  0.4191  0.2513
 4505SOL    HW130657   3.028   6.314   5.040  2.0229 -1.9477 -0.7801
 4505SOL    HW230658   2.971   6.181   4.996 -1.9144 -1.1730  1.5031
 4506SOL     OW30659   0.790   3.593   6.105 -0.3918 -0.0133  0.0407
 4506SOL    HW130660   0.704   3.568   6.073  0.9434 -1.2481 -2.9917
 4506SOL    HW230661   0.851   3.543   6.052  2.2442  0.3377  2.4767
 4507SOL     OW30662   1.018   6.296   1.758  0.0687  0.2579 -0.0014
 4507SOL    HW130663   1.103   6.252   1.750 -0.0767 -0.6472  2.6085
 4507SOL    HW230664   0.959   6.229   1.794 -1.4746  1.1996 -0.6709
 4508SOL     OW30665   5.078   5.163   5.598  0.3318  0.1762 -0.5346
 4508SOL    HW130666   5.171   5.149   5.581  0.4445 -1.1904  0.8750
 4508SOL    HW230667   5.050   5.082   5.641 -2.3110 -0.8474 -3.7699
 4509SOL     OW30668   6.309   0.618   7.161  0.4241  0.0333  0.0264
 4509SOL    HW130669   6.294   0.713   7.155 -0.0183 -0.0346 -0.0041
 4509SOL    HW230670   6.234   0.585   7.210  0.5584 -0.3076  0.0046
 4510SOL     OW30671   0.998   0.143   6.484  0.4196  0.4366 -0.4011
 4510SOL    HW130672   1.047   0.188   6.415  0.8289 -0.7400 -0.9071
 4510SOL    HW230673   0.975   0.212   6.546 -0.8987  1.7331 -2.2440
 4511SOL     OW30674   3.538   5.305   5.210  0.1341 -0.2589  0.0595
 4511SOL    HW130675   3.488   5.336   5.135  0.4455  1.0172  0.3687
 4511SOL    HW230676   3.624   5.285   5.175 -0.0826 -0.8752 -0.1481
 4512SOL     OW30677   2.807   1.647   6.255  0.6569 -0.3148 -0.0691
 4512SOL    HW130678   2.876   1.705   6.222 -0.3406  0.9396 -0.0734
 4512SOL    HW230679   2.810   1.571   6.198 -0.5153  1.4365 -2.6871
 4513SOL     OW30680   0.838   4.616   0.635 -0.0557  0.2019 -0.4325
 4513SOL    HW130681   0.923   4.659   0.622  0.9174 -1.5656 -0.3063
 4513SOL    HW230682   0.858   4.522   0.631 -2.2526 -0.2965 -1.9665
 4514SOL     OW30683   3.290   2.372   0.774  0.2381  0.0345  0.3273
 4514SOL    HW130684   3.229   2.408   0.838 -1.8511 -0.6130 -1.1887
 4514SOL    HW230685   3.348   2.315   0.825  0.9155  2.1477  2.0949
 4515SOL     OW30686   0.829   3.030   1.305  0.1750 -0.6261  0.3463
 4515SOL    HW130687   0.823   3.081   1.385 -2.3409  2.3213 -1.5081
 4515SOL    HW230688   0.922   3.032   1.282  0.3057  2.5140  0.7962
 4516SOL     OW30689   4.782   3.220   0.988 -0.0785  0.2631 -0.2625
 4516SOL    HW130690   4.754   3.248   1.075  0.0408 -0.3291 -0.0280
 4516SOL    HW230691   4.860   3.166   1.004 -0.1094  0.0743 -0.7285
 4517SOL     OW30692   2.230   3.573   0.241 -0.0206  0.2485  1.3671
 4517SOL    HW130693   2.272   3.522   0.172  1.0625  0.5753  1.7691
 4517SOL    HW230694   2.194   3.650   0.196 -2.3734 -1.1840  0.6202
 4518SOL     OW30695   3.461   5.560   5.600 -0.1462  0.3305  0.7753
 4518SOL    HW130696   3.526   5.533   5.535  1.3348  0.8294  2.0078
 4518SOL    HW230697   3.402   5.617   5.552  0.1467 -0.3419 -0.4386
 4519SOL     OW30698   3.612   4.618   6.277  0.0572 -0.6758 -0.4643
 4519SOL    HW130699   3.585   4.706   6.302  0.1853 -0.5771 -0.6694
 4519SOL    HW230700   3.563   4.600   6.197 -0.2973 -0.9610 -0.1838
 4520SOL     OW30701   6.462   5.190   6.516 -0.5205 -0.2946 -0.1542
 4520SOL    HW130702   6.385   5.185   6.572 -0.5059 -1.7789 -0.2343
 4520SOL    HW230703   6.442   5.261   6.455  0.3754  2.9028  2.9734
 4521SOL     OW30704   3.444   4.831   2.118 -0.2019  0.0236  0.4277
 4521SOL    HW130705   3.526   4.799   2.081 -0.7268  1.7515 -2.4982
 4521SOL    HW230706   3.459   4.924   2.136 -1.3278  0.2311  0.4201
 4522SOL     OW30707   3.610   5.365   5.976 -0.0652 -0.0129 -0.0603
 4522SOL    HW130708   3.671   5.300   6.013  1.1334  1.2668  0.3112
 4522SOL    HW230709   3.572   5.408   6.053  0.3962  0.8232 -0.2837
 4523SOL     OW30710   4.229   4.535   0.025 -0.3630 -0.4324 -0.3140
 4523SOL    HW130711   4.174   4.509   0.098 -0.1416 -0.5135 -0.1771
 4523SOL    HW230712   4.201   4.479  -0.048 -0.3530 -0.5842 -0.2018
 4524SOL     OW30713   3.544   3.511   5.872  0.3777  0.6022  0.0594
 4524SOL    HW130714   3.594   3.451   5.817 -0.6147 -0.0958 -0.1156
 4524SOL    HW230715   3.586   3.596   5.859  1.4446  0.0662 -0.1459
 4525SOL     OW30716   5.275   1.745   6.534 -0.2806 -0.1114  0.0045
 4525SOL    HW130717   5.312   1.659   6.515  0.3753  0.0311  0.6000
 4525SOL    HW230718   5.181   1.730   6.540 -0.0602 -1.0541  1.4617
 4526SOL     OW30719   5.625   4.054   0.724 -0.4276 -0.2535  0.2417
 4526SOL    HW130720   5.711   4.055   0.682 -0.1528 -2.8544  0.6015
 4526SOL    HW230721   5.576   4.123   0.678  0.9160 -0.6936 -2.0350
 4527SOL     OW30722   4.811   1.476   0.775  0.0720  0.3454  0.3447
 4527SOL    HW130723   4.773   1.493   0.862  1.8198  2.0726  0.8574
 4527SOL    HW230724   4.832   1.563   0.741  2.7900 -0.4241 -0.2061
 4528SOL     OW30725   3.850   1.553   5.273  0.4341 -0.3771 -0.0841
 4528SOL    HW130726   3.783   1.581   5.210  1.1257  1.1322 -0.2015
 4528SOL    HW230727   3.904   1.491   5.224 -0.8235 -1.5855  0.0006
 4529SOL     OW30728   5.741   0.116   1.813  0.5081  0.0938 -0.4406
 4529SOL    HW130729   5.647   0.100   1.818  0.7683 -1.9976 -1.4482
 4529SOL    HW230730   5.781   0.036   1.848  1.9228  0.6844 -0.6448
 4530SOL     OW30731   6.547   3.530   0.612  0.0495 -0.0270 -0.5253
 4530SOL    HW130732   6.557   3.543   0.706 -0.1986 -0.2486 -0.4679
 4530SOL    HW230733   6.545   3.619   0.575 -2.5493  0.1772 -0.0538
 4531SOL     OW30734   3.906   3.317   6.587  0.2017  0.3326 -0.4337
 4531SOL    HW130735   3.877   3.352   6.671  0.3591  0.0919 -0.2795
 4531SOL    HW230736   3.928   3.226   6.604 -0.9342 -0.0655 -0.9962
 4532SOL     OW30737   2.436   0.358   0.043 -0.5848 -0.0054  0.6586
 4532SOL    HW130738   2.405   0.439   0.003 -0.6447 -0.5158 -0.3633
 4532SOL    HW230739   2.477   0.310  -0.029  0.6171 -0.3156  1.5243
 4533SOL     OW30740   0.697   5.605   6.720  0.0069  0.5151  0.1383
 4533SOL    HW130741   0.621   5.549   6.709 -0.8708  1.6783  0.1791
 4533SOL    HW230742   0.674   5.687   6.678  1.3800  0.7784 -0.1657
 4534SOL     OW30743   3.293   1.074   2.569 -0.4250 -0.0452 -0.3595
 4534SOL    HW130744   3.236   0.997   2.568 -1.8049  0.9109  0.6509
 4534SOL    HW230745   3.257   1.131   2.502  1.0853 -0.5780 -1.6660
 4535SOL     OW30746   4.586   5.954   0.808 -0.0150  0.4011 -0.4603
 4535SOL    HW130747   4.612   5.900   0.883  1.6363 -0.5721 -1.6390
 4535SOL    HW230748   4.637   6.034   0.817 -1.5463  1.2951  0.6361
 4536SOL     OW30749   6.284   4.012   1.275 -0.2539  0.5048  0.0123
 4536SOL    HW130750   6.301   4.019   1.369 -1.3139 -1.2386  0.3663
 4536SOL    HW230751   6.189   4.023   1.267 -0.5395 -1.9152 -0.5267
 4537SOL     OW30752   2.873   4.328   1.672 -0.1508 -0.2727  0.4923
 4537SOL    HW130753   2.946   4.292   1.722 -0.6465  0.9140  2.1298
 4537SOL    HW230754   2.905   4.411   1.638 -0.1513 -0.6021 -0.3308
 4538SOL     OW30755   0.492   2.417   7.065 -0.2150  0.5301  0.0346
 4538SOL    HW130756   0.521   2.327   7.082  0.2543  0.4746 -0.9828
 4538SOL    HW230757   0.398   2.415   7.078 -0.2357 -0.1637 -0.2155
 4539SOL     OW30758   6.344   4.280   5.816 -0.5722  0.2842  0.2058
 4539SOL    HW130759   6.376   4.255   5.902  0.1197 -0.2376 -0.1953
 4539SOL    HW230760   6.258   4.319   5.833  0.1061  1.4021  1.2735
 4540SOL     OW30761   6.585   4.890   0.518  0.0853  0.2200  0.3498
 4540SOL    HW130762   6.595   4.800   0.549  1.7108  0.7954  1.5934
 4540SOL    HW230763   6.514   4.925   0.572 -0.5437 -0.2687 -0.1264
 4541SOL     OW30764   0.907   4.750   5.062 -0.2311  0.4561 -0.6839
 4541SOL    HW130765   0.886   4.665   5.024  1.0074  0.2702 -0.9968
 4541SOL    HW230766   0.862   4.814   5.006 -0.9079  0.0360 -0.6275
 4542SOL     OW30767   4.889   2.426   6.475  0.3935 -0.5148  0.1045
 4542SOL    HW130768   4.967   2.451   6.426  0.6003 -0.7969  0.2908
 4542SOL    HW230769   4.818   2.473   6.432  0.7351  0.1534  0.2483
 4543SOL     OW30770   3.843   4.951   0.767 -0.8291 -0.1304 -0.2468
 4543SOL    HW130771   3.854   4.926   0.675 -3.1157  0.2835 -0.7150
 4543SOL    HW230772   3.801   4.875   0.808  0.6442 -0.5133  0.6173
 4544SOL     OW30773   4.933   6.050   0.721 -0.2436 -0.2484  0.0638
 4544SOL    HW130774   4.909   5.999   0.643  0.6571  0.5836 -0.7884
 4544SOL    HW230775   4.849   6.072   0.762 -0.6536 -3.4885  1.2334
 4545SOL     OW30776   5.203   3.002   1.558  0.2849  0.1838 -0.3867
 4545SOL    HW130777   5.140   2.930   1.558 -2.3318  2.1268 -4.5473
 4545SOL    HW230778   5.182   3.051   1.637 -1.0646 -1.0645  0.0861
 4546SOL     OW30779   1.361   2.625   1.368 -0.4090 -0.1126 -0.0379
 4546SOL    HW130780   1.292   2.573   1.408 -0.6225 -0.8391 -1.2789
 4546SOL    HW230781   1.317   2.671   1.296 -0.2852  2.0303  1.1680
 4547SOL     OW30782   5.933   0.787   2.019  0.1568 -0.4743 -0.0760
 4547SOL    HW130783   5.963   0.878   2.017 -1.8881  0.2424 -0.4792
 4547SOL    HW230784   5.983   0.747   2.090  1.6233  0.7429 -0.3641
 4548SOL     OW30785   5.378   2.991   6.387 -0.2747 -0.7518 -0.7563
 4548SOL    HW130786   5.442   2.980   6.458 -0.5709  0.5148 -0.2829
 4548SOL    HW230787   5.320   3.061   6.417 -1.4207 -1.3400 -1.5281
 4549SOL     OW30788   3.811   2.336   2.271  0.1770  0.4905 -0.5323
 4549SOL    HW130789   3.797   2.253   2.225 -1.4253  0.4825 -0.1078
 4549SOL    HW230790   3.724   2.361   2.302  0.9169  1.4301  0.9127
 4550SOL     OW30791   3.270   0.043   7.422 -0.5253  0.3092 -0.1547
 4550SOL    HW130792   3.321   0.031   7.502 -0.5330  0.1611 -0.1725
 4550SOL    HW230793   3.334   0.034   7.351 -0.2558  1.7805 -0.1299
 4551SOL     OW30794   2.341   2.855   1.527  0.2799  0.2351  0.3410
 4551SOL    HW130795   2.369   2.764   1.541 -0.7840 -0.3586 -1.0128
 4551SOL    HW230796   2.249   2.856   1.554 -0.1511  0.4942 -1.0468
 4552SOL     OW30797   4.474   4.875   7.221  0.0673  0.5582  0.0112
 4552SOL    HW130798   4.562   4.855   7.187  0.5201 -0.1241  1.4823
 4552SOL    HW230799   4.466   4.819   7.298 -2.1441 -0.2688 -0.7489
 4553SOL     OW30800   2.773   1.401   6.073 -0.0820  0.1146  0.3307
 4553SOL    HW130801   2.702   1.455   6.037 -1.3145 -1.0213  0.9721
 4553SOL    HW230802   2.773   1.322   6.020  0.8423  0.1673  0.2333
 4554SOL     OW30803   6.191   3.509   1.897 -0.0868  0.2517  0.9688
 4554SOL    HW130804   6.281   3.516   1.864  0.3709 -1.8630  1.6162
 4554SOL    HW230805   6.136   3.508   1.819  0.4568  1.2020  0.5542
 4555SOL     OW30806   3.516   2.369   6.089  0.6209 -0.2050 -0.2425
 4555SOL    HW130807   3.432   2.329   6.067  0.8500 -0.3954 -0.7894
 4555SOL    HW230808   3.510   2.458   6.055 -0.0705  0.4164  1.3928
 4556SOL     OW30809   3.236   5.672   6.757 -0.5348 -0.4100 -0.0054
 4556SOL    HW130810   3.187   5.612   6.813 -0.7533 -1.9413 -1.7454
 4556SOL    HW230811   3.179   5.688   6.682 -0.7083  2.4673  0.5985
 4557SOL     OW30812   4.943   3.252   1.933  0.1240  0.2518 -0.4573
 4557SOL    HW130813   4.849   3.257   1.918  0.1226  3.2607 -0.1054
 4557SOL    HW230814   4.953   3.264   2.028  0.8310 -1.2832 -0.3143
 4558SOL     OW30815   4.023   0.515   0.695 -0.3725  0.1204  0.0675
 4558SOL    HW130816   3.997   0.479   0.780 -0.6838  0.4657  0.1215
 4558SOL    HW230817   4.012   0.609   0.704  0.9388  0.2879  0.0961
 4559SOL     OW30818   1.872   3.446   7.358 -0.3214 -0.1911 -0.0930
 4559SOL    HW130819   1.955   3.482   7.389  0.1240 -2.2383  1.3197
 4559SOL    HW230820   1.867   3.472   7.266  0.3547  2.5729  0.5569
 4560SOL     OW30821   3.001   3.765   6.687 -0.0655 -0.5166 -0.1223
 4560SOL    HW130822   3.009   3.857   6.661 -1.9234 -0.3912 -0.4093
 4560SOL    HW230823   3.057   3.718   6.625 -2.2084  0.0510 -2.7052
 4561SOL     OW30824   1.966   6.185   5.301  0.5254  0.4855 -0.1849
 4561SOL    HW130825   1.973   6.092   5.325 -0.1892  0.1745 -1.1015
 4561SOL    HW230826   1.897   6.219   5.358  1.3890  0.6772  0.7600
 4562SOL     OW30827   2.254   6.231   0.321  0.0373 -1.0246  0.0651
 4562SOL    HW130828   2.234   6.281   0.242  0.6647 -0.4969  0.2332
 4562SOL    HW230829   2.309   6.289   0.373 -1.0223 -1.0504  1.2605
 4563SOL     OW30830   2.009   1.835   6.384  0.2359 -0.1747 -0.1569
 4563SOL    HW130831   2.069   1.904   6.412  0.2783  0.0818 -0.8817
 4563SOL    HW230832   2.060   1.783   6.322 -0.2424 -0.0488 -0.6564
 4564SOL     OW30833   3.921   0.663   1.016  0.3902 -0.1233  0.1669
 4564SOL    HW130834   3.971   0.704   0.945  0.3116  0.1916  0.2965
 4564SOL    HW230835   3.989   0.627   1.074  0.4532 -0.9848 -0.4150
 4565SOL     OW30836   2.452   5.436   0.534 -0.2007  0.0863 -0.0480
 4565SOL    HW130837   2.406   5.425   0.451 -0.1737 -0.0866 -0.0396
 4565SOL    HW230838   2.385   5.423   0.601 -0.2328  0.2714 -0.0413
 4566SOL     OW30839   3.935   3.374   0.390  0.4950  0.8299 -0.0724
 4566SOL    HW130840   3.938   3.294   0.337  0.6734  0.0943  0.9973
 4566SOL    HW230841   4.024   3.408   0.386  0.4177  0.9736 -0.5402
 4567SOL     OW30842   2.684   1.842   5.791 -0.0856  0.0209  0.7280
 4567SOL    HW130843   2.749   1.773   5.809  0.4004  0.0558 -0.7458
 4567SOL    HW230844   2.606   1.794   5.762  0.6555  0.0519 -1.5429
 4568SOL     OW30845   3.633   2.421   0.397 -0.5539 -0.1662 -0.3184
 4568SOL    HW130846   3.581   2.494   0.365 -0.0612 -0.0610 -0.8891
 4568SOL    HW230847   3.597   2.402   0.484  0.2902  1.7382  0.5026
 4569SOL     OW30848   0.005   4.665   0.646  0.0189  0.4572 -0.2462
 4569SOL    HW130849   0.095   4.637   0.630 -0.6735 -2.0085 -0.2983
 4569SOL    HW230850  -0.015   4.632   0.733 -0.1247  3.1378  0.8242
 4570SOL     OW30851   5.307   4.682   7.161  0.0760  0.5959 -0.2501
 4570SOL    HW130852   5.313   4.653   7.070 -0.0895 -2.8285  0.7213
 4570SOL    HW230853   5.224   4.647   7.192  0.8278  0.3932  1.6264
 4571SOL     OW30854   5.516   1.879   1.027 -0.2086  0.0506 -0.2877
 4571SOL    HW130855   5.599   1.848   1.062 -0.6350 -1.5794 -0.6332
 4571SOL    HW230856   5.524   1.867   0.932 -0.6992  0.2400 -0.3578
 4572SOL     OW30857   2.964   5.176   0.726  0.1052  0.6004  0.1209
 4572SOL    HW130858   2.890   5.136   0.681  1.2942 -1.2901 -0.2699
 4572SOL    HW230859   2.977   5.122   0.804  0.5942  1.3593  0.5741
 4573SOL     OW30860   5.728   3.129   5.870 -0.2711 -0.3109 -0.0763
 4573SOL    HW130861   5.684   3.214   5.870 -0.4553 -0.1968  4.4989
 4573SOL    HW230862   5.659   3.066   5.848 -2.0064  0.2182  3.3141
 4574SOL     OW30863   2.856   0.093   1.411  0.5239  0.0379  0.3017
 4574SOL    HW130864   2.805   0.089   1.330  1.2097  2.3247 -0.3119
 4574SOL    HW230865   2.797   0.059   1.478 -1.0070  0.5443 -0.7390
 4575SOL     OW30866   2.453   0.961   2.518 -0.1068  0.3924 -0.3178
 4575SOL    HW130867   2.389   0.978   2.587 -0.4714  0.1858 -0.6002
 4575SOL    HW230868   2.490   1.047   2.497  0.0762  0.4409  0.2037
 4576SOL     OW30869   2.015   3.596   5.941  0.1023  0.0135  0.4342
 4576SOL    HW130870   1.963   3.617   6.018  0.6861  3.2425  0.0914
 4576SOL    HW230871   1.964   3.528   5.896 -2.4138  1.0670  1.5030
 4577SOL     OW30872   4.036   3.569   7.481 -0.2806 -0.0478 -0.4019
 4577SOL    HW130873   3.964   3.506   7.471  0.6311 -1.0171 -0.9734
 4577SOL    HW230874   4.111   3.527   7.440  0.6057  0.9941  0.1057
 4578SOL     OW30875   2.732   5.089   1.260 -0.5210 -0.3637  0.1791
 4578SOL    HW130876   2.684   5.007   1.273  2.0747 -2.0413 -0.2908
 4578SOL    HW230877   2.803   5.068   1.200 -0.4533  2.5552 -0.9526
 4579SOL     OW30878   2.679   4.203   1.883  0.3780 -0.5270  0.4876
 4579SOL    HW130879   2.664   4.144   1.809 -1.7200 -0.2615  0.6465
 4579SOL    HW230880   2.720   4.280   1.844  1.9868 -1.5360  0.0892
 4580SOL     OW30881   1.666   1.904   0.027  0.3201  0.1126  1.0106
 4580SOL    HW130882   1.625   1.829   0.070  0.9758 -1.0981 -0.3542
 4580SOL    HW230883   1.706   1.867  -0.052  0.7206  1.9031  0.3165
 4581SOL     OW30884   5.622   2.419   0.127 -0.2485 -0.2517 -0.1147
 4581SOL    HW130885   5.666   2.334   0.125  0.0550 -0.1870  1.8179
 4581SOL    HW230886   5.640   2.458   0.041  0.4804 -1.6980 -0.6472
 4582SOL     OW30887   3.696   3.709   5.694 -0.4448  0.1652  0.2717
 4582SOL    HW130888   3.740   3.790   5.719  0.8875 -0.7389  0.9894
 4582SOL    HW230889   3.621   3.737   5.642  0.1288  1.8409  0.2964
 4583SOL     OW30890   0.022   6.059   7.356 -0.3575  0.0690  0.0174
 4583SOL    HW130891   0.099   6.081   7.304  0.0007  0.6829  0.7741
 4583SOL    HW230892   0.057   6.007   7.429 -1.2809 -4.2088 -2.2614
 4584SOL     OW30893   3.332   6.369   7.241  0.7199 -0.2674  0.0773
 4584SOL    HW130894   3.421   6.334   7.247  0.0764 -2.0863 -0.2577
 4584SOL    HW230895   3.279   6.294   7.216 -0.6750  1.1490 -1.4297
 4585SOL     OW30896   3.088   1.317   0.394 -0.5466 -0.7198  0.1146
 4585SOL    HW130897   3.130   1.403   0.396 -0.9031 -0.5603  1.4712
 4585SOL    HW230898   2.998   1.333   0.421 -0.8718 -1.4015 -0.5080
 4586SOL     OW30899   5.552   3.769   1.135  0.0227  0.3482  0.3856
 4586SOL    HW130900   5.579   3.775   1.227 -1.4947 -2.0877  1.1107
 4586SOL    HW230901   5.550   3.859   1.104  1.4757  1.1671  2.4539
 4587SOL     OW30902   6.127   1.652   1.802  0.1714 -0.0257 -0.5636
 4587SOL    HW130903   6.127   1.744   1.828  1.4946  0.0050 -0.6222
 4587SOL    HW230904   6.218   1.624   1.812 -0.3317 -1.5182  0.0886
 4588SOL     OW30905   4.455   4.157   6.771  0.3043  0.1364 -0.0684
 4588SOL    HW130906   4.483   4.140   6.861 -0.9580  0.1201  0.3387
 4588SOL    HW230907   4.459   4.252   6.762 -0.3815  0.2085  0.2986
 4589SOL     OW30908   5.832   4.954   0.941  0.5037  0.0237 -0.5472
 4589SOL    HW130909   5.749   4.944   0.987  0.9772 -0.0628  0.2968
 4589SOL    HW230910   5.830   4.887   0.873  0.0706 -0.2671 -0.2515
 4590SOL     OW30911   0.852   4.747   0.095  0.0977 -0.2594 -0.2990
 4590SOL    HW130912   0.873   4.785   0.181  1.8624 -2.0545  0.1431
 4590SOL    HW230913   0.926   4.690   0.076 -0.7694 -0.7116 -2.5634
 4591SOL     OW30914   1.959   1.330   5.649  0.1833 -0.9600  0.3095
 4591SOL    HW130915   1.959   1.383   5.729 -2.3632 -0.4831  0.0566
 4591SOL    HW230916   2.000   1.386   5.583 -0.4148 -0.1882  0.5831
 4592SOL     OW30917   6.140   2.179   5.674 -0.1817  0.0853 -0.0605
 4592SOL    HW130918   6.217   2.134   5.708 -0.9079 -0.8951  0.3310
 4592SOL    HW230919   6.080   2.108   5.651 -1.5334  0.8513  0.9929
 4593SOL     OW30920   4.055   5.308   0.242  0.0315 -0.1481 -0.1411
 4593SOL    HW130921   4.067   5.399   0.270 -0.9164 -0.3132  0.8821
 4593SOL    HW230922   4.082   5.256   0.317  1.7110 -0.7835 -1.1426
 4594SOL     OW30923   6.057   3.832   1.656  0.1775  0.0875 -0.0686
 4594SOL    HW130924   6.053   3.736   1.656 -1.0453  0.1152 -0.2186
 4594SOL    HW230925   5.965   3.859   1.653  0.5390  1.2594 -1.8428
 4595SOL     OW30926   6.264   2.274   7.336  0.1956 -0.0607 -0.0650
 4595SOL    HW130927   6.307   2.195   7.301 -1.3187 -0.8236 -0.2729
 4595SOL    HW230928   6.333   2.341   7.335  1.0263 -0.8809 -1.6485
 4596SOL     OW30929   0.670   3.199   6.426  0.3430 -0.2934  0.1037
 4596SOL    HW130930   0.712   3.282   6.402 -0.5101 -0.0359 -0.5836
 4596SOL    HW230931   0.611   3.222   6.498 -0.1013 -0.2341 -0.2723
 4597SOL     OW30932   1.715   2.915   0.124  0.3090 -0.2872 -0.5124
 4597SOL    HW130933   1.806   2.926   0.095  1.0613  1.5868  2.1278
 4597SOL    HW230934   1.718   2.845   0.189  0.0244  0.1752  0.0160
 4598SOL     OW30935   4.588   0.597   6.667  0.4475  0.6811 -0.5571
 4598SOL    HW130936   4.579   0.656   6.741 -1.4014 -0.7907  0.4602
 4598SOL    HW230937   4.640   0.523   6.701 -2.2216 -1.0533  0.0619
 4599SOL     OW30938   0.924   4.494   6.194  0.2547  0.3438 -0.6022
 4599SOL    HW130939   0.901   4.556   6.125 -1.0418 -0.9115 -1.3700
 4599SOL    HW230940   0.927   4.409   6.150  0.9606 -0.2953  0.6064
 4600SOL     OW30941   6.132   4.759   7.182 -0.2920 -0.2074  0.0130
 4600SOL    HW130942   6.100   4.722   7.264  0.8484  1.2639  1.1743
 4600SOL    HW230943   6.208   4.706   7.159  0.0390  0.0460  0.5059
 4601SOL     OW30944   6.423   4.664   1.097 -0.0944 -0.4702 -0.0390
 4601SOL    HW130945   6.416   4.656   1.192 -1.2821 -1.4211 -0.1909
 4601SOL    HW230946   6.471   4.586   1.070  1.4844  0.4659 -0.1313
 4602SOL     OW30947   3.456   0.838   0.399 -0.1760 -0.8327  0.4557
 4602SOL    HW130948   3.397   0.763   0.410 -0.6034 -0.3886  1.2743
 4602SOL    HW230949   3.398   0.911   0.377  0.3449 -0.9782 -1.5933
 4603SOL     OW30950   2.503   5.810   0.443  0.7863 -0.7713 -0.5082
 4603SOL    HW130951   2.576   5.864   0.474 -0.2951 -0.0589  0.9059
 4603SOL    HW230952   2.426   5.846   0.487 -0.2011 -2.4813 -0.7523
 4604SOL     OW30953   5.751   0.139   5.744  0.1951 -0.2105  0.0787
 4604SOL    HW130954   5.797   0.222   5.757  1.4954 -0.6601 -1.3217
 4604SOL    HW230955   5.685   0.159   5.677 -0.2573 -0.0618  0.5597
 4605SOL     OW30956   3.872   5.776   0.840  0.0643 -0.2454  0.3316
 4605SOL    HW130957   3.803   5.727   0.884 -0.4810 -1.7814 -2.0509
 4605SOL    HW230958   3.847   5.868   0.851 -1.4297 -0.6907  0.9245
 4606SOL     OW30959   3.216   4.449   0.788  0.2514 -0.1747  0.4548
 4606SOL    HW130960   3.263   4.382   0.838  2.1124  0.6195 -0.1526
 4606SOL    HW230961   3.242   4.532   0.829  0.7132  0.3931 -0.9303
 4607SOL     OW30962   5.998   2.798   5.833  0.1389 -0.3004 -0.2256
 4607SOL    HW130963   5.904   2.795   5.851  0.2584 -1.8580  0.2210
 4607SOL    HW230964   6.006   2.772   5.742  0.0125  1.8462 -0.9109
 4608SOL     OW30965   0.703   0.234   0.991  1.0806  0.1607  0.0929
 4608SOL    HW130966   0.618   0.277   1.006  0.1360 -1.7085  0.3563
 4608SOL    HW230967   0.751   0.296   0.936 -1.1143  0.5197 -1.5601
 4609SOL     OW30968   2.168   6.399   0.090  0.3168  0.8874 -0.2375
 4609SOL    HW130969   2.184   6.479   0.041 -0.3973  1.2333  0.0934
 4609SOL    HW230970   2.155   6.332   0.023  0.4699  1.1318 -0.5134
 4610SOL     OW30971   5.428   0.276   5.821  0.3949  0.1388  0.1812
 4610SOL    HW130972   5.395   0.197   5.864  1.1527 -0.7870 -0.8954
 4610SOL    HW230973   5.466   0.245   5.739  0.2018  1.6960 -0.5356
 4611SOL     OW30974   3.814   0.084   1.481 -0.3040 -0.0254 -0.8590
 4611SOL    HW130975   3.798   0.087   1.386 -1.8254 -1.2279 -0.6842
 4611SOL    HW230976   3.772   0.003   1.510  0.9657 -0.1658  0.7200
 4612SOL     OW30977   5.152   3.798   6.701 -0.1477 -0.0996  0.0697
 4612SOL    HW130978   5.080   3.790   6.763 -0.6037 -0.9717 -0.5479
 4612SOL    HW230979   5.138   3.883   6.659  0.3032  0.5995  1.3169
 4613SOL     OW30980   3.061   5.873   5.159  0.1524  0.4414  0.2352
 4613SOL    HW130981   3.111   5.793   5.177  0.3169  0.2732 -0.8929
 4613SOL    HW230982   3.114   5.920   5.095  0.6593  2.0643  1.7718
 4614SOL     OW30983   0.113   3.697   1.057 -0.0899 -0.3491  0.0602
 4614SOL    HW130984   0.104   3.620   1.113 -0.5653  0.7564  1.5722
 4614SOL    HW230985   0.207   3.713   1.053 -0.0092 -0.8635 -0.0437
 4615SOL     OW30986   3.033   2.381   1.430 -0.0525 -0.5088  0.2039
 4615SOL    HW130987   3.106   2.330   1.393 -1.5901 -2.0469 -0.9172
 4615SOL    HW230988   3.068   2.419   1.510  2.2677 -0.3572 -0.8026
 4616SOL     OW30989   4.779   6.197   6.226  0.0599 -0.2374  0.0724
 4616SOL    HW130990   4.872   6.190   6.204 -0.2841 -1.0666 -1.2072
 4616SOL    HW230991   4.770   6.146   6.307  1.0073  1.3183  1.2201
 4617SOL     OW30992   6.070   6.037   0.630 -0.3916 -0.0086 -0.1352
 4617SOL    HW130993   6.153   6.083   0.618 -2.0361  4.1101  2.0385
 4617SOL    HW230994   6.034   6.030   0.541  0.4263  2.2425 -0.7312
 4618SOL     OW30995   3.202   5.259   5.899  0.6419 -0.0842  0.0270
 4618SOL    HW130996   3.147   5.331   5.869 -1.9968 -0.7588  2.6456
 4618SOL    HW230997   3.291   5.284   5.877 -0.4221  2.6844 -1.5269
 4619SOL     OW30998   6.357   6.290   6.717  0.7125 -0.0973 -0.4791
 4619SOL    HW130999   6.265   6.311   6.702  0.7756  1.9045  1.3898
 4619SOL    HW231000   6.356   6.205   6.760 -0.3999  0.5181  0.7862
 4620SOL     OW31001   2.699   3.316   1.316 -0.4400  0.0821 -0.0988
 4620SOL    HW131002   2.703   3.268   1.399  1.3364 -0.1924 -0.3046
 4620SOL    HW231003   2.729   3.253   1.250 -0.9979  0.5656 -0.8352
 4621SOL     OW31004   1.534   3.492   0.188 -0.0145 -0.1644 -0.0635
 4621SOL    HW131005   1.490   3.441   0.120 -0.9193  0.8013 -0.2295
 4621SOL    HW231006   1.624   3.502   0.155 -0.3864  0.1133 -1.0317
 4622SOL     OW31007   0.273   4.660   6.356  0.6311 -0.1084  0.0498
 4622SOL    HW131008   0.251   4.646   6.264  1.0578 -0.6940  0.0281
 4622SOL    HW231009   0.279   4.755   6.366 -0.1401 -0.0141 -0.3549
 4623SOL     OW31010   0.294   3.901   6.681  0.2224  0.0013  0.3930
 4623SOL    HW131011   0.221   3.959   6.658 -0.3007 -0.8493 -0.1449
 4623SOL    HW231012   0.373   3.951   6.657 -0.1870  0.7251  0.5062
 4624SOL     OW31013   1.819   3.008   1.033 -0.1276  0.1539 -0.6297
 4624SOL    HW131014   1.787   3.095   1.012 -1.7318  0.0733  1.1792
 4624SOL    HW231015   1.910   3.021   1.058 -0.4755  1.4119  0.0488
 4625SOL     OW31016   2.525   4.861   5.626  0.3186 -0.0344  0.2771
 4625SOL    HW131017   2.515   4.825   5.538 -1.6454 -0.6900  0.7176
 4625SOL    HW231018   2.461   4.813   5.679  0.4419  1.3539  1.7555
 4626SOL     OW31019   1.625   1.533   0.214 -0.4627  0.3502  0.1332
 4626SOL    HW131020   1.679   1.455   0.229  0.2359  0.7935 -0.0600
 4626SOL    HW231021   1.665   1.601   0.268 -0.4645  0.8484 -0.4824
 4627SOL     OW31022   2.776   3.474   0.210  0.0347  0.4424  0.0727
 4627SOL    HW131023   2.728   3.392   0.222 -0.3762  0.7744  0.7746
 4627SOL    HW231024   2.724   3.539   0.258  0.5482  1.0411 -0.1758
 4628SOL     OW31025   3.034   4.704   5.434 -0.4654 -0.3878  0.3102
 4628SOL    HW131026   3.086   4.634   5.396 -2.0950 -0.4187 -2.0473
 4628SOL    HW231027   3.068   4.784   5.394  0.2692  0.0390  1.7115
 4629SOL     OW31028   3.654   3.852   1.228 -0.1467 -0.5580  0.2750
 4629SOL    HW131029   3.708   3.863   1.149 -0.9454  1.9516 -0.0177
 4629SOL    HW231030   3.684   3.770   1.266  2.3581 -0.3587 -1.0357
 4630SOL     OW31031   4.705   3.931   0.405  0.3639  0.2532  0.3454
 4630SOL    HW131032   4.674   4.020   0.424 -0.8680 -0.1848  0.4343
 4630SOL    HW231033   4.715   3.929   0.310  0.9496  0.6499  0.3887
 4631SOL     OW31034   5.680   3.972   6.711 -0.1079 -0.1759  0.3263
 4631SOL    HW131035   5.666   3.878   6.693  0.8813 -0.5437  1.3841
 4631SOL    HW231036   5.594   4.011   6.698 -0.0207 -0.7367 -2.8484
 4632SOL     OW31037   5.403   4.669   6.339  0.7312 -0.2741 -0.3621
 4632SOL    HW131038   5.397   4.575   6.326 -0.0101 -0.3019  0.1522
 4632SOL    HW231039   5.368   4.707   6.258  2.4578 -0.4189 -1.2141
 4633SOL     OW31040   2.729   2.421   5.895 -0.0073  0.2556  0.3105
 4633SOL    HW131041   2.705   2.444   5.805 -1.5454 -0.7125  0.4306
 4633SOL    HW231042   2.822   2.444   5.902 -0.6656  3.7548 -0.3800
 4634SOL     OW31043   5.227   2.233   0.933  0.2267  0.0448  0.5837
 4634SOL    HW131044   5.222   2.222   0.838  0.4412  1.2531  0.4094
 4634SOL    HW231045   5.255   2.324   0.944  0.4949 -0.1782  1.8021
 4635SOL     OW31046   3.388   3.761   7.267 -0.7427  0.4488 -0.0555
 4635SOL    HW131047   3.425   3.846   7.245 -1.9028  1.1566  0.6373
 4635SOL    HW231048   3.462   3.710   7.299  0.3145  0.5640 -2.1182
 4636SOL     OW31049   0.383   4.868   7.146 -0.4627  0.2692 -0.4262
 4636SOL    HW131050   0.445   4.800   7.171 -2.1485 -0.2688  2.8723
 4636SOL    HW231051   0.425   4.950   7.174  0.0963  0.2517 -1.1922
 4637SOL     OW31052   0.061   5.098   6.710 -0.0718  0.1129 -0.2557
 4637SOL    HW131053   0.009   5.142   6.642 -1.4990  0.1694  0.8136
 4637SOL    HW231054   0.002   5.093   6.786  1.7706  0.8846  1.3040
 4638SOL     OW31055   4.838   0.954   5.938  0.5070  0.1502  0.4086
 4638SOL    HW131056   4.843   1.000   5.854  0.3865 -1.1601 -0.3477
 4638SOL    HW231057   4.747   0.927   5.945  0.7174 -0.5380  0.5216
 4639SOL     OW31058   2.450   0.546   5.550  0.2112  1.0286 -0.4559
 4639SOL    HW131059   2.540   0.539   5.517 -0.0009 -1.0825 -0.7290
 4639SOL    HW231060   2.403   0.477   5.504 -1.1060  0.8108  1.1341
 4640SOL     OW31061   3.021   1.811   1.986 -0.2467  0.7820 -0.0432
 4640SOL    HW131062   2.953   1.757   2.027 -0.1325  2.5052  2.6293
 4640SOL    HW231063   2.978   1.848   1.909 -1.4702 -0.2777  0.0936
 4641SOL     OW31064   4.724   5.746   6.128 -0.5567  0.0401  0.7663
 4641SOL    HW131065   4.811   5.777   6.103 -1.0403  0.4252 -0.5282
 4641SOL    HW231066   4.682   5.823   6.167 -0.5538  0.0462  0.7569
 4642SOL     OW31067   0.086   1.876   7.260  0.3503 -0.3797  0.6948
 4642SOL    HW131068   0.042   1.818   7.198 -0.4583 -0.2873  1.1635
 4642SOL    HW231069   0.065   1.839   7.346 -1.4500  1.4394  1.0995
 4643SOL     OW31070   5.061   5.433   5.645 -0.4699 -0.1276  0.0053
 4643SOL    HW131071   5.056   5.345   5.607 -2.3010  0.0613 -0.2904
 4643SOL    HW231072   5.033   5.422   5.736 -0.0967  0.0624  0.1460
 4644SOL     OW31073   0.402   0.958   7.188 -0.4817 -0.2037  0.0335
 4644SOL    HW131074   0.400   0.939   7.281 -0.6210 -0.2241  0.0262
 4644SOL    HW231075   0.448   0.883   7.149  2.5704  1.3070  0.4588
 4645SOL     OW31076   3.143   3.675   0.335  0.0019  0.0567  0.0769
 4645SOL    HW131077   3.074   3.713   0.389  0.2868  1.5717 -0.5794
 4645SOL    HW231078   3.224   3.717   0.365  0.5502 -1.1452  0.3372
 4646SOL     OW31079   5.133   3.348   7.130  0.2675  0.4943  0.0661
 4646SOL    HW131080   5.044   3.359   7.095 -0.6026 -0.8069  1.7465
 4646SOL    HW231081   5.136   3.406   7.205  0.3641 -0.4425  0.8007
 4647SOL     OW31082   2.142   3.934   5.420  0.5084 -0.2346 -0.3247
 4647SOL    HW131083   2.230   3.946   5.457  1.0479 -2.0546 -0.9273
 4647SOL    HW231084   2.144   3.981   5.337  0.7517  0.1132 -0.1266
 4648SOL     OW31085   0.240   1.811   6.446  0.1444 -0.6800  0.1777
 4648SOL    HW131086   0.276   1.766   6.370 -0.0617  1.3410 -1.1975
 4648SOL    HW231087   0.287   1.895   6.449  0.0307 -0.6494  2.1931
 4649SOL     OW31088   4.181   0.987   7.113  0.3462 -0.1096 -0.1476
 4649SOL    HW131089   4.128   0.949   7.183  1.0582  0.7555  0.8963
 4649SOL    HW231090   4.264   0.937   7.117  0.5337  0.2041 -0.1102
 4650SOL     OW31091   5.593   4.525   1.446 -0.5182 -0.4558  0.2333
 4650SOL    HW131092   5.661   4.578   1.488  0.8247  0.7188 -3.0923
 4650SOL    HW231093   5.642   4.461   1.394 -2.0979 -2.3837  0.9811
 4651SOL     OW31094   0.075   0.221   1.482  0.6133 -0.0020 -0.4498
 4651SOL    HW131095  -0.007   0.245   1.439  0.3046  0.5941  0.4565
 4651SOL    HW231096   0.131   0.298   1.472  0.8728 -0.2038 -0.5836
 4652SOL     OW31097   6.366   6.434   2.393  0.3820 -0.1671  0.2584
 4652SOL    HW131098   6.368   6.509   2.453 -2.3421  0.3551 -0.1753
 4652SOL    HW231099   6.359   6.358   2.451  1.3113  0.0369  0.6564
 4653SOL     OW31100   3.824   5.144   5.950  0.0161 -0.0163  0.2929
 4653SOL    HW131101   3.820   5.114   6.041 -0.9283  0.3990  0.3965
 4653SOL    HW231102   3.811   5.065   5.898  0.2566 -0.2052  0.5146
 4654SOL     OW31103   0.380   1.706   0.958  0.5479  0.3597 -0.7203
 4654SOL    HW131104   0.427   1.767   1.014  2.0443 -2.9347  1.9522
 4654SOL    HW231105   0.287   1.724   0.975  0.9640  0.9904  1.1016
 4655SOL     OW31106   3.073   2.775   7.069  0.0142  0.2211 -0.1060
 4655SOL    HW131107   3.142   2.778   7.135  0.5670  0.3396 -0.6834
 4655SOL    HW231108   2.993   2.800   7.116  0.4556  0.6157  0.4372
 4656SOL     OW31109   2.026   0.150   6.911  0.0670  0.4202 -0.0751
 4656SOL    HW131110   1.964   0.135   6.982  0.2339  2.2857  0.5080
 4656SOL    HW231111   1.972   0.170   6.835 -0.0833 -0.6489 -0.2708
 4657SOL     OW31112   2.803   1.052   1.721 -0.8808  0.1036 -0.6311
 4657SOL    HW131113   2.826   1.095   1.639  1.5242 -1.0536 -0.6357
 4657SOL    HW231114   2.854   1.100   1.787 -4.3204  2.3860  0.6461
 4658SOL     OW31115   6.599   5.306   0.469  0.6369  0.6142  0.6821
 4658SOL    HW131116   6.582   5.310   0.374  3.6990 -0.7071 -0.0331
 4658SOL    HW231117   6.681   5.354   0.481  1.6681 -1.4024  2.2218
 4659SOL     OW31118   6.396   2.414   1.580 -0.1379  0.4787 -0.0977
 4659SOL    HW131119   6.408   2.493   1.527 -1.8113  0.5248 -0.4838
 4659SOL    HW231120   6.417   2.342   1.520 -3.2954  0.4621 -1.4059
 4660SOL     OW31121   5.802   3.949   5.484 -0.3690 -0.2490  0.0495
 4660SOL    HW131122   5.836   4.012   5.422  0.2408  0.5197  1.1285
 4660SOL    HW231123   5.874   3.887   5.497 -0.0478  0.2765  0.8716
 4661SOL     OW31124   5.784   1.659   5.634  0.0293  0.3546  0.1474
 4661SOL    HW131125   5.751   1.741   5.670  0.2109  0.2179  0.6301
 4661SOL    HW231126   5.823   1.613   5.709 -0.6813 -0.4869  0.0174
 4662SOL     OW31127   4.460   3.740   1.916 -0.4557  0.0431 -0.1691
 4662SOL    HW131128   4.449   3.759   2.009 -1.5178 -0.2107 -0.2316
 4662SOL    HW231129   4.384   3.687   1.893 -0.4592  0.5006 -1.2930
 4663SOL     OW31130   2.394   1.182   7.110 -0.1354  0.3278 -0.1435
 4663SOL    HW131131   2.409   1.146   7.023 -0.4010 -1.9536  0.6731
 4663SOL    HW231132   2.336   1.118   7.152 -1.4384  2.2320  1.1524
 4664SOL     OW31133   4.859   2.063   0.632 -0.4475 -0.0434  0.0466
 4664SOL    HW131134   4.917   2.067   0.556 -2.0597 -2.1536 -1.4120
 4664SOL    HW231135   4.899   1.996   0.689  0.1348  0.7021  0.5360
 4665SOL     OW31136   4.166   5.090   0.464 -0.0289 -0.0125  0.1266
 4665SOL    HW131137   4.090   5.065   0.411  0.1086  0.4231 -0.2921
 4665SOL    HW231138   4.131   5.112   0.549 -0.6603  2.0935 -0.6115
 4666SOL     OW31139   3.432   1.274   6.802 -0.4125 -0.3338  0.0186
 4666SOL    HW131140   3.337   1.266   6.807 -0.4307 -0.3713 -0.3837
 4666SOL    HW231141   3.457   1.227   6.723 -0.0272 -0.5681  0.2724
 4667SOL     OW31142   4.975   5.685   6.868  0.0492 -0.1273  0.0365
 4667SOL    HW131143   4.907   5.666   6.933 -0.9601  1.5061 -0.4981
 4667SOL    HW231144   4.929   5.728   6.796  1.6726  1.2089 -0.2704
 4668SOL     OW31145   0.395   5.158   5.673  0.4164  0.4059  0.6225
 4668SOL    HW131146   0.405   5.229   5.737  2.2995 -1.9426  3.2007
 4668SOL    HW231147   0.302   5.137   5.675  0.0327  2.0029  0.6764
 4669SOL     OW31148   3.765   4.361   1.337  0.3493  0.2509  0.1761
 4669SOL    HW131149   3.677   4.340   1.306  0.4225  0.4541 -0.1731
 4669SOL    HW231150   3.821   4.293   1.300  0.3213  0.0472  0.5052
 4670SOL     OW31151   3.799   0.835   5.450  0.1862  0.0346  0.3931
 4670SOL    HW131152   3.765   0.873   5.531  0.7635 -0.7095  0.9935
 4670SOL    HW231153   3.889   0.810   5.470  0.1068 -0.8288 -0.2543
 4671SOL     OW31154   6.561   0.855   6.842 -0.3334  0.3445  0.2384
 4671SOL    HW131155   6.569   0.780   6.784 -0.9722  0.9689 -0.6958
 4671SOL    HW231156   6.625   0.840   6.911 -0.2140 -0.8757 -0.1254
 4672SOL     OW31157   1.843   1.073   1.901  0.0253  0.5760 -0.0851
 4672SOL    HW131158   1.767   1.114   1.941  0.9381  0.6564  1.6838
 4672SOL    HW231159   1.876   1.013   1.969  0.4465 -0.8784 -1.5068
 4673SOL     OW31160   5.908   3.888   1.319 -0.3422 -0.1024  0.0028
 4673SOL    HW131161   5.987   3.849   1.357 -0.6365 -1.3272 -0.5957
 4673SOL    HW231162   5.921   3.882   1.225 -0.3578  1.3943 -0.1246
 4674SOL     OW31163   1.098   6.486   6.238  0.1218  0.2110  0.0361
 4674SOL    HW131164   1.167   6.546   6.266  0.2566 -0.3338  0.8985
 4674SOL    HW231165   1.117   6.469   6.145 -0.4767  2.2357 -0.5088
 4675SOL     OW31166   6.066   0.857   0.104  0.4913  0.3890  0.4310
 4675SOL    HW131167   5.992   0.818   0.151 -0.2724  0.4338 -0.7042
 4675SOL    HW231168   6.066   0.949   0.131 -0.6585  0.6829 -0.5107
 4676SOL     OW31169   5.644   0.886   0.892 -0.0878  0.9370 -0.2790
 4676SOL    HW131170   5.625   0.874   0.799  0.2935  0.1293 -0.2642
 4676SOL    HW231171   5.610   0.807   0.933  0.9663  0.6634  0.0847
 4677SOL     OW31172   5.196   2.352   6.684  0.0499  0.2911  0.4793
 4677SOL    HW131173   5.221   2.331   6.594 -1.2920 -0.3197  0.2249
 4677SOL    HW231174   5.104   2.377   6.678  0.0572  0.6629  1.6343
 4678SOL     OW31175   0.324   1.772   6.729 -0.9396  0.0798  0.8688
 4678SOL    HW131176   0.303   1.850   6.678  0.6237 -0.1602 -0.1947
 4678SOL    HW231177   0.330   1.702   6.664  0.9647 -0.2647  1.3582
 4679SOL     OW31178   3.392   4.736   4.424 -0.1417 -0.8944  0.3908
 4679SOL    HW131179   3.415   4.779   4.341 -0.0219  0.1242  0.9308
 4679SOL    HW231180   3.302   4.765   4.441  0.9730  1.8065  2.3334
 4680SOL     OW31181   1.773   4.308   0.057 -0.2338  0.2636 -0.2789
 4680SOL    HW131182   1.754   4.254   0.134 -0.6391 -0.1639 -0.6650
 4680SOL    HW231183   1.846   4.363   0.083 -0.6595  0.4434  0.5649
 4681SOL     OW31184   0.818   0.664   0.405  0.5512  0.5483 -0.0344
 4681SOL    HW131185   0.751   0.616   0.356  1.8391 -1.5277  0.0840
 4681SOL    HW231186   0.834   0.743   0.353  0.8050 -0.8483 -2.2177
 4682SOL     OW31187   1.957   1.086   5.453 -0.1055 -0.4025 -0.1654
 4682SOL    HW131188   1.968   1.174   5.489 -2.4029 -0.7270  1.5955
 4682SOL    HW231189   2.045   1.058   5.430  0.8718  1.7898  0.6025
 4683SOL     OW31190   3.047   1.320   6.061  0.3129  0.1226  0.3905
 4683SOL    HW131191   2.961   1.330   6.103  0.8806  2.4116  1.1584
 4683SOL    HW231192   3.038   1.365   5.977  0.5833 -0.2505  0.1559
 4684SOL     OW31193   4.350   5.404   0.811 -0.4299  0.0243  0.5469
 4684SOL    HW131194   4.376   5.493   0.785 -2.5446  0.4064 -0.4296
 4684SOL    HW231195   4.272   5.416   0.865 -0.3656 -1.2299  0.9632
 4685SOL     OW31196   4.106   4.389   7.306 -0.1003 -0.8041 -0.1295
 4685SOL    HW131197   4.021   4.373   7.265  0.4068  1.5381 -2.3853
 4685SOL    HW231198   4.145   4.459   7.253  1.9968  0.2818  2.6175
 4686SOL     OW31199   3.278   3.070   6.781  0.3218  0.1619  0.0014
 4686SOL    HW131200   3.292   3.138   6.716 -1.5806 -0.9980 -1.7026
 4686SOL    HW231201   3.326   2.994   6.747  2.6265  0.5935  1.9960
 4687SOL     OW31202   6.274   4.575   6.379 -0.1409 -0.3081  0.0591
 4687SOL    HW131203   6.240   4.591   6.467 -1.3613 -1.4016 -0.1780
 4687SOL    HW231204   6.368   4.588   6.387 -0.1578 -0.8571  1.6487
 4688SOL     OW31205   5.846   2.291   7.433  0.2442 -0.4709 -0.3148
 4688SOL    HW131206   5.903   2.352   7.479  0.2974 -0.0675 -0.8974
 4688SOL    HW231207   5.872   2.205   7.464  0.2950 -0.2099  0.3805
 4689SOL     OW31208   4.014   1.507   1.489 -0.3775 -0.4248 -0.1150
 4689SOL    HW131209   4.108   1.495   1.477 -0.3199  0.4543 -0.5920
 4689SOL    HW231210   3.985   1.425   1.529  0.5913 -0.6945  0.0671
 4690SOL     OW31211   5.989   5.846   6.573 -0.6532  0.4302  0.5044
 4690SOL    HW131212   5.897   5.849   6.548 -0.8406 -2.7092  0.3839
 4690SOL    HW231213   6.019   5.760   6.543  2.0001  0.8592  1.6366
 4691SOL     OW31214   0.725   4.006   6.494 -0.3344  0.3646 -0.0479
 4691SOL    HW131215   0.655   4.060   6.456  0.7422  2.8255  1.2854
 4691SOL    HW231216   0.678   3.938   6.543 -2.0212  3.3322  2.8267
 4692SOL     OW31217   0.630   3.442   7.324 -0.2259 -0.2904 -0.1821
 4692SOL    HW131218   0.593   3.524   7.356 -1.1624 -0.3347 -1.0717
 4692SOL    HW231219   0.670   3.465   7.240  1.8505 -0.2445  0.7755
 4693SOL     OW31220   3.618   2.503   6.933  0.1728  0.5015 -0.8109
 4693SOL    HW131221   3.712   2.503   6.950  0.0012  1.6536  0.2342
 4693SOL    HW231222   3.612   2.512   6.838  1.1126 -0.1291 -0.9500
 4694SOL     OW31223   2.620   4.075   1.634 -0.1002 -0.1453 -0.0159
 4694SOL    HW131224   2.663   3.990   1.646 -0.5003 -0.4369 -0.5840
 4694SOL    HW231225   2.599   4.077   1.540 -0.4428  0.4153  0.0733
 4695SOL     OW31226   4.094   1.623   6.692 -0.7220  0.5222  0.0609
 4695SOL    HW131227   4.105   1.630   6.597  1.4206 -1.6119  0.0415
 4695SOL    HW231228   4.147   1.695   6.727 -0.4903  0.5637 -0.3626
 4696SOL     OW31229   2.881   6.066   1.884  0.0407  0.1646  0.0827
 4696SOL    HW131230   2.827   6.122   1.939 -0.5662 -0.9097  0.6096
 4696SOL    HW231231   2.840   5.980   1.889  0.3557 -0.1148 -1.5208
 4697SOL     OW31232   5.798   6.204   7.021 -0.5392  0.2801 -0.1336
 4697SOL    HW131233   5.750   6.258   7.084 -0.9827 -0.3669  0.1006
 4697SOL    HW231234   5.734   6.185   6.952 -0.3342  0.2018 -0.3031
 4698SOL     OW31235   3.761   6.015   6.618 -0.2773  0.1376  0.2316
 4698SOL    HW131236   3.814   6.054   6.687 -0.6141  0.0725  0.5281
 4698SOL    HW231237   3.697   5.961   6.664 -0.8088  0.4708 -0.1092
 4699SOL     OW31238   4.715   5.204   0.765  0.2908 -0.1172 -0.2125
 4699SOL    HW131239   4.722   5.160   0.680 -0.7654  0.4054 -0.5945
 4699SOL    HW231240   4.687   5.135   0.826  1.5798 -0.6117 -0.1571
 4700SOL     OW31241   1.552   5.059   7.291  0.0169 -0.1791  0.2535
 4700SOL    HW131242   1.574   5.082   7.382 -0.6992 -1.2883  0.7333
 4700SOL    HW231243   1.497   5.130   7.261 -0.7223 -0.3758  1.1021
 4701SOL     OW31244   1.697   5.429   7.432 -0.1754  0.1513  0.3435
 4701SOL    HW131245   1.680   5.480   7.353 -1.1029 -0.1087  0.3530
 4701SOL    HW231246   1.771   5.473   7.474  0.9130 -0.2238 -1.0967
 4702SOL     OW31247   1.181   4.648   0.864 -0.4403  0.6415 -0.3666
 4702SOL    HW131248   1.252   4.584   0.858  0.5056  1.5918  0.3349
 4702SOL    HW231249   1.225   4.733   0.853 -0.9946  1.4666  2.8913
 4703SOL     OW31250   4.360   0.914   6.357 -0.3350  0.1149 -0.1294
 4703SOL    HW131251   4.421   0.969   6.407 -0.4482  0.4321 -0.3412
 4703SOL    HW231252   4.330   0.848   6.421  0.3524 -0.1481 -0.0613
 4704SOL     OW31253   5.875   0.331   6.390  0.1894  0.2298  0.3869
 4704SOL    HW131254   5.793   0.327   6.341  0.1907 -1.8632  0.4779
 4704SOL    HW231255   5.850   0.313   6.481  0.7640 -0.7533  0.3641
 4705SOL     OW31256   1.006   0.293   1.579  0.7453  0.1519  0.1266
 4705SOL    HW131257   0.941   0.229   1.607  0.8990  0.1007  0.3705
 4705SOL    HW231258   0.956   0.356   1.527  0.4746  0.1802  0.4115
 4706SOL     OW31259   5.004   4.522   1.614  0.2741  0.6663  0.0409
 4706SOL    HW131260   5.061   4.583   1.661 -1.6444  1.4314  1.5197
 4706SOL    HW231261   5.031   4.530   1.522  3.3921 -0.0547  0.8072
 4707SOL     OW31262   0.886   4.346   0.637  0.6549 -0.2754  0.1791
 4707SOL    HW131263   0.978   4.322   0.625  1.1855  1.7259 -0.2220
 4707SOL    HW231264   0.837   4.270   0.605  2.1691 -0.6921 -1.3253
 4708SOL     OW31265   0.626   2.633   6.267 -0.9700 -0.7507  0.2756
 4708SOL    HW131266   0.584   2.651   6.183 -0.2148  0.7239  0.1813
 4708SOL    HW231267   0.570   2.568   6.309 -3.0149  0.7149 -0.0884
 4709SOL     OW31268   5.838   4.357   1.599  0.4455  0.2416 -0.5483
 4709SOL    HW131269   5.821   4.449   1.617 -0.5608  0.2990 -1.6329
 4709SOL    HW231270   5.908   4.332   1.660  0.4253  1.5952  0.0511
 4710SOL     OW31271   2.926   2.916   0.470  0.4592 -0.1279  0.6681
 4710SOL    HW131272   2.918   2.857   0.545  0.4107  1.9692  2.4129
 4710SOL    HW231273   2.836   2.935   0.445  0.2460  2.2708  2.7772
 4711SOL     OW31274   3.878   1.435   5.529  0.0184 -0.0988 -0.1936
 4711SOL    HW131275   3.885   1.512   5.585 -0.0764 -0.1623 -0.0930
 4711SOL    HW231276   3.860   1.470   5.442 -0.3515 -0.0217 -0.0869
 4712SOL     OW31277   4.345   2.338   0.157  0.0209  0.2212 -0.4237
 4712SOL    HW131278   4.398   2.390   0.218  0.2785 -0.9075  0.3293
 4712SOL    HW231279   4.317   2.401   0.090 -0.3431  1.5175  0.8951
 4713SOL     OW31280   3.499   2.107   1.229 -0.0015  0.1423  0.2138
 4713SOL    HW131281   3.410   2.083   1.201  0.1519  0.9384 -0.9902
 4713SOL    HW231282   3.556   2.058   1.170  0.3259  2.8218 -1.8570
 4714SOL     OW31283   6.488   4.484   6.936  0.3894  0.2263 -0.3642
 4714SOL    HW131284   6.516   4.568   6.900 -0.3490  0.1852 -1.0565
 4714SOL    HW231285   6.569   4.434   6.945  0.6205  0.3152 -1.7937
 4715SOL     OW31286   2.563   3.914   1.358 -0.6090 -0.1942  0.1811
 4715SOL    HW131287   2.552   3.878   1.270 -1.0446 -0.3065  0.2754
 4715SOL    HW231288   2.532   3.844   1.416 -0.2813 -0.1391  0.4250
 4716SOL     OW31289   4.714   4.747   7.234  0.4106 -0.6082 -0.0486
 4716SOL    HW131290   4.742   4.730   7.324 -0.2575 -0.8197  0.1215
 4716SOL    HW231291   4.699   4.661   7.196 -1.3530 -0.4779  0.2974
 4717SOL     OW31292   2.576   4.599   1.479 -0.0444 -0.1949 -0.3790
 4717SOL    HW131293   2.660   4.641   1.501 -0.6281  1.3648 -0.9437
 4717SOL    HW231294   2.510   4.662   1.507 -0.9300 -0.0882 -2.4846
 4718SOL     OW31295   2.207   3.732   5.664  0.1665  0.0466  0.2158
 4718SOL    HW131296   2.119   3.724   5.627 -0.9760  0.5010  2.6380
 4718SOL    HW231297   2.257   3.778   5.597 -1.3829 -0.3051 -1.2677
 4719SOL     OW31298   1.676   4.569   6.484 -0.3923  0.5265 -0.4510
 4719SOL    HW131299   1.600   4.619   6.515 -1.5360 -0.5648 -1.3409
 4719SOL    HW231300   1.664   4.564   6.389  0.8342  0.3729 -0.6144
 4720SOL     OW31301   5.859   0.757   7.393  0.2339  0.2339  0.1534
 4720SOL    HW131302   5.928   0.707   7.350 -0.7472 -0.6679 -0.4286
 4720SOL    HW231303   5.904   0.808   7.460  1.9917  2.4746 -2.5181
 4721SOL     OW31304   5.289   5.457   1.474 -0.1669  0.4306 -0.5228
 4721SOL    HW131305   5.232   5.532   1.453 -0.9553 -0.1579 -0.5208
 4721SOL    HW231306   5.246   5.382   1.433  0.5856 -0.0351 -0.4647
 4722SOL     OW31307   5.966   2.560   6.533 -0.4703 -0.4635  0.4912
 4722SOL    HW131308   5.922   2.644   6.515 -1.9405 -1.4429 -0.7089
 4722SOL    HW231309   5.947   2.543   6.625  0.5035  0.8643  0.9773
 4723SOL     OW31310   3.238   1.426   1.209  0.1198  0.3293 -0.6727
 4723SOL    HW131311   3.322   1.383   1.195 -1.5060 -2.8612 -1.5880
 4723SOL    HW231312   3.212   1.457   1.122  0.5634  1.9132 -0.2814
 4724SOL     OW31313   6.014   2.729   7.028 -0.2252  0.7406  0.0302
 4724SOL    HW131314   5.919   2.718   7.037 -0.3080  0.9028 -0.6391
 4724SOL    HW231315   6.050   2.672   7.097 -0.8004  0.5607  0.1939
 4725SOL     OW31316   2.614   6.413   1.909 -0.0206  0.5635 -0.3681
 4725SOL    HW131317   2.663   6.495   1.916 -0.1205  0.4924  2.2924
 4725SOL    HW231318   2.522   6.440   1.904  0.0113  0.6235 -0.6431
 4726SOL     OW31319   6.500   4.149   1.177 -0.0689 -0.3080 -0.1788
 4726SOL    HW131320   6.503   4.243   1.198  0.9118  0.2754 -2.5645
 4726SOL    HW231321   6.426   4.116   1.228 -0.1271  1.6486  1.1302
 4727SOL     OW31322   2.275   6.600   7.416 -0.6091 -0.1407 -0.7090
 4727SOL    HW131323   2.343   6.660   7.384  1.1267 -1.4745  0.2523
 4727SOL    HW231324   2.205   6.657   7.447 -0.7225  1.2714 -3.2316
 4728SOL     OW31325   5.753   1.060   7.090  0.5711 -0.1289 -0.2151
 4728SOL    HW131326   5.695   1.067   7.014 -1.1396 -0.3074  1.0134
 4728SOL    HW231327   5.720   1.126   7.151  2.9351  1.1640 -0.2076
 4729SOL     OW31328   3.958   6.385   1.450 -0.1460  0.3144 -0.2472
 4729SOL    HW131329   3.900   6.309   1.453  1.4628 -1.0422 -1.6112
 4729SOL    HW231330   3.979   6.403   1.542 -0.5292 -0.9129  0.0949
 4730SOL     OW31331   2.743   0.503   7.175 -0.4037 -0.2331  0.2186
 4730SOL    HW131332   2.668   0.478   7.121 -0.6266 -0.7744  0.7638
 4730SOL    HW231333   2.806   0.539   7.113 -0.9547 -0.1341 -0.3002
 4731SOL     OW31334   2.811   0.062   5.039  0.3017  0.4112  0.4994
 4731SOL    HW131335   2.835   0.015   4.959 -0.5049 -2.6830  1.9394
 4731SOL    HW231336   2.893   0.069   5.088  0.3409  0.0366  0.4888
 4732SOL     OW31337   3.632   5.406   6.768 -0.3727  0.1011  0.1561
 4732SOL    HW131338   3.579   5.438   6.841 -0.9639 -1.4266  0.4408
 4732SOL    HW231339   3.581   5.427   6.690 -0.9163 -0.4108  0.3611
 4733SOL     OW31340   2.282   6.345   7.023  1.1630  0.3874  0.4833
 4733SOL    HW131341   2.377   6.356   7.016  1.5869 -2.8182 -0.3096
 4733SOL    HW231342   2.259   6.287   6.951 -1.4002  0.8979  0.7923
 4734SOL     OW31343   3.989   4.479   0.749  0.9188 -0.3124 -0.6008
 4734SOL    HW131344   4.001   4.501   0.656  1.4441 -0.5066 -0.5847
 4734SOL    HW231345   3.971   4.385   0.749  1.5146 -0.4286 -0.4646
 4735SOL     OW31346   3.559   4.876   0.866  0.0830  0.1992 -0.7317
 4735SOL    HW131347   3.492   4.944   0.877  0.6496  0.7722 -0.7898
 4735SOL    HW231348   3.592   4.860   0.954  0.0623  0.1123 -0.7395
 4736SOL     OW31349   6.352   0.306   1.004 -0.0942  0.1997  0.2410
 4736SOL    HW131350   6.293   0.346   0.940 -0.2109 -0.0975  0.1605
 4736SOL    HW231351   6.330   0.350   1.087 -0.3260  0.1940  0.1835
 4737SOL     OW31352   4.036   1.509   2.260 -0.1001  0.4713 -0.1522
 4737SOL    HW131353   3.979   1.568   2.309 -0.6633  1.1165 -1.5480
 4737SOL    HW231354   4.096   1.567   2.213  1.1553 -0.1734  0.6024
 4738SOL     OW31355   0.574   1.211   0.156 -0.0820 -0.5786 -0.4862
 4738SOL    HW131356   0.492   1.248   0.189  0.4300  0.6232 -0.5154
 4738SOL    HW231357   0.620   1.182   0.235  0.9710  1.9403 -0.0889
 4739SOL     OW31358   3.140   5.033   5.750  0.3381  0.1046  0.1067
 4739SOL    HW131359   3.055   5.075   5.739  0.3794  0.1193 -0.1673
 4739SOL    HW231360   3.179   5.077   5.825 -1.3770 -2.3202  2.6153
 4740SOL     OW31361   3.498   0.755   4.717  0.1898  0.3785  0.6648
 4740SOL    HW131362   3.442   0.772   4.792  1.0460  1.0874  1.1667
 4740SOL    HW231363   3.538   0.840   4.697  0.3709  0.0840 -0.2602
 4741SOL     OW31364   3.762   3.625   0.814  0.2196  0.2656  0.6806
 4741SOL    HW131365   3.830   3.602   0.750 -0.4380  2.5435 -0.9595
 4741SOL    HW231366   3.681   3.591   0.777  0.1135 -0.2570  1.3814
 4742SOL     OW31367   2.102   3.433   5.734  0.3301  0.1919  0.0991
 4742SOL    HW131368   2.095   3.520   5.773 -1.0506  0.1267  0.0579
 4742SOL    HW231369   2.051   3.438   5.654 -0.6883 -0.9280  0.6378
 4743SOL     OW31370   1.636   2.926   7.301  0.0775 -0.6692  0.6587
 4743SOL    HW131371   1.722   2.892   7.325  0.6354  0.1297 -0.1527
 4743SOL    HW231372   1.630   3.012   7.343 -0.9822 -1.3705  2.0081
 4744SOL     OW31373   5.466   6.013   0.564 -0.5178 -0.6184 -0.9118
 4744SOL    HW131374   5.381   5.989   0.527 -1.5932  0.4161  0.7967
 4744SOL    HW231375   5.476   5.956   0.640 -1.1115  1.2730  0.6462
 4745SOL     OW31376   4.613   1.805   0.088  0.5605 -0.6154  0.8277
 4745SOL    HW131377   4.648   1.878   0.037  1.4431 -0.7303  1.2640
 4745SOL    HW231378   4.689   1.754   0.114 -0.0615 -1.8451  0.3161
 4746SOL     OW31379   1.169   0.146   6.000  0.0675 -0.2189 -0.2265
 4746SOL    HW131380   1.136   0.235   6.013 -0.8443 -0.7990  2.0451
 4746SOL    HW231381   1.260   0.149   6.030 -0.2262 -0.1975  0.7130
 4747SOL     OW31382   1.525   0.113   0.008  0.2225  0.3811 -0.1188
 4747SOL    HW131383   1.537   0.026  -0.030  1.8411  0.6096 -0.1990
 4747SOL    HW231384   1.522   0.097   0.103  1.5072  0.3065 -0.0734
 4748SOL     OW31385   1.921   6.250   7.161  0.4270 -0.1673 -0.5414
 4748SOL    HW131386   1.951   6.199   7.086  1.4571  0.1951 -0.3934
 4748SOL    HW231387   1.826   6.251   7.153  0.5312  0.3324 -2.1651
 4749SOL     OW31388   1.089   1.768   5.961  0.2469  0.0734 -0.1533
 4749SOL    HW131389   1.094   1.818   5.879  1.3777 -0.7237 -0.5982
 4749SOL    HW231390   1.178   1.769   5.995  0.2244 -1.3232  0.0048
 4750SOL     OW31391   6.270   6.580   7.205  0.1561  0.0541  0.2493
 4750SOL    HW131392   6.332   6.515   7.171  1.0370  2.0711 -2.3981
 4750SOL    HW231393   6.188   6.562   7.159 -0.1111 -0.2725  0.8537
 4751SOL     OW31394   5.741   4.931   1.631  0.2477 -0.5373 -0.4981
 4751SOL    HW131395   5.790   4.921   1.549  1.8961 -0.3688  0.4147
 4751SOL    HW231396   5.747   5.024   1.652 -1.4619 -0.2964 -0.9116
 4752SOL     OW31397   0.875   0.252   5.404  0.1521 -0.3675 -0.1622
 4752SOL    HW131398   0.802   0.286   5.455  0.6944 -1.3630  1.3400
 4752SOL    HW231399   0.922   0.330   5.373 -0.2956  0.2662  0.7189
 4753SOL     OW31400   1.527   3.703   0.726 -0.2580 -0.2393  0.4197
 4753SOL    HW131401   1.437   3.670   0.725 -0.1922 -0.4018 -0.3740
 4753SOL    HW231402   1.517   3.798   0.731 -0.4761 -0.2522  0.2540
 4754SOL     OW31403   5.991   6.158   7.351 -0.1607 -0.6014  0.4877
 4754SOL    HW131404   5.997   6.249   7.322 -0.8326 -0.9592 -0.8923
 4754SOL    HW231405   5.926   6.160   7.422  2.9824  0.6037  3.6039
 4755SOL     OW31406   4.186   1.284   2.346 -0.0518  0.1863  0.1851
 4755SOL    HW131407   4.178   1.303   2.440 -0.5642 -2.9791  0.8853
 4755SOL    HW231408   4.130   1.350   2.304  0.4873  1.9246  2.0098
 4756SOL     OW31409   4.592   3.280   7.380 -0.3859  0.7943  0.0499
 4756SOL    HW131410   4.568   3.314   7.466  0.4671  0.5973  0.3807
 4756SOL    HW231411   4.627   3.356   7.333 -2.0763  1.1899 -0.6113
 4757SOL     OW31412   0.193   3.392   0.516  0.4763  0.2690  0.1192
 4757SOL    HW131413   0.169   3.314   0.465  0.0963  1.0291 -0.8774
 4757SOL    HW231414   0.110   3.423   0.553  0.5658  0.4491  0.1694
 4758SOL     OW31415   4.357   1.462   7.243 -0.2689  0.1389  0.3224
 4758SOL    HW131416   4.380   1.395   7.308 -0.1943 -0.7501 -0.6125
 4758SOL    HW231417   4.283   1.508   7.282 -1.5636 -1.7265  0.1660
 4759SOL     OW31418   5.491   5.307   5.179  0.4004  0.1911 -0.3176
 4759SOL    HW131419   5.541   5.305   5.097 -0.5439 -2.9002 -0.9563
 4759SOL    HW231420   5.546   5.261   5.242  0.5714  1.4490  0.4908
 4760SOL     OW31421   4.807   2.130   0.949 -0.6357 -0.3372 -0.0807
 4760SOL    HW131422   4.772   2.177   0.874  2.2620  0.0330 -1.3687
 4760SOL    HW231423   4.893   2.098   0.919  1.9053  2.0295  3.7421
 4761SOL     OW31424   5.521   1.347   6.561 -0.2612  0.2411 -0.1835
 4761SOL    HW131425   5.540   1.382   6.474 -0.1863 -0.7285 -0.5677
 4761SOL    HW231426   5.525   1.252   6.550 -0.8415  0.0967  0.7473
 4762SOL     OW31427   4.857   5.676   0.924  0.6297 -0.1726 -0.5238
 4762SOL    HW131428   4.803   5.598   0.917 -0.8917  0.9960 -3.4742
 4762SOL    HW231429   4.923   5.666   0.856  0.4759  1.0050 -0.8751
 4763SOL     OW31430   4.346   3.760   0.698  0.5146 -0.3202 -0.3554
 4763SOL    HW131431   4.353   3.851   0.728 -1.0301 -0.0192 -0.8277
 4763SOL    HW231432   4.384   3.760   0.611  2.1610 -0.5382  0.3232
 4764SOL     OW31433   5.836   0.210   1.574  0.2566  0.5311  0.2054
 4764SOL    HW131434   5.774   0.164   1.630 -0.6045  0.4787 -0.7536
 4764SOL    HW231435   5.787   0.286   1.542  0.2181 -0.1936 -1.5904
 4765SOL     OW31436   2.492   4.357   6.311 -0.0795  0.2408 -1.2241
 4765SOL    HW131437   2.513   4.275   6.356 -0.2561  2.0200  2.4076
 4765SOL    HW231438   2.567   4.372   6.253  1.6248 -0.8061  0.5837
 4766SOL     OW31439   1.809   1.124   0.558 -0.5722  0.4195  0.1560
 4766SOL    HW131440   1.744   1.055   0.543 -0.7221 -0.0510  2.6332
 4766SOL    HW231441   1.764   1.190   0.610  0.4594  0.8583  0.5260
 4767SOL     OW31442   5.118   2.357   2.477  0.2479  0.3947 -0.3373
 4767SOL    HW131443   5.122   2.270   2.518 -0.1896  0.6671  0.2863
 4767SOL    HW231444   5.060   2.346   2.402  0.1486  0.1634 -0.2261
 4768SOL     OW31445   5.033   4.113   1.122  0.0796 -0.4709 -0.4745
 4768SOL    HW131446   5.102   4.178   1.121 -0.9138  0.6475  0.4141
 4768SOL    HW231447   4.985   4.130   1.203 -2.7010  0.4111 -2.1767
 4769SOL     OW31448   4.299   3.831   5.727  0.6461 -0.1552  0.4144
 4769SOL    HW131449   4.385   3.796   5.707  0.7190  0.2166  0.0852
 4769SOL    HW231450   4.315   3.902   5.790  0.6076  0.1090  0.1274
 4770SOL     OW31451   2.954   2.523   1.203  0.8390 -0.3735 -0.0287
 4770SOL    HW131452   2.920   2.612   1.212 -0.4915 -1.0051  1.9005
 4770SOL    HW231453   2.997   2.505   1.287  1.5275 -1.3761 -0.5764
 4771SOL     OW31454   2.017   2.602   1.160  0.1416  0.0855 -0.2474
 4771SOL    HW131455   2.045   2.689   1.132 -1.3205  0.6687 -0.0294
 4771SOL    HW231456   1.929   2.592   1.123 -0.3892 -0.5945  1.1222
 4772SOL     OW31457   1.125   3.265   1.688  0.1818  0.0133 -0.4434
 4772SOL    HW131458   1.103   3.244   1.779  0.9725  1.9215  0.2348
 4772SOL    HW231459   1.047   3.309   1.654  0.0262 -0.3658 -0.5861
 4773SOL     OW31460   1.785   2.678   0.252 -0.1809 -0.3924 -0.4871
 4773SOL    HW131461   1.729   2.601   0.244 -2.7530  1.3454 -0.4425
 4773SOL    HW231462   1.786   2.697   0.346  1.9141 -1.3009 -0.2631
 4774SOL     OW31463   4.063   0.147   1.260 -0.2058  1.1787  0.1404
 4774SOL    HW131464   4.096   0.234   1.237 -0.3646  0.6995 -2.1384
 4774SOL    HW231465   3.983   0.137   1.208  1.3454 -1.4129 -1.9966
 4775SOL     OW31466   3.961   2.047   6.761  0.3766  0.1051 -0.1814
 4775SOL    HW131467   3.899   1.981   6.731 -1.1384  1.4435 -0.1641
 4775SOL    HW231468   3.917   2.131   6.744  3.0136  1.2514 -2.0293
 4776SOL     OW31469   5.502   0.234   5.527  0.2707 -0.3647  0.1094
 4776SOL    HW131470   5.567   0.302   5.510  0.1000 -0.3446 -0.4634
 4776SOL    HW231471   5.422   0.266   5.486  0.7814 -2.0056 -2.3823
 4777SOL     OW31472   0.428   3.551   7.041 -0.6846 -0.5627 -0.1645
 4777SOL    HW131473   0.513   3.590   7.063 -1.0864  0.0163  0.3750
 4777SOL    HW231474   0.428   3.467   7.087 -0.1931 -0.8045 -0.5914
 4778SOL     OW31475   3.348   4.207   0.919  0.4544  0.2247 -0.0203
 4778SOL    HW131476   3.337   4.192   1.013  1.0956 -0.1957 -0.0117
 4778SOL    HW231477   3.443   4.212   0.906  0.4064 -0.6100 -0.7791
 4779SOL     OW31478   4.462   0.189   0.051  0.1537  0.4526  0.0688
 4779SOL    HW131479   4.518   0.120   0.015  0.1667  0.6874 -0.3761
 4779SOL    HW231480   4.453   0.168   0.143 -0.0128 -0.2591 -0.1077
 4780SOL     OW31481   6.592   0.023   5.840  0.2617 -0.4586  0.0747
 4780SOL    HW131482   6.575  -0.005   5.930 -1.1259  0.1935  0.0428
 4780SOL    HW231483   6.552  -0.044   5.785 -0.7549  0.2010 -0.0198
 4781SOL     OW31484   0.005   0.493   1.069 -0.3178  0.7431 -0.0289
 4781SOL    HW131485  -0.013   0.478   0.977 -0.8386  1.1150  0.0126
 4781SOL    HW231486  -0.012   0.586   1.083  1.5429  1.1236  0.0325
 4782SOL     OW31487   0.739   6.599   5.799  0.1157  0.0721 -0.0020
 4782SOL    HW131488   0.779   6.573   5.717 -0.6730 -2.6968  0.3795
 4782SOL    HW231489   0.810   6.596   5.863 -0.0182 -1.7831  0.1087
 4783SOL     OW31490   1.109   5.659   7.451 -0.2431 -0.2688 -0.3308
 4783SOL    HW131491   1.144   5.742   7.483  1.6479 -1.0244 -0.3136
 4783SOL    HW231492   1.104   5.604   7.530 -2.0167 -0.0265 -0.2440
 4784SOL     OW31493   1.265   5.674   6.938  0.4701  0.0158  0.4559
 4784SOL    HW131494   1.300   5.704   6.854  2.2587  1.5373  1.6674
 4784SOL    HW231495   1.181   5.719   6.947  0.1459 -0.3591 -0.6068
 4785SOL     OW31496   2.681   1.625   6.513  0.8604 -0.2282  0.1946
 4785SOL    HW131497   2.617   1.693   6.494 -0.4847 -1.3772  0.4145
 4785SOL    HW231498   2.729   1.614   6.431 -1.4212 -1.5498 -1.0889
 4786SOL     OW31499   3.488   0.556   6.419 -0.0014  0.4013 -0.1866
 4786SOL    HW131500   3.411   0.581   6.469 -1.7228 -1.0163 -1.9772
 4786SOL    HW231501   3.491   0.460   6.426 -1.1111 -0.0381 -3.6953
 4787SOL     OW31502   1.610   2.700   1.518  0.1091  0.1617  0.6042
 4787SOL    HW131503   1.527   2.690   1.470 -0.7055  0.4303  1.9243
 4787SOL    HW231504   1.595   2.655   1.601  0.6892  1.6729  1.5604
 4788SOL     OW31505   1.502   5.736   1.006  0.1139  0.3900 -0.0368
 4788SOL    HW131506   1.573   5.775   0.955 -0.7353  2.3832  0.1997
 4788SOL    HW231507   1.495   5.792   1.083 -1.7825  0.3376 -0.1218
 4789SOL     OW31508   2.378   4.552   5.579  0.1754  0.0006 -0.5786
 4789SOL    HW131509   2.443   4.535   5.647 -1.0968 -0.3893  0.5726
 4789SOL    HW231510   2.425   4.606   5.514  2.0573 -1.4591 -0.5177
 4790SOL     OW31511   0.873   0.340   6.084 -0.0897 -0.0540  0.7406
 4790SOL    HW131512   0.965   0.355   6.106  0.1130  1.0336 -0.6437
 4790SOL    HW231513   0.876   0.286   6.005 -0.7402 -2.2598  2.1269
 4791SOL     OW31514   3.491   1.652   6.979  0.4373 -0.2258 -0.1956
 4791SOL    HW131515   3.581   1.679   6.963  0.2989  1.3352  1.3470
 4791SOL    HW231516   3.438   1.707   6.920  0.3137  1.3840  1.3290
 4792SOL     OW31517   3.349   3.498   7.365 -0.5068 -0.4062 -0.0510
 4792SOL    HW131518   3.302   3.575   7.331 -0.8644 -1.2610 -1.6154
 4792SOL    HW231519   3.347   3.509   7.460 -1.0862  1.2035 -0.2078
 4793SOL     OW31520   0.837   3.279   5.742 -0.1008 -0.2586  0.0056
 4793SOL    HW131521   0.838   3.294   5.648  2.5430  0.1094  0.0038
 4793SOL    HW231522   0.817   3.186   5.751  0.9985 -0.6340 -1.0445
 4794SOL     OW31523   5.575   5.219   6.549  0.0479  0.7809  1.0895
 4794SOL    HW131524   5.616   5.139   6.517  1.3885  1.6997  0.4173
 4794SOL    HW231525   5.488   5.191   6.580 -0.5719 -0.5049 -1.5514
 4795SOL     OW31526   0.066   2.796   6.382 -0.0918 -0.5830  0.3039
 4795SOL    HW131527   0.033   2.731   6.444  1.1251 -1.3524  0.1887
 4795SOL    HW231528   0.147   2.828   6.422 -1.5870  2.3389  1.3112
 4796SOL     OW31529   3.303   6.515   2.235 -0.3379 -0.3000 -0.1704
 4796SOL    HW131530   3.313   6.576   2.308  1.4276 -0.2478 -0.4198
 4796SOL    HW231531   3.246   6.447   2.269 -0.3820  0.2544  0.9132
 4797SOL     OW31532   4.381   1.065   1.972 -0.6812  0.3321 -0.1547
 4797SOL    HW131533   4.415   1.048   1.884  1.9982  0.6009  0.7120
 4797SOL    HW231534   4.455   1.044   2.030 -2.5877 -0.5397  2.1012
 4798SOL     OW31535   4.524   5.711   0.685  0.2064 -0.1849  0.1934
 4798SOL    HW131536   4.500   5.685   0.774 -0.6680 -0.7250 -0.1885
 4798SOL    HW231537   4.529   5.807   0.689 -1.8909 -0.0452  0.3527
 4799SOL     OW31538   3.215   5.934   1.648  0.1462  0.8425  0.0800
 4799SOL    HW131539   3.203   5.892   1.733  0.5226 -0.1684 -0.3557
 4799SOL    HW231540   3.146   6.000   1.644 -1.4084 -0.7034  0.1738
 4800SOL     OW31541   3.459   0.969   7.472  0.0434  0.4940 -0.0495
 4800SOL    HW131542   3.442   1.058   7.441  1.5276  0.0702 -2.3432
 4800SOL    HW231543   3.485   0.921   7.393 -0.9746 -2.0704  1.0571
 4801SOL     OW31544   1.679   1.564   1.677  0.3527  0.5171  0.0696
 4801SOL    HW131545   1.661   1.617   1.754 -0.3575  1.0381 -0.4322
 4801SOL    HW231546   1.770   1.537   1.686 -0.0888 -0.5630  1.7504
 4802SOL     OW31547   3.501   1.674   4.921 -0.5658 -0.4688 -0.5220
 4802SOL    HW131548   3.416   1.672   4.963 -0.5610 -2.1546 -0.5104
 4802SOL    HW231549   3.484   1.649   4.830 -0.0148 -1.7011 -0.3131
 4803SOL     OW31550   4.185   1.007   6.154  0.4845 -0.1345  0.1726
 4803SOL    HW131551   4.249   1.024   6.084  0.8124  0.2165  0.5541
 4803SOL    HW231552   4.238   0.970   6.225  0.1232 -0.6620  0.1710
 4804SOL     OW31553   0.263   4.161   1.760  0.2244  0.0591  0.3688
 4804SOL    HW131554   0.203   4.178   1.687 -0.9302  0.3459  1.3667
 4804SOL    HW231555   0.319   4.239   1.764 -1.4040  1.2126  1.4030
 4805SOL     OW31556   2.039   4.823   7.057  0.0939  0.2786  0.4362
 4805SOL    HW131557   2.086   4.833   6.974  1.0428 -1.7053  0.6677
 4805SOL    HW231558   1.947   4.818   7.032  0.4869 -3.6138 -1.0119
 4806SOL     OW31559   3.436   2.766   1.393  0.1811  0.3283 -1.2856
 4806SOL    HW131560   3.342   2.774   1.406  0.2519 -0.3372 -0.2593
 4806SOL    HW231561   3.475   2.800   1.474  0.7771 -0.5658 -1.1832
 4807SOL     OW31562   6.272   4.128   0.527 -0.3901 -0.4621 -0.4040
 4807SOL    HW131563   6.244   4.037   0.522 -0.9728 -0.3035 -0.1911
 4807SOL    HW231564   6.310   4.147   0.442  1.5612 -1.4711  0.1739
 4808SOL     OW31565   0.253   4.906   6.699  0.7729  0.1594 -0.1530
 4808SOL    HW131566   0.194   4.981   6.706  1.1026  0.3508  0.7565
 4808SOL    HW231567   0.218   4.854   6.627 -0.1663  0.5715 -0.0065
 4809SOL     OW31568   5.136   2.392   1.230  0.3652  0.1535 -0.5353
 4809SOL    HW131569   5.228   2.377   1.207  1.2906  0.3422  2.6704
 4809SOL    HW231570   5.129   2.487   1.240  0.2074  0.0407  0.5357
 4810SOL     OW31571   6.181   1.198   1.040  0.1848 -0.2118 -0.3443
 4810SOL    HW131572   6.264   1.154   1.022  0.0672 -0.1910 -0.9465
 4810SOL    HW231573   6.120   1.162   0.976 -0.2843 -0.2621  0.1260
 4811SOL     OW31574   3.941   3.024   6.525  0.1895 -0.0779 -0.2564
 4811SOL    HW131575   3.996   2.972   6.583 -0.8511 -1.6887 -0.6497
 4811SOL    HW231576   3.992   3.032   6.444 -0.4523 -2.3950 -0.9729
 4812SOL     OW31577   3.637   0.453   0.568  0.0085  1.0479  0.4938
 4812SOL    HW131578   3.723   0.424   0.539  1.2416  3.8590  0.9546
 4812SOL    HW231579   3.624   0.412   0.654  1.2901  1.2209  0.7830
 4813SOL     OW31580   5.298   4.559   6.608  0.0194  0.3040 -0.1399
 4813SOL    HW131581   5.376   4.594   6.566 -2.2422  1.1571 -4.1188
 4813SOL    HW231582   5.259   4.501   6.543 -1.9959 -1.2499  2.2342
 4814SOL     OW31583   3.467   2.880   1.838 -0.0479 -0.0509 -0.2937
 4814SOL    HW131584   3.480   2.944   1.908  0.3466 -0.3286 -0.1026
 4814SOL    HW231585   3.380   2.844   1.853 -0.1400  0.2115 -0.2090
 4815SOL     OW31586   0.579   2.822   6.575  0.0445  0.5596  0.1424
 4815SOL    HW131587   0.639   2.851   6.506 -0.2694  0.4844 -0.1660
 4815SOL    HW231588   0.635   2.777   6.638  0.6064  2.1783  0.8486
 4816SOL     OW31589   3.972   3.134   6.861  0.4073  0.0150  0.5192
 4816SOL    HW131590   4.041   3.199   6.878 -0.5615  0.8512  1.4424
 4816SOL    HW231591   4.009   3.051   6.892  0.8352  0.5327  1.4515
 4817SOL     OW31592   2.818   5.307   0.408  0.4220  0.2972  1.0756
 4817SOL    HW131593   2.750   5.354   0.359  1.3025  0.8952  0.4037
 4817SOL    HW231594   2.778   5.290   0.493 -0.0567  1.9492  1.2184
 4818SOL     OW31595   3.016   2.668   6.497  0.1219  0.4278  0.0774
 4818SOL    HW131596   2.945   2.727   6.522  1.1955  2.7034 -1.8410
 4818SOL    HW231597   3.096   2.720   6.505  1.2993 -1.1866 -0.4118
 4819SOL     OW31598   2.255   0.746   0.337  0.3135 -0.4438  0.0570
 4819SOL    HW131599   2.265   0.753   0.242 -0.1388  0.1763  0.0491
 4819SOL    HW231600   2.318   0.679   0.363 -0.8696 -2.0150 -0.9178
 4820SOL     OW31601   5.679   5.267   5.518 -0.0733 -0.1362 -0.0157
 4820SOL    HW131602   5.635   5.201   5.571 -1.4220  1.1188  0.5087
 4820SOL    HW231603   5.686   5.227   5.431 -0.7262 -1.0232  0.3199
 4821SOL     OW31604   1.636   6.445   0.952 -0.0194  0.6846 -0.1731
 4821SOL    HW131605   1.721   6.488   0.946 -0.5048  2.5252  3.7233
 4821SOL    HW231606   1.639   6.396   1.034 -2.2986 -0.2943 -0.5897
 4822SOL     OW31607   4.316   6.154   7.157 -0.2892 -0.3562  0.0334
 4822SOL    HW131608   4.367   6.105   7.221  2.7671 -0.3218 -2.1631
 4822SOL    HW231609   4.366   6.235   7.142 -1.0030 -0.2376 -2.1316
 4823SOL     OW31610   2.588   2.684   6.418  0.8664  0.2184  0.6735
 4823SOL    HW131611   2.553   2.599   6.393  2.6913 -0.7527  1.1844
 4823SOL    HW231612   2.651   2.664   6.488  2.1510  1.8382  0.0630
 4824SOL     OW31613   4.656   3.918   1.127 -0.8960  0.3234  0.0076
 4824SOL    HW131614   4.635   3.990   1.187  2.0569 -0.0375  1.6318
 4824SOL    HW231615   4.660   3.841   1.183  1.1856 -0.1548 -0.7165
 4825SOL     OW31616   2.873   0.424   5.092 -0.4581  0.3510 -0.5321
 4825SOL    HW131617   2.789   0.410   5.136 -0.4179  1.1167 -0.1849
 4825SOL    HW231618   2.933   0.363   5.135 -1.0153 -0.8457 -1.3903
 4826SOL     OW31619   5.139   0.233   7.243 -0.2117 -0.0506 -0.4420
 4826SOL    HW131620   5.112   0.268   7.158  2.0878  0.0293 -1.1978
 4826SOL    HW231621   5.181   0.307   7.287 -2.4927  0.2942  1.3967
 4827SOL     OW31622   3.439   4.152   6.955 -0.5814  0.5610 -0.0815
 4827SOL    HW131623   3.470   4.095   7.026  1.2845  1.4599 -0.1197
 4827SOL    HW231624   3.410   4.091   6.887  0.5358 -0.3681  0.2360
 4828SOL     OW31625   0.059   4.870   5.313  0.0371  0.4344  0.0418
 4828SOL    HW131626  -0.009   4.889   5.377  0.7331  0.7296  0.6967
 4828SOL    HW231627   0.139   4.858   5.364  1.1631  3.1542 -0.8969
 4829SOL     OW31628   0.860   2.954   0.944 -0.1006  0.2164  0.4568
 4829SOL    HW131629   0.906   3.037   0.947  2.3051 -1.0290  0.5589
 4829SOL    HW231630   0.837   2.935   1.035 -2.8020  1.7832  0.2084
 4830SOL     OW31631   2.351   2.414   5.825  0.2477  0.1889 -0.2644
 4830SOL    HW131632   2.273   2.461   5.795  0.7372  1.0096 -0.2827
 4830SOL    HW231633   2.407   2.409   5.748 -0.8281 -2.7513 -1.0106
 4831SOL     OW31634   0.792   3.279   0.844  0.1772  0.2783  0.0842
 4831SOL    HW131635   0.723   3.221   0.876  0.1168  0.2128 -0.1662
 4831SOL    HW231636   0.873   3.229   0.855  0.6450  1.5062  3.4448
 4832SOL     OW31637   0.694   2.765   6.996  0.3940  0.1918 -0.0014
 4832SOL    HW131638   0.734   2.799   6.915  0.7074 -0.6453 -0.2064
 4832SOL    HW231639   0.697   2.839   7.057  2.0506  0.2430 -0.0884
 4833SOL     OW31640   5.612   5.533   5.450 -0.7556 -0.4835 -0.1062
 4833SOL    HW131641   5.637   5.451   5.492 -2.0434 -0.2365  1.2288
 4833SOL    HW231642   5.591   5.592   5.523  1.4533  1.5314 -0.9552
 4834SOL     OW31643   6.507   2.964   5.687 -0.0469  0.2924  0.1265
 4834SOL    HW131644   6.436   2.956   5.751 -0.1661 -0.5420 -0.0882
 4834SOL    HW231645   6.462   2.964   5.602  0.0436  2.3044  0.0489
 4835SOL     OW31646   5.660   4.454   0.738  0.5379 -0.3902  0.1106
 4835SOL    HW131647   5.754   4.437   0.737  1.0627  2.0794 -1.4493
 4835SOL    HW231648   5.638   4.465   0.831  1.7053 -1.2440  0.5095
 4836SOL     OW31649   4.323   3.538   2.176  0.0161 -0.3109  0.0135
 4836SOL    HW131650   4.366   3.623   2.186  0.6999 -0.4510 -1.4565
 4836SOL    HW231651   4.332   3.518   2.082  0.1623 -2.1476  0.3949
 4837SOL     OW31652   2.140   2.981   7.042 -0.0081 -0.0289  0.0835
 4837SOL    HW131653   2.086   3.052   7.075 -0.9786 -1.2444  1.2212
 4837SOL    HW231654   2.212   2.974   7.105  1.4583  1.4511 -1.3167
 4838SOL     OW31655   3.706   6.090   5.040  0.3133  0.7450 -0.2647
 4838SOL    HW131656   3.679   5.999   5.026 -0.4706  0.9722 -0.2963
 4838SOL    HW231657   3.730   6.122   4.953  2.8683 -0.1070  0.0572
 4839SOL     OW31658   3.427   3.135   0.887  0.3782 -0.1731  0.4987
 4839SOL    HW131659   3.475   3.198   0.941  0.5896 -1.1978  1.5669
 4839SOL    HW231660   3.341   3.174   0.874  0.6671  0.5506  0.7350
 4840SOL     OW31661   0.043   4.178   1.590  0.1438 -0.3916 -0.2962
 4840SOL    HW131662  -0.037   4.215   1.554 -0.5411 -2.4221 -1.0110
 4840SOL    HW231663   0.018   4.092   1.623  2.1405 -1.4229 -1.2458
 4841SOL     OW31664   3.310   2.670   6.962  0.2461  0.7222  0.2030
 4841SOL    HW131665   3.223   2.701   6.989 -0.1792  1.0091 -1.3822
 4841SOL    HW231666   3.369   2.740   6.989 -0.3503  1.6637 -0.8291
 4842SOL     OW31667   4.843   5.454   1.504  0.1846  0.6932  0.2265
 4842SOL    HW131668   4.819   5.537   1.463 -0.6996  0.2163 -0.2595
 4842SOL    HW231669   4.851   5.392   1.431  0.5830  0.2892  0.6064
 4843SOL     OW31670   6.422   6.005   1.334 -0.0748  0.8005  0.4775
 4843SOL    HW131671   6.512   5.993   1.362  0.1661  2.0848  0.3336
 4843SOL    HW231672   6.413   5.952   1.255  1.3455  2.6114 -0.9913
 4844SOL     OW31673   2.044   5.238   0.631 -0.4712 -1.0352  0.2141
 4844SOL    HW131674   1.999   5.200   0.707 -0.3631 -2.0404 -0.2062
 4844SOL    HW231675   2.120   5.282   0.668 -1.4295  0.1485  0.8720
 4845SOL     OW31676   0.530   1.868   1.121 -0.6558  0.3606 -0.2231
 4845SOL    HW131677   0.611   1.846   1.076 -1.2153 -2.2157 -0.1311
 4845SOL    HW231678   0.552   1.863   1.214 -0.8844 -0.3518 -0.1977
 4846SOL     OW31679   1.798   1.696   6.817  0.0264 -1.0228  0.0981
 4846SOL    HW131680   1.792   1.691   6.722  0.5787 -2.5222  0.1244
 4846SOL    HW231681   1.722   1.647   6.848 -1.7004  1.6796  0.4896
 4847SOL     OW31682   5.392   4.533   0.129  0.1430  0.4368 -0.3102
 4847SOL    HW131683   5.380   4.467   0.197 -2.1823  1.8077  0.7366
 4847SOL    HW231684   5.480   4.518   0.096  0.4534 -1.8223  1.3280
 4848SOL     OW31685   0.876   4.508   4.952  0.1770 -0.1928  0.1345
 4848SOL    HW131686   0.912   4.446   5.016 -1.7883 -0.4192  1.1239
 4848SOL    HW231687   0.832   4.452   4.888 -0.5730  0.1046  0.3722
 4849SOL     OW31688   5.455   3.865   7.023  0.7182 -0.7876 -0.1170
 4849SOL    HW131689   5.415   3.950   7.010 -0.2408 -0.6372  3.1844
 4849SOL    HW231690   5.384   3.802   7.010  1.1476 -1.0720 -1.3080
 4850SOL     OW31691   0.457   6.486   6.572 -0.4968 -0.2149  0.3633
 4850SOL    HW131692   0.425   6.553   6.632 -0.8201 -0.7519  0.8001
 4850SOL    HW231693   0.542   6.519   6.543  0.0968 -0.3457  1.8163
 4851SOL     OW31694   2.187   1.664   2.304  0.5280 -0.5538  0.4761
 4851SOL    HW131695   2.133   1.603   2.253  0.6758 -1.4314  1.3438
 4851SOL    HW231696   2.270   1.618   2.315  1.1690  0.4336 -0.1107
 4852SOL     OW31697   1.415   5.908   0.540 -0.7654 -0.0090 -0.1859
 4852SOL    HW131698   1.431   5.971   0.611 -0.9930  0.5478 -0.6194
 4852SOL    HW231699   1.329   5.871   0.559 -0.4242 -0.5460  0.3312
 4853SOL     OW31700   4.745   2.038   1.216 -0.1999  0.3954 -0.3191
 4853SOL    HW131701   4.722   2.129   1.197 -0.4938  0.1620 -1.0734
 4853SOL    HW231702   4.823   2.022   1.163  0.5859  0.5718  0.7371
 4854SOL     OW31703   2.237   4.223   0.427 -0.2042 -0.7520 -0.0507
 4854SOL    HW131704   2.254   4.130   0.413 -2.2376 -0.9777 -1.4384
 4854SOL    HW231705   2.304   4.268   0.377  0.5130 -1.4629  0.2607
 4855SOL     OW31706   4.603   3.141   5.942  0.3148  0.0199  0.5491
 4855SOL    HW131707   4.656   3.178   5.871  0.6226  0.7654  1.1550
 4855SOL    HW231708   4.611   3.047   5.931  0.9156  0.1288 -0.0002
 4856SOL     OW31709   3.545   3.462   7.164  0.0761  0.3840 -0.1956
 4856SOL    HW131710   3.595   3.383   7.186  1.1194  1.1573  0.2987
 4856SOL    HW231711   3.467   3.457   7.219  0.2855 -0.1494  0.0611
 4857SOL     OW31712   2.907   5.181   2.045  0.2085  0.2083 -0.5983
 4857SOL    HW131713   2.960   5.190   1.966 -0.5576  2.4316 -0.9048
 4857SOL    HW231714   2.842   5.114   2.022 -0.0243  0.8408 -1.8645
 4858SOL     OW31715   2.206   3.135   6.826  0.0636 -0.2018 -0.1756
 4858SOL    HW131716   2.206   3.081   6.904 -0.7567  0.1251  0.0632
 4858SOL    HW231717   2.121   3.118   6.785 -0.3530  1.1259  0.0842
 4859SOL     OW31718   2.798   4.447   6.407  0.5542  0.3829 -0.0066
 4859SOL    HW131719   2.771   4.538   6.413  0.2867  0.2691  0.5951
 4859SOL    HW231720   2.796   4.427   6.314 -0.7182  0.6026 -0.0460
 4860SOL     OW31721   3.123   5.520   6.217 -0.2565 -0.0347  0.0230
 4860SOL    HW131722   3.115   5.457   6.146  0.1642  0.4227 -0.4390
 4860SOL    HW231723   3.052   5.583   6.202 -0.0399  0.1778 -0.1115
 4861SOL     OW31724   2.223   4.679   7.161 -0.0513  0.0455  0.4352
 4861SOL    HW131725   2.172   4.600   7.175  0.3161 -0.7055 -2.0432
 4861SOL    HW231726   2.159   4.746   7.138 -0.2786  0.3060  1.7225
 4862SOL     OW31727   6.439   4.977   5.192 -0.2683 -0.3506  0.5129
 4862SOL    HW131728   6.518   4.924   5.199 -1.8254 -2.7571  0.9860
 4862SOL    HW231729   6.405   4.958   5.105 -1.9423 -1.8955  1.4302
 4863SOL     OW31730   4.794   3.521   0.067 -0.1645 -0.2269  0.0692
 4863SOL    HW131731   4.726   3.525   0.134 -0.2059 -0.5839  0.0488
 4863SOL    HW231732   4.875   3.542   0.114 -0.4239  1.3182 -0.1184
 4864SOL     OW31733   3.910   2.045   6.032  0.1215  0.6365 -0.2590
 4864SOL    HW131734   3.821   2.021   6.059 -0.0269 -2.1015 -2.7249
 4864SOL    HW231735   3.899   2.086   5.947  1.2338 -0.0353 -0.7427
 4865SOL     OW31736   6.084   6.597   0.380  0.2483 -0.1374  0.2781
 4865SOL    HW131737   6.161   6.605   0.323 -0.2033  2.8231 -0.0452
 4865SOL    HW231738   6.013   6.637   0.331 -0.5478  0.9390  2.2091
 4866SOL     OW31739   0.262   6.347   0.334 -0.5596  0.5025 -0.1410
 4866SOL    HW131740   0.254   6.424   0.389 -0.8186  0.9843 -0.8371
 4866SOL    HW231741   0.338   6.365   0.278 -2.3897  1.6602 -2.4287
 4867SOL     OW31742   0.350   6.272   2.012  0.1316  0.0177 -0.2699
 4867SOL    HW131743   0.304   6.306   2.089  1.3675 -0.2416  0.6053
 4867SOL    HW231744   0.371   6.350   1.960 -0.0903  0.2546 -0.0057
 4868SOL     OW31745   6.261   0.991   6.331  0.3131  0.3882  0.5052
 4868SOL    HW131746   6.219   1.001   6.417 -4.5196 -0.4434 -1.4388
 4868SOL    HW231747   6.242   1.072   6.285  2.8551  0.8181  0.0234
 4869SOL     OW31748   3.983   2.663   1.331 -0.4800 -0.2725 -0.3018
 4869SOL    HW131749   3.951   2.574   1.315  0.7898 -0.5797 -1.3279
 4869SOL    HW231750   4.003   2.665   1.424 -1.2699 -0.8024 -0.1139
 4870SOL     OW31751   5.675   0.496   7.357 -0.1980  0.2469 -0.1386
 4870SOL    HW131752   5.633   0.463   7.278 -0.3744 -0.4042  0.2251
 4870SOL    HW231753   5.727   0.571   7.327 -0.6656  0.3200 -0.7848
 4871SOL     OW31754   6.272   6.043   7.440  0.2259 -0.8660 -0.5713
 4871SOL    HW131755   6.341   6.107   7.423  0.8204 -0.8673  1.5752
 4871SOL    HW231756   6.193   6.083   7.404  0.9098  0.2585 -0.8770
 4872SOL     OW31757   5.907   5.419   7.121 -0.2334 -0.1721 -0.0502
 4872SOL    HW131758   5.902   5.505   7.161  3.4091 -0.7379  2.1225
 4872SOL    HW231759   6.000   5.396   7.125 -0.8605 -3.7585 -1.5694
 4873SOL     OW31760   6.329   5.330   0.551  0.0913  0.2203  0.0764
 4873SOL    HW131761   6.416   5.291   0.556  0.7662  1.6560 -0.1562
 4873SOL    HW231762   6.301   5.318   0.461 -0.5770 -1.4834  0.4697
 4874SOL     OW31763   6.386   5.372   0.957 -0.1776 -0.5847 -0.1330
 4874SOL    HW131764   6.359   5.418   0.877 -1.1198  0.1941  0.6084
 4874SOL    HW231765   6.462   5.422   0.988 -1.2537  0.5753  0.7183
 4875SOL     OW31766   5.136   5.299   1.290 -0.4403  0.5941  0.4407
 4875SOL    HW131767   5.160   5.319   1.199  2.0572  0.2310  0.9559
 4875SOL    HW231768   5.040   5.300   1.290 -0.7291 -2.8081 -3.0190
 4876SOL     OW31769   4.334   5.706   5.947  0.2438  0.3408 -0.4413
 4876SOL    HW131770   4.256   5.672   5.903  0.1791  1.9373 -1.6500
 4876SOL    HW231771   4.320   5.800   5.951  1.5205  0.5156  0.5509
 4877SOL     OW31772   0.482   2.833   0.605 -0.1930 -0.6069 -0.0616
 4877SOL    HW131773   0.436   2.908   0.569  2.1298  1.2353  0.5605
 4877SOL    HW231774   0.415   2.783   0.652 -1.9856  0.4996 -1.3348
 4878SOL     OW31775   1.932   5.913   6.146 -0.9279 -0.3792 -0.0622
 4878SOL    HW131776   1.971   5.977   6.086  0.2145 -1.2087 -0.2354
 4878SOL    HW231777   1.850   5.887   6.104 -0.6092 -0.2227 -0.7960
 4879SOL     OW31778   3.354   4.058   5.414  0.8541 -0.3190 -0.0799
 4879SOL    HW131779   3.384   3.983   5.362  0.6734 -0.2791 -0.2409
 4879SOL    HW231780   3.335   4.126   5.350  0.0819 -0.4579 -0.0114
 4880SOL     OW31781   1.722   1.802   1.504  0.4594 -0.3302  0.0393
 4880SOL    HW131782   1.737   1.710   1.527  0.1041 -0.4887 -0.3550
 4880SOL    HW231783   1.652   1.831   1.562  0.4046 -0.3754 -0.0053
 4881SOL     OW31784   4.716   6.241   5.397  0.1467 -0.1424 -0.0114
 4881SOL    HW131785   4.679   6.239   5.485 -2.2842 -2.6088 -0.9156
 4881SOL    HW231786   4.742   6.151   5.380  1.0174  0.3802 -1.6551
 4882SOL     OW31787   0.088   1.396   6.162  0.2026  0.2613  0.5642
 4882SOL    HW131788   0.027   1.460   6.126  1.8600  2.9589  2.1876
 4882SOL    HW231789   0.172   1.416   6.120  0.7726 -0.8466  1.1240
 4883SOL     OW31790   0.551   4.454   6.259 -0.3983  0.0816 -0.1428
 4883SOL    HW131791   0.544   4.483   6.350  1.4189  0.8435 -0.1909
 4883SOL    HW231792   0.520   4.528   6.207  1.1400  0.7432 -0.1772
 4884SOL     OW31793   6.569   2.510   6.836  0.3710  0.1422  0.9477
 4884SOL    HW131794   6.545   2.418   6.851 -0.5364  0.1741 -0.1043
 4884SOL    HW231795   6.506   2.560   6.888  2.4052  0.2105  3.5565
 4885SOL     OW31796   1.477   5.235   6.494 -0.5295  0.2835  0.5426
 4885SOL    HW131797   1.446   5.249   6.583  1.1124 -0.8881  1.3536
 4885SOL    HW231798   1.482   5.140   6.484 -1.0812  0.3803 -0.9609
 4886SOL     OW31799   4.027   3.189   0.190  0.0681 -0.1373 -0.6680
 4886SOL    HW131800   4.089   3.237   0.135 -0.0415  2.1932  1.0691
 4886SOL    HW231801   4.078   3.161   0.266 -0.3706 -0.8193 -0.6140
 4887SOL     OW31802   2.098   5.427   6.312 -0.2391 -0.2554  0.0653
 4887SOL    HW131803   2.051   5.507   6.290  1.4448  1.1589  1.2787
 4887SOL    HW231804   2.037   5.356   6.292 -1.4074  1.2432 -2.0421
 4888SOL     OW31805   6.432   1.636   6.469 -0.6239 -0.7763  0.5572
 4888SOL    HW131806   6.432   1.687   6.387 -0.4749  1.2184  1.7286
 4888SOL    HW231807   6.350   1.660   6.512  0.1297 -0.3496  1.8063
 4889SOL     OW31808   1.485   3.852   6.102 -0.1534 -0.2791  0.5007
 4889SOL    HW131809   1.573   3.881   6.078  0.1534 -1.1541  0.5539
 4889SOL    HW231810   1.438   3.933   6.120  0.9566  0.1708  1.5644
 4890SOL     OW31811   5.370   6.535   1.406 -0.1640  0.1897  0.0588
 4890SOL    HW131812   5.365   6.624   1.441 -2.2331  0.8270 -1.6700
 4890SOL    HW231813   5.358   6.545   1.312 -1.4583 -1.9862 -0.0772
 4891SOL     OW31814   1.101   1.354   0.375  0.4219 -0.4558  0.2433
 4891SOL    HW131815   1.180   1.369   0.428 -0.1682 -1.8529  1.5839
 4891SOL    HW231816   1.031   1.343   0.439 -0.5247 -1.1284 -0.8777
 4892SOL     OW31817   6.158   6.388   0.669  0.0532  0.3762 -0.1528
 4892SOL    HW131818   6.101   6.358   0.598 -0.1690  1.6121 -0.5078
 4892SOL    HW231819   6.228   6.436   0.626  0.3100  0.5226  0.4187
 4893SOL     OW31820   1.097   1.772   1.738  0.0871 -0.0473  0.0190
 4893SOL    HW131821   1.039   1.809   1.805 -0.5442 -0.5896 -0.2110
 4893SOL    HW231822   1.152   1.710   1.786  0.9366  0.9353  0.3500
 4894SOL     OW31823   4.332   5.734   0.138  0.2410  0.1962 -0.0199
 4894SOL    HW131824   4.290   5.752   0.223  0.0545  0.6296 -0.2005
 4894SOL    HW231825   4.308   5.809   0.083  0.5277  0.0155 -0.3958
 4895SOL     OW31826   3.760   1.789   0.954 -0.4983 -0.0340 -0.1773
 4895SOL    HW131827   3.842   1.825   0.987  0.3518 -1.5167 -0.5923
 4895SOL    HW231828   3.760   1.814   0.861 -0.1756 -0.5862 -0.3337
 4896SOL     OW31829   4.689   4.413   0.675  0.1578 -0.4526  0.2641
 4896SOL    HW131830   4.771   4.366   0.692 -0.8155 -1.4217  2.8338
 4896SOL    HW231831   4.642   4.410   0.759 -3.4633 -1.8049 -1.6150
 4897SOL     OW31832   3.012   5.035   6.817  0.0200 -0.0813 -0.0972
 4897SOL    HW131833   2.984   5.081   6.896 -1.6855  0.4309 -0.9587
 4897SOL    HW231834   3.043   5.105   6.759  1.3678 -0.4647  0.1295
 4898SOL     OW31835   1.040   5.449   6.936  0.2004 -0.4494  0.3453
 4898SOL    HW131836   1.010   5.384   6.871  1.9027 -0.5615 -0.3848
 4898SOL    HW231837   1.126   5.418   6.962  0.9883  1.4319  0.1153
 4899SOL     OW31838   6.214   1.784   6.311  0.3578  0.4475  0.0146
 4899SOL    HW131839   6.291   1.840   6.314 -1.3012  3.1507 -2.6991
 4899SOL    HW231840   6.236   1.716   6.248  0.6450  1.0312 -0.5214
 4900SOL     OW31841   4.063   6.114   0.894  0.1129  0.0997 -0.2257
 4900SOL    HW131842   4.146   6.137   0.852  1.5640 -1.8250  1.3708
 4900SOL    HW231843   4.007   6.084   0.822  1.8283 -1.2816 -1.0757
 4901SOL     OW31844   6.567   5.046   0.012 -0.0937  0.3289  0.1587
 4901SOL    HW131845   6.619   5.050   0.092  1.3804  2.4125 -0.7983
 4901SOL    HW231846   6.507   5.121   0.018  0.6075  1.0186 -1.0067
 4902SOL     OW31847   4.345   0.648   6.502 -0.6263  0.6206  0.1511
 4902SOL    HW131848   4.374   0.619   6.416 -0.7872  1.5560 -0.2282
 4902SOL    HW231849   4.421   0.636   6.559 -0.7045 -0.5720  0.0261
 4903SOL     OW31850   2.980   4.302   0.790 -0.5269  0.1250  0.0177
 4903SOL    HW131851   2.993   4.219   0.834 -0.4938 -0.1192 -0.4453
 4903SOL    HW231852   3.065   4.345   0.792 -0.5805  0.2128  0.3872
 4904SOL     OW31853   2.187   6.301   1.195 -0.6409 -0.4396 -0.1204
 4904SOL    HW131854   2.115   6.277   1.138 -0.5429 -0.0636 -0.4007
 4904SOL    HW231855   2.187   6.397   1.196 -0.8863 -0.4410  0.8172
 4905SOL     OW31856   1.991   0.435   1.095  0.2362  0.3592  0.0682
 4905SOL    HW131857   1.998   0.396   1.182  0.4883  0.1671 -0.0376
 4905SOL    HW231858   2.050   0.510   1.097 -0.0410  0.5759  0.1828
 4906SOL     OW31859   1.152   0.123   0.871 -0.5617 -0.1384 -0.4709
 4906SOL    HW131860   1.161   0.181   0.795 -0.7041 -1.0445 -1.2046
 4906SOL    HW231861   1.089   0.057   0.843 -1.3675  0.0699  0.8044
 4907SOL     OW31862   4.400   3.498   1.126 -0.1881 -0.3996 -0.2805
 4907SOL    HW131863   4.315   3.495   1.171  0.1244  0.8212  0.4300
 4907SOL    HW231864   4.395   3.576   1.071 -0.1183 -1.2263 -1.5041
 4908SOL     OW31865   5.857   4.464   5.316 -0.0425 -0.7847  0.0313
 4908SOL    HW131866   5.919   4.405   5.272 -1.1284 -0.4446 -2.0683
 4908SOL    HW231867   5.777   4.458   5.265 -1.1289  0.3144  1.5076
 4909SOL     OW31868   3.948   5.414   5.960 -0.2768 -0.1130  0.2941
 4909SOL    HW131869   3.898   5.480   6.006 -0.1465 -0.6671  1.2769
 4909SOL    HW231870   3.883   5.351   5.930 -0.9386  2.3689 -4.2399
 4910SOL     OW31871   2.595   2.971   1.713 -0.1531  0.1243 -0.2778
 4910SOL    HW131872   2.502   2.957   1.728  0.1543  0.4058  2.2065
 4910SOL    HW231873   2.631   2.884   1.698 -0.4141 -0.3324  1.5252
 4911SOL     OW31874   3.992   4.894   1.377 -0.2147  0.7751  0.2489
 4911SOL    HW131875   3.991   4.861   1.288  0.6499  0.4562  0.3549
 4911SOL    HW231876   3.920   4.847   1.421 -1.1408  1.4897 -0.4572
 4912SOL     OW31877   0.136   0.028   6.119 -0.4355  0.9138  0.7576
 4912SOL    HW131878   0.190  -0.048   6.098 -1.6978  0.2037 -0.0834
 4912SOL    HW231879   0.166   0.057   6.205  1.9719  1.2130 -0.1104
 4913SOL     OW31880   3.023   2.939   7.465  0.0697  0.1522  0.0012
 4913SOL    HW131881   3.030   3.006   7.533  1.4090  0.1507 -0.0998
 4913SOL    HW231882   3.061   2.860   7.504  0.9253  0.1708 -0.7601
 4914SOL     OW31883   4.604   3.584   6.511  0.1863 -0.3534  0.3340
 4914SOL    HW131884   4.532   3.608   6.570 -0.5994 -2.0681  0.1352
 4914SOL    HW231885   4.565   3.522   6.449  0.8204  1.9050 -2.4962
 4915SOL     OW31886   3.301   5.663   1.637 -0.3560 -0.2736  0.2196
 4915SOL    HW131887   3.385   5.651   1.682  0.0589 -1.5612 -0.8320
 4915SOL    HW231888   3.286   5.757   1.639  1.6809  0.1289 -0.5083
 4916SOL     OW31889   3.229   4.827   7.419 -0.2291  1.4375 -0.1933
 4916SOL    HW131890   3.278   4.866   7.492 -0.4114  1.5274 -0.1169
 4916SOL    HW231891   3.198   4.902   7.368 -2.1313  1.5043  0.9631
 4917SOL     OW31892   5.659   3.825   1.391  0.0719 -0.0821 -0.2915
 4917SOL    HW131893   5.629   3.881   1.463 -0.6141 -2.0518  1.0445
 4917SOL    HW231894   5.747   3.857   1.370 -0.9037  2.4993 -0.7227
 4918SOL     OW31895   1.301   0.371   1.527  0.2151 -0.2025  0.4285
 4918SOL    HW131896   1.210   0.385   1.554 -0.1998 -0.6211 -0.6705
 4918SOL    HW231897   1.347   0.346   1.607 -0.3068  1.4568  1.2868
 4919SOL     OW31898   1.069   1.922   1.045 -0.1695 -0.1178  0.4338
 4919SOL    HW131899   1.024   1.876   1.116  0.6145 -2.5201 -0.5266
 4919SOL    HW231900   1.049   2.014   1.060 -2.5455 -0.7901  2.0067
 4920SOL     OW31901   3.041   0.086   4.834  0.0206  0.5659 -0.0551
 4920SOL    HW131902   2.972   0.150   4.817 -0.1831  0.4820  0.4295
 4920SOL    HW231903   3.101   0.130   4.894  0.0568  0.4218  0.0156
 4921SOL     OW31904   0.996   2.529   6.739  0.4703  0.2713  0.0083
 4921SOL    HW131905   1.063   2.463   6.722  0.4252  0.0553  0.6137
 4921SOL    HW231906   0.920   2.500   6.689  1.3189  1.4058 -2.0169
 4922SOL     OW31907   2.463   3.910   6.240 -0.8778 -0.4285 -0.7066
 4922SOL    HW131908   2.470   3.943   6.150  1.3813  1.3474  0.0045
 4922SOL    HW231909   2.548   3.930   6.279 -1.2630 -2.5008  1.4283
 4923SOL     OW31910   0.671   0.596   1.638  0.6050  0.2410 -0.5270
 4923SOL    HW131911   0.696   0.655   1.709  1.6015  1.2972 -1.6902
 4923SOL    HW231912   0.580   0.618   1.619  0.8143  1.0764 -0.6130
 4924SOL     OW31913   4.107   6.268   7.294 -0.5430  0.1524 -0.4431
 4924SOL    HW131914   4.113   6.235   7.384 -1.7612  0.6986 -0.1418
 4924SOL    HW231915   4.170   6.215   7.245 -0.6264 -0.8782  0.5190
 4925SOL     OW31916   2.309   6.089   6.562 -0.0556 -0.3136  0.0718
 4925SOL    HW131917   2.402   6.089   6.540 -0.2058  0.9740 -0.6732
 4925SOL    HW231918   2.267   6.044   6.489  0.0574 -1.7610  0.8732
 4926SOL     OW31919   4.250   3.805   6.937 -0.1440  0.1728  0.0988
 4926SOL    HW131920   4.178   3.845   6.888  0.8833  1.1408 -0.6995
 4926SOL    HW231921   4.254   3.856   7.018 -1.6186 -1.1990  1.0771
 4927SOL     OW31922   0.344   0.076   1.282  0.8836 -0.5811 -0.6759
 4927SOL    HW131923   0.378   0.052   1.368 -0.6500 -2.2186 -0.4552
 4927SOL    HW231924   0.250   0.059   1.288  0.7302 -0.7206 -2.6605
 4928SOL     OW31925   5.404   4.332   2.234 -0.0594  0.2117  0.4395
 4928SOL    HW131926   5.332   4.271   2.218  0.7417 -0.5728 -0.3161
 4928SOL    HW231927   5.482   4.285   2.203  0.4505  2.0557 -1.2518
 4929SOL     OW31928   0.538   5.025   0.190  0.0537 -0.6346  0.1319
 4929SOL    HW131929   0.502   5.099   0.141  0.4597  0.6936  1.7234
 4929SOL    HW231930   0.615   4.999   0.140  0.4937  0.7248  0.0504
 4930SOL     OW31931   3.185   0.835   2.483 -0.2878 -0.2346 -0.1414
 4930SOL    HW131932   3.209   0.750   2.447  1.3727 -0.3598  1.1585
 4930SOL    HW231933   3.177   0.892   2.407  0.0265 -1.2104 -0.9215
 4931SOL     OW31934   1.891   2.922   5.141 -0.3253 -0.1637 -0.2592
 4931SOL    HW131935   1.860   2.968   5.219  1.0181  2.6590 -1.2423
 4931SOL    HW231936   1.938   2.989   5.091 -1.1734 -1.8202 -3.5482
 4932SOL     OW31937   2.883   4.999   4.327 -0.4875 -0.0314  0.2660
 4932SOL    HW131938   2.865   4.908   4.349 -0.5141 -0.6516 -2.0515
 4932SOL    HW231939   2.846   5.010   4.239  0.4652  1.9056  0.0561
 4933SOL     OW31940   0.204   2.065   6.673 -0.0137  0.2786 -0.7696
 4933SOL    HW131941   0.177   2.141   6.621  0.7032  0.4520 -0.9032
 4933SOL    HW231942   0.264   2.100   6.738 -0.2779 -0.0611 -0.3394
 4934SOL     OW31943   5.220   4.617   2.113 -0.0938 -0.0661  0.2849
 4934SOL    HW131944   5.293   4.554   2.120  0.1263 -0.0683 -1.5129
 4934SOL    HW231945   5.142   4.564   2.127  0.1984 -0.2551  1.2480
 4935SOL     OW31946   2.218   1.612   5.900  0.3042  0.3699  0.0520
 4935SOL    HW131947   2.179   1.619   5.813  0.3317 -0.1385 -0.0047
 4935SOL    HW231948   2.242   1.519   5.908 -0.3384  0.2671  0.8723
 4936SOL     OW31949   3.117   4.718   0.758 -0.3461 -0.0405  0.0635
 4936SOL    HW131950   3.102   4.775   0.833 -1.9645  2.4378 -2.0001
 4936SOL    HW231951   3.211   4.726   0.740 -0.0914 -0.0321  1.2743
 4937SOL     OW31952   5.935   4.630   5.928  0.5905  0.0606 -0.0434
 4937SOL    HW131953   5.933   4.572   6.005  1.5485  2.3575  1.8141
 4937SOL    HW231954   5.843   4.653   5.914  0.1703 -1.8633 -0.8819
 4938SOL     OW31955   1.115   5.030   7.239  0.2317  0.2595  0.1228
 4938SOL    HW131956   1.143   4.995   7.155  1.4758 -2.0358  1.4226
 4938SOL    HW231957   1.021   5.045   7.228  0.0306 -1.6098 -1.1733
 4939SOL     OW31958   1.226   3.611   0.805  0.0484 -0.5206  0.0552
 4939SOL    HW131959   1.219   3.555   0.728  0.8615  0.1093 -0.4942
 4939SOL    HW231960   1.151   3.586   0.860 -1.8572  0.5053 -1.9065
 4940SOL     OW31961   3.797   4.619   0.264  0.2138  0.2019 -0.7795
 4940SOL    HW131962   3.818   4.706   0.229  0.9561  0.9279  1.3584
 4940SOL    HW231963   3.720   4.633   0.320  1.2819 -0.1721  0.8389
 4941SOL     OW31964   3.674   6.050   6.356  0.1270  0.2810  0.2880
 4941SOL    HW131965   3.755   6.082   6.317  0.3007  1.0053  1.2106
 4941SOL    HW231966   3.686   6.062   6.450 -1.7141  2.1402  0.3795
 4942SOL     OW31967   2.059   5.078   5.967  0.2265 -0.7483  0.2755
 4942SOL    HW131968   1.975   5.033   5.970  0.2781 -0.8096  0.9891
 4942SOL    HW231969   2.122   5.014   6.000  0.5788 -0.7436 -0.3637
 4943SOL     OW31970   0.428   3.941   6.338 -0.0403  0.0106 -0.0727
 4943SOL    HW131971   0.456   3.853   6.312  2.1739  0.5277  0.2969
 4943SOL    HW231972   0.477   3.999   6.281 -0.6219  1.0152  0.4349
 4944SOL     OW31973   3.230   3.839   0.050  0.0350  0.6528  0.6739
 4944SOL    HW131974   3.287   3.771   0.086  0.1295  1.1170  1.4188
 4944SOL    HW231975   3.288   3.889  -0.008 -0.8948 -2.2759 -3.2077
 4945SOL     OW31976   0.136   5.889   0.354 -0.2336 -0.2135  0.2577
 4945SOL    HW131977   0.058   5.917   0.401 -2.0023 -0.1104 -2.5006
 4945SOL    HW231978   0.173   5.970   0.319  1.2130 -0.2543  1.5888
 4946SOL     OW31979   2.035   0.624   0.484  0.1272  0.0175  0.3935
 4946SOL    HW131980   2.031   0.531   0.459  1.3507  0.2789 -0.9835
 4946SOL    HW231981   2.113   0.656   0.438 -0.5956  1.8567  0.4021
 4947SOL     OW31982   0.556   1.248   1.002  0.2365  0.3639  0.0291
 4947SOL    HW131983   0.518   1.275   1.086  1.1202 -1.7030  1.1742
 4947SOL    HW231984   0.515   1.164   0.983  1.2885  0.0025 -0.7437
 4948SOL     OW31985   3.752   1.885   6.665 -0.5315  1.0270  0.0315
 4948SOL    HW131986   3.678   1.920   6.716  0.3725 -0.3194  2.4507
 4948SOL    HW231987   3.744   1.790   6.673  0.9214  0.8332 -0.4634
 4949SOL     OW31988   4.361   0.953   5.941 -0.1138 -0.2502 -0.1295
 4949SOL    HW131989   4.388   1.030   5.891  0.4911 -0.2809  0.1287
 4949SOL    HW231990   4.377   0.879   5.883  1.1302 -0.3379  0.2783
 4950SOL     OW31991   1.742   3.048   1.994  0.8850 -0.1432  0.0928
 4950SOL    HW131992   1.683   2.981   1.959 -1.2212  1.3301  0.5955
 4950SOL    HW231993   1.827   3.027   1.956 -0.5974 -0.3958 -3.5577
 4951SOL     OW31994   3.363   3.784   0.390  0.5831 -0.3117  0.1361
 4951SOL    HW131995   3.361   3.849   0.460 -1.2630  0.4012 -0.5158
 4951SOL    HW231996   3.456   3.771   0.372  1.0305  1.1105  1.2119
 4952SOL     OW31997   6.595   5.419   0.733 -0.3024  0.4587  1.0026
 4952SOL    HW131998   6.505   5.433   0.763 -0.6561 -0.8342  0.5574
 4952SOL    HW231999   6.589   5.353   0.664  0.6415  2.4986 -1.1890
 4953SOL     OW32000   2.440   1.922   1.618  0.3031  0.3955 -0.1133
 4953SOL    HW132001   2.523   1.968   1.623  1.3851 -1.4385 -0.0532
 4953SOL    HW232002   2.458   1.847   1.561 -0.8963 -0.8179  1.0258
 4954SOL     OW32003   2.456   5.026   7.081  0.0471  0.0074 -0.5159
 4954SOL    HW132004   2.467   4.947   7.027  0.9197 -0.2919  0.0800
 4954SOL    HW232005   2.544   5.064   7.084 -0.2421  0.6589 -0.2621
 4955SOL     OW32006   0.802   4.444   1.193 -0.1015 -0.2723 -0.3223
 4955SOL    HW132007   0.725   4.485   1.152 -1.5581 -2.4118  0.0688
 4955SOL    HW232008   0.835   4.385   1.126  1.3603  0.7397 -0.5349
 4956SOL     OW32009   1.127   0.301   6.310 -0.5306 -0.0734 -0.1854
 4956SOL    HW132010   1.139   0.327   6.218 -1.0843 -0.8519 -0.4874
 4956SOL    HW232011   1.155   0.377   6.360 -0.3209  0.4021 -1.0060
 4957SOL     OW32012   3.211   4.100   7.191  0.2362  0.4502 -0.0775
 4957SOL    HW132013   3.288   4.046   7.174 -0.1356  0.3139 -1.4492
 4957SOL    HW232014   3.245   4.186   7.214  0.8063  0.3531 -0.5465
 4958SOL     OW32015   1.865   2.852   6.852 -0.0037 -0.2861  0.4913
 4958SOL    HW132016   1.786   2.878   6.899 -0.1724 -0.6262  0.4019
 4958SOL    HW232017   1.914   2.799   6.916  0.2819  0.1426  0.6347
 4959SOL     OW32018   1.413   0.633   0.580 -0.0535 -0.1474  0.4055
 4959SOL    HW132019   1.406   0.554   0.527 -0.3752  1.5728 -2.3008
 4959SOL    HW232020   1.506   0.642   0.597 -0.1444 -2.0302  2.4192
 4960SOL     OW32021   4.118   0.311   7.479 -0.5386  0.3966  0.4144
 4960SOL    HW132022   4.184   0.249   7.448  1.0738  1.7164  1.0904
 4960SOL    HW232023   4.045   0.300   7.419  1.7699  1.6538 -2.9401
 4961SOL     OW32024   2.691   2.813   1.424  0.5586 -0.2696  0.1700
 4961SOL    HW132025   2.662   2.776   1.507  0.2786  0.2122  0.2879
 4961SOL    HW232026   2.786   2.798   1.423  0.3721 -1.6112 -0.0962
 4962SOL     OW32027   2.827   4.932   1.043  0.6192 -0.0562  0.2111
 4962SOL    HW132028   2.754   4.962   0.990  0.4666  1.0384  1.0049
 4962SOL    HW232029   2.804   4.842   1.067 -0.3807  0.2147  0.3004
 4963SOL     OW32030   1.653   4.148   6.734  0.1242 -0.3972 -0.3229
 4963SOL    HW132031   1.717   4.196   6.682 -0.9656  0.7253 -0.6700
 4963SOL    HW232032   1.582   4.210   6.749 -0.5186 -1.3475  0.7635
 4964SOL     OW32033   6.244   1.758   6.772  0.8525 -0.2203  0.0024
 4964SOL    HW132034   6.287   1.673   6.761 -1.4662 -1.4928  0.1940
 4964SOL    HW232035   6.176   1.742   6.836 -1.2906  1.1142 -1.7936
 4965SOL     OW32036   4.811   6.186   5.662  0.4800 -0.1425  0.1186
 4965SOL    HW132037   4.790   6.099   5.629 -0.0257  0.3615 -0.9269
 4965SOL    HW232038   4.788   6.182   5.755 -0.8603 -0.7120 -0.2095
 4966SOL     OW32039   3.629   6.494   1.584 -0.0187  0.0937  0.0444
 4966SOL    HW132040   3.583   6.493   1.668 -0.8704  0.6952 -0.4016
 4966SOL    HW232041   3.572   6.445   1.525 -0.7197  1.8601 -0.8198
 4967SOL     OW32042   1.221   0.039   1.131  0.0851 -0.0240  0.9822
 4967SOL    HW132043   1.171   0.080   1.202  1.9805  0.7974  1.9187
 4967SOL    HW232044   1.173   0.061   1.052 -0.2075  2.1056  1.6787
 4968SOL     OW32045   3.995   0.751   6.336  0.2934  0.0546 -0.2757
 4968SOL    HW132046   4.015   0.756   6.243  0.8371 -2.8731 -0.4153
 4968SOL    HW232047   3.900   0.741   6.341  0.4018 -1.2197 -0.6287
 4969SOL     OW32048   1.434   4.880   5.029  0.0134 -0.3116 -0.5039
 4969SOL    HW132049   1.457   4.972   5.038 -0.4000 -0.1664 -0.8936
 4969SOL    HW232050   1.346   4.874   5.066  0.8521 -0.9714  1.5176
 4970SOL     OW32051   4.478   0.241   6.348 -0.1506  0.0396  0.1437
 4970SOL    HW132052   4.382   0.245   6.349 -0.1145  1.3735  0.2661
 4970SOL    HW232053   4.505   0.333   6.341  1.1347 -0.1873  1.6658
 4971SOL     OW32054   1.316   4.161   5.702 -0.5078  0.0770 -0.0593
 4971SOL    HW132055   1.286   4.232   5.759 -1.2722  0.5498 -1.0214
 4971SOL    HW232056   1.411   4.161   5.712 -0.5203  1.0703  0.1593
 4972SOL     OW32057   3.008   1.527   1.725 -0.0456  0.3191 -0.2248
 4972SOL    HW132058   3.051   1.502   1.807  1.2767 -1.2968 -1.3498
 4972SOL    HW232059   3.078   1.564   1.672 -0.1254 -1.6120 -1.7990
 4973SOL     OW32060   1.969   4.171   1.847  0.1499 -0.0732  0.0199
 4973SOL    HW132061   1.887   4.148   1.803  0.4700 -1.3505  0.0604
 4973SOL    HW232062   1.959   4.139   1.936  0.3851  0.4992  0.2587
 4974SOL     OW32063   2.368   4.855   0.997  0.1674  0.3419 -0.3431
 4974SOL    HW132064   2.429   4.899   0.939 -0.8395 -0.9547 -2.5404
 4974SOL    HW232065   2.286   4.851   0.947 -1.1164  0.2103  1.6670
 4975SOL     OW32066   3.239   5.131   7.015 -0.0895  0.3245  0.1876
 4975SOL    HW132067   3.333   5.117   7.008  0.0715  1.2646  0.2678
 4975SOL    HW232068   3.217   5.184   6.938 -0.7267 -0.6844 -0.3426
 4976SOL     OW32069   3.168   5.222   6.215  0.5689  0.9652  0.2955
 4976SOL    HW132070   3.181   5.234   6.121 -1.8179 -0.2218 -0.2769
 4976SOL    HW232071   3.244   5.172   6.244  1.1938  1.0782 -1.0674
 4977SOL     OW32072   1.724   0.983   6.059  0.2285 -0.2174 -0.0362
 4977SOL    HW132073   1.692   1.050   6.119  0.4574  0.0343 -0.1891
 4977SOL    HW232074   1.746   1.032   5.979 -0.1495 -0.5583 -0.3539
 4978SOL     OW32075   1.717   2.572   1.086 -0.3916 -0.1505 -0.7024
 4978SOL    HW132076   1.689   2.648   1.035  0.7763  0.0360 -1.0963
 4978SOL    HW232077   1.646   2.508   1.076 -1.5673  1.0082 -0.0493
 4979SOL     OW32078   2.115   1.059   0.957  0.2859 -0.3801 -0.4650
 4979SOL    HW132079   2.096   1.136   0.903  0.0652  0.5014  0.8311
 4979SOL    HW232080   2.054   1.065   1.030  2.2525 -0.1422  1.2398
 4980SOL     OW32081   6.496   5.052   7.241 -0.1194  0.1918 -0.0715
 4980SOL    HW132082   6.404   5.028   7.234  0.5410 -2.3217 -0.9341
 4980SOL    HW232083   6.513   5.054   7.335 -1.0812  0.9448  0.1080
 4981SOL     OW32084   0.216   0.897   6.992  0.0979  0.1343 -0.1782
 4981SOL    HW132085   0.259   0.905   6.907  1.6037 -2.3227  0.2472
 4981SOL    HW232086   0.279   0.936   7.054 -0.7573  1.4249 -0.0664
 4982SOL     OW32087   2.969   1.505   7.288 -0.1910  0.1352  0.3045
 4982SOL    HW132088   2.886   1.467   7.317 -0.1169  0.4872  0.9959
 4982SOL    HW232089   2.951   1.598   7.279 -0.1775  0.0505 -0.6890
 4983SOL     OW32090   4.465   4.011   5.159 -0.5003  0.1192 -0.2612
 4983SOL    HW132091   4.478   4.026   5.065 -2.0601  1.0664 -0.3641
 4983SOL    HW232092   4.370   4.000   5.168 -0.5707  1.6651  1.3946
 4984SOL     OW32093   2.368   3.549   1.156  0.2804 -0.3701  0.4919
 4984SOL    HW132094   2.433   3.618   1.149 -2.5715  2.4492 -0.5641
 4984SOL    HW232095   2.418   3.468   1.151  3.9734  1.4669  3.0699
 4985SOL     OW32096   5.977   2.856   0.098 -0.4359 -0.7284 -0.2843
 4985SOL    HW132097   5.936   2.897   0.022 -1.0965 -1.4744 -0.3382
 4985SOL    HW232098   5.950   2.909   0.173 -0.0800 -0.2081 -0.5206
 4986SOL     OW32099   5.782   2.060   7.207 -0.4147  0.1567  0.1383
 4986SOL    HW132100   5.783   1.998   7.135 -0.7870 -0.2566  0.4806
 4986SOL    HW232101   5.843   2.129   7.181  0.5333 -0.6932  0.0488
 4987SOL     OW32102   3.298   4.606   6.994  0.0196 -1.0040 -0.1309
 4987SOL    HW132103   3.347   4.534   6.955  0.3972 -0.1734 -1.2475
 4987SOL    HW232104   3.244   4.641   6.923  0.5936  0.4274  0.0857
 4988SOL     OW32105   6.065   6.588   6.899 -0.1938 -0.7532  0.6764
 4988SOL    HW132106   6.047   6.643   6.975 -0.6677 -1.0044  0.7475
 4988SOL    HW232107   6.058   6.498   6.932 -0.7782 -0.8673  0.2593
 4989SOL     OW32108   3.480   1.866   2.361 -0.0589  0.5598  0.1225
 4989SOL    HW132109   3.468   1.937   2.298  1.0138 -1.0894 -2.0800
 4989SOL    HW232110   3.573   1.866   2.381  0.0005 -0.3280 -0.0815
 4990SOL     OW32111   0.445   1.372   1.238 -0.0162 -0.0593  0.1787
 4990SOL    HW132112   0.449   1.448   1.295  1.6324 -0.7374  1.0286
 4990SOL    HW232113   0.373   1.319   1.273 -2.2372  1.7359 -1.3539
 4991SOL     OW32114   3.789   6.289   7.387 -0.1515  0.8523 -0.1599
 4991SOL    HW132115   3.780   6.382   7.405 -0.1183  0.3445  3.1603
 4991SOL    HW232116   3.874   6.265   7.424 -0.7146 -0.6938  0.2116
 4992SOL     OW32117   0.150   1.256   0.087  0.4932  0.0724 -0.5222
 4992SOL    HW132118   0.243   1.277   0.087  0.4248  0.5707  1.2600
 4992SOL    HW232119   0.147   1.161   0.100  0.7374 -0.0787 -1.4766
 4993SOL     OW32120   0.310   5.930   6.929 -0.0617 -0.0471  0.4407
 4993SOL    HW132121   0.380   5.888   6.978 -0.1900 -0.5775  0.1839
 4993SOL    HW232122   0.299   6.015   6.970  0.7606  0.0586  0.4573
 4994SOL     OW32123   0.811   2.638   1.569 -0.1309 -1.1797  0.1651
 4994SOL    HW132124   0.866   2.561   1.554 -0.5320 -1.5291  0.4464
 4994SOL    HW232125   0.721   2.605   1.559 -0.2858 -0.5576 -0.5714
 4995SOL     OW32126   4.632   5.077   4.994 -0.2212  0.5815  0.0266
 4995SOL    HW132127   4.702   5.023   4.956 -1.1653 -0.0671 -0.8492
 4995SOL    HW232128   4.673   5.162   5.009  1.0495 -0.1013  0.5765
 4996SOL     OW32129   4.260   0.314   0.375  0.3579  0.4600  0.1724
 4996SOL    HW132130   4.323   0.351   0.437  0.6607 -2.6689  1.9353
 4996SOL    HW232131   4.305   0.237   0.338 -2.0437 -1.3770  0.8425
 4997SOL     OW32132   1.079   2.252   0.948 -0.8247 -0.2277  0.4938
 4997SOL    HW132133   1.157   2.230   0.897 -0.3604 -0.8388  1.4321
 4997SOL    HW232134   1.032   2.314   0.893 -0.9488 -1.7198 -1.2214
 4998SOL     OW32135   0.863   2.963   1.985  0.2134  0.4055  0.6738
 4998SOL    HW132136   0.788   3.014   2.015  0.3452  0.1964  1.3741
 4998SOL    HW232137   0.832   2.919   1.906  0.3326  2.1748 -0.4316
 4999SOL     OW32138   4.416   1.993   6.151  0.4409 -0.0677 -0.4020
 4999SOL    HW132139   4.372   2.047   6.217 -1.0026 -0.7447 -0.7510
 4999SOL    HW232140   4.346   1.970   6.089  1.3755 -0.9352 -1.1706
 5000SOL     OW32141   1.792   3.641   0.363 -0.1328 -0.0910  0.2534
 5000SOL    HW132142   1.874   3.679   0.393  1.8609 -2.2320 -2.0052
 5000SOL    HW232143   1.748   3.712   0.316  0.9930  0.7995  0.4959
 5001SOL     OW32144   2.786   6.131   6.287  0.0773  0.1522  0.1789
 5001SOL    HW132145   2.866   6.096   6.327 -0.1295  0.2637  0.7099
 5001SOL    HW232146   2.817   6.190   6.218  0.4901  1.0744  1.1142
 5002SOL     OW32147   0.295   4.608   1.497  0.4837  0.4515 -0.3972
 5002SOL    HW132148   0.355   4.589   1.569  0.5499 -0.1747 -0.6097
 5002SOL    HW232149   0.290   4.703   1.495 -0.8392  0.4822  1.5220
 5003SOL     OW32150   2.450   4.116   0.777  0.3500 -0.2252 -0.4175
 5003SOL    HW132151   2.380   4.179   0.791 -0.7576 -1.6220  0.6039
 5003SOL    HW232152   2.405   4.031   0.771  1.8279 -0.9939 -1.2330
 5004SOL     OW32153   0.951   1.919   7.302  0.0297  0.4620 -0.1202
 5004SOL    HW132154   0.958   1.854   7.232  0.4978  0.4715 -0.0918
 5004SOL    HW232155   0.862   1.909   7.336  1.0738 -2.6365  2.2212
 5005SOL     OW32156   0.572   2.060   0.339 -0.8404  0.2394 -0.6682
 5005SOL    HW132157   0.597   2.136   0.392 -1.6143  0.7556 -1.0220
 5005SOL    HW232158   0.645   1.999   0.347 -0.5232  0.7277  0.1964
 5006SOL     OW32159   4.363   3.408   2.415 -0.1261 -0.3116 -0.2656
 5006SOL    HW132160   4.347   3.447   2.329  1.7771  2.5096  0.5488
 5006SOL    HW232161   4.434   3.345   2.400  0.9586  0.9600 -0.6236
 5007SOL     OW32162   2.931   1.664   5.552  0.1773  0.1863  0.1622
 5007SOL    HW132163   2.898   1.674   5.642  0.6905 -1.7104  0.5981
 5007SOL    HW232164   2.907   1.575   5.527  0.2428  0.6176 -1.5254
 5008SOL     OW32165   3.840   5.309   1.751 -0.4298  0.1946  0.3268
 5008SOL    HW132166   3.868   5.223   1.720 -1.7290 -0.4237  0.7890
 5008SOL    HW232167   3.909   5.337   1.811  0.5867  0.0301 -0.7345
 5009SOL     OW32168   3.036   2.119   7.331 -0.1813  0.0030 -0.0350
 5009SOL    HW132169   3.101   2.184   7.359  1.4441 -1.5986  0.1393
 5009SOL    HW232170   2.973   2.115   7.403  1.2276 -0.5412  1.2326
 5010SOL     OW32171   6.563   4.175   6.962 -0.2557 -0.2924 -0.5845
 5010SOL    HW132172   6.628   4.224   6.911  0.3395 -0.5038 -0.0381
 5010SOL    HW232173   6.604   4.161   7.047 -0.3221 -1.9462 -0.8000
 5011SOL     OW32174   6.353   3.053   7.370 -0.1380  0.0722  0.1759
 5011SOL    HW132175   6.428   3.113   7.362 -0.4019  0.2785 -0.8357
 5011SOL    HW232176   6.282   3.097   7.323 -0.8432 -0.2273  0.9339
 5012SOL     OW32177   3.832   4.900   6.572 -0.1197  0.4355 -0.3779
 5012SOL    HW132178   3.815   4.958   6.646  0.6157  1.9678 -1.3773
 5012SOL    HW232179   3.926   4.906   6.557  0.2462 -2.1563  0.3797
 5013SOL     OW32180   2.086   0.767   6.577  0.6385  0.0513  0.4424
 5013SOL    HW132181   2.053   0.759   6.666  0.4633  0.4827  0.4173
 5013SOL    HW232182   2.021   0.821   6.532  1.0449  0.3602  0.2215
 5014SOL     OW32183   2.631   6.098   0.265 -0.2927  0.2153 -0.2399
 5014SOL    HW132184   2.554   6.071   0.214  0.0139  1.8435 -1.6320
 5014SOL    HW232185   2.704   6.049   0.227 -0.7948 -2.8098  2.3120
 5015SOL     OW32186   2.972   6.227   0.791  0.1314  0.1879  0.0407
 5015SOL    HW132187   3.054   6.238   0.743  1.3831  0.4109  2.0854
 5015SOL    HW232188   2.994   6.168   0.863 -2.4533 -2.8425 -1.3805
 5016SOL     OW32189   6.197   5.415   7.087  0.0857 -0.3747 -0.1897
 5016SOL    HW132190   6.288   5.397   7.111 -0.1170 -1.4681 -0.1533
 5016SOL    HW232191   6.175   5.496   7.133  0.8980 -0.3536  0.1814
 5017SOL     OW32192   4.521   1.016   6.567 -0.6445  0.0814 -0.1872
 5017SOL    HW132193   4.587   0.963   6.613 -1.3739 -0.3921  0.3270
 5017SOL    HW232194   4.559   1.104   6.564 -0.8286  0.2884  1.8952
 5018SOL     OW32195   2.977   1.990   0.770  0.1412 -0.3556 -0.6144
 5018SOL    HW132196   2.981   2.080   0.738  2.1032 -0.7335 -1.6165
 5018SOL    HW232197   2.981   1.998   0.866 -1.4377  0.6423 -0.6056
 5019SOL     OW32198   6.143   1.434   0.882 -0.3519  0.0242 -0.2989
 5019SOL    HW132199   6.166   1.382   0.959 -1.4793  1.3546  1.0323
 5019SOL    HW232200   6.082   1.380   0.833 -1.3167 -0.0489  0.9296
 5020SOL     OW32201   3.858   0.245   2.042 -0.0294  0.2030  0.2100
 5020SOL    HW132202   3.881   0.175   2.103 -2.2168  2.3802  3.9238
 5020SOL    HW232203   3.782   0.212   1.994  0.3988 -0.7829  0.1961
 5021SOL     OW32204   0.837   2.529   7.107 -0.3968 -0.0730 -0.2248
 5021SOL    HW132205   0.788   2.594   7.058 -0.4399 -1.7371 -2.5637
 5021SOL    HW232206   0.902   2.496   7.044 -0.5985 -2.4718  0.7309
 5022SOL     OW32207   2.104   3.054   2.054  0.2722  0.4123 -0.3737
 5022SOL    HW132208   2.063   2.972   2.083  0.3288  0.0644 -1.2536
 5022SOL    HW232209   2.033   3.119   2.059  0.2290  0.3169  0.3279
 5023SOL     OW32210   1.735   6.126   5.826 -0.8189  0.4231 -0.0598
 5023SOL    HW132211   1.716   6.070   5.750 -0.2517 -1.2005  0.9486
 5023SOL    HW232212   1.723   6.215   5.793 -0.3170 -0.2155 -2.1399
 5024SOL     OW32213   2.607   4.106   6.440 -0.1532 -0.1085  0.2936
 5024SOL    HW132214   2.668   4.099   6.366 -0.5773 -0.0554 -0.0700
 5024SOL    HW232215   2.662   4.120   6.516  0.2162  1.9156 -0.2833
 5025SOL     OW32216   4.368   4.235   1.183  0.2374 -0.0315 -0.1254
 5025SOL    HW132217   4.392   4.217   1.092  1.5679  0.1175  0.1786
 5025SOL    HW232218   4.297   4.173   1.201  1.3041 -1.4799 -0.6687
 5026SOL     OW32219   5.387   4.191   5.872 -0.4770 -0.0842 -0.4134
 5026SOL    HW132220   5.424   4.172   5.785 -0.5342  1.7832 -0.8934
 5026SOL    HW232221   5.411   4.283   5.888 -1.5359 -0.0309  1.0072
 5027SOL     OW32222   3.726   3.544   6.743  0.5622  0.6884 -0.3959
 5027SOL    HW132223   3.716   3.450   6.728  0.9491  0.3771  1.1485
 5027SOL    HW232224   3.815   3.564   6.714  0.3712  0.6647 -1.0277
 5028SOL     OW32225   1.481   5.364   0.109 -0.1540 -0.4119 -0.4389
 5028SOL    HW132226   1.559   5.367   0.054  0.6133  0.2584  0.6424
 5028SOL    HW232227   1.502   5.419   0.184 -2.0171  0.5381 -0.5536
 5029SOL     OW32228   0.693   3.922   1.481 -0.4661 -0.2382 -0.1229
 5029SOL    HW132229   0.776   3.898   1.440 -0.7264 -0.3328 -0.5905
 5029SOL    HW232230   0.694   4.018   1.483 -0.0035 -0.2499  0.5770
 5030SOL     OW32231   2.285   4.540   6.157 -0.3273  0.0985  0.5509
 5030SOL    HW132232   2.227   4.466   6.138  0.0405 -0.3685  1.2317
 5030SOL    HW232233   2.227   4.608   6.192 -0.3486 -0.7364  2.2354
 5031SOL     OW32234   4.890   2.159   6.582  0.5067  0.2089 -0.0341
 5031SOL    HW132235   4.879   2.244   6.540  0.6610  0.3154  0.1362
 5031SOL    HW232236   4.949   2.111   6.524  0.5778  0.2913 -0.0304
 5032SOL     OW32237   4.182   1.102   0.041 -0.5367 -0.4320 -0.0230
 5032SOL    HW132238   4.227   1.018   0.026  1.6568  0.6064  0.3895
 5032SOL    HW232239   4.124   1.085   0.115 -0.5933 -1.7334 -0.3328
 5033SOL     OW32240   2.660   5.724   0.198  0.5429 -0.3285 -0.2260
 5033SOL    HW132241   2.647   5.754   0.288 -0.1913 -1.2478 -0.0055
 5033SOL    HW232242   2.580   5.675   0.177 -0.2862  1.6692 -2.1496
 5034SOL     OW32243   1.269   2.369   1.226 -0.0639  0.1341 -0.1698
 5034SOL    HW132244   1.194   2.310   1.236 -0.4338  0.8105  1.4633
 5034SOL    HW232245   1.254   2.437   1.292  1.3521  0.9775 -0.6841
 5035SOL     OW32246   1.549   5.847   6.152 -0.2089 -0.3760 -0.4898
 5035SOL    HW132247   1.463   5.858   6.110 -0.0776  1.4172 -0.3659
 5035SOL    HW232248   1.611   5.845   6.079 -0.2631 -0.5847 -0.5302
 5036SOL     OW32249   1.959   3.472   6.747 -0.0913 -0.0735 -0.4868
 5036SOL    HW132250   1.945   3.523   6.666  1.3866  0.7217 -0.2742
 5036SOL    HW232251   1.968   3.382   6.717 -0.8549  0.0320 -1.0712
 5037SOL     OW32252   6.315   0.724   1.978 -0.2398 -0.9597 -0.2952
 5037SOL    HW132253   6.248   0.659   1.999 -1.9731  1.2383  1.3828
 5037SOL    HW232254   6.275   0.779   1.910  0.3773 -0.3654 -0.1913
 5038SOL     OW32255   3.462   2.821   6.637 -0.0678  0.0008  0.0187
 5038SOL    HW132256   3.529   2.839   6.703 -0.3418  0.3989  0.1934
 5038SOL    HW232257   3.474   2.729   6.614  0.0312 -0.1392  0.6256
 5039SOL     OW32258   5.136   5.551   5.183 -0.5457 -0.2050 -0.2477
 5039SOL    HW132259   5.182   5.489   5.240  0.3217 -0.1412 -0.8471
 5039SOL    HW232260   5.179   5.635   5.200  0.0934 -0.2818 -1.3485
 5040SOL     OW32261   2.056   3.785   6.549  0.2829 -0.4097 -0.4897
 5040SOL    HW132262   2.141   3.829   6.558 -0.8636  1.9056 -0.0496
 5040SOL    HW232263   1.998   3.835   6.607 -1.4856 -1.6331 -1.1324
 5041SOL     OW32264   5.478   2.103   2.287  0.2321  0.3069  0.2486
 5041SOL    HW132265   5.562   2.061   2.307  0.9310  0.6760 -1.6877
 5041SOL    HW232266   5.457   2.073   2.199 -1.9350 -0.1307  0.8552
 5042SOL     OW32267   5.288   0.984   6.453 -0.2257 -0.0948  0.0228
 5042SOL    HW132268   5.324   0.896   6.442 -0.8077 -0.3603  0.2073
 5042SOL    HW232269   5.353   1.030   6.506 -0.9281 -1.0796  1.8033
 5043SOL     OW32270   3.936   5.283   2.152 -1.0148  0.3406 -0.3732
 5043SOL    HW132271   3.849   5.322   2.165 -0.8433  1.0861 -1.4160
 5043SOL    HW232272   3.997   5.350   2.183 -0.7191  0.9458 -2.1816
 5044SOL     OW32273   5.468   1.811   6.239  0.4475 -0.7650  0.7140
 5044SOL    HW132274   5.527   1.833   6.167  0.9331 -1.2548  0.9573
 5044SOL    HW232275   5.526   1.786   6.311 -0.0097  0.3054  1.4759
 5045SOL     OW32276   4.670   2.231   5.223  0.0724  0.0432  0.5499
 5045SOL    HW132277   4.655   2.306   5.280 -0.9925  0.6439 -0.5054
 5045SOL    HW232278   4.732   2.176   5.273 -0.1754  0.9451  1.9078
 5046SOL     OW32279   5.218   6.544   7.162  0.0344  0.4709  0.0560
 5046SOL    HW132280   5.156   6.490   7.212 -1.3057  0.3733 -1.6484
 5046SOL    HW232281   5.186   6.541   7.072  0.9407  2.6903 -0.4014
 5047SOL     OW32282   5.620   0.162   1.310 -0.1424 -0.1992 -0.1384
 5047SOL    HW132283   5.587   0.221   1.241 -0.2910  0.4192  0.4507
 5047SOL    HW232284   5.552   0.163   1.377 -0.1186 -1.0112 -0.0962
 5048SOL     OW32285   5.507   5.797   6.384 -0.1843 -0.0703 -0.2914
 5048SOL    HW132286   5.458   5.867   6.341  1.5047  1.9500  0.8511
 5048SOL    HW232287   5.508   5.822   6.476  2.1989 -0.4551 -0.1477
 5049SOL     OW32288   3.222   1.173   0.792 -0.2041  0.4809 -0.4292
 5049SOL    HW132289   3.143   1.164   0.738  1.2773  1.7416 -3.0022
 5049SOL    HW232290   3.270   1.092   0.779  0.5904  1.1460 -1.8622
 5050SOL     OW32291   0.110   1.067   0.425  0.0468  0.7471 -0.4206
 5050SOL    HW132292   0.044   1.136   0.430 -0.6182  0.1000  0.1340
 5050SOL    HW232293   0.075   1.005   0.361  0.8701  1.1574 -1.2701
 5051SOL     OW32294   0.189   0.893   6.461  0.3161  0.0682  0.6074
 5051SOL    HW132295   0.133   0.893   6.384 -0.6001  0.3064  1.2549
 5051SOL    HW232296   0.208   0.986   6.476  1.2337 -0.0348  0.1576
 5052SOL     OW32297   4.749   2.669   0.267 -0.2223  0.5795 -0.4816
 5052SOL    HW132298   4.691   2.606   0.310  0.5941 -1.0258 -1.6381
 5052SOL    HW232299   4.837   2.639   0.289  0.1905  0.8839 -1.6626
 5053SOL     OW32300   0.490   3.247   6.606  0.3444 -0.5824  0.3380
 5053SOL    HW132301   0.419   3.307   6.629 -0.8503 -1.4167 -0.9972
 5053SOL    HW232302   0.467   3.164   6.649  2.1080 -0.0997  2.3800
 5054SOL     OW32303   4.106   1.972   1.704  0.1903  0.4407 -0.3477
 5054SOL    HW132304   4.031   1.952   1.760 -1.3693  1.2174 -2.0658
 5054SOL    HW232305   4.158   1.891   1.705 -0.2952  0.1070  1.3964
 5055SOL     OW32306   5.478   1.175   0.202  0.4994  0.2566 -0.0992
 5055SOL    HW132307   5.551   1.160   0.142  0.3250 -0.4927 -0.1302
 5055SOL    HW232308   5.418   1.231   0.153  0.6342  0.1343 -0.4051
 5056SOL     OW32309   4.540   0.028   1.280  0.3530  0.2110  0.2993
 5056SOL    HW132310   4.618  -0.027   1.270  1.6717  1.8903  0.8447
 5056SOL    HW232311   4.518   0.022   1.373 -0.4245 -0.5803  0.0679
 5057SOL     OW32312   6.035   1.895   0.323  0.4883 -0.1820 -0.4194
 5057SOL    HW132313   5.986   1.830   0.272  0.0474 -0.8917  0.8533
 5057SOL    HW232314   6.113   1.847   0.352  0.3967 -0.0115  0.1240
 5058SOL     OW32315   0.016   1.641   6.656  0.0234  0.6829  0.0108
 5058SOL    HW132316  -0.056   1.636   6.594  0.2359  0.2647 -0.2117
 5058SOL    HW232317   0.092   1.607   6.608  0.4580  1.4725  0.1137
 5059SOL     OW32318   2.095   5.535   5.569  0.7724 -0.3068  0.1853
 5059SOL    HW132319   2.055   5.503   5.487 -0.0455 -0.1103  0.5023
 5059SOL    HW232320   2.128   5.622   5.547  0.7072 -0.3245  0.0122
 5060SOL     OW32321   5.170   2.423   7.153  0.5049  0.3745 -0.3624
 5060SOL    HW132322   5.172   2.385   7.242 -0.1149 -0.1634 -0.5733
 5060SOL    HW232323   5.238   2.490   7.155  0.8743 -0.0037  0.3612
 5061SOL     OW32324   5.690   4.320   6.169  0.6809 -0.0525 -0.0925
 5061SOL    HW132325   5.707   4.272   6.249  0.5051 -0.4497 -0.2905
 5061SOL    HW232326   5.595   4.315   6.157  0.9268 -2.3232 -1.7392
 5062SOL     OW32327   4.754   2.511   6.961  0.2069 -0.1183 -0.4067
 5062SOL    HW132328   4.691   2.439   6.963  0.2313 -0.1804 -1.3076
 5062SOL    HW232329   4.813   2.494   7.035 -1.1858  0.2774  0.8421
 5063SOL     OW32330   5.004   4.458   2.113 -0.3126 -0.5394 -0.1024
 5063SOL    HW132331   5.025   4.368   2.092 -0.3955 -0.1793 -1.9318
 5063SOL    HW232332   4.956   4.490   2.036  1.8851  1.7750 -0.6490
 5064SOL     OW32333   4.117   2.892   1.677 -0.2312 -0.3502 -0.4962
 5064SOL    HW132334   4.086   2.944   1.750  2.2290  3.1293 -1.6703
 5064SOL    HW232335   4.051   2.903   1.609 -0.2571  0.3069 -0.3646
 5065SOL     OW32336   4.886   2.965   2.145 -0.3946  0.1198  0.0312
 5065SOL    HW132337   4.815   2.951   2.082 -0.8327  0.8902  0.3429
 5065SOL    HW232338   4.903   3.059   2.141 -1.2465  0.3906  1.9085
 5066SOL     OW32339   4.850   5.619   7.102 -0.1623  0.1635  0.1942
 5066SOL    HW132340   4.850   5.532   7.143 -0.2697  0.1478  0.1591
 5066SOL    HW232341   4.777   5.665   7.142 -0.6952 -0.0858 -0.4854
 5067SOL     OW32342   0.140   4.092   5.947  0.0998  0.3738 -0.1713
 5067SOL    HW132343   0.178   4.067   5.862  1.0315 -0.2367  0.4016
 5067SOL    HW232344   0.093   4.014   5.976  0.0901  0.4592  0.0441
 5068SOL     OW32345   2.476   0.959   0.833 -0.3295 -0.1428 -0.9681
 5068SOL    HW132346   2.425   0.925   0.760 -2.3261 -1.0373  0.7333
 5068SOL    HW232347   2.565   0.926   0.817 -0.9267 -1.1666 -2.4415
 5069SOL     OW32348   3.860   5.701   7.282  0.2290  0.2685 -0.1315
 5069SOL    HW132349   3.929   5.654   7.236 -0.4839 -2.3660  1.2920
 5069SOL    HW232350   3.779   5.658   7.256 -0.6082  1.4580  0.3776
 5070SOL     OW32351   5.235   5.331   6.815  0.4080  0.0128 -0.1097
 5070SOL    HW132352   5.176   5.291   6.879  1.1478 -0.4697  0.2841
 5070SOL    HW232353   5.178   5.359   6.744 -0.2757 -0.6128  0.1819
 5071SOL     OW32354   5.577   5.450   0.688 -0.1575 -0.2577  0.2271
 5071SOL    HW132355   5.596   5.501   0.609 -0.1498 -2.3173 -1.1710
 5071SOL    HW232356   5.663   5.416   0.715  0.0462  1.4273  1.9188
 5072SOL     OW32357   1.159   5.630   1.332  0.4749 -0.2358 -0.1340
 5072SOL    HW132358   1.210   5.709   1.314  2.3273 -1.4681 -0.6329
 5072SOL    HW232359   1.137   5.596   1.246 -0.8697  0.0416  0.0809
 5073SOL     OW32360   1.988   6.124   5.963  0.1459  0.4706  0.3726
 5073SOL    HW132361   2.039   6.062   5.912 -1.2331 -1.1059  0.7897
 5073SOL    HW232362   1.910   6.140   5.910 -1.5491 -1.5892  2.0525
 5074SOL     OW32363   0.839   5.291   6.744  0.0567  0.0542 -0.2272
 5074SOL    HW132364   0.750   5.301   6.778 -0.1543 -2.7012  0.3023
 5074SOL    HW232365   0.857   5.197   6.753  2.6618  0.3808 -1.2425
 5075SOL     OW32366   4.831   3.476   6.639  0.1140 -0.1822  0.1744
 5075SOL    HW132367   4.769   3.410   6.668  0.2919  0.0517  1.1332
 5075SOL    HW232368   4.784   3.525   6.571  1.0779 -3.2672 -2.9851
 5076SOL     OW32369   1.667   4.444   1.129 -0.2180  0.6815 -0.5115
 5076SOL    HW132370   1.762   4.441   1.118  0.0977  1.5361  1.6175
 5076SOL    HW232371   1.643   4.355   1.154  0.2604  0.8150  0.4678
 5077SOL     OW32372   6.208   4.983   0.424  0.3264  0.1174  0.2979
 5077SOL    HW132373   6.252   4.987   0.508 -0.7305 -0.9852  0.9306
 5077SOL    HW232374   6.219   4.893   0.394 -2.5977 -0.6546  1.1602
 5078SOL     OW32375   3.127   1.829   5.577 -0.2431  0.2471  0.6804
 5078SOL    HW132376   3.055   1.775   5.544  0.3489 -0.7472  0.9918
 5078SOL    HW232377   3.097   1.919   5.563 -0.5408 -0.1237 -1.4261
 5079SOL     OW32378   3.851   2.628   6.274  0.1615  0.3310  0.1119
 5079SOL    HW132379   3.786   2.680   6.227 -0.1619 -0.5759 -0.4614
 5079SOL    HW232380   3.817   2.539   6.271  2.1289 -0.4150 -1.4605
 5080SOL     OW32381   5.587   1.734   1.531  0.2069  0.0916  0.1479
 5080SOL    HW132382   5.530   1.662   1.505  0.3521  0.1803 -0.4406
 5080SOL    HW232383   5.617   1.711   1.619  0.7110 -0.8549 -0.2608
 5081SOL     OW32384   3.117   5.393   0.478  0.0540 -0.0951  0.6638
 5081SOL    HW132385   3.166   5.350   0.408  1.5908 -1.8902  2.7051
 5081SOL    HW232386   3.029   5.403   0.444  0.3264 -2.4500 -0.9225
 5082SOL     OW32387   0.402   2.940   6.003  0.6658  0.0718  0.1491
 5082SOL    HW132388   0.494   2.920   6.019  1.1231  1.0959 -1.0455
 5082SOL    HW232389   0.365   2.858   5.971  1.1025 -0.3936  0.7951
 5083SOL     OW32390   4.994   1.541   7.381  0.0342 -0.2466 -0.4752
 5083SOL    HW132391   5.040   1.463   7.350  1.6322  0.1049  0.8331
 5083SOL    HW232392   4.908   1.509   7.406  0.0031 -1.2184 -1.6978
 5084SOL     OW32393   1.875   3.317   5.921  0.1407  0.1737  0.4083
 5084SOL    HW132394   1.792   3.364   5.924  0.9481  1.7425 -0.6267
 5084SOL    HW232395   1.883   3.288   5.830  1.9184  2.4232 -0.2528
 5085SOL     OW32396   3.730   3.622   7.284  0.3551  0.2758 -0.6645
 5085SOL    HW132397   3.785   3.672   7.223  0.4174 -0.1068 -0.9278
 5085SOL    HW232398   3.655   3.594   7.231  0.8467 -0.8254 -0.8130
 5086SOL     OW32399   1.382   1.827   2.087 -0.1685 -0.3481 -0.4268
 5086SOL    HW132400   1.323   1.768   2.133 -3.0280  2.6014  0.0694
 5086SOL    HW232401   1.430   1.872   2.158  1.9564 -1.8763 -0.7929
 5087SOL     OW32402   2.888   2.007   5.848 -0.3965 -0.6205  0.3271
 5087SOL    HW132403   2.820   2.051   5.899 -2.3171 -0.9272 -1.7796
 5087SOL    HW232404   2.841   1.973   5.771  2.2127 -0.5177 -1.4315
 5088SOL     OW32405   4.872   4.641   1.241 -0.4417 -0.4065 -0.5448
 5088SOL    HW132406   4.927   4.622   1.165  1.3048  2.1224 -0.0310
 5088SOL    HW232407   4.933   4.645   1.315 -1.5200  0.9492  0.3265
 5089SOL     OW32408   3.152   2.630   0.499 -0.7288  0.0671 -0.2731
 5089SOL    HW132409   3.227   2.670   0.544 -0.8965  0.3604 -0.2468
 5089SOL    HW232410   3.150   2.673   0.414 -1.6381  1.0127  0.2012
 5090SOL     OW32411   0.614   4.862   0.496 -0.0014  0.5045  0.2176
 5090SOL    HW132412   0.559   4.936   0.474 -1.1585 -0.9565 -2.1803
 5090SOL    HW232413   0.602   4.851   0.591 -0.4018  2.8362  0.4911
 5091SOL     OW32414   3.275   5.450   7.172  0.0415  0.4625  0.1296
 5091SOL    HW132415   3.303   5.388   7.239 -0.4591  0.2604  0.1606
 5091SOL    HW232416   3.348   5.456   7.111 -0.6727 -1.8195 -1.0698
 5092SOL     OW32417   2.442   4.517   7.163 -0.4786 -0.6382  0.0844
 5092SOL    HW132418   2.392   4.440   7.191 -0.8553 -0.5988 -0.4629
 5092SOL    HW232419   2.376   4.585   7.153 -0.1459 -0.2436  0.5473
 5093SOL     OW32420   4.531   1.845   1.160 -0.1617 -0.1328  0.6738
 5093SOL    HW132421   4.602   1.907   1.176  1.2563 -0.5486 -3.0043
 5093SOL    HW232422   4.486   1.880   1.083 -1.7622 -1.7154  0.8274
 5094SOL     OW32423   1.420   4.135   1.259  0.3745 -0.6367  0.1929
 5094SOL    HW132424   1.382   4.193   1.325 -1.2694 -0.0459 -1.2073
 5094SOL    HW232425   1.428   4.050   1.303 -0.3379 -0.1731  1.2481
 5095SOL     OW32426   6.106   4.891   5.093 -0.3479  0.0905  0.0117
 5095SOL    HW132427   6.128   4.933   5.176 -1.2255  1.1728 -0.2836
 5095SOL    HW232428   6.065   4.808   5.119 -1.2225  0.7105  0.6972
 5096SOL     OW32429   6.322   5.805   0.375 -0.2330  0.1801  0.5376
 5096SOL    HW132430   6.366   5.798   0.290  0.8220 -0.9440  1.1423
 5096SOL    HW232431   6.245   5.858   0.357  0.6165  1.0244 -0.8639
 5097SOL     OW32432   1.340   2.662   0.873 -0.2930  0.0744 -0.3048
 5097SOL    HW132433   1.289   2.733   0.834  0.6359  0.0301 -1.6580
 5097SOL    HW232434   1.380   2.701   0.951 -0.1310  0.9203 -0.8023
 5098SOL     OW32435   3.302   1.072   6.594 -0.5483  0.1151  0.0257
 5098SOL    HW132436   3.269   1.021   6.669  0.2956 -1.1302 -0.4145
 5098SOL    HW232437   3.392   1.041   6.582  0.4653  2.6209  0.4988
 5099SOL     OW32438   4.636   2.922   1.757 -0.0848 -0.1016 -0.2071
 5099SOL    HW132439   4.542   2.935   1.740 -0.0263  2.3597  1.0467
 5099SOL    HW232440   4.639   2.870   1.837 -0.3175 -1.5452 -1.0866
 5100SOL     OW32441   5.468   4.616   0.525  0.0507 -0.2589  0.0024
 5100SOL    HW132442   5.520   4.639   0.601 -0.9855 -1.7038  1.2138
 5100SOL    HW232443   5.387   4.667   0.535  0.2936  0.2796 -0.6718
 5101SOL     OW32444   5.388   4.597   6.910  0.5662 -0.0276  0.4745
 5101SOL    HW132445   5.458   4.661   6.924  0.6798  0.0861 -0.5802
 5101SOL    HW232446   5.379   4.590   6.815 -1.1058  0.2352  0.5813
 5102SOL     OW32447   5.076   2.968   6.642  0.0459  0.0600  0.0209
 5102SOL    HW132448   5.102   2.943   6.731 -0.4487  0.3613  0.2535
 5102SOL    HW232449   5.046   3.058   6.650  0.4683  0.2589 -0.5487
 5103SOL     OW32450   2.271   1.051   5.692 -0.2001  0.1420 -0.5001
 5103SOL    HW132451   2.229   1.016   5.613 -0.7799 -0.7755  0.1865
 5103SOL    HW232452   2.316   1.130   5.663 -0.2003 -0.3120 -1.7987
 5104SOL     OW32453   0.443   4.192   6.783  0.5126 -0.1156 -0.4158
 5104SOL    HW132454   0.479   4.109   6.812 -1.8599 -1.8731 -2.1394
 5104SOL    HW232455   0.483   4.209   6.698 -0.6253 -0.6915 -1.0915
 5105SOL     OW32456   2.821   0.120   0.842  0.4521  0.2840  0.2106
 5105SOL    HW132457   2.885   0.056   0.811 -1.0459 -1.8415  1.3297
 5105SOL    HW232458   2.744   0.069   0.865 -1.3291  2.6454 -0.1025
 5106SOL     OW32459   0.951   1.785   6.648 -0.0337  0.3903 -0.0295
 5106SOL    HW132460   0.930   1.718   6.583 -0.7807  0.2741  0.3268
 5106SOL    HW232461   0.898   1.861   6.623  0.9611  0.9405 -0.5540
 5107SOL     OW32462   3.413   1.037   2.088 -0.2019  0.1727  0.9479
 5107SOL    HW132463   3.509   1.037   2.094 -0.1821  0.7039  0.6441
 5107SOL    HW232464   3.384   1.029   2.179  0.1252 -1.1760  0.9584
 5108SOL     OW32465   1.302   6.449   1.531 -0.6831  0.2630 -0.1387
 5108SOL    HW132466   1.268   6.382   1.591  0.3748  0.3901  0.6273
 5108SOL    HW232467   1.290   6.531   1.578  2.5372  0.1580  1.1403
 5109SOL     OW32468   2.133   1.486   0.640 -0.0239 -0.1824 -0.2814
 5109SOL    HW132469   2.228   1.491   0.651 -0.2870  0.4046  2.2591
 5109SOL    HW232470   2.104   1.578   0.637 -0.3893 -0.2995 -3.1440
 5110SOL     OW32471   4.763   4.821   1.668  0.0733  0.7753 -0.3480
 5110SOL    HW132472   4.687   4.875   1.645  0.2770  0.8247 -0.9239
 5110SOL    HW232473   4.800   4.796   1.583  1.3280  1.6275 -0.0724
 5111SOL     OW32474   1.929   5.161   0.925  0.0803  0.5324  0.2051
 5111SOL    HW132475   1.853   5.136   0.978  0.0885  0.6646  0.2809
 5111SOL    HW232476   1.977   5.223   0.980  0.4531  0.1504  0.3155
 5112SOL     OW32477   5.270   0.831   1.568 -0.2956  0.2882 -0.8611
 5112SOL    HW132478   5.210   0.762   1.596 -1.5948  1.3011 -1.0849
 5112SOL    HW232479   5.332   0.840   1.640 -0.9247 -0.1933 -0.2485
 5113SOL     OW32480   3.697   4.376   5.621  0.3213  0.2757 -0.1138
 5113SOL    HW132481   3.699   4.286   5.588  1.4326  0.6395 -1.0900
 5113SOL    HW232482   3.764   4.422   5.571 -1.0479  1.9621 -0.5115
 5114SOL     OW32483   5.282   6.592   0.790 -0.6584 -0.1943  0.1973
 5114SOL    HW132484   5.346   6.592   0.719 -1.2835  0.5142 -0.3859
 5114SOL    HW232485   5.303   6.514   0.841  0.5125 -0.1017 -0.1136
 5115SOL     OW32486   2.832   1.018   6.870 -0.5675 -0.1257 -0.1767
 5115SOL    HW132487   2.797   0.933   6.841  2.5441 -1.1261 -1.4474
 5115SOL    HW232488   2.853   1.063   6.788  1.1820  0.2991  0.4639
 5116SOL     OW32489   4.326   4.373   0.830 -0.4792  0.1061 -0.6890
 5116SOL    HW132490   4.309   4.338   0.743 -0.7765  0.2694 -0.6960
 5116SOL    HW232491   4.243   4.362   0.877  0.3124 -2.2172  0.3346
 5117SOL     OW32492   3.918   0.324   7.318  0.0953 -0.1173  0.1406
 5117SOL    HW132493   3.860   0.262   7.274  0.6045 -0.1682 -0.4801
 5117SOL    HW232494   3.965   0.368   7.246  0.4438  0.2902  0.6073
 5118SOL     OW32495   2.656   1.706   7.178 -0.0934  0.0984 -0.3106
 5118SOL    HW132496   2.657   1.627   7.123  1.8043  1.4734 -2.4366
 5118SOL    HW232497   2.583   1.757   7.145 -2.2782 -1.2872  2.0565
 5119SOL     OW32498   5.474   2.850   6.776 -0.2787  0.3156  0.3091
 5119SOL    HW132499   5.407   2.830   6.841  0.4400 -0.5034  0.8199
 5119SOL    HW232500   5.445   2.804   6.697 -0.5358  0.3314  0.3922
 5120SOL     OW32501   1.200   2.389   6.648 -0.4444 -0.0140 -0.4159
 5120SOL    HW132502   1.246   2.354   6.571 -0.5238  2.2618 -1.5599
 5120SOL    HW232503   1.210   2.320   6.714  1.9203 -0.9503 -1.6049
 5121SOL     OW32504   4.971   2.216   2.046  0.3766  0.0440  0.8482
 5121SOL    HW132505   4.989   2.123   2.032 -2.9776 -0.8267  1.5410
 5121SOL    HW232506   4.977   2.255   1.959 -2.8644 -1.8563 -0.4068
 5122SOL     OW32507   0.393   2.875   5.258  0.2313 -0.2372  0.0294
 5122SOL    HW132508   0.371   2.945   5.198  0.1781  0.1539  0.4947
 5122SOL    HW232509   0.377   2.913   5.345  1.0365 -0.5387  0.3098
 5123SOL     OW32510   3.803   4.976   1.935 -0.2660 -0.4671  0.4366
 5123SOL    HW132511   3.792   4.881   1.933  0.7815 -0.5965 -0.0508
 5123SOL    HW232512   3.804   5.002   1.842 -1.3726  0.1384  0.5773
 5124SOL     OW32513   0.310   1.145   6.230 -0.0643 -0.0685  0.2481
 5124SOL    HW132514   0.246   1.213   6.211  2.1198  1.6136 -1.7303
 5124SOL    HW232515   0.299   1.081   6.159 -0.6104 -0.6723  0.8538
 5125SOL     OW32516   3.715   5.291   6.401  0.5234 -0.9706  0.3769
 5125SOL    HW132517   3.740   5.262   6.489 -0.8311 -0.8169  0.8472
 5125SOL    HW232518   3.635   5.242   6.382 -1.2782  1.6217  0.7791
 5126SOL     OW32519   0.030   0.442   0.732 -0.5086  0.3386  0.2747
 5126SOL    HW132520   0.078   0.403   0.806  0.0824  1.0396  0.2750
 5126SOL    HW232521   0.094   0.500   0.691 -1.0194  0.4065 -0.4327
 5127SOL     OW32522   3.152   3.554   1.709 -0.4736 -0.4150 -0.0353
 5127SOL    HW132523   3.079   3.607   1.739 -0.0379  0.1768  0.0090
 5127SOL    HW232524   3.206   3.614   1.658 -0.8226 -1.2162 -1.4207
 5128SOL     OW32525   3.488   3.815   5.577  0.0437 -0.6988  0.2910
 5128SOL    HW132526   3.486   3.902   5.617 -1.2403  0.7171 -2.5553
 5128SOL    HW232527   3.448   3.827   5.491  1.3141 -3.7876 -0.8906
 5129SOL     OW32528   0.309   5.470   6.434  0.2183  0.2522  0.4515
 5129SOL    HW132529   0.249   5.411   6.387  0.4885 -0.3674  0.8780
 5129SOL    HW232530   0.259   5.552   6.443  0.0450  0.2874 -0.6414
 5130SOL     OW32531   4.659   0.722   1.215  0.4616  0.0082 -0.3284
 5130SOL    HW132532   4.633   0.799   1.165 -1.8749 -1.4788 -1.5815
 5130SOL    HW232533   4.712   0.670   1.153 -1.0034 -1.0221 -0.7902
 5131SOL     OW32534   1.989   2.385   6.364 -0.1112  0.0397  0.5562
 5131SOL    HW132535   1.971   2.465   6.315  0.1353 -1.0992 -1.4699
 5131SOL    HW232536   1.903   2.347   6.382 -0.1448 -0.5274 -0.7367
 5132SOL     OW32537   4.840   5.493   1.778  0.4236  0.4860 -0.2648
 5132SOL    HW132538   4.855   5.495   1.684 -0.1777 -0.7907 -0.4074
 5132SOL    HW232539   4.882   5.412   1.808  1.3964  1.3256  0.7157
 5133SOL     OW32540   4.004   1.029   0.219  0.1453  0.1600  0.0687
 5133SOL    HW132541   3.978   0.943   0.253  1.4758  0.5159  2.2224
 5133SOL    HW232542   3.924   1.083   0.227 -0.3032 -0.4954  0.0709
 5134SOL     OW32543   1.629   1.009   6.433 -0.2757 -0.0088 -0.1887
 5134SOL    HW132544   1.586   1.062   6.366  1.7937  1.0012 -0.7845
 5134SOL    HW232545   1.603   1.049   6.516 -0.5571  0.5316 -0.5319
 5135SOL     OW32546   2.537   4.934   6.123 -0.3916 -0.2795  0.3997
 5135SOL    HW132547   2.608   4.999   6.126  0.2961 -1.0329  0.8212
 5135SOL    HW232548   2.504   4.931   6.212 -0.9135  0.0048  0.2222
 5136SOL     OW32549   4.687   3.964   5.605  0.6414 -0.2320  0.5154
 5136SOL    HW132550   4.637   3.890   5.638  0.5314 -0.4012 -0.0293
 5136SOL    HW232551   4.749   3.926   5.543  1.2707  0.0069  0.9875
 5137SOL     OW32552   1.336   3.926   5.536  0.1623 -0.0674  0.2962
 5137SOL    HW132553   1.302   3.996   5.591 -1.6469 -0.6903  0.0695
 5137SOL    HW232554   1.424   3.954   5.511 -0.3062  1.8522  0.6555
 5138SOL     OW32555   3.079   2.628   0.159  0.1744 -0.0888 -0.3464
 5138SOL    HW132556   3.157   2.578   0.136  0.3465  0.1951 -0.3816
 5138SOL    HW232557   3.026   2.568   0.211  1.6599  0.5811  2.1125
 5139SOL     OW32558   3.844   1.248   6.089 -0.6357  0.2766  0.0908
 5139SOL    HW132559   3.901   1.324   6.074 -1.0645  0.2545 -2.0911
 5139SOL    HW232560   3.899   1.184   6.133  0.9137  0.4448 -1.4852
 5140SOL     OW32561   6.007   6.396   1.595  0.0575 -0.0582 -0.0677
 5140SOL    HW132562   5.960   6.427   1.672  0.5794  2.8897 -0.7959
 5140SOL    HW232563   5.953   6.427   1.521 -0.1161 -2.2719 -0.9243
 5141SOL     OW32564   6.385   5.240   0.017 -0.0295 -0.4971  0.8688
 5141SOL    HW132565   6.297   5.276   0.006 -0.4845 -1.8740 -0.1811
 5141SOL    HW232566   6.392   5.222   0.111 -1.1455 -1.0574  0.8547
 5142SOL     OW32567   3.592   1.935   2.015 -0.3637 -0.0230 -0.5205
 5142SOL    HW132568   3.499   1.942   2.037 -0.5819 -3.0700 -0.0160
 5142SOL    HW232569   3.594   1.922   1.920 -0.7431 -2.3683 -0.2711
 5143SOL     OW32570   4.709   6.185   0.868  0.6893 -0.2291  0.3197
 5143SOL    HW132571   4.699   6.214   0.959 -0.5422 -0.0546  0.1408
 5143SOL    HW232572   4.678   6.258   0.815  1.3698 -0.3403 -0.2571
 5144SOL     OW32573   0.460   0.430   0.048 -0.0825  0.0365  0.0285
 5144SOL    HW132574   0.436   0.338   0.056  0.7421 -0.4587 -2.4088
 5144SOL    HW232575   0.414   0.460  -0.030  0.5824  1.3742  0.1274
 5145SOL     OW32576   2.168   1.906   0.133 -0.5997  0.4739  0.4223
 5145SOL    HW132577   2.237   1.853   0.092 -1.8510 -0.9068 -0.0060
 5145SOL    HW232578   2.112   1.932   0.060 -1.1608  0.6028  0.8964
 5146SOL     OW32579   4.332   3.137   1.140 -0.4654 -0.2980 -0.8553
 5146SOL    HW132580   4.273   3.209   1.116 -2.1272 -1.7144 -1.1661
 5146SOL    HW232581   4.414   3.181   1.166 -1.4869  1.7000 -0.8460
 5147SOL     OW32582   0.954   0.996   1.914 -0.0866  0.3400 -0.2136
 5147SOL    HW132583   0.982   1.028   1.828  1.2628 -1.6338 -0.5823
 5147SOL    HW232584   1.022   1.026   1.974 -0.4123  0.7175 -0.0294
 5148SOL     OW32585   0.065   4.335   6.744  0.1154 -0.1802  0.3912
 5148SOL    HW132586   0.061   4.354   6.650  2.4088  0.6429  0.4001
 5148SOL    HW232587   0.111   4.410   6.781 -1.3984 -0.1279  2.3237
 5149SOL     OW32588   5.153   2.000   7.129  0.0144 -0.0780 -0.0583
 5149SOL    HW132589   5.245   1.990   7.103  0.0351  0.9881 -0.4135
 5149SOL    HW232590   5.112   2.045   7.056 -0.3841  1.0938  0.8641
 5150SOL     OW32591   4.698   0.200   6.053  0.1525 -0.3724 -0.1659
 5150SOL    HW132592   4.646   0.120   6.061 -0.3269 -0.0344  0.1970
 5150SOL    HW232593   4.773   0.175   6.000  1.1237 -1.6129  1.6559
 5151SOL     OW32594   3.220   3.344   1.865  0.7808  0.8025 -0.4712
 5151SOL    HW132595   3.172   3.418   1.829  0.7999  1.6629  1.1827
 5151SOL    HW232596   3.152   3.288   1.902  0.8086  0.2218 -1.2644
 5152SOL     OW32597   1.750   4.847   6.498  0.1869 -0.4595  0.2537
 5152SOL    HW132598   1.709   4.761   6.496 -1.5696  0.3225  0.8153
 5152SOL    HW232599   1.826   4.836   6.556 -0.0682 -1.5906  0.3951
 5153SOL     OW32600   1.739   2.452   6.308 -0.5677 -0.5181  0.2852
 5153SOL    HW132601   1.725   2.543   6.283 -0.6613 -0.7449 -0.5137
 5153SOL    HW232602   1.736   2.403   6.226  0.2248 -1.1516  0.6092
 5154SOL     OW32603   2.224   0.078   0.410 -0.1935 -0.4767 -0.9182
 5154SOL    HW132604   2.274   0.070   0.491 -0.9969 -0.5599 -0.4107
 5154SOL    HW232605   2.283   0.122   0.350 -0.0342  0.8271  0.1416
 5155SOL     OW32606   1.796   3.039   0.674  0.3211  0.4677  0.5504
 5155SOL    HW132607   1.819   3.119   0.627  0.6869  0.0262 -0.0339
 5155SOL    HW232608   1.740   3.068   0.745 -3.4278  0.8199 -2.2594
 5156SOL     OW32609   3.210   4.818   6.518 -0.8840  0.5440 -0.3890
 5156SOL    HW132610   3.258   4.770   6.585  1.9510  0.4827 -2.2809
 5156SOL    HW232611   3.157   4.752   6.474 -2.2232  0.4640  1.2674
 5157SOL     OW32612   1.727   2.303   6.099 -0.1213 -0.3580  0.2639
 5157SOL    HW132613   1.717   2.215   6.134 -1.3325 -0.2991  0.1193
 5157SOL    HW232614   1.733   2.291   6.004 -1.4126 -0.2325  0.1485
 5158SOL     OW32615   1.206   0.732   6.646  0.2204 -0.5573 -0.5060
 5158SOL    HW132616   1.149   0.808   6.639  0.5662 -0.2383  0.0594
 5158SOL    HW232617   1.285   0.764   6.689  1.9218 -0.4233 -3.4941
 5159SOL     OW32618   2.914   4.948   6.330  0.1688  0.7145 -0.2132
 5159SOL    HW132619   2.872   5.033   6.318  0.7076  1.6034  3.1358
 5159SOL    HW232620   2.940   4.947   6.422  1.9859 -2.2993 -0.6216
 5160SOL     OW32621   6.565   5.418   0.221 -0.3600 -0.3641  0.5015
 5160SOL    HW132622   6.510   5.460   0.155 -0.9904 -0.2323  1.1010
 5160SOL    HW232623   6.652   5.454   0.205 -0.7790  0.7450  0.6302
 5161SOL     OW32624   2.713   1.499   7.009  0.2573  0.4040  0.4825
 5161SOL    HW132625   2.751   1.415   6.979 -0.5703 -0.1579  0.9817
 5161SOL    HW232626   2.771   1.565   6.971  3.0423 -0.4212  2.8849
 5162SOL     OW32627   0.880   3.882   6.286 -0.1796 -0.3024 -0.9871
 5162SOL    HW132628   0.828   3.926   6.354 -0.2041  1.6216 -2.1671
 5162SOL    HW232629   0.971   3.897   6.311 -0.1786 -0.8739 -0.6263
 5163SOL     OW32630   3.912   0.445   1.662  0.0093  0.6286 -0.4724
 5163SOL    HW132631   3.936   0.362   1.703  0.0256  0.6400 -0.4590
 5163SOL    HW232632   3.847   0.421   1.596 -0.5489  0.6942  0.0453
 5164SOL     OW32633   5.128   1.377   0.445  0.5956  0.0735  0.0374
 5164SOL    HW132634   5.129   1.301   0.387  0.9515 -1.0794  1.4974
 5164SOL    HW232635   5.199   1.433   0.414  0.4210 -0.2493 -0.9686
 5165SOL     OW32636   0.960   4.506   6.569 -0.4083  0.3847  0.1592
 5165SOL    HW132637   0.993   4.561   6.640 -1.6848  1.1946  0.1504
 5165SOL    HW232638   0.917   4.433   6.613  0.2629 -0.0102  0.1806
 5166SOL     OW32639   0.410   6.239   6.958  0.1695 -0.4683 -0.6478
 5166SOL    HW132640   0.383   6.249   6.867  1.3116 -0.2100 -0.9721
 5166SOL    HW232641   0.418   6.328   6.991 -1.8252 -0.5630  0.2194
 5167SOL     OW32642   0.698   1.602   5.884  0.3103 -0.5705 -0.0915
 5167SOL    HW132643   0.717   1.526   5.828 -1.8660  0.0761 -1.8451
 5167SOL    HW232644   0.604   1.598   5.898  0.5401  0.3785  2.0186
 5168SOL     OW32645   5.238   3.531   0.668  0.0532 -0.0909  0.3460
 5168SOL    HW132646   5.154   3.495   0.698 -0.7862  1.6805  0.2531
 5168SOL    HW232647   5.297   3.518   0.743 -1.0848  1.1602  1.5225
 5169SOL     OW32648   6.572   3.962   5.377 -0.5928  0.2163  0.3092
 5169SOL    HW132649   6.580   3.997   5.288  1.6907 -1.3211 -0.1758
 5169SOL    HW232650   6.613   3.876   5.372 -0.6690 -0.0218  2.8231
 5170SOL     OW32651   0.161   0.621   6.546 -0.0783 -0.6274 -0.4084
 5170SOL    HW132652   0.243   0.584   6.514  1.0878  1.6820 -0.2418
 5170SOL    HW232653   0.164   0.713   6.520 -2.6925 -0.4983 -0.5003
 5171SOL     OW32654   5.556   6.131   7.471  0.1735  0.4698 -0.4133
 5171SOL    HW132655   5.540   6.050   7.520  0.5092 -0.1605 -1.3242
 5171SOL    HW232656   5.525   6.200   7.529  0.5008 -0.2579  0.6619
 5172SOL     OW32657   2.407   3.114   0.027 -0.3272  0.5052  0.2303
 5172SOL    HW132658   2.363   3.136   0.109 -1.7424 -0.6249 -0.1841
 5172SOL    HW232659   2.444   3.028   0.042  2.4318  1.6770  0.7821
 5173SOL     OW32660   4.817   0.819   1.970  0.1180  0.3684 -0.3819
 5173SOL    HW132661   4.829   0.734   1.929  0.4249  0.2580 -0.0724
 5173SOL    HW232662   4.900   0.864   1.957  1.0583 -0.4897  1.9887
 5174SOL     OW32663   5.328   3.597   6.618  0.2108 -0.2196 -0.1888
 5174SOL    HW132664   5.274   3.664   6.661  1.2203  0.4836  0.0353
 5174SOL    HW232665   5.284   3.514   6.638 -0.3535  0.2587  0.6460
 5175SOL     OW32666   0.130   2.853   1.237  0.2545  0.3175 -0.0423
 5175SOL    HW132667   0.223   2.869   1.251 -0.1451  1.5640  1.5269
 5175SOL    HW232668   0.101   2.807   1.316 -0.1789 -1.6034 -1.2345
 5176SOL     OW32669   5.622   2.682   6.227 -0.0377 -0.3102  0.0524
 5176SOL    HW132670   5.531   2.659   6.249 -0.2114 -0.3464 -0.6822
 5176SOL    HW232671   5.660   2.600   6.196  0.3410 -0.3606  0.6339
 5177SOL     OW32672   3.725   2.393   6.261  0.3809 -0.3802 -0.0095
 5177SOL    HW132673   3.742   2.301   6.284 -1.1800 -0.4320  1.0970
 5177SOL    HW232674   3.654   2.387   6.196  0.8377  0.0311 -0.5579
 5178SOL     OW32675   1.964   3.701   6.179 -0.1713 -0.5309 -0.3061
 5178SOL    HW132676   2.046   3.746   6.159 -0.7446 -0.2872 -2.2201
 5178SOL    HW232677   1.923   3.755   6.246  2.6124 -2.3085  3.2079
 5179SOL     OW32678   2.935   1.007   1.322  0.5926 -0.4198 -0.0157
 5179SOL    HW132679   2.914   0.985   1.412 -0.2771 -0.4967 -0.2258
 5179SOL    HW232680   3.030   1.005   1.318  0.6945  0.7278  1.1902
 5180SOL     OW32681   1.111   6.282   0.456 -0.4679  0.1305  0.8071
 5180SOL    HW132682   1.127   6.293   0.549 -2.5860  0.4880  1.1844
 5180SOL    HW232683   1.039   6.342   0.437 -1.9802 -1.9674 -0.4314
 5181SOL     OW32684   3.361   0.878   5.015 -0.3419 -0.3858 -0.6540
 5181SOL    HW132685   3.341   0.955   4.962  0.1824  0.4868  0.3754
 5181SOL    HW232686   3.379   0.913   5.102  1.0374 -1.5615 -0.4277
 5182SOL     OW32687   2.747   3.859   6.293 -0.4016 -0.0610  0.2995
 5182SOL    HW132688   2.735   3.831   6.384  1.4759  2.0682  1.3202
 5182SOL    HW232689   2.835   3.830   6.270 -0.0796  1.1596 -0.0917
 5183SOL     OW32690   6.414   2.095   6.623 -0.4007  0.7003 -0.3055
 5183SOL    HW132691   6.485   2.039   6.653 -0.7905  0.0172 -0.6203
 5183SOL    HW232692   6.351   2.034   6.584  0.2462  1.5427 -2.8618
 5184SOL     OW32693   2.777   5.228   4.742 -0.1348 -0.1435  0.1277
 5184SOL    HW132694   2.829   5.229   4.823  1.3938 -0.7234 -0.7903
 5184SOL    HW232695   2.816   5.157   4.690 -2.1643 -0.8921 -0.4528
 5185SOL     OW32696   0.381   2.439   0.355  0.6102  0.1263  0.8289
 5185SOL    HW132697   0.451   2.468   0.414  0.0389  1.5425  0.8446
 5185SOL    HW232698   0.301   2.443   0.407  0.2675  0.2561  0.3066
 5186SOL     OW32699   2.134   1.046   2.229 -0.5715  0.1048 -0.1844
 5186SOL    HW132700   2.058   1.003   2.187 -0.7785 -0.3323  0.6230
 5186SOL    HW232701   2.207   0.986   2.212 -0.7646 -0.3478  0.5282
 5187SOL     OW32702   4.303   5.248   7.385  0.2746 -0.2095  0.0360
 5187SOL    HW132703   4.275   5.326   7.432  0.9938  0.2189 -0.2155
 5187SOL    HW232704   4.271   5.261   7.295 -2.2103 -1.6155  0.6309
 5188SOL     OW32705   0.420   0.108   7.144  0.3471 -0.5047  0.0928
 5188SOL    HW132706   0.464   0.153   7.216 -0.2916  0.4157 -0.0700
 5188SOL    HW232707   0.366   0.176   7.103  1.5316 -0.7123 -1.9384
 5189SOL     OW32708   3.404   0.635   1.197 -0.2898 -0.1435  0.5074
 5189SOL    HW132709   3.483   0.686   1.182  1.0663 -1.8088  1.6464
 5189SOL    HW232710   3.370   0.616   1.110  0.4012  0.8121  0.0212
 5190SOL     OW32711   6.028   6.475   7.444  0.0239  0.5315  0.4329
 5190SOL    HW132712   5.968   6.445   7.512 -0.8288  3.7582  1.2544
 5190SOL    HW232713   6.114   6.476   7.486 -0.2436  1.0049  0.9706
 5191SOL     OW32714   2.635   6.024   6.002  0.2301  0.4726 -0.1480
 5191SOL    HW132715   2.701   6.093   5.999  0.5114  0.2310  0.3519
 5191SOL    HW232716   2.645   5.985   6.089  0.8865 -0.9922 -0.8548
 5192SOL     OW32717   4.123   5.345   1.836  0.7803 -0.3256 -0.6185
 5192SOL    HW132718   4.145   5.371   1.926 -0.4542 -2.5743  0.4088
 5192SOL    HW232719   4.208   5.339   1.792  1.5224 -0.4413  0.7686
 5193SOL     OW32720   6.121   5.289   5.268 -0.1947 -0.6666  0.6092
 5193SOL    HW132721   6.107   5.238   5.189  0.5511  1.3651 -0.9217
 5193SOL    HW232722   6.211   5.269   5.294  0.1870  0.0231 -0.1416
 5194SOL     OW32723   6.488   0.308   1.325 -0.3518  0.3659 -0.7921
 5194SOL    HW132724   6.560   0.310   1.261 -0.4444 -0.8183 -0.9555
 5194SOL    HW232725   6.423   0.367   1.289 -0.1008  0.2598 -1.4406
 5195SOL     OW32726   4.659   1.877   1.470 -0.1655 -0.3171  0.5658
 5195SOL    HW132727   4.653   1.835   1.556 -1.1496 -0.4756  0.4340
 5195SOL    HW232728   4.747   1.856   1.439  0.2635 -0.1220  1.6008
 5196SOL     OW32729   0.099   4.508   1.121 -0.1109 -0.5202  0.0607
 5196SOL    HW132730   0.190   4.527   1.144 -0.5969  0.2370  1.5039
 5196SOL    HW232731   0.059   4.477   1.203 -1.2348 -0.5308 -0.4620
 5197SOL     OW32732   1.976   5.338   1.751 -0.1254 -0.0448 -0.5477
 5197SOL    HW132733   1.923   5.383   1.685 -1.3940 -2.2300 -1.0933
 5197SOL    HW232734   1.987   5.249   1.717  2.9525 -0.0286  0.1085
 5198SOL     OW32735   3.032   3.046   0.260 -0.0433  0.1949  0.7876
 5198SOL    HW132736   2.975   3.003   0.324  0.0667  0.5731  1.1471
 5198SOL    HW232737   3.008   3.138   0.265 -0.2485  0.1858  0.0482
 5199SOL     OW32738   4.903   6.365   0.615 -0.1899 -0.2277  0.0064
 5199SOL    HW132739   4.905   6.416   0.697 -0.1337  1.4081 -0.9600
 5199SOL    HW232740   4.994   6.359   0.589 -0.2649 -0.1852 -0.2641
 5200SOL     OW32741   2.160   0.287   5.714  0.6805 -0.4176 -0.4349
 5200SOL    HW132742   2.074   0.301   5.674 -0.1408 -1.1731  1.0153
 5200SOL    HW232743   2.189   0.203   5.679  1.3671  0.3589 -1.8032
 5201SOL     OW32744   0.934   3.926   1.347 -0.2642  0.3330 -0.2950
 5201SOL    HW132745   1.016   3.890   1.316 -0.3634 -0.5436  0.4202
 5201SOL    HW232746   0.949   4.020   1.352  1.5463  0.0160  2.1330
 5202SOL     OW32747   2.464   1.283   0.588 -0.4890 -0.0471 -0.3060
 5202SOL    HW132748   2.500   1.290   0.499 -0.4878 -0.0787 -0.3083
 5202SOL    HW232749   2.457   1.373   0.618 -1.4357  0.0201 -0.7107
 5203SOL     OW32750   1.424   6.098   6.886  0.2756 -0.2257  0.2947
 5203SOL    HW132751   1.391   6.177   6.841 -0.6537 -0.6678  0.1673
 5203SOL    HW232752   1.347   6.065   6.933  0.9596 -0.3923  1.3184
 5204SOL     OW32753   4.018   1.761   7.050 -0.1608 -0.1595 -0.6466
 5204SOL    HW132754   4.093   1.748   6.992 -0.1548  0.4473 -0.7754
 5204SOL    HW232755   3.960   1.687   7.031  0.7397 -1.0664 -0.0125
 5205SOL     OW32756   2.567   1.398   4.961  0.4001  0.5807  0.5622
 5205SOL    HW132757   2.505   1.402   5.035  0.1467  1.0348  0.3343
 5205SOL    HW232758   2.611   1.314   4.971 -0.0894  0.3537  0.8671
 5206SOL     OW32759   1.928   2.948   7.441 -0.2290  0.7152 -0.0202
 5206SOL    HW132760   1.933   3.026   7.384  1.1297  0.5398 -0.1848
 5206SOL    HW232761   2.018   2.915   7.443 -0.6420 -0.4024  0.6915
 5207SOL     OW32762   4.242   5.538   1.191 -0.2599 -0.1614  0.1647
 5207SOL    HW132763   4.312   5.602   1.205  1.1018 -1.1693 -1.5113
 5207SOL    HW232764   4.161   5.588   1.198  0.7175  1.5147  0.0367
 5208SOL     OW32765   5.380   4.806   0.180 -0.4235  0.3920 -0.1277
 5208SOL    HW132766   5.380   4.711   0.172  0.6125  0.2552  1.2390
 5208SOL    HW232767   5.409   4.837   0.095  2.8222 -0.6799  0.4527
 5209SOL     OW32768   6.537   0.893   6.315  0.1551  0.6278 -0.5215
 5209SOL    HW132769   6.539   0.951   6.239 -0.8263  2.1371  0.5376
 5209SOL    HW232770   6.483   0.939   6.379  1.9834  0.0505  1.5969
 5210SOL     OW32771   5.927   3.971   5.930  0.0011 -0.5804 -0.1697
 5210SOL    HW132772   5.896   4.049   5.884 -0.0769 -0.3782  0.2232
 5210SOL    HW232773   5.947   3.909   5.860 -1.1199 -0.6561 -0.4454
 5211SOL     OW32774   1.127   0.039   0.343  0.4027 -0.0221 -0.1194
 5211SOL    HW132775   1.206   0.015   0.295  1.7615  3.7177 -0.0139
 5211SOL    HW232776   1.159   0.078   0.424 -1.4652  2.3093 -0.4142
 5212SOL     OW32777   2.487   0.346   6.102 -0.2453  0.0558  0.1733
 5212SOL    HW132778   2.581   0.350   6.084 -0.0442  0.3386  1.2265
 5212SOL    HW232779   2.445   0.354   6.017  0.6969 -0.5533 -0.3590
 5213SOL     OW32780   1.311   3.392   6.166  0.5108  0.0313  0.0173
 5213SOL    HW132781   1.404   3.394   6.141  0.3465  0.7695 -0.5745
 5213SOL    HW232782   1.288   3.483   6.182 -0.1317 -0.1380  0.0912
 5214SOL     OW32783   2.402   4.849   6.654 -0.1835 -0.2163 -0.1853
 5214SOL    HW132784   2.416   4.942   6.673  0.8629 -0.1546 -1.1499
 5214SOL    HW232785   2.422   4.840   6.561  0.5402 -1.5514  0.0745
 5215SOL     OW32786   3.046   6.129   6.364 -0.3526 -0.2113  0.2143
 5215SOL    HW132787   3.066   6.205   6.310  1.4968  0.1600  1.3309
 5215SOL    HW232788   3.128   6.081   6.371 -1.3605 -2.1114 -0.0745
 5216SOL     OW32789   6.415   1.449   5.469 -0.5147 -0.7270  0.1072
 5216SOL    HW132790   6.378   1.498   5.542 -2.0474 -0.6646 -0.6845
 5216SOL    HW232791   6.506   1.432   5.496 -0.4296  1.0492  1.1352
 5217SOL     OW32792   0.837   0.430   6.995 -0.4305 -0.2643 -0.0118
 5217SOL    HW132793   0.782   0.351   6.995 -1.6304  0.5028  1.7552
 5217SOL    HW232794   0.776   0.502   6.978  0.0677  0.5611  1.5230
 5218SOL     OW32795   1.648   4.236   6.071 -0.0992  0.2144  0.2574
 5218SOL    HW132796   1.704   4.249   6.148  2.3495 -0.4639 -1.2939
 5218SOL    HW232797   1.655   4.318   6.022 -1.4132  0.5356  0.5712
 5219SOL     OW32798   1.452   4.922   5.674 -0.1709  0.1984  0.9151
 5219SOL    HW132799   1.409   4.985   5.617  1.1436 -0.2230 -0.6110
 5219SOL    HW232800   1.380   4.876   5.719 -1.2803  0.0724 -0.9166
 5220SOL     OW32801   3.076   1.720   1.209  0.5819 -0.2449 -0.1662
 5220SOL    HW132802   3.093   1.640   1.159 -0.9369 -0.7673  0.1051
 5220SOL    HW232803   3.033   1.690   1.289  1.3090  0.7386  0.6176
 5221SOL     OW32804   0.805   2.020   6.610  0.4687 -0.5543  0.6468
 5221SOL    HW132805   0.866   2.084   6.575  0.7547 -0.9162  0.4820
 5221SOL    HW232806   0.718   2.055   6.587  0.6535 -1.4596 -1.6544
 5222SOL     OW32807   4.210   4.380   7.039  0.1304 -0.0025  0.0548
 5222SOL    HW132808   4.161   4.434   6.976 -0.4567 -0.9314 -0.3019
 5222SOL    HW232809   4.151   4.308   7.060  0.0956  0.5578  2.1206
 5223SOL     OW32810   6.470   4.849   5.502 -0.5143 -0.0769  0.7051
 5223SOL    HW132811   6.397   4.910   5.511  0.3846  1.0524  0.5700
 5223SOL    HW232812   6.497   4.831   5.592  0.0039  0.7260  0.7232
 5224SOL     OW32813   2.924   1.170   1.922 -0.2286  0.6527  0.1677
 5224SOL    HW132814   2.994   1.233   1.941  0.6952  0.5625 -2.4638
 5224SOL    HW232815   2.955   1.087   1.958 -0.0415  1.0694  0.9830
 5225SOL     OW32816   4.756   4.028   7.370 -0.0488  0.1621 -0.0256
 5225SOL    HW132817   4.763   3.987   7.284 -1.7707 -0.3354  0.0357
 5225SOL    HW232818   4.845   4.026   7.405  0.0718 -3.0998 -0.2432
 5226SOL     OW32819   1.321   5.323   6.716  0.1846  0.1915 -0.1760
 5226SOL    HW132820   1.274   5.255   6.764 -0.0051 -0.7672 -1.6615
 5226SOL    HW232821   1.338   5.391   6.781 -1.0314 -0.5602  0.9778
 5227SOL     OW32822   2.530   2.004   6.835  0.1981  0.9472 -0.1945
 5227SOL    HW132823   2.486   1.998   6.751 -0.2541 -0.5261  0.1311
 5227SOL    HW232824   2.618   1.970   6.819 -0.1065  0.0032  0.0598
 5228SOL     OW32825   5.176   0.423   1.153  0.0708  0.1699  0.0454
 5228SOL    HW132826   5.183   0.381   1.067  1.7706  0.7371 -0.1358
 5228SOL    HW232827   5.110   0.373   1.199 -1.1384  0.0519 -1.7068
 5229SOL     OW32828   0.630   0.892   0.731 -0.2756 -0.4383  0.5094
 5229SOL    HW132829   0.600   0.844   0.654 -0.0349  1.3555 -0.7938
 5229SOL    HW232830   0.723   0.908   0.714 -0.4318  0.7973  0.6689
 5230SOL     OW32831   0.946   5.131   0.394  0.2009  0.2314 -0.4935
 5230SOL    HW132832   1.041   5.129   0.400  0.1629 -1.5767  0.3106
 5230SOL    HW232833   0.918   5.173   0.476  0.2901  0.6048 -0.6518
 5231SOL     OW32834   3.895   5.024   6.801 -0.4791  0.6525 -0.1418
 5231SOL    HW132835   3.987   5.047   6.807 -0.2415 -0.6570  2.1494
 5231SOL    HW232836   3.849   5.091   6.852 -0.5369 -0.0102  0.6807
 5232SOL     OW32837   4.975   4.628   6.205 -0.0125 -0.1868 -0.1836
 5232SOL    HW132838   4.980   4.717   6.241 -0.8610 -0.7462  1.4104
 5232SOL    HW232839   4.901   4.631   6.144  0.6216  0.4475 -0.9447
 5233SOL     OW32840   5.238   0.860   6.731 -0.1920 -0.0328 -0.2637
 5233SOL    HW132841   5.324   0.820   6.722 -0.0400 -0.1425  1.3313
 5233SOL    HW232842   5.239   0.934   6.671  1.1927  0.2349  0.0556
 5234SOL     OW32843   3.776   2.288   7.285 -0.2422 -0.2982 -0.6248
 5234SOL    HW132844   3.834   2.364   7.290  1.3897 -1.4303 -1.3406
 5234SOL    HW232845   3.828   2.222   7.238 -0.7266 -2.6238  1.8850
 5235SOL     OW32846   3.966   0.502   2.219 -0.4255  0.3647 -0.2171
 5235SOL    HW132847   3.941   0.425   2.167  0.5014 -0.5305  0.6266
 5235SOL    HW232848   4.052   0.527   2.185  0.1291 -0.1495  0.7672
 5236SOL     OW32849   6.428   2.195   6.330  0.3629 -0.5428 -0.2886
 5236SOL    HW132850   6.403   2.276   6.374  1.3044 -0.8633  0.9034
 5236SOL    HW232851   6.468   2.223   6.248 -2.6110  0.0267 -1.6815
 5237SOL     OW32852   1.065   0.561   6.798 -0.1100 -0.2127  0.1420
 5237SOL    HW132853   1.092   0.589   6.886 -2.3444  2.7585  0.0453
 5237SOL    HW232854   1.136   0.590   6.741  0.1566  0.2539  0.6965
 5238SOL     OW32855   5.900   2.113   0.265 -0.3920  0.2989 -0.5846
 5238SOL    HW132856   5.923   2.098   0.173  2.2303  0.0335  0.0327
 5238SOL    HW232857   5.943   2.042   0.313 -1.1773  0.7920  0.9088
 5239SOL     OW32858   6.337   3.434   2.121 -0.3882 -0.2595 -0.6786
 5239SOL    HW132859   6.387   3.510   2.089 -1.5177  0.6299 -0.3835
 5239SOL    HW232860   6.310   3.388   2.042 -2.3577  1.4026 -1.0528
 5240SOL     OW32861   1.849   4.131   1.462 -0.5083  0.7308  0.5718
 5240SOL    HW132862   1.833   4.218   1.499 -0.6065  0.9202  0.0894
 5240SOL    HW232863   1.770   4.081   1.482 -0.9097  1.0828 -0.1042
 5241SOL     OW32864   6.577   5.987   1.779 -0.0154 -0.2672  0.3172
 5241SOL    HW132865   6.504   5.928   1.762 -0.0129 -0.1063 -0.2793
 5241SOL    HW232866   6.635   5.976   1.704 -0.7513  1.6148 -0.5874
 5242SOL     OW32867   2.635   0.619   1.366  0.1603 -0.5007  0.3566
 5242SOL    HW132868   2.661   0.607   1.457 -1.0121 -0.1306  0.7513
 5242SOL    HW232869   2.660   0.537   1.323  2.7810  0.1427  0.4854
 5243SOL     OW32870   4.380   5.672   0.912  0.1450  0.4105 -0.0977
 5243SOL    HW132871   4.319   5.743   0.933  0.2283  0.4338  0.0658
 5243SOL    HW232872   4.438   5.667   0.988 -0.1452 -0.1333  0.0955
 5244SOL     OW32873   6.256   6.327   1.697 -0.1139 -0.2972  0.4140
 5244SOL    HW132874   6.175   6.324   1.646 -0.2246 -0.1406  0.5771
 5244SOL    HW232875   6.304   6.249   1.671 -0.9503 -1.1596  1.3333
 5245SOL     OW32876   0.278   5.545   0.788  0.3684  0.3112 -0.1960
 5245SOL    HW132877   0.199   5.493   0.804  0.3172  1.0933  2.6547
 5245SOL    HW232878   0.247   5.636   0.793  1.3903  0.6223  0.7611
 5246SOL     OW32879   1.387   0.195   0.356 -0.6516  0.3814  0.0871
 5246SOL    HW132880   1.471   0.150   0.350 -0.5448  0.6741 -0.6195
 5246SOL    HW232881   1.410   0.288   0.363 -0.9261  0.5091 -0.6527
 5247SOL     OW32882   6.203   2.743   0.862  0.3869 -0.1928  0.2922
 5247SOL    HW132883   6.278   2.729   0.804 -0.8570  0.4952 -1.5633
 5247SOL    HW232884   6.178   2.834   0.847  0.3281  0.1847  2.3539
 5248SOL     OW32885   3.703   0.860   5.922 -0.6748  0.2707  0.3679
 5248SOL    HW132886   3.751   0.942   5.924 -0.7188  0.2841  1.2568
 5248SOL    HW232887   3.612   0.885   5.908 -0.4417  0.2332 -1.5612
 5249SOL     OW32888   0.621   0.759   7.091 -0.2530  0.0715  0.9995
 5249SOL    HW132889   0.684   0.756   7.163  0.9251  0.7511  0.0414
 5249SOL    HW232890   0.658   0.823   7.030 -1.9915  0.6698  0.4967
 5250SOL     OW32891   6.200   0.586   0.463  0.7993 -0.0294  0.2442
 5250SOL    HW132892   6.167   0.498   0.478  0.0902  0.0301 -0.8481
 5250SOL    HW232893   6.254   0.605   0.540  0.0514 -0.9712  1.0222
 5251SOL     OW32894   4.217   5.581   6.797 -0.2802  0.1803 -0.9887
 5251SOL    HW132895   4.211   5.502   6.744  0.6398  0.4959 -1.5833
 5251SOL    HW232896   4.303   5.576   6.839 -1.6265 -0.9035  1.8782
 5252SOL     OW32897   5.216   0.512   0.473  0.4139  0.5525  0.3784
 5252SOL    HW132898   5.212   0.602   0.505 -1.2296  1.0890 -1.2062
 5252SOL    HW232899   5.276   0.515   0.398  0.8343  0.1728  0.6867
 5253SOL     OW32900   2.351   4.979   6.399  0.6931 -0.4630 -0.8246
 5253SOL    HW132901   2.276   5.029   6.431  1.1648 -1.1715  1.6181
 5253SOL    HW232902   2.408   5.044   6.360  1.3746  1.1159  2.4134
 5254SOL     OW32903   1.655   3.262   1.517 -0.1506  0.4759 -0.0068
 5254SOL    HW132904   1.705   3.338   1.489  1.4703 -0.1975  0.9063
 5254SOL    HW232905   1.721   3.193   1.529 -1.5082 -0.9288 -0.3328
 5255SOL     OW32906   1.691   3.283   1.116  0.3518 -0.2540 -0.6440
 5255SOL    HW132907   1.615   3.265   1.172  0.6003 -0.3713 -0.3465
 5255SOL    HW232908   1.757   3.317   1.175 -0.5983  3.2013 -1.3669
 5256SOL     OW32909   3.371   1.423   1.529 -0.2395 -0.1438 -0.1755
 5256SOL    HW132910   3.462   1.404   1.508  0.2772  2.8428 -1.1038
 5256SOL    HW232911   3.333   1.457   1.447 -1.7137  0.2047  0.6043
 5257SOL     OW32912   0.841   4.245   5.847 -0.0552 -0.2144  0.0182
 5257SOL    HW132913   0.829   4.192   5.767  1.1796 -2.0140  0.9414
 5257SOL    HW232914   0.759   4.236   5.894 -0.0002 -1.0204 -0.0244
 5258SOL     OW32915   5.552   3.807   0.578 -0.0944  1.0171 -0.6433
 5258SOL    HW132916   5.631   3.816   0.525  1.6127 -0.4914  1.4366
 5258SOL    HW232917   5.583   3.813   0.669 -2.4165  0.6264  0.2523
 5259SOL     OW32918   1.318   3.709   6.268  0.3258  0.0673 -0.8624
 5259SOL    HW132919   1.374   3.694   6.344  0.2487 -1.1472 -1.0368
 5259SOL    HW232920   1.370   3.766   6.210 -0.1519  2.2268  0.6851
 5260SOL     OW32921   0.900   2.712   0.799  0.7235  0.7996 -0.4726
 5260SOL    HW132922   0.884   2.804   0.821 -1.4024  0.2152  0.6818
 5260SOL    HW232923   0.995   2.708   0.782  0.9916  3.0417  0.1488
 5261SOL     OW32924   6.264   1.185   6.092 -0.1197  0.5017  0.2755
 5261SOL    HW132925   6.295   1.246   6.025  2.4045 -0.1924  0.7267
 5261SOL    HW232926   6.192   1.138   6.049 -1.3790  2.9408 -0.4613
 5262SOL     OW32927   3.946   6.097   6.328  0.1374  0.3455  0.1536
 5262SOL    HW132928   3.958   6.185   6.292  1.1114 -0.4420 -1.5546
 5262SOL    HW232929   3.961   6.108   6.422  1.0053  1.8713 -0.1239
 5263SOL     OW32930   6.098   4.465   5.563 -0.3484 -0.3670 -0.2664
 5263SOL    HW132931   6.094   4.419   5.646 -0.1362 -0.6970 -0.4384
 5263SOL    HW232932   6.035   4.419   5.507  0.8557 -1.3536 -0.8805
 5264SOL     OW32933   1.506   3.276   5.973 -0.9870 -0.3655 -0.2212
 5264SOL    HW132934   1.419   3.301   5.941 -1.7282  0.5631  2.3024
 5264SOL    HW232935   1.489   3.223   6.051  0.7247 -1.0759 -0.2836
 5265SOL     OW32936   3.892   5.573   5.566 -0.6229  0.2365  0.7548
 5265SOL    HW132937   3.896   5.548   5.473 -0.8639 -4.7213  1.8021
 5265SOL    HW232938   3.979   5.607   5.586  0.2446 -0.9451 -0.7874
 5266SOL     OW32939   3.815   1.347   1.259  0.8316  0.3601 -0.3212
 5266SOL    HW132940   3.895   1.378   1.301  1.7443 -0.4473 -1.3891
 5266SOL    HW232941   3.777   1.425   1.218  0.7407  0.8558  0.6921
 5267SOL     OW32942   5.350   5.141   1.993 -0.4607 -0.1360  0.1624
 5267SOL    HW132943   5.314   5.059   2.027  2.4103 -1.4831  0.1647
 5267SOL    HW232944   5.319   5.207   2.055 -1.6619 -1.4021  0.9833
 5268SOL     OW32945   3.747   4.756   1.108 -0.0950 -0.5109  0.2151
 5268SOL    HW132946   3.766   4.721   1.021 -1.5981 -2.2634  0.5466
 5268SOL    HW232947   3.792   4.697   1.168 -0.6977 -0.4812  0.7022
 5269SOL     OW32948   1.499   3.582   6.067 -0.4376 -0.1360  0.2315
 5269SOL    HW132949   1.569   3.533   6.111 -1.1044 -1.3449 -0.0219
 5269SOL    HW232950   1.506   3.671   6.102  1.0841 -0.2818  0.3696
 5270SOL     OW32951   5.862   4.132   2.287 -0.5018  0.7705 -0.7046
 5270SOL    HW132952   5.884   4.103   2.198  0.0901  0.0081 -0.3135
 5270SOL    HW232953   5.917   4.209   2.301  0.4716  0.0639 -0.4902
 5271SOL     OW32954   5.435   6.040   0.248  0.5252  0.1226  0.7577
 5271SOL    HW132955   5.380   5.984   0.303 -0.7618  0.4472 -0.1712
 5271SOL    HW232956   5.522   5.999   0.252  0.5728  0.2812  3.2372
 5272SOL     OW32957   5.530   0.733   0.419 -0.5573 -0.4849 -0.2662
 5272SOL    HW132958   5.549   0.639   0.421  0.3503 -0.3169 -0.2017
 5272SOL    HW232959   5.462   0.742   0.353 -0.4993 -1.1689 -0.4337
 5273SOL     OW32960   2.328   2.676   6.207 -0.7214  0.1959 -0.4614
 5273SOL    HW132961   2.282   2.687   6.125 -0.5310  1.8178 -0.3730
 5273SOL    HW232962   2.356   2.764   6.232  2.3367 -0.6404 -0.4616
 5274SOL     OW32963   5.466   5.853   0.774 -0.2195  0.4817  0.1108
 5274SOL    HW132964   5.493   5.783   0.832 -0.6998  0.7978  0.7323
 5274SOL    HW232965   5.457   5.930   0.831  2.1540  1.5635 -0.8370
 5275SOL     OW32966   1.056   3.622   7.248  0.3042 -0.2631  0.0351
 5275SOL    HW132967   1.002   3.547   7.270 -2.6238  1.1403 -1.7014
 5275SOL    HW232968   1.055   3.677   7.326 -1.3719 -0.0162 -0.1211
 5276SOL     OW32969   3.484   1.335   7.064  0.3956 -0.3304  0.2728
 5276SOL    HW132970   3.459   1.297   6.980 -1.6092  0.2079  0.5798
 5276SOL    HW232971   3.475   1.430   7.052  1.9545 -0.1198  0.5513
 5277SOL     OW32972   5.132   5.900   0.073  0.1371  0.2135  0.5611
 5277SOL    HW132973   5.060   5.909   0.136  1.2952  0.7361  1.8466
 5277SOL    HW232974   5.163   5.810   0.087 -0.8866 -0.3735 -0.7212
 5278SOL     OW32975   0.913   0.499   7.464  0.7721  0.1772  0.1075
 5278SOL    HW132976   0.989   0.541   7.506  0.8589 -1.9109  2.2880
 5278SOL    HW232977   0.942   0.409   7.447 -0.6703 -0.1767 -0.5923
 5279SOL     OW32978   4.948   6.480   6.732  0.3958  0.2988  0.1999
 5279SOL    HW132979   4.861   6.517   6.719  0.0497 -1.1232 -2.1841
 5279SOL    HW232980   4.966   6.432   6.651  2.2345 -1.8059  1.7232
 5280SOL     OW32981   1.454   5.882   1.236  0.1968  0.3491 -0.5999
 5280SOL    HW132982   1.367   5.908   1.266  0.2417  0.7536 -0.8168
 5280SOL    HW232983   1.511   5.954   1.263  0.6729 -0.4394  0.5916
 5281SOL     OW32984   0.483   5.306   6.248 -0.2343  0.3371  0.7087
 5281SOL    HW132985   0.405   5.349   6.283 -0.0025  1.0915  0.3130
 5281SOL    HW232986   0.511   5.248   6.319 -0.2624  1.2134  1.4638
 5282SOL     OW32987   4.258   1.354   5.348  0.4190  0.2450 -0.9922
 5282SOL    HW132988   4.233   1.444   5.369 -0.7869  0.0164 -1.3789
 5282SOL    HW232989   4.327   1.333   5.411  0.4719  1.3134 -0.6710
 5283SOL     OW32990   4.482   0.589   1.424  0.5304 -0.1435  0.1009
 5283SOL    HW132991   4.573   0.580   1.455  0.6076  3.4548  1.4680
 5283SOL    HW232992   4.490   0.638   1.342 -0.0962  2.8992  1.6905
 5284SOL     OW32993   5.630   4.224   2.166 -0.2598 -0.3650 -0.4273
 5284SOL    HW132994   5.685   4.172   2.225 -0.3639 -0.0466 -0.0404
 5284SOL    HW232995   5.688   4.292   2.132 -0.6128  0.5418  0.7032
 5285SOL     OW32996   0.821   2.258   0.336  0.4182 -0.0094 -0.2379
 5285SOL    HW132997   0.789   2.176   0.298  0.3765  0.1379 -0.5223
 5285SOL    HW232998   0.916   2.249   0.336  0.5269  0.7294 -2.0893
 5286SOL     OW32999   5.352   3.707   0.180  0.4393 -0.3175  0.3031
 5286SOL    HW133000   5.368   3.794   0.142  0.5429  0.5523  2.2488
 5286SOL    HW233001   5.305   3.725   0.262 -0.6667 -2.1891  0.1345
 5287SOL     OW33002   5.522   2.325   7.146 -0.3761 -0.0162  0.6089
 5287SOL    HW133003   5.467   2.369   7.081  0.2188  1.9988  1.3853
 5287SOL    HW233004   5.499   2.233   7.139 -0.8999  0.2469 -1.8843
 5288SOL     OW33005   1.898   3.545   6.480 -0.5758  0.0163  0.7074
 5288SOL    HW133006   1.912   3.639   6.468  0.1873 -0.3155 -1.5204
 5288SOL    HW233007   1.949   3.505   6.410  0.0250 -2.1405  2.2775
 5289SOL     OW33008   5.498   1.942   1.366 -0.1329 -0.1366  0.5994
 5289SOL    HW133009   5.510   1.895   1.448  0.6106 -1.5462 -0.2769
 5289SOL    HW233010   5.512   1.876   1.298 -1.4622  0.8136 -0.6654
 5290SOL     OW33011   5.766   4.359   5.895 -0.3275  0.0770 -0.5005
 5290SOL    HW133012   5.741   4.279   5.849 -0.5439  1.0613 -2.1455
 5290SOL    HW233013   5.739   4.343   5.986 -2.8294 -0.6841 -1.2953
 5291SOL     OW33014   6.436   3.549   1.824  0.6011 -0.0985  0.0754
 5291SOL    HW133015   6.459   3.570   1.914  0.6909 -1.7114  0.4667
 5291SOL    HW233016   6.507   3.493   1.793  0.6110  0.4979 -1.0444
 5292SOL     OW33017   3.431   3.232   6.325  0.3549 -0.1714 -0.3468
 5292SOL    HW133018   3.415   3.319   6.287  1.0102 -0.2641 -0.8604
 5292SOL    HW233019   3.520   3.238   6.360  0.1128 -0.3975  0.3152
 5293SOL     OW33020   5.092   4.142   1.614 -0.4755 -0.2129  0.5751
 5293SOL    HW133021   5.154   4.071   1.626  0.1808  0.0893 -0.7413
 5293SOL    HW233022   5.028   4.108   1.551 -1.6627 -0.5128  1.9000
 5294SOL     OW33023   0.834   5.895   1.256  0.3403 -0.2010 -0.2912
 5294SOL    HW133024   0.899   5.936   1.312  1.1269 -0.4159 -1.0237
 5294SOL    HW233025   0.851   5.801   1.262  0.5733 -0.2175 -1.0378
 5295SOL     OW33026   3.384   2.569   6.593 -0.7598  0.1844  0.1404
 5295SOL    HW133027   3.311   2.616   6.633 -0.7800 -0.4442  0.8641
 5295SOL    HW233028   3.343   2.500   6.541 -0.6907 -0.6453  1.1459
 5296SOL     OW33029   0.749   2.500   7.374 -0.5138 -0.3505 -0.0673
 5296SOL    HW133030   0.762   2.502   7.279 -0.3470 -1.0727 -0.0650
 5296SOL    HW233031   0.836   2.477   7.409 -0.3334  0.8467  0.3226
 5297SOL     OW33032   0.403   4.510   6.523  0.3188  0.4862 -0.5082
 5297SOL    HW133033   0.357   4.566   6.460  0.1910  1.0252  0.0639
 5297SOL    HW233034   0.427   4.568   6.594  2.9413  0.4676 -1.2900
 5298SOL     OW33035   1.199   2.381   6.059  0.2524 -0.0831  0.6474
 5298SOL    HW133036   1.221   2.289   6.076  0.8682 -0.0593 -0.0093
 5298SOL    HW233037   1.106   2.387   6.082  0.2140 -0.8627  0.7262
 5299SOL     OW33038   0.652   5.072   1.673  0.0073  0.1783 -0.0044
 5299SOL    HW133039   0.649   4.978   1.657 -2.7806  0.3418 -0.9558
 5299SOL    HW233040   0.723   5.104   1.618 -0.1001 -1.1564 -0.9521
 5300SOL     OW33041   5.148   4.447   6.081 -0.3222 -0.2356  0.1856
 5300SOL    HW133042   5.097   4.511   6.130 -1.4457 -0.7074 -0.3452
 5300SOL    HW233043   5.159   4.486   5.995  0.2022 -0.1467  0.2903
 5301SOL     OW33044   6.122   1.099   6.919 -0.2596  0.3717  0.0376
 5301SOL    HW133045   6.204   1.068   6.958 -1.1809 -0.7293  1.1965
 5301SOL    HW233046   6.137   1.095   6.824  0.7199 -0.7160  0.2124
 5302SOL     OW33047   0.763   5.435   6.249  0.8912  0.6577  0.5806
 5302SOL    HW133048   0.796   5.393   6.328 -0.1527 -1.3357  0.0070
 5302SOL    HW233049   0.668   5.423   6.252  0.9373 -1.0188 -1.7717
 5303SOL     OW33050   4.113   2.883   0.113 -0.0200  0.0305 -0.1954
 5303SOL    HW133051   4.080   2.827   0.184  2.3398 -0.2270  0.7971
 5303SOL    HW233052   4.035   2.920   0.073 -1.4648  0.8699  3.0817
 5304SOL     OW33053   3.710   1.788   1.777  0.2042  0.1562  0.3512
 5304SOL    HW133054   3.746   1.873   1.753 -0.8452  1.3035  2.5027
 5304SOL    HW233055   3.786   1.730   1.782  0.8937  0.8379 -1.5338
 5305SOL     OW33056   4.182   3.329   1.448 -0.5254  0.0057  0.2272
 5305SOL    HW133057   4.142   3.243   1.455  1.7846 -1.1953 -0.2015
 5305SOL    HW233058   4.234   3.338   1.528 -0.7572  1.0314  0.2829
 5306SOL     OW33059   4.081   2.010   6.315 -0.1985  0.1516  0.2944
 5306SOL    HW133060   4.139   2.085   6.302  1.7178 -1.4092 -0.6856
 5306SOL    HW233061   4.009   2.025   6.255 -1.2031  2.4111  1.9284
 5307SOL     OW33062   4.471   4.422   6.844  0.3441 -0.0042 -0.1654
 5307SOL    HW133063   4.447   4.513   6.865  1.7902  0.0686  1.3459
 5307SOL    HW233064   4.452   4.374   6.924  0.0913 -0.9653 -0.7882
 5308SOL     OW33065   6.166   5.818   1.098 -0.7459  0.3347 -0.3600
 5308SOL    HW133066   6.106   5.829   1.172 -0.3636  0.1010 -0.0032
 5308SOL    HW233067   6.168   5.903   1.056  1.2364  1.3795  1.6158
 5309SOL     OW33068   5.893   5.141   6.004 -0.0614 -0.0315  0.0473
 5309SOL    HW133069   5.828   5.077   6.033  0.0214  0.0730  0.4686
 5309SOL    HW233070   5.960   5.088   5.960 -0.7815 -0.0710 -1.0563
 5310SOL     OW33071   4.639   0.209   0.903 -0.5070 -0.3545 -0.0898
 5310SOL    HW133072   4.568   0.189   0.964 -0.5431 -1.3573 -0.4437
 5310SOL    HW233073   4.711   0.237   0.960  0.3507 -3.7156  0.7532
 5311SOL     OW33074   4.219   4.575   5.892 -0.7750 -0.1261  0.3158
 5311SOL    HW133075   4.263   4.557   5.809  0.5937 -1.4462  1.2587
 5311SOL    HW233076   4.230   4.669   5.905  1.2310 -0.2774  0.1439
 5312SOL     OW33077   4.172   3.620   7.173 -0.3095 -0.5625 -0.3412
 5312SOL    HW133078   4.266   3.602   7.177 -0.2071 -0.1637 -0.8923
 5312SOL    HW233079   4.162   3.684   7.103 -1.2034 -2.0193 -1.6217
 5313SOL     OW33080   6.503   5.946   0.523  0.6812  0.1965  0.0386
 5313SOL    HW133081   6.439   5.891   0.478  1.3762  0.7345 -1.6693
 5313SOL    HW233082   6.461   6.032   0.528  0.3877  0.0118  0.9503
 5314SOL     OW33083   4.851   2.734   1.374  0.4597 -0.8311  0.6553
 5314SOL    HW133084   4.814   2.699   1.455 -2.4441  0.4609  0.0014
 5314SOL    HW233085   4.822   2.674   1.306  1.3605 -0.9241  0.3390
 5315SOL     OW33086   3.962   4.788   1.689  0.3161  0.4260 -0.0345
 5315SOL    HW133087   3.991   4.736   1.764  0.7549 -1.3449 -1.3698
 5315SOL    HW233088   3.913   4.727   1.635  0.2898  1.5784 -1.3602
 5316SOL     OW33089   3.630   5.598   1.195 -0.5215 -0.0703  0.2512
 5316SOL    HW133090   3.587   5.636   1.271 -0.9345 -0.4456  0.2059
 5316SOL    HW233091   3.621   5.503   1.206  2.5637 -0.3229  1.5889
 5317SOL     OW33092   2.011   4.356   1.352  0.4934  0.4044 -0.7248
 5317SOL    HW133093   1.962   4.386   1.275  1.4682  0.9574 -1.1545
 5317SOL    HW233094   2.008   4.261   1.347  1.2258  0.4161 -1.9228
 5318SOL     OW33095   6.211   3.155   0.595  0.2973 -0.0005 -0.3515
 5318SOL    HW133096   6.241   3.245   0.584 -0.4910  0.1802 -1.1992
 5318SOL    HW233097   6.220   3.116   0.508 -0.5254 -0.3634 -0.2885
 5319SOL     OW33098   6.079   3.374   0.878  0.0476 -0.3498  0.3945
 5319SOL    HW133099   6.171   3.349   0.887  0.0889 -0.5645 -0.5373
 5319SOL    HW233100   6.031   3.304   0.921  0.3070 -0.3085  0.7627
 5320SOL     OW33101   6.454   1.243   0.508  0.2499  0.2262  0.3910
 5320SOL    HW133102   6.449   1.197   0.591  4.2273 -0.6574  0.3352
 5320SOL    HW233103   6.504   1.322   0.526 -0.2649  0.8857 -0.8850
 5321SOL     OW33104   1.233   1.233   1.227 -0.0218 -0.1803  0.0010
 5321SOL    HW133105   1.305   1.247   1.166 -1.2377  0.0160 -1.4521
 5321SOL    HW233106   1.245   1.300   1.294  0.1749  1.0010 -1.1717
 5322SOL     OW33107   0.815   4.324   6.394  0.2260  0.8763 -0.1378
 5322SOL    HW133108   0.825   4.408   6.350  0.9152  0.6799 -0.3581
 5322SOL    HW233109   0.904   4.292   6.408  0.0561  1.0123  1.5695
 5323SOL     OW33110   5.262   0.796   1.294  0.0930  0.5537  0.0644
 5323SOL    HW133111   5.262   0.832   1.383 -0.1017 -2.1723  1.2680
 5323SOL    HW233112   5.349   0.759   1.282 -0.7428 -1.7243  0.3774
 5324SOL     OW33113   0.046   6.572   7.100  0.5058  0.1568 -0.3315
 5324SOL    HW133114   0.077   6.482   7.086 -1.0891 -0.5572  0.4734
 5324SOL    HW233115   0.058   6.615   7.015 -1.7947 -1.8052 -1.7954
 5325SOL     OW33116   5.309   3.863   5.629 -0.3895  0.3062 -0.2305
 5325SOL    HW133117   5.314   3.846   5.723  0.9063  2.9495  0.2613
 5325SOL    HW233118   5.399   3.853   5.599 -0.7378 -0.1431 -1.1536
 5326SOL     OW33119   0.860   3.152   6.151 -0.8996  0.5364  0.0886
 5326SOL    HW133120   0.935   3.205   6.179 -0.9915 -0.1032  1.6306
 5326SOL    HW233121   0.808   3.212   6.097  0.1603  1.3141 -0.1048
 5327SOL     OW33122   4.612   5.368   6.743 -0.5010  0.0684  0.2920
 5327SOL    HW133123   4.648   5.456   6.729 -3.0144  1.1944  0.2298
 5327SOL    HW233124   4.680   5.309   6.712  0.5061  2.0510 -1.5754
 5328SOL     OW33125   2.505   0.984   5.826 -0.1088  0.0035 -0.6389
 5328SOL    HW133126   2.420   1.027   5.813 -0.8164 -1.4269 -1.0284
 5328SOL    HW233127   2.501   0.908   5.768  1.7858  0.3485 -1.2771
 5329SOL     OW33128   3.715   0.320   0.185  0.0081 -0.4691  0.7001
 5329SOL    HW133129   3.768   0.242   0.200  2.4853  0.8782 -0.3396
 5329SOL    HW233130   3.697   0.354   0.273 -0.1668 -1.5965  1.1161
 5330SOL     OW33131   5.325   6.271   0.163 -0.0004  0.0687  0.8700
 5330SOL    HW133132   5.346   6.177   0.168  1.3999  0.3450  0.5624
 5330SOL    HW233133   5.301   6.295   0.252 -1.0988 -0.7296  0.8099
 5331SOL     OW33134   3.073   5.437   6.555  0.6801 -0.4115  0.3084
 5331SOL    HW133135   3.032   5.520   6.531  1.1425 -0.4796 -0.8210
 5331SOL    HW233136   3.017   5.370   6.515  0.6862 -0.6105  0.6294
 5332SOL     OW33137   2.739   5.680   6.618  0.1184  0.5007 -0.3328
 5332SOL    HW133138   2.760   5.671   6.711  0.7319 -2.2470 -0.6484
 5332SOL    HW233139   2.648   5.711   6.616 -0.4861 -1.0780  1.2186
 5333SOL     OW33140   0.436   1.120   5.463 -0.6133  0.1268 -0.6873
 5333SOL    HW133141   0.389   1.180   5.405  0.6462 -0.6024 -2.5491
 5333SOL    HW233142   0.442   1.167   5.546 -1.3179  1.7884 -1.5294
 5334SOL     OW33143   0.140   3.112   0.400 -0.2912  0.7772 -0.3033
 5334SOL    HW133144   0.107   3.067   0.322 -0.2467  0.5241 -0.1787
 5334SOL    HW233145   0.075   3.093   0.468  0.1060  0.2639 -0.0533
 5335SOL     OW33146   3.321   1.701   7.188  0.1883  0.8816 -0.2863
 5335SOL    HW133147   3.390   1.681   7.125 -0.7656  0.9698 -1.3821
 5335SOL    HW233148   3.240   1.685   7.141 -0.5613 -0.4574  1.3871
 5336SOL     OW33149   2.047   4.190   6.816 -0.0534  0.6453  0.0006
 5336SOL    HW133150   2.025   4.258   6.752 -0.6454  0.7919  0.3469
 5336SOL    HW233151   2.140   4.171   6.800 -0.2735  0.4346 -1.1156
 5337SOL     OW33152   5.119   2.147   7.356 -0.6869 -0.6781  0.0305
 5337SOL    HW133153   5.130   2.098   7.275  1.2584 -0.1056 -0.0950
 5337SOL    HW233154   5.199   2.132   7.405  0.0191  2.2902 -0.0061
 5338SOL     OW33155   4.698   2.669   1.636  0.3281  0.9827  0.1034
 5338SOL    HW133156   4.693   2.764   1.629 -1.5184  0.9882  0.8289
 5338SOL    HW233157   4.654   2.649   1.719  0.7710 -0.5050  0.0149
 5339SOL     OW33158   2.106   0.200   6.041  0.4397 -0.2022  0.6247
 5339SOL    HW133159   2.161   0.131   6.004  0.9538  0.3349  0.3625
 5339SOL    HW233160   2.039   0.216   5.974  0.7970  0.0986  0.3284
 5340SOL     OW33161   0.268   3.662   0.490 -0.6929 -0.5463  0.0165
 5340SOL    HW133162   0.331   3.665   0.561 -0.8962 -1.7568  0.2701
 5340SOL    HW233163   0.248   3.569   0.479  0.1260 -0.5014 -2.3238
 5341SOL     OW33164   5.344   3.232   0.148  0.2123 -0.3006  0.2376
 5341SOL    HW133165   5.347   3.213   0.242  0.0249 -0.0898  0.2862
 5341SOL    HW233166   5.402   3.307   0.137 -0.9227  0.6359  0.4210
 5342SOL     OW33167   4.537   2.256   6.924 -0.1363  0.2088 -0.0863
 5342SOL    HW133168   4.535   2.206   7.006 -0.4485  1.7646  0.8949
 5342SOL    HW233169   4.535   2.189   6.856  1.9668 -1.2123  1.1350
 5343SOL     OW33170   3.527   2.687   0.889  0.2719 -0.0019 -0.1428
 5343SOL    HW133171   3.496   2.716   0.975 -1.3559 -2.3911  0.1485
 5343SOL    HW233172   3.542   2.769   0.841 -2.1376  1.3712  1.2420
 5344SOL     OW33173   0.427   0.576   7.049  0.4388 -0.7683 -0.3117
 5344SOL    HW133174   0.361   0.593   6.982  0.2088  1.4617  0.4167
 5344SOL    HW233175   0.491   0.647   7.040 -0.4961  0.6575  2.8448
 5345SOL     OW33176   1.582   6.068   0.298  0.0081 -0.1804 -0.3460
 5345SOL    HW133177   1.580   5.980   0.335 -0.7749  0.1696  0.4911
 5345SOL    HW233178   1.489   6.090   0.284  0.0440  1.2919  1.3865
 5346SOL     OW33179   6.154   1.665   0.756 -0.1460  0.3728  0.6509
 5346SOL    HW133180   6.133   1.586   0.805 -0.5599  0.0954  0.0272
 5346SOL    HW233181   6.098   1.662   0.679  0.1663  1.0419  0.3874
 5347SOL     OW33182   6.325   6.147   0.593 -0.1625  0.4805 -0.3037
 5347SOL    HW133183   6.382   6.188   0.528  0.5334  1.1120  0.6739
 5347SOL    HW233184   6.300   6.219   0.651 -0.1079 -0.2070  0.5919
 5348SOL     OW33185   4.625   6.035   6.941  0.0322  0.0348 -0.0063
 5348SOL    HW133186   4.530   6.026   6.951  0.0867 -1.3748 -0.4673
 5348SOL    HW233187   4.659   5.948   6.961  1.1562  0.3022 -0.6738
 5349SOL     OW33188   3.598   4.877   6.385 -0.0141  0.3759 -0.2666
 5349SOL    HW133189   3.532   4.923   6.437 -0.0298 -0.7126  0.7111
 5349SOL    HW233190   3.675   4.875   6.440 -0.1768 -1.2291 -0.0444
 5350SOL     OW33191   2.404   5.745   6.757  0.1385 -0.3317  0.2557
 5350SOL    HW133192   2.475   5.731   6.819 -0.9401  1.6582  2.0720
 5350SOL    HW233193   2.348   5.811   6.799 -1.8663 -0.5694 -1.8498
 5351SOL     OW33194   5.735   1.899   0.814 -0.1506  0.2315 -0.6104
 5351SOL    HW133195   5.777   1.819   0.845  1.1246  0.3375 -1.9625
 5351SOL    HW233196   5.757   1.903   0.721 -2.2728  0.8826 -1.1402
 5352SOL     OW33197   5.748   6.065   1.282 -0.2719 -0.5091 -0.0196
 5352SOL    HW133198   5.782   6.147   1.245  0.6960 -1.1158 -0.4991
 5352SOL    HW233199   5.715   6.091   1.369  1.4943  0.1144  0.5191
 5353SOL     OW33200   2.552   4.637   7.402  0.4562 -0.4045 -0.2386
 5353SOL    HW133201   2.513   4.562   7.448  2.0058 -1.5244 -0.6586
 5353SOL    HW233202   2.564   4.606   7.312  5.7746 -1.6680  0.6108
 5354SOL     OW33203   2.490   4.073   7.358  0.3365 -0.1811  1.0241
 5354SOL    HW133204   2.442   4.154   7.342  2.7111  1.0742 -0.5594
 5354SOL    HW233205   2.509   4.074   7.451  1.6464  2.0009  0.8144
 5355SOL     OW33206   2.095   2.843   1.676  0.4504  0.4418 -0.1410
 5355SOL    HW133207   2.000   2.852   1.691  0.6364 -0.4255  1.8364
 5355SOL    HW233208   2.109   2.749   1.674  1.2525  0.5712 -0.6320
 5356SOL     OW33209   3.466   6.601   5.021  0.6263 -0.2567 -0.1335
 5356SOL    HW133210   3.541   6.662   5.023  1.7038 -1.5170  2.0971
 5356SOL    HW233211   3.506   6.514   5.024 -0.9267 -1.0127 -0.5304
 5357SOL     OW33212   5.364   1.410   6.764  0.2964 -0.2930  0.5187
 5357SOL    HW133213   5.434   1.368   6.714  0.3832 -0.8962  1.1289
 5357SOL    HW233214   5.299   1.340   6.777 -0.8678  0.4777 -0.8153
 5358SOL     OW33215   0.540   1.579   0.363 -0.4322  0.0301  0.2988
 5358SOL    HW133216   0.581   1.655   0.405  0.7004  0.6290 -1.7796
 5358SOL    HW233217   0.595   1.505   0.389 -0.6890  0.1080  1.1273
 5359SOL     OW33218   4.571   6.318   1.689 -0.3801  0.3071  0.1633
 5359SOL    HW133219   4.617   6.288   1.768  0.4272  0.4676 -0.2383
 5359SOL    HW233220   4.497   6.257   1.680  0.0775 -0.3035  0.4967
 5360SOL     OW33221   4.172   0.304   5.194  0.2341 -0.3427 -0.5470
 5360SOL    HW133222   4.135   0.267   5.113 -1.5563  0.6315 -0.2336
 5360SOL    HW233223   4.266   0.301   5.180 -0.0196  0.3818 -2.9597
 5361SOL     OW33224   1.009   1.086   0.350  0.0764 -0.0701  0.1582
 5361SOL    HW133225   1.082   1.147   0.344 -0.5843  0.9610  1.6761
 5361SOL    HW233226   1.014   1.033   0.270  1.1172  1.4798 -0.8584
 5362SOL     OW33227   3.335   5.389   1.111  0.3575 -0.0558  0.4851
 5362SOL    HW133228   3.394   5.381   1.186 -0.8894 -0.7220  1.4415
 5362SOL    HW233229   3.294   5.475   1.122 -1.2747 -0.9261  1.7386
 5363SOL     OW33230   2.410   6.101   1.805  0.4410  0.3063  0.0496
 5363SOL    HW133231   2.342   6.121   1.740 -1.1418 -0.2489  1.4551
 5363SOL    HW233232   2.391   6.160   1.878  2.7313  1.5430 -0.2683
 5364SOL     OW33233   5.446   5.683   1.340  0.3021  0.0080  0.0991
 5364SOL    HW133234   5.407   5.771   1.345 -2.1108 -0.8862 -1.2817
 5364SOL    HW233235   5.388   5.628   1.393  2.7032 -0.5749  2.3363
 5365SOL     OW33236   6.359   4.441   0.824  0.4906 -0.6275 -0.0372
 5365SOL    HW133237   6.445   4.482   0.831  0.8370 -1.4039  0.4966
 5365SOL    HW233238   6.370   4.356   0.867  0.2770 -2.0239 -2.5515
 5366SOL     OW33239   0.877   6.583   0.094  0.3861  0.1617  0.1754
 5366SOL    HW133240   0.850   6.671   0.121  0.3322  0.0687  0.4271
 5366SOL    HW233241   0.866   6.530   0.172 -1.2771 -0.4517 -0.4282
 5367SOL     OW33242   5.332   2.774   0.891 -0.3781 -0.3105 -0.8881
 5367SOL    HW133243   5.323   2.863   0.923 -0.3875 -1.2233  1.9165
 5367SOL    HW233244   5.336   2.783   0.796 -1.0218  2.5927 -0.7355
 5368SOL     OW33245   0.421   3.828   1.884 -0.0798 -0.3278 -0.3218
 5368SOL    HW133246   0.501   3.776   1.895  0.0298 -0.6208 -2.1416
 5368SOL    HW233247   0.354   3.764   1.860 -0.1932  0.2119 -1.5371
 5369SOL     OW33248   3.417   3.651   1.311 -0.0124  0.6887 -0.2069
 5369SOL    HW133249   3.475   3.725   1.295 -1.9731  1.9987 -1.7757
 5369SOL    HW233250   3.364   3.645   1.232 -0.7636 -1.6384  0.3958
 5370SOL     OW33251   2.424   0.998   5.140  0.0354  0.0737  0.5416
 5370SOL    HW133252   2.398   1.074   5.192 -0.3696  0.5845 -0.3654
 5370SOL    HW233253   2.368   0.927   5.170 -0.8997  0.6117  0.1357
 5371SOL     OW33254   3.237   1.242   1.741 -0.5966 -0.0977 -0.8167
 5371SOL    HW133255   3.277   1.262   1.657 -0.2693 -0.2572 -0.6985
 5371SOL    HW233256   3.209   1.327   1.775  1.4047  0.2931 -0.0053
 5372SOL     OW33257   5.496   5.418   6.803  0.2342 -0.1470  0.1377
 5372SOL    HW133258   5.401   5.420   6.807  0.0936 -0.2474 -2.0411
 5372SOL    HW233259   5.520   5.339   6.853 -0.6579  0.7222  2.0522
 5373SOL     OW33260   1.067   3.279   7.320 -0.1629 -0.2574 -0.5042
 5373SOL    HW133261   1.059   3.347   7.387  2.2689  1.9040 -2.2248
 5373SOL    HW233262   1.151   3.237   7.339 -0.3497 -0.9262 -1.0982
 5374SOL     OW33263   2.166   2.832   0.047 -0.3184 -0.2005  0.0269
 5374SOL    HW133264   2.233   2.791  -0.009 -1.1330 -2.1957  0.4133
 5374SOL    HW233265   2.211   2.849   0.130 -0.1471 -1.0687  0.1225
 5375SOL     OW33266   0.960   3.427   0.390  0.5295  0.5310 -0.4942
 5375SOL    HW133267   0.994   3.370   0.459 -0.1185 -1.9187 -2.0832
 5375SOL    HW233268   0.874   3.453   0.421 -0.2863 -1.5820 -0.8565
 5376SOL     OW33269   3.210   0.178   5.871 -0.4304  0.1699 -0.4160
 5376SOL    HW133270   3.303   0.200   5.878 -0.5646  1.0280 -1.1624
 5376SOL    HW233271   3.170   0.255   5.832 -1.5750  0.0621  0.4895
 5377SOL     OW33272   2.657   0.453   0.196  0.1262  0.4443  0.5718
 5377SOL    HW133273   2.596   0.426   0.128 -1.7892  1.2412  1.8838
 5377SOL    HW233274   2.638   0.545   0.211  1.3493  0.5990  1.3671
 5378SOL     OW33275   3.384   1.957   0.216  0.0359 -0.3960  0.1902
 5378SOL    HW133276   3.409   2.049   0.220  0.6361 -0.5787  0.7256
 5378SOL    HW233277   3.334   1.949   0.135 -0.6671  0.5619  0.5097
 5379SOL     OW33278   0.384   5.234   1.109  0.1706  0.0931 -0.9554
 5379SOL    HW133279   0.442   5.223   1.034  1.5761 -1.7922  0.3162
 5379SOL    HW233280   0.395   5.326   1.134  1.3328  0.2038 -1.7605
 5380SOL     OW33281   5.951   0.722   1.746 -0.1066  0.2101  0.7240
 5380SOL    HW133282   5.938   0.627   1.744  1.1440  0.0354 -1.0399
 5380SOL    HW233283   5.963   0.742   1.839 -2.7469 -0.9678  1.4181
 5381SOL     OW33284   0.898   1.359   6.660  0.0324  0.1057  0.4014
 5381SOL    HW133285   0.848   1.366   6.742 -0.1694  0.6889  0.2385
 5381SOL    HW233286   0.989   1.351   6.689  0.1647  2.0860  0.6989
 5382SOL     OW33287   1.969   3.270   6.578 -0.1499  0.3653 -0.5435
 5382SOL    HW133288   2.015   3.290   6.496 -1.1718 -1.8192 -1.7449
 5382SOL    HW233289   1.981   3.176   6.590 -0.5967  0.5253  1.4938
 5383SOL     OW33290   5.689   2.428   1.803 -0.0975  0.1766 -0.1408
 5383SOL    HW133291   5.633   2.505   1.809 -0.4632  0.0431 -1.5334
 5383SOL    HW233292   5.629   2.353   1.809  0.2341 -0.0105  1.0098
 5384SOL     OW33293   3.475   1.981   6.560  0.0477 -0.3753  0.5073
 5384SOL    HW133294   3.515   2.042   6.622  1.2982  0.1472 -0.7618
 5384SOL    HW233295   3.395   2.025   6.531  0.2285  0.0376  0.6308
 5385SOL     OW33296   5.252   0.188   1.724 -0.2889 -0.0547 -0.1807
 5385SOL    HW133297   5.272   0.161   1.814 -1.0144  2.5316  0.8423
 5385SOL    HW233298   5.160   0.165   1.712 -1.0503  2.1455  0.8665
 5386SOL     OW33299   1.641   0.875   7.098  0.3301 -0.4547 -0.0131
 5386SOL    HW133300   1.655   0.801   7.157  0.4055  1.3155  2.3404
 5386SOL    HW233301   1.561   0.916   7.129  1.8970  2.2075  0.8291
 5387SOL     OW33302   5.820   4.841   1.919 -0.2167 -0.3717 -0.3897
 5387SOL    HW133303   5.801   4.853   1.826 -1.2654 -0.7460 -0.2385
 5387SOL    HW233304   5.902   4.791   1.920  0.2405  0.3389 -1.0879
 5388SOL     OW33305   5.957   2.228   2.044 -0.0574 -0.5264  0.0231
 5388SOL    HW133306   5.958   2.317   2.010 -2.5424 -0.4887 -0.0707
 5388SOL    HW233307   5.902   2.232   2.122 -0.7815 -2.1075 -0.3716
 5389SOL     OW33308   0.239   6.278   0.655 -0.0181 -0.5455  0.0060
 5389SOL    HW133309   0.158   6.324   0.680  0.2654  0.1259 -0.2821
 5389SOL    HW233310   0.245   6.290   0.560  1.7296  1.6543  0.3040
 5390SOL     OW33311   5.105   4.957   1.743  0.3207 -0.0899 -0.1070
 5390SOL    HW133312   5.026   4.989   1.700  1.1536 -1.3711 -2.7763
 5390SOL    HW233313   5.170   5.027   1.731  0.5827 -0.4888 -1.0957
 5391SOL     OW33314   0.440   3.060   7.318  0.5861 -0.3103 -0.0375
 5391SOL    HW133315   0.461   2.997   7.248  0.9133 -0.8363  0.5161
 5391SOL    HW233316   0.508   3.044   7.384  1.6257  1.7051 -0.5495
 5392SOL     OW33317   3.942   2.566   1.593 -0.4331 -0.0167 -0.3785
 5392SOL    HW133318   3.915   2.476   1.579 -0.5041  0.0842 -0.9129
 5392SOL    HW233319   3.863   2.618   1.577  0.4518  0.4619 -4.0983
 5393SOL     OW33320   2.886   0.596   0.981 -0.4266  0.4416  0.1036
 5393SOL    HW133321   2.893   0.649   1.061 -1.0598  0.6795  0.0064
 5393SOL    HW233322   2.860   0.509   1.011 -1.8060  0.8254  0.0792
 5394SOL     OW33323   0.186   3.941   7.347 -0.8517  0.3297  0.0472
 5394SOL    HW133324   0.136   3.862   7.327  0.3511 -0.2930 -0.5911
 5394SOL    HW233325   0.174   3.997   7.270  0.7562 -0.5238 -0.8750
 5395SOL     OW33326   3.941   1.702   1.662  0.1287  0.2390 -0.1227
 5395SOL    HW133327   4.014   1.661   1.615 -0.9107  0.2933 -1.8980
 5395SOL    HW233328   3.878   1.723   1.593 -1.6646  0.0012  1.3629
 5396SOL     OW33329   1.672   2.777   0.897 -0.3371  0.0644 -0.1079
 5396SOL    HW133330   1.588   2.819   0.883  0.3894  1.1830 -1.4074
 5396SOL    HW233331   1.724   2.842   0.944  0.3893  0.1597 -1.0096
 5397SOL     OW33332   0.784   5.115   5.463  0.6950  0.2429 -0.2090
 5397SOL    HW133333   0.791   5.121   5.559 -1.4582  1.5976 -0.0644
 5397SOL    HW233334   0.766   5.023   5.446 -2.5680  0.4984  1.1029
 5398SOL     OW33335   3.604   6.263   0.443  0.0073  0.3387  0.2068
 5398SOL    HW133336   3.541   6.320   0.487 -0.4797  0.3051 -0.4297
 5398SOL    HW233337   3.615   6.302   0.356 -0.2915 -0.4941 -0.2197
 5399SOL     OW33338   2.226   4.290   5.134 -1.3160  0.2934  0.0744
 5399SOL    HW133339   2.239   4.309   5.041 -2.0137 -0.9085 -0.2762
 5399SOL    HW233340   2.166   4.358   5.165 -0.1722  1.3975 -0.0569
 5400SOL     OW33341   4.085   1.155   6.901  0.3086 -0.3955 -0.1114
 5400SOL    HW133342   4.090   1.102   6.981  0.5980 -1.0633 -0.5658
 5400SOL    HW233343   3.999   1.134   6.864 -0.7322  1.4747  1.0723
 5401SOL     OW33344   4.080   6.069   6.977  0.0018 -0.0797 -0.0001
 5401SOL    HW133345   4.083   5.988   7.029 -0.4358 -0.3808 -0.4373
 5401SOL    HW233346   4.147   6.057   6.910  0.9191  0.5210  0.7779
 5402SOL     OW33347   4.202   5.888   0.374 -0.5066  0.0890  0.0639
 5402SOL    HW133348   4.269   5.952   0.347 -0.0869 -1.5740 -3.3645
 5402SOL    HW233349   4.120   5.938   0.373  0.1312  1.1789  0.0193
 5403SOL     OW33350   0.984   4.212   0.365 -0.1378  0.5421  0.2702
 5403SOL    HW133351   1.029   4.274   0.423  2.5888  0.2053 -1.2893
 5403SOL    HW233352   0.892   4.239   0.368  0.1683  1.6344  3.2804
 5404SOL     OW33353   5.206   4.490   5.549 -0.0340 -0.0816  0.2681
 5404SOL    HW133354   5.188   4.579   5.520  0.5862  0.0922  0.3939
 5404SOL    HW233355   5.189   4.435   5.473 -1.2359  0.0480  0.4290
 5405SOL     OW33356   1.788   1.778   7.279 -0.0564  0.2333  0.3828
 5405SOL    HW133357   1.701   1.784   7.239  0.2409  1.6268 -0.1017
 5405SOL    HW233358   1.845   1.750   7.207 -0.2886 -2.1071  1.0247
 5406SOL     OW33359   6.391   3.833   0.731 -0.3544 -0.2945 -0.4441
 5406SOL    HW133360   6.398   3.807   0.639 -0.7492 -0.2015 -0.5061
 5406SOL    HW233361   6.472   3.803   0.771 -1.0483 -2.1889 -0.3682
 5407SOL     OW33362   1.826   4.287   6.287  0.1042  0.7317 -0.0591
 5407SOL    HW133363   1.876   4.369   6.293  0.8662  0.2933 -0.2019
 5407SOL    HW233364   1.887   4.220   6.319  0.2671 -0.0689 -1.8970
 5408SOL     OW33365   3.463   4.345   5.791 -0.4519 -0.4419 -0.1545
 5408SOL    HW133366   3.522   4.380   5.724 -0.9251 -1.5495 -1.1927
 5408SOL    HW233367   3.446   4.255   5.763 -1.6358 -0.5368  0.8032
 5409SOL     OW33368   3.493   4.863   0.048  0.4191 -0.0280 -0.3458
 5409SOL    HW133369   3.553   4.810  -0.005  0.6278 -0.1354 -0.0078
 5409SOL    HW233370   3.476   4.809   0.126 -0.3517 -0.1239 -0.5749
 5410SOL     OW33371   4.384   5.556   2.376 -0.1617  0.4989  0.0941
 5410SOL    HW133372   4.346   5.520   2.456 -0.6765  0.5306 -0.1268
 5410SOL    HW233373   4.464   5.506   2.363 -0.5033 -0.0868  0.1828
 5411SOL     OW33374   1.775   0.368   0.451  0.2330  0.2611  0.5044
 5411SOL    HW133375   1.748   0.404   0.367 -0.0462 -0.2663  0.3587
 5411SOL    HW233376   1.869   0.354   0.443 -0.0024 -1.0809 -0.2357
 5412SOL     OW33377   1.935   1.197   1.131 -0.3170  0.0628 -0.4577
 5412SOL    HW133378   1.996   1.269   1.142  0.0216  0.0949 -2.1983
 5412SOL    HW233379   1.932   1.154   1.216  1.9240  0.2205 -0.2374
 5413SOL     OW33380   3.170   4.053   0.278  0.3727 -0.2692  0.3212
 5413SOL    HW133381   3.164   3.971   0.229  2.8416 -0.7865  0.7820
 5413SOL    HW233382   3.166   4.121   0.212 -1.8994 -0.6890 -0.0533
 5414SOL     OW33383   1.248   3.417   0.626 -0.3810  0.6678 -0.0848
 5414SOL    HW133384   1.276   3.463   0.547 -0.6047 -0.5049 -0.8698
 5414SOL    HW233385   1.186   3.351   0.595  1.4557 -1.5658  0.6814
 5415SOL     OW33386   6.332   4.089   0.808  0.0007 -0.4011 -0.3596
 5415SOL    HW133387   6.356   3.997   0.797 -0.4022 -0.2914 -2.6760
 5415SOL    HW233388   6.268   4.106   0.738 -0.1710  1.5647  0.2075
 5416SOL     OW33389   5.298   5.389   5.345 -0.1192 -0.5561  0.1968
 5416SOL    HW133390   5.355   5.450   5.392 -0.2673  1.7494 -2.3682
 5416SOL    HW233391   5.358   5.329   5.302  0.1381 -0.7205  0.7653
 5417SOL     OW33392   2.771   0.776   1.601  0.0059  0.7575  0.0486
 5417SOL    HW133393   2.744   0.768   1.693 -1.8888  0.8824 -0.4599
 5417SOL    HW233394   2.738   0.861   1.574  1.5516  1.2191 -0.4637
 5418SOL     OW33395   2.050   1.670   1.375 -0.0172 -0.2244  0.2483
 5418SOL    HW133396   1.965   1.692   1.336  0.3402 -1.1289 -1.1107
 5418SOL    HW233397   2.109   1.740   1.346 -0.2480  0.3138  1.0539
 5419SOL     OW33398   1.912   5.570   7.125  0.0709  0.1522 -0.1368
 5419SOL    HW133399   1.956   5.551   7.043  1.7543 -2.0033  1.1273
 5419SOL    HW233400   1.874   5.486   7.152  2.7949 -0.3014  2.9975
 5420SOL     OW33401   2.709   2.600   0.675 -0.8448 -0.1605  0.0744
 5420SOL    HW133402   2.656   2.575   0.599 -0.1022  1.1096 -0.8893
 5420SOL    HW233403   2.713   2.520   0.728 -1.7467 -0.9470 -0.9879
 5421SOL     OW33404   5.553   3.752   1.816 -0.5966 -0.0078  0.1116
 5421SOL    HW133405   5.578   3.689   1.884 -1.9040 -0.5036  0.1725
 5421SOL    HW233406   5.482   3.708   1.768  2.7024 -1.4331 -4.1419
 5422SOL     OW33407   4.604   4.682   2.360 -0.6189  0.2007 -0.3721
 5422SOL    HW133408   4.695   4.666   2.337 -0.7769 -1.1077 -0.1403
 5422SOL    HW233409   4.574   4.745   2.295  1.1175  2.6027  0.9843
 5423SOL     OW33410   5.135   3.602   1.280  0.7025 -0.0232 -0.4265
 5423SOL    HW133411   5.140   3.697   1.276 -0.5175  0.0191 -2.5205
 5423SOL    HW233412   5.161   3.572   1.192 -0.8748 -1.4586 -0.4725
 5424SOL     OW33413   1.743   6.456   6.512  0.1187 -0.7150  0.1160
 5424SOL    HW133414   1.754   6.442   6.606 -0.1177  0.5677  0.3638
 5424SOL    HW233415   1.825   6.427   6.474  0.0923 -1.5659  0.6771
 5425SOL     OW33416   6.080   2.508   7.273 -0.3063 -0.0130 -0.7269
 5425SOL    HW133417   6.064   2.519   7.367 -1.5015  1.1453 -1.0377
 5425SOL    HW233418   6.159   2.455   7.268 -1.9300 -2.7996  0.9253
 5426SOL     OW33419   1.470   1.331   0.007 -0.2078  0.2536 -0.0647
 5426SOL    HW133420   1.501   1.282   0.084 -0.2389 -0.7616 -0.6741
 5426SOL    HW233421   1.510   1.285  -0.067 -1.4414  0.2487 -0.7368
 5427SOL     OW33422   5.254   3.241   6.469  0.2677 -0.8412 -0.1544
 5427SOL    HW133423   5.207   3.320   6.442  1.4504 -0.6797 -1.8789
 5427SOL    HW233424   5.268   3.252   6.563 -0.6723  0.4086 -0.1402
 5428SOL     OW33425   1.765   4.926   1.368  0.2275 -0.0040 -0.2761
 5428SOL    HW133426   1.859   4.907   1.373  0.3204  0.3191 -0.6708
 5428SOL    HW233427   1.737   4.933   1.459  0.3867 -1.0437 -0.1345
 5429SOL     OW33428   3.286   0.110   0.811 -0.3947 -0.2289 -0.1658
 5429SOL    HW133429   3.273   0.193   0.765 -1.5987  0.0507  0.6218
 5429SOL    HW233430   3.219   0.110   0.879  0.6404 -1.1073  0.9043
 5430SOL     OW33431   2.950   2.660   1.588 -0.2276  0.4981  0.1988
 5430SOL    HW133432   2.888   2.587   1.592  0.0581  0.2136 -0.3617
 5430SOL    HW233433   3.003   2.651   1.667 -0.8836  0.7276  0.6666
 5431SOL     OW33434   3.349   4.553   2.134 -0.4379 -0.3625  0.4435
 5431SOL    HW133435   3.440   4.533   2.155 -0.2297 -0.4305 -0.4867
 5431SOL    HW233436   3.348   4.648   2.118 -0.2007 -0.5868 -1.0575
 5432SOL     OW33437   5.277   2.118   0.134  0.7652 -0.4541 -0.7473
 5432SOL    HW133438   5.321   2.159   0.060  0.4430  1.9953  0.3508
 5432SOL    HW233439   5.327   2.144   0.211 -1.4859  0.9840  0.3565
 5433SOL     OW33440   2.032   6.529   0.513 -0.2522 -0.3948  0.0573
 5433SOL    HW133441   2.018   6.477   0.434  1.5230 -0.5635 -0.1965
 5433SOL    HW233442   2.106   6.586   0.491  0.2495 -0.4176  1.5790
 5434SOL     OW33443   4.239   1.814   1.273  0.2909 -0.6553 -0.1005
 5434SOL    HW133444   4.248   1.719   1.288  3.1864 -0.4658 -0.0533
 5434SOL    HW233445   4.278   1.828   1.187  0.5650  0.5728  0.2133
 5435SOL     OW33446   0.374   2.269   0.138 -0.5812  0.2350 -0.3587
 5435SOL    HW133447   0.361   2.330   0.210 -3.9617 -0.4671 -0.2146
 5435SOL    HW233448   0.434   2.202   0.174  1.2175  2.0660  0.2664
 5436SOL     OW33449   2.998   4.282   6.189  0.1794 -0.1005 -0.0284
 5436SOL    HW133450   3.019   4.356   6.131  0.4937  0.1442  0.3976
 5436SOL    HW233451   3.034   4.205   6.144  0.8868  0.1531  0.0941
 5437SOL     OW33452   4.120   3.084   0.405 -0.1563 -0.5520 -0.1367
 5437SOL    HW133453   4.194   3.023   0.402  0.0907 -0.2139 -1.1481
 5437SOL    HW233454   4.134   3.135   0.486 -0.0576 -1.4319  0.4096
 5438SOL     OW33455   5.805   3.386   6.973  0.3011 -0.1645 -0.4968
 5438SOL    HW133456   5.761   3.326   7.033 -0.2461 -0.2285 -0.9617
 5438SOL    HW233457   5.812   3.467   7.023  1.6701 -0.7828  0.4000
 5439SOL     OW33458   0.968   2.738   0.003 -0.2789 -0.3851  0.2108
 5439SOL    HW133459   0.973   2.679   0.078 -0.2804  0.7338  1.1035
 5439SOL    HW233460   1.031   2.702  -0.060 -0.8432 -1.7835  0.3913
 5440SOL     OW33461   5.691   0.079   7.454  0.1549 -0.3296  0.6610
 5440SOL    HW133462   5.639   0.107   7.379 -0.5592  0.3658  1.3882
 5440SOL    HW233463   5.657  -0.007   7.477  1.7234 -1.4610 -1.0105
 5441SOL     OW33464   3.890   2.288   1.551 -0.7726 -0.1065 -0.2094
 5441SOL    HW133465   3.933   2.209   1.519 -0.1288  0.8596 -1.8767
 5441SOL    HW233466   3.811   2.296   1.497 -1.0451  0.1605  0.2247
 5442SOL     OW33467   5.549   5.653   7.227 -0.2860  0.4037  0.1392
 5442SOL    HW133468   5.574   5.634   7.137  1.5473  0.9287  0.5064
 5442SOL    HW233469   5.519   5.744   7.226 -3.8295 -0.6049 -0.5691
 5443SOL     OW33470   0.969   4.886   6.998  0.2928  0.6884  0.1900
 5443SOL    HW133471   0.880   4.858   7.016  0.0346  2.7779  2.7698
 5443SOL    HW233472   0.960   4.954   6.931  0.0747  0.3454 -0.1371
 5444SOL     OW33473   1.878   0.929   6.531  0.2082 -0.4210  0.2041
 5444SOL    HW133474   1.791   0.957   6.502  0.8294 -0.4626 -1.9109
 5444SOL    HW233475   1.906   0.997   6.592 -0.8672  0.1723  0.0612
 5445SOL     OW33476   5.582   1.513   5.877 -0.2132 -0.4756 -0.4568
 5445SOL    HW133477   5.643   1.579   5.911  0.2391 -0.6967 -0.8351
 5445SOL    HW233478   5.637   1.450   5.831 -0.5581 -1.5176  0.5140
 5446SOL     OW33479   2.054   1.936   7.327  0.1906 -0.3880  0.0814
 5446SOL    HW133480   2.030   2.005   7.264 -0.7004 -1.2314 -0.5180
 5446SOL    HW233481   1.984   1.871   7.320 -1.8342  0.9555  4.3394
 5447SOL     OW33482   2.377   1.405   7.379 -0.5396  0.2992  0.1702
 5447SOL    HW133483   2.287   1.375   7.391 -0.3131  0.1881  1.7982
 5447SOL    HW233484   2.404   1.369   7.294 -2.1155  0.5867 -0.4756
 5448SOL     OW33485   3.563   4.496   7.222  0.3947  0.3723 -0.4015
 5448SOL    HW133486   3.612   4.498   7.140 -1.1365  1.1227 -1.3439
 5448SOL    HW233487   3.487   4.441   7.204  0.4824 -0.1864  0.8060
 5449SOL     OW33488   4.502   5.120   6.463 -0.4123 -0.0528  0.6426
 5449SOL    HW133489   4.433   5.086   6.407 -0.9358  1.5967  0.2286
 5449SOL    HW233490   4.569   5.151   6.402 -0.6157  1.0022  0.9429
 5450SOL     OW33491   5.880   2.961   0.645 -0.1561  0.1612  0.6022
 5450SOL    HW133492   5.889   2.939   0.552  1.2817  0.3277  0.6853
 5450SOL    HW233493   5.785   2.959   0.661 -0.3422 -1.8202 -0.3899
 5451SOL     OW33494   3.668   4.072   0.490 -0.2009  0.6885 -0.4726
 5451SOL    HW133495   3.735   4.134   0.517  2.0226 -0.7746 -2.2504
 5451SOL    HW233496   3.649   4.095   0.399 -0.2307 -0.4557 -0.7695
 5452SOL     OW33497   5.220   1.964   6.258  0.0628 -0.4641  0.3906
 5452SOL    HW133498   5.209   2.005   6.173  0.0104 -0.3994  0.4283
 5452SOL    HW233499   5.307   1.924   6.255 -0.3567 -1.3775 -0.0832
 5453SOL     OW33500   2.470   4.347   7.458 -0.3116  0.1792  0.6167
 5453SOL    HW133501   2.397   4.313   7.509 -2.4166  0.6252 -1.9071
 5453SOL    HW233502   2.455   4.315   7.369  1.8154  1.4485 -0.2883
 5454SOL     OW33503   4.094   2.294   7.406  0.2440  0.1374  0.2310
 5454SOL    HW133504   4.144   2.374   7.393  0.7859  0.2066  2.3524
 5454SOL    HW233505   4.038   2.288   7.329  0.7283  2.1437 -0.3388
 5455SOL     OW33506   0.416   4.089   0.649  0.2642  1.0145 -0.0715
 5455SOL    HW133507   0.416   4.144   0.727  0.3036 -0.2393  0.8389
 5455SOL    HW233508   0.325   4.085   0.622 -0.2927 -1.1519  1.8486
 5456SOL     OW33509   5.974   5.156   7.270 -0.4604  0.0981 -0.1453
 5456SOL    HW133510   5.935   5.078   7.308  0.7199 -0.0276  0.8630
 5456SOL    HW233511   5.958   5.225   7.334 -0.1282  0.3221 -0.2951
 5457SOL     OW33512   0.177   0.469   0.363  0.1181  0.2337  0.1833
 5457SOL    HW133513   0.203   0.434   0.448  2.1960  2.3927  0.5530
 5457SOL    HW233514   0.157   0.392   0.310 -1.2869 -1.1729  2.5871
 5458SOL     OW33515   3.276   5.724   7.257 -0.0131  0.3001 -0.6265
 5458SOL    HW133516   3.283   5.722   7.353 -1.3715  0.3752 -0.5041
 5458SOL    HW233517   3.232   5.642   7.235 -0.3354  0.6066 -1.1207
 5459SOL     OW33518   4.457   6.414   0.904 -0.1185 -0.6087 -0.0345
 5459SOL    HW133519   4.551   6.432   0.903 -0.4993  1.9239  1.2410
 5459SOL    HW233520   4.419   6.489   0.950 -3.0084 -0.4859 -2.3668
 5460SOL     OW33521   4.654   2.862   6.308 -0.1107 -0.0325 -0.0533
 5460SOL    HW133522   4.661   2.780   6.356  0.4164 -0.1521 -0.3195
 5460SOL    HW233523   4.714   2.922   6.353 -0.2299  0.1026 -0.0714
 5461SOL     OW33524   2.560   4.761   0.771 -0.0864 -0.0463 -0.0911
 5461SOL    HW133525   2.538   4.844   0.730  1.0629  1.4642  2.1435
 5461SOL    HW233526   2.655   4.764   0.783 -0.0496 -1.6033  0.2219
 5462SOL     OW33527   5.106   5.671   1.406 -0.5129  0.4864 -0.5164
 5462SOL    HW133528   5.045   5.622   1.350  0.2028 -0.4346 -0.5044
 5462SOL    HW233529   5.071   5.761   1.406 -1.6579  0.0556 -0.8002
 5463SOL     OW33530   3.551   3.448   0.689  0.5612 -0.7152 -0.6662
 5463SOL    HW133531   3.558   3.362   0.647  0.0452 -0.9398 -0.2955
 5463SOL    HW233532   3.457   3.463   0.699  0.6297 -1.3844  1.8008
 5464SOL     OW33533   1.751   5.524   1.009 -0.4733 -0.4428  0.2088
 5464SOL    HW133534   1.834   5.486   1.037  1.1228  0.6303 -2.6156
 5464SOL    HW233535   1.763   5.619   1.017 -1.3534 -0.2576 -0.3848
 5465SOL     OW33536   3.489   4.413   0.566  0.2498  0.2326  0.2600
 5465SOL    HW133537   3.404   4.406   0.609 -0.5799  1.7864 -0.9892
 5465SOL    HW233538   3.549   4.362   0.621 -1.0903  0.6673  2.2149
 5466SOL     OW33539   6.301   6.218   1.143  0.1152 -0.3695 -0.5682
 5466SOL    HW133540   6.372   6.246   1.085  0.2772 -0.6051 -0.4891
 5466SOL    HW233541   6.345   6.163   1.208  0.0810  0.6390  0.3270
 5467SOL     OW33542   0.399   5.800   5.350  0.6803 -0.1625 -0.0143
 5467SOL    HW133543   0.349   5.746   5.289 -0.0886 -1.4323  1.6451
 5467SOL    HW233544   0.340   5.873   5.371  0.2698 -0.6120  0.4426
 5468SOL     OW33545   0.402   2.320   0.824  0.1055  0.1657 -0.1458
 5468SOL    HW133546   0.381   2.239   0.777  1.2896 -0.5524  0.4801
 5468SOL    HW233547   0.407   2.387   0.757 -0.8363 -0.2959 -0.6894
 5469SOL     OW33548   2.120   2.584   1.690 -0.0735  0.2885  0.0153
 5469SOL    HW133549   2.120   2.511   1.628  0.4317  0.1352  0.1913
 5469SOL    HW233550   2.056   2.559   1.756  0.1224 -0.0124  0.0925
 5470SOL     OW33551   4.136   5.833   7.148  0.3677  0.7762  0.5628
 5470SOL    HW133552   4.099   5.750   7.177 -0.1397  0.9689  0.4806
 5470SOL    HW233553   4.227   5.812   7.124  0.1485  0.1840  0.2350
 5471SOL     OW33554   5.284   4.302   7.357 -0.2113 -0.2880  0.0531
 5471SOL    HW133555   5.269   4.256   7.440  1.2057  0.8001  0.9624
 5471SOL    HW233556   5.283   4.395   7.380 -1.8235  0.1335 -1.5332
 5472SOL     OW33557   5.478   4.658   7.372 -0.5764 -0.1472  0.2692
 5472SOL    HW133558   5.454   4.744   7.406  1.1278  0.1576  0.7833
 5472SOL    HW233559   5.429   4.651   7.290  0.2542  1.8987 -0.4676
 5473SOL     OW33560   0.669   0.224   6.947 -0.3080 -0.4369 -0.6306
 5473SOL    HW133561   0.747   0.179   6.915  0.9509  0.4747  1.0247
 5473SOL    HW233562   0.637   0.169   7.019 -0.3072 -0.0384 -0.3239
 5474SOL     OW33563   0.268   1.150   6.558 -0.1941 -0.4940  0.0973
 5474SOL    HW133564   0.245   1.200   6.636  2.3004  2.3466 -0.8325
 5474SOL    HW233565   0.212   1.185   6.488 -1.8724 -2.5063  0.2938
 5475SOL     OW33566   6.031   5.961   1.615 -0.1100 -0.4238  0.4252
 5475SOL    HW133567   5.982   5.958   1.698 -2.1026 -2.6381 -0.7080
 5475SOL    HW233568   6.117   5.927   1.637 -0.6864 -1.2111  1.6021
 5476SOL     OW33569   4.373   2.399   1.178  0.3974  0.6941  0.2064
 5476SOL    HW133570   4.382   2.370   1.268  0.2352  0.0907  0.0386
 5476SOL    HW233571   4.372   2.494   1.182  0.6726  0.6696  0.8098
 5477SOL     OW33572   0.901   5.666   0.709  0.2855 -0.2751 -0.3446
 5477SOL    HW133573   0.822   5.613   0.712  0.7941 -1.0141  0.8169
 5477SOL    HW233574   0.933   5.658   0.619 -0.2408 -1.0435 -0.4679
 5478SOL     OW33575   4.404   2.923   6.584 -0.3103 -0.2339 -0.3903
 5478SOL    HW133576   4.466   2.881   6.524  0.1580  0.5153 -0.4322
 5478SOL    HW233577   4.394   2.860   6.656  1.2761  0.0666  0.1243
 5479SOL     OW33578   4.658   2.561   5.901  0.9502  0.0198 -0.6773
 5479SOL    HW133579   4.686   2.649   5.923  0.9596  0.0846 -0.9410
 5479SOL    HW233580   4.679   2.551   5.808 -0.2185  0.2074 -0.9884
 5480SOL     OW33581   2.800   4.538   0.771  0.2399  0.2906  0.1472
 5480SOL    HW133582   2.847   4.459   0.744  0.2202  1.2613 -2.9851
 5480SOL    HW233583   2.714   4.505   0.797 -0.4025 -0.6698 -2.8180
 5481SOL     OW33584   2.104   4.083   1.207  0.3595 -0.0584  0.1010
 5481SOL    HW133585   2.154   4.164   1.198 -0.1548  0.2513  0.0109
 5481SOL    HW233586   2.153   4.019   1.154  0.6071  0.2650 -0.0639
 5482SOL     OW33587   0.303   4.876   5.451  0.2147 -0.2277  0.2761
 5482SOL    HW133588   0.397   4.885   5.461  0.2474 -1.5009  1.4504
 5482SOL    HW233589   0.267   4.937   5.516  0.3118 -1.8364  1.9245
 5483SOL     OW33590   1.017   2.175   5.596  0.6855 -0.1484  0.2131
 5483SOL    HW133591   1.046   2.239   5.660 -1.6241  1.9548 -0.6559
 5483SOL    HW233592   1.015   2.223   5.513  2.1093 -2.3425 -1.1912
 5484SOL     OW33593   1.256   0.084   1.657 -0.1016  0.1357 -0.1262
 5484SOL    HW133594   1.164   0.110   1.649 -0.5938 -1.6634 -0.8318
 5484SOL    HW233595   1.299   0.158   1.700 -2.0230  0.6988  0.9114
 5485SOL     OW33596   5.211   3.354   0.363 -0.1980  0.0815  0.0636
 5485SOL    HW133597   5.135   3.377   0.309  0.1378  1.4187  0.1227
 5485SOL    HW233598   5.206   3.414   0.437  0.5663 -0.2497  0.3884
 5486SOL     OW33599   2.974   6.559   6.423  0.2572 -0.2296  0.0770
 5486SOL    HW133600   2.911   6.557   6.351 -0.5722  0.7349  0.7458
 5486SOL    HW233601   3.041   6.621   6.395  0.7570 -1.0168 -0.5019
 5487SOL     OW33602   2.037   0.974   0.629  0.2282 -0.2650  0.3909
 5487SOL    HW133603   2.106   1.028   0.667 -1.2609  0.3624  2.3645
 5487SOL    HW233604   1.968   1.036   0.604  0.0504 -0.9372 -0.8873
 5488SOL     OW33605   3.190   4.441   5.354  0.2736 -0.2778 -0.6056
 5488SOL    HW133606   3.110   4.397   5.325 -0.0516  0.9565 -1.7334
 5488SOL    HW233607   3.194   4.425   5.448 -1.4770 -0.1112 -0.4661
 5489SOL     OW33608   6.316   2.415   0.134 -0.3016 -0.5851 -0.3054
 5489SOL    HW133609   6.334   2.459   0.051 -0.3211  0.1856  0.0815
 5489SOL    HW233610   6.356   2.473   0.200 -0.2260 -1.2197  0.2146
 5490SOL     OW33611   2.106   4.767   5.986  0.4159  0.5497  0.3549
 5490SOL    HW133612   2.102   4.732   6.075  0.8410  2.0056  0.9952
 5490SOL    HW233613   2.020   4.806   5.971  1.0537  2.4063  1.1105
 5491SOL     OW33614   1.064   4.711   5.999  0.3566  0.4253  0.2470
 5491SOL    HW133615   0.986   4.754   5.963 -0.5264 -0.8964  0.4943
 5491SOL    HW233616   1.061   4.623   5.963  2.1203  0.5267 -0.2489
 5492SOL     OW33617   5.985   6.311   6.411  0.1525  0.3614  0.4354
 5492SOL    HW133618   6.053   6.298   6.345  0.3802  0.2747  0.6826
 5492SOL    HW233619   5.992   6.234   6.468 -0.0256  0.4467  0.5736
 5493SOL     OW33620   0.587   2.005   0.880  0.3915 -0.5100 -0.2181
 5493SOL    HW133621   0.538   1.966   0.953  0.0643 -0.2607 -0.3000
 5493SOL    HW233622   0.519   2.033   0.818  0.7177 -2.2173 -1.4105
 5494SOL     OW33623   2.508   5.981   5.754 -0.0367  0.0448  0.3887
 5494SOL    HW133624   2.514   5.904   5.697  1.5429  1.3564 -1.3610
 5494SOL    HW233625   2.586   5.977   5.808 -0.3519  0.0255  0.8470
 5495SOL     OW33626   3.787   0.108   7.212  0.1951 -0.2005  0.6915
 5495SOL    HW133627   3.696   0.087   7.191 -0.1097 -0.4756  2.1281
 5495SOL    HW233628   3.837   0.031   7.184  0.1273  0.2926 -0.8690
 5496SOL     OW33629   0.614   6.172   1.186 -0.1356 -0.1016  0.1494
 5496SOL    HW133630   0.625   6.192   1.093 -1.1808 -1.3696 -0.2893
 5496SOL    HW233631   0.678   6.103   1.203  0.8688  0.9370  0.6928
 5497SOL     OW33632   1.357   6.186   1.115 -0.6083 -0.4268  0.2791
 5497SOL    HW133633   1.320   6.124   1.178  2.0266 -1.3219  1.0765
 5497SOL    HW233634   1.390   6.258   1.168  0.1819 -0.4239 -0.1975
 5498SOL     OW33635   2.270   4.577   1.337 -0.6963 -0.4427  0.3237
 5498SOL    HW133636   2.363   4.601   1.335 -0.4873 -1.2604 -0.6139
 5498SOL    HW233637   2.232   4.633   1.405  0.2625  0.6773 -0.0313
 5499SOL     OW33638   1.415   0.635   6.229  0.9265 -0.2342 -0.1909
 5499SOL    HW133639   1.380   0.724   6.229  1.1468 -0.1443 -0.6000
 5499SOL    HW233640   1.369   0.591   6.157 -0.3836 -0.9455  1.0111
 5500SOL     OW33641   6.213   2.438   6.920 -0.0442 -0.1591  0.3629
 5500SOL    HW133642   6.232   2.510   6.980 -0.1488 -0.0613  0.2780
 5500SOL    HW233643   6.260   2.460   6.840 -0.9616  0.3628 -0.0423
 5501SOL     OW33644   1.773   1.149   0.909  0.3307  0.3462 -0.3277
 5501SOL    HW133645   1.834   1.143   0.982  0.7234 -1.2226 -0.7411
 5501SOL    HW233646   1.761   1.058   0.880 -1.7639  0.6532 -0.6170
 5502SOL     OW33647   2.016   2.184   7.104  0.2635 -0.1894 -0.6526
 5502SOL    HW133648   1.965   2.263   7.121 -1.1086 -0.7185 -2.1299
 5502SOL    HW233649   1.951   2.114   7.098  1.4810 -1.5340  0.9664
 5503SOL     OW33650   0.124   3.178   7.016  0.5944 -0.5830 -0.1278
 5503SOL    HW133651   0.213   3.151   7.037  0.1673 -1.5754  0.5338
 5503SOL    HW233652   0.085   3.101   6.975 -0.3896 -0.6824  0.9345
 5504SOL     OW33653   5.098   2.712   1.178  0.2535 -0.0143 -0.0624
 5504SOL    HW133654   5.032   2.767   1.218 -0.6722 -1.4767  0.5051
 5504SOL    HW233655   5.053   2.669   1.105  1.7416  2.1327 -2.4191
 5505SOL     OW33656   6.147   1.085   5.427 -0.4180  0.0614 -0.0353
 5505SOL    HW133657   6.155   1.012   5.365 -3.5995  1.0666 -1.8343
 5505SOL    HW233658   6.238   1.109   5.447  0.7701 -1.2094 -3.2649
 5506SOL     OW33659   5.838   3.471   0.804  0.1534 -0.0936 -0.5867
 5506SOL    HW133660   5.768   3.415   0.838 -1.2716  2.8348  1.8001
 5506SOL    HW233661   5.918   3.430   0.834 -0.8494 -0.7736  1.3216
 5507SOL     OW33662   3.371   1.591   7.451 -0.4311 -0.2157 -0.0173
 5507SOL    HW133663   3.422   1.653   7.503  0.1110 -0.4133 -0.3074
 5507SOL    HW233664   3.374   1.626   7.362 -2.1396  0.6320  0.2080
 5508SOL     OW33665   3.604   5.294   0.238 -0.2703  0.0439  0.7537
 5508SOL    HW133666   3.622   5.358   0.169 -2.0337 -1.2273 -1.0047
 5508SOL    HW233667   3.541   5.338   0.296  1.4710  1.2419  1.8664
 5509SOL     OW33668   4.048   2.475   5.975 -0.1891 -0.0364 -0.3441
 5509SOL    HW133669   4.089   2.525   5.905 -1.4428  1.5200 -0.0104
 5509SOL    HW233670   3.968   2.440   5.937 -0.4616  0.1195  0.0806
 5510SOL     OW33671   4.395   0.329   1.354  0.1557 -0.5274 -0.0078
 5510SOL    HW133672   4.468   0.289   1.308  0.7503  0.2845  0.2034
 5510SOL    HW233673   4.431   0.411   1.390 -0.5376 -0.6641  1.0643
 5511SOL     OW33674   3.866   3.486   5.671 -0.6474 -1.2844 -0.8013
 5511SOL    HW133675   3.843   3.459   5.582 -1.6728  0.7465 -1.2174
 5511SOL    HW233676   3.821   3.570   5.683 -0.2300 -1.3239  1.5128
 5512SOL     OW33677   3.542   0.277   7.389  0.1853  0.0033 -0.2408
 5512SOL    HW133678   3.627   0.287   7.434  0.4982 -1.4854 -0.4429
 5512SOL    HW233679   3.564   0.281   7.296 -0.1241  0.6579 -0.2895
 5513SOL     OW33680   4.884   4.521   1.890  0.8261 -0.6204 -0.2710
 5513SOL    HW133681   4.921   4.486   1.808  1.4213 -0.5222 -0.0490
 5513SOL    HW233682   4.803   4.564   1.863  0.4557 -1.5344 -0.6532
 5514SOL     OW33683   3.263   2.945   1.048  0.3024 -0.4468 -0.3432
 5514SOL    HW133684   3.325   3.003   1.003  0.1007  1.3118  1.4722
 5514SOL    HW233685   3.317   2.874   1.083  1.0095  0.0782 -0.3421
 5515SOL     OW33686   0.696   4.860   7.016  0.1460 -0.6886 -0.3217
 5515SOL    HW133687   0.637   4.850   6.941 -1.5151 -1.5883  1.0186
 5515SOL    HW233688   0.657   4.805   7.084  1.6739 -0.0141  1.1665
 5516SOL     OW33689   4.113   2.604   2.465 -0.3451  0.2883 -0.3085
 5516SOL    HW133690   4.099   2.689   2.506 -1.3240  0.3650 -0.7862
 5516SOL    HW233691   4.202   2.580   2.490  0.2659  1.8399 -0.8715
 5517SOL     OW33692   5.346   5.146   6.633 -0.3002  0.3493 -0.2273
 5517SOL    HW133693   5.321   5.057   6.657  2.2364 -0.4051 -0.1189
 5517SOL    HW233694   5.314   5.201   6.705 -1.4685 -0.5111 -0.0691
 5518SOL     OW33695   4.761   2.669   1.119 -0.3808  0.5087  0.5458
 5518SOL    HW133696   4.675   2.668   1.076  0.2305  0.5840 -0.7074
 5518SOL    HW233697   4.804   2.589   1.089 -0.5363 -0.3005  2.3196
 5519SOL     OW33698   4.833   4.430   7.207 -0.8979 -0.1436 -0.0071
 5519SOL    HW133699   4.841   4.336   7.219  0.5813  0.0878  1.3470
 5519SOL    HW233700   4.772   4.441   7.135 -1.1082 -2.1283 -0.1821
 5520SOL     OW33701   0.744   4.205   1.444 -0.6192  0.5143 -0.5312
 5520SOL    HW133702   0.786   4.219   1.360 -1.1213  0.3215 -0.8169
 5520SOL    HW233703   0.688   4.282   1.456 -0.6413  0.4832 -0.4309
 5521SOL     OW33704   1.421   4.034   6.566  0.2965  0.4833  0.4321
 5521SOL    HW133705   1.447   4.064   6.479 -1.9754 -1.4486 -1.0153
 5521SOL    HW233706   1.326   4.047   6.569  0.1215 -0.8939  2.0428
 5522SOL     OW33707   4.059   5.255   1.494 -0.4083 -0.8478  0.2862
 5522SOL    HW133708   4.051   5.278   1.586  1.8600  3.8032 -0.4032
 5522SOL    HW233709   4.152   5.237   1.481 -0.4430 -0.0826 -1.2756
 5523SOL     OW33710   4.157   2.240   1.923  0.3035  0.5766 -0.3086
 5523SOL    HW133711   4.093   2.302   1.885  0.2192  0.3616 -0.5190
 5523SOL    HW233712   4.148   2.162   1.869 -0.6357 -0.1504  0.8504
 5524SOL     OW33713   4.267   3.146   6.603  0.5486 -0.3528  0.2538
 5524SOL    HW133714   4.324   3.076   6.570  0.2127 -1.9441  2.8231
 5524SOL    HW233715   4.179   3.123   6.571  0.4718 -1.0247  0.9300
 5525SOL     OW33716   2.951   6.426   4.737 -0.4291 -0.1795  0.7443
 5525SOL    HW133717   2.960   6.514   4.775  0.8625  0.7364 -1.5181
 5525SOL    HW233718   3.038   6.406   4.702 -1.4785 -1.0246 -1.5237
 5526SOL     OW33719   5.122   0.214   6.735 -0.4005  1.0912  0.2654
 5526SOL    HW133720   5.165   0.291   6.697 -0.9293  1.3880  0.2525
 5526SOL    HW233721   5.052   0.193   6.672  0.9546 -0.6185 -0.7785
 5527SOL     OW33722   4.975   0.172   1.643  0.6876 -0.1844  0.1857
 5527SOL    HW133723   4.929   0.234   1.699  2.0327  1.6693 -0.6806
 5527SOL    HW233724   4.947   0.086   1.675  0.4704  0.7984  2.8808
 5528SOL     OW33725   3.623   5.314   7.276  0.0553 -0.2274 -0.2838
 5528SOL    HW133726   3.552   5.303   7.339  0.7842 -0.0197  0.5982
 5528SOL    HW233727   3.702   5.291   7.325  0.7681  1.0752 -0.7724
 5529SOL     OW33728   1.281   4.068   1.654  0.5052  0.6414  0.6277
 5529SOL    HW133729   1.359   4.022   1.626 -0.2944 -0.4593  0.1269
 5529SOL    HW233730   1.268   4.136   1.587  0.1487 -0.2117 -0.1967
 5530SOL     OW33731   2.690   6.250   1.168 -0.0766 -0.0760 -0.3242
 5530SOL    HW133732   2.703   6.285   1.080 -0.9204  1.8966  0.2863
 5530SOL    HW233733   2.605   6.206   1.163  0.7983 -1.7901 -0.9840
 5531SOL     OW33734   0.962   1.335   6.003  0.5871 -0.0589 -0.6907
 5531SOL    HW133735   1.037   1.328   5.944 -0.1876  0.7585 -1.8219
 5531SOL    HW233736   0.886   1.332   5.945 -0.3140 -1.5755  0.4900
 5532SOL     OW33737   3.056   0.690   2.113  0.6300  0.0824  0.4475
 5532SOL    HW133738   3.122   0.649   2.168 -0.2761 -0.1814  1.3650
 5532SOL    HW233739   3.013   0.618   2.068  1.0393  0.2619 -0.2405
 5533SOL     OW33740   2.891   4.095   0.091 -0.3090  0.2521 -0.2402
 5533SOL    HW133741   2.934   4.055   0.016 -0.5024  1.9534 -1.3199
 5533SOL    HW233742   2.942   4.173   0.109 -0.2057 -0.1851  1.5030
 5534SOL     OW33743   5.646   5.042   7.452  0.1900  0.6694 -0.1151
 5534SOL    HW133744   5.731   4.999   7.437  0.1430 -2.0161  5.1041
 5534SOL    HW233745   5.664   5.107   7.519 -1.5496  1.8497 -0.7426
 5535SOL     OW33746   1.434   5.839   7.098  0.1696 -0.2321  0.4215
 5535SOL    HW133747   1.374   5.889   7.153 -0.1565 -1.1859  0.9615
 5535SOL    HW233748   1.378   5.774   7.054  0.4328  0.4448 -0.9915
 5536SOL     OW33749   0.077   2.277   6.517 -0.3251  0.4986  0.0270
 5536SOL    HW133750   0.044   2.359   6.482 -1.4611  0.0401 -0.0178
 5536SOL    HW233751  -0.000   2.220   6.522  0.2861 -0.2854  0.8460
 5537SOL     OW33752   4.057   3.568   1.775  0.9309 -0.1839  0.5250
 5537SOL    HW133753   3.964   3.545   1.762  0.6239  1.4895 -0.3881
 5537SOL    HW233754   4.099   3.544   1.693  0.8613  1.1844  0.0776
 5538SOL     OW33755   5.419   3.276   0.998 -0.3417  0.6619 -0.2600
 5538SOL    HW133756   5.492   3.332   1.026  2.0200 -2.0876 -0.4735
 5538SOL    HW233757   5.343   3.312   1.043  1.2740  3.0554  0.8163
 5539SOL     OW33758   4.385   0.517   5.375  0.1474 -0.6078 -0.1557
 5539SOL    HW133759   4.371   0.505   5.281 -1.2743 -1.5511  0.1465
 5539SOL    HW233760   4.354   0.606   5.392 -1.3667 -1.0787 -0.2906
 5540SOL     OW33761   0.792   4.720   6.469  0.1035  0.3034 -0.0870
 5540SOL    HW133762   0.866   4.775   6.497  0.2769 -0.6809  1.5352
 5540SOL    HW233763   0.827   4.631   6.472 -0.6117 -0.0286 -1.2126
 5541SOL     OW33764   6.175   2.004   1.714  0.2914  0.4501 -0.2714
 5541SOL    HW133765   6.165   2.087   1.761 -0.0276 -0.3465  1.0899
 5541SOL    HW233766   6.244   2.022   1.650 -1.6330  2.5901 -1.9169
 5542SOL     OW33767   6.504   4.961   6.013 -0.0016  0.1424  0.1580
 5542SOL    HW133768   6.530   5.051   6.034  0.4111  0.2916 -0.9405
 5542SOL    HW233769   6.503   4.916   6.098 -0.1419  1.1574  0.7088
 5543SOL     OW33770   3.846   6.206   1.735 -0.4274 -0.2089 -0.5927
 5543SOL    HW133771   3.926   6.259   1.745 -0.2791  0.1720 -3.0626
 5543SOL    HW233772   3.781   6.251   1.788  0.5754  0.4440  0.1314
 5544SOL     OW33773   4.445   3.198   0.544 -0.4190 -0.4808 -0.1222
 5544SOL    HW133774   4.504   3.251   0.490  0.8834 -2.4560 -0.7155
 5544SOL    HW233775   4.443   3.244   0.628  0.3746  0.7079 -0.7195
 5545SOL     OW33776   5.427   6.343   1.044 -0.5484 -0.3360 -0.2816
 5545SOL    HW133777   5.505   6.375   0.998 -1.5718  0.2315 -1.6969
 5545SOL    HW233778   5.449   6.350   1.137  1.5489 -1.3787 -0.6305
 5546SOL     OW33779   6.534   4.037   6.238 -0.2530 -0.2840  0.1381
 5546SOL    HW133780   6.517   3.945   6.257  3.2715 -1.4694 -1.5664
 5546SOL    HW233781   6.626   4.050   6.261  0.0599  2.1051 -1.9470
 5547SOL     OW33782   0.485   2.299   6.592 -0.3776 -0.1605  0.4952
 5547SOL    HW133783   0.500   2.226   6.532  0.9125 -1.2546  2.0597
 5547SOL    HW233784   0.463   2.257   6.675 -1.1904  1.2846  1.0333
 5548SOL     OW33785   4.005   3.027   7.296  0.1115 -0.0769 -0.0561
 5548SOL    HW133786   4.006   3.120   7.273 -1.5679 -0.2630 -0.9993
 5548SOL    HW233787   4.091   3.012   7.335  0.3670  1.8955  0.2624
 5549SOL     OW33788   6.375   5.214   5.321  0.5938 -0.8831  0.3261
 5549SOL    HW133789   6.460   5.216   5.364 -0.2749 -0.1490  2.0896
 5549SOL    HW233790   6.378   5.136   5.266  2.6622 -0.4537 -0.2433
 5550SOL     OW33791   3.971   4.937   1.093  0.6377  0.5151  0.1575
 5550SOL    HW133792   3.922   5.016   1.069  1.0289  0.6839 -0.0833
 5550SOL    HW233793   3.907   4.866   1.084  1.1200  0.3343 -2.8856
 5551SOL     OW33794   3.417   0.866   5.948  0.6063  0.1661  0.2764
 5551SOL    HW133795   3.394   0.932   5.882  0.5041 -0.2661 -0.1244
 5551SOL    HW233796   3.421   0.915   6.031 -1.0513  0.4050  0.2462
 5552SOL     OW33797   5.993   1.412   0.291 -0.0243  0.1016  0.0725
 5552SOL    HW133798   5.927   1.359   0.335  0.5660 -0.5118  0.2227
 5552SOL    HW233799   5.992   1.382   0.200 -0.1368  0.2775  0.0148
 5553SOL     OW33800   0.425   5.061   7.347  0.1898  0.1356 -0.6715
 5553SOL    HW133801   0.406   5.113   7.269  2.4133  1.1552 -0.6225
 5553SOL    HW233802   0.492   5.112   7.394 -0.0906 -1.1088  1.1978
 5554SOL     OW33803   3.406   2.715   0.596  0.0245  0.0347 -0.1719
 5554SOL    HW133804   3.480   2.683   0.543 -0.8853 -0.7541 -1.0181
 5554SOL    HW233805   3.420   2.678   0.683  1.2617  0.9039  0.0194
 5555SOL     OW33806   4.915   1.931   7.326  0.5166 -0.6456  0.2550
 5555SOL    HW133807   4.877   1.851   7.291 -0.3269 -0.3453  0.4703
 5555SOL    HW233808   5.006   1.929   7.296  0.6266 -1.8871  0.6326
 5556SOL     OW33809   1.470   0.727   1.355  0.5909 -0.1805  0.0535
 5556SOL    HW133810   1.469   0.749   1.448 -1.2135  1.0125 -0.1844
 5556SOL    HW233811   1.547   0.772   1.321  0.5383  0.4618  0.7473
 5557SOL     OW33812   4.230   1.975   5.950  0.0907  0.3348  0.6418
 5557SOL    HW133813   4.139   1.948   5.963  0.1809  0.0279  0.6547
 5557SOL    HW233814   4.224   2.061   5.910 -0.1995  1.0388  2.1172
 5558SOL     OW33815   3.609   4.473   0.967 -0.3295  0.0295 -0.6701
 5558SOL    HW133816   3.528   4.482   1.016 -0.5956  1.2206 -1.3038
 5558SOL    HW233817   3.633   4.562   0.942  0.9820 -0.3340 -0.8096
 5559SOL     OW33818   4.749   5.556   6.437 -0.4038 -0.1942  0.3070
 5559SOL    HW133819   4.791   5.493   6.377 -0.8946  0.3369 -0.6255
 5559SOL    HW233820   4.661   5.566   6.402 -1.0731 -0.7100  1.8065
 5560SOL     OW33821   2.772   4.996   0.556  0.1283 -0.3284 -0.4239
 5560SOL    HW133822   2.804   4.910   0.585  0.3529 -0.2295 -0.3707
 5560SOL    HW233823   2.843   5.029   0.500  0.5630  0.3230  0.4903
 5561SOL     OW33824   5.328   6.416   0.403  0.3215  0.1115  0.3189
 5561SOL    HW133825   5.293   6.354   0.467  0.8186 -1.6346 -1.0435
 5561SOL    HW233826   5.329   6.500   0.450 -1.8121 -0.5492  1.7245
 5562SOL     OW33827   3.478   0.771   6.934 -0.2503 -0.1033 -0.4634
 5562SOL    HW133828   3.560   0.814   6.909 -0.2410  0.3370  0.3002
 5562SOL    HW233829   3.500   0.725   7.015 -0.6049 -0.4771 -0.5803
 5563SOL     OW33830   4.973   5.364   0.807  0.1168  0.0531 -0.3322
 5563SOL    HW133831   5.024   5.292   0.843 -0.3329  0.6871  1.7037
 5563SOL    HW233832   4.883   5.332   0.807 -0.1100  0.6516  0.7572
 5564SOL     OW33833   3.948   6.035   0.670  0.6270 -0.4637  0.2440
 5564SOL    HW133834   3.854   6.046   0.657  0.7259  3.3662  1.4797
 5564SOL    HW233835   3.988   6.066   0.589  0.8255  1.1950  0.9432
 5565SOL     OW33836   0.605   3.880   4.845 -0.0394 -0.4490 -0.0157
 5565SOL    HW133837   0.678   3.831   4.884 -0.1693 -1.5626 -1.0897
 5565SOL    HW233838   0.528   3.824   4.860  0.0218 -1.3305 -2.4562
 5566SOL     OW33839   2.464   0.164   1.311  0.5217 -0.3568 -0.1190
 5566SOL    HW133840   2.490   0.074   1.291 -0.1748 -0.5851 -0.0484
 5566SOL    HW233841   2.513   0.187   1.390  0.6918 -0.6765 -0.1300
 5567SOL     OW33842   5.214   4.280   1.303  0.1165  0.0151  0.0321
 5567SOL    HW133843   5.273   4.206   1.317  1.5616  1.2428  0.8725
 5567SOL    HW233844   5.141   4.265   1.363  0.5701 -0.5627  0.4527
 5568SOL     OW33845   3.279   2.821   6.403 -0.0969  0.2561  0.0729
 5568SOL    HW133846   3.345   2.814   6.334 -0.2462  0.8159 -0.1326
 5568SOL    HW233847   3.329   2.821   6.485  0.1201  0.1681 -0.0597
 5569SOL     OW33848   3.905   0.308   5.854  0.3021  0.5879  0.0743
 5569SOL    HW133849   3.830   0.261   5.890  1.4589 -0.8272  0.7284
 5569SOL    HW233850   3.928   0.260   5.775  0.6159  0.9226 -0.0427
 5570SOL     OW33851   1.221   1.860   6.370  0.0057  0.0807 -0.2456
 5570SOL    HW133852   1.305   1.814   6.359  0.2897  0.6494 -0.5097
 5570SOL    HW233853   1.223   1.891   6.461  0.3000  0.5038 -0.3914
 5571SOL     OW33854   2.032   0.533   2.061  0.4336  0.1525 -0.1112
 5571SOL    HW133855   2.077   0.470   2.005  2.0618  0.6521  0.5841
 5571SOL    HW233856   2.097   0.559   2.126 -0.9567  0.7010  1.1317
 5572SOL     OW33857   1.862   2.011   6.817 -0.2079  0.2816 -0.1759
 5572SOL    HW133858   1.881   2.076   6.749  0.6769  0.7438  0.5085
 5572SOL    HW233859   1.947   1.972   6.838 -0.5714 -0.3102  0.2183
 5573SOL     OW33860   0.644   3.502   6.759 -0.0095  0.1194  0.2787
 5573SOL    HW133861   0.550   3.518   6.773  0.0077 -1.2236  2.3227
 5573SOL    HW233862   0.648   3.412   6.727  0.5789  0.1781  0.1878
 5574SOL     OW33863   4.124   0.920   0.539  0.3579  0.0403 -0.4130
 5574SOL    HW133864   4.030   0.919   0.520  0.3792 -0.2679 -0.4967
 5574SOL    HW233865   4.159   0.842   0.497  0.1701 -1.4691  2.0186
 5575SOL     OW33866   0.223   5.115   6.045  0.8475  0.3231 -0.0016
 5575SOL    HW133867   0.209   5.180   5.977  1.1662 -0.6381 -1.0230
 5575SOL    HW233868   0.316   5.123   6.068  0.6250  0.9799  0.6792
 5576SOL     OW33869   5.106   0.862   7.010 -0.1309  0.1637  0.0698
 5576SOL    HW133870   5.176   0.800   7.034  1.2787  1.5051 -0.4293
 5576SOL    HW233871   5.089   0.843   6.917 -0.8742 -0.5618  0.3446
 5577SOL     OW33872   4.106   2.900   6.917  0.2039 -0.4049 -0.0292
 5577SOL    HW133873   4.035   2.852   6.959 -0.4171  0.9609  0.5337
 5577SOL    HW233874   4.103   2.871   6.825 -1.7592  0.3731 -0.2626
 5578SOL     OW33875   1.436   1.634   6.986  0.2965 -0.1066  0.0246
 5578SOL    HW133876   1.348   1.669   6.979 -0.3536 -1.4792  0.7437
 5578SOL    HW233877   1.465   1.623   6.896 -0.8583 -0.9855 -0.2659
 5579SOL     OW33878   3.763   4.024   1.998  0.1297 -0.0053 -0.4670
 5579SOL    HW133879   3.831   4.013   2.064  1.8986  0.9553 -2.0420
 5579SOL    HW233880   3.798   3.980   1.920 -1.9598 -1.2364 -0.7926
 5580SOL     OW33881   3.812   0.975   6.732  0.0594  0.3570 -0.0186
 5580SOL    HW133882   3.756   0.910   6.690  1.0181 -0.3206 -0.2705
 5580SOL    HW233883   3.832   1.038   6.663 -2.0297  1.7800  0.5565
 5581SOL     OW33884   6.344   4.912   4.946 -0.3275  0.4514 -0.2516
 5581SOL    HW133885   6.255   4.946   4.951 -0.9060 -0.8335 -1.0446
 5581SOL    HW233886   6.333   4.822   4.913  1.4631  1.4343 -4.0981
 5582SOL     OW33887   3.511   3.106   0.081 -0.1125  0.1022 -0.5266
 5582SOL    HW133888   3.420   3.128   0.061 -0.2405  1.3602  1.2103
 5582SOL    HW233889   3.505   3.049   0.158  0.5382 -0.6250 -1.0074
 5583SOL     OW33890   3.874   0.089   0.209 -0.0479  0.4404  0.1188
 5583SOL    HW133891   3.963   0.125   0.212  1.4610 -2.7001 -1.7753
 5583SOL    HW233892   3.854   0.069   0.300  2.5319 -1.5702  0.3440
 5584SOL     OW33893   6.398   3.795   1.110 -0.1851 -0.2050  0.0460
 5584SOL    HW133894   6.357   3.860   1.166  0.3368  0.4247 -0.2952
 5584SOL    HW233895   6.492   3.811   1.117 -0.1317  1.0949 -2.3523
 5585SOL     OW33896   4.639   2.258   6.472 -0.4696  0.0906  0.0886
 5585SOL    HW133897   4.690   2.194   6.522  0.9804  1.7297  0.7881
 5585SOL    HW233898   4.674   2.252   6.383  0.0724  0.3277  0.2851
 5586SOL     OW33899   4.239   6.032   6.238 -0.0192 -0.4083  0.0018
 5586SOL    HW133900   4.144   6.027   6.223 -0.1658 -2.3760  1.1957
 5586SOL    HW233901   4.270   6.095   6.173 -2.1993  0.6901 -0.0869
 5587SOL     OW33902   0.358   0.758   1.152 -0.0024  0.1051  0.3431
 5587SOL    HW133903   0.448   0.726   1.163 -0.0814  0.0805  0.9856
 5587SOL    HW233904   0.340   0.748   1.059 -0.0451 -1.7900  0.5031
 5588SOL     OW33905   0.744   0.999   5.720 -0.1131 -0.0500 -1.0030
 5588SOL    HW133906   0.719   0.960   5.804 -0.7988  0.0009 -1.1804
 5588SOL    HW233907   0.828   1.041   5.738  0.4470 -1.2523 -0.7048
 5589SOL     OW33908   3.278   1.807   1.451 -0.7171  0.3311  0.2754
 5589SOL    HW133909   3.189   1.839   1.434 -1.2226 -1.9081 -1.7426
 5589SOL    HW233910   3.266   1.731   1.508 -0.0364  0.1989  0.2504
 5590SOL     OW33911   0.218   2.768   7.043  0.2997 -0.2054 -0.2564
 5590SOL    HW133912   0.296   2.756   7.097  0.1754  0.2457  0.0227
 5590SOL    HW233913   0.165   2.832   7.090 -0.2030 -0.4455 -0.4871
 5591SOL     OW33914   6.587   4.865   5.755 -0.0714  0.5252  0.3647
 5591SOL    HW133915   6.563   4.911   5.835  0.3554 -0.2122  0.9252
 5591SOL    HW233916   6.629   4.784   5.785  0.9547  0.6752 -0.5857
 5592SOL     OW33917   6.014   4.149   1.654 -0.1096 -0.0100  0.0826
 5592SOL    HW133918   6.041   4.127   1.565 -0.1479 -2.0054  0.5157
 5592SOL    HW233919   6.097   4.159   1.702 -0.1004  0.4115 -0.0116
 5593SOL     OW33920   1.340   5.660   0.326  0.0659 -0.0595  0.1332
 5593SOL    HW133921   1.330   5.565   0.312  0.6113  0.1632 -2.3567
 5593SOL    HW233922   1.362   5.668   0.419  2.0354 -2.5950  0.0202
 5594SOL     OW33923   4.280   6.247   0.789  0.0260 -0.0911 -0.5198
 5594SOL    HW133924   4.316   6.235   0.701 -1.6834  2.7104 -1.7575
 5594SOL    HW233925   4.326   6.325   0.822 -1.0698  0.3326  0.0386
 5595SOL     OW33926   4.560   5.081   7.470  0.7725  0.0320 -0.2063
 5595SOL    HW133927   4.545   5.139   7.545  0.8804 -0.4948  0.2304
 5595SOL    HW233928   4.648   5.046   7.484  0.1696 -1.3555  0.3248
 5596SOL     OW33929   4.120   0.505   1.832  0.1795  0.1695  0.1308
 5596SOL    HW133930   4.114   0.593   1.869  1.4169  0.3882 -0.1359
 5596SOL    HW233931   4.049   0.500   1.769  0.1412  1.0090  0.1020
 5597SOL     OW33932   2.130   2.531   6.578 -0.2508 -0.4313 -0.1008
 5597SOL    HW133933   2.086   2.456   6.539  0.4345 -0.6452 -0.4923
 5597SOL    HW233934   2.215   2.497   6.606 -0.5892 -0.1953  1.2765
 5598SOL     OW33935   3.107   0.386   1.592 -0.0265  0.7259  0.1197
 5598SOL    HW133936   3.017   0.418   1.586 -0.2004  0.3284  0.5336
 5598SOL    HW233937   3.113   0.347   1.679 -0.4717 -2.2979 -1.0999
 5599SOL     OW33938   0.108   5.141   6.367  0.0989  0.0026  0.1598
 5599SOL    HW133939   0.119   5.215   6.308 -0.6689 -0.2255 -0.2721
 5599SOL    HW233940   0.031   5.163   6.419 -0.8954 -1.0525 -0.8324
 5600SOL     OW33941   1.713   3.571   5.844  0.4408 -0.8099 -0.3726
 5600SOL    HW133942   1.644   3.573   5.910  0.4244 -0.5663 -0.3943
 5600SOL    HW233943   1.721   3.662   5.815  2.3724 -0.3808  1.2934
 5601SOL     OW33944   5.886   2.467   1.968 -0.3106 -0.0379  0.3559
 5601SOL    HW133945   5.812   2.441   1.912  0.3263 -1.3696  0.0873
 5601SOL    HW233946   5.844   2.506   2.045 -1.2845 -0.4066  0.0395
 5602SOL     OW33947   3.658   1.389   7.265  0.0574  0.4010  0.2037
 5602SOL    HW133948   3.614   1.359   7.185  0.8849  0.2465 -0.2003
 5602SOL    HW233949   3.732   1.440   7.233 -0.4269  1.5682  0.8805
 5603SOL     OW33950   5.374   3.702   2.830 -0.2916  0.3261  0.1760
 5603SOL    HW133951   5.297   3.759   2.831 -1.1368 -0.7789 -0.0128
 5603SOL    HW233952   5.378   3.664   2.917 -0.0271  0.2878  0.1497
 5604SOL     OW33953   3.114   4.276   0.132  0.4392  0.5759  0.3578
 5604SOL    HW133954   3.203   4.296   0.105  1.3517 -0.5711  2.2786
 5604SOL    HW233955   3.069   4.360   0.131  1.7821  1.3174  0.1575
 5605SOL     OW33956   4.890   0.880   0.510  0.4229 -0.2655 -0.8023
 5605SOL    HW133957   4.854   0.869   0.422  0.5046 -0.0512 -0.8609
 5605SOL    HW233958   4.841   0.953   0.547 -0.1372 -0.8268 -0.3973
 5606SOL     OW33959   6.388   3.400   0.219  0.0374  0.1580  0.0368
 5606SOL    HW133960   6.350   3.374   0.136  0.5689  0.1210 -0.1974
 5606SOL    HW233961   6.481   3.380   0.211 -0.2481 -2.1816  1.5325
 5607SOL     OW33962   4.786   1.118   7.224 -0.8313 -0.2322 -0.0342
 5607SOL    HW133963   4.697   1.093   7.249 -0.5419 -0.3204  0.9363
 5607SOL    HW233964   4.840   1.093   7.299  0.3161 -1.9224 -1.3217
 5608SOL     OW33965   3.303   6.108   0.360 -0.2933  1.1776  0.0261
 5608SOL    HW133966   3.368   6.044   0.332  0.0170  1.4841  0.0354
 5608SOL    HW233967   3.237   6.107   0.290 -0.2716  0.8805  0.0083
 5609SOL     OW33968   1.742   1.125   2.173  0.6825  0.0688  0.1268
 5609SOL    HW133969   1.744   1.173   2.256 -0.0019 -0.0631  0.2292
 5609SOL    HW233970   1.655   1.144   2.137  0.1616 -1.5548  0.4478
 5610SOL     OW33971   4.244   0.052   7.365  0.2196  0.4488  0.3101
 5610SOL    HW133972   4.310   0.119   7.384  1.6578 -0.8346  0.0398
 5610SOL    HW233973   4.294  -0.020   7.326 -1.4843 -0.2236 -0.7125
 5611SOL     OW33974   2.985   0.772   5.830 -0.4431 -0.0476 -0.0557
 5611SOL    HW133975   2.979   0.832   5.904 -0.3749 -0.7301  0.5184
 5611SOL    HW233976   2.943   0.818   5.758  1.3542  1.5291 -0.1774
 5612SOL     OW33977   2.174   1.658   7.302  0.1455  0.0815 -0.2794
 5612SOL    HW133978   2.238   1.608   7.352  0.1863 -0.1029 -0.5124
 5612SOL    HW233979   2.202   1.749   7.309 -0.6203  0.2301  1.1739
 5613SOL     OW33980   3.764   3.057   1.814 -0.2313  0.0204 -0.1270
 5613SOL    HW133981   3.718   3.114   1.876  1.5287  1.6199 -0.1902
 5613SOL    HW233982   3.851   3.045   1.852  0.0458 -1.1109 -1.0461
 5614SOL     OW33983   5.889   3.679   6.712 -0.1482 -0.6644  0.3632
 5614SOL    HW133984   5.797   3.691   6.733 -0.0923  1.7082 -0.4493
 5614SOL    HW233985   5.932   3.663   6.796 -1.2526 -1.7226  0.7541
 5615SOL     OW33986   1.766   5.092   5.115  0.4855 -0.3711  0.2705
 5615SOL    HW133987   1.826   5.067   5.045 -0.2147  0.4738 -0.6427
 5615SOL    HW233988   1.817   5.152   5.170  0.0169  1.6578 -1.4126
 5616SOL     OW33989   1.968   1.101   6.206  0.5729  0.5673  0.6938
 5616SOL    HW133990   1.995   1.062   6.123  1.7390  0.2892  1.1858
 5616SOL    HW233991   1.892   1.049   6.233 -0.0417  0.8854 -0.3537
 5617SOL     OW33992   4.287   5.956   6.491  0.4036  0.4605  0.2965
 5617SOL    HW133993   4.277   5.999   6.406 -0.4799  0.5166  0.4188
 5617SOL    HW233994   4.276   5.862   6.472  2.4917  0.2380  0.0034
 5618SOL     OW33995   6.389   0.572   0.706  0.4249  0.3671 -0.0646
 5618SOL    HW133996   6.474   0.535   0.681 -0.4266 -0.6139 -1.6442
 5618SOL    HW233997   6.411   0.656   0.747  2.0810  0.9434 -1.9706
 5619SOL     OW33998   1.321   4.938   0.194  0.2545  0.0895  0.0107
 5619SOL    HW133999   1.338   4.883   0.118  1.4607  0.4356  0.0180
 5619SOL    HW234000   1.250   4.996   0.166 -0.3038 -0.7496 -0.3456
 5620SOL     OW34001   1.807   0.390   0.909 -0.3026  0.1520  0.5228
 5620SOL    HW134002   1.864   0.342   0.848 -0.6392  0.2524  0.1258
 5620SOL    HW234003   1.867   0.426   0.974  0.0944  0.2588  0.1047
 5621SOL     OW34004   0.044   5.552   7.008  0.0576  0.7351  0.7735
 5621SOL    HW134005   0.043   5.632   7.060 -0.8203  1.4722 -0.3435
 5621SOL    HW234006   0.137   5.538   6.987  0.0840  2.4778 -0.4996
 5622SOL     OW34007   1.386   2.793   5.552  0.1015  0.2300 -0.0480
 5622SOL    HW134008   1.355   2.868   5.603  1.0366 -0.1761  1.1603
 5622SOL    HW234009   1.399   2.827   5.463  1.6199  1.8071  0.7306
 5623SOL     OW34010   0.427   2.489   6.419 -0.1250 -0.4479 -0.0079
 5623SOL    HW134011   0.382   2.541   6.486 -0.7490 -0.1351 -0.6445
 5623SOL    HW234012   0.449   2.407   6.462  0.7870  0.3037  0.9917
 5624SOL     OW34013   5.627   5.596   1.960 -0.0861 -0.3380 -0.2764
 5624SOL    HW134014   5.587   5.525   2.011 -0.1545  1.4383  2.2976
 5624SOL    HW234015   5.719   5.597   1.988 -0.2421  0.9850  0.2333
 5625SOL     OW34016   1.949   5.068   0.451  0.0731  0.5196  0.1369
 5625SOL    HW134017   1.961   5.157   0.482  1.4264  0.0961  0.9357
 5625SOL    HW234018   1.964   5.013   0.528  1.0867 -0.4640 -0.7166
 5626SOL     OW34019   2.852   0.035   5.972 -0.4949  0.1230  0.0443
 5626SOL    HW134020   2.861   0.115   5.922  0.0728  0.3366  0.4692
 5626SOL    HW234021   2.793  -0.020   5.921  1.0853 -0.1888 -1.5309
 5627SOL     OW34022   3.084   5.607   0.261  0.3098 -0.5964  0.3053
 5627SOL    HW134023   3.132   5.538   0.215  0.1425 -0.7600  0.3713
 5627SOL    HW234024   2.992   5.582   0.251  0.3045 -1.2117  1.6344
 5628SOL     OW34025   4.691   4.528   5.973  0.1986 -0.1116 -0.0048
 5628SOL    HW134026   4.702   4.581   5.894 -0.3139  0.0558  0.0315
 5628SOL    HW234027   4.608   4.482   5.960  0.3874 -0.5149  0.1925
 5629SOL     OW34028   2.466   0.120   6.241  0.4237 -0.4574 -0.0796
 5629SOL    HW134029   2.426   0.167   6.314 -1.0596 -0.7134 -0.6896
 5629SOL    HW234030   2.483   0.189   6.176 -2.8457 -0.7811 -1.4604
 5630SOL     OW34031   1.690   3.671   6.808 -0.1738 -0.0167 -0.1977
 5630SOL    HW134032   1.620   3.734   6.792 -0.6261 -0.5513 -0.3873
 5630SOL    HW234033   1.651   3.606   6.867  0.6980  0.5782  1.0751
 5631SOL     OW34034   2.733   4.353   4.791 -0.7549  0.6124  0.1277
 5631SOL    HW134035   2.662   4.406   4.757  0.4604  2.1512 -0.1175
 5631SOL    HW234036   2.706   4.330   4.880 -1.6554  0.9684 -0.0483
 5632SOL     OW34037   1.196   1.422   0.893  0.5592  0.3269 -0.3111
 5632SOL    HW134038   1.140   1.453   0.822  0.3066 -1.6118 -1.0192
 5632SOL    HW234039   1.184   1.486   0.963 -1.6670  0.6045 -0.8614
 5633SOL     OW34040   5.055   3.514   1.005  0.3964  0.5516  0.0207
 5633SOL    HW134041   5.096   3.440   1.051  0.8599  1.4632  1.1218
 5633SOL    HW234042   5.126   3.577   0.994  0.1668  0.5581 -1.5479
 5634SOL     OW34043   4.585   0.389   0.722 -1.0596  0.0095 -0.3530
 5634SOL    HW134044   4.580   0.312   0.779 -1.0094  0.5944  0.4701
 5634SOL    HW234045   4.676   0.419   0.732 -1.2895  0.6309 -0.0262
 5635SOL     OW34046   0.276   5.834   1.143  0.2275 -1.3156 -0.0307
 5635SOL    HW134047   0.302   5.830   1.051 -0.7932  1.2820 -0.5280
 5635SOL    HW234048   0.333   5.902   1.180  0.5509 -2.2483  1.2719
 5636SOL     OW34049   2.547   3.789   1.106  0.2149  0.4930  0.0030
 5636SOL    HW134050   2.618   3.735   1.140  0.7626  1.7442  0.9123
 5636SOL    HW234051   2.580   3.820   1.022 -0.1879 -0.7129 -0.6267
 5637SOL     OW34052   2.543   5.484   5.583 -0.4769  0.4678  0.4816
 5637SOL    HW134053   2.452   5.514   5.591 -1.2265 -1.6402  0.4365
 5637SOL    HW234054   2.552   5.459   5.491 -0.0384  0.1085  0.6171
 5638SOL     OW34055   4.760   3.477   7.288 -0.5110 -0.5545 -0.1128
 5638SOL    HW134056   4.786   3.496   7.379 -1.2982 -1.1423  0.2476
 5638SOL    HW234057   4.836   3.501   7.236  0.7768 -2.1836  0.8940
 5639SOL     OW34058   3.102   0.961   2.013  0.3267  0.4082 -0.1811
 5639SOL    HW134059   3.048   0.887   2.042  1.9238 -0.4882  0.6382
 5639SOL    HW234060   3.191   0.925   2.008  1.0068  2.0622 -0.6220
 5640SOL     OW34061   0.193   3.763   0.119  0.4318  0.1444 -0.1210
 5640SOL    HW134062   0.198   3.840   0.175  1.2134 -0.5574  0.8183
 5640SOL    HW234063   0.273   3.765   0.067  0.2120  0.2363 -0.4547
 5641SOL     OW34064   3.045   3.524   6.438 -0.7072  0.1847  0.1227
 5641SOL    HW134065   3.114   3.476   6.484 -2.7959 -1.3689  1.8531
 5641SOL    HW234066   3.088   3.605   6.408  1.9667 -0.9608  0.5370
 5642SOL     OW34067   3.250   2.012   1.131 -0.1358  0.1639 -0.6104
 5642SOL    HW134068   3.205   1.929   1.148 -0.1157  0.6266  2.2462
 5642SOL    HW234069   3.179   2.072   1.107 -0.7834  0.2587  1.3389
 5643SOL     OW34070   4.164   2.266   6.839  0.4416 -0.0722  0.0554
 5643SOL    HW134071   4.182   2.205   6.910  0.4180 -1.6439 -1.2361
 5643SOL    HW234072   4.069   2.262   6.827  0.3120  0.9674  0.5743
 5644SOL     OW34073   4.643   4.147   1.279 -0.1548  0.4755 -0.3590
 5644SOL    HW134074   4.703   4.187   1.217  0.8108 -1.7129 -0.9546
 5644SOL    HW234075   4.573   4.210   1.290  1.5501  2.5281 -0.7268
 5645SOL     OW34076   1.860   2.026   0.177  0.2102 -0.0025 -0.1138
 5645SOL    HW134077   1.916   1.949   0.175  0.2687  0.0201  0.4971
 5645SOL    HW234078   1.777   1.996   0.139  0.5424 -0.1080 -0.7574
 5646SOL     OW34079   0.704   1.492   0.729 -0.0472 -0.0656 -0.3266
 5646SOL    HW134080   0.746   1.558   0.784 -0.4996 -0.2048  0.2042
 5646SOL    HW234081   0.618   1.530   0.708 -0.2214 -0.3859 -0.2033
 5647SOL     OW34082   5.052   2.596   2.639  0.1044 -0.5246 -0.0026
 5647SOL    HW134083   5.140   2.618   2.670  0.0023 -0.0040 -0.0722
 5647SOL    HW234084   5.062   2.509   2.600  1.0294  0.3102 -1.7644
 5648SOL     OW34085   5.220   3.985   6.251 -0.1385  0.2102 -0.5209
 5648SOL    HW134086   5.156   4.057   6.245  0.7081  0.9875 -0.4695
 5648SOL    HW234087   5.170   3.907   6.227 -1.0851  0.8097 -0.5799
 5649SOL     OW34088   1.476   0.226   0.804 -0.1907 -0.3953  0.6640
 5649SOL    HW134089   1.400   0.222   0.747 -2.1237  0.2925  3.0402
 5649SOL    HW234090   1.545   0.181   0.755 -1.7505 -0.0308 -2.0585
 5650SOL     OW34091   2.481   5.478   7.085  0.0766 -0.1933  0.3023
 5650SOL    HW134092   2.569   5.493   7.119 -0.0345 -1.3115  1.1142
 5650SOL    HW234093   2.455   5.562   7.048  1.6707  0.0348 -0.3993
 5651SOL     OW34094   3.598   5.666   7.322 -0.3679 -0.8693  0.3244
 5651SOL    HW134095   3.519   5.626   7.288 -0.8041  0.7278 -0.6467
 5651SOL    HW234096   3.581   5.760   7.318  1.3527 -0.5043  0.6647
 5652SOL     OW34097   6.162   4.055   6.257  0.0321  0.4428  0.4377
 5652SOL    HW134098   6.251   4.059   6.293  0.5034 -0.9067 -0.4583
 5652SOL    HW234099   6.168   3.989   6.188 -2.0396 -0.9064  1.4340
 5653SOL     OW34100   4.576   1.368   6.969 -0.4289  0.2285  0.3297
 5653SOL    HW134101   4.550   1.449   6.924 -1.5816 -0.0576  0.4459
 5653SOL    HW234102   4.500   1.311   6.960  0.3632 -0.8403  0.2756
 5654SOL     OW34103   2.943   2.337   6.485 -1.0445 -0.1072 -0.0289
 5654SOL    HW134104   2.950   2.428   6.514  3.8505  0.0727 -0.8697
 5654SOL    HW234105   2.966   2.339   6.392 -0.5250 -2.1913  0.0043
 5655SOL     OW34106   0.304   0.174   1.769 -0.1808 -0.1559 -0.3974
 5655SOL    HW134107   0.238   0.150   1.834 -2.1483  0.1893 -2.1738
 5655SOL    HW234108   0.295   0.269   1.760  2.7174  0.4421  1.4861
 5656MOL     C134109   3.072   4.721   3.548 -0.1022 -0.0723  0.4272
 5656MOL     C234110   3.127   4.855   3.522  0.1916 -0.3098 -0.2105
 5656MOL     N134111   3.166   4.712   3.776  0.0703 -0.1140 -0.0338
 5656MOL     N234112   3.117   4.950   3.609  0.2353 -0.6213  0.1356
 5656MOL     C334113   3.137   4.838   3.825 -0.3876 -0.3778  0.3897
 5656MOL     C434114   3.054   4.934   3.741 -0.1515 -0.5406 -0.0367
 5656MOL     H134115   2.952   4.894   3.732 -0.5385 -0.7139  3.6361
 5656MOL     H234116   3.052   5.033   3.788  0.9713  0.9373 -2.8895
 5656MOL     C534117   3.061   4.519   3.685 -0.1335 -0.3204  0.4583
 5656MOL     C634118   2.993   4.452   3.583  0.0674 -0.6840  0.5633
 5656MOL     C734119   3.096   4.653   3.668 -0.9781 -0.0745  0.6089
 5656MOL     C834120   2.963   4.518   3.464 -0.3144 -0.6583  0.6744
 5656MOL     C934121   3.008   4.649   3.447 -0.7811 -0.4388  1.1086
 5656MOL     H334122   2.962   4.349   3.602  1.5585 -1.1804  0.4518
 5656MOL     H434123   2.987   4.679   3.344 -0.0615 -3.4246 -0.0063
 5656MOL     H534124   3.075   4.465   3.779 -0.7548 -0.6789  0.3455
 5656MOL     O134125   3.182   4.873   3.932  0.2667 -0.2869  0.0953
 5656MOL    C1034126   3.217   4.867   3.406  0.1686 -0.1113 -0.2080
 5656MOL    C1134127   3.349   4.909   3.428  0.0604  0.0364  0.1659
 5656MOL     N334128   3.168   4.846   3.283 -0.7469  0.0176  0.1246
 5656MOL    C1234129   3.426   4.948   3.318 -0.1956  0.0419 -0.0122
 5656MOL    C1334130   3.249   4.865   3.178 -0.1965  0.6165  0.6434
 5656MOL    C1434131   3.378   4.917   3.190  0.4195 -0.6907 -0.0696
 5656MOL     H634132   3.374   4.938   3.530 -0.9633 -1.5694  0.9076
 5656MOL     H734133   3.522   4.998   3.327 -1.1776  1.8672  0.9796
 5656MOL     H834134   3.207   4.837   3.082 -0.0173 -1.8874  1.2175
 5656MOL     H934135   3.436   4.941   3.101 -0.4332 -0.5002 -0.5798
 5656MOL    H1034136   3.225   4.655   3.836  0.3761  2.1500  1.9713
 5656MOL    BR134137   2.881   4.429   3.316 -0.1343  0.0998  0.1150
 5656MOL     EP34138   2.794   4.336   3.159  0.0565  0.9022 -0.4772
   6.60216   6.60216   7.48673
