POPC bilayer and 5FIBZ with EP hydrated t= 7070.00000 step= 1035000
34138
    1PA    C116    1   2.266   1.417   3.864
    1PA    H16R    2   2.198   1.400   3.780
    1PA    H16S    3   2.224   1.370   3.954
    1PA    H16T    4   2.357   1.362   3.841
    1PA    C115    5   2.295   1.567   3.880
    1PA    H15R    6   2.314   1.598   3.777
    1PA    H15S    7   2.200   1.614   3.905
    1PA    C114    8   2.427   1.596   3.952
    1PA    H14R    9   2.475   1.500   3.973
    1PA    H14S   10   2.491   1.667   3.898
    1PA    C113   11   2.402   1.664   4.087
    1PA    H13R   12   2.493   1.712   4.123
    1PA    H13S   13   2.333   1.749   4.079
    1PA    C112   14   2.350   1.568   4.195
    1PA    H12R   15   2.265   1.515   4.153
    1PA    H12S   16   2.427   1.492   4.210
    1PA    C111   17   2.313   1.648   4.321
    1PA    H11R   18   2.408   1.694   4.351
    1PA    H11S   19   2.233   1.720   4.308
    1PA    C110   20   2.270   1.561   4.440
    1PA    H10R   21   2.172   1.523   4.411
    1PA    H10S   22   2.340   1.478   4.442
    1PA     C19   23   2.277   1.632   4.576
    1PA     H9R   24   2.379   1.668   4.590
    1PA     H9S   25   2.208   1.717   4.582
    1PA     C18   26   2.232   1.533   4.684
    1PA     H8R   27   2.131   1.497   4.661
    1PA     H8S   28   2.292   1.443   4.698
    1PA     C17   29   2.217   1.599   4.821
    1PA     H7R   30   2.167   1.695   4.806
    1PA     H7S   31   2.156   1.544   4.894
    1PA     C16   32   2.356   1.629   4.879
    1PA     H6R   33   2.413   1.539   4.902
    1PA     H6S   34   2.416   1.681   4.805
    1PA     C15   35   2.342   1.702   5.013
    1PA     H5R   36   2.280   1.792   5.002
    1PA     H5S   37   2.287   1.639   5.083
    1PA     C14   38   2.480   1.732   5.073
    1PA     H4R   39   2.537   1.641   5.091
    1PA     H4S   40   2.540   1.784   4.998
    1PA     C13   41   2.461   1.788   5.215
    1PA     H3R   42   2.395   1.730   5.281
    1PA     H3S   43   2.558   1.770   5.261
    1PA     C12   44   2.433   1.939   5.222
    1PA     H2R   45   2.503   2.007   5.174
    1PA     H2S   46   2.336   1.961   5.176
    2PC     C11   47   2.446   1.997   5.361
    2PC     O12   48   2.475   1.924   5.453
    2PC     O11   49   2.432   2.131   5.369
    2PC      C1   50   2.455   2.193   5.496
    2PC      HR   51   2.403   2.289   5.488
    2PC      HS   52   2.416   2.133   5.579
    2PC      C2   53   2.606   2.210   5.513
    2PC      HX   54   2.651   2.115   5.544
    2PC      C3   55   2.628   2.300   5.636
    2PC      HA   56   2.597   2.243   5.724
    2PC      HB   57   2.737   2.309   5.645
    2PC     O31   58   2.562   2.427   5.620
    2PC     P31   59   2.580   2.531   5.741
    2PC     O32   60   2.733   2.573   5.721
    2PC     C31   61   2.777   2.648   5.607
    2PC     H1A   62   2.773   2.591   5.513
    2PC     H1B   63   2.713   2.736   5.593
    2PC     C32   64   2.924   2.689   5.627
    2PC     H2A   65   2.967   2.740   5.541
    2PC     H2B   66   2.921   2.744   5.720
    2PC     N31   67   3.025   2.582   5.656
    2PC     C33   68   3.157   2.647   5.688
    2PC     H3A   69   3.233   2.571   5.705
    2PC     H3B   70   3.188   2.703   5.600
    2PC     H3C   71   3.148   2.722   5.767
    2PC     C34   72   2.986   2.490   5.767
    2PC     H4A   73   2.945   2.559   5.841
    2PC     H4B   74   2.913   2.419   5.729
    2PC     H4C   75   3.078   2.446   5.806
    2PC     C35   76   3.049   2.501   5.533
    2PC     H5A   77   2.957   2.443   5.526
    2PC     H5B   78   3.139   2.442   5.551
    2PC     H5C   79   3.059   2.569   5.448
    2PC     O33   80   2.479   2.632   5.704
    2PC     O34   81   2.531   2.484   5.873
    2PC     O21   82   2.657   2.258   5.388
    2PC     C21   83   2.787   2.277   5.364
    2PC     O22   84   2.885   2.246   5.429
    3OL     C12   85   2.802   2.333   5.224
    3OL     H2R   86   2.898   2.381   5.208
    3OL     H2S   87   2.740   2.422   5.216
    3OL     C13   88   2.763   2.226   5.120
    3OL     H3R   89   2.746   2.275   5.024
    3OL     H3S   90   2.667   2.175   5.129
    3OL     C14   91   2.880   2.129   5.098
    3OL     H4R   92   2.970   2.180   5.132
    3OL     H4S   93   2.878   2.107   4.991
    3OL     C15   94   2.859   1.996   5.171
    3OL     H5R   95   2.780   1.942   5.119
    3OL     H5S   96   2.827   1.999   5.275
    3OL     C16   97   2.996   1.928   5.154
    3OL     H6R   98   3.080   1.991   5.185
    3OL     H6S   99   3.018   1.907   5.049
    3OL     C17  100   2.993   1.797   5.235
    3OL     H7R  101   2.905   1.744   5.197
    3OL     H7S  102   2.967   1.821   5.338
    3OL     C18  103   3.110   1.698   5.233
    3OL     H8R  104   3.205   1.741   5.265
    3OL     H8S  105   3.131   1.661   5.132
    3OL     C19  106   3.078   1.587   5.330
    3OL     H9R  107   3.087   1.606   5.437
    3OL    C110  108   3.067   1.459   5.300
    3OL    H10R  109   3.063   1.378   5.372
    3OL    C111  110   3.057   1.405   5.160
    3OL    H11R  111   3.136   1.331   5.142
    3OL    H11S  112   3.050   1.483   5.084
    3OL    C112  113   2.929   1.322   5.146
    3OL    H12R  114   2.917   1.266   5.239
    3OL    H12S  115   2.938   1.249   5.065
    3OL    C113  116   2.799   1.400   5.123
    3OL    H13R  117   2.808   1.451   5.027
    3OL    H13S  118   2.783   1.472   5.204
    3OL    C114  119   2.672   1.313   5.114
    3OL    H14R  120   2.587   1.380   5.099
    3OL    H14S  121   2.658   1.254   5.205
    3OL    C115  122   2.665   1.223   4.990
    3OL    H15R  123   2.584   1.152   5.008
    3OL    H15S  124   2.751   1.156   4.979
    3OL    C116  125   2.645   1.301   4.859
    3OL    H16R  126   2.741   1.345   4.830
    3OL    H16S  127   2.562   1.371   4.866
    3OL    C117  128   2.611   1.206   4.744
    3OL    H17R  129   2.675   1.118   4.752
    3OL    H17S  130   2.631   1.251   4.646
    3OL    C118  131   2.469   1.148   4.743
    3OL    H18R  132   2.454   1.088   4.654
    3OL    H18S  133   2.395   1.228   4.745
    3OL    H18T  134   2.454   1.076   4.824
    1PA    C116  135   1.782   1.377   3.863
    1PA    H16R  136   1.884   1.413   3.848
    1PA    H16S  137   1.744   1.390   3.965
    1PA    H16T  138   1.712   1.418   3.790
    1PA    C115  139   1.790   1.225   3.842
    1PA    H15R  140   1.693   1.178   3.858
    1PA    H15S  141   1.811   1.202   3.737
    1PA    C114  142   1.905   1.157   3.917
    1PA    H14R  143   1.999   1.207   3.893
    1PA    H14S  144   1.897   1.167   4.025
    1PA    C113  145   1.901   1.008   3.881
    1PA    H13R  146   1.890   1.009   3.773
    1PA    H13S  147   1.998   0.967   3.910
    1PA    C112  148   1.786   0.926   3.942
    1PA    H12R  149   1.691   0.968   3.909
    1PA    H12S  150   1.779   0.824   3.901
    1PA    C111  151   1.782   0.907   4.094
    1PA    H11R  152   1.791   1.009   4.132
    1PA    H11S  153   1.683   0.878   4.127
    1PA    C110  154   1.885   0.806   4.148
    1PA    H10R  155   1.890   0.715   4.087
    1PA    H10S  156   1.983   0.854   4.148
    1PA     C19  157   1.854   0.775   4.295
    1PA     H9R  158   1.937   0.712   4.327
    1PA     H9S  159   1.852   0.871   4.347
    1PA     C18  160   1.730   0.687   4.317
    1PA     H8R  161   1.638   0.733   4.283
    1PA     H8S  162   1.746   0.601   4.252
    1PA     C17  163   1.709   0.643   4.463
    1PA     H7R  164   1.624   0.574   4.460
    1PA     H7S  165   1.795   0.586   4.499
    1PA     C16  166   1.684   0.770   4.545
    1PA     H6R  167   1.757   0.848   4.525
    1PA     H6S  168   1.585   0.812   4.529
    1PA     C15  169   1.707   0.745   4.695
    1PA     H5R  170   1.639   0.669   4.734
    1PA     H5S  171   1.808   0.710   4.716
    1PA     C14  172   1.697   0.869   4.786
    1PA     H4R  173   1.766   0.945   4.748
    1PA     H4S  174   1.597   0.912   4.770
    1PA     C13  175   1.701   0.836   4.935
    1PA     H3R  176   1.609   0.878   4.977
    1PA     H3S  177   1.683   0.728   4.944
    1PA     C12  178   1.832   0.878   5.002
    1PA     H2R  179   1.912   0.834   4.941
    1PA     H2S  180   1.855   0.984   5.004
    2PC     C11  181   1.834   0.830   5.146
    2PC     O12  182   1.810   0.714   5.173
    2PC     O11  183   1.842   0.931   5.235
    2PC      C1  184   1.845   0.885   5.371
    2PC      HR  185   1.748   0.843   5.400
    2PC      HS  186   1.915   0.802   5.384
    2PC      C2  187   1.882   1.006   5.458
    2PC      HX  188   1.976   1.043   5.416
    2PC      C3  189   1.906   0.962   5.603
    2PC      HA  190   1.983   0.884   5.610
    2PC      HB  191   1.927   1.048   5.666
    2PC     O31  192   1.782   0.905   5.649
    2PC     P31  193   1.776   0.831   5.790
    2PC     O32  194   1.654   0.729   5.775
    2PC     C31  195   1.567   0.711   5.888
    2PC     H1A  196   1.608   0.654   5.971
    2PC     H1B  197   1.536   0.808   5.929
    2PC     C32  198   1.437   0.641   5.845
    2PC     H2A  199   1.379   0.613   5.933
    2PC     H2B  200   1.375   0.705   5.782
    2PC     N31  201   1.464   0.515   5.768
    2PC     C33  202   1.594   0.447   5.802
    2PC     H3A  203   1.616   0.358   5.744
    2PC     H3B  204   1.674   0.515   5.771
    2PC     H3C  205   1.596   0.433   5.910
    2PC     C34  206   1.361   0.413   5.806
    2PC     H4A  207   1.399   0.319   5.765
    2PC     H4B  208   1.367   0.405   5.915
    2PC     H4C  209   1.264   0.450   5.774
    2PC     C35  210   1.455   0.540   5.621
    2PC     H5A  211   1.351   0.556   5.591
    2PC     H5B  212   1.493   0.454   5.565
    2PC     H5C  213   1.512   0.629   5.597
    2PC     O33  214   1.895   0.750   5.828
    2PC     O34  215   1.756   0.938   5.890
    2PC     O21  216   1.791   1.116   5.443
    2PC     C21  217   1.841   1.239   5.423
    2PC     O22  218   1.956   1.271   5.440
    3OL     C12  219   1.736   1.343   5.392
    3OL     H2R  220   1.783   1.437   5.417
    3OL     H2S  221   1.650   1.321   5.456
    3OL     C13  222   1.701   1.333   5.242
    3OL     H3R  223   1.680   1.229   5.214
    3OL     H3S  224   1.785   1.357   5.177
    3OL     C14  225   1.580   1.423   5.216
    3OL     H4R  226   1.541   1.387   5.120
    3OL     H4S  227   1.616   1.526   5.209
    3OL     C15  228   1.457   1.401   5.305
    3OL     H5R  229   1.482   1.415   5.410
    3OL     H5S  230   1.428   1.297   5.288
    3OL     C16  231   1.343   1.493   5.260
    3OL     H6R  232   1.382   1.592   5.234
    3OL     H6S  233   1.265   1.501   5.336
    3OL     C17  234   1.275   1.441   5.133
    3OL     H7R  235   1.236   1.339   5.138
    3OL     H7S  236   1.343   1.433   5.047
    3OL     C18  237   1.160   1.532   5.088
    3OL     H8R  238   1.129   1.509   4.986
    3OL     H8S  239   1.195   1.635   5.081
    3OL     C19  240   1.046   1.517   5.186
    3OL     H9R  241   1.064   1.564   5.282
    3OL    C110  242   0.930   1.455   5.168
    3OL    H10R  243   0.856   1.467   5.247
    3OL    C111  244   0.894   1.380   5.043
    3OL    H11R  245   0.879   1.277   5.078
    3OL    H11S  246   0.966   1.393   4.962
    3OL    C112  247   0.755   1.423   4.994
    3OL    H12R  248   0.745   1.527   4.960
    3OL    H12S  249   0.693   1.412   5.083
    3OL    C113  250   0.718   1.323   4.884
    3OL    H13R  251   0.743   1.218   4.902
    3OL    H13S  252   0.782   1.332   4.797
    3OL    C114  253   0.576   1.333   4.827
    3OL    H14R  254   0.560   1.433   4.785
    3OL    H14S  255   0.500   1.304   4.901
    3OL    C115  256   0.566   1.235   4.709
    3OL    H15R  257   0.575   1.132   4.745
    3OL    H15S  258   0.647   1.266   4.642
    3OL    C116  259   0.428   1.238   4.644
    3OL    H16R  260   0.424   1.334   4.593
    3OL    H16S  261   0.343   1.234   4.713
    3OL    C117  262   0.404   1.137   4.530
    3OL    H17R  263   0.501   1.110   4.489
    3OL    H17S  264   0.354   1.193   4.451
    3OL    C118  265   0.325   1.018   4.587
    3OL    H18R  266   0.298   0.946   4.510
    3OL    H18S  267   0.237   1.056   4.639
    3OL    H18T  268   0.395   0.976   4.660
    1PA    C116  269   2.229   0.317   4.532
    1PA    H16R  270   2.331   0.359   4.534
    1PA    H16S  271   2.211   0.253   4.445
    1PA    H16T  272   2.213   0.269   4.628
    1PA    C115  273   2.131   0.435   4.525
    1PA    H15R  274   2.179   0.517   4.473
    1PA    H15S  275   2.041   0.407   4.468
    1PA    C114  276   2.105   0.504   4.659
    1PA    H14R  277   2.200   0.522   4.709
    1PA    H14S  278   2.045   0.593   4.640
    1PA    C113  279   2.011   0.423   4.750
    1PA    H13R  280   1.925   0.385   4.695
    1PA    H13S  281   2.060   0.331   4.785
    1PA    C112  282   1.985   0.505   4.877
    1PA    H12R  283   2.078   0.524   4.930
    1PA    H12S  284   1.946   0.607   4.865
    1PA    C111  285   1.893   0.423   4.968
    1PA    H11R  286   1.931   0.321   4.977
    1PA    H11S  287   1.893   0.456   5.072
    1PA    C110  288   1.749   0.421   4.915
    1PA    H10R  289   1.712   0.521   4.890
    1PA    H10S  290   1.755   0.371   4.818
    1PA     C19  291   1.665   0.343   5.017
    1PA     H9R  292   1.714   0.248   5.039
    1PA     H9S  293   1.676   0.400   5.110
    1PA     C18  294   1.518   0.319   4.980
    1PA     H8R  295   1.512   0.286   4.876
    1PA     H8S  296   1.475   0.245   5.048
    1PA     C17  297   1.446   0.454   4.978
    1PA     H7R  298   1.464   0.500   5.075
    1PA     H7S  299   1.500   0.509   4.901
    1PA     C16  300   1.294   0.450   4.954
    1PA     H6R  301   1.269   0.552   4.926
    1PA     H6S  302   1.273   0.386   4.868
    1PA     C15  303   1.202   0.403   5.068
    1PA     H5R  304   1.098   0.392   5.038
    1PA     H5S  305   1.232   0.302   5.097
    1PA     C14  306   1.203   0.498   5.189
    1PA     H4R  307   1.305   0.525   5.215
    1PA     H4S  308   1.157   0.591   5.155
    1PA     C13  309   1.138   0.447   5.318
    1PA     H3R  310   1.129   0.531   5.387
    1PA     H3S  311   1.039   0.406   5.299
    1PA     C12  312   1.230   0.347   5.390
    1PA     H2R  313   1.272   0.260   5.339
    1PA     H2S  314   1.309   0.398   5.446
    2PC     C11  315   1.156   0.278   5.502
    2PC     O12  316   1.173   0.165   5.543
    2PC     O11  317   1.067   0.361   5.560
    2PC      C1  318   0.986   0.313   5.670
    2PC      HR  319   0.921   0.233   5.635
    2PC      HS  320   1.049   0.271   5.749
    2PC      C2  321   0.905   0.428   5.731
    2PC      HX  322   0.973   0.505   5.768
    2PC      C3  323   0.835   0.376   5.858
    2PC      HA  324   0.796   0.278   5.831
    2PC      HB  325   0.904   0.355   5.940
    2PC     O31  326   0.727   0.462   5.897
    2PC     P31  327   0.768   0.597   5.974
    2PC     O32  328   0.623   0.665   5.958
    2PC     C31  329   0.551   0.664   5.834
    2PC     H1A  330   0.546   0.758   5.778
    2PC     H1B  331   0.607   0.602   5.765
    2PC     C32  332   0.408   0.613   5.860
    2PC     H2A  333   0.368   0.591   5.761
    2PC     H2B  334   0.407   0.519   5.917
    2PC     N31  335   0.312   0.708   5.925
    2PC     C33  336   0.340   0.740   6.069
    2PC     H3A  337   0.271   0.817   6.105
    2PC     H3B  338   0.341   0.654   6.136
    2PC     H3C  339   0.438   0.787   6.066
    2PC     C34  340   0.300   0.844   5.863
    2PC     H4A  341   0.274   0.825   5.759
    2PC     H4B  342   0.215   0.893   5.911
    2PC     H4C  343   0.389   0.907   5.865
    2PC     C35  344   0.177   0.644   5.913
    2PC     H5A  345   0.106   0.712   5.960
    2PC     H5B  346   0.180   0.557   5.978
    2PC     H5C  347   0.146   0.627   5.810
    2PC     O33  348   0.813   0.607   6.114
    2PC     O34  349   0.855   0.681   5.889
    2PC     O21  350   0.801   0.476   5.644
    2PC     C21  351   0.827   0.573   5.554
    2PC     O22  352   0.934   0.625   5.530
    3OL     C12  353   0.705   0.618   5.479
    3OL     H2R  354   0.721   0.719   5.440
    3OL     H2S  355   0.621   0.622   5.549
    3OL     C13  356   0.672   0.516   5.370
    3OL     H3R  357   0.628   0.425   5.411
    3OL     H3S  358   0.766   0.487   5.323
    3OL     C14  359   0.572   0.571   5.267
    3OL     H4R  360   0.596   0.670   5.227
    3OL     H4S  361   0.485   0.592   5.330
    3OL     C15  362   0.555   0.478   5.147
    3OL     H5R  363   0.545   0.376   5.183
    3OL     H5S  364   0.648   0.473   5.089
    3OL     C16  365   0.436   0.527   5.063
    3OL     H6R  366   0.468   0.628   5.035
    3OL     H6S  367   0.342   0.528   5.120
    3OL     C17  368   0.416   0.446   4.934
    3OL     H7R  369   0.373   0.349   4.958
    3OL     H7S  370   0.515   0.434   4.890
    3OL     C18  371   0.329   0.529   4.838
    3OL     H8R  372   0.374   0.625   4.814
    3OL     H8S  373   0.230   0.559   4.872
    3OL     C19  374   0.316   0.464   4.703
    3OL     H9R  375   0.228   0.402   4.685
    3OL    C110  376   0.403   0.468   4.603
    3OL    H10R  377   0.361   0.431   4.510
    3OL    C111  378   0.543   0.523   4.617
    3OL    H11R  379   0.613   0.469   4.554
    3OL    H11S  380   0.581   0.519   4.719
    3OL    C112  381   0.556   0.667   4.567
    3OL    H12R  382   0.498   0.740   4.624
    3OL    H12S  383   0.524   0.671   4.462
    3OL    C113  384   0.702   0.713   4.563
    3OL    H13R  385   0.706   0.808   4.508
    3OL    H13S  386   0.759   0.636   4.511
    3OL    C114  387   0.767   0.741   4.699
    3OL    H14R  388   0.874   0.718   4.698
    3OL    H14S  389   0.730   0.673   4.776
    3OL    C115  390   0.735   0.879   4.756
    3OL    H15R  391   0.627   0.879   4.774
    3OL    H15S  392   0.743   0.962   4.685
    3OL    C116  393   0.818   0.902   4.883
    3OL    H16R  394   0.837   1.007   4.907
    3OL    H16S  395   0.917   0.858   4.865
    3OL    C117  396   0.758   0.829   5.004
    3OL    H17R  397   0.774   0.722   4.988
    3OL    H17S  398   0.656   0.850   5.036
    3OL    C118  399   0.850   0.844   5.126
    3OL    H18R  400   0.950   0.802   5.115
    3OL    H18S  401   0.828   0.788   5.217
    3OL    H18T  402   0.858   0.949   5.154
    1PA    C116  403   1.979   1.810   4.055
    1PA    H16R  404   1.904   1.784   3.979
    1PA    H16S  405   1.966   1.728   4.126
    1PA    H16T  406   2.080   1.806   4.013
    1PA    C115  407   1.954   1.938   4.136
    1PA    H15R  408   2.026   1.952   4.217
    1PA    H15S  409   1.967   2.019   4.065
    1PA    C114  410   1.811   1.945   4.191
    1PA    H14R  411   1.741   1.933   4.108
    1PA    H14S  412   1.796   1.864   4.262
    1PA    C113  413   1.796   2.080   4.262
    1PA    H13R  414   1.886   2.092   4.323
    1PA    H13S  415   1.776   2.156   4.186
    1PA    C112  416   1.675   2.079   4.357
    1PA    H12R  417   1.586   2.069   4.294
    1PA    H12S  418   1.684   1.996   4.427
    1PA    C111  419   1.652   2.217   4.419
    1PA    H11R  420   1.656   2.301   4.350
    1PA    H11S  421   1.564   2.213   4.483
    1PA    C110  422   1.751   2.246   4.533
    1PA    H10R  423   1.749   2.160   4.602
    1PA    H10S  424   1.851   2.251   4.490
    1PA     C19  425   1.720   2.376   4.609
    1PA     H9R  426   1.809   2.402   4.667
    1PA     H9S  427   1.706   2.458   4.539
    1PA     C18  428   1.604   2.367   4.709
    1PA     H8R  429   1.589   2.464   4.757
    1PA     H8S  430   1.505   2.352   4.665
    1PA     C17  431   1.623   2.268   4.824
    1PA     H7R  432   1.523   2.259   4.866
    1PA     H7S  433   1.652   2.174   4.776
    1PA     C16  434   1.722   2.325   4.927
    1PA     H6R  435   1.820   2.326   4.879
    1PA     H6S  436   1.692   2.429   4.940
    1PA     C15  437   1.748   2.242   5.054
    1PA     H5R  438   1.656   2.221   5.108
    1PA     H5S  439   1.792   2.147   5.023
    1PA     C14  440   1.837   2.314   5.157
    1PA     H4R  441   1.924   2.361   5.111
    1PA     H4S  442   1.777   2.395   5.199
    1PA     C13  443   1.884   2.218   5.267
    1PA     H3R  444   1.797   2.175   5.319
    1PA     H3S  445   1.953   2.138   5.240
    1PA     C12  446   1.966   2.293   5.373
    1PA     H2R  447   2.057   2.326   5.323
    1PA     H2S  448   1.914   2.385   5.402
    2PC     C11  449   1.984   2.202   5.491
    2PC     O12  450   1.913   2.199   5.589
    2PC     O11  451   2.090   2.121   5.473
    2PC      C1  452   2.132   2.037   5.582
    2PC      HR  453   2.229   1.995   5.556
    2PC      HS  454   2.139   2.094   5.674
    2PC      C2  455   2.037   1.917   5.603
    2PC      HX  456   1.932   1.948   5.603
    2PC      C3  457   2.079   1.858   5.738
    2PC      HA  458   2.034   1.917   5.818
    2PC      HB  459   2.039   1.756   5.748
    2PC     O31  460   2.220   1.846   5.763
    2PC     P31  461   2.258   1.809   5.915
    2PC     O32  462   2.269   1.649   5.918
    2PC     C31  463   2.392   1.598   5.972
    2PC     H1A  464   2.475   1.641   5.915
    2PC     H1B  465   2.404   1.631   6.075
    2PC     C32  466   2.390   1.445   5.963
    2PC     H2A  467   2.361   1.432   5.859
    2PC     H2B  468   2.491   1.408   5.983
    2PC     N31  469   2.289   1.376   6.049
    2PC     C33  470   2.156   1.365   5.980
    2PC     H3A  471   2.168   1.339   5.875
    2PC     H3B  472   2.095   1.296   6.039
    2PC     H3C  473   2.113   1.466   5.977
    2PC     C34  474   2.335   1.234   6.064
    2PC     H4A  475   2.261   1.169   6.111
    2PC     H4B  476   2.352   1.202   5.961
    2PC     H4C  477   2.430   1.228   6.116
    2PC     C35  478   2.279   1.436   6.187
    2PC     H5A  479   2.382   1.441   6.223
    2PC     H5B  480   2.225   1.368   6.252
    2PC     H5C  481   2.226   1.531   6.181
    2PC     O33  482   2.372   1.884   5.971
    2PC     O34  483   2.141   1.835   6.001
    2PC     O21  484   2.056   1.823   5.496
    2PC     C21  485   1.987   1.708   5.496
    2PC     O22  486   1.896   1.690   5.574
    3OL     C12  487   2.029   1.616   5.385
    3OL     H2R  488   1.979   1.520   5.398
    3OL     H2S  489   2.137   1.598   5.390
    3OL     C13  490   1.998   1.677   5.248
    3OL     H3R  491   2.037   1.616   5.165
    3OL     H3S  492   2.049   1.773   5.240
    3OL     C14  493   1.850   1.713   5.233
    3OL     H4R  494   1.818   1.780   5.313
    3OL     H4S  495   1.794   1.620   5.246
    3OL     C15  496   1.833   1.787   5.099
    3OL     H5R  497   1.914   1.856   5.075
    3OL     H5S  498   1.741   1.845   5.109
    3OL     C16  499   1.813   1.683   4.988
    3OL     H6R  500   1.736   1.610   5.013
    3OL     H6S  501   1.900   1.619   4.976
    3OL     C17  502   1.786   1.749   4.851
    3OL     H7R  503   1.712   1.828   4.862
    3OL     H7S  504   1.749   1.675   4.780
    3OL     C18  505   1.911   1.813   4.789
    3OL     H8R  506   1.980   1.734   4.760
    3OL     H8S  507   1.957   1.880   4.861
    3OL     C19  508   1.870   1.893   4.667
    3OL     H9R  509   1.840   1.996   4.686
    3OL    C110  510   1.873   1.841   4.546
    3OL    H10R  511   1.849   1.906   4.461
    3OL    C111  512   1.917   1.703   4.504
    3OL    H11R  513   1.974   1.657   4.585
    3OL    H11S  514   1.992   1.716   4.426
    3OL    C112  515   1.794   1.616   4.476
    3OL    H12R  516   1.734   1.677   4.409
    3OL    H12S  517   1.750   1.589   4.572
    3OL    C113  518   1.838   1.487   4.405
    3OL    H13R  519   1.902   1.432   4.474
    3OL    H13S  520   1.900   1.512   4.318
    3OL    C114  521   1.716   1.406   4.358
    3OL    H14R  522   1.677   1.454   4.269
    3OL    H14S  523   1.640   1.404   4.436
    3OL    C115  524   1.746   1.256   4.341
    3OL    H15R  525   1.775   1.224   4.441
    3OL    H15S  526   1.830   1.235   4.274
    3OL    C116  527   1.622   1.182   4.288
    3OL    H16R  528   1.655   1.078   4.290
    3OL    H16S  529   1.611   1.197   4.181
    3OL    C117  530   1.492   1.191   4.368
    3OL    H17R  531   1.464   1.294   4.390
    3OL    H17S  532   1.504   1.142   4.465
    3OL    C118  533   1.381   1.117   4.292
    3OL    H18R  534   1.283   1.127   4.340
    3OL    H18S  535   1.403   1.013   4.268
    3OL    H18T  536   1.384   1.171   4.197
    1PA    C116  537   1.647   6.366   3.351
    1PA    H16R  538   1.742   6.353   3.300
    1PA    H16S  539   1.606   6.467   3.340
    1PA    H16T  540   1.579   6.295   3.304
    1PA    C115  541   1.662   6.348   3.503
    1PA    H15R  542   1.715   6.430   3.553
    1PA    H15S  543   1.561   6.343   3.545
    1PA    C114  544   1.725   6.212   3.535
    1PA    H14R  545   1.677   6.144   3.464
    1PA    H14S  546   1.831   6.215   3.506
    1PA    C113  547   1.709   6.165   3.680
    1PA    H13R  548   1.604   6.160   3.708
    1PA    H13S  549   1.757   6.068   3.694
    1PA    C112  550   1.776   6.271   3.769
    1PA    H12R  551   1.860   6.314   3.715
    1PA    H12S  552   1.714   6.360   3.776
    1PA    C111  553   1.804   6.209   3.907
    1PA    H11R  554   1.716   6.188   3.968
    1PA    H11S  555   1.855   6.113   3.897
    1PA    C110  556   1.898   6.301   3.987
    1PA    H10R  557   1.993   6.307   3.934
    1PA    H10S  558   1.855   6.401   3.995
    1PA     C19  559   1.937   6.231   4.118
    1PA     H9R  560   1.859   6.261   4.188
    1PA     H9S  561   1.913   6.125   4.104
    1PA     C18  562   2.082   6.262   4.157
    1PA     H8R  563   2.154   6.209   4.095
    1PA     H8S  564   2.108   6.366   4.140
    1PA     C17  565   2.123   6.227   4.301
    1PA     H7R  566   2.079   6.130   4.326
    1PA     H7S  567   2.231   6.213   4.307
    1PA     C16  568   2.066   6.336   4.393
    1PA     H6R  569   2.113   6.433   4.375
    1PA     H6S  570   1.958   6.346   4.385
    1PA     C15  571   2.105   6.310   4.539
    1PA     H5R  572   2.070   6.208   4.560
    1PA     H5S  573   2.213   6.319   4.548
    1PA     C14  574   2.028   6.412   4.625
    1PA     H4R  575   2.076   0.021   4.602
    1PA     H4S  576   1.923   6.405   4.596
    1PA     C13  577   2.049   6.372   4.772
    1PA     H3R  578   2.012   6.270   4.783
    1PA     H3S  579   2.156   6.366   4.795
    1PA     C12  580   1.960   6.455   4.865
    1PA     H2R  581   1.991   0.073   4.872
    1PA     H2S  582   1.860   6.455   4.821
    2PC     C11  583   1.954   6.389   5.000
    2PC     O12  584   2.040   6.314   5.042
    2PC     O11  585   1.855   6.434   5.077
    2PC      C1  586   1.853   6.392   5.215
    2PC      HR  587   1.854   6.282   5.212
    2PC      HS  588   1.941   6.428   5.270
    2PC      C2  589   1.730   6.450   5.284
    2PC      HX  590   1.723   0.069   5.255
    2PC      C3  591   1.745   6.442   5.437
    2PC      HA  592   1.824   0.023   5.472
    2PC      HB  593   1.645   6.475   5.470
    2PC     O31  594   1.778   6.309   5.479
    2PC     P31  595   1.743   6.264   5.629
    2PC     O32  596   1.583   6.269   5.627
    2PC     C31  597   1.508   6.315   5.741
    2PC     H1A  598   1.536   6.243   5.819
    2PC     H1B  599   1.546   6.414   5.769
    2PC     C32  600   1.365   6.314   5.685
    2PC     H2A  601   1.346   6.353   5.585
    2PC     H2B  602   1.336   6.209   5.687
    2PC     N31  603   1.261   6.380   5.771
    2PC     C33  604   1.241   6.309   5.901
    2PC     H3A  605   1.154   6.345   5.955
    2PC     H3B  606   1.227   6.203   5.880
    2PC     H3C  607   1.327   6.330   5.965
    2PC     C34  608   1.289   0.041   5.775
    2PC     H4A  609   1.374   0.058   5.841
    2PC     H4B  610   1.315   0.066   5.672
    2PC     H4C  611   1.202   0.093   5.815
    2PC     C35  612   1.130   6.368   5.698
    2PC     H5A  613   1.152   6.387   5.593
    2PC     H5B  614   1.061   6.432   5.754
    2PC     H5C  615   1.101   6.266   5.723
    2PC     O33  616   1.798   6.130   5.659
    2PC     O34  617   1.815   6.338   5.735
    2PC     O21  618   1.617   6.370   5.246
    2PC     C21  619   1.497   6.407   5.294
    2PC     O22  620   1.466   0.032   5.329
    3OL     C12  621   1.397   6.294   5.286
    3OL     H2R  622   1.411   6.230   5.374
    3OL     H2S  623   1.440   6.243   5.200
    3OL     C13  624   1.249   6.329   5.266
    3OL     H3R  625   1.213   6.383   5.354
    3OL     H3S  626   1.185   6.240   5.269
    3OL     C14  627   1.228   6.417   5.142
    3OL     H4R  628   1.282   0.026   5.144
    3OL     H4S  629   1.122   6.443   5.151
    3OL     C15  630   1.252   6.354   5.005
    3OL     H5R  631   1.175   6.277   4.993
    3OL     H5S  632   1.352   6.310   4.999
    3OL     C16  633   1.251   6.447   4.882
    3OL     H6R  634   1.297   6.396   4.797
    3OL     H6S  635   1.306   0.053   4.899
    3OL     C17  636   1.104   6.473   4.845
    3OL     H7R  637   1.037   6.485   4.931
    3OL     H7S  638   1.066   6.382   4.800
    3OL     C18  639   1.088   0.088   4.731
    3OL     H8R  640   1.117   0.187   4.766
    3OL     H8S  641   0.982   0.096   4.704
    3OL     C19  642   1.163   0.038   4.610
    3OL     H9R  643   1.163   6.417   4.591
    3OL    C110  644   1.204   0.114   4.510
    3OL    H10R  645   1.237   0.075   4.414
    3OL    C111  646   1.230   0.263   4.501
    3OL    H11R  647   1.146   0.317   4.546
    3OL    H11S  648   1.234   0.303   4.400
    3OL    C112  649   1.369   0.286   4.562
    3OL    H12R  650   1.368   0.280   4.671
    3OL    H12S  651   1.383   0.391   4.535
    3OL    C113  652   1.480   0.198   4.503
    3OL    H13R  653   1.469   0.195   4.394
    3OL    H13S  654   1.482   0.093   4.530
    3OL    C114  655   1.616   0.257   4.543
    3OL    H14R  656   1.622   0.227   4.648
    3OL    H14S  657   1.601   0.365   4.537
    3OL    C115  658   1.741   0.199   4.475
    3OL    H15R  659   1.738   0.091   4.484
    3OL    H15S  660   1.830   0.223   4.533
    3OL    C116  661   1.759   0.245   4.329
    3OL    H16R  662   1.751   0.354   4.319
    3OL    H16S  663   1.674   0.207   4.272
    3OL    C117  664   1.890   0.185   4.277
    3OL    H17R  665   1.885   0.076   4.287
    3OL    H17S  666   1.972   0.215   4.342
    3OL    C118  667   1.921   0.227   4.133
    3OL    H18R  668   1.846   0.181   4.068
    3OL    H18S  669   2.025   0.202   4.109
    3OL    H18T  670   1.901   0.334   4.128
    1PA    C116  671   0.405   0.906   4.184
    1PA    H16R  672   0.472   0.923   4.269
    1PA    H16S  673   0.422   0.988   4.115
    1PA    H16T  674   0.448   0.817   4.137
    1PA    C115  675   0.261   0.870   4.225
    1PA    H15R  676   0.223   0.949   4.291
    1PA    H15S  677   0.204   0.860   4.133
    1PA    C114  678   0.274   0.741   4.307
    1PA    H14R  679   0.335   0.668   4.253
    1PA    H14S  680   0.323   0.757   4.404
    1PA    C113  681   0.141   0.675   4.346
    1PA    H13R  682   0.088   0.625   4.265
    1PA    H13S  683   0.171   0.590   4.408
    1PA    C112  684   0.050   0.752   4.443
    1PA    H12R  685   0.055   0.856   4.410
    1PA    H12S  686   6.435   0.713   4.434
    1PA    C111  687   0.095   0.733   4.589
    1PA    H11R  688   0.080   0.626   4.606
    1PA    H11S  689   0.198   0.761   4.611
    1PA    C110  690   0.006   0.812   4.686
    1PA    H10R  691   6.483   0.917   4.657
    1PA    H10S  692   6.397   0.762   4.668
    1PA     C19  693   0.044   0.797   4.834
    1PA     H9R  694   6.442   0.814   4.895
    1PA     H9S  695   0.096   0.703   4.857
    1PA     C18  696   0.143   0.909   4.869
    1PA     H8R  697   0.235   0.896   4.812
    1PA     H8S  698   0.103   1.009   4.853
    1PA     C17  699   0.195   0.903   5.014
    1PA     H7R  700   0.107   0.927   5.073
    1PA     H7S  701   0.229   0.804   5.042
    1PA     C16  702   0.300   1.013   5.037
    1PA     H6R  703   0.365   1.004   4.950
    1PA     H6S  704   0.257   1.112   5.054
    1PA     C15  705   0.389   0.981   5.157
    1PA     H5R  706   0.332   0.988   5.250
    1PA     H5S  707   0.428   0.879   5.151
    1PA     C14  708   0.495   1.091   5.174
    1PA     H4R  709   0.557   1.099   5.084
    1PA     H4S  710   0.447   1.188   5.178
    1PA     C13  711   0.587   1.082   5.296
    1PA     H3R  712   0.530   1.076   5.389
    1PA     H3S  713   0.642   0.988   5.283
    1PA     C12  714   0.686   1.199   5.301
    1PA     H2R  715   0.741   1.204   5.207
    1PA     H2S  716   0.638   1.292   5.332
    2PC     C11  717   0.793   1.181   5.406
    2PC     O12  718   0.788   1.097   5.493
    2PC     O11  719   0.909   1.242   5.376
    2PC      C1  720   1.019   1.242   5.469
    2PC      HR  721   1.080   1.331   5.452
    2PC      HS  722   0.985   1.254   5.572
    2PC      C2  723   1.100   1.112   5.462
    2PC      HX  724   1.026   1.032   5.458
    2PC      C3  725   1.191   1.085   5.582
    2PC      HA  726   1.125   1.076   5.668
    2PC      HB  727   1.244   0.990   5.565
    2PC     O31  728   1.277   1.199   5.595
    2PC     P31  729   1.351   1.216   5.736
    2PC     O32  730   1.494   1.273   5.692
    2PC     C31  731   1.516   1.414   5.709
    2PC     H1A  732   1.589   1.446   5.634
    2PC     H1B  733   1.423   1.471   5.698
    2PC     C32  734   1.558   1.446   5.853
    2PC     H2A  735   1.510   1.540   5.881
    2PC     H2B  736   1.520   1.363   5.913
    2PC     N31  737   1.705   1.443   5.883
    2PC     C33  738   1.763   1.317   5.828
    2PC     H3A  739   1.864   1.294   5.863
    2PC     H3B  740   1.697   1.235   5.857
    2PC     H3C  741   1.762   1.336   5.721
    2PC     C34  742   1.771   1.562   5.819
    2PC     H4A  743   1.712   1.649   5.848
    2PC     H4B  744   1.869   1.567   5.866
    2PC     H4C  745   1.783   1.545   5.712
    2PC     C35  746   1.716   1.456   6.032
    2PC     H5A  747   1.689   1.554   6.072
    2PC     H5B  748   1.823   1.449   6.051
    2PC     H5C  749   1.663   1.373   6.080
    2PC     O33  750   1.289   1.295   5.845
    2PC     O34  751   1.374   1.088   5.807
    2PC     O21  752   1.161   1.110   5.331
    2PC     C21  753   1.210   0.996   5.279
    2PC     O22  754   1.200   0.894   5.344
    3OL     C12  755   1.287   1.004   5.150
    3OL     H2R  756   1.382   0.952   5.167
    3OL     H2S  757   1.314   1.107   5.126
    3OL     C13  758   1.202   0.925   5.050
    3OL     H3R  759   1.128   0.997   5.013
    3OL     H3S  760   1.156   0.836   5.094
    3OL     C14  761   1.295   0.863   4.945
    3OL     H4R  762   1.360   0.781   4.978
    3OL     H4S  763   1.353   0.945   4.903
    3OL     C15  764   1.211   0.814   4.827
    3OL     H5R  765   1.146   0.899   4.803
    3OL     H5S  766   1.147   0.728   4.848
    3OL     C16  767   1.293   0.787   4.700
    3OL     H6R  768   1.349   0.694   4.716
    3OL     H6S  769   1.360   0.868   4.672
    3OL     C17  770   1.205   0.760   4.578
    3OL     H7R  771   1.145   0.846   4.546
    3OL     H7S  772   1.127   0.690   4.606
    3OL     C18  773   1.275   0.700   4.455
    3OL     H8R  774   1.327   0.607   4.481
    3OL     H8S  775   1.351   0.767   4.415
    3OL     C19  776   1.186   0.649   4.345
    3OL     H9R  777   1.169   0.541   4.340
    3OL    C110  778   1.131   0.719   4.247
    3OL    H10R  779   1.066   0.664   4.180
    3OL    C111  780   1.149   0.866   4.217
    3OL    H11R  781   1.207   0.882   4.126
    3OL    H11S  782   1.218   0.908   4.291
    3OL    C112  783   1.009   0.931   4.211
    3OL    H12R  784   0.946   0.873   4.144
    3OL    H12S  785   1.031   1.026   4.163
    3OL    C113  786   0.942   0.933   4.349
    3OL    H13R  787   1.006   0.993   4.414
    3OL    H13S  788   0.933   0.841   4.406
    3OL    C114  789   0.807   1.006   4.357
    3OL    H14R  790   0.777   1.025   4.461
    3OL    H14S  791   0.730   0.945   4.309
    3OL    C115  792   0.821   1.149   4.302
    3OL    H15R  793   0.727   1.199   4.325
    3OL    H15S  794   0.837   1.149   4.194
    3OL    C116  795   0.931   1.234   4.366
    3OL    H16R  796   1.028   1.184   4.360
    3OL    H16S  797   0.896   1.225   4.469
    3OL    C117  798   0.924   1.380   4.318
    3OL    H17R  799   0.992   1.434   4.384
    3OL    H17S  800   0.828   1.430   4.318
    3OL    C118  801   0.986   1.381   4.178
    3OL    H18R  802   0.929   1.325   4.104
    3OL    H18S  803   1.085   1.335   4.177
    3OL    H18T  804   0.998   1.483   4.142
    1PA    C116  805   1.407   5.625   4.384
    1PA    H16R  806   1.380   5.589   4.484
    1PA    H16S  807   1.512   5.653   4.386
    1PA    H16T  808   1.393   5.546   4.311
    1PA    C115  809   1.327   5.750   4.344
    1PA    H15R  810   1.306   5.819   4.425
    1PA    H15S  811   1.387   5.814   4.278
    1PA    C114  812   1.196   5.703   4.280
    1PA    H14R  813   1.210   5.677   4.175
    1PA    H14S  814   1.153   5.619   4.336
    1PA    C113  815   1.106   5.827   4.286
    1PA    H13R  816   1.170   5.916   4.281
    1PA    H13S  817   1.039   5.829   4.200
    1PA    C112  818   1.026   5.836   4.417
    1PA    H12R  819   0.939   5.771   4.411
    1PA    H12S  820   1.087   5.799   4.499
    1PA    C111  821   0.984   5.980   4.453
    1PA    H11R  822   1.072   6.038   4.428
    1PA    H11S  823   0.903   6.013   4.387
    1PA    C110  824   0.928   5.987   4.596
    1PA    H10R  825   0.845   5.918   4.613
    1PA    H10S  826   1.011   5.961   4.661
    1PA     C19  827   0.896   6.136   4.611
    1PA     H9R  828   0.991   6.190   4.607
    1PA     H9S  829   0.837   6.169   4.525
    1PA     C18  830   0.850   6.182   4.750
    1PA     H8R  831   0.915   6.138   4.827
    1PA     H8S  832   0.851   6.290   4.737
    1PA     C17  833   0.711   6.127   4.786
    1PA     H7R  834   0.638   6.166   4.714
    1PA     H7S  835   0.719   6.019   4.774
    1PA     C16  836   0.663   6.165   4.927
    1PA     H6R  837   0.742   6.143   4.999
    1PA     H6S  838   0.656   6.274   4.929
    1PA     C15  839   0.524   6.113   4.966
    1PA     H5R  840   0.487   6.176   5.047
    1PA     H5S  841   0.455   6.127   4.883
    1PA     C14  842   0.549   5.971   5.019
    1PA     H4R  843   0.599   5.907   4.946
    1PA     H4S  844   0.619   5.979   5.103
    1PA     C13  845   0.420   5.901   5.065
    1PA     H3R  846   0.387   5.944   5.159
    1PA     H3S  847   0.333   5.918   5.001
    1PA     C12  848   0.440   5.749   5.068
    1PA     H2R  849   0.349   5.692   5.089
    1PA     H2S  850   0.482   5.717   4.972
    2PC     C11  851   0.538   5.726   5.180
    2PC     O12  852   0.514   5.697   5.296
    2PC     O11  853   0.666   5.740   5.144
    2PC      C1  854   0.769   5.708   5.240
    2PC      HR  855   0.855   5.735   5.178
    2PC      HS  856   0.763   5.772   5.328
    2PC      C2  857   0.787   5.558   5.268
    2PC      HX  858   0.705   5.526   5.333
    2PC      C3  859   0.928   5.528   5.321
    2PC      HA  860   0.999   5.539   5.239
    2PC      HB  861   0.958   5.598   5.399
    2PC     O31  862   0.940   5.393   5.371
    2PC     P31  863   0.944   5.370   5.530
    2PC     O32  864   0.853   5.484   5.596
    2PC     C31  865   0.803   5.453   5.727
    2PC     H1A  866   0.748   5.359   5.733
    2PC     H1B  867   0.888   5.439   5.794
    2PC     C32  868   0.716   5.564   5.787
    2PC     H2A  869   0.717   5.550   5.895
    2PC     H2B  870   0.764   5.658   5.758
    2PC     N31  871   0.571   5.579   5.752
    2PC     C33  872   0.511   5.698   5.819
    2PC     H3A  873   0.585   5.777   5.806
    2PC     H3B  874   0.406   5.709   5.793
    2PC     H3C  875   0.505   5.664   5.923
    2PC     C34  876   0.557   5.598   5.604
    2PC     H4A  877   0.451   5.610   5.577
    2PC     H4B  878   0.620   5.682   5.577
    2PC     H4C  879   0.599   5.506   5.564
    2PC     C35  880   0.491   5.454   5.772
    2PC     H5A  881   0.384   5.472   5.765
    2PC     H5B  882   0.517   5.401   5.864
    2PC     H5C  883   0.513   5.390   5.686
    2PC     O33  884   0.897   5.233   5.562
    2PC     O34  885   1.081   5.381   5.586
    2PC     O21  886   0.789   5.494   5.139
    2PC     C21  887   0.675   5.432   5.105
    2PC     O22  888   0.568   5.428   5.162
    3OL     C12  889   0.686   5.370   4.968
    3OL     H2R  890   0.655   5.266   4.985
    3OL     H2S  891   0.788   5.384   4.932
    3OL     C13  892   0.589   5.422   4.861
    3OL     H3R  893   0.487   5.433   4.899
    3OL     H3S  894   0.577   5.349   4.780
    3OL     C14  895   0.646   5.550   4.797
    3OL     H4R  896   0.735   5.514   4.746
    3OL     H4S  897   0.676   5.621   4.874
    3OL     C15  898   0.541   5.606   4.699
    3OL     H5R  899   0.550   5.715   4.704
    3OL     H5S  900   0.438   5.589   4.731
    3OL     C16  901   0.549   5.559   4.553
    3OL     H6R  902   0.472   5.607   4.494
    3OL     H6S  903   0.536   5.451   4.557
    3OL     C17  904   0.680   5.601   4.485
    3OL     H7R  905   0.765   5.567   4.545
    3OL     H7S  906   0.678   5.710   4.490
    3OL     C18  907   0.689   5.551   4.340
    3OL     H8R  908   0.603   5.592   4.287
    3OL     H8S  909   0.668   5.443   4.337
    3OL     C19  910   0.822   5.579   4.276
    3OL     H9R  911   0.907   5.549   4.337
    3OL    C110  912   0.853   5.622   4.154
    3OL    H10R  913   0.958   5.607   4.129
    3OL    C111  914   0.765   5.670   4.041
    3OL    H11R  915   0.662   5.651   4.072
    3OL    H11S  916   0.798   5.622   3.949
    3OL    C112  917   0.795   5.820   4.026
    3OL    H12R  918   0.890   5.837   3.976
    3OL    H12S  919   0.812   5.863   4.125
    3OL    C113  920   0.677   5.885   3.952
    3OL    H13R  921   0.591   5.895   4.018
    3OL    H13S  922   0.647   5.829   3.863
    3OL    C114  923   0.714   6.031   3.919
    3OL    H14R  924   0.821   6.052   3.911
    3OL    H14S  925   0.686   6.094   4.003
    3OL    C115  926   0.653   6.076   3.786
    3OL    H15R  927   0.550   6.040   3.779
    3OL    H15S  928   0.705   6.029   3.702
    3OL    C116  929   0.651   6.229   3.770
    3OL    H16R  930   0.753   6.266   3.787
    3OL    H16S  931   0.588   6.283   3.841
    3OL    C117  932   0.607   6.259   3.626
    3OL    H17R  933   0.498   6.256   3.616
    3OL    H17S  934   0.658   6.198   3.552
    3OL    C118  935   0.642   6.406   3.600
    3OL    H18R  936   0.750   6.421   3.604
    3OL    H18S  937   0.584   6.478   3.659
    3OL    H18T  938   0.610   6.426   3.497
    1PA    C116  939   3.951   2.586   4.274
    1PA    H16R  940   4.031   2.649   4.234
    1PA    H16S  941   3.919   2.638   4.364
    1PA    H16T  942   3.872   2.586   4.198
    1PA    C115  943   3.991   2.443   4.315
    1PA    H15R  944   3.999   2.381   4.225
    1PA    H15S  945   4.088   2.458   4.362
    1PA    C114  946   3.897   2.369   4.411
    1PA    H14R  947   3.955   2.291   4.462
    1PA    H14S  948   3.880   2.437   4.495
    1PA    C113  949   3.779   2.312   4.332
    1PA    H13R  950   3.725   2.380   4.267
    1PA    H13S  951   3.818   2.235   4.265
    1PA    C112  952   3.686   2.252   4.439
    1PA    H12R  953   3.738   2.174   4.495
    1PA    H12S  954   3.659   2.331   4.510
    1PA    C111  955   3.563   2.178   4.384
    1PA    H11R  956   3.504   2.231   4.309
    1PA    H11S  957   3.602   2.101   4.319
    1PA    C110  958   3.472   2.113   4.490
    1PA    H10R  959   3.390   2.056   4.446
    1PA    H10S  960   3.539   2.043   4.541
    1PA     C19  961   3.429   2.206   4.603
    1PA     H9R  962   3.518   2.254   4.644
    1PA     H9S  963   3.371   2.293   4.572
    1PA     C18  964   3.345   2.131   4.708
    1PA     H8R  965   3.266   2.067   4.669
    1PA     H8S  966   3.418   2.068   4.760
    1PA     C17  967   3.284   2.235   4.802
    1PA     H7R  968   3.357   2.309   4.837
    1PA     H7S  969   3.213   2.288   4.739
    1PA     C16  970   3.214   2.175   4.925
    1PA     H6R  971   3.136   2.249   4.947
    1PA     H6S  972   3.163   2.085   4.889
    1PA     C15  973   3.304   2.152   5.047
    1PA     H5R  974   3.365   2.243   5.057
    1PA     H5S  975   3.242   2.145   5.136
    1PA     C14  976   3.375   2.017   5.058
    1PA     H4R  977   3.302   1.936   5.047
    1PA     H4S  978   3.454   2.015   4.982
    1PA     C13  979   3.435   2.000   5.198
    1PA     H3R  980   3.369   2.043   5.274
    1PA     H3S  981   3.457   1.895   5.221
    1PA     C12  982   3.570   2.068   5.223
    1PA     H2R  983   3.636   2.034   5.143
    1PA     H2S  984   3.557   2.175   5.208
    2PC     C11  985   3.637   2.033   5.354
    2PC     O12  986   3.591   2.058   5.463
    2PC     O11  987   3.760   1.982   5.335
    2PC      C1  988   3.840   1.956   5.452
    2PC      HR  989   3.948   1.966   5.436
    2PC      HS  990   3.821   2.035   5.525
    2PC      C2  991   3.812   1.812   5.497
    2PC      HX  992   3.707   1.783   5.486
    2PC      C3  993   3.853   1.783   5.642
    2PC      HA  994   3.790   1.839   5.712
    2PC      HB  995   3.815   1.684   5.669
    2PC     O31  996   3.990   1.813   5.676
    2PC     P31  997   4.030   1.799   5.830
    2PC     O32  998   3.957   1.934   5.877
    2PC     C31  999   4.027   2.055   5.845
    2PC     H1A 1000   4.109   2.075   5.915
    2PC     H1B 1001   4.066   2.065   5.743
    2PC     C32 1002   3.931   2.173   5.865
    2PC     H2A 1003   3.983   2.268   5.868
    2PC     H2B 1004   3.867   2.172   5.776
    2PC     N31 1005   3.855   2.172   5.994
    2PC     C33 1006   3.768   2.052   6.015
    2PC     H3A 1007   3.702   2.072   6.101
    2PC     H3B 1008   3.716   2.031   5.921
    2PC     H3C 1009   3.831   1.973   6.055
    2PC     C34 1010   3.958   2.188   6.102
    2PC     H4A 1011   4.024   2.101   6.099
    2PC     H4B 1012   4.010   2.283   6.115
    2PC     H4C 1013   3.911   2.163   6.197
    2PC     C35 1014   3.752   2.281   5.981
    2PC     H5A 1015   3.684   2.269   6.066
    2PC     H5B 1016   3.701   2.275   5.885
    2PC     H5C 1017   3.816   2.368   5.973
    2PC     O33 1018   3.973   1.680   5.898
    2PC     O34 1019   4.176   1.785   5.852
    2PC     O21 1020   3.870   1.722   5.401
    2PC     C21 1021   3.844   1.590   5.409
    2PC     O22 1022   3.759   1.539   5.479
    3OL     C12 1023   3.934   1.508   5.320
    3OL     H2R 1024   3.932   1.540   5.216
    3OL     H2S 1025   3.907   1.402   5.319
    3OL     C13 1026   4.075   1.521   5.379
    3OL     H3R 1027   4.075   1.453   5.464
    3OL     H3S 1028   4.090   1.624   5.414
    3OL     C14 1029   4.199   1.480   5.299
    3OL     H4R 1030   4.287   1.526   5.345
    3OL     H4S 1031   4.184   1.519   5.198
    3OL     C15 1032   4.229   1.333   5.269
    3OL     H5R 1033   4.139   1.288   5.226
    3OL     H5S 1034   4.256   1.283   5.363
    3OL     C16 1035   4.351   1.311   5.178
    3OL     H6R 1036   4.441   1.348   5.227
    3OL     H6S 1037   4.324   1.373   5.093
    3OL     C17 1038   4.374   1.171   5.121
    3OL     H7R 1039   4.277   1.137   5.084
    3OL     H7S 1040   4.392   1.093   5.195
    3OL     C18 1041   4.487   1.144   5.020
    3OL     H8R 1042   4.514   1.039   5.018
    3OL     H8S 1043   4.579   1.189   5.057
    3OL     C19 1044   4.456   1.201   4.883
    3OL     H9R 1045   4.400   1.294   4.892
    3OL    C110 1046   4.474   1.148   4.764
    3OL    H10R 1047   4.427   1.198   4.680
    3OL    C111 1048   4.537   1.013   4.738
    3OL    H11R 1049   4.462   0.934   4.726
    3OL    H11S 1050   4.599   0.987   4.824
    3OL    C112 1051   4.609   1.023   4.603
    3OL    H12R 1052   4.677   1.106   4.586
    3OL    H12S 1053   4.529   1.025   4.529
    3OL    C113 1054   4.695   0.896   4.592
    3OL    H13R 1055   4.713   0.864   4.489
    3OL    H13S 1056   4.643   0.813   4.642
    3OL    C114 1057   4.829   0.913   4.664
    3OL    H14R 1058   4.817   0.937   4.770
    3OL    H14S 1059   4.874   1.003   4.620
    3OL    C115 1060   4.915   0.788   4.641
    3OL    H15R 1061   5.013   0.805   4.688
    3OL    H15S 1062   4.939   0.775   4.536
    3OL    C116 1063   4.840   0.663   4.689
    3OL    H16R 1064   4.748   0.646   4.633
    3OL    H16S 1065   4.909   0.579   4.679
    3OL    C117 1066   4.810   0.663   4.840
    3OL    H17R 1067   4.739   0.740   4.872
    3OL    H17S 1068   4.898   0.676   4.902
    3OL    C118 1069   4.729   0.539   4.881
    3OL    H18R 1070   4.701   0.542   4.986
    3OL    H18S 1071   4.633   0.534   4.830
    3OL    H18T 1072   4.785   0.448   4.859
    1PA    C116 1073   0.154   2.046   3.790
    1PA    H16R 1074   0.204   1.950   3.806
    1PA    H16S 1075   0.139   2.051   3.681
    1PA    H16T 1076   0.051   2.037   3.825
    1PA    C115 1077   0.240   2.168   3.825
    1PA    H15R 1078   0.347   2.146   3.820
    1PA    H15S 1079   0.225   2.242   3.746
    1PA    C114 1080   0.203   2.238   3.957
    1PA    H14R 1081   0.255   2.333   3.968
    1PA    H14S 1082   0.097   2.262   3.947
    1PA    C113 1083   0.235   2.146   4.075
    1PA    H13R 1084   0.188   2.049   4.055
    1PA    H13S 1085   0.343   2.129   4.084
    1PA    C112 1086   0.182   2.199   4.209
    1PA    H12R 1087   0.211   2.304   4.219
    1PA    H12S 1088   0.074   2.209   4.198
    1PA    C111 1089   0.235   2.115   4.327
    1PA    H11R 1090   0.187   2.019   4.348
    1PA    H11S 1091   0.340   2.093   4.307
    1PA    C110 1092   0.223   2.214   4.444
    1PA    H10R 1093   0.277   2.305   4.417
    1PA    H10S 1094   0.116   2.234   4.446
    1PA     C19 1095   0.274   2.159   4.578
    1PA     H9R 1096   0.235   2.057   4.588
    1PA     H9S 1097   0.383   2.159   4.579
    1PA     C18 1098   0.234   2.251   4.694
    1PA     H8R 1099   0.258   2.356   4.677
    1PA     H8S 1100   0.125   2.243   4.695
    1PA     C17 1101   0.287   2.199   4.829
    1PA     H7R 1102   0.235   2.109   4.862
    1PA     H7S 1103   0.394   2.181   4.825
    1PA     C16 1104   0.274   2.303   4.941
    1PA     H6R 1105   0.359   2.372   4.936
    1PA     H6S 1106   0.188   2.369   4.922
    1PA     C15 1107   0.280   2.246   5.083
    1PA     H5R 1108   0.179   2.209   5.102
    1PA     H5S 1109   0.343   2.157   5.080
    1PA     C14 1110   0.334   2.345   5.187
    1PA     H4R 1111   0.439   2.370   5.168
    1PA     H4S 1112   0.269   2.433   5.183
    1PA     C13 1113   0.318   2.277   5.324
    1PA     H3R 1114   0.324   2.357   5.399
    1PA     H3S 1115   0.219   2.231   5.325
    1PA     C12 1116   0.425   2.174   5.360
    1PA     H2R 1117   0.431   2.096   5.283
    1PA     H2S 1118   0.518   2.232   5.352
    2PC     C11 1119   0.410   2.109   5.495
    2PC     O12 1120   0.358   2.175   5.583
    2PC     O11 1121   0.468   1.988   5.494
    2PC      C1 1122   0.470   1.902   5.610
    2PC      HR 1123   0.378   1.904   5.669
    2PC      HS 1124   0.478   1.803   5.566
    2PC      C2 1125   0.593   1.930   5.698
    2PC      HX 1126   0.604   1.852   5.774
    2PC      C3 1127   0.585   2.060   5.779
    2PC      HA 1128   0.612   2.138   5.707
    2PC      HB 1129   0.491   2.082   5.829
    2PC     O31 1130   0.700   2.059   5.866
    2PC     P31 1131   0.680   2.160   5.989
    2PC     O32 1132   0.636   2.068   6.113
    2PC     C31 1133   0.595   2.134   6.234
    2PC     H1A 1134   0.669   2.198   6.283
    2PC     H1B 1135   0.508   2.196   6.215
    2PC     C32 1136   0.552   2.019   6.327
    2PC     H2A 1137   0.469   1.970   6.277
    2PC     H2B 1138   0.623   1.937   6.336
    2PC     N31 1139   0.507   2.050   6.466
    2PC     C33 1140   0.624   2.098   6.547
    2PC     H3A 1141   0.654   2.185   6.488
    2PC     H3B 1142   0.582   2.135   6.641
    2PC     H3C 1143   0.701   2.022   6.556
    2PC     C34 1144   0.403   2.158   6.467
    2PC     H4A 1145   0.364   2.178   6.567
    2PC     H4B 1146   0.455   2.248   6.432
    2PC     H4C 1147   0.324   2.128   6.398
    2PC     C35 1148   0.448   1.935   6.542
    2PC     H5A 1149   0.524   1.865   6.578
    2PC     H5B 1150   0.369   1.878   6.494
    2PC     H5C 1151   0.413   1.979   6.636
    2PC     O33 1152   0.818   2.205   6.020
    2PC     O34 1153   0.601   2.284   5.973
    2PC     O21 1154   0.706   1.941   5.610
    2PC     C21 1155   0.759   1.824   5.571
    2PC     O22 1156   0.725   1.719   5.622
    3OL     C12 1157   0.866   1.834   5.466
    3OL     H2R 1158   0.929   1.745   5.466
    3OL     H2S 1159   0.916   1.931   5.471
    3OL     C13 1160   0.797   1.831   5.329
    3OL     H3R 1161   0.720   1.908   5.315
    3OL     H3S 1162   0.733   1.742   5.332
    3OL     C14 1163   0.906   1.837   5.222
    3OL     H4R 1164   0.993   1.772   5.235
    3OL     H4S 1165   0.936   1.942   5.223
    3OL     C15 1166   0.838   1.810   5.087
    3OL     H5R 1167   0.763   1.890   5.079
    3OL     H5S 1168   0.782   1.716   5.085
    3OL     C16 1169   0.932   1.811   4.966
    3OL     H6R 1170   0.998   1.724   4.960
    3OL     H6S 1171   1.001   1.895   4.967
    3OL     C17 1172   0.857   1.791   4.834
    3OL     H7R 1173   0.792   1.879   4.831
    3OL     H7S 1174   0.802   1.697   4.849
    3OL     C18 1175   0.936   1.798   4.702
    3OL     H8R 1176   1.020   1.729   4.708
    3OL     H8S 1177   0.982   1.897   4.693
    3OL     C19 1178   0.867   1.744   4.580
    3OL     H9R 1179   0.802   1.658   4.593
    3OL    C110 1180   0.871   1.799   4.459
    3OL    H10R 1181   0.806   1.756   4.384
    3OL    C111 1182   0.954   1.922   4.432
    3OL    H11R 1183   1.018   1.959   4.513
    3OL    H11S 1184   0.881   2.004   4.431
    3OL    C112 1185   1.033   1.921   4.300
    3OL    H12R 1186   0.961   1.908   4.219
    3OL    H12S 1187   1.099   1.834   4.293
    3OL    C113 1188   1.121   2.046   4.292
    3OL    H13R 1189   1.199   2.039   4.369
    3OL    H13S 1190   1.061   2.133   4.320
    3OL    C114 1191   1.198   2.043   4.159
    3OL    H14R 1192   1.132   2.002   4.082
    3OL    H14S 1193   1.277   1.969   4.166
    3OL    C115 1194   1.256   2.181   4.122
    3OL    H15R 1195   1.328   2.204   4.200
    3OL    H15S 1196   1.182   2.261   4.121
    3OL    C116 1197   1.319   2.175   3.983
    3OL    H16R 1198   1.241   2.165   3.907
    3OL    H16S 1199   1.382   2.086   3.987
    3OL    C117 1200   1.410   2.294   3.946
    3OL    H17R 1201   1.468   2.324   4.034
    3OL    H17S 1202   1.356   2.385   3.918
    3OL    C118 1203   1.490   2.242   3.826
    3OL    H18R 1204   1.414   2.191   3.767
    3OL    H18S 1205   1.563   2.173   3.869
    3OL    H18T 1206   1.546   2.324   3.781
    1PA    C116 1207   6.039   1.300   3.756
    1PA    H16R 1208   5.977   1.382   3.717
    1PA    H16S 1209   5.975   1.218   3.789
    1PA    H16T 1210   6.104   1.271   3.673
    1PA    C115 1211   6.129   1.336   3.875
    1PA    H15R 1212   6.180   1.246   3.911
    1PA    H15S 1213   6.208   1.409   3.854
    1PA    C114 1214   6.037   1.384   3.987
    1PA    H14R 1215   5.994   1.481   3.962
    1PA    H14S 1216   5.956   1.313   4.004
    1PA    C113 1217   6.125   1.383   4.113
    1PA    H13R 1218   6.161   1.281   4.131
    1PA    H13S 1219   6.204   1.455   4.088
    1PA    C112 1220   6.040   1.431   4.231
    1PA    H12R 1221   5.990   1.523   4.202
    1PA    H12S 1222   5.967   1.352   4.248
    1PA    C111 1223   6.124   1.447   4.359
    1PA    H11R 1224   6.164   1.353   4.397
    1PA    H11S 1225   6.199   1.524   4.341
    1PA    C110 1226   6.039   1.510   4.470
    1PA    H10R 1227   5.993   1.607   4.451
    1PA    H10S 1228   5.973   1.435   4.514
    1PA     C19 1229   6.135   1.537   4.587
    1PA     H9R 1230   6.202   1.454   4.609
    1PA     H9S 1231   6.202   1.618   4.558
    1PA     C18 1232   6.056   1.574   4.714
    1PA     H8R 1233   6.001   1.668   4.710
    1PA     H8S 1234   5.985   1.491   4.723
    1PA     C17 1235   6.149   1.581   4.836
    1PA     H7R 1236   6.207   1.489   4.830
    1PA     H7S 1237   6.210   1.669   4.821
    1PA     C16 1238   6.066   1.572   4.965
    1PA     H6R 1239   5.986   1.647   4.961
    1PA     H6S 1240   6.015   1.475   4.973
    1PA     C15 1241   6.164   1.601   5.079
    1PA     H5R 1242   6.244   1.527   5.091
    1PA     H5S 1243   6.207   1.701   5.072
    1PA     C14 1244   6.095   1.587   5.216
    1PA     H4R 1245   6.033   1.676   5.227
    1PA     H4S 1246   6.032   1.498   5.211
    1PA     C13 1247   6.195   1.564   5.330
    1PA     H3R 1248   6.136   1.542   5.419
    1PA     H3S 1249   6.259   1.477   5.312
    1PA     C12 1250   6.291   1.682   5.355
    1PA     H2R 1251   6.361   1.688   5.271
    1PA     H2S 1252   6.240   1.778   5.364
    2PC     C11 1253   6.368   1.654   5.481
    2PC     O12 1254   6.331   1.581   5.571
    2PC     O11 1255   0.002   1.713   5.487
    2PC      C1 1256   0.096   1.696   5.595
    2PC      HR 1257   0.163   1.781   5.610
    2PC      HS 1258   0.035   1.694   5.686
    2PC      C2 1259   0.159   1.557   5.582
    2PC      HX 1260   0.090   1.473   5.568
    2PC      C3 1261   0.234   1.529   5.713
    2PC      HA 1262   0.164   1.488   5.787
    2PC      HB 1263   0.308   1.450   5.700
    2PC     O31 1264   0.309   1.643   5.757
    2PC     P31 1265   0.343   1.651   5.914
    2PC     O32 1266   0.493   1.707   5.915
    2PC     C31 1267   0.551   1.755   6.038
    2PC     H1A 1268   0.510   1.854   6.056
    2PC     H1B 1269   0.526   1.677   6.111
    2PC     C32 1270   0.701   1.771   6.013
    2PC     H2A 1271   0.721   1.819   5.917
    2PC     H2B 1272   0.741   1.836   6.091
    2PC     N31 1273   0.791   1.651   6.014
    2PC     C33 1274   0.935   1.692   6.016
    2PC     H3A 1275   0.966   1.728   5.918
    2PC     H3B 1276   0.946   1.779   6.081
    2PC     H3C 1277   1.003   1.612   6.047
    2PC     C34 1278   0.769   1.567   6.136
    2PC     H4A 1279   0.840   1.485   6.121
    2PC     H4B 1280   0.788   1.632   6.222
    2PC     H4C 1281   0.670   1.521   6.139
    2PC     C35 1282   0.759   1.566   5.895
    2PC     H5A 1283   0.806   1.610   5.807
    2PC     H5B 1284   0.650   1.574   5.887
    2PC     H5C 1285   0.805   1.469   5.915
    2PC     O33 1286   0.247   1.740   5.983
    2PC     O34 1287   0.337   1.522   5.986
    2PC     O21 1288   0.254   1.566   5.474
    2PC     C21 1289   0.322   1.458   5.431
    2PC     O22 1290   0.296   1.345   5.467
    3OL     C12 1291   0.422   1.489   5.323
    3OL     H2R 1292   0.391   1.435   5.233
    3OL     H2S 1293   0.527   1.472   5.347
    3OL     C13 1294   0.411   1.636   5.283
    3OL     H3R 1295   0.451   1.708   5.355
    3OL     H3S 1296   0.303   1.653   5.271
    3OL     C14 1297   0.471   1.677   5.147
    3OL     H4R 1298   0.458   1.599   5.072
    3OL     H4S 1299   0.579   1.686   5.157
    3OL     C15 1300   0.412   1.812   5.104
    3OL     H5R 1301   0.433   1.868   5.196
    3OL     H5S 1302   0.308   1.810   5.072
    3OL     C16 1303   0.480   1.849   4.972
    3OL     H6R 1304   0.579   1.806   4.951
    3OL     H6S 1305   0.486   1.956   4.954
    3OL     C17 1306   0.384   1.799   4.862
    3OL     H7R 1307   0.280   1.828   4.879
    3OL     H7S 1308   0.393   1.691   4.871
    3OL     C18 1309   0.439   1.838   4.724
    3OL     H8R 1310   0.506   1.925   4.724
    3OL     H8S 1311   0.344   1.844   4.671
    3OL     C19 1312   0.510   1.720   4.663
    3OL     H9R 1313   0.581   1.678   4.734
    3OL    C110 1314   0.479   1.657   4.551
    3OL    H10R 1315   0.536   1.566   4.533
    3OL    C111 1316   0.383   1.707   4.446
    3OL    H11R 1317   0.347   1.808   4.469
    3OL    H11S 1318   0.287   1.655   4.452
    3OL    C112 1319   0.456   1.698   4.311
    3OL    H12R 1320   0.487   1.596   4.287
    3OL    H12S 1321   0.550   1.752   4.321
    3OL    C113 1322   0.379   1.760   4.193
    3OL    H13R 1323   0.448   1.805   4.122
    3OL    H13S 1324   0.325   1.850   4.222
    3OL    C114 1325   0.295   1.655   4.118
    3OL    H14R 1326   0.223   1.618   4.191
    3OL    H14S 1327   0.361   1.578   4.078
    3OL    C115 1328   0.214   1.713   4.001
    3OL    H15R 1329   0.291   1.736   3.927
    3OL    H15S 1330   0.149   1.793   4.038
    3OL    C116 1331   0.138   1.604   3.924
    3OL    H16R 1332   0.064   1.546   3.980
    3OL    H16S 1333   0.212   1.527   3.900
    3OL    C117 1334   0.088   1.664   3.793
    3OL    H17R 1335   0.175   1.708   3.742
    3OL    H17S 1336   0.021   1.750   3.806
    3OL    C118 1337   0.027   1.560   3.698
    3OL    H18R 1338   0.084   1.467   3.700
    3OL    H18S 1339   0.027   1.596   3.595
    3OL    H18T 1340   6.409   1.542   3.724
    1PA    C116 1341   0.075   6.112   4.160
    1PA    H16R 1342   0.146   6.075   4.086
    1PA    H16S 1343   6.462   6.069   4.142
    1PA    H16T 1344   0.111   6.084   4.259
    1PA    C115 1345   0.062   6.265   4.168
    1PA    H15R 1346   0.155   6.315   4.139
    1PA    H15S 1347   6.476   6.291   4.090
    1PA    C114 1348   0.020   6.310   4.308
    1PA    H14R 1349   6.402   6.283   4.328
    1PA    H14S 1350   0.087   6.271   4.385
    1PA    C113 1351   0.030   6.463   4.309
    1PA    H13R 1352   0.134   0.011   4.309
    1PA    H13S 1353   6.472   0.021   4.220
    1PA    C112 1354   6.457   0.041   4.435
    1PA    H12R 1355   6.348   0.034   4.425
    1PA    H12S 1356   0.007   6.482   4.527
    1PA    C111 1357   6.475   0.192   4.457
    1PA    H11R 1358   0.092   0.224   4.440
    1PA    H11S 1359   6.430   0.247   4.374
    1PA    C110 1360   6.423   0.250   4.589
    1PA    H10R 1361   6.437   0.358   4.588
    1PA    H10S 1362   6.314   0.237   4.581
    1PA     C19 1363   6.479   0.192   4.720
    1PA     H9R 1364   6.429   0.099   4.747
    1PA     H9S 1365   0.099   0.169   4.709
    1PA     C18 1366   6.470   0.286   4.840
    1PA     H8R 1367   0.023   0.386   4.818
    1PA     H8S 1368   6.368   0.310   4.871
    1PA     C17 1369   0.062   0.222   4.956
    1PA     H7R 1370   0.034   0.118   4.972
    1PA     H7S 1371   0.162   0.219   4.912
    1PA     C16 1372   0.037   0.302   5.084
    1PA     H6R 1373   0.069   0.407   5.084
    1PA     H6S 1374   6.416   0.288   5.099
    1PA     C15 1375   0.110   0.233   5.200
    1PA     H5R 1376   0.058   0.142   5.230
    1PA     H5S 1377   0.212   0.217   5.166
    1PA     C14 1378   0.109   0.340   5.310
    1PA     H4R 1379   0.160   0.428   5.271
    1PA     H4S 1380   0.004   0.363   5.331
    1PA     C13 1381   0.178   0.292   5.438
    1PA     H3R 1382   0.127   0.314   5.532
    1PA     H3S 1383   0.190   0.184   5.431
    1PA     C12 1384   0.322   0.345   5.440
    1PA     H2R 1385   0.364   0.302   5.349
    1PA     H2S 1386   0.339   0.453   5.440
    2PC     C11 1387   0.387   0.299   5.568
    2PC     O12 1388   0.369   0.354   5.675
    2PC     O11 1389   0.475   0.199   5.551
    2PC      C1 1390   0.546   0.149   5.666
    2PC      HR 1391   0.599   0.226   5.722
    2PC      HS 1392   0.474   0.102   5.733
    2PC      C2 1393   0.641   0.040   5.614
    2PC      HX 1394   0.583   6.473   5.537
    2PC      C3 1395   0.693   6.437   5.727
    2PC      HA 1396   0.612   6.393   5.786
    2PC      HB 1397   0.754   6.358   5.683
    2PC     O31 1398   0.779   0.032   5.809
    2PC     P31 1399   0.841   6.449   5.940
    2PC     O32 1400   0.734   6.486   6.053
    2PC     C31 1401   0.736   0.133   6.106
    2PC     H1A 1402   0.826   0.152   6.164
    2PC     H1B 1403   0.731   0.192   6.014
    2PC     C32 1404   0.618   0.140   6.204
    2PC     H2A 1405   0.525   0.102   6.160
    2PC     H2B 1406   0.626   0.079   6.293
    2PC     N31 1407   0.576   0.279   6.243
    2PC     C33 1408   0.688   0.348   6.314
    2PC     H3A 1409   0.760   0.378   6.238
    2PC     H3B 1410   0.647   0.435   6.366
    2PC     H3C 1411   0.725   0.282   6.392
    2PC     C34 1412   0.523   0.362   6.130
    2PC     H4A 1413   0.422   0.325   6.114
    2PC     H4B 1414   0.532   0.466   6.163
    2PC     H4C 1415   0.588   0.346   6.044
    2PC     C35 1416   0.464   0.272   6.343
    2PC     H5A 1417   0.382   0.210   6.308
    2PC     H5B 1418   0.422   0.372   6.352
    2PC     H5C 1419   0.508   0.240   6.438
    2PC     O33 1420   0.857   6.304   5.920
    2PC     O34 1421   0.979   0.007   5.971
    2PC     O21 1422   0.752   0.107   5.552
    2PC     C21 1423   0.830   0.039   5.465
    2PC     O22 1424   0.847   6.405   5.456
    3OL     C12 1425   0.893   0.128   5.362
    3OL     H2R 1426   0.998   0.100   5.346
    3OL     H2S 1427   0.888   0.230   5.402
    3OL     C13 1428   0.809   0.131   5.233
    3OL     H3R 1429   0.705   0.150   5.259
    3OL     H3S 1430   0.831   0.034   5.188
    3OL     C14 1431   0.851   0.238   5.132
    3OL     H4R 1432   0.959   0.226   5.125
    3OL     H4S 1433   0.829   0.339   5.168
    3OL     C15 1434   0.785   0.206   4.997
    3OL     H5R 1435   0.677   0.222   4.995
    3OL     H5S 1436   0.800   0.101   4.969
    3OL     C16 1437   0.836   0.299   4.886
    3OL     H6R 1438   0.945   0.293   4.880
    3OL     H6S 1439   0.804   0.401   4.910
    3OL     C17 1440   0.771   0.253   4.755
    3OL     H7R 1441   0.664   0.266   4.766
    3OL     H7S 1442   0.788   0.146   4.746
    3OL     C18 1443   0.829   0.319   4.629
    3OL     H8R 1444   0.937   0.331   4.640
    3OL     H8S 1445   0.794   0.422   4.616
    3OL     C19 1446   0.797   0.253   4.497
    3OL     H9R 1447   0.749   0.155   4.500
    3OL    C110 1448   0.817   0.289   4.371
    3OL    H10R 1449   0.786   0.235   4.282
    3OL    C111 1450   0.904   0.406   4.332
    3OL    H11R 1451   0.983   0.366   4.268
    3OL    H11S 1452   0.952   0.445   4.422
    3OL    C112 1453   0.828   0.514   4.254
    3OL    H12R 1454   0.892   0.602   4.250
    3OL    H12S 1455   0.733   0.549   4.294
    3OL    C113 1456   0.816   0.482   4.104
    3OL    H13R 1457   0.734   0.539   4.060
    3OL    H13S 1458   0.792   0.375   4.097
    3OL    C114 1459   0.939   0.498   4.013
    3OL    H14R 1460   1.022   0.433   4.040
    3OL    H14S 1461   0.967   0.603   4.022
    3OL    C115 1462   0.912   0.473   3.864
    3OL    H15R 1463   0.996   0.526   3.817
    3OL    H15S 1464   0.815   0.516   3.839
    3OL    C116 1465   0.919   0.327   3.817
    3OL    H16R 1466   0.837   0.272   3.865
    3OL    H16S 1467   1.013   0.281   3.846
    3OL    C117 1468   0.890   0.316   3.666
    3OL    H17R 1469   0.794   0.364   3.646
    3OL    H17S 1470   0.877   0.210   3.641
    3OL    C118 1471   0.988   0.385   3.571
    3OL    H18R 1472   0.992   0.492   3.595
    3OL    H18S 1473   0.964   0.360   3.467
    3OL    H18T 1474   1.087   0.340   3.576
    1PA    C116 1475   0.962   4.760   3.309
    1PA    H16R 1476   0.913   4.761   3.406
    1PA    H16S 1477   0.977   4.655   3.286
    1PA    H16T 1478   0.910   4.812   3.228
    1PA    C115 1479   1.094   4.837   3.328
    1PA    H15R 1480   1.153   4.783   3.402
    1PA    H15S 1481   1.158   4.840   3.240
    1PA    C114 1482   1.066   4.979   3.380
    1PA    H14R 1483   1.144   5.045   3.343
    1PA    H14S 1484   0.968   5.017   3.350
    1PA    C113 1485   1.075   4.973   3.533
    1PA    H13R 1486   0.991   4.927   3.585
    1PA    H13S 1487   1.166   4.922   3.564
    1PA    C112 1488   1.086   5.115   3.590
    1PA    H12R 1489   1.160   5.174   3.536
    1PA    H12S 1490   0.992   5.166   3.569
    1PA    C111 1491   1.116   5.114   3.741
    1PA    H11R 1492   1.038   5.060   3.794
    1PA    H11S 1493   1.205   5.052   3.752
    1PA    C110 1494   1.140   5.257   3.791
    1PA    H10R 1495   1.236   5.300   3.761
    1PA    H10S 1496   1.056   5.322   3.765
    1PA     C19 1497   1.157   5.248   3.944
    1PA     H9R 1498   1.058   5.209   3.970
    1PA     H9S 1499   1.241   5.182   3.963
    1PA     C18 1500   1.175   5.387   4.007
    1PA     H8R 1501   1.253   5.444   3.956
    1PA     H8S 1502   1.088   5.450   3.985
    1PA     C17 1503   1.199   5.372   4.157
    1PA     H7R 1504   1.287   5.309   4.174
    1PA     H7S 1505   1.234   5.467   4.198
    1PA     C16 1506   1.080   5.321   4.239
    1PA     H6R 1507   1.008   5.403   4.243
    1PA     H6S 1508   1.038   5.231   4.194
    1PA     C15 1509   1.110   5.289   4.386
    1PA     H5R 1510   1.194   5.219   4.378
    1PA     H5S 1511   1.140   5.380   4.439
    1PA     C14 1512   0.985   5.229   4.450
    1PA     H4R 1513   0.896   5.288   4.426
    1PA     H4S 1514   0.975   5.132   4.400
    1PA     C13 1515   1.009   5.198   4.599
    1PA     H3R 1516   1.097   5.135   4.610
    1PA     H3S 1517   1.015   5.296   4.647
    1PA     C12 1518   0.895   5.123   4.669
    1PA     H2R 1519   0.806   5.182   4.646
    1PA     H2S 1520   0.894   5.027   4.617
    2PC     C11 1521   0.914   5.106   4.818
    2PC     O12 1522   0.824   5.084   4.897
    2PC     O11 1523   1.039   5.131   4.858
    2PC      C1 1524   1.067   5.111   4.998
    2PC      HR 1525   1.174   5.127   5.016
    2PC      HS 1526   1.024   5.189   5.061
    2PC      C2 1527   1.033   4.969   5.046
    2PC      HX 1528   0.928   4.964   5.075
    2PC      C3 1529   1.119   4.934   5.169
    2PC      HA 1530   1.111   5.009   5.249
    2PC      HB 1531   1.105   4.836   5.215
    2PC     O31 1532   1.257   4.924   5.130
    2PC     P31 1533   1.364   4.884   5.242
    2PC     O32 1534   1.468   4.998   5.201
    2PC     C31 1535   1.606   4.967   5.171
    2PC     H1A 1536   1.667   4.938   5.257
    2PC     H1B 1537   1.610   4.885   5.099
    2PC     C32 1538   1.665   5.093   5.107
    2PC     H2A 1539   1.761   5.061   5.068
    2PC     H2B 1540   1.594   5.127   5.031
    2PC     N31 1541   1.694   5.216   5.189
    2PC     C33 1542   1.765   5.321   5.109
    2PC     H3A 1543   1.871   5.300   5.095
    2PC     H3B 1544   1.701   5.325   5.021
    2PC     H3C 1545   1.752   5.418   5.158
    2PC     C34 1546   1.571   5.282   5.241
    2PC     H4A 1547   1.530   5.216   5.318
    2PC     H4B 1548   1.601   5.374   5.292
    2PC     H4C 1549   1.504   5.304   5.158
    2PC     C35 1550   1.783   5.191   5.307
    2PC     H5A 1551   1.799   5.288   5.356
    2PC     H5B 1552   1.872   5.151   5.259
    2PC     H5C 1553   1.751   5.103   5.363
    2PC     O33 1554   1.307   4.888   5.379
    2PC     O34 1555   1.398   4.742   5.218
    2PC     O21 1556   1.049   4.871   4.942
    2PC     C21 1557   0.996   4.751   4.969
    2PC     O22 1558   0.937   4.708   5.067
    3OL     C12 1559   1.027   4.661   4.852
    3OL     H2R 1560   1.103   4.589   4.883
    3OL     H2S 1561   1.074   4.720   4.773
    3OL     C13 1562   0.902   4.592   4.795
    3OL     H3R 1563   0.829   4.658   4.748
    3OL     H3S 1564   0.854   4.543   4.880
    3OL     C14 1565   0.937   4.493   4.683
    3OL     H4R 1566   1.026   4.537   4.637
    3OL     H4S 1567   0.860   4.493   4.607
    3OL     C15 1568   0.965   4.353   4.740
    3OL     H5R 1569   0.872   4.324   4.789
    3OL     H5S 1570   1.049   4.370   4.808
    3OL     C16 1571   1.006   4.259   4.625
    3OL     H6R 1572   1.023   4.158   4.665
    3OL     H6S 1573   1.100   4.293   4.583
    3OL     C17 1574   0.894   4.250   4.521
    3OL     H7R 1575   0.885   4.343   4.464
    3OL     H7S 1576   0.798   4.232   4.571
    3OL     C18 1577   0.916   4.137   4.419
    3OL     H8R 1578   1.020   4.151   4.389
    3OL     H8S 1579   0.854   4.155   4.331
    3OL     C19 1580   0.897   3.999   4.475
    3OL     H9R 1581   0.960   3.971   4.559
    3OL    C110 1582   0.804   3.911   4.440
    3OL    H10R 1583   0.799   3.811   4.484
    3OL    C111 1584   0.709   3.927   4.325
    3OL    H11R 1585   0.723   3.843   4.258
    3OL    H11S 1586   0.727   4.017   4.264
    3OL    C112 1587   0.563   3.940   4.371
    3OL    H12R 1588   0.548   3.860   4.445
    3OL    H12S 1589   0.490   3.928   4.291
    3OL    C113 1590   0.549   4.075   4.443
    3OL    H13R 1591   0.570   4.160   4.377
    3OL    H13S 1592   0.620   4.086   4.525
    3OL    C114 1593   0.406   4.091   4.497
    3OL    H14R 1594   0.419   4.163   4.579
    3OL    H14S 1595   0.383   3.995   4.543
    3OL    C115 1596   0.303   4.117   4.387
    3OL    H15R 1597   0.291   4.025   4.329
    3OL    H15S 1598   0.342   4.188   4.313
    3OL    C116 1599   0.170   4.167   4.447
    3OL    H16R 1600   0.203   4.244   4.517
    3OL    H16S 1601   0.136   4.083   4.508
    3OL    C117 1602   0.062   4.204   4.345
    3OL    H17R 1603   6.444   4.185   4.373
    3OL    H17S 1604   0.082   4.155   4.249
    3OL    C118 1605   0.079   4.354   4.316
    3OL    H18R 1606   0.163   4.380   4.252
    3OL    H18S 1607   0.095   4.401   4.413
    3OL    H18T 1608   6.470   4.385   4.274
    1PA    C116 1609   0.541   2.356   3.778
    1PA    H16R 1610   0.445   2.363   3.727
    1PA    H16S 1611   0.575   2.253   3.768
    1PA    H16T 1612   0.604   2.428   3.724
    1PA    C115 1613   0.527   2.415   3.919
    1PA    H15R 1614   0.490   2.338   3.988
    1PA    H15S 1615   0.629   2.442   3.945
    1PA    C114 1616   0.448   2.547   3.928
    1PA    H14R 1617   0.517   2.630   3.913
    1PA    H14S 1618   0.373   2.555   3.850
    1PA    C113 1619   0.376   2.558   4.063
    1PA    H13R 1620   0.287   2.620   4.049
    1PA    H13S 1621   0.336   2.464   4.103
    1PA    C112 1622   0.461   2.617   4.176
    1PA    H12R 1623   0.556   2.563   4.180
    1PA    H12S 1624   0.498   2.717   4.151
    1PA    C111 1625   0.393   2.611   4.314
    1PA    H11R 1626   0.335   2.702   4.325
    1PA    H11S 1627   0.336   2.518   4.321
    1PA    C110 1628   0.498   2.605   4.425
    1PA    H10R 1629   0.568   2.524   4.400
    1PA    H10S 1630   0.549   2.701   4.432
    1PA     C19 1631   0.441   2.574   4.564
    1PA     H9R 1632   0.382   2.483   4.548
    1PA     H9S 1633   0.521   2.560   4.638
    1PA     C18 1634   0.355   2.684   4.627
    1PA     H8R 1635   0.413   2.777   4.624
    1PA     H8S 1636   0.264   2.695   4.567
    1PA     C17 1637   0.310   2.663   4.772
    1PA     H7R 1638   0.220   2.602   4.785
    1PA     H7S 1639   0.384   2.611   4.834
    1PA     C16 1640   0.271   2.796   4.838
    1PA     H6R 1641   0.363   2.854   4.850
    1PA     H6S 1642   0.214   2.862   4.772
    1PA     C15 1643   0.215   2.769   4.978
    1PA     H5R 1644   0.116   2.724   4.971
    1PA     H5S 1645   0.287   2.701   5.025
    1PA     C14 1646   0.210   2.893   5.068
    1PA     H4R 1647   0.131   2.963   5.040
    1PA     H4S 1648   0.176   2.843   5.159
    1PA     C13 1649   0.347   2.952   5.103
    1PA     H3R 1650   0.410   2.871   5.143
    1PA     H3S 1651   0.391   2.984   5.009
    1PA     C12 1652   0.339   3.055   5.217
    1PA     H2R 1653   0.254   3.121   5.198
    1PA     H2S 1654   0.321   3.003   5.310
    2PC     C11 1655   0.469   3.132   5.223
    2PC     O12 1656   0.569   3.102   5.162
    2PC     O11 1657   0.452   3.241   5.300
    2PC      C1 1658   0.563   3.326   5.332
    2PC      HR 1659   0.635   3.257   5.379
    2PC      HS 1660   0.592   3.361   5.233
    2PC      C2 1661   0.524   3.445   5.420
    2PC      HX 1662   0.612   3.503   5.451
    2PC      C3 1663   0.445   3.391   5.540
    2PC      HA 1664   0.347   3.365   5.501
    2PC      HB 1665   0.488   3.299   5.580
    2PC     O31 1666   0.433   3.491   5.643
    2PC     P31 1667   0.546   3.512   5.754
    2PC     O32 1668   0.583   3.657   5.697
    2PC     C31 1669   0.718   3.703   5.714
    2PC     H1A 1670   0.739   3.713   5.821
    2PC     H1B 1671   0.795   3.647   5.659
    2PC     C32 1672   0.727   3.850   5.671
    2PC     H2A 1673   0.660   3.915   5.727
    2PC     H2B 1674   0.828   3.883   5.693
    2PC     N31 1675   0.693   3.888   5.530
    2PC     C33 1676   0.767   3.805   5.430
    2PC     H3A 1677   0.875   3.821   5.436
    2PC     H3B 1678   0.729   3.703   5.439
    2PC     H3C 1679   0.748   3.848   5.332
    2PC     C34 1680   0.547   3.866   5.503
    2PC     H4A 1681   0.520   3.860   5.398
    2PC     H4B 1682   0.518   3.768   5.542
    2PC     H4C 1683   0.492   3.947   5.551
    2PC     C35 1684   0.725   4.031   5.500
    2PC     H5A 1685   0.833   4.024   5.485
    2PC     H5B 1686   0.688   4.092   5.583
    2PC     H5C 1687   0.675   4.073   5.413
    2PC     O33 1688   0.524   3.537   5.899
    2PC     O34 1689   0.662   3.422   5.738
    2PC     O21 1690   0.438   3.537   5.351
    2PC     C21 1691   0.457   3.596   5.232
    2PC     O22 1692   0.561   3.609   5.172
    3OL     C12 1693   0.321   3.637   5.181
    3OL     H2R 1694   0.332   3.714   5.104
    3OL     H2S 1695   0.276   3.694   5.263
    3OL     C13 1696   0.238   3.532   5.107
    3OL     H3R 1697   0.217   3.442   5.165
    3OL     H3S 1698   0.294   3.499   5.019
    3OL     C14 1699   0.107   3.586   5.047
    3OL     H4R 1700   0.131   3.674   4.986
    3OL     H4S 1701   0.056   3.636   5.130
    3OL     C15 1702   0.034   3.482   4.962
    3OL     H5R 1703   6.414   3.508   4.964
    3OL     H5S 1704   0.056   3.383   5.004
    3OL     C16 1705   0.083   3.478   4.817
    3OL     H6R 1706   0.191   3.467   4.811
    3OL     H6S 1707   0.053   3.574   4.774
    3OL     C17 1708   0.019   3.369   4.730
    3OL     H7R 1709   6.398   3.387   4.715
    3OL     H7S 1710   0.037   3.272   4.775
    3OL     C18 1711   0.092   3.374   4.595
    3OL     H8R 1712   0.067   3.291   4.528
    3OL     H8S 1713   0.199   3.356   4.607
    3OL     C19 1714   0.065   3.503   4.523
    3OL     H9R 1715   6.458   3.553   4.548
    3OL    C110 1716   0.134   3.544   4.417
    3OL    H10R 1717   0.099   3.632   4.364
    3OL    C111 1718   0.241   3.461   4.351
    3OL    H11R 1719   0.216   3.466   4.245
    3OL    H11S 1720   0.235   3.358   4.386
    3OL    C112 1721   0.376   3.524   4.389
    3OL    H12R 1722   0.392   3.495   4.493
    3OL    H12S 1723   0.388   3.631   4.375
    3OL    C113 1724   0.477   3.453   4.297
    3OL    H13R 1725   0.443   3.353   4.270
    3OL    H13S 1726   0.565   3.425   4.356
    3OL    C114 1727   0.498   3.531   4.167
    3OL    H14R 1728   0.521   3.636   4.187
    3OL    H14S 1729   0.410   3.530   4.102
    3OL    C115 1730   0.610   3.468   4.083
    3OL    H15R 1731   0.573   3.366   4.070
    3OL    H15S 1732   0.703   3.455   4.138
    3OL    C116 1733   0.636   3.541   3.950
    3OL    H16R 1734   0.540   3.555   3.900
    3OL    H16S 1735   0.686   3.476   3.877
    3OL    C117 1736   0.713   3.670   3.980
    3OL    H17R 1737   0.816   3.639   3.996
    3OL    H17S 1738   0.680   3.722   4.070
    3OL    C118 1739   0.718   3.771   3.864
    3OL    H18R 1740   0.759   3.711   3.782
    3OL    H18S 1741   0.775   3.860   3.892
    3OL    H18T 1742   0.616   3.804   3.843
    1PA    C116 1743   1.505   3.268   5.049
    1PA    H16R 1744   1.576   3.269   4.967
    1PA    H16S 1745   1.536   3.193   5.122
    1PA    H16T 1746   1.506   3.365   5.099
    1PA    C115 1747   1.362   3.232   5.005
    1PA    H15R 1748   1.307   3.297   4.937
    1PA    H15S 1749   1.374   3.142   4.943
    1PA    C114 1750   1.271   3.208   5.126
    1PA    H14R 1751   1.289   3.105   5.159
    1PA    H14S 1752   1.294   3.280   5.204
    1PA    C113 1753   1.124   3.245   5.100
    1PA    H13R 1754   1.069   3.224   5.192
    1PA    H13S 1755   1.108   3.352   5.083
    1PA    C112 1756   1.069   3.158   4.986
    1PA    H12R 1757   1.116   3.188   4.892
    1PA    H12S 1758   1.104   3.058   5.011
    1PA    C111 1759   0.917   3.173   4.977
    1PA    H11R 1760   0.879   3.096   4.910
    1PA    H11S 1761   0.871   3.163   5.076
    1PA    C110 1762   0.870   3.309   4.923
    1PA    H10R 1763   0.898   3.392   4.988
    1PA    H10S 1764   0.917   3.318   4.825
    1PA     C19 1765   0.720   3.307   4.891
    1PA     H9R 1766   0.694   3.219   4.831
    1PA     H9S 1767   0.667   3.289   4.985
    1PA     C18 1768   0.682   3.441   4.827
    1PA     H8R 1769   0.726   3.517   4.891
    1PA     H8S 1770   0.741   3.453   4.736
    1PA     C17 1771   0.532   3.466   4.805
    1PA     H7R 1772   0.494   3.382   4.747
    1PA     H7S 1773   0.481   3.460   4.902
    1PA     C16 1774   0.496   3.602   4.742
    1PA     H6R 1775   0.551   3.607   4.648
    1PA     H6S 1776   0.391   3.613   4.713
    1PA     C15 1777   0.520   3.726   4.828
    1PA     H5R 1778   0.482   3.734   4.931
    1PA     H5S 1779   0.629   3.721   4.834
    1PA     C14 1780   0.481   3.859   4.760
    1PA     H4R 1781   0.513   3.851   4.656
    1PA     H4S 1782   0.375   3.881   4.764
    1PA     C13 1783   0.551   3.973   4.834
    1PA     H3R 1784   0.511   4.057   4.777
    1PA     H3S 1785   0.527   3.975   4.941
    1PA     C12 1786   0.705   3.978   4.836
    1PA     H2R 1787   0.742   3.877   4.853
    1PA     H2S 1788   0.744   4.020   4.743
    2PC     C11 1789   0.753   4.066   4.949
    2PC     O12 1790   0.679   4.122   5.028
    2PC     O11 1791   0.887   4.071   4.955
    2PC      C1 1792   0.948   4.151   5.058
    2PC      HR 1793   1.033   4.202   5.012
    2PC      HS 1794   0.887   4.236   5.088
    2PC      C2 1795   0.986   4.056   5.173
    2PC      HX 1796   0.890   4.025   5.214
    2PC      C3 1797   1.049   4.132   5.291
    2PC      HA 1798   1.151   4.159   5.262
    2PC      HB 1799   0.992   4.221   5.318
    2PC     O31 1800   1.065   4.049   5.408
    2PC     P31 1801   1.164   4.107   5.520
    2PC     O32 1802   1.306   4.077   5.452
    2PC     C31 1803   1.406   4.006   5.527
    2PC     H1A 1804   1.412   4.036   5.632
    2PC     H1B 1805   1.389   3.898   5.524
    2PC     C32 1806   1.542   4.035   5.463
    2PC     H2A 1807   1.622   3.997   5.526
    2PC     H2B 1808   1.548   4.006   5.358
    2PC     N31 1809   1.582   4.180   5.457
    2PC     C33 1810   1.505   4.249   5.350
    2PC     H3A 1811   1.402   4.257   5.386
    2PC     H3B 1812   1.544   4.351   5.342
    2PC     H3C 1813   1.498   4.210   5.248
    2PC     C34 1814   1.567   4.248   5.590
    2PC     H4A 1815   1.464   4.255   5.623
    2PC     H4B 1816   1.622   4.189   5.663
    2PC     H4C 1817   1.613   4.345   5.571
    2PC     C35 1818   1.728   4.185   5.424
    2PC     H5A 1819   1.755   4.290   5.407
    2PC     H5B 1820   1.748   4.121   5.338
    2PC     H5C 1821   1.778   4.145   5.512
    2PC     O33 1822   1.145   4.251   5.548
    2PC     O34 1823   1.151   4.052   5.656
    2PC     O21 1824   1.069   3.954   5.116
    2PC     C21 1825   1.010   3.834   5.102
    2PC     O22 1826   0.896   3.804   5.133
    3OL     C12 1827   1.108   3.736   5.043
    3OL     H2R 1828   1.128   3.662   5.121
    3OL     H2S 1829   1.202   3.788   5.023
    3OL     C13 1830   1.050   3.677   4.914
    3OL     H3R 1831   1.001   3.764   4.872
    3OL     H3S 1832   0.973   3.605   4.943
    3OL     C14 1833   1.154   3.609   4.823
    3OL     H4R 1834   1.194   3.531   4.889
    3OL     H4S 1835   1.233   3.677   4.794
    3OL     C15 1836   1.082   3.559   4.697
    3OL     H5R 1837   1.022   3.640   4.654
    3OL     H5S 1838   1.012   3.480   4.725
    3OL     C16 1839   1.176   3.482   4.604
    3OL     H6R 1840   1.212   3.393   4.655
    3OL     H6S 1841   1.258   3.550   4.576
    3OL     C17 1842   1.099   3.436   4.479
    3OL     H7R 1843   1.006   3.393   4.517
    3OL     H7S 1844   1.155   3.355   4.432
    3OL     C18 1845   1.085   3.548   4.376
    3OL     H8R 1846   1.181   3.588   4.343
    3OL     H8S 1847   1.031   3.631   4.423
    3OL     C19 1848   1.008   3.514   4.251
    3OL     H9R 1849   0.904   3.496   4.278
    3OL    C110 1850   1.037   3.509   4.122
    3OL    H10R 1851   0.959   3.477   4.052
    3OL    C111 1852   1.160   3.561   4.052
    3OL    H11R 1853   1.175   3.489   3.972
    3OL    H11S 1854   1.249   3.558   4.115
    3OL    C112 1855   1.144   3.701   3.992
    3OL    H12R 1856   1.061   3.705   3.921
    3OL    H12S 1857   1.226   3.733   3.927
    3OL    C113 1858   1.124   3.804   4.104
    3OL    H13R 1859   1.046   3.757   4.165
    3OL    H13S 1860   1.077   3.889   4.054
    3OL    C114 1861   1.254   3.833   4.180
    3OL    H14R 1862   1.338   3.849   4.112
    3OL    H14S 1863   1.282   3.747   4.240
    3OL    C115 1864   1.240   3.952   4.275
    3OL    H15R 1865   1.150   3.938   4.336
    3OL    H15S 1866   1.226   4.041   4.213
    3OL    C116 1867   1.364   3.980   4.360
    3OL    H16R 1868   1.369   4.084   4.392
    3OL    H16S 1869   1.458   3.977   4.304
    3OL    C117 1870   1.376   3.890   4.485
    3OL    H17R 1871   1.468   3.924   4.533
    3OL    H17S 1872   1.377   3.782   4.473
    3OL    C118 1873   1.268   3.921   4.590
    3OL    H18R 1874   1.253   4.029   4.597
    3OL    H18S 1875   1.296   3.890   4.691
    3OL    H18T 1876   1.172   3.873   4.571
    1PA    C116 1877   4.081   0.602   4.343
    1PA    H16R 1878   4.163   0.619   4.413
    1PA    H16S 1879   3.980   0.641   4.355
    1PA    H16T 1880   4.104   0.645   4.245
    1PA    C115 1881   4.068   0.450   4.325
    1PA    H15R 1882   4.017   0.419   4.234
    1PA    H15S 1883   4.168   0.405   4.322
    1PA    C114 1884   4.005   0.392   4.453
    1PA    H14R 1885   4.058   0.415   4.545
    1PA    H14S 1886   3.904   0.434   4.456
    1PA    C113 1887   3.983   0.242   4.433
    1PA    H13R 1888   3.931   0.226   4.338
    1PA    H13S 1889   4.076   0.186   4.420
    1PA    C112 1890   3.898   0.184   4.548
    1PA    H12R 1891   3.838   0.260   4.599
    1PA    H12S 1892   3.839   0.099   4.515
    1PA    C111 1893   3.989   0.126   4.657
    1PA    H11R 1894   4.065   0.070   4.603
    1PA    H11S 1895   4.038   0.213   4.703
    1PA    C110 1896   3.921   0.048   4.771
    1PA    H10R 1897   4.005   0.027   4.838
    1PA    H10S 1898   3.841   0.101   4.823
    1PA     C19 1899   3.869   6.395   4.732
    1PA     H9R 1900   3.773   6.403   4.679
    1PA     H9S 1901   3.940   6.337   4.673
    1PA     C18 1902   3.835   6.318   4.860
    1PA     H8R 1903   3.926   6.301   4.918
    1PA     H8S 1904   3.769   6.383   4.917
    1PA     C17 1905   3.759   6.191   4.821
    1PA     H7R 1906   3.671   6.214   4.761
    1PA     H7S 1907   3.820   6.134   4.750
    1PA     C16 1908   3.719   6.112   4.946
    1PA     H6R 1909   3.692   6.012   4.911
    1PA     H6S 1910   3.809   6.081   5.000
    1PA     C15 1911   3.614   6.183   5.033
    1PA     H5R 1912   3.673   6.271   5.059
    1PA     H5S 1913   3.523   6.207   4.978
    1PA     C14 1914   3.577   6.104   5.159
    1PA     H4R 1915   3.529   6.009   5.137
    1PA     H4S 1916   3.672   6.089   5.211
    1PA     C13 1917   3.482   6.187   5.248
    1PA     H3R 1918   3.388   6.205   5.195
    1PA     H3S 1919   3.443   6.128   5.331
    1PA     C12 1920   3.524   6.325   5.300
    1PA     H2R 1921   3.619   6.314   5.353
    1PA     H2S 1922   3.540   6.389   5.213
    2PC     C11 1923   3.434   6.387   5.403
    2PC     O12 1924   3.470   6.400   5.518
    2PC     O11 1925   3.310   6.414   5.359
    2PC      C1 1926   3.219   6.480   5.449
    2PC      HR 1927   3.121   0.009   5.403
    2PC      HS 1928   3.211   6.407   5.530
    2PC      C2 1929   3.272   0.129   5.500
    2PC      HX 1930   3.380   0.123   5.486
    2PC      C3 1931   3.233   0.157   5.646
    2PC      HA 1932   3.129   0.188   5.653
    2PC      HB 1933   3.247   0.065   5.703
    2PC     O31 1934   3.310   0.267   5.697
    2PC     P31 1935   3.286   0.333   5.841
    2PC     O32 1936   3.172   0.443   5.815
    2PC     C31 1937   3.043   0.415   5.872
    2PC     H1A 1938   3.028   0.309   5.850
    2PC     H1B 1939   3.052   0.436   5.979
    2PC     C32 1940   2.930   0.495   5.805
    2PC     H2A 1941   2.961   0.600   5.801
    2PC     H2B 1942   2.902   0.470   5.703
    2PC     N31 1943   2.793   0.492   5.866
    2PC     C33 1944   2.780   0.529   6.011
    2PC     H3A 1945   2.677   0.557   6.031
    2PC     H3B 1946   2.793   0.439   6.071
    2PC     H3C 1947   2.842   0.614   6.040
    2PC     C34 1948   2.719   0.592   5.782
    2PC     H4A 1949   2.767   0.690   5.780
    2PC     H4B 1950   2.713   0.561   5.677
    2PC     H4C 1951   2.616   0.610   5.813
    2PC     C35 1952   2.729   0.361   5.832
    2PC     H5A 1953   2.743   0.294   5.916
    2PC     H5B 1954   2.772   0.326   5.738
    2PC     H5C 1955   2.622   0.383   5.826
    2PC     O33 1956   3.257   0.241   5.954
    2PC     O34 1957   3.416   0.391   5.884
    2PC     O21 1958   3.213   0.231   5.418
    2PC     C21 1959   3.251   0.247   5.290
    2PC     O22 1960   3.348   0.196   5.238
    3OL     C12 1961   3.170   0.354   5.222
    3OL     H2R 1962   3.184   0.457   5.257
    3OL     H2S 1963   3.066   0.324   5.241
    3OL     C13 1964   3.195   0.352   5.071
    3OL     H3R 1965   3.210   0.252   5.029
    3OL     H3S 1966   3.289   0.406   5.060
    3OL     C14 1967   3.097   0.440   4.992
    3OL     H4R 1968   3.125   0.544   5.010
    3OL     H4S 1969   3.000   0.426   5.040
    3OL     C15 1970   3.113   0.423   4.840
    3OL     H5R 1971   3.063   0.332   4.806
    3OL     H5S 1972   3.215   0.412   4.805
    3OL     C16 1973   3.056   0.548   4.772
    3OL     H6R 1974   3.113   0.633   4.809
    3OL     H6S 1975   2.952   0.559   4.805
    3OL     C17 1976   3.070   0.553   4.619
    3OL     H7R 1977   3.175   0.553   4.588
    3OL     H7S 1978   3.027   0.649   4.589
    3OL     C18 1979   2.994   0.440   4.548
    3OL     H8R 1980   2.935   0.386   4.622
    3OL     H8S 1981   3.060   0.360   4.514
    3OL     C19 1982   2.916   0.506   4.437
    3OL     H9R 1983   2.848   0.574   4.488
    3OL    C110 1984   2.933   0.499   4.306
    3OL    H10R 1985   2.871   0.552   4.233
    3OL    C111 1986   3.041   0.410   4.250
    3OL    H11R 1987   3.030   0.399   4.141
    3OL    H11S 1988   3.045   0.312   4.298
    3OL    C112 1989   3.179   0.471   4.272
    3OL    H12R 1990   3.204   0.473   4.378
    3OL    H12S 1991   3.182   0.571   4.228
    3OL    C113 1992   3.286   0.386   4.202
    3OL    H13R 1993   3.279   0.409   4.095
    3OL    H13S 1994   3.270   0.280   4.221
    3OL    C114 1995   3.426   0.414   4.260
    3OL    H14R 1996   3.434   0.386   4.365
    3OL    H14S 1997   3.445   0.521   4.253
    3OL    C115 1998   3.534   0.340   4.179
    3OL    H15R 1999   3.534   0.373   4.075
    3OL    H15S 2000   3.520   0.232   4.177
    3OL    C116 2001   3.668   0.386   4.237
    3OL    H16R 2002   3.746   0.318   4.202
    3OL    H16S 2003   3.673   0.374   4.345
    3OL    C117 2004   3.725   0.523   4.195
    3OL    H17R 2005   3.792   0.552   4.276
    3OL    H17S 2006   3.648   0.598   4.178
    3OL    C118 2007   3.794   0.511   4.058
    3OL    H18R 2008   3.864   0.427   4.053
    3OL    H18S 2009   3.851   0.597   4.023
    3OL    H18T 2010   3.711   0.487   3.992
    1PA    C116 2011   2.495   2.624   3.708
    1PA    H16R 2012   2.416   2.698   3.715
    1PA    H16S 2013   2.475   2.558   3.623
    1PA    H16T 2014   2.584   2.679   3.676
    1PA    C115 2015   2.514   2.544   3.837
    1PA    H15R 2016   2.421   2.488   3.853
    1PA    H15S 2017   2.591   2.467   3.825
    1PA    C114 2018   2.538   2.637   3.956
    1PA    H14R 2019   2.457   2.710   3.957
    1PA    H14S 2020   2.525   2.585   4.051
    1PA    C113 2021   2.675   2.706   3.963
    1PA    H13R 2022   2.685   2.748   3.862
    1PA    H13S 2023   2.682   2.788   4.035
    1PA    C112 2024   2.787   2.605   3.993
    1PA    H12R 2025   2.766   2.520   3.928
    1PA    H12S 2026   2.886   2.649   3.980
    1PA    C111 2027   2.798   2.566   4.141
    1PA    H11R 2028   2.793   2.655   4.203
    1PA    H11S 2029   2.709   2.507   4.164
    1PA    C110 2030   2.922   2.482   4.177
    1PA    H10R 2031   2.928   2.394   4.112
    1PA    H10S 2032   3.002   2.548   4.141
    1PA     C19 2033   2.931   2.450   4.326
    1PA     H9R 2034   2.830   2.435   4.365
    1PA     H9S 2035   2.985   2.355   4.337
    1PA     C18 2036   2.994   2.568   4.401
    1PA     H8R 2037   3.088   2.579   4.347
    1PA     H8S 2038   2.951   2.668   4.394
    1PA     C17 2039   3.023   2.531   4.547
    1PA     H7R 2040   2.937   2.514   4.612
    1PA     H7S 2041   3.090   2.445   4.558
    1PA     C16 2042   3.105   2.649   4.600
    1PA     H6R 2043   3.188   2.666   4.531
    1PA     H6S 2044   3.038   2.735   4.607
    1PA     C15 2045   3.165   2.631   4.740
    1PA     H5R 2046   3.098   2.613   4.824
    1PA     H5S 2047   3.215   2.536   4.719
    1PA     C14 2048   3.263   2.747   4.764
    1PA     H4R 2049   3.312   2.790   4.677
    1PA     H4S 2050   3.199   2.823   4.810
    1PA     C13 2051   3.363   2.708   4.874
    1PA     H3R 2052   3.421   2.626   4.831
    1PA     H3S 2053   3.439   2.781   4.901
    1PA     C12 2054   3.300   2.659   5.005
    1PA     H2R 2055   3.230   2.576   4.993
    1PA     H2S 2056   3.383   2.615   5.061
    2PC     C11 2057   3.231   2.772   5.077
    2PC     O12 2058   3.117   2.769   5.118
    2PC     O11 2059   3.316   2.872   5.104
    2PC      C1 2060   3.254   2.974   5.185
    2PC      HR 2061   3.153   3.008   5.158
    2PC      HS 2062   3.262   2.941   5.288
    2PC      C2 2063   3.350   3.094   5.182
    2PC      HX 2064   3.445   3.059   5.141
    2PC      C3 2065   3.409   3.149   5.312
    2PC      HA 2066   3.474   3.068   5.346
    2PC      HB 2067   3.472   3.237   5.295
    2PC     O31 2068   3.303   3.184   5.404
    2PC     P31 2069   3.344   3.222   5.554
    2PC     O32 2070   3.418   3.361   5.524
    2PC     C31 2071   3.454   3.458   5.624
    2PC     H1A 2072   3.368   3.475   5.689
    2PC     H1B 2073   3.530   3.408   5.683
    2PC     C32 2074   3.506   3.582   5.550
    2PC     H2A 2075   3.563   3.649   5.615
    2PC     H2B 2076   3.583   3.560   5.476
    2PC     N31 2077   3.406   3.672   5.482
    2PC     C33 2078   3.488   3.774   5.409
    2PC     H3A 2079   3.566   3.811   5.477
    2PC     H3B 2080   3.530   3.724   5.322
    2PC     H3C 2081   3.416   3.852   5.386
    2PC     C34 2082   3.319   3.590   5.392
    2PC     H4A 2083   3.257   3.520   5.449
    2PC     H4B 2084   3.253   3.663   5.345
    2PC     H4C 2085   3.383   3.544   5.316
    2PC     C35 2086   3.320   3.743   5.583
    2PC     H5A 2087   3.380   3.775   5.669
    2PC     H5B 2088   3.251   3.673   5.629
    2PC     H5C 2089   3.272   3.830   5.539
    2PC     O33 2090   3.223   3.242   5.639
    2PC     O34 2091   3.428   3.124   5.627
    2PC     O21 2092   3.299   3.203   5.103
    2PC     C21 2093   3.297   3.192   4.970
    2PC     O22 2094   3.363   3.103   4.918
    3OL     C12 2095   3.215   3.297   4.900
    3OL     H2R 2096   3.280   3.384   4.898
    3OL     H2S 2097   3.129   3.320   4.964
    3OL     C13 2098   3.178   3.259   4.756
    3OL     H3R 2099   3.127   3.163   4.762
    3OL     H3S 2100   3.270   3.254   4.696
    3OL     C14 2101   3.088   3.363   4.689
    3OL     H4R 2102   3.013   3.396   4.761
    3OL     H4S 2103   3.033   3.310   4.610
    3OL     C15 2104   3.186   3.472   4.643
    3OL     H5R 2105   3.255   3.428   4.572
    3OL     H5S 2106   3.240   3.513   4.728
    3OL     C16 2107   3.108   3.586   4.577
    3OL     H6R 2108   3.168   3.677   4.565
    3OL     H6S 2109   3.023   3.613   4.640
    3OL     C17 2110   3.056   3.545   4.438
    3OL     H7R 2111   2.964   3.599   4.417
    3OL     H7S 2112   3.036   3.438   4.431
    3OL     C18 2113   3.159   3.582   4.331
    3OL     H8R 2114   3.263   3.569   4.363
    3OL     H8S 2115   3.161   3.690   4.317
    3OL     C19 2116   3.131   3.509   4.201
    3OL     H9R 2117   3.052   3.559   4.145
    3OL    C110 2118   3.194   3.401   4.160
    3OL    H10R 2119   3.163   3.357   4.066
    3OL    C111 2120   3.314   3.338   4.226
    3OL    H11R 2121   3.364   3.413   4.287
    3OL    H11S 2122   3.386   3.309   4.149
    3OL    C112 2123   3.276   3.210   4.303
    3OL    H12R 2124   3.205   3.149   4.248
    3OL    H12S 2125   3.234   3.231   4.402
    3OL    C113 2126   3.389   3.108   4.317
    3OL    H13R 2127   3.399   3.061   4.219
    3OL    H13S 2128   3.354   3.033   4.388
    3OL    C114 2129   3.525   3.168   4.358
    3OL    H14R 2130   3.561   3.229   4.275
    3OL    H14S 2131   3.596   3.086   4.361
    3OL    C115 2132   3.525   3.240   4.493
    3OL    H15R 2133   3.433   3.298   4.506
    3OL    H15S 2134   3.608   3.311   4.495
    3OL    C116 2135   3.551   3.139   4.606
    3OL    H16R 2136   3.627   3.078   4.555
    3OL    H16S 2137   3.458   3.089   4.632
    3OL    C117 2138   3.612   3.208   4.729
    3OL    H17R 2139   3.535   3.249   4.795
    3OL    H17S 2140   3.667   3.296   4.697
    3OL    C118 2141   3.707   3.121   4.813
    3OL    H18R 2142   3.654   3.051   4.878
    3OL    H18S 2143   3.775   3.181   4.874
    3OL    H18T 2144   3.775   3.063   4.751
    1PA    C116 2145   4.973   2.613   3.732
    1PA    H16R 2146   4.977   2.580   3.628
    1PA    H16S 2147   5.032   2.705   3.731
    1PA    H16T 2148   4.875   2.645   3.766
    1PA    C115 2149   5.039   2.507   3.822
    1PA    H15R 2150   5.004   2.408   3.790
    1PA    H15S 2151   5.144   2.500   3.794
    1PA    C114 2152   5.036   2.535   3.973
    1PA    H14R 2153   5.072   2.636   3.992
    1PA    H14S 2154   4.929   2.533   3.992
    1PA    C113 2155   5.100   2.423   4.056
    1PA    H13R 2156   5.051   2.331   4.022
    1PA    H13S 2157   5.206   2.423   4.031
    1PA    C112 2158   5.091   2.450   4.207
    1PA    H12R 2159   5.169   2.387   4.249
    1PA    H12S 2160   5.132   2.547   4.237
    1PA    C111 2161   4.956   2.424   4.275
    1PA    H11R 2162   4.872   2.446   4.209
    1PA    H11S 2163   4.951   2.316   4.293
    1PA    C110 2164   4.943   2.504   4.405
    1PA    H10R 2165   5.024   2.479   4.473
    1PA    H10S 2166   4.941   2.610   4.379
    1PA     C19 2167   4.818   2.484   4.492
    1PA     H9R 2168   4.725   2.505   4.440
    1PA     H9S 2169   4.819   2.381   4.529
    1PA     C18 2170   4.826   2.569   4.620
    1PA     H8R 2171   4.918   2.546   4.675
    1PA     H8S 2172   4.835   2.677   4.603
    1PA     C17 2173   4.703   2.536   4.704
    1PA     H7R 2174   4.606   2.557   4.659
    1PA     H7S 2175   4.700   2.428   4.723
    1PA     C16 2176   4.709   2.613   4.837
    1PA     H6R 2177   4.745   2.715   4.820
    1PA     H6S 2178   4.606   2.634   4.865
    1PA     C15 2179   4.812   2.562   4.938
    1PA     H5R 2180   4.838   2.456   4.926
    1PA     H5S 2181   4.904   2.620   4.929
    1PA     C14 2182   4.753   2.590   5.077
    1PA     H4R 2183   4.834   2.610   5.148
    1PA     H4S 2184   4.695   2.682   5.075
    1PA     C13 2185   4.652   2.482   5.118
    1PA     H3R 2186   4.583   2.527   5.190
    1PA     H3S 2187   4.596   2.450   5.030
    1PA     C12 2188   4.708   2.360   5.191
    1PA     H2R 2189   4.760   2.302   5.114
    1PA     H2S 2190   4.781   2.406   5.258
    2PC     C11 2191   4.607   2.279   5.269
    2PC     O12 2192   4.487   2.301   5.276
    2PC     O11 2193   4.670   2.179   5.333
    2PC      C1 2194   4.603   2.102   5.434
    2PC      HR 2195   4.576   2.161   5.522
    2PC      HS 2196   4.508   2.066   5.393
    2PC      C2 2197   4.698   1.991   5.479
    2PC      HX 2198   4.650   1.925   5.552
    2PC      C3 2199   4.831   2.044   5.534
    2PC      HA 2200   4.895   1.958   5.557
    2PC      HB 2201   4.882   2.105   5.459
    2PC     O31 2202   4.831   2.125   5.653
    2PC     P31 2203   4.788   2.050   5.788
    2PC     O32 2204   4.761   2.180   5.877
    2PC     C31 2205   4.627   2.214   5.917
    2PC     H1A 2206   4.553   2.235   5.840
    2PC     H1B 2207   4.576   2.140   5.980
    2PC     C32 2208   4.643   2.340   6.003
    2PC     H2A 2209   4.699   2.414   5.945
    2PC     H2B 2210   4.542   2.379   6.015
    2PC     N31 2211   4.697   2.323   6.142
    2PC     C33 2212   4.704   2.456   6.209
    2PC     H3A 2213   4.742   2.446   6.311
    2PC     H3B 2214   4.769   2.533   6.167
    2PC     H3C 2215   4.599   2.488   6.211
    2PC     C34 2216   4.610   2.235   6.228
    2PC     H4A 2217   4.507   2.269   6.225
    2PC     H4B 2218   4.617   2.132   6.195
    2PC     H4C 2219   4.645   2.233   6.331
    2PC     C35 2220   4.836   2.268   6.151
    2PC     H5A 2221   4.897   2.352   6.117
    2PC     H5B 2222   4.854   2.182   6.087
    2PC     H5C 2223   4.853   2.235   6.254
    2PC     O33 2224   4.667   1.964   5.786
    2PC     O34 2225   4.887   1.960   5.852
    2PC     O21 2226   4.726   1.899   5.372
    2PC     C21 2227   4.635   1.811   5.325
    2PC     O22 2228   4.521   1.803   5.366
    3OL     C12 2229   4.697   1.716   5.226
    3OL     H2R 2230   4.781   1.668   5.275
    3OL     H2S 2231   4.740   1.778   5.147
    3OL     C13 2232   4.600   1.612   5.167
    3OL     H3R 2233   4.515   1.667   5.126
    3OL     H3S 2234   4.557   1.547   5.243
    3OL     C14 2235   4.664   1.520   5.063
    3OL     H4R 2236   4.642   1.416   5.088
    3OL     H4S 2237   4.772   1.523   5.080
    3OL     C15 2238   4.637   1.584   4.926
    3OL     H5R 2239   4.672   1.687   4.921
    3OL     H5S 2240   4.531   1.601   4.906
    3OL     C16 2241   4.686   1.496   4.810
    3OL     H6R 2242   4.635   1.400   4.810
    3OL     H6S 2243   4.791   1.472   4.821
    3OL     C17 2244   4.662   1.559   4.671
    3OL     H7R 2245   4.709   1.657   4.674
    3OL     H7S 2246   4.555   1.567   4.650
    3OL     C18 2247   4.721   1.475   4.557
    3OL     H8R 2248   4.818   1.434   4.583
    3OL     H8S 2249   4.739   1.544   4.474
    3OL     C19 2250   4.630   1.359   4.526
    3OL     H9R 2251   4.619   1.298   4.615
    3OL    C110 2252   4.566   1.336   4.412
    3OL    H10R 2253   4.495   1.254   4.408
    3OL    C111 2254   4.570   1.416   4.284
    3OL    H11R 2255   4.582   1.521   4.311
    3OL    H11S 2256   4.471   1.417   4.238
    3OL    C112 2257   4.683   1.372   4.189
    3OL    H12R 2258   4.780   1.385   4.238
    3OL    H12S 2259   4.687   1.445   4.108
    3OL    C113 2260   4.677   1.228   4.137
    3OL    H13R 2261   4.589   1.207   4.076
    3OL    H13S 2262   4.678   1.160   4.223
    3OL    C114 2263   4.797   1.208   4.044
    3OL    H14R 2264   4.884   1.210   4.109
    3OL    H14S 2265   4.816   1.278   3.962
    3OL    C115 2266   4.797   1.076   3.965
    3OL    H15R 2267   4.888   1.056   3.908
    3OL    H15S 2268   4.720   1.072   3.888
    3OL    C116 2269   4.774   0.949   4.049
    3OL    H16R 2270   4.716   0.869   4.003
    3OL    H16S 2271   4.723   0.980   4.141
    3OL    C117 2272   4.903   0.882   4.100
    3OL    H17R 2273   4.957   0.957   4.157
    3OL    H17S 2274   4.952   0.849   4.008
    3OL    C118 2275   4.854   0.768   4.190
    3OL    H18R 2276   4.792   0.701   4.130
    3OL    H18S 2277   4.804   0.805   4.280
    3OL    H18T 2278   4.939   0.706   4.220
    1PA    C116 2279   6.041   2.966   3.833
    1PA    H16R 2280   5.966   2.899   3.789
    1PA    H16S 2281   6.141   2.924   3.824
    1PA    H16T 2282   6.037   3.064   3.785
    1PA    C115 2283   6.003   2.973   3.981
    1PA    H15R 2284   6.067   3.049   4.027
    1PA    H15S 2285   5.905   3.020   3.993
    1PA    C114 2286   6.016   2.837   4.053
    1PA    H14R 2287   6.115   2.797   4.028
    1PA    H14S 2288   6.005   2.847   4.161
    1PA    C113 2289   5.915   2.729   4.014
    1PA    H13R 2290   5.830   2.737   4.082
    1PA    H13S 2291   5.894   2.743   3.908
    1PA    C112 2292   5.964   2.585   4.031
    1PA    H12R 2293   5.883   2.513   4.017
    1PA    H12S 2294   6.039   2.560   3.956
    1PA    C111 2295   6.020   2.551   4.170
    1PA    H11R 2296   6.077   2.457   4.171
    1PA    H11S 2297   6.097   2.620   4.205
    1PA    C110 2298   5.903   2.541   4.269
    1PA    H10R 2299   5.842   2.631   4.264
    1PA    H10S 2300   5.839   2.457   4.239
    1PA     C19 2301   5.961   2.528   4.410
    1PA     H9R 2302   6.041   2.453   4.416
    1PA     H9S 2303   6.013   2.614   4.452
    1PA     C18 2304   5.847   2.497   4.508
    1PA     H8R 2305   5.768   2.571   4.498
    1PA     H8S 2306   5.805   2.404   4.470
    1PA     C17 2307   5.897   2.481   4.653
    1PA     H7R 2308   5.967   2.398   4.656
    1PA     H7S 2309   5.962   2.567   4.674
    1PA     C16 2310   5.786   2.463   4.757
    1PA     H6R 2311   5.709   2.541   4.754
    1PA     H6S 2312   5.721   2.378   4.737
    1PA     C15 2313   5.847   2.448   4.897
    1PA     H5R 2314   5.780   2.391   4.961
    1PA     H5S 2315   5.943   2.396   4.904
    1PA     C14 2316   5.861   2.583   4.969
    1PA     H4R 2317   5.908   2.656   4.903
    1PA     H4S 2318   5.761   2.626   4.983
    1PA     C13 2319   5.921   2.589   5.110
    1PA     H3R 2320   5.884   2.507   5.172
    1PA     H3S 2321   6.027   2.564   5.106
    1PA     C12 2322   5.898   2.723   5.182
    1PA     H2R 2323   5.937   2.810   5.128
    1PA     H2S 2324   5.790   2.738   5.189
    2PC     C11 2325   5.962   2.718   5.318
    2PC     O12 2326   5.973   2.819   5.384
    2PC     O11 2327   5.987   2.597   5.370
    2PC      C1 2328   6.009   2.584   5.511
    2PC      HR 2329   6.055   2.492   5.548
    2PC      HS 2330   6.082   2.661   5.534
    2PC      C2 2331   5.874   2.597   5.583
    2PC      HX 2332   5.819   2.685   5.549
    2PC      C3 2333   5.898   2.634   5.730
    2PC      HA 2334   5.935   2.552   5.791
    2PC      HB 2335   5.973   2.713   5.738
    2PC     O31 2336   5.765   2.667   5.775
    2PC     P31 2337   5.735   2.740   5.914
    2PC     O32 2338   5.764   2.891   5.870
    2PC     C31 2339   5.727   2.973   5.982
    2PC     H1A 2340   5.619   2.987   5.974
    2PC     H1B 2341   5.741   2.919   6.076
    2PC     C32 2342   5.812   3.100   5.990
    2PC     H2A 2343   5.805   3.160   5.899
    2PC     H2B 2344   5.768   3.162   6.068
    2PC     N31 2345   5.958   3.079   6.017
    2PC     C33 2346   6.029   3.210   6.032
    2PC     H3A 2347   6.051   3.266   5.942
    2PC     H3B 2348   5.963   3.272   6.093
    2PC     H3C 2349   6.127   3.191   6.077
    2PC     C34 2350   5.984   3.011   6.148
    2PC     H4A 2351   5.963   2.905   6.133
    2PC     H4B 2352   6.089   3.015   6.178
    2PC     H4C 2353   5.915   3.056   6.218
    2PC     C35 2354   6.031   3.008   5.907
    2PC     H5A 2355   6.136   3.003   5.934
    2PC     H5B 2356   6.012   3.062   5.814
    2PC     H5C 2357   5.985   2.910   5.898
    2PC     O33 2358   5.597   2.728   5.968
    2PC     O34 2359   5.830   2.695   6.018
    2PC     O21 2360   5.802   2.473   5.567
    2PC     C21 2361   5.707   2.472   5.471
    2PC     O22 2362   5.704   2.557   5.386
    3OL     C12 2363   5.608   2.359   5.481
    3OL     H2R 2364   5.519   2.387   5.538
    3OL     H2S 2365   5.656   2.271   5.524
    3OL     C13 2366   5.563   2.307   5.344
    3OL     H3R 2367   5.650   2.297   5.279
    3OL     H3S 2368   5.505   2.389   5.300
    3OL     C14 2369   5.480   2.178   5.357
    3OL     H4R 2370   5.374   2.201   5.351
    3OL     H4S 2371   5.506   2.128   5.450
    3OL     C15 2372   5.501   2.087   5.234
    3OL     H5R 2373   5.417   2.017   5.239
    3OL     H5S 2374   5.597   2.036   5.243
    3OL     C16 2375   5.480   2.152   5.097
    3OL     H6R 2376   5.558   2.228   5.089
    3OL     H6S 2377   5.380   2.194   5.082
    3OL     C17 2378   5.521   2.055   4.986
    3OL     H7R 2379   5.435   1.992   4.964
    3OL     H7S 2380   5.597   1.984   5.020
    3OL     C18 2381   5.573   2.123   4.858
    3OL     H8R 2382   5.610   2.046   4.790
    3OL     H8S 2383   5.663   2.183   4.872
    3OL     C19 2384   5.470   2.220   4.804
    3OL     H9R 2385   5.432   2.294   4.874
    3OL    C110 2386   5.436   2.225   4.676
    3OL    H10R 2387   5.366   2.297   4.637
    3OL    C111 2388   5.494   2.140   4.565
    3OL    H11R 2389   5.554   2.058   4.606
    3OL    H11S 2390   5.558   2.202   4.502
    3OL    C112 2391   5.382   2.072   4.486
    3OL    H12R 2392   5.302   2.144   4.469
    3OL    H12S 2393   5.343   1.999   4.556
    3OL    C113 2394   5.431   2.026   4.347
    3OL    H13R 2395   5.527   1.975   4.344
    3OL    H13S 2396   5.436   2.114   4.283
    3OL    C114 2397   5.331   1.929   4.282
    3OL    H14R 2398   5.227   1.961   4.293
    3OL    H14S 2399   5.334   1.831   4.329
    3OL    C115 2400   5.360   1.906   4.133
    3OL    H15R 2401   5.317   1.812   4.098
    3OL    H15S 2402   5.468   1.905   4.114
    3OL    C116 2403   5.316   2.027   4.050
    3OL    H16R 2404   5.381   2.110   4.077
    3OL    H16S 2405   5.212   2.053   4.072
    3OL    C117 2406   5.323   1.995   3.900
    3OL    H17R 2407   5.282   1.895   3.880
    3OL    H17S 2408   5.425   1.998   3.860
    3OL    C118 2409   5.241   2.104   3.831
    3OL    H18R 2410   5.140   2.119   3.870
    3OL    H18S 2411   5.237   2.077   3.725
    3OL    H18T 2412   5.305   2.192   3.841
    1PA    C116 2413   5.576   1.723   3.754
    1PA    H16R 2414   5.538   1.720   3.652
    1PA    H16S 2415   5.662   1.790   3.759
    1PA    H16T 2416   5.492   1.734   3.822
    1PA    C115 2417   5.639   1.586   3.786
    1PA    H15R 2418   5.553   1.519   3.794
    1PA    H15S 2419   5.701   1.546   3.705
    1PA    C114 2420   5.724   1.583   3.913
    1PA    H14R 2421   5.768   1.486   3.935
    1PA    H14S 2422   5.804   1.657   3.902
    1PA    C113 2423   5.629   1.630   4.025
    1PA    H13R 2424   5.607   1.736   4.010
    1PA    H13S 2425   5.538   1.570   4.022
    1PA    C112 2426   5.691   1.614   4.164
    1PA    H12R 2427   5.706   1.506   4.173
    1PA    H12S 2428   5.787   1.667   4.165
    1PA    C111 2429   5.601   1.667   4.276
    1PA    H11R 2430   5.595   1.775   4.259
    1PA    H11S 2431   5.503   1.618   4.268
    1PA    C110 2432   5.664   1.653   4.415
    1PA    H10R 2433   5.695   1.551   4.437
    1PA    H10S 2434   5.753   1.715   4.416
    1PA     C19 2435   5.568   1.698   4.526
    1PA     H9R 2436   5.546   1.804   4.514
    1PA     H9S 2437   5.475   1.641   4.522
    1PA     C18 2438   5.629   1.682   4.666
    1PA     H8R 2439   5.635   1.574   4.684
    1PA     H8S 2440   5.728   1.728   4.668
    1PA     C17 2441   5.544   1.736   4.782
    1PA     H7R 2442   5.542   1.843   4.763
    1PA     H7S 2443   5.443   1.695   4.773
    1PA     C16 2444   5.598   1.723   4.925
    1PA     H6R 2445   5.689   1.783   4.931
    1PA     H6S 2446   5.526   1.752   5.001
    1PA     C15 2447   5.623   1.576   4.962
    1PA     H5R 2448   5.532   1.516   4.971
    1PA     H5S 2449   5.690   1.530   4.890
    1PA     C14 2450   5.704   1.554   5.091
    1PA     H4R 2451   5.733   1.449   5.098
    1PA     H4S 2452   5.803   1.601   5.087
    1PA     C13 2453   5.622   1.581   5.217
    1PA     H3R 2454   5.599   1.688   5.220
    1PA     H3S 2455   5.529   1.523   5.219
    1PA     C12 2456   5.686   1.543   5.352
    1PA     H2R 2457   5.686   1.434   5.349
    1PA     H2S 2458   5.791   1.570   5.350
    2PC     C11 2459   5.611   1.597   5.471
    2PC     O12 2460   5.529   1.686   5.471
    2PC     O11 2461   5.647   1.527   5.580
    2PC      C1 2462   5.601   1.573   5.709
    2PC      HR 2463   5.680   1.548   5.780
    2PC      HS 2464   5.595   1.682   5.714
    2PC      C2 2465   5.468   1.505   5.741
    2PC      HX 2466   5.423   1.540   5.835
    2PC      C3 2467   5.493   1.354   5.748
    2PC      HA 2468   5.513   1.325   5.644
    2PC      HB 2469   5.580   1.338   5.812
    2PC     O31 2470   5.373   1.288   5.793
    2PC     P31 2471   5.381   1.130   5.816
    2PC     O32 2472   5.241   1.113   5.892
    2PC     C31 2473   5.136   1.084   5.798
    2PC     H1A 2474   5.135   1.165   5.725
    2PC     H1B 2475   5.155   0.990   5.746
    2PC     C32 2476   5.003   1.070   5.873
    2PC     H2A 2477   4.989   1.146   5.951
    2PC     H2B 2478   4.930   1.093   5.796
    2PC     N31 2479   4.976   0.929   5.918
    2PC     C33 2480   4.974   0.827   5.808
    2PC     H3A 2481   4.893   0.854   5.740
    2PC     H3B 2482   5.060   0.805   5.745
    2PC     H3C 2483   4.945   0.734   5.859
    2PC     C34 2484   5.075   0.891   6.024
    2PC     H4A 2485   5.048   0.795   6.066
    2PC     H4B 2486   5.176   0.890   5.983
    2PC     H4C 2487   5.071   0.963   6.106
    2PC     C35 2488   4.845   0.931   5.990
    2PC     H5A 2489   4.766   0.955   5.918
    2PC     H5B 2490   4.850   1.010   6.065
    2PC     H5C 2491   4.827   0.834   6.035
    2PC     O33 2492   5.391   1.046   5.695
    2PC     O34 2493   5.501   1.076   5.885
    2PC     O21 2494   5.369   1.529   5.639
    2PC     C21 2495   5.297   1.642   5.640
    2PC     O22 2496   5.315   1.737   5.713
    3OL     C12 2497   5.189   1.639   5.534
    3OL     H2R 2498   5.092   1.622   5.582
    3OL     H2S 2499   5.204   1.550   5.473
    3OL     C13 2500   5.186   1.765   5.448
    3OL     H3R 2501   5.280   1.767   5.391
    3OL     H3S 2502   5.191   1.860   5.502
    3OL     C14 2503   5.080   1.757   5.337
    3OL     H4R 2504   5.080   1.853   5.285
    3OL     H4S 2505   4.978   1.736   5.370
    3OL     C15 2506   5.131   1.662   5.229
    3OL     H5R 2507   5.098   1.559   5.245
    3OL     H5S 2508   5.236   1.674   5.204
    3OL     C16 2509   5.063   1.703   5.097
    3OL     H6R 2510   5.100   1.802   5.071
    3OL     H6S 2511   4.955   1.707   5.114
    3OL     C17 2512   5.109   1.600   4.993
    3OL     H7R 2513   5.068   1.499   5.006
    3OL     H7S 2514   5.217   1.584   4.998
    3OL     C18 2515   5.058   1.635   4.853
    3OL     H8R 2516   4.952   1.657   4.862
    3OL     H8S 2517   5.058   1.543   4.794
    3OL     C19 2518   5.127   1.754   4.790
    3OL     H9R 2519   5.207   1.798   4.849
    3OL    C110 2520   5.106   1.800   4.667
    3OL    H10R 2521   5.162   1.891   4.648
    3OL    C111 2522   4.989   1.762   4.580
    3OL    H11R 2523   4.920   1.846   4.573
    3OL    H11S 2524   4.937   1.678   4.627
    3OL    C112 2525   5.026   1.710   4.440
    3OL    H12R 2526   5.057   1.801   4.389
    3OL    H12S 2527   4.933   1.677   4.393
    3OL    C113 2528   5.128   1.595   4.445
    3OL    H13R 2529   5.092   1.521   4.517
    3OL    H13S 2530   5.229   1.631   4.467
    3OL    C114 2531   5.128   1.530   4.306
    3OL    H14R 2532   5.144   1.608   4.232
    3OL    H14S 2533   5.029   1.498   4.273
    3OL    C115 2534   5.232   1.418   4.291
    3OL    H15R 2535   5.324   1.461   4.330
    3OL    H15S 2536   5.246   1.404   4.183
    3OL    C116 2537   5.189   1.292   4.367
    3OL    H16R 2538   5.147   1.323   4.463
    3OL    H16S 2539   5.281   1.238   4.390
    3OL    C117 2540   5.083   1.198   4.309
    3OL    H17R 2541   5.102   1.168   4.206
    3OL    H17S 2542   4.998   1.266   4.304
    3OL    C118 2543   5.064   1.081   4.407
    3OL    H18R 2544   4.985   1.014   4.372
    3OL    H18S 2545   5.026   1.123   4.500
    3OL    H18T 2546   5.159   1.028   4.411
    1PA    C116 2547   5.563   4.639   3.887
    1PA    H16R 2548   5.583   4.568   3.807
    1PA    H16S 2549   5.631   4.724   3.875
    1PA    H16T 2550   5.459   4.674   3.885
    1PA    C115 2551   5.590   4.595   4.032
    1PA    H15R 2552   5.531   4.509   4.066
    1PA    H15S 2553   5.693   4.559   4.035
    1PA    C114 2554   5.560   4.707   4.132
    1PA    H14R 2555   5.614   4.800   4.115
    1PA    H14S 2556   5.454   4.729   4.116
    1PA    C113 2557   5.575   4.658   4.277
    1PA    H13R 2558   5.488   4.597   4.302
    1PA    H13S 2559   5.675   4.615   4.284
    1PA    C112 2560   5.574   4.772   4.380
    1PA    H12R 2561   5.629   4.858   4.341
    1PA    H12S 2562   5.473   4.806   4.402
    1PA    C111 2563   5.627   4.724   4.516
    1PA    H11R 2564   5.569   4.641   4.555
    1PA    H11S 2565   5.733   4.697   4.509
    1PA    C110 2566   5.592   4.835   4.616
    1PA    H10R 2567   5.642   4.927   4.585
    1PA    H10S 2568   5.484   4.851   4.611
    1PA     C19 2569   5.640   4.779   4.750
    1PA     H9R 2570   5.621   4.672   4.761
    1PA     H9S 2571   5.746   4.804   4.764
    1PA     C18 2572   5.561   4.857   4.856
    1PA     H8R 2573   5.454   4.844   4.841
    1PA     H8S 2574   5.581   4.808   4.951
    1PA     C17 2575   5.599   5.006   4.865
    1PA     H7R 2576   5.707   5.008   4.881
    1PA     H7S 2577   5.569   5.053   4.772
    1PA     C16 2578   5.528   5.062   4.989
    1PA     H6R 2579   5.511   5.169   4.987
    1PA     H6S 2580   5.433   5.008   4.993
    1PA     C15 2581   5.600   5.027   5.121
    1PA     H5R 2582   5.529   5.045   5.202
    1PA     H5S 2583   5.625   4.921   5.131
    1PA     C14 2584   5.728   5.107   5.146
    1PA     H4R 2585   5.807   5.086   5.074
    1PA     H4S 2586   5.709   5.214   5.151
    1PA     C13 2587   5.782   5.069   5.285
    1PA     H3R 2588   5.703   5.094   5.355
    1PA     H3S 2589   5.802   4.962   5.279
    1PA     C12 2590   5.904   5.153   5.324
    1PA     H2R 2591   5.982   5.146   5.248
    1PA     H2S 2592   5.875   5.258   5.329
    2PC     C11 2593   5.951   5.108   5.461
    2PC     O12 2594   5.872   5.058   5.539
    2PC     O11 2595   6.080   5.134   5.487
    2PC      C1 2596   6.149   5.084   5.603
    2PC      HR 2597   6.254   5.112   5.604
    2PC      HS 2598   6.122   5.139   5.693
    2PC      C2 2599   6.146   4.930   5.612
    2PC      HX 2600   6.055   4.886   5.569
    2PC      C3 2601   6.155   4.882   5.757
    2PC      HA 2602   6.073   4.920   5.819
    2PC      HB 2603   6.156   4.773   5.762
    2PC     O31 2604   6.280   4.933   5.807
    2PC     P31 2605   6.333   4.873   5.946
    2PC     O32 2606   6.363   4.723   5.899
    2PC     C31 2607   0.009   4.684   5.857
    2PC     H1A 2608   6.485   4.594   5.796
    2PC     H1B 2609   0.050   4.763   5.793
    2PC     C32 2610   0.098   4.639   5.973
    2PC     H2A 2611   0.182   4.588   5.927
    2PC     H2B 2612   0.136   4.714   6.043
    2PC     N31 2613   0.038   4.540   6.068
    2PC     C33 2614   6.473   4.423   5.991
    2PC     H3A 2615   6.404   4.455   5.912
    2PC     H3B 2616   0.072   4.381   5.937
    2PC     H3C 2617   6.426   4.354   6.061
    2PC     C34 2618   0.138   4.487   6.166
    2PC     H4A 2619   0.132   4.541   6.261
    2PC     H4B 2620   0.105   4.388   6.200
    2PC     H4C 2621   0.241   4.470   6.134
    2PC     C35 2622   6.404   4.588   6.144
    2PC     H5A 2623   6.338   4.640   6.074
    2PC     H5B 2624   6.441   4.661   6.216
    2PC     H5C 2625   6.355   4.512   6.205
    2PC     O33 2626   6.461   4.933   5.990
    2PC     O34 2627   6.240   4.882   6.061
    2PC     O21 2628   6.261   4.885   5.539
    2PC     C21 2629   6.258   4.756   5.502
    2PC     O22 2630   6.167   4.683   5.535
    3OL     C12 2631   6.383   4.711   5.432
    3OL     H2R 2632   6.411   4.615   5.476
    3OL     H2S 2633   6.465   4.776   5.463
    3OL     C13 2634   6.363   4.713   5.280
    3OL     H3R 2635   6.325   4.811   5.252
    3OL     H3S 2636   6.281   4.647   5.249
    3OL     C14 2637   0.001   4.683   5.194
    3OL     H4R 2638   0.039   4.586   5.227
    3OL     H4S 2639   0.056   4.776   5.212
    3OL     C15 2640   6.450   4.662   5.047
    3OL     H5R 2641   6.433   4.761   5.003
    3OL     H5S 2642   6.361   4.600   5.037
    3OL     C16 2643   0.078   4.600   4.966
    3OL     H6R 2644   0.099   4.499   5.003
    3OL     H6S 2645   0.167   4.661   4.979
    3OL     C17 2646   0.041   4.597   4.817
    3OL     H7R 2647   0.128   4.620   4.754
    3OL     H7S 2648   6.462   4.682   4.797
    3OL     C18 2649   6.463   4.465   4.773
    3OL     H8R 2650   6.387   4.449   4.850
    3OL     H8S 2651   0.049   4.384   4.788
    3OL     C19 2652   6.413   4.468   4.631
    3OL     H9R 2653   6.485   4.497   4.555
    3OL    C110 2654   6.288   4.444   4.597
    3OL    H10R 2655   6.263   4.463   4.493
    3OL    C111 2656   6.170   4.421   4.689
    3OL    H11R 2657   6.092   4.493   4.665
    3OL    H11S 2658   6.200   4.442   4.791
    3OL    C112 2659   6.112   4.279   4.691
    3OL    H12R 2660   6.173   4.201   4.737
    3OL    H12S 2661   6.083   4.248   4.591
    3OL    C113 2662   5.982   4.276   4.774
    3OL    H13R 2663   5.933   4.179   4.773
    3OL    H13S 2664   5.913   4.342   4.720
    3OL    C114 2665   6.002   4.320   4.919
    3OL    H14R 2666   5.910   4.294   4.972
    3OL    H14S 2667   6.002   4.430   4.922
    3OL    C115 2668   6.128   4.267   4.988
    3OL    H15R 2669   6.213   4.274   4.920
    3OL    H15S 2670   6.115   4.159   4.997
    3OL    C116 2671   6.146   4.341   5.121
    3OL    H16R 2672   6.070   4.318   5.196
    3OL    H16S 2673   6.162   4.449   5.110
    3OL    C117 2674   6.268   4.283   5.194
    3OL    H17R 2675   6.362   4.295   5.139
    3OL    H17S 2676   6.258   4.176   5.210
    3OL    C118 2677   6.272   4.343   5.335
    3OL    H18R 2678   6.357   4.316   5.399
    3OL    H18S 2679   6.191   4.306   5.398
    3OL    H18T 2680   6.268   4.452   5.333
    1PA    C116 2681   1.103   1.184   4.717
    1PA    H16R 2682   1.136   1.147   4.814
    1PA    H16S 2683   1.084   1.104   4.645
    1PA    H16T 2684   1.004   1.230   4.721
    1PA    C115 2685   1.196   1.298   4.670
    1PA    H15R 2686   1.159   1.324   4.570
    1PA    H15S 2687   1.177   1.388   4.728
    1PA    C114 2688   1.345   1.261   4.668
    1PA    H14R 2689   1.356   1.170   4.610
    1PA    H14S 2690   1.394   1.337   4.607
    1PA    C113 2691   1.410   1.270   4.807
    1PA    H13R 2692   1.397   1.371   4.847
    1PA    H13S 2693   1.360   1.195   4.869
    1PA    C112 2694   1.561   1.242   4.799
    1PA    H12R 2695   1.593   1.225   4.902
    1PA    H12S 2696   1.585   1.155   4.738
    1PA    C111 2697   1.637   1.367   4.752
    1PA    H11R 2698   1.599   1.407   4.658
    1PA    H11S 2699   1.630   1.451   4.822
    1PA    C110 2700   1.785   1.327   4.746
    1PA    H10R 2701   1.801   1.246   4.675
    1PA    H10S 2702   1.846   1.405   4.700
    1PA     C19 2703   1.841   1.308   4.888
    1PA     H9R 2704   1.820   1.399   4.944
    1PA     H9S 2705   1.788   1.221   4.928
    1PA     C18 2706   1.993   1.291   4.873
    1PA     H8R 2707   2.020   1.205   4.811
    1PA     H8S 2708   2.026   1.381   4.821
    1PA     C17 2709   2.063   1.269   5.008
    1PA     H7R 2710   2.022   1.332   5.087
    1PA     H7S 2711   2.047   1.169   5.049
    1PA     C16 2712   2.216   1.282   5.000
    1PA     H6R 2713   2.246   1.258   4.898
    1PA     H6S 2714   2.241   1.385   5.030
    1PA     C15 2715   2.285   1.191   5.102
    1PA     H5R 2716   2.241   1.091   5.102
    1PA     H5S 2717   2.393   1.179   5.090
    1PA     C14 2718   2.266   1.247   5.243
    1PA     H4R 2719   2.331   1.335   5.247
    1PA     H4S 2720   2.161   1.275   5.253
    1PA     C13 2721   2.299   1.146   5.354
    1PA     H3R 2722   2.252   1.181   5.446
    1PA     H3S 2723   2.251   1.057   5.313
    1PA     C12 2724   2.447   1.124   5.386
    1PA     H2R 2725   2.510   1.133   5.297
    1PA     H2S 2726   2.467   1.194   5.467
    2PC     C11 2727   2.482   0.990   5.448
    2PC     O12 2728   2.595   0.945   5.448
    2PC     O11 2729   2.386   0.923   5.513
    2PC      C1 2730   2.403   0.792   5.570
    2PC      HR 2731   2.439   0.725   5.492
    2PC      HS 2732   2.477   0.783   5.650
    2PC      C2 2733   2.266   0.750   5.625
    2PC      HX 2734   2.217   0.846   5.645
    2PC      C3 2735   2.276   0.676   5.759
    2PC      HA 2736   2.340   0.734   5.826
    2PC      HB 2737   2.174   0.661   5.794
    2PC     O31 2738   2.324   0.542   5.736
    2PC     P31 2739   2.343   0.449   5.865
    2PC     O32 2740   2.399   0.313   5.801
    2PC     C31 2741   2.305   0.252   5.710
    2PC     H1A 2742   2.214   0.235   5.767
    2PC     H1B 2743   2.279   0.315   5.624
    2PC     C32 2744   2.374   0.122   5.667
    2PC     H2A 2745   2.432   0.085   5.751
    2PC     H2B 2746   2.293   0.051   5.650
    2PC     N31 2747   2.462   0.136   5.546
    2PC     C33 2748   2.380   0.176   5.427
    2PC     H3A 2749   2.366   0.284   5.434
    2PC     H3B 2750   2.432   0.164   5.332
    2PC     H3C 2751   2.283   0.125   5.430
    2PC     C34 2752   2.568   0.242   5.548
    2PC     H4A 2753   2.534   0.344   5.566
    2PC     H4B 2754   2.627   0.212   5.635
    2PC     H4C 2755   2.634   0.239   5.461
    2PC     C35 2756   2.521   0.000   5.525
    2PC     H5A 2757   2.599   6.478   5.602
    2PC     H5B 2758   2.571   6.476   5.429
    2PC     H5C 2759   2.441   6.414   5.537
    2PC     O33 2760   2.441   0.499   5.964
    2PC     O34 2761   2.214   0.430   5.935
    2PC     O21 2762   2.176   0.686   5.533
    2PC     C21 2763   2.213   0.580   5.458
    2PC     O22 2764   2.319   0.522   5.469
    3OL     C12 2765   2.109   0.546   5.354
    3OL     H2R 2766   2.112   0.623   5.277
    3OL     H2S 2767   2.009   0.567   5.392
    3OL     C13 2768   2.109   0.405   5.294
    3OL     H3R 2769   2.015   0.382   5.244
    3OL     H3S 2770   2.118   0.335   5.377
    3OL     C14 2771   2.223   0.387   5.193
    3OL     H4R 2772   2.318   0.415   5.239
    3OL     H4S 2773   2.196   0.471   5.127
    3OL     C15 2774   2.228   0.256   5.113
    3OL     H5R 2775   2.131   0.216   5.082
    3OL     H5S 2776   2.281   0.175   5.162
    3OL     C16 2777   2.313   0.291   4.990
    3OL     H6R 2778   2.411   0.326   5.023
    3OL     H6S 2779   2.260   0.363   4.928
    3OL     C17 2780   2.342   0.162   4.911
    3OL     H7R 2781   2.250   0.119   4.870
    3OL     H7S 2782   2.387   0.086   4.976
    3OL     C18 2783   2.444   0.182   4.798
    3OL     H8R 2784   2.403   0.259   4.732
    3OL     H8S 2785   2.448   0.091   4.737
    3OL     C19 2786   2.582   0.212   4.850
    3OL     H9R 2787   2.648   0.132   4.884
    3OL    C110 2788   2.645   0.328   4.837
    3OL    H10R 2789   2.749   0.336   4.867
    3OL    C111 2790   2.570   0.448   4.785
    3OL    H11R 2791   2.486   0.469   4.851
    3OL    H11S 2792   2.539   0.423   4.683
    3OL    C112 2793   2.648   0.580   4.775
    3OL    H12R 2794   2.748   0.576   4.733
    3OL    H12S 2795   2.660   0.609   4.880
    3OL    C113 2796   2.557   0.680   4.703
    3OL    H13R 2797   2.584   0.779   4.741
    3OL    H13S 2798   2.454   0.654   4.729
    3OL    C114 2799   2.578   0.678   4.551
    3OL    H14R 2800   2.568   0.577   4.510
    3OL    H14S 2801   2.680   0.708   4.525
    3OL    C115 2802   2.467   0.754   4.477
    3OL    H15R 2803   2.468   0.857   4.511
    3OL    H15S 2804   2.367   0.716   4.500
    3OL    C116 2805   2.495   0.752   4.326
    3OL    H16R 2806   2.481   0.651   4.288
    3OL    H16S 2807   2.597   0.786   4.307
    3OL    C117 2808   2.405   0.840   4.238
    3OL    H17R 2809   2.400   0.939   4.285
    3OL    H17S 2810   2.301   0.809   4.234
    3OL    C118 2811   2.458   0.834   4.094
    3OL    H18R 2812   2.470   0.729   4.067
    3OL    H18S 2813   2.555   0.884   4.096
    3OL    H18T 2814   2.389   0.896   4.035
    1PA    C116 2815   0.891   2.167   3.887
    1PA    H16R 2816   0.835   2.252   3.846
    1PA    H16S 2817   0.866   2.072   3.839
    1PA    H16T 2818   0.998   2.182   3.872
    1PA    C115 2819   0.860   2.146   4.036
    1PA    H15R 2820   0.904   2.055   4.076
    1PA    H15S 2821   0.885   2.233   4.097
    1PA    C114 2822   0.709   2.120   4.044
    1PA    H14R 2823   0.646   2.183   3.980
    1PA    H14S 2824   0.690   2.015   4.020
    1PA    C113 2825   0.658   2.132   4.188
    1PA    H13R 2826   0.554   2.099   4.183
    1PA    H13S 2827   0.710   2.055   4.246
    1PA    C112 2828   0.656   2.275   4.244
    1PA    H12R 2829   0.683   2.349   4.169
    1PA    H12S 2830   0.555   2.301   4.275
    1PA    C111 2831   0.743   2.287   4.370
    1PA    H11R 2832   0.848   2.258   4.363
    1PA    H11S 2833   0.749   2.396   4.384
    1PA    C110 2834   0.669   2.227   4.490
    1PA    H10R 2835   0.579   2.282   4.518
    1PA    H10S 2836   0.630   2.126   4.472
    1PA     C19 2837   0.771   2.234   4.604
    1PA     H9R 2838   0.853   2.164   4.590
    1PA     H9S 2839   0.819   2.332   4.604
    1PA     C18 2840   0.710   2.194   4.740
    1PA     H8R 2841   0.622   2.253   4.768
    1PA     H8S 2842   0.681   2.089   4.728
    1PA     C17 2843   0.800   2.209   4.863
    1PA     H7R 2844   0.890   2.147   4.855
    1PA     H7S 2845   0.829   2.314   4.867
    1PA     C16 2846   0.720   2.177   4.991
    1PA     H6R 2847   0.645   2.255   5.007
    1PA     H6S 2848   0.671   2.080   4.982
    1PA     C15 2849   0.810   2.160   5.114
    1PA     H5R 2850   0.749   2.108   5.188
    1PA     H5S 2851   0.903   2.112   5.084
    1PA     C14 2852   0.843   2.299   5.172
    1PA     H4R 2853   0.906   2.349   5.098
    1PA     H4S 2854   0.757   2.366   5.174
    1PA     C13 2855   0.914   2.293   5.308
    1PA     H3R 2856   0.998   2.224   5.319
    1PA     H3S 2857   0.970   2.384   5.330
    1PA     C12 2858   0.811   2.278   5.421
    1PA     H2R 2859   0.756   2.372   5.428
    1PA     H2S 2860   0.737   2.200   5.408
    2PC     C11 2861   0.872   2.258   5.558
    2PC     O12 2862   0.817   2.304   5.656
    2PC     O11 2863   0.982   2.182   5.559
    2PC      C1 2864   1.060   2.171   5.680
    2PC      HR 2865   1.114   2.263   5.698
    2PC      HS 2866   0.990   2.149   5.761
    2PC      C2 2867   1.153   2.051   5.657
    2PC      HX 2868   1.099   1.956   5.662
    2PC      C3 2869   1.259   2.038   5.767
    2PC      HA 2870   1.214   2.045   5.866
    2PC      HB 2871   1.322   1.951   5.744
    2PC     O31 2872   1.332   2.162   5.772
    2PC     P31 2873   1.486   2.163   5.817
    2PC     O32 2874   1.551   2.305   5.782
    2PC     C31 2875   1.615   2.384   5.884
    2PC     H1A 2876   1.537   2.410   5.956
    2PC     H1B 2877   1.701   2.336   5.931
    2PC     C32 2878   1.641   2.524   5.828
    2PC     H2A 2879   1.564   2.561   5.759
    2PC     H2B 2880   1.654   2.597   5.908
    2PC     N31 2881   1.766   2.540   5.747
    2PC     C33 2882   1.876   2.478   5.828
    2PC     H3A 2883   1.861   2.370   5.832
    2PC     H3B 2884   1.975   2.497   5.786
    2PC     H3C 2885   1.873   2.512   5.932
    2PC     C34 2886   1.762   2.463   5.618
    2PC     H4A 2887   1.835   2.510   5.552
    2PC     H4B 2888   1.775   2.355   5.629
    2PC     H4C 2889   1.665   2.472   5.569
    2PC     C35 2890   1.789   2.685   5.719
    2PC     H5A 2891   1.895   2.692   5.692
    2PC     H5B 2892   1.761   2.744   5.806
    2PC     H5C 2893   1.741   2.720   5.627
    2PC     O33 2894   1.492   2.153   5.965
    2PC     O34 2895   1.568   2.058   5.754
    2PC     O21 2896   1.231   2.061   5.537
    2PC     C21 2897   1.280   1.950   5.479
    2PC     O22 2898   1.260   1.838   5.519
    3OL     C12 2899   1.349   1.982   5.349
    3OL     H2R 2900   1.433   2.050   5.367
    3OL     H2S 2901   1.267   2.027   5.292
    3OL     C13 2902   1.400   1.855   5.279
    3OL     H3R 2903   1.317   1.785   5.266
    3OL     H3S 2904   1.475   1.803   5.339
    3OL     C14 2905   1.467   1.880   5.143
    3OL     H4R 2906   1.535   1.798   5.120
    3OL     H4S 2907   1.535   1.965   5.142
    3OL     C15 2908   1.360   1.896   5.033
    3OL     H5R 2909   1.282   1.964   5.067
    3OL     H5S 2910   1.309   1.803   5.008
    3OL     C16 2911   1.426   1.948   4.905
    3OL     H6R 2912   1.502   1.875   4.876
    3OL     H6S 2913   1.472   2.044   4.930
    3OL     C17 2914   1.317   1.960   4.797
    3OL     H7R 2915   1.251   2.045   4.816
    3OL     H7S 2916   1.268   1.862   4.787
    3OL     C18 2917   1.378   2.001   4.663
    3OL     H8R 2918   1.419   2.103   4.665
    3OL     H8S 2919   1.291   2.004   4.598
    3OL     C19 2920   1.474   1.896   4.613
    3OL     H9R 2921   1.576   1.921   4.641
    3OL    C110 2922   1.434   1.792   4.542
    3OL    H10R 2923   1.511   1.730   4.497
    3OL    C111 2924   1.291   1.760   4.508
    3OL    H11R 2925   1.272   1.787   4.404
    3OL    H11S 2926   1.215   1.813   4.567
    3OL    C112 2927   1.255   1.611   4.496
    3OL    H12R 2928   1.148   1.611   4.477
    3OL    H12S 2929   1.267   1.561   4.592
    3OL    C113 2930   1.329   1.526   4.391
    3OL    H13R 2931   1.293   1.424   4.394
    3OL    H13S 2932   1.437   1.525   4.411
    3OL    C114 2933   1.303   1.592   4.255
    3OL    H14R 2934   1.367   1.679   4.243
    3OL    H14S 2935   1.201   1.627   4.240
    3OL    C115 2936   1.354   1.500   4.143
    3OL    H15R 2937   1.324   1.395   4.156
    3OL    H15S 2938   1.463   1.499   4.142
    3OL    C116 2939   1.298   1.553   4.010
    3OL    H16R 2940   1.318   1.655   3.979
    3OL    H16S 2941   1.189   1.554   4.019
    3OL    C117 2942   1.353   1.463   3.898
    3OL    H17R 2943   1.347   1.359   3.930
    3OL    H17S 2944   1.459   1.484   3.880
    3OL    C118 2945   1.278   1.483   3.766
    3OL    H18R 2946   1.299   1.581   3.722
    3OL    H18S 2947   1.173   1.482   3.793
    3OL    H18T 2948   1.310   1.403   3.699
    1PA    C116 2949   4.158   3.378   3.937
    1PA    H16R 2950   4.112   3.473   3.962
    1PA    H16S 2951   4.121   3.305   4.009
    1PA    H16T 2952   4.113   3.358   3.839
    1PA    C115 2953   4.311   3.385   3.947
    1PA    H15R 2954   4.361   3.295   3.912
    1PA    H15S 2955   4.343   3.472   3.889
    1PA    C114 2956   4.358   3.413   4.091
    1PA    H14R 2957   4.450   3.472   4.086
    1PA    H14S 2958   4.279   3.464   4.145
    1PA    C113 2959   4.385   3.291   4.180
    1PA    H13R 2960   4.292   3.239   4.204
    1PA    H13S 2961   4.442   3.208   4.136
    1PA    C112 2962   4.442   3.332   4.316
    1PA    H12R 2963   4.425   3.439   4.335
    1PA    H12S 2964   4.400   3.274   4.398
    1PA    C111 2965   4.592   3.302   4.326
    1PA    H11R 2966   4.605   3.194   4.313
    1PA    H11S 2967   4.637   3.349   4.239
    1PA    C110 2968   4.664   3.352   4.453
    1PA    H10R 2969   4.763   3.307   4.456
    1PA    H10S 2970   4.673   3.461   4.445
    1PA     C19 2971   4.588   3.321   4.582
    1PA     H9R 2972   4.486   3.359   4.588
    1PA     H9S 2973   4.566   3.214   4.591
    1PA     C18 2974   4.667   3.372   4.704
    1PA     H8R 2975   4.764   3.324   4.714
    1PA     H8S 2976   4.696   3.475   4.682
    1PA     C17 2977   4.580   3.357   4.829
    1PA     H7R 2978   4.487   3.414   4.822
    1PA     H7S 2979   4.552   3.253   4.844
    1PA     C16 2980   4.654   3.403   4.956
    1PA     H6R 2981   4.753   3.361   4.970
    1PA     H6S 2982   4.676   3.510   4.946
    1PA     C15 2983   4.572   3.377   5.083
    1PA     H5R 2984   4.477   3.431   5.076
    1PA     H5S 2985   4.558   3.269   5.090
    1PA     C14 2986   4.650   3.413   5.210
    1PA     H4R 2987   4.749   3.370   5.220
    1PA     H4S 2988   4.670   3.519   5.197
    1PA     C13 2989   4.559   3.386   5.331
    1PA     H3R 2990   4.461   3.433   5.323
    1PA     H3S 2991   4.532   3.280   5.342
    1PA     C12 2992   4.629   3.441   5.455
    1PA     H2R 2993   4.736   3.418   5.456
    1PA     H2S 2994   4.630   3.550   5.466
    2PC     C11 2995   4.574   3.385   5.583
    2PC     O12 2996   4.607   3.277   5.628
    2PC     O11 2997   4.477   3.463   5.635
    2PC      C1 2998   4.413   3.419   5.756
    2PC      HR 2999   4.447   3.324   5.798
    2PC      HS 3000   4.430   3.491   5.836
    2PC      C2 3001   4.262   3.403   5.733
    2PC      HX 3002   4.209   3.489   5.689
    2PC      C3 3003   4.182   3.380   5.862
    2PC      HA 3004   4.152   3.478   5.897
    2PC      HB 3005   4.095   3.316   5.846
    2PC     O31 3006   4.266   3.306   5.953
    2PC     P31 3007   4.211   3.275   6.100
    2PC     O32 3008   4.208   3.410   6.186
    2PC     C31 3009   4.333   3.478   6.204
    2PC     H1A 3010   4.411   3.403   6.225
    2PC     H1B 3011   4.360   3.517   6.106
    2PC     C32 3012   4.323   3.593   6.306
    2PC     H2A 3013   4.419   3.643   6.316
    2PC     H2B 3014   4.246   3.663   6.274
    2PC     N31 3015   4.289   3.554   6.446
    2PC     C33 3016   4.403   3.476   6.504
    2PC     H3A 3017   4.403   3.378   6.457
    2PC     H3B 3018   4.492   3.532   6.475
    2PC     H3C 3019   4.395   3.480   6.613
    2PC     C34 3020   4.263   3.670   6.538
    2PC     H4A 3021   4.333   3.748   6.511
    2PC     H4B 3022   4.165   3.712   6.512
    2PC     H4C 3023   4.274   3.643   6.643
    2PC     C35 3024   4.163   3.473   6.459
    2PC     H5A 3025   4.186   3.372   6.422
    2PC     H5B 3026   4.081   3.510   6.398
    2PC     H5C 3027   4.138   3.469   6.565
    2PC     O33 3028   4.084   3.199   6.104
    2PC     O34 3029   4.302   3.179   6.166
    2PC     O21 3030   4.252   3.293   5.640
    2PC     C21 3031   4.255   3.321   5.509
    2PC     O22 3032   4.247   3.431   5.457
    3OL     C12 3033   4.264   3.191   5.434
    3OL     H2R 3034   4.213   3.105   5.479
    3OL     H2S 3035   4.367   3.157   5.442
    3OL     C13 3036   4.220   3.208   5.287
    3OL     H3R 3037   4.308   3.252   5.240
    3OL     H3S 3038   4.136   3.276   5.271
    3OL     C14 3039   4.183   3.076   5.219
    3OL     H4R 3040   4.082   3.054   5.252
    3OL     H4S 3041   4.255   2.998   5.242
    3OL     C15 3042   4.167   3.093   5.067
    3OL     H5R 3043   4.092   3.168   5.042
    3OL     H5S 3044   4.120   2.998   5.040
    3OL     C16 3045   4.289   3.102   4.974
    3OL     H6R 3046   4.363   3.023   4.989
    3OL     H6S 3047   4.336   3.199   4.992
    3OL     C17 3048   4.252   3.097   4.825
    3OL     H7R 3049   4.254   3.204   4.803
    3OL     H7S 3050   4.147   3.069   4.811
    3OL     C18 3051   4.356   3.022   4.741
    3OL     H8R 3052   4.458   3.037   4.775
    3OL     H8S 3053   4.364   3.075   4.646
    3OL     C19 3054   4.335   2.873   4.731
    3OL     H9R 3055   4.368   2.823   4.821
    3OL    C110 3056   4.296   2.804   4.625
    3OL    H10R 3057   4.290   2.696   4.625
    3OL    C111 3058   4.252   2.866   4.495
    3OL    H11R 3059   4.234   2.972   4.511
    3OL    H11S 3060   4.157   2.825   4.460
    3OL    C112 3061   4.350   2.845   4.378
    3OL    H12R 3062   4.445   2.893   4.400
    3OL    H12S 3063   4.323   2.892   4.283
    3OL    C113 3064   4.367   2.693   4.368
    3OL    H13R 3065   4.265   2.656   4.349
    3OL    H13S 3066   4.408   2.655   4.461
    3OL    C114 3067   4.449   2.644   4.248
    3OL    H14R 3068   4.395   2.671   4.156
    3OL    H14S 3069   4.448   2.535   4.245
    3OL    C115 3070   4.596   2.686   4.256
    3OL    H15R 3071   4.653   2.607   4.206
    3OL    H15S 3072   4.625   2.703   4.360
    3OL    C116 3073   4.623   2.811   4.170
    3OL    H16R 3074   4.556   2.891   4.202
    3OL    H16S 3075   4.604   2.793   4.064
    3OL    C117 3076   4.768   2.850   4.201
    3OL    H17R 3077   4.825   2.763   4.168
    3OL    H17S 3078   4.782   2.871   4.308
    3OL    C118 3079   4.809   2.973   4.119
    3OL    H18R 3080   4.901   3.016   4.158
    3OL    H18S 3081   4.729   3.046   4.137
    3OL    H18T 3082   4.803   2.955   4.011
    1PA    C116 3083   6.150   1.777   3.683
    1PA    H16R 3084   6.200   1.684   3.711
    1PA    H16S 3085   6.234   1.824   3.631
    1PA    H16T 3086   6.073   1.772   3.605
    1PA    C115 3087   6.098   1.853   3.806
    1PA    H15R 3088   6.062   1.952   3.777
    1PA    H15S 3089   6.015   1.799   3.851
    1PA    C114 3090   6.209   1.852   3.912
    1PA    H14R 3091   6.303   1.892   3.872
    1PA    H14S 3092   6.192   1.935   3.982
    1PA    C113 3093   6.226   1.718   3.985
    1PA    H13R 3094   6.128   1.689   4.022
    1PA    H13S 3095   6.246   1.637   3.916
    1PA    C112 3096   6.335   1.733   4.093
    1PA    H12R 3097   6.360   1.637   4.138
    1PA    H12S 3098   6.425   1.775   4.047
    1PA    C111 3099   6.284   1.812   4.215
    1PA    H11R 3100   6.288   1.916   4.183
    1PA    H11S 3101   6.182   1.792   4.248
    1PA    C110 3102   6.382   1.796   4.333
    1PA    H10R 3103   6.387   1.689   4.355
    1PA    H10S 3104   6.478   1.832   4.297
    1PA     C19 3105   6.345   1.874   4.460
    1PA     H9R 3106   6.344   1.982   4.445
    1PA     H9S 3107   6.249   1.835   4.496
    1PA     C18 3108   6.452   1.855   4.568
    1PA     H8R 3109   6.481   1.750   4.573
    1PA     H8S 3110   0.058   1.911   4.551
    1PA     C17 3111   6.385   1.907   4.696
    1PA     H7R 3112   6.351   2.011   4.688
    1PA     H7S 3113   6.296   1.845   4.713
    1PA     C16 3114   6.481   1.890   4.814
    1PA     H6R 3115   0.007   1.783   4.836
    1PA     H6S 3116   0.096   1.929   4.798
    1PA     C15 3117   6.429   1.967   4.936
    1PA     H5R 3118   6.436   2.075   4.922
    1PA     H5S 3119   6.328   1.936   4.965
    1PA     C14 3120   0.035   1.943   5.057
    1PA     H4R 3121   0.040   1.835   5.066
    1PA     H4S 3122   0.138   1.978   5.041
    1PA     C13 3123   6.453   2.000   5.182
    1PA     H3R 3124   6.432   2.106   5.164
    1PA     H3S 3125   6.360   1.946   5.202
    1PA     C12 3126   0.065   1.975   5.297
    1PA     H2R 3127   0.064   1.865   5.295
    1PA     H2S 3128   0.158   2.016   5.258
    2PC     C11 3129   0.014   2.032   5.427
    2PC     O12 3130   0.081   2.041   5.527
    2PC     O11 3131   6.369   2.060   5.430
    2PC      C1 3132   6.294   2.118   5.538
    2PC      HR 3133   6.190   2.119   5.506
    2PC      HS 3134   6.316   2.050   5.622
    2PC      C2 3135   6.328   2.263   5.574
    2PC      HX 3136   6.436   2.282   5.574
    2PC      C3 3137   6.259   2.302   5.706
    2PC      HA 3138   6.310   2.256   5.790
    2PC      HB 3139   6.265   2.411   5.707
    2PC     O31 3140   6.128   2.246   5.727
    2PC     P31 3141   6.067   2.217   5.873
    2PC     O32 3142   5.929   2.146   5.831
    2PC     C31 3143   5.803   2.216   5.827
    2PC     H1A 3144   5.804   2.282   5.914
    2PC     H1B 3145   5.802   2.272   5.733
    2PC     C32 3146   5.702   2.101   5.831
    2PC     H2A 3147   5.598   2.134   5.818
    2PC     H2B 3148   5.721   2.022   5.758
    2PC     N31 3149   5.681   2.035   5.964
    2PC     C33 3150   5.808   1.988   6.030
    2PC     H3A 3151   5.887   2.062   6.021
    2PC     H3B 3152   5.791   1.966   6.136
    2PC     H3C 3153   5.840   1.894   5.986
    2PC     C34 3154   5.594   2.122   6.050
    2PC     H4A 3155   5.631   2.220   6.078
    2PC     H4B 3156   5.513   2.135   5.978
    2PC     H4C 3157   5.554   2.070   6.137
    2PC     C35 3158   5.605   1.909   5.937
    2PC     H5A 3159   5.564   1.882   6.035
    2PC     H5B 3160   5.670   1.841   5.883
    2PC     H5C 3161   5.531   1.941   5.864
    2PC     O33 3162   6.147   2.116   5.945
    2PC     O34 3163   6.061   2.343   5.951
    2PC     O21 3164   6.288   2.349   5.466
    2PC     C21 3165   6.362   2.354   5.353
    2PC     O22 3166   6.464   2.296   5.325
    3OL     C12 3167   6.286   2.438   5.253
    3OL     H2R 3168   6.268   2.540   5.290
    3OL     H2S 3169   6.185   2.397   5.253
    3OL     C13 3170   6.355   2.439   5.116
    3OL     H3R 3171   6.393   2.340   5.089
    3OL     H3S 3172   6.444   2.501   5.132
    3OL     C14 3173   6.274   2.506   5.005
    3OL     H4R 3174   6.243   2.602   5.046
    3OL     H4S 3175   6.187   2.446   4.977
    3OL     C15 3176   6.363   2.528   4.881
    3OL     H5R 3177   6.421   2.437   4.867
    3OL     H5S 3178   6.433   2.609   4.900
    3OL     C16 3179   6.281   2.566   4.757
    3OL     H6R 3180   6.212   2.646   4.784
    3OL     H6S 3181   6.204   2.493   4.732
    3OL     C17 3182   6.368   2.599   4.634
    3OL     H7R 3183   6.447   2.666   4.667
    3OL     H7S 3184   6.307   2.645   4.556
    3OL     C18 3185   6.428   2.470   4.577
    3OL     H8R 3186   6.340   2.406   4.565
    3OL     H8S 3187   6.485   2.417   4.653
    3OL     C19 3188   0.036   2.499   4.463
    3OL     H9R 3189   0.137   2.527   4.491
    3OL    C110 3190   0.005   2.484   4.335
    3OL    H10R 3191   0.076   2.512   4.257
    3OL    C111 3192   6.359   2.441   4.275
    3OL    H11R 3193   6.274   2.498   4.313
    3OL    H11S 3194   6.355   2.333   4.289
    3OL    C112 3195   6.365   2.454   4.122
    3OL    H12R 3196   6.275   2.407   4.079
    3OL    H12S 3197   6.452   2.399   4.086
    3OL    C113 3198   6.382   2.599   4.075
    3OL    H13R 3199   6.483   2.632   4.101
    3OL    H13S 3200   6.311   2.663   4.128
    3OL    C114 3201   6.351   2.605   3.925
    3OL    H14R 3202   6.243   2.596   3.915
    3OL    H14S 3203   6.403   2.526   3.869
    3OL    C115 3204   6.397   2.742   3.875
    3OL    H15R 3205   6.384   2.813   3.957
    3OL    H15S 3206   6.348   2.779   3.784
    3OL    C116 3207   0.062   2.735   3.851
    3OL    H16R 3208   0.085   2.657   3.778
    3OL    H16S 3209   0.105   2.704   3.947
    3OL    C117 3210   0.126   2.869   3.813
    3OL    H17R 3211   0.121   2.942   3.895
    3OL    H17S 3212   0.061   2.930   3.749
    3OL    C118 3213   0.271   2.846   3.768
    3OL    H18R 3214   0.319   2.782   3.842
    3OL    H18S 3215   0.331   2.935   3.750
    3OL    H18T 3216   0.278   2.792   3.673
    1PA    C116 3217   2.896   5.735   3.712
    1PA    H16R 3218   2.948   5.700   3.622
    1PA    H16S 3219   2.794   5.696   3.713
    1PA    H16T 3220   2.949   5.691   3.796
    1PA    C115 3221   2.907   5.888   3.724
    1PA    H15R 3222   3.012   5.917   3.724
    1PA    H15S 3223   2.856   5.939   3.642
    1PA    C114 3224   2.839   5.932   3.855
    1PA    H14R 3225   2.838   5.844   3.920
    1PA    H14S 3226   2.885   6.016   3.907
    1PA    C113 3227   2.693   5.969   3.830
    1PA    H13R 3228   2.681   6.034   3.743
    1PA    H13S 3229   2.644   5.873   3.813
    1PA    C112 3230   2.620   6.045   3.942
    1PA    H12R 3231   2.685   6.125   3.979
    1PA    H12S 3232   2.535   6.097   3.897
    1PA    C111 3233   2.576   5.953   4.057
    1PA    H11R 3234   2.542   5.855   4.023
    1PA    H11S 3235   2.661   5.906   4.106
    1PA    C110 3236   2.477   6.020   4.155
    1PA    H10R 3237   2.528   6.094   4.217
    1PA    H10S 3238   2.403   6.069   4.092
    1PA     C19 3239   2.399   5.923   4.244
    1PA     H9R 3240   2.336   5.994   4.298
    1PA     H9S 3241   2.332   5.864   4.180
    1PA     C18 3242   2.484   5.838   4.339
    1PA     H8R 3243   2.515   5.752   4.278
    1PA     H8S 3244   2.574   5.890   4.372
    1PA     C17 3245   2.413   5.788   4.465
    1PA     H7R 3246   2.365   5.878   4.505
    1PA     H7S 3247   2.333   5.720   4.434
    1PA     C16 3248   2.506   5.732   4.573
    1PA     H6R 3249   2.551   5.641   4.533
    1PA     H6S 3250   2.583   5.806   4.596
    1PA     C15 3251   2.422   5.695   4.696
    1PA     H5R 3252   2.503   5.684   4.770
    1PA     H5S 3253   2.359   5.780   4.724
    1PA     C14 3254   2.350   5.560   4.695
    1PA     H4R 3255   2.283   5.553   4.609
    1PA     H4S 3256   2.435   5.495   4.674
    1PA     C13 3257   2.296   5.529   4.836
    1PA     H3R 3258   2.375   5.545   4.909
    1PA     H3S 3259   2.212   5.594   4.860
    1PA     C12 3260   2.273   5.377   4.844
    1PA     H2R 3261   2.188   5.351   4.781
    1PA     H2S 3262   2.358   5.330   4.795
    2PC     C11 3263   2.260   5.324   4.984
    2PC     O12 3264   2.231   5.392   5.080
    2PC     O11 3265   2.282   5.191   4.993
    2PC      C1 3266   2.275   5.123   5.119
    2PC      HR 3267   2.337   5.033   5.122
    2PC      HS 3268   2.308   5.191   5.197
    2PC      C2 3269   2.128   5.091   5.151
    2PC      HX 3270   2.068   5.181   5.164
    2PC      C3 3271   2.116   4.994   5.269
    2PC      HA 3272   2.153   4.896   5.238
    2PC      HB 3273   2.165   5.024   5.362
    2PC     O31 3274   1.978   4.972   5.304
    2PC     P31 3275   1.944   4.842   5.392
    2PC     O32 3276   1.788   4.858   5.425
    2PC     C31 3277   1.751   4.875   5.563
    2PC     H1A 3278   1.774   4.774   5.596
    2PC     H1B 3279   1.803   4.952   5.620
    2PC     C32 3280   1.598   4.889   5.569
    2PC     H2A 3281   1.576   4.987   5.526
    2PC     H2B 3282   1.555   4.812   5.504
    2PC     N31 3283   1.526   4.879   5.700
    2PC     C33 3284   1.465   4.743   5.705
    2PC     H3A 3285   1.384   4.738   5.633
    2PC     H3B 3286   1.543   4.673   5.673
    2PC     H3C 3287   1.427   4.732   5.807
    2PC     C34 3288   1.625   4.905   5.810
    2PC     H4A 3289   1.699   4.824   5.804
    2PC     H4B 3290   1.672   5.002   5.797
    2PC     H4C 3291   1.578   4.900   5.908
    2PC     C35 3292   1.420   4.984   5.715
    2PC     H5A 3293   1.341   4.973   5.641
    2PC     H5B 3294   1.464   5.081   5.692
    2PC     H5C 3295   1.384   4.979   5.817
    2PC     O33 3296   1.962   4.716   5.316
    2PC     O34 3297   2.030   4.829   5.512
    2PC     O21 3298   2.083   5.013   5.039
    2PC     C21 3299   2.028   5.081   4.938
    2PC     O22 3300   1.991   5.197   4.943
    3OL     C12 3301   2.004   4.990   4.820
    3OL     H2R 3302   2.035   4.888   4.845
    3OL     H2S 3303   2.057   5.022   4.730
    3OL     C13 3304   1.851   4.982   4.806
    3OL     H3R 3305   1.807   5.082   4.816
    3OL     H3S 3306   1.808   4.936   4.895
    3OL     C14 3307   1.809   4.933   4.666
    3OL     H4R 3308   1.864   4.977   4.583
    3OL     H4S 3309   1.705   4.963   4.650
    3OL     C15 3310   1.820   4.780   4.669
    3OL     H5R 3311   1.760   4.737   4.750
    3OL     H5S 3312   1.924   4.753   4.685
    3OL     C16 3313   1.766   4.714   4.541
    3OL     H6R 3314   1.817   4.751   4.451
    3OL     H6S 3315   1.660   4.724   4.520
    3OL     C17 3316   1.794   4.563   4.542
    3OL     H7R 3317   1.743   4.511   4.623
    3OL     H7S 3318   1.902   4.546   4.550
    3OL     C18 3319   1.744   4.501   4.410
    3OL     H8R 3320   1.806   4.555   4.338
    3OL     H8S 3321   1.645   4.539   4.385
    3OL     C19 3322   1.771   4.353   4.405
    3OL     H9R 3323   1.731   4.291   4.484
    3OL    C110 3324   1.843   4.291   4.312
    3OL    H10R 3325   1.831   4.185   4.332
    3OL    C111 3326   1.889   4.331   4.175
    3OL    H11R 3327   1.992   4.313   4.142
    3OL    H11S 3328   1.874   4.439   4.165
    3OL    C112 3329   1.798   4.269   4.068
    3OL    H12R 3330   1.696   4.309   4.066
    3OL    H12S 3331   1.788   4.165   4.102
    3OL    C113 3332   1.876   4.276   3.936
    3OL    H13R 3333   1.981   4.246   3.938
    3OL    H13S 3334   1.888   4.379   3.902
    3OL    C114 3335   1.811   4.192   3.826
    3OL    H14R 3336   1.708   4.225   3.820
    3OL    H14S 3337   1.803   4.087   3.855
    3OL    C115 3338   1.902   4.201   3.702
    3OL    H15R 3339   2.002   4.167   3.733
    3OL    H15S 3340   1.918   4.307   3.682
    3OL    C116 3341   1.856   4.132   3.573
    3OL    H16R 3342   1.766   4.182   3.537
    3OL    H16S 3343   1.841   4.025   3.583
    3OL    C117 3344   1.965   4.151   3.466
    3OL    H17R 3345   2.064   4.126   3.504
    3OL    H17S 3346   1.970   4.258   3.446
    3OL    C118 3347   1.943   4.080   3.332
    3OL    H18R 3348   2.004   4.124   3.253
    3OL    H18S 3349   1.841   4.104   3.300
    3OL    H18T 3350   1.960   3.972   3.333
    1PA    C116 3351   1.583   3.919   3.767
    1PA    H16R 3352   1.650   4.004   3.752
    1PA    H16S 3353   1.546   3.927   3.869
    1PA    H16T 3354   1.498   3.936   3.701
    1PA    C115 3355   1.648   3.782   3.738
    1PA    H15R 3356   1.569   3.708   3.746
    1PA    H15S 3357   1.689   3.777   3.637
    1PA    C114 3358   1.748   3.753   3.851
    1PA    H14R 3359   1.789   3.657   3.820
    1PA    H14S 3360   1.828   3.827   3.857
    1PA    C113 3361   1.687   3.725   3.989
    1PA    H13R 3362   1.609   3.796   4.017
    1PA    H13S 3363   1.633   3.630   3.977
    1PA    C112 3364   1.801   3.711   4.090
    1PA    H12R 3365   1.865   3.623   4.087
    1PA    H12S 3366   1.857   3.804   4.079
    1PA    C111 3367   1.748   3.724   4.233
    1PA    H11R 3368   1.689   3.815   4.238
    1PA    H11S 3369   1.681   3.645   4.268
    1PA    C110 3370   1.856   3.726   4.343
    1PA    H10R 3371   1.929   3.803   4.320
    1PA    H10S 3372   1.803   3.740   4.438
    1PA     C19 3373   1.936   3.595   4.349
    1PA     H9R 3374   1.872   3.511   4.376
    1PA     H9S 3375   1.987   3.565   4.257
    1PA     C18 3376   2.050   3.593   4.451
    1PA     H8R 3377   2.108   3.504   4.429
    1PA     H8S 3378   2.117   3.679   4.442
    1PA     C17 3379   2.001   3.582   4.597
    1PA     H7R 3380   1.966   3.675   4.641
    1PA     H7S 3381   1.919   3.512   4.610
    1PA     C16 3382   2.111   3.528   4.690
    1PA     H6R 3383   2.089   3.523   4.797
    1PA     H6S 3384   2.134   3.429   4.650
    1PA     C15 3385   2.243   3.606   4.692
    1PA     H5R 3386   2.300   3.558   4.772
    1PA     H5S 3387   2.297   3.601   4.597
    1PA     C14 3388   2.239   3.753   4.737
    1PA     H4R 3389   2.179   3.813   4.668
    1PA     H4S 3390   2.192   3.755   4.835
    1PA     C13 3391   2.377   3.818   4.750
    1PA     H3R 3392   2.437   3.764   4.824
    1PA     H3S 3393   2.422   3.789   4.655
    1PA     C12 3394   2.374   3.970   4.772
    1PA     H2R 3395   2.475   4.007   4.759
    1PA     H2S 3396   2.311   4.026   4.703
    2PC     C11 3397   2.332   4.009   4.912
    2PC     O12 3398   2.311   3.925   4.997
    2PC     O11 3399   2.309   4.139   4.934
    2PC      C1 3400   2.265   4.189   5.062
    2PC      HR 3401   2.246   4.296   5.051
    2PC      HS 3402   2.171   4.143   5.094
    2PC      C2 3403   2.368   4.175   5.175
    2PC      HX 3404   2.407   4.074   5.190
    2PC      C3 3405   2.314   4.218   5.312
    2PC      HA 3406   2.320   4.325   5.336
    2PC      HB 3407   2.206   4.203   5.319
    2PC     O31 3408   2.391   4.149   5.413
    2PC     P31 3409   2.346   4.153   5.567
    2PC     O32 3410   2.314   4.306   5.604
    2PC     C31 3411   2.174   4.334   5.619
    2PC     H1A 3412   2.135   4.325   5.517
    2PC     H1B 3413   2.133   4.259   5.687
    2PC     C32 3414   2.166   4.474   5.681
    2PC     H2A 3415   2.236   4.481   5.764
    2PC     H2B 3416   2.201   4.540   5.602
    2PC     N31 3417   2.033   4.519   5.734
    2PC     C33 3418   1.986   4.427   5.843
    2PC     H3A 3419   1.903   4.478   5.891
    2PC     H3B 3420   1.946   4.338   5.793
    2PC     H3C 3421   2.067   4.406   5.913
    2PC     C34 3422   2.060   4.655   5.793
    2PC     H4A 3423   1.962   4.695   5.818
    2PC     H4B 3424   2.126   4.639   5.877
    2PC     H4C 3425   2.113   4.709   5.714
    2PC     C35 3426   1.933   4.519   5.622
    2PC     H5A 3427   1.983   4.574   5.541
    2PC     H5B 3428   1.841   4.570   5.651
    2PC     H5C 3429   1.921   4.415   5.593
    2PC     O33 3430   2.231   4.062   5.588
    2PC     O34 3431   2.448   4.090   5.653
    2PC     O21 3432   2.480   4.258   5.140
    2PC     C21 3433   2.570   4.225   5.045
    2PC     O22 3434   2.579   4.110   5.007
    3OL     C12 3435   2.640   4.343   4.984
    3OL     H2R 3436   2.736   4.372   5.029
    3OL     H2S 3437   2.570   4.422   5.011
    3OL     C13 3438   2.663   4.344   4.832
    3OL     H3R 3439   2.722   4.258   4.800
    3OL     H3S 3440   2.730   4.428   4.810
    3OL     C14 3441   2.530   4.346   4.756
    3OL     H4R 3442   2.455   4.415   4.794
    3OL     H4S 3443   2.480   4.249   4.767
    3OL     C15 3444   2.548   4.362   4.604
    3OL     H5R 3445   2.597   4.276   4.558
    3OL     H5S 3446   2.605   4.453   4.585
    3OL     C16 3447   2.410   4.378   4.540
    3OL     H6R 3448   2.337   4.303   4.571
    3OL     H6S 3449   2.433   4.359   4.434
    3OL     C17 3450   2.344   4.515   4.562
    3OL     H7R 3451   2.412   4.594   4.530
    3OL     H7S 3452   2.331   4.529   4.669
    3OL     C18 3453   2.209   4.529   4.489
    3OL     H8R 3454   2.140   4.455   4.531
    3OL     H8S 3455   2.225   4.508   4.383
    3OL     C19 3456   2.154   4.667   4.511
    3OL     H9R 3457   2.123   4.684   4.614
    3OL    C110 3458   2.131   4.757   4.416
    3OL    H10R 3459   2.081   4.851   4.437
    3OL    C111 3460   2.186   4.745   4.277
    3OL    H11R 3461   2.260   4.665   4.267
    3OL    H11S 3462   2.232   4.841   4.252
    3OL    C112 3463   2.064   4.739   4.184
    3OL    H12R 3464   1.999   4.825   4.204
    3OL    H12S 3465   2.000   4.656   4.215
    3OL    C113 3466   2.093   4.708   4.037
    3OL    H13R 3467   2.003   4.673   3.986
    3OL    H13S 3468   2.163   4.624   4.028
    3OL    C114 3469   2.145   4.835   3.968
    3OL    H14R 3470   2.218   4.883   4.034
    3OL    H14S 3471   2.058   4.899   3.954
    3OL    C115 3472   2.216   4.807   3.835
    3OL    H15R 3473   2.282   4.721   3.847
    3OL    H15S 3474   2.286   4.889   3.822
    3OL    C116 3475   2.127   4.762   3.718
    3OL    H16R 3476   2.037   4.823   3.712
    3OL    H16S 3477   2.090   4.662   3.740
    3OL    C117 3478   2.200   4.752   3.583
    3OL    H17R 3479   2.146   4.683   3.519
    3OL    H17S 3480   2.297   4.703   3.592
    3OL    C118 3481   2.218   4.890   3.519
    3OL    H18R 3482   2.279   4.950   3.587
    3OL    H18S 3483   2.118   4.935   3.519
    3OL    H18T 3484   2.257   4.893   3.417
    1PA    C116 3485   0.497   3.009   4.109
    1PA    H16R 3486   0.542   3.006   4.009
    1PA    H16S 3487   0.510   3.100   4.167
    1PA    H16T 3488   0.547   2.930   4.164
    1PA    C115 3489   0.346   2.979   4.099
    1PA    H15R 3490   0.293   3.045   4.031
    1PA    H15S 3491   0.328   2.877   4.065
    1PA    C114 3492   0.269   3.008   4.228
    1PA    H14R 3493   0.303   2.948   4.313
    1PA    H14S 3494   0.281   3.114   4.254
    1PA    C113 3495   0.117   2.989   4.215
    1PA    H13R 3496   0.089   3.054   4.132
    1PA    H13S 3497   0.104   2.889   4.173
    1PA    C112 3498   0.022   3.028   4.328
    1PA    H12R 3499   0.039   3.134   4.348
    1PA    H12S 3500   6.414   3.015   4.275
    1PA    C111 3501   0.035   2.938   4.452
    1PA    H11R 3502   0.043   2.831   4.431
    1PA    H11S 3503   0.123   2.965   4.511
    1PA    C110 3504   6.402   2.964   4.545
    1PA    H10R 3505   6.379   3.071   4.534
    1PA    H10S 3506   6.311   2.906   4.527
    1PA     C19 3507   6.447   2.963   4.691
    1PA     H9R 3508   0.028   2.878   4.700
    1PA     H9S 3509   0.015   3.053   4.720
    1PA     C18 3510   6.322   2.955   4.780
    1PA     H8R 3511   6.255   3.041   4.770
    1PA     H8S 3512   6.268   2.863   4.757
    1PA     C17 3513   6.350   2.966   4.930
    1PA     H7R 3514   6.418   2.885   4.956
    1PA     H7S 3515   6.409   3.059   4.934
    1PA     C16 3516   6.235   2.958   5.031
    1PA     H6R 3517   6.166   3.042   5.017
    1PA     H6S 3518   6.181   2.866   5.011
    1PA     C15 3519   6.286   2.957   5.176
    1PA     H5R 3520   6.201   2.949   5.245
    1PA     H5S 3521   6.370   2.892   5.202
    1PA     C14 3522   6.341   3.095   5.214
    1PA     H4R 3523   6.416   3.128   5.142
    1PA     H4S 3524   6.256   3.164   5.221
    1PA     C13 3525   6.405   3.113   5.352
    1PA     H3R 3526   6.330   3.092   5.428
    1PA     H3S 3527   0.001   3.043   5.370
    1PA     C12 3528   6.456   3.257   5.362
    1PA     H2R 3529   0.057   3.266   5.296
    1PA     H2S 3530   6.381   3.329   5.329
    2PC     C11 3531   0.009   3.290   5.504
    2PC     O12 3532   0.103   3.244   5.565
    2PC     O11 3533   6.430   3.395   5.556
    2PC      C1 3534   6.475   3.455   5.679
    2PC      HR 3535   6.398   3.514   5.729
    2PC      HS 3536   0.013   3.372   5.745
    2PC      C2 3537   0.110   3.549   5.662
    2PC      HX 3538   0.188   3.493   5.610
    2PC      C3 3539   0.156   3.589   5.802
    2PC      HA 3540   0.187   3.498   5.854
    2PC      HB 3541   0.238   3.660   5.785
    2PC     O31 3542   0.039   3.643   5.865
    2PC     P31 3543   0.055   3.674   6.022
    2PC     O32 3544   6.447   3.561   6.085
    2PC     C31 3545   6.460   3.423   6.047
    2PC     H1A 3546   6.369   3.369   6.076
    2PC     H1B 3547   6.475   3.422   5.939
    2PC     C32 3548   0.107   3.380   6.110
    2PC     H2A 3549   0.147   3.291   6.061
    2PC     H2B 3550   0.177   3.462   6.094
    2PC     N31 3551   0.111   3.347   6.256
    2PC     C33 3552   0.255   3.333   6.296
    2PC     H3A 3553   0.252   3.312   6.403
    2PC     H3B 3554   0.288   3.238   6.255
    2PC     H3C 3555   0.319   3.417   6.268
    2PC     C34 3556   0.040   3.450   6.339
    2PC     H4A 3557   6.421   3.450   6.311
    2PC     H4B 3558   0.052   3.422   6.444
    2PC     H4C 3559   0.082   3.549   6.319
    2PC     C35 3560   0.043   3.216   6.282
    2PC     H5A 3561   6.423   3.228   6.259
    2PC     H5B 3562   0.069   3.197   6.386
    2PC     H5C 3563   0.085   3.145   6.210
    2PC     O33 3564   0.188   3.673   6.088
    2PC     O34 3565   6.475   3.805   6.042
    2PC     O21 3566   0.070   3.668   5.591
    2PC     C21 3567   0.057   3.657   5.458
    2PC     O22 3568   0.095   3.562   5.394
    3OL     C12 3569   0.004   3.786   5.400
    3OL     H2R 3570   6.388   3.801   5.435
    3OL     H2S 3571   6.480   3.767   5.293
    3OL     C13 3572   0.091   3.908   5.433
    3OL     H3R 3573   0.195   3.877   5.420
    3OL     H3S 3574   0.071   3.947   5.533
    3OL     C14 3575   0.058   4.023   5.336
    3OL     H4R 3576   6.443   4.056   5.360
    3OL     H4S 3577   0.053   3.995   5.230
    3OL     C15 3578   0.154   4.142   5.347
    3OL     H5R 3579   0.170   4.163   5.453
    3OL     H5S 3580   0.091   4.227   5.319
    3OL     C16 3581   0.292   4.117   5.285
    3OL     H6R 3582   0.344   4.035   5.335
    3OL     H6S 3583   0.344   4.212   5.300
    3OL     C17 3584   0.300   4.090   5.135
    3OL     H7R 3585   0.253   3.996   5.105
    3OL     H7S 3586   0.405   4.093   5.104
    3OL     C18 3587   0.229   4.194   5.047
    3OL     H8R 3588   0.248   4.290   5.096
    3OL     H8S 3589   0.121   4.192   5.065
    3OL     C19 3590   0.269   4.185   4.902
    3OL     H9R 3591   0.373   4.207   4.877
    3OL    C110 3592   0.191   4.149   4.801
    3OL    H10R 3593   0.224   4.133   4.699
    3OL    C111 3594   0.044   4.120   4.816
    3OL    H11R 3595   6.477   4.151   4.726
    3OL    H11S 3596   0.010   4.169   4.908
    3OL    C112 3597   0.025   3.969   4.841
    3OL    H12R 3598   6.418   3.947   4.893
    3OL    H12S 3599   0.111   3.931   4.896
    3OL    C113 3600   0.028   3.901   4.703
    3OL    H13R 3601   0.039   3.793   4.714
    3OL    H13S 3602   0.106   3.939   4.637
    3OL    C114 3603   6.375   3.902   4.640
    3OL    H14R 3604   6.323   3.999   4.639
    3OL    H14S 3605   6.308   3.834   4.692
    3OL    C115 3606   6.394   3.859   4.494
    3OL    H15R 3607   6.449   3.765   4.493
    3OL    H15S 3608   6.463   3.922   4.437
    3OL    C116 3609   6.258   3.855   4.424
    3OL    H16R 3610   6.219   3.955   4.443
    3OL    H16S 3611   6.194   3.787   4.482
    3OL    C117 3612   6.266   3.851   4.270
    3OL    H17R 3613   6.341   3.926   4.241
    3OL    H17S 3614   6.169   3.881   4.231
    3OL    C118 3615   6.299   3.710   4.219
    3OL    H18R 3616   6.211   3.646   4.229
    3OL    H18S 3617   6.380   3.669   4.279
    3OL    H18T 3618   6.328   3.712   4.114
    1PA    C116 3619   1.271   0.293   4.096
    1PA    H16R 3620   1.279   0.400   4.079
    1PA    H16S 3621   1.268   0.269   4.203
    1PA    H16T 3622   1.179   0.252   4.054
    1PA    C115 3623   1.391   0.221   4.034
    1PA    H15R 3624   1.415   0.255   3.933
    1PA    H15S 3625   1.484   0.246   4.086
    1PA    C114 3626   1.363   0.072   4.061
    1PA    H14R 3627   1.334   0.061   4.166
    1PA    H14S 3628   1.271   0.044   4.011
    1PA    C113 3629   1.484   6.473   4.022
    1PA    H13R 3630   1.489   0.000   3.914
    1PA    H13S 3631   1.574   0.031   4.065
    1PA    C112 3632   1.461   6.328   4.068
    1PA    H12R 3633   1.365   6.302   4.022
    1PA    H12S 3634   1.540   6.273   4.018
    1PA    C111 3635   1.480   6.293   4.216
    1PA    H11R 3636   1.583   6.321   4.238
    1PA    H11S 3637   1.417   6.365   4.269
    1PA    C110 3638   1.447   6.146   4.244
    1PA    H10R 3639   1.345   6.123   4.212
    1PA    H10S 3640   1.513   6.082   4.186
    1PA     C19 3641   1.463   6.114   4.393
    1PA     H9R 3642   1.449   6.008   4.412
    1PA     H9S 3643   1.566   6.145   4.414
    1PA     C18 3644   1.359   6.189   4.479
    1PA     H8R 3645   1.357   6.297   4.466
    1PA     H8S 3646   1.258   6.167   4.443
    1PA     C17 3647   1.392   6.161   4.626
    1PA     H7R 3648   1.501   6.164   4.632
    1PA     H7S 3649   1.343   6.235   4.690
    1PA     C16 3650   1.349   6.020   4.669
    1PA     H6R 3651   1.252   5.997   4.624
    1PA     H6S 3652   1.418   5.942   4.638
    1PA     C15 3653   1.330   6.016   4.821
    1PA     H5R 3654   1.425   6.057   4.858
    1PA     H5S 3655   1.244   6.075   4.854
    1PA     C14 3656   1.298   5.871   4.861
    1PA     H4R 3657   1.207   5.844   4.807
    1PA     H4S 3658   1.373   5.799   4.831
    1PA     C13 3659   1.280   5.844   5.011
    1PA     H3R 3660   1.272   5.736   5.022
    1PA     H3S 3661   1.377   5.867   5.056
    1PA     C12 3662   1.156   5.917   5.065
    1PA     H2R 3663   1.180   6.023   5.058
    1PA     H2S 3664   1.069   5.906   5.000
    2PC     C11 3665   1.129   5.879   5.208
    2PC     O12 3666   1.122   5.767   5.254
    2PC     O11 3667   1.138   5.988   5.287
    2PC      C1 3668   1.164   5.974   5.427
    2PC      HR 3669   1.182   6.071   5.473
    2PC      HS 3670   1.070   5.937   5.471
    2PC      C2 3671   1.282   5.881   5.459
    2PC      HX 3672   1.278   5.785   5.407
    2PC      C3 3673   1.270   5.843   5.607
    2PC      HA 3674   1.190   5.768   5.607
    2PC      HB 3675   1.369   5.808   5.638
    2PC     O31 3676   1.238   5.955   5.692
    2PC     P31 3677   1.241   5.936   5.851
    2PC     O32 3678   1.371   6.031   5.854
    2PC     C31 3679   1.503   5.974   5.842
    2PC     H1A 3680   1.487   5.888   5.775
    2PC     H1B 3681   1.573   6.043   5.795
    2PC     C32 3682   1.546   5.921   5.979
    2PC     H2A 3683   1.545   6.006   6.047
    2PC     H2B 3684   1.466   5.855   6.013
    2PC     N31 3685   1.674   5.845   5.996
    2PC     C33 3686   1.672   5.732   5.898
    2PC     H3A 3687   1.655   5.778   5.800
    2PC     H3B 3688   1.770   5.683   5.900
    2PC     H3C 3689   1.584   5.672   5.923
    2PC     C34 3690   1.789   5.939   5.973
    2PC     H4A 3691   1.870   5.877   6.012
    2PC     H4B 3692   1.811   5.944   5.867
    2PC     H4C 3693   1.796   6.037   6.019
    2PC     C35 3694   1.668   5.784   6.133
    2PC     H5A 3695   1.678   5.858   6.214
    2PC     H5B 3696   1.759   5.726   6.145
    2PC     H5C 3697   1.581   5.719   6.143
    2PC     O33 3698   1.125   5.999   5.917
    2PC     O34 3699   1.247   5.794   5.892
    2PC     O21 3700   1.404   5.958   5.450
    2PC     C21 3701   1.488   5.922   5.351
    2PC     O22 3702   1.482   5.834   5.268
    3OL     C12 3703   1.611   6.009   5.362
    3OL     H2R 3704   1.664   5.983   5.454
    3OL     H2S 3705   1.589   6.116   5.364
    3OL     C13 3706   1.717   5.991   5.253
    3OL     H3R 3707   1.732   5.885   5.231
    3OL     H3S 3708   1.812   6.038   5.283
    3OL     C14 3709   1.672   6.052   5.120
    3OL     H4R 3710   1.676   6.161   5.134
    3OL     H4S 3711   1.570   6.021   5.099
    3OL     C15 3712   1.780   6.006   5.021
    3OL     H5R 3713   1.758   5.901   4.998
    3OL     H5S 3714   1.881   6.016   5.062
    3OL     C16 3715   1.764   6.074   4.885
    3OL     H6R 3716   1.757   6.182   4.893
    3OL     H6S 3717   1.673   6.029   4.844
    3OL     C17 3718   1.892   6.049   4.803
    3OL     H7R 3719   1.985   6.067   4.856
    3OL     H7S 3720   1.889   6.108   4.711
    3OL     C18 3721   1.912   5.906   4.750
    3OL     H8R 3722   1.822   5.876   4.695
    3OL     H8S 3723   1.920   5.844   4.840
    3OL     C19 3724   2.045   5.892   4.682
    3OL     H9R 3725   2.132   5.930   4.735
    3OL    C110 3726   2.057   5.840   4.560
    3OL    H10R 3727   2.158   5.829   4.521
    3OL    C111 3728   1.946   5.778   4.479
    3OL    H11R 3729   1.863   5.744   4.541
    3OL    H11S 3730   1.977   5.689   4.424
    3OL    C112 3731   1.882   5.873   4.377
    3OL    H12R 3732   1.958   5.931   4.325
    3OL    H12S 3733   1.821   5.946   4.431
    3OL    C113 3734   1.800   5.783   4.284
    3OL    H13R 3735   1.718   5.738   4.340
    3OL    H13S 3736   1.852   5.699   4.238
    3OL    C114 3737   1.742   5.870   4.172
    3OL    H14R 3738   1.822   5.905   4.106
    3OL    H14S 3739   1.689   5.956   4.215
    3OL    C115 3740   1.650   5.789   4.079
    3OL    H15R 3741   1.614   5.854   3.999
    3OL    H15S 3742   1.561   5.759   4.135
    3OL    C116 3743   1.718   5.674   4.003
    3OL    H16R 3744   1.742   5.597   4.076
    3OL    H16S 3745   1.808   5.709   3.950
    3OL    C117 3746   1.634   5.593   3.904
    3OL    H17R 3747   1.702   5.516   3.867
    3OL    H17S 3748   1.616   5.647   3.810
    3OL    C118 3749   1.509   5.540   3.975
    3OL    H18R 3750   1.455   5.469   3.912
    3OL    H18S 3751   1.435   5.615   4.006
    3OL    H18T 3752   1.541   5.489   4.066
    1PA    C116 3753   4.110   1.449   3.963
    1PA    H16R 3754   4.126   1.362   3.899
    1PA    H16S 3755   4.202   1.507   3.968
    1PA    H16T 3756   4.028   1.511   3.926
    1PA    C115 3757   4.072   1.388   4.099
    1PA    H15R 3758   4.023   1.460   4.164
    1PA    H15S 3759   3.985   1.323   4.089
    1PA    C114 3760   4.187   1.326   4.179
    1PA    H14R 3761   4.229   1.240   4.125
    1PA    H14S 3762   4.257   1.404   4.210
    1PA    C113 3763   4.118   1.272   4.305
    1PA    H13R 3764   4.062   1.358   4.343
    1PA    H13S 3765   4.038   1.203   4.276
    1PA    C112 3766   4.213   1.206   4.405
    1PA    H12R 3767   4.253   1.115   4.361
    1PA    H12S 3768   4.294   1.279   4.418
    1PA    C111 3769   4.144   1.158   4.533
    1PA    H11R 3770   4.214   1.126   4.610
    1PA    H11S 3771   4.086   1.242   4.573
    1PA    C110 3772   4.032   1.055   4.515
    1PA    H10R 3773   3.968   1.051   4.604
    1PA    H10S 3774   3.959   1.075   4.437
    1PA     C19 3775   4.099   0.918   4.499
    1PA     H9R 3776   4.011   0.855   4.487
    1PA     H9S 3777   4.160   0.914   4.408
    1PA     C18 3778   4.173   0.861   4.621
    1PA     H8R 3779   4.221   0.766   4.598
    1PA     H8S 3780   4.257   0.927   4.647
    1PA     C17 3781   4.085   0.829   4.743
    1PA     H7R 3782   4.051   0.925   4.782
    1PA     H7S 3783   3.996   0.775   4.710
    1PA     C16 3784   4.158   0.756   4.856
    1PA     H6R 3785   4.089   0.708   4.927
    1PA     H6S 3786   4.229   0.686   4.812
    1PA     C15 3787   4.238   0.858   4.938
    1PA     H5R 3788   4.291   0.929   4.875
    1PA     H5S 3789   4.170   0.913   5.003
    1PA     C14 3790   4.350   0.793   5.021
    1PA     H4R 3791   4.429   0.777   4.947
    1PA     H4S 3792   4.386   0.860   5.100
    1PA     C13 3793   4.335   0.648   5.069
    1PA     H3R 3794   4.241   0.627   5.120
    1PA     H3S 3795   4.346   0.577   4.986
    1PA     C12 3796   4.447   0.612   5.168
    1PA     H2R 3797   4.461   0.504   5.154
    1PA     H2S 3798   4.541   0.660   5.140
    2PC     C11 3799   4.420   0.652   5.311
    2PC     O12 3800   4.465   0.591   5.405
    2PC     O11 3801   4.357   0.770   5.316
    2PC      C1 3802   4.318   0.825   5.444
    2PC      HR 3803   4.286   0.745   5.512
    2PC      HS 3804   4.410   0.865   5.487
    2PC      C2 3805   4.216   0.938   5.430
    2PC      HX 3806   4.261   1.019   5.371
    2PC      C3 3807   4.198   1.003   5.568
    2PC      HA 3808   4.297   1.021   5.613
    2PC      HB 3809   4.146   1.099   5.565
    2PC     O31 3810   4.138   0.910   5.660
    2PC     P31 3811   4.149   0.950   5.815
    2PC     O32 3812   4.041   0.847   5.873
    2PC     C31 3813   4.070   0.778   5.996
    2PC     H1A 3814   4.143   0.705   5.962
    2PC     H1B 3815   4.098   0.847   6.076
    2PC     C32 3816   3.942   0.703   6.038
    2PC     H2A 3817   3.854   0.764   6.054
    2PC     H2B 3818   3.922   0.630   5.959
    2PC     N31 3819   3.947   0.606   6.152
    2PC     C33 3820   3.804   0.573   6.183
    2PC     H3A 3821   3.810   0.498   6.262
    2PC     H3B 3822   3.742   0.660   6.203
    2PC     H3C 3823   3.767   0.520   6.095
    2PC     C34 3824   4.018   0.478   6.120
    2PC     H4A 3825   4.007   0.415   6.209
    2PC     H4B 3826   3.964   0.440   6.034
    2PC     H4C 3827   4.124   0.488   6.097
    2PC     C35 3828   3.997   0.666   6.280
    2PC     H5A 3829   3.939   0.758   6.293
    2PC     H5B 3830   4.101   0.690   6.259
    2PC     H5C 3831   3.985   0.599   6.366
    2PC     O33 3832   4.282   0.938   5.880
    2PC     O34 3833   4.112   1.090   5.845
    2PC     O21 3834   4.093   0.894   5.371
    2PC     C21 3835   3.999   0.984   5.340
    2PC     O22 3836   4.015   1.101   5.367
    3OL     C12 3837   3.881   0.932   5.262
    3OL     H2R 3838   3.798   0.949   5.331
    3OL     H2S 3839   3.887   0.823   5.257
    3OL     C13 3840   3.877   1.000   5.125
    3OL     H3R 3841   3.811   0.943   5.058
    3OL     H3S 3842   3.975   0.989   5.078
    3OL     C14 3843   3.827   1.145   5.113
    3OL     H4R 3844   3.899   1.200   5.174
    3OL     H4S 3845   3.729   1.155   5.160
    3OL     C15 3846   3.812   1.189   4.967
    3OL     H5R 3847   3.768   1.289   4.964
    3OL     H5S 3848   3.738   1.121   4.926
    3OL     C16 3849   3.939   1.183   4.881
    3OL     H6R 3850   3.896   1.216   4.786
    3OL     H6S 3851   3.986   1.084   4.884
    3OL     C17 3852   4.038   1.292   4.924
    3OL     H7R 3853   4.138   1.254   4.904
    3OL     H7S 3854   4.035   1.316   5.030
    3OL     C18 3855   4.010   1.425   4.853
    3OL     H8R 3856   3.904   1.446   4.865
    3OL     H8S 3857   4.032   1.419   4.746
    3OL     C19 3858   4.106   1.530   4.904
    3OL     H9R 3859   4.089   1.558   5.008
    3OL    C110 3860   4.208   1.587   4.842
    3OL    H10R 3861   4.261   1.664   4.897
    3OL    C111 3862   4.256   1.559   4.702
    3OL    H11R 3863   4.212   1.474   4.650
    3OL    H11S 3864   4.363   1.537   4.705
    3OL    C112 3865   4.236   1.683   4.613
    3OL    H12R 3866   4.309   1.672   4.532
    3OL    H12S 3867   4.260   1.778   4.661
    3OL    C113 3868   4.094   1.698   4.558
    3OL    H13R 3869   4.018   1.745   4.621
    3OL    H13S 3870   4.048   1.599   4.548
    3OL    C114 3871   4.106   1.767   4.422
    3OL    H14R 3872   4.151   1.698   4.349
    3OL    H14S 3873   4.178   1.849   4.417
    3OL    C115 3874   3.970   1.822   4.379
    3OL    H15R 3875   3.946   1.908   4.442
    3OL    H15S 3876   3.904   1.738   4.401
    3OL    C116 3877   3.953   1.861   4.231
    3OL    H16R 3878   4.023   1.943   4.214
    3OL    H16S 3879   3.848   1.883   4.211
    3OL    C117 3880   3.994   1.756   4.127
    3OL    H17R 3881   3.933   1.666   4.138
    3OL    H17S 3882   4.099   1.726   4.138
    3OL    C118 3883   3.962   1.797   3.983
    3OL    H18R 3884   3.962   1.906   3.971
    3OL    H18S 3885   3.858   1.768   3.972
    3OL    H18T 3886   4.035   1.746   3.919
    1PA    C116 3887   1.470   2.815   4.133
    1PA    H16R 3888   1.386   2.885   4.122
    1PA    H16S 3889   1.493   2.762   4.040
    1PA    H16T 3890   1.555   2.878   4.159
    1PA    C115 3891   1.432   2.712   4.240
    1PA    H15R 3892   1.508   2.634   4.243
    1PA    H15S 3893   1.437   2.757   4.340
    1PA    C114 3894   1.301   2.637   4.213
    1PA    H14R 3895   1.207   2.689   4.235
    1PA    H14S 3896   1.301   2.607   4.108
    1PA    C113 3897   1.286   2.517   4.306
    1PA    H13R 3898   1.186   2.482   4.282
    1PA    H13S 3899   1.344   2.430   4.272
    1PA    C112 3900   1.308   2.543   4.456
    1PA    H12R 3901   1.414   2.546   4.483
    1PA    H12S 3902   1.261   2.639   4.474
    1PA    C111 3903   1.222   2.443   4.534
    1PA    H11R 3904   1.120   2.443   4.494
    1PA    H11S 3905   1.264   2.342   4.528
    1PA    C110 3906   1.212   2.477   4.683
    1PA    H10R 3907   1.308   2.445   4.723
    1PA    H10S 3908   1.192   2.584   4.698
    1PA     C19 3909   1.104   2.397   4.758
    1PA     H9R 3910   1.009   2.446   4.740
    1PA     H9S 3911   1.095   2.298   4.713
    1PA     C18 3912   1.136   2.384   4.907
    1PA     H8R 3913   1.188   2.471   4.949
    1PA     H8S 3914   1.042   2.378   4.962
    1PA     C17 3915   1.216   2.257   4.939
    1PA     H7R 3916   1.153   2.170   4.918
    1PA     H7S 3917   1.302   2.245   4.873
    1PA     C16 3918   1.258   2.246   5.086
    1PA     H6R 3919   1.173   2.251   5.154
    1PA     H6S 3920   1.321   2.157   5.085
    1PA     C15 3921   1.351   2.355   5.141
    1PA     H5R 3922   1.451   2.350   5.098
    1PA     H5S 3923   1.307   2.454   5.127
    1PA     C14 3924   1.385   2.349   5.290
    1PA     H4R 3925   1.399   2.249   5.331
    1PA     H4S 3926   1.483   2.390   5.314
    1PA     C13 3927   1.270   2.415   5.368
    1PA     H3R 3928   1.252   2.517   5.334
    1PA     H3S 3929   1.178   2.356   5.361
    1PA     C12 3930   1.289   2.417   5.520
    1PA     H2R 3931   1.275   2.319   5.567
    1PA     H2S 3932   1.394   2.436   5.545
    2PC     C11 3933   1.212   2.520   5.598
    2PC     O12 3934   1.278   2.603   5.657
    2PC     O11 3935   1.077   2.520   5.601
    2PC      C1 3936   1.009   2.621   5.677
    2PC      HR 3937   0.903   2.595   5.684
    2PC      HS 3938   1.043   2.620   5.781
    2PC      C2 3939   1.032   2.758   5.611
    2PC      HX 3940   1.130   2.799   5.634
    2PC      C3 3941   0.944   2.865   5.677
    2PC      HA 3942   0.981   2.959   5.634
    2PC      HB 3943   0.841   2.835   5.657
    2PC     O31 3944   0.983   2.866   5.816
    2PC     P31 3945   0.909   2.967   5.916
    2PC     O32 3946   0.783   2.881   5.965
    2PC     C31 3947   0.710   2.941   6.073
    2PC     H1A 3948   0.778   2.969   6.153
    2PC     H1B 3949   0.662   3.033   6.037
    2PC     C32 3950   0.609   2.832   6.114
    2PC     H2A 3951   0.567   2.795   6.020
    2PC     H2B 3952   0.666   2.754   6.165
    2PC     N31 3953   0.487   2.866   6.193
    2PC     C33 3954   0.526   2.917   6.329
    2PC     H3A 3955   0.602   2.847   6.365
    2PC     H3B 3956   0.558   3.019   6.305
    2PC     H3C 3957   0.439   2.920   6.394
    2PC     C34 3958   0.401   2.969   6.127
    2PC     H4A 3959   0.314   2.980   6.192
    2PC     H4B 3960   0.456   3.062   6.117
    2PC     H4C 3961   0.360   2.923   6.037
    2PC     C35 3962   0.391   2.753   6.215
    2PC     H5A 3963   0.433   2.673   6.275
    2PC     H5B 3964   0.357   2.710   6.120
    2PC     H5C 3965   0.309   2.797   6.272
    2PC     O33 3966   1.006   2.996   6.025
    2PC     O34 3967   0.876   3.096   5.852
    2PC     O21 3968   1.026   2.743   5.468
    2PC     C21 3969   0.911   2.695   5.417
    2PC     O22 3970   0.805   2.672   5.472
    3OL     C12 3971   0.919   2.673   5.268
    3OL     H2R 3972   0.970   2.581   5.240
    3OL     H2S 3973   0.988   2.751   5.234
    3OL     C13 3974   0.775   2.674   5.214
    3OL     H3R 3975   0.719   2.762   5.246
    3OL     H3S 3976   0.718   2.589   5.252
    3OL     C14 3977   0.767   2.658   5.062
    3OL     H4R 3978   0.672   2.616   5.028
    3OL     H4S 3979   0.830   2.576   5.027
    3OL     C15 3980   0.778   2.790   4.985
    3OL     H5R 3981   0.883   2.821   4.992
    3OL     H5S 3982   0.723   2.873   5.029
    3OL     C16 3983   0.734   2.784   4.838
    3OL     H6R 3984   0.724   2.887   4.801
    3OL     H6S 3985   0.632   2.746   4.830
    3OL     C17 3986   0.837   2.701   4.761
    3OL     H7R 3987   0.845   2.599   4.799
    3OL     H7S 3988   0.932   2.752   4.778
    3OL     C18 3989   0.799   2.694   4.613
    3OL     H8R 3990   0.752   2.787   4.580
    3OL     H8S 3991   0.725   2.615   4.600
    3OL     C19 3992   0.919   2.645   4.536
    3OL     H9R 3993   0.998   2.588   4.585
    3OL    C110 3994   0.943   2.661   4.407
    3OL    H10R 3995   1.039   2.619   4.378
    3OL    C111 3996   0.865   2.739   4.304
    3OL    H11R 3997   0.924   2.821   4.263
    3OL    H11S 3998   0.777   2.769   4.360
    3OL    C112 3999   0.823   2.650   4.187
    3OL    H12R 4000   0.745   2.705   4.133
    3OL    H12S 4001   0.770   2.558   4.209
    3OL    C113 4002   0.949   2.640   4.100
    3OL    H13R 4003   1.027   2.595   4.161
    3OL    H13S 4004   0.988   2.740   4.080
    3OL    C114 4005   0.928   2.564   3.968
    3OL    H14R 4006   0.844   2.615   3.920
    3OL    H14S 4007   0.903   2.461   3.994
    3OL    C115 4008   1.062   2.557   3.895
    3OL    H15R 4009   1.119   2.475   3.940
    3OL    H15S 4010   1.111   2.654   3.885
    3OL    C116 4011   1.040   2.513   3.749
    3OL    H16R 4012   0.993   2.588   3.685
    3OL    H16S 4013   0.966   2.433   3.758
    3OL    C117 4014   1.157   2.440   3.681
    3OL    H17R 4015   1.130   2.407   3.580
    3OL    H17S 4016   1.186   2.356   3.744
    3OL    C118 4017   1.281   2.527   3.657
    3OL    H18R 4018   1.331   2.547   3.753
    3OL    H18S 4019   1.260   2.621   3.607
    3OL    H18T 4020   1.360   2.472   3.605
    1PA    C116 4021   2.883   5.193   3.776
    1PA    H16R 4022   2.845   5.187   3.878
    1PA    H16S 4023   2.850   5.102   3.725
    1PA    H16T 4024   2.837   5.276   3.723
    1PA    C115 4025   3.036   5.203   3.787
    1PA    H15R 4026   3.079   5.126   3.852
    1PA    H15S 4027   3.081   5.180   3.690
    1PA    C114 4028   3.074   5.345   3.829
    1PA    H14R 4029   3.039   5.412   3.749
    1PA    H14S 4030   3.035   5.379   3.925
    1PA    C113 4031   3.227   5.351   3.831
    1PA    H13R 4032   3.273   5.272   3.891
    1PA    H13S 4033   3.274   5.338   3.733
    1PA    C112 4034   3.270   5.489   3.884
    1PA    H12R 4035   3.238   5.561   3.809
    1PA    H12S 4036   3.218   5.521   3.974
    1PA    C111 4037   3.420   5.506   3.910
    1PA    H11R 4038   3.455   5.416   3.961
    1PA    H11S 4039   3.470   5.509   3.813
    1PA    C110 4040   3.471   5.632   3.983
    1PA    H10R 4041   3.579   5.622   3.991
    1PA    H10S 4042   3.449   5.725   3.931
    1PA     C19 4043   3.428   5.644   4.130
    1PA     H9R 4044   3.463   5.741   4.165
    1PA     H9S 4045   3.318   5.647   4.126
    1PA     C18 4046   3.488   5.540   4.226
    1PA     H8R 4047   3.469   5.438   4.190
    1PA     H8S 4048   3.596   5.542   4.242
    1PA     C17 4049   3.417   5.556   4.361
    1PA     H7R 4050   3.314   5.523   4.346
    1PA     H7S 4051   3.454   5.477   4.426
    1PA     C16 4052   3.418   5.688   4.439
    1PA     H6R 4053   3.521   5.706   4.470
    1PA     H6S 4054   3.399   5.767   4.365
    1PA     C15 4055   3.311   5.686   4.549
    1PA     H5R 4056   3.232   5.619   4.516
    1PA     H5S 4057   3.351   5.650   4.644
    1PA     C14 4058   3.253   5.826   4.571
    1PA     H4R 4059   3.193   5.857   4.485
    1PA     H4S 4060   3.188   5.830   4.659
    1PA     C13 4061   3.358   5.936   4.590
    1PA     H3R 4062   3.455   5.897   4.622
    1PA     H3S 4063   3.376   5.972   4.489
    1PA     C12 4064   3.323   6.049   4.688
    1PA     H2R 4065   3.397   6.129   4.691
    1PA     H2S 4066   3.225   6.094   4.672
    2PC     C11 4067   3.310   6.003   4.831
    2PC     O12 4068   3.359   5.905   4.883
    2PC     O11 4069   3.224   6.084   4.894
    2PC      C1 4070   3.174   6.059   5.027
    2PC      HR 4071   3.106   5.974   5.022
    2PC      HS 4072   3.257   6.039   5.096
    2PC      C2 4073   3.092   6.172   5.091
    2PC      HX 4074   3.161   6.257   5.096
    2PC      C3 4075   3.041   6.141   5.232
    2PC      HA 4076   3.122   6.136   5.305
    2PC      HB 4077   2.969   6.217   5.265
    2PC     O31 4078   2.958   6.023   5.231
    2PC     P31 4079   2.884   5.978   5.366
    2PC     O32 4080   2.783   5.868   5.308
    2PC     C31 4081   2.667   5.908   5.234
    2PC     H1A 4082   2.627   5.999   5.280
    2PC     H1B 4083   2.692   5.922   5.128
    2PC     C32 4084   2.555   5.809   5.271
    2PC     H2A 4085   2.552   5.800   5.379
    2PC     H2B 4086   2.466   5.859   5.233
    2PC     N31 4087   2.559   5.666   5.226
    2PC     C33 4088   2.681   5.608   5.290
    2PC     H3A 4089   2.660   5.586   5.395
    2PC     H3B 4090   2.700   5.517   5.232
    2PC     H3C 4091   2.762   5.679   5.276
    2PC     C34 4092   2.439   5.588   5.271
    2PC     H4A 4093   2.445   5.484   5.239
    2PC     H4B 4094   2.445   5.601   5.379
    2PC     H4C 4095   2.343   5.632   5.242
    2PC     C35 4096   2.576   5.659   5.077
    2PC     H5A 4097   2.572   5.556   5.041
    2PC     H5B 4098   2.681   5.684   5.065
    2PC     H5C 4099   2.515   5.725   5.015
    2PC     O33 4100   2.978   5.908   5.457
    2PC     O34 4101   2.801   6.085   5.425
    2PC     O21 4102   2.978   6.207   5.011
    2PC     C21 4103   2.911   6.318   5.045
    2PC     O22 4104   2.945   6.404   5.124
    3OL     C12 4105   2.787   6.333   4.961
    3OL     H2R 4106   2.709   6.391   5.010
    3OL     H2S 4107   2.753   6.230   4.949
    3OL     C13 4108   2.823   6.417   4.837
    3OL     H3R 4109   2.891   0.009   4.871
    3OL     H3S 4110   2.738   6.466   4.789
    3OL     C14 4111   2.891   6.328   4.732
    3OL     H4R 4112   2.834   6.239   4.702
    3OL     H4S 4113   2.988   6.291   4.765
    3OL     C15 4114   2.911   6.404   4.600
    3OL     H5R 4115   2.980   0.003   4.606
    3OL     H5S 4116   2.814   6.441   4.565
    3OL     C16 4117   2.957   6.292   4.506
    3OL     H6R 4118   2.876   6.225   4.477
    3OL     H6S 4119   3.029   6.231   4.560
    3OL     C17 4120   3.014   6.353   4.377
    3OL     H7R 4121   2.954   6.437   4.341
    3OL     H7S 4122   3.013   6.274   4.301
    3OL     C18 4123   3.161   6.392   4.400
    3OL     H8R 4124   3.219   6.309   4.441
    3OL     H8S 4125   3.158   6.471   4.476
    3OL     C19 4126   3.229   6.448   4.278
    3OL     H9R 4127   3.161   0.020   4.215
    3OL    C110 4128   3.359   6.449   4.253
    3OL    H10R 4129   3.395   0.022   4.169
    3OL    C111 4130   3.474   6.402   4.338
    3OL    H11R 4131   3.441   6.352   4.429
    3OL    H11S 4132   3.519   0.008   4.376
    3OL    C112 4133   3.572   6.312   4.262
    3OL    H12R 4134   3.595   6.356   4.164
    3OL    H12S 4135   3.513   6.222   4.240
    3OL    C113 4136   3.708   6.287   4.328
    3OL    H13R 4137   3.692   6.241   4.426
    3OL    H13S 4138   3.769   6.376   4.343
    3OL    C114 4139   3.789   6.193   4.237
    3OL    H14R 4140   3.808   6.245   4.143
    3OL    H14S 4141   3.729   6.104   4.220
    3OL    C115 4142   3.926   6.152   4.294
    3OL    H15R 4143   3.938   6.226   4.373
    3OL    H15S 4144   4.005   6.164   4.219
    3OL    C116 4145   3.940   6.007   4.342
    3OL    H16R 4146   4.042   5.976   4.364
    3OL    H16S 4147   3.907   5.952   4.253
    3OL    C117 4148   3.864   5.989   4.474
    3OL    H17R 4149   3.858   6.078   4.537
    3OL    H17S 4150   3.921   5.918   4.534
    3OL    C118 4151   3.722   5.932   4.460
    3OL    H18R 4152   3.653   5.972   4.386
    3OL    H18S 4153   3.668   5.926   4.555
    3OL    H18T 4154   3.709   5.832   4.417
    1PA    C116 4155   4.655   3.770   3.944
    1PA    H16R 4156   4.606   3.808   4.034
    1PA    H16S 4157   4.599   3.686   3.903
    1PA    H16T 4158   4.657   3.850   3.869
    1PA    C115 4159   4.795   3.715   3.974
    1PA    H15R 4160   4.804   3.614   3.934
    1PA    H15S 4161   4.859   3.767   3.902
    1PA    C114 4162   4.834   3.715   4.122
    1PA    H14R 4163   4.792   3.808   4.161
    1PA    H14S 4164   4.781   3.639   4.178
    1PA    C113 4165   4.985   3.700   4.150
    1PA    H13R 4166   5.042   3.730   4.062
    1PA    H13S 4167   5.009   3.768   4.233
    1PA    C112 4168   5.023   3.556   4.187
    1PA    H12R 4169   4.963   3.487   4.128
    1PA    H12S 4170   5.126   3.522   4.172
    1PA    C111 4171   4.995   3.537   4.337
    1PA    H11R 4172   5.035   3.624   4.389
    1PA    H11S 4173   4.889   3.527   4.362
    1PA    C110 4174   5.055   3.408   4.393
    1PA    H10R 4175   5.007   3.382   4.488
    1PA    H10S 4176   5.026   3.322   4.333
    1PA     C19 4177   5.207   3.412   4.418
    1PA     H9R 4178   5.256   3.374   4.328
    1PA     H9S 4179   5.254   3.509   4.437
    1PA     C18 4180   5.253   3.319   4.530
    1PA     H8R 4181   5.180   3.238   4.523
    1PA     H8S 4182   5.356   3.290   4.505
    1PA     C17 4183   5.239   3.377   4.672
    1PA     H7R 4184   5.285   3.475   4.682
    1PA     H7S 4185   5.133   3.387   4.696
    1PA     C16 4186   5.295   3.268   4.765
    1PA     H6R 4187   5.282   3.168   4.724
    1PA     H6S 4188   5.403   3.283   4.760
    1PA     C15 4189   5.248   3.294   4.909
    1PA     H5R 4190   5.272   3.398   4.933
    1PA     H5S 4191   5.139   3.287   4.907
    1PA     C14 4192   5.313   3.194   5.005
    1PA     H4R 4193   5.274   3.093   4.988
    1PA     H4S 4194   5.417   3.202   4.975
    1PA     C13 4195   5.300   3.234   5.153
    1PA     H3R 4196   5.356   3.161   5.212
    1PA     H3S 4197   5.333   3.338   5.165
    1PA     C12 4198   5.153   3.228   5.194
    1PA     H2R 4199   5.085   3.281   5.127
    1PA     H2S 4200   5.114   3.126   5.197
    2PC     C11 4201   5.133   3.283   5.334
    2PC     O12 4202   5.223   3.292   5.415
    2PC     O11 4203   5.004   3.304   5.366
    2PC      C1 4204   4.975   3.331   5.504
    2PC      HR 4205   4.874   3.296   5.527
    2PC      HS 4206   5.047   3.267   5.555
    2PC      C2 4207   5.014   3.477   5.529
    2PC      HX 4208   5.118   3.495   5.502
    2PC      C3 4209   5.001   3.506   5.679
    2PC      HA 4210   5.081   3.443   5.719
    2PC      HB 4211   5.012   3.610   5.710
    2PC     O31 4212   4.866   3.467   5.709
    2PC     P31 4213   4.824   3.477   5.864
    2PC     O32 4214   4.685   3.555   5.859
    2PC     C31 4215   4.678   3.677   5.783
    2PC     H1A 4216   4.720   3.667   5.683
    2PC     H1B 4217   4.573   3.704   5.763
    2PC     C32 4218   4.746   3.801   5.843
    2PC     H2A 4219   4.845   3.767   5.873
    2PC     H2B 4220   4.756   3.876   5.764
    2PC     N31 4221   4.678   3.873   5.956
    2PC     C33 4222   4.771   3.986   5.988
    2PC     H3A 4223   4.726   4.046   6.067
    2PC     H3B 4224   4.870   3.943   6.005
    2PC     H3C 4225   4.766   4.046   5.897
    2PC     C34 4226   4.544   3.931   5.921
    2PC     H4A 4227   4.557   3.986   5.827
    2PC     H4B 4228   4.480   3.844   5.910
    2PC     H4C 4229   4.511   4.002   5.997
    2PC     C35 4230   4.663   3.797   6.084
    2PC     H5A 4231   4.762   3.759   6.107
    2PC     H5B 4232   4.601   3.708   6.072
    2PC     H5C 4233   4.628   3.870   6.158
    2PC     O33 4234   4.814   3.347   5.934
    2PC     O34 4235   4.924   3.541   5.952
    2PC     O21 4236   4.922   3.564   5.460
    2PC     C21 4237   4.944   3.694   5.436
    2PC     O22 4238   5.025   3.760   5.498
    3OL     C12 4239   4.893   3.745   5.304
    3OL     H2R 4240   4.853   3.654   5.257
    3OL     H2S 4241   4.982   3.783   5.253
    3OL     C13 4242   4.786   3.854   5.311
    3OL     H3R 4243   4.838   3.937   5.359
    3OL     H3S 4244   4.703   3.824   5.375
    3OL     C14 4245   4.747   3.903   5.170
    3OL     H4R 4246   4.832   3.922   5.105
    3OL     H4S 4247   4.700   4.002   5.172
    3OL     C15 4248   4.646   3.808   5.105
    3OL     H5R 4249   4.668   3.703   5.125
    3OL     H5S 4250   4.647   3.826   4.997
    3OL     C16 4251   4.502   3.826   5.153
    3OL     H6R 4252   4.471   3.923   5.112
    3OL     H6S 4253   4.502   3.833   5.262
    3OL     C17 4254   4.406   3.715   5.107
    3OL     H7R 4255   4.447   3.618   5.135
    3OL     H7S 4256   4.405   3.727   4.998
    3OL     C18 4257   4.263   3.727   5.160
    3OL     H8R 4258   4.211   3.813   5.117
    3OL     H8S 4259   4.264   3.748   5.267
    3OL     C19 4260   4.191   3.598   5.129
    3OL     H9R 4261   4.198   3.533   5.216
    3OL    C110 4262   4.109   3.583   5.027
    3OL    H10R 4263   4.045   3.495   5.027
    3OL    C111 4264   4.121   3.657   4.896
    3OL    H11R 4265   4.223   3.676   4.860
    3OL    H11S 4266   4.073   3.754   4.911
    3OL    C112 4267   4.049   3.578   4.786
    3OL    H12R 4268   4.039   3.639   4.695
    3OL    H12S 4269   3.948   3.565   4.824
    3OL    C113 4270   4.127   3.451   4.747
    3OL    H13R 4271   4.122   3.373   4.823
    3OL    H13S 4272   4.227   3.486   4.721
    3OL    C114 4273   4.084   3.395   4.611
    3OL    H14R 4274   4.149   3.308   4.600
    3OL    H14S 4275   4.091   3.461   4.525
    3OL    C115 4276   3.948   3.325   4.621
    3OL    H15R 4277   3.872   3.402   4.638
    3OL    H15S 4278   3.937   3.263   4.711
    3OL    C116 4279   3.921   3.242   4.495
    3OL    H16R 4280   3.817   3.210   4.491
    3OL    H16S 4281   3.989   3.157   4.491
    3OL    C117 4282   3.942   3.330   4.371
    3OL    H17R 4283   3.920   3.270   4.283
    3OL    H17S 4284   4.045   3.361   4.349
    3OL    C118 4285   3.861   3.460   4.361
    3OL    H18R 4286   3.760   3.430   4.389
    3OL    H18S 4287   3.860   3.504   4.261
    3OL    H18T 4288   3.903   3.536   4.427
    1PA    C116 4289   3.045   3.290   3.403
    1PA    H16R 4290   3.071   3.326   3.503
    1PA    H16S 4291   3.042   3.379   3.341
    1PA    H16T 4292   3.137   3.234   3.384
    1PA    C115 4293   2.912   3.213   3.397
    1PA    H15R 4294   2.824   3.275   3.416
    1PA    H15S 4295   2.898   3.163   3.301
    1PA    C114 4296   2.906   3.098   3.498
    1PA    H14R 4297   2.814   3.040   3.490
    1PA    H14S 4298   2.984   3.023   3.485
    1PA    C113 4299   2.901   3.141   3.646
    1PA    H13R 4300   2.979   3.210   3.678
    1PA    H13S 4301   2.806   3.185   3.676
    1PA    C112 4302   2.926   3.024   3.742
    1PA    H12R 4303   2.846   2.951   3.730
    1PA    H12S 4304   3.021   2.975   3.721
    1PA    C111 4305   2.912   3.078   3.885
    1PA    H11R 4306   2.967   3.172   3.899
    1PA    H11S 4307   2.805   3.084   3.906
    1PA    C110 4308   2.979   2.985   3.987
    1PA    H10R 4309   2.952   2.882   3.964
    1PA    H10S 4310   3.087   2.988   3.971
    1PA     C19 4311   2.950   3.029   4.131
    1PA     H9R 4312   2.974   3.135   4.143
    1PA     H9S 4313   2.843   3.031   4.153
    1PA     C18 4314   3.029   2.934   4.222
    1PA     H8R 4315   2.999   2.832   4.199
    1PA     H8S 4316   3.134   2.944   4.196
    1PA     C17 4317   3.017   2.968   4.372
    1PA     H7R 4318   3.083   2.892   4.415
    1PA     H7S 4319   3.061   3.065   4.396
    1PA     C16 4320   2.880   2.954   4.438
    1PA     H6R 4321   2.811   3.001   4.367
    1PA     H6S 4322   2.851   2.852   4.462
    1PA     C15 4323   2.882   3.025   4.574
    1PA     H5R 4324   2.980   3.010   4.621
    1PA     H5S 4325   2.864   3.132   4.559
    1PA     C14 4326   2.783   2.964   4.674
    1PA     H4R 4327   2.683   2.949   4.631
    1PA     H4S 4328   2.815   2.861   4.693
    1PA     C13 4329   2.767   3.041   4.805
    1PA     H3R 4330   2.751   3.148   4.793
    1PA     H3S 4331   2.672   2.998   4.837
    1PA     C12 4332   2.877   3.007   4.906
    1PA     H2R 4333   2.903   2.903   4.928
    1PA     H2S 4334   2.971   3.040   4.861
    2PC     C11 4335   2.843   3.074   5.037
    2PC     O12 4336   2.768   3.168   5.054
    2PC     O11 4337   2.904   3.005   5.134
    2PC      C1 4338   2.876   3.033   5.273
    2PC      HR 4339   2.949   2.966   5.318
    2PC      HS 4340   2.899   3.133   5.309
    2PC      C2 4341   2.732   2.999   5.315
    2PC      HX 4342   2.663   3.045   5.245
    2PC      C3 4343   2.696   3.029   5.461
    2PC      HA 4344   2.694   3.137   5.475
    2PC      HB 4345   2.600   2.983   5.488
    2PC     O31 4346   2.798   2.973   5.545
    2PC     P31 4347   2.808   3.023   5.697
    2PC     O32 4348   2.687   2.937   5.758
    2PC     C31 4349   2.665   2.938   5.900
    2PC     H1A 4350   2.759   2.905   5.946
    2PC     H1B 4351   2.650   3.043   5.928
    2PC     C32 4352   2.549   2.840   5.923
    2PC     H2A 4353   2.464   2.887   5.873
    2PC     H2B 4354   2.561   2.749   5.865
    2PC     N31 4355   2.511   2.808   6.065
    2PC     C33 4356   2.385   2.727   6.067
    2PC     H3A 4357   2.300   2.791   6.040
    2PC     H3B 4358   2.405   2.642   6.001
    2PC     H3C 4359   2.377   2.689   6.169
    2PC     C34 4360   2.614   2.710   6.113
    2PC     H4A 4361   2.707   2.756   6.147
    2PC     H4B 4362   2.570   2.652   6.194
    2PC     H4C 4363   2.631   2.644   6.028
    2PC     C35 4364   2.495   2.930   6.150
    2PC     H5A 4365   2.584   2.992   6.138
    2PC     H5B 4366   2.462   2.906   6.252
    2PC     H5C 4367   2.416   2.994   6.110
    2PC     O33 4368   2.936   2.993   5.765
    2PC     O34 4369   2.781   3.167   5.718
    2PC     O21 4370   2.722   2.857   5.295
    2PC     C21 4371   2.603   2.796   5.290
    2PC     O22 4372   2.502   2.864   5.293
    3OL     C12 4373   2.600   2.650   5.250
    3OL     H2R 4374   2.605   2.592   5.342
    3OL     H2S 4375   2.687   2.627   5.187
    3OL     C13 4376   2.475   2.621   5.167
    3OL     H3R 4377   2.477   2.675   5.071
    3OL     H3S 4378   2.382   2.638   5.222
    3OL     C14 4379   2.460   2.472   5.133
    3OL     H4R 4380   2.449   2.419   5.227
    3OL     H4S 4381   2.544   2.438   5.072
    3OL     C15 4382   2.330   2.443   5.057
    3OL     H5R 4383   2.347   2.468   4.952
    3OL     H5S 4384   2.247   2.507   5.087
    3OL     C16 4385   2.293   2.293   5.057
    3OL     H6R 4386   2.264   2.263   5.158
    3OL     H6S 4387   2.379   2.236   5.024
    3OL     C17 4388   2.177   2.276   4.959
    3OL     H7R 4389   2.108   2.360   4.965
    3OL     H7S 4390   2.129   2.188   5.002
    3OL     C18 4391   2.215   2.251   4.812
    3OL     H8R 4392   2.293   2.175   4.814
    3OL     H8S 4393   2.256   2.344   4.771
    3OL     C19 4394   2.094   2.206   4.734
    3OL     H9R 4395   2.000   2.250   4.766
    3OL    C110 4396   2.083   2.109   4.644
    3OL    H10R 4397   1.983   2.086   4.607
    3OL    C111 4398   2.201   2.029   4.595
    3OL    H11R 4399   2.165   1.937   4.549
    3OL    H11S 4400   2.253   1.995   4.685
    3OL    C112 4401   2.295   2.107   4.502
    3OL    H12R 4402   2.343   2.190   4.554
    3OL    H12S 4403   2.240   2.151   4.418
    3OL    C113 4404   2.406   2.016   4.448
    3OL    H13R 4405   2.358   1.956   4.370
    3OL    H13S 4406   2.457   1.951   4.519
    3OL    C114 4407   2.510   2.104   4.377
    3OL    H14R 4408   2.596   2.040   4.354
    3OL    H14S 4409   2.533   2.179   4.453
    3OL    C115 4410   2.466   2.163   4.243
    3OL    H15R 4411   2.366   2.206   4.256
    3OL    H15S 4412   2.456   2.087   4.165
    3OL    C116 4413   2.558   2.273   4.188
    3OL    H16R 4414   2.637   2.286   4.262
    3OL    H16S 4415   2.501   2.366   4.174
    3OL    C117 4416   2.626   2.234   4.056
    3OL    H17R 4417   2.674   2.318   4.006
    3OL    H17S 4418   2.550   2.197   3.986
    3OL    C118 4419   2.723   2.116   4.069
    3OL    H18R 4420   2.754   2.084   3.969
    3OL    H18S 4421   2.677   2.038   4.129
    3OL    H18T 4422   2.820   2.139   4.115
    1PA    C116 4423   3.786   3.223   3.806
    1PA    H16R 4424   3.725   3.278   3.733
    1PA    H16S 4425   3.732   3.147   3.862
    1PA    H16T 4426   3.873   3.186   3.752
    1PA    C115 4427   3.836   3.325   3.909
    1PA    H15R 4428   3.895   3.274   3.985
    1PA    H15S 4429   3.896   3.398   3.852
    1PA    C114 4430   3.712   3.396   3.963
    1PA    H14R 4431   3.638   3.325   4.001
    1PA    H14S 4432   3.751   3.440   4.055
    1PA    C113 4433   3.650   3.503   3.872
    1PA    H13R 4434   3.738   3.552   3.829
    1PA    H13S 4435   3.581   3.473   3.793
    1PA    C112 4436   3.573   3.605   3.958
    1PA    H12R 4437   3.491   3.560   4.015
    1PA    H12S 4438   3.646   3.656   4.021
    1PA    C111 4439   3.488   3.701   3.874
    1PA    H11R 4440   3.558   3.761   3.815
    1PA    H11S 4441   3.422   3.642   3.811
    1PA    C110 4442   3.413   3.798   3.966
    1PA    H10R 4443   3.348   3.747   4.037
    1PA    H10S 4444   3.491   3.854   4.016
    1PA     C19 4445   3.322   3.893   3.887
    1PA     H9R 4446   3.378   3.957   3.817
    1PA     H9S 4447   3.243   3.838   3.835
    1PA     C18 4448   3.238   3.978   3.983
    1PA     H8R 4449   3.148   4.013   3.932
    1PA     H8S 4450   3.203   3.912   4.062
    1PA     C17 4451   3.318   4.100   4.034
    1PA     H7R 4452   3.413   4.061   4.069
    1PA     H7S 4453   3.336   4.173   3.955
    1PA     C16 4454   3.235   4.159   4.149
    1PA     H6R 4455   3.140   4.185   4.101
    1PA     H6S 4456   3.217   4.082   4.224
    1PA     C15 4457   3.298   4.283   4.214
    1PA     H5R 4458   3.322   4.358   4.138
    1PA     H5S 4459   3.236   4.338   4.283
    1PA     C14 4460   3.427   4.236   4.284
    1PA     H4R 4461   3.425   4.136   4.326
    1PA     H4S 4462   3.499   4.228   4.202
    1PA     C13 4463   3.482   4.340   4.382
    1PA     H3R 4464   3.591   4.327   4.375
    1PA     H3S 4465   3.450   4.439   4.349
    1PA     C12 4466   3.422   4.318   4.522
    1PA     H2R 4467   3.318   4.351   4.525
    1PA     H2S 4468   3.436   4.214   4.553
    2PC     C11 4469   3.493   4.402   4.625
    2PC     O12 4470   3.445   4.456   4.723
    2PC     O11 4471   3.625   4.401   4.605
    2PC      C1 4472   3.699   4.493   4.688
    2PC      HR 4473   3.799   4.510   4.645
    2PC      HS 4474   3.648   4.589   4.687
    2PC      C2 4475   3.714   4.460   4.837
    2PC      HX 4476   3.618   4.458   4.888
    2PC      C3 4477   3.793   4.573   4.905
    2PC      HA 4478   3.902   4.573   4.894
    2PC      HB 4479   3.758   4.671   4.871
    2PC     O31 4480   3.776   4.560   5.047
    2PC     P31 4481   3.670   4.641   5.137
    2PC     O32 4482   3.620   4.538   5.249
    2PC     C31 4483   3.549   4.591   5.362
    2PC     H1A 4484   3.619   4.651   5.419
    2PC     H1B 4485   3.461   4.650   5.336
    2PC     C32 4486   3.495   4.471   5.442
    2PC     H2A 4487   3.572   4.396   5.460
    2PC     H2B 4488   3.455   4.507   5.537
    2PC     N31 4489   3.377   4.402   5.381
    2PC     C33 4490   3.324   4.307   5.484
    2PC     H3A 4491   3.275   4.224   5.435
    2PC     H3B 4492   3.397   4.274   5.559
    2PC     H3C 4493   3.244   4.361   5.536
    2PC     C34 4494   3.269   4.491   5.329
    2PC     H4A 4495   3.186   4.422   5.313
    2PC     H4B 4496   3.235   4.565   5.402
    2PC     H4C 4497   3.297   4.543   5.237
    2PC     C35 4498   3.426   4.306   5.276
    2PC     H5A 4499   3.457   4.370   5.193
    2PC     H5B 4500   3.347   4.236   5.249
    2PC     H5C 4501   3.513   4.265   5.329
    2PC     O33 4502   3.739   4.757   5.198
    2PC     O34 4503   3.554   4.682   5.054
    2PC     O21 4504   3.795   4.342   4.848
    2PC     C21 4505   3.747   4.217   4.834
    2PC     O22 4506   3.631   4.189   4.812
    3OL     C12 4507   3.865   4.123   4.841
    3OL     H2R 4508   3.838   4.039   4.905
    3OL     H2S 4509   3.947   4.182   4.882
    3OL     C13 4510   3.891   4.079   4.696
    3OL     H3R 4511   3.902   4.162   4.626
    3OL     H3S 4512   3.815   4.009   4.662
    3OL     C14 4513   4.020   3.996   4.707
    3OL     H4R 4514   4.004   3.927   4.790
    3OL     H4S 4515   4.098   4.070   4.726
    3OL     C15 4516   4.038   3.915   4.578
    3OL     H5R 4517   4.008   3.965   4.485
    3OL     H5S 4518   3.977   3.826   4.593
    3OL     C16 4519   4.184   3.869   4.569
    3OL     H6R 4520   4.204   3.813   4.660
    3OL     H6S 4521   4.251   3.953   4.588
    3OL     C17 4522   4.220   3.798   4.438
    3OL     H7R 4523   4.197   3.863   4.353
    3OL     H7S 4524   4.159   3.709   4.427
    3OL     C18 4525   4.368   3.758   4.430
    3OL     H8R 4526   4.426   3.850   4.419
    3OL     H8S 4527   4.376   3.693   4.344
    3OL     C19 4528   4.419   3.681   4.550
    3OL     H9R 4529   4.385   3.578   4.546
    3OL    C110 4530   4.515   3.712   4.635
    3OL    H10R 4531   4.549   3.636   4.705
    3OL    C111 4532   4.584   3.846   4.647
    3OL    H11R 4533   4.592   3.874   4.752
    3OL    H11S 4534   4.518   3.920   4.601
    3OL    C112 4535   4.719   3.849   4.574
    3OL    H12R 4536   4.769   3.937   4.613
    3OL    H12S 4537   4.700   3.854   4.466
    3OL    C113 4538   4.820   3.736   4.597
    3OL    H13R 4539   4.907   3.766   4.539
    3OL    H13S 4540   4.780   3.641   4.560
    3OL    C114 4541   4.855   3.724   4.746
    3OL    H14R 4542   4.769   3.720   4.813
    3OL    H14S 4543   4.900   3.819   4.776
    3OL    C115 4544   4.951   3.609   4.781
    3OL    H15R 4545   5.038   3.598   4.715
    3OL    H15S 4546   4.899   3.515   4.764
    3OL    C116 4547   4.994   3.611   4.928
    3OL    H16R 4548   5.005   3.507   4.958
    3OL    H16S 4549   4.911   3.645   4.991
    3OL    C117 4550   5.124   3.686   4.959
    3OL    H17R 4551   5.106   3.793   4.966
    3OL    H17S 4552   5.194   3.666   4.877
    3OL    C118 4553   5.192   3.640   5.089
    3OL    H18R 4554   5.123   3.644   5.173
    3OL    H18S 4555   5.276   3.698   5.125
    3OL    H18T 4556   5.229   3.538   5.075
    1PA    C116 4557   4.938   1.642   3.785
    1PA    H16R 4558   5.042   1.673   3.782
    1PA    H16S 4559   4.881   1.692   3.707
    1PA    H16T 4560   4.926   1.536   3.760
    1PA    C115 4561   4.891   1.679   3.927
    1PA    H15R 4562   4.788   1.651   3.951
    1PA    H15S 4563   4.957   1.620   3.990
    1PA    C114 4564   4.917   1.825   3.965
    1PA    H14R 4565   5.026   1.827   3.977
    1PA    H14S 4566   4.891   1.891   3.882
    1PA    C113 4567   4.846   1.854   4.098
    1PA    H13R 4568   4.737   1.852   4.088
    1PA    H13S 4569   4.881   1.785   4.175
    1PA    C112 4570   4.896   1.989   4.151
    1PA    H12R 4571   5.005   2.004   4.153
    1PA    H12S 4572   4.856   2.064   4.082
    1PA    C111 4573   4.840   2.032   4.287
    1PA    H11R 4574   4.864   1.952   4.357
    1PA    H11S 4575   4.901   2.116   4.321
    1PA    C110 4576   4.689   2.059   4.283
    1PA    H10R 4577   4.663   2.135   4.209
    1PA    H10S 4578   4.640   1.963   4.263
    1PA     C19 4579   4.628   2.101   4.417
    1PA     H9R 4580   4.622   2.011   4.478
    1PA     H9S 4581   4.702   2.161   4.470
    1PA     C18 4582   4.486   2.160   4.407
    1PA     H8R 4583   4.494   2.247   4.341
    1PA     H8S 4584   4.414   2.085   4.371
    1PA     C17 4585   4.431   2.199   4.544
    1PA     H7R 4586   4.416   2.107   4.601
    1PA     H7S 4587   4.500   2.265   4.598
    1PA     C16 4588   4.296   2.271   4.533
    1PA     H6R 4589   4.316   2.362   4.475
    1PA     H6S 4590   4.234   2.209   4.468
    1PA     C15 4591   4.226   2.295   4.668
    1PA     H5R 4592   4.118   2.302   4.657
    1PA     H5S 4593   4.245   2.208   4.731
    1PA     C14 4594   4.292   2.409   4.747
    1PA     H4R 4595   4.389   2.380   4.787
    1PA     H4S 4596   4.294   2.492   4.676
    1PA     C13 4597   4.205   2.443   4.868
    1PA     H3R 4598   4.102   2.466   4.840
    1PA     H3S 4599   4.210   2.355   4.932
    1PA     C12 4600   4.264   2.562   4.946
    1PA     H2R 4601   4.369   2.538   4.963
    1PA     H2S 4602   4.257   2.650   4.882
    2PC     C11 4603   4.201   2.587   5.080
    2PC     O12 4604   4.086   2.559   5.110
    2PC     O11 4605   4.288   2.644   5.165
    2PC      C1 4606   4.257   2.675   5.302
    2PC      HR 4607   4.220   2.777   5.307
    2PC      HS 4608   4.190   2.601   5.347
    2PC      C2 4609   4.391   2.688   5.376
    2PC      HX 4610   4.444   2.597   5.346
    2PC      C3 4611   4.387   2.697   5.529
    2PC      HA 4612   4.372   2.601   5.579
    2PC      HB 4613   4.483   2.736   5.565
    2PC     O31 4614   4.275   2.779   5.567
    2PC     P31 4615   4.230   2.773   5.721
    2PC     O32 4616   4.349   2.851   5.793
    2PC     C31 4617   4.349   2.995   5.780
    2PC     H1A 4618   4.346   3.026   5.676
    2PC     H1B 4619   4.252   3.032   5.814
    2PC     C32 4620   4.464   3.070   5.847
    2PC     H2A 4621   4.482   3.160   5.788
    2PC     H2B 4622   4.437   3.102   5.948
    2PC     N31 4623   4.600   3.008   5.840
    2PC     C33 4624   4.616   2.878   5.914
    2PC     H3A 4625   4.718   2.862   5.949
    2PC     H3B 4626   4.546   2.881   5.997
    2PC     H3C 4627   4.578   2.792   5.858
    2PC     C34 4628   4.627   2.975   5.696
    2PC     H4A 4629   4.558   2.899   5.660
    2PC     H4B 4630   4.630   3.064   5.632
    2PC     H4C 4631   4.721   2.921   5.692
    2PC     C35 4632   4.707   3.104   5.882
    2PC     H5A 4633   4.715   3.186   5.810
    2PC     H5B 4634   4.807   3.060   5.885
    2PC     H5C 4635   4.677   3.137   5.982
    2PC     O33 4636   4.097   2.831   5.750
    2PC     O34 4637   4.223   2.633   5.770
    2PC     O21 4638   4.454   2.807   5.326
    2PC     C21 4639   4.584   2.835   5.345
    2PC     O22 4640   4.663   2.759   5.398
    3OL     C12 4641   4.608   2.974   5.294
    3OL     H2R 4642   4.541   3.051   5.333
    3OL     H2S 4643   4.577   2.966   5.189
    3OL     C13 4644   4.749   3.035   5.303
    3OL     H3R 4645   4.783   3.012   5.404
    3OL     H3S 4646   4.738   3.143   5.295
    3OL     C14 4647   4.833   2.988   5.184
    3OL     H4R 4648   4.820   2.880   5.171
    3OL     H4S 4649   4.935   2.995   5.221
    3OL     C15 4650   4.815   3.074   5.058
    3OL     H5R 4651   4.863   3.169   5.080
    3OL     H5S 4652   4.709   3.090   5.037
    3OL     C16 4653   4.874   3.014   4.930
    3OL     H6R 4654   4.829   2.915   4.920
    3OL     H6S 4655   4.982   2.998   4.932
    3OL     C17 4656   4.838   3.087   4.800
    3OL     H7R 4657   4.857   3.194   4.811
    3OL     H7S 4658   4.729   3.082   4.794
    3OL     C18 4659   4.902   3.022   4.676
    3OL     H8R 4660   4.872   3.078   4.587
    3OL     H8S 4661   4.850   2.926   4.665
    3OL     C19 4662   5.052   3.013   4.684
    3OL     H9R 4663   5.102   3.080   4.754
    3OL    C110 4664   5.124   2.935   4.605
    3OL    H10R 4665   5.232   2.941   4.608
    3OL    C111 4666   5.070   2.841   4.499
    3OL    H11R 4667   4.963   2.826   4.518
    3OL    H11S 4668   5.119   2.744   4.495
    3OL    C112 4669   5.102   2.914   4.368
    3OL    H12R 4670   5.094   3.023   4.381
    3OL    H12S 4671   5.037   2.888   4.285
    3OL    C113 4672   5.249   2.893   4.328
    3OL    H13R 4673   5.274   2.787   4.318
    3OL    H13S 4674   5.314   2.931   4.407
    3OL    C114 4675   5.287   2.965   4.199
    3OL    H14R 4676   5.395   2.950   4.188
    3OL    H14S 4677   5.260   3.070   4.215
    3OL    C115 4678   5.206   2.920   4.077
    3OL    H15R 4679   5.102   2.950   4.094
    3OL    H15S 4680   5.197   2.812   4.061
    3OL    C116 4681   5.266   2.986   3.952
    3OL    H16R 4682   5.373   2.967   3.949
    3OL    H16S 4683   5.257   3.094   3.959
    3OL    C117 4684   5.211   2.939   3.817
    3OL    H17R 4685   5.108   2.975   3.807
    3OL    H17S 4686   5.219   2.831   3.824
    3OL    C118 4687   5.303   2.988   3.704
    3OL    H18R 4688   5.269   3.090   3.683
    3OL    H18S 4689   5.289   2.941   3.607
    3OL    H18T 4690   5.409   2.999   3.729
    1PA    C116 4691   1.483   3.325   3.231
    1PA    H16R 4692   1.511   3.266   3.144
    1PA    H16S 4693   1.567   3.384   3.268
    1PA    H16T 4694   1.400   3.391   3.207
    1PA    C115 4695   1.447   3.229   3.346
    1PA    H15R 4696   1.384   3.293   3.408
    1PA    H15S 4697   1.384   3.147   3.310
    1PA    C114 4698   1.574   3.185   3.421
    1PA    H14R 4699   1.637   3.148   3.340
    1PA    H14S 4700   1.621   3.275   3.461
    1PA    C113 4701   1.545   3.073   3.521
    1PA    H13R 4702   1.490   2.993   3.471
    1PA    H13S 4703   1.644   3.039   3.552
    1PA    C112 4704   1.476   3.129   3.647
    1PA    H12R 4705   1.535   3.213   3.682
    1PA    H12S 4706   1.380   3.170   3.615
    1PA    C111 4707   1.456   3.015   3.748
    1PA    H11R 4708   1.411   2.930   3.696
    1PA    H11S 4709   1.553   2.988   3.791
    1PA    C110 4710   1.361   3.071   3.854
    1PA    H10R 4711   1.283   3.126   3.801
    1PA    H10S 4712   1.304   2.990   3.900
    1PA     C19 4713   1.444   3.150   3.955
    1PA     H9R 4714   1.515   3.080   4.000
    1PA     H9S 4715   1.495   3.234   3.907
    1PA     C18 4716   1.352   3.205   4.066
    1PA     H8R 4717   1.288   3.286   4.029
    1PA     H8S 4718   1.279   3.127   4.091
    1PA     C17 4719   1.430   3.241   4.193
    1PA     H7R 4720   1.347   3.277   4.254
    1PA     H7S 4721   1.476   3.156   4.244
    1PA     C16 4722   1.532   3.356   4.185
    1PA     H6R 4723   1.603   3.338   4.103
    1PA     H6S 4724   1.479   3.447   4.153
    1PA     C15 4725   1.601   3.385   4.319
    1PA     H5R 4726   1.620   3.285   4.358
    1PA     H5S 4727   1.692   3.434   4.284
    1PA     C14 4728   1.533   3.480   4.419
    1PA     H4R 4729   1.522   3.579   4.374
    1PA     H4S 4730   1.427   3.456   4.435
    1PA     C13 4731   1.598   3.469   4.557
    1PA     H3R 4732   1.615   3.363   4.578
    1PA     H3S 4733   1.695   3.518   4.546
    1PA     C12 4734   1.514   3.543   4.662
    1PA     H2R 4735   1.476   3.632   4.613
    1PA     H2S 4736   1.428   3.480   4.687
    2PC     C11 4737   1.592   3.592   4.782
    2PC     O12 4738   1.712   3.611   4.785
    2PC     O11 4739   1.511   3.597   4.889
    2PC      C1 4740   1.561   3.644   5.016
    2PC      HR 4741   1.494   3.612   5.096
    2PC      HS 4742   1.653   3.590   5.041
    2PC      C2 4743   1.588   3.795   5.015
    2PC      HX 4744   1.635   3.830   4.923
    2PC      C3 4745   1.673   3.826   5.140
    2PC      HA 4746   1.774   3.789   5.123
    2PC      HB 4747   1.685   3.934   5.152
    2PC     O31 4748   1.618   3.765   5.258
    2PC     P31 4749   1.713   3.726   5.380
    2PC     O32 4750   1.599   3.667   5.476
    2PC     C31 4751   1.621   3.640   5.615
    2PC     H1A 4752   1.728   3.618   5.629
    2PC     H1B 4753   1.610   3.733   5.672
    2PC     C32 4754   1.540   3.522   5.669
    2PC     H2A 4755   1.526   3.451   5.587
    2PC     H2B 4756   1.590   3.470   5.752
    2PC     N31 4757   1.408   3.562   5.729
    2PC     C33 4758   1.327   3.657   5.647
    2PC     H3A 4759   1.344   3.635   5.541
    2PC     H3B 4760   1.222   3.642   5.670
    2PC     H3C 4761   1.353   3.761   5.669
    2PC     C34 4762   1.320   3.441   5.738
    2PC     H4A 4763   1.355   3.369   5.664
    2PC     H4B 4764   1.339   3.397   5.835
    2PC     H4C 4765   1.217   3.473   5.720
    2PC     C35 4766   1.434   3.621   5.865
    2PC     H5A 4767   1.520   3.688   5.868
    2PC     H5B 4768   1.456   3.543   5.938
    2PC     H5C 4769   1.350   3.674   5.909
    2PC     O33 4770   1.802   3.614   5.341
    2PC     O34 4771   1.799   3.837   5.428
    2PC     O21 4772   1.468   3.874   5.022
    2PC     C21 4773   1.467   4.003   4.983
    2PC     O22 4774   1.567   4.056   4.938
    3OL     C12 4775   1.332   4.065   5.006
    3OL     H2R 4776   1.311   4.044   5.111
    3OL     H2S 4777   1.256   4.010   4.950
    3OL     C13 4778   1.321   4.216   4.978
    3OL     H3R 4779   1.400   4.270   5.030
    3OL     H3S 4780   1.230   4.263   5.015
    3OL     C14 4781   1.328   4.251   4.828
    3OL     H4R 4782   1.237   4.215   4.780
    3OL     H4S 4783   1.412   4.196   4.785
    3OL     C15 4784   1.349   4.400   4.799
    3OL     H5R 4785   1.434   4.441   4.854
    3OL     H5S 4786   1.266   4.461   4.835
    3OL     C16 4787   1.376   4.420   4.649
    3OL     H6R 4788   1.293   4.382   4.590
    3OL     H6S 4789   1.464   4.356   4.640
    3OL     C17 4790   1.408   4.564   4.606
    3OL     H7R 4791   1.454   4.553   4.507
    3OL     H7S 4792   1.489   4.601   4.669
    3OL     C18 4793   1.299   4.672   4.607
    3OL     H8R 4794   1.278   4.701   4.711
    3OL     H8S 4795   1.213   4.627   4.559
    3OL     C19 4796   1.353   4.794   4.536
    3OL     H9R 4797   1.383   4.761   4.437
    3OL    C110 4798   1.374   4.913   4.589
    3OL    H10R 4799   1.424   4.989   4.530
    3OL    C111 4800   1.330   4.954   4.728
    3OL    H11R 4801   1.350   4.872   4.796
    3OL    H11S 4802   1.226   4.985   4.739
    3OL    C112 4803   1.402   5.078   4.784
    3OL    H12R 4804   1.508   5.054   4.791
    3OL    H12S 4805   1.364   5.101   4.883
    3OL    C113 4806   1.398   5.206   4.700
    3OL    H13R 4807   1.298   5.228   4.662
    3OL    H13S 4808   1.461   5.190   4.613
    3OL    C114 4809   1.447   5.338   4.763
    3OL    H14R 4810   1.458   5.415   4.687
    3OL    H14S 4811   1.540   5.312   4.814
    3OL    C115 4812   1.355   5.394   4.872
    3OL    H15R 4813   1.409   5.446   4.951
    3OL    H15S 4814   1.313   5.308   4.925
    3OL    C116 4815   1.243   5.488   4.824
    3OL    H16R 4816   1.186   5.438   4.746
    3OL    H16S 4817   1.285   5.583   4.789
    3OL    C117 4818   1.149   5.509   4.944
    3OL    H17R 4819   1.196   5.553   5.032
    3OL    H17S 4820   1.115   5.410   4.976
    3OL    C118 4821   1.028   5.598   4.911
    3OL    H18R 4822   0.958   5.534   4.857
    3OL    H18S 4823   1.063   5.684   4.853
    3OL    H18T 4824   0.983   5.631   5.005
    1PA    C116 4825   3.684   2.853   3.998
    1PA    H16R 4826   3.721   2.914   3.915
    1PA    H16S 4827   3.739   2.761   3.978
    1PA    H16T 4828   3.711   2.896   4.094
    1PA    C115 4829   3.536   2.828   3.962
    1PA    H15R 4830   3.490   2.927   3.950
    1PA    H15S 4831   3.526   2.778   3.866
    1PA    C114 4832   3.465   2.763   4.081
    1PA    H14R 4833   3.474   2.834   4.163
    1PA    H14S 4834   3.359   2.746   4.058
    1PA    C113 4835   3.519   2.627   4.129
    1PA    H13R 4836   3.504   2.562   4.043
    1PA    H13S 4837   3.628   2.632   4.142
    1PA    C112 4838   3.445   2.572   4.252
    1PA    H12R 4839   3.340   2.575   4.223
    1PA    H12S 4840   3.471   2.466   4.259
    1PA    C111 4841   3.465   2.652   4.381
    1PA    H11R 4842   3.441   2.758   4.366
    1PA    H11S 4843   3.399   2.612   4.458
    1PA    C110 4844   3.603   2.625   4.442
    1PA    H10R 4845   3.616   2.516   4.445
    1PA    H10S 4846   3.677   2.668   4.374
    1PA     C19 4847   3.609   2.689   4.581
    1PA     H9R 4848   3.601   2.797   4.567
    1PA     H9S 4849   3.524   2.657   4.640
    1PA     C18 4850   3.734   2.668   4.668
    1PA     H8R 4851   3.744   2.565   4.702
    1PA     H8S 4852   3.815   2.702   4.604
    1PA     C17 4853   3.747   2.749   4.798
    1PA     H7R 4854   3.758   2.853   4.766
    1PA     H7S 4855   3.657   2.745   4.860
    1PA     C16 4856   3.868   2.699   4.878
    1PA     H6R 4857   3.857   2.597   4.915
    1PA     H6S 4858   3.956   2.702   4.813
    1PA     C15 4859   3.893   2.792   4.997
    1PA     H5R 4860   3.993   2.763   5.029
    1PA     H5S 4861   3.902   2.897   4.968
    1PA     C14 4862   3.794   2.774   5.113
    1PA     H4R 4863   3.695   2.817   5.092
    1PA     H4S 4864   3.796   2.671   5.147
    1PA     C13 4865   3.829   2.863   5.233
    1PA     H3R 4866   3.779   2.835   5.326
    1PA     H3S 4867   3.938   2.854   5.238
    1PA     C12 4868   3.776   3.007   5.230
    1PA     H2R 4869   3.811   3.061   5.142
    1PA     H2S 4870   3.667   3.001   5.236
    2PC     C11 4871   3.807   3.089   5.352
    2PC     O12 4872   3.896   3.069   5.433
    2PC     O11 4873   3.707   3.175   5.376
    2PC      C1 4874   3.730   3.272   5.481
    2PC      HR 4875   3.639   3.332   5.490
    2PC      HS 4876   3.754   3.216   5.572
    2PC      C2 4877   3.832   3.366   5.416
    2PC      HX 4878   3.914   3.320   5.361
    2PC      C3 4879   3.915   3.447   5.517
    2PC      HA 4880   3.973   3.382   5.583
    2PC      HB 4881   3.988   3.502   5.457
    2PC     O31 4882   3.830   3.538   5.589
    2PC     P31 4883   3.888   3.629   5.707
    2PC     O32 4884   3.911   3.519   5.821
    2PC     C31 4885   3.813   3.516   5.926
    2PC     H1A 4886   3.806   3.616   5.970
    2PC     H1B 4887   3.714   3.495   5.884
    2PC     C32 4888   3.846   3.414   6.036
    2PC     H2A 4889   3.829   3.311   6.003
    2PC     H2B 4890   3.947   3.425   6.075
    2PC     N31 4891   3.769   3.428   6.164
    2PC     C33 4892   3.626   3.388   6.143
    2PC     H3A 4893   3.589   3.467   6.077
    2PC     H3B 4894   3.628   3.287   6.100
    2PC     H3C 4895   3.563   3.388   6.232
    2PC     C34 4896   3.837   3.338   6.263
    2PC     H4A 4897   3.788   3.347   6.360
    2PC     H4B 4898   3.835   3.236   6.223
    2PC     H4C 4899   3.943   3.358   6.272
    2PC     C35 4900   3.769   3.569   6.213
    2PC     H5A 4901   3.721   3.633   6.139
    2PC     H5B 4902   3.873   3.597   6.234
    2PC     H5C 4903   3.718   3.564   6.309
    2PC     O33 4904   4.022   3.683   5.673
    2PC     O34 4905   3.798   3.741   5.743
    2PC     O21 4906   3.771   3.463   5.329
    2PC     C21 4907   3.732   3.432   5.204
    2PC     O22 4908   3.774   3.339   5.138
    3OL     C12 4909   3.631   3.529   5.148
    3OL     H2R 4910   3.657   3.631   5.176
    3OL     H2S 4911   3.531   3.502   5.184
    3OL     C13 4912   3.618   3.524   4.996
    3OL     H3R 4913   3.598   3.424   4.957
    3OL     H3S 4914   3.718   3.550   4.960
    3OL     C14 4915   3.522   3.627   4.933
    3OL     H4R 4916   3.561   3.724   4.962
    3OL     H4S 4917   3.419   3.612   4.965
    3OL     C15 4918   3.532   3.619   4.780
    3OL     H5R 4919   3.490   3.525   4.745
    3OL     H5S 4920   3.632   3.627   4.737
    3OL     C16 4921   3.455   3.738   4.723
    3OL     H6R 4922   3.497   3.835   4.751
    3OL     H6S 4923   3.351   3.748   4.756
    3OL     C17 4924   3.449   3.737   4.569
    3OL     H7R 4925   3.363   3.794   4.532
    3OL     H7S 4926   3.429   3.637   4.530
    3OL     C18 4927   3.579   3.800   4.517
    3OL     H8R 4928   3.667   3.743   4.547
    3OL     H8S 4929   3.598   3.902   4.552
    3OL     C19 4930   3.579   3.812   4.367
    3OL     H9R 4931   3.503   3.758   4.312
    3OL    C110 4932   3.654   3.883   4.285
    3OL    H10R 4933   3.633   3.870   4.179
    3OL    C111 4934   3.759   3.986   4.319
    3OL    H11R 4935   3.808   3.966   4.414
    3OL    H11S 4936   3.718   4.087   4.332
    3OL    C112 4937   3.876   4.002   4.220
    3OL    H12R 4938   3.950   4.063   4.273
    3OL    H12S 4939   3.854   4.055   4.127
    3OL    C113 4940   3.951   3.874   4.184
    3OL    H13R 4941   3.875   3.809   4.139
    3OL    H13S 4942   3.992   3.819   4.268
    3OL    C114 4943   4.065   3.909   4.088
    3OL    H14R 4944   4.130   3.980   4.139
    3OL    H14S 4945   4.028   3.961   3.999
    3OL    C115 4946   4.138   3.779   4.052
    3OL    H15R 4947   4.077   3.703   4.002
    3OL    H15S 4948   4.181   3.736   4.143
    3OL    C116 4949   4.260   3.811   3.965
    3OL    H16R 4950   4.343   3.742   3.978
    3OL    H16S 4951   4.313   3.900   3.999
    3OL    C117 4952   4.222   3.831   3.818
    3OL    H17R 4953   4.310   3.871   3.767
    3OL    H17S 4954   4.154   3.915   3.800
    3OL    C118 4955   4.162   3.711   3.744
    3OL    H18R 4956   4.163   3.728   3.636
    3OL    H18S 4957   4.064   3.680   3.783
    3OL    H18T 4958   4.223   3.621   3.755
    1PA    C116 4959   0.425   3.076   4.598
    1PA    H16R 4960   0.446   3.117   4.697
    1PA    H16S 4961   0.359   2.990   4.609
    1PA    H16T 4962   0.377   3.163   4.552
    1PA    C115 4963   0.550   3.030   4.523
    1PA    H15R 4964   0.593   2.952   4.587
    1PA    H15S 4965   0.521   2.987   4.427
    1PA    C114 4966   0.643   3.152   4.523
    1PA    H14R 4967   0.606   3.230   4.456
    1PA    H14S 4968   0.654   3.202   4.619
    1PA    C113 4969   0.786   3.117   4.478
    1PA    H13R 4970   0.783   3.029   4.413
    1PA    H13S 4971   0.818   3.201   4.415
    1PA    C112 4972   0.899   3.093   4.579
    1PA    H12R 4973   0.920   3.186   4.632
    1PA    H12S 4974   0.856   3.013   4.640
    1PA    C111 4975   1.026   3.045   4.508
    1PA    H11R 4976   1.006   2.960   4.442
    1PA    H11S 4977   1.065   3.137   4.463
    1PA    C110 4978   1.132   3.006   4.612
    1PA    H10R 4979   1.158   3.093   4.672
    1PA    H10S 4980   1.105   2.939   4.693
    1PA     C19 4981   1.268   2.970   4.548
    1PA     H9R 4982   1.254   2.869   4.510
    1PA     H9S 4983   1.294   3.031   4.461
    1PA     C18 4984   1.387   2.963   4.643
    1PA     H8R 4985   1.472   2.917   4.592
    1PA     H8S 4986   1.422   3.062   4.671
    1PA     C17 4987   1.363   2.871   4.764
    1PA     H7R 4988   1.280   2.919   4.818
    1PA     H7S 4989   1.342   2.771   4.726
    1PA     C16 4990   1.487   2.873   4.855
    1PA     H6R 4991   1.573   2.832   4.801
    1PA     H6S 4992   1.509   2.974   4.892
    1PA     C15 4993   1.468   2.779   4.975
    1PA     H5R 4994   1.423   2.682   4.953
    1PA     H5S 4995   1.564   2.751   5.018
    1PA     C14 4996   1.392   2.861   5.080
    1PA     H4R 4997   1.438   2.959   5.095
    1PA     H4S 4998   1.287   2.881   5.054
    1PA     C13 4999   1.378   2.777   5.207
    1PA     H3R 5000   1.331   2.680   5.186
    1PA     H3S 5001   1.476   2.757   5.251
    1PA     C12 5002   1.296   2.842   5.320
    1PA     H2R 5003   1.206   2.887   5.278
    1PA     H2S 5004   1.271   2.759   5.386
    2PC     C11 5005   1.367   2.947   5.402
    2PC     O12 5006   1.320   3.005   5.498
    2PC     O11 5007   1.487   2.982   5.353
    2PC      C1 5008   1.566   3.074   5.432
    2PC      HR 5009   1.638   3.132   5.375
    2PC      HS 5010   1.495   3.136   5.487
    2PC      C2 5011   1.645   2.989   5.533
    2PC      HX 5012   1.582   2.908   5.569
    2PC      C3 5013   1.682   3.078   5.653
    2PC      HA 5014   1.777   3.126   5.629
    2PC      HB 5015   1.611   3.156   5.680
    2PC     O31 5016   1.710   2.996   5.768
    2PC     P31 5017   1.792   3.049   5.895
    2PC     O32 5018   1.746   2.969   6.026
    2PC     C31 5019   1.763   3.054   6.140
    2PC     H1A 5020   1.864   3.096   6.142
    2PC     H1B 5021   1.692   3.136   6.126
    2PC     C32 5022   1.736   2.991   6.277
    2PC     H2A 5023   1.785   2.895   6.261
    2PC     H2B 5024   1.776   3.052   6.358
    2PC     N31 5025   1.597   2.943   6.311
    2PC     C33 5026   1.501   2.917   6.200
    2PC     H3A 5027   1.422   2.862   6.251
    2PC     H3B 5028   1.461   3.003   6.145
    2PC     H3C 5029   1.546   2.863   6.116
    2PC     C34 5030   1.612   2.810   6.378
    2PC     H4A 5031   1.642   2.731   6.310
    2PC     H4B 5032   1.687   2.828   6.456
    2PC     H4C 5033   1.515   2.784   6.420
    2PC     C35 5034   1.515   3.042   6.388
    2PC     H5A 5035   1.501   3.123   6.317
    2PC     H5B 5036   1.565   3.071   6.481
    2PC     H5C 5037   1.416   3.002   6.410
    2PC     O33 5038   1.940   3.039   5.885
    2PC     O34 5039   1.748   3.190   5.905
    2PC     O21 5040   1.754   2.930   5.460
    2PC     C21 5041   1.735   2.810   5.404
    2PC     O22 5042   1.646   2.732   5.435
    3OL     C12 5043   1.839   2.761   5.306
    3OL     H2R 5044   1.875   2.662   5.334
    3OL     H2S 5045   1.927   2.824   5.305
    3OL     C13 5046   1.782   2.744   5.165
    3OL     H3R 5047   1.724   2.834   5.142
    3OL     H3S 5048   1.712   2.661   5.167
    3OL     C14 5049   1.891   2.718   5.059
    3OL     H4R 5050   1.929   2.617   5.078
    3OL     H4S 5051   1.966   2.795   5.074
    3OL     C15 5052   1.848   2.716   4.912
    3OL     H5R 5053   1.807   2.816   4.895
    3OL     H5S 5054   1.769   2.642   4.902
    3OL     C16 5055   1.967   2.677   4.823
    3OL     H6R 5056   1.932   2.685   4.720
    3OL     H6S 5057   1.991   2.573   4.843
    3OL     C17 5058   2.092   2.764   4.841
    3OL     H7R 5059   2.117   2.780   4.946
    3OL     H7S 5060   2.075   2.864   4.800
    3OL     C18 5061   2.208   2.694   4.768
    3OL     H8R 5062   2.200   2.694   4.660
    3OL     H8S 5063   2.202   2.587   4.794
    3OL     C19 5064   2.336   2.760   4.813
    3OL     H9R 5065   2.324   2.817   4.904
    3OL    C110 5066   2.459   2.750   4.764
    3OL    H10R 5067   2.541   2.808   4.803
    3OL    C111 5068   2.489   2.677   4.635
    3OL    H11R 5069   2.515   2.751   4.559
    3OL    H11S 5070   2.402   2.624   4.596
    3OL    C112 5071   2.616   2.592   4.629
    3OL    H12R 5072   2.705   2.656   4.632
    3OL    H12S 5073   2.616   2.552   4.527
    3OL    C113 5074   2.614   2.480   4.733
    3OL    H13R 5075   2.512   2.484   4.771
    3OL    H13S 5076   2.671   2.500   4.824
    3OL    C114 5077   2.655   2.343   4.675
    3OL    H14R 5078   2.764   2.349   4.664
    3OL    H14S 5079   2.616   2.338   4.574
    3OL    C115 5080   2.613   2.221   4.758
    3OL    H15R 5081   2.504   2.214   4.755
    3OL    H15S 5082   2.646   2.236   4.862
    3OL    C116 5083   2.687   2.094   4.717
    3OL    H16R 5084   2.793   2.119   4.717
    3OL    H16S 5085   2.671   2.069   4.612
    3OL    C117 5086   2.652   1.974   4.806
    3OL    H17R 5087   2.544   1.957   4.805
    3OL    H17S 5088   2.678   1.979   4.912
    3OL    C118 5089   2.709   1.845   4.745
    3OL    H18R 5090   2.667   1.758   4.796
    3OL    H18S 5091   2.817   1.845   4.762
    3OL    H18T 5092   2.691   1.839   4.638
    1PA    C116 5093   5.550   6.130   4.166
    1PA    H16R 5094   5.551   6.021   4.172
    1PA    H16S 5095   5.485   6.155   4.082
    1PA    H16T 5096   5.521   6.161   4.267
    1PA    C115 5097   5.693   6.178   4.138
    1PA    H15R 5098   5.728   6.163   4.035
    1PA    H15S 5099   5.701   6.287   4.148
    1PA    C114 5100   5.791   6.123   4.241
    1PA    H14R 5101   5.755   6.141   4.343
    1PA    H14S 5102   5.796   6.014   4.230
    1PA    C113 5103   5.934   6.174   4.216
    1PA    H13R 5104   6.010   6.097   4.231
    1PA    H13S 5105   5.934   6.196   4.110
    1PA    C112 5106   5.967   6.307   4.286
    1PA    H12R 5107   6.070   6.333   4.259
    1PA    H12S 5108   5.901   6.383   4.245
    1PA    C111 5109   5.946   6.296   4.438
    1PA    H11R 5110   5.841   6.286   4.465
    1PA    H11S 5111   5.994   6.211   4.485
    1PA    C110 5112   5.997   6.423   4.508
    1PA    H10R 5113   6.101   6.445   4.485
    1PA    H10S 5114   5.938   0.023   4.476
    1PA     C19 5115   5.987   6.417   4.661
    1PA     H9R 5116   5.887   6.424   4.705
    1PA     H9S 5117   6.022   6.318   4.691
    1PA     C18 5118   6.074   0.046   4.712
    1PA     H8R 5119   6.172   0.045   4.664
    1PA     H8S 5120   6.024   0.140   4.690
    1PA     C17 5121   6.111   0.025   4.859
    1PA     H7R 5122   6.136   6.411   4.893
    1PA     H7S 5123   6.189   0.095   4.890
    1PA     C16 5124   5.998   0.077   4.950
    1PA     H6R 5125   5.941   0.157   4.901
    1PA     H6S 5126   5.930   6.478   4.955
    1PA     C15 5127   6.053   0.119   5.088
    1PA     H5R 5128   6.127   0.199   5.083
    1PA     H5S 5129   5.966   0.155   5.144
    1PA     C14 5130   6.114   0.005   5.170
    1PA     H4R 5131   6.023   6.440   5.201
    1PA     H4S 5132   6.171   6.420   5.109
    1PA     C13 5133   6.185   0.062   5.294
    1PA     H3R 5134   6.263   0.130   5.258
    1PA     H3S 5135   6.111   0.127   5.340
    1PA     C12 5136   6.242   6.447   5.394
    1PA     H2R 5137   6.164   6.425   5.468
    1PA     H2S 5138   6.260   6.346   5.358
    2PC     C11 5139   6.357   0.021   5.471
    2PC     O12 5140   6.379   0.140   5.481
    2PC     O11 5141   6.437   6.409   5.515
    2PC      C1 5142   0.053   6.445   5.610
    2PC      HR 5143   0.068   0.067   5.610
    2PC      HS 5144   0.014   6.410   5.705
    2PC      C2 5145   0.188   6.380   5.574
    2PC      HX 5146   0.164   6.282   5.532
    2PC      C3 5147   0.273   6.351   5.699
    2PC      HA 5148   0.221   6.279   5.762
    2PC      HB 5149   0.370   6.311   5.667
    2PC     O31 5150   0.295   6.474   5.771
    2PC     P31 5151   0.320   6.461   5.929
    2PC     O32 5152   0.433   6.349   5.934
    2PC     C31 5153   0.452   6.284   6.061
    2PC     H1A 5154   0.496   6.347   6.139
    2PC     H1B 5155   0.359   6.235   6.092
    2PC     C32 5156   0.542   6.163   6.033
    2PC     H2A 5157   0.493   6.091   5.969
    2PC     H2B 5158   0.630   6.198   5.978
    2PC     N31 5159   0.592   6.086   6.152
    2PC     C33 5160   0.646   6.177   6.258
    2PC     H3A 5161   0.707   6.120   6.329
    2PC     H3B 5162   0.698   6.254   6.201
    2PC     H3C 5163   0.560   6.219   6.311
    2PC     C34 5164   0.478   6.006   6.208
    2PC     H4A 5165   0.410   6.077   6.254
    2PC     H4B 5166   0.419   5.946   6.138
    2PC     H4C 5167   0.523   5.934   6.277
    2PC     C35 5168   0.699   5.990   6.108
    2PC     H5A 5169   0.732   5.935   6.196
    2PC     H5B 5170   0.783   6.044   6.064
    2PC     H5C 5171   0.656   5.915   6.043
    2PC     O33 5172   0.365   0.106   5.980
    2PC     O34 5173   0.198   6.416   5.999
    2PC     O21 5174   0.264   6.457   5.480
    2PC     C21 5175   0.365   6.398   5.412
    2PC     O22 5176   0.403   6.283   5.423
    3OL     C12 5177   0.423   6.483   5.303
    3OL     H2R 5178   0.531   6.479   5.312
    3OL     H2S 5179   0.391   0.098   5.328
    3OL     C13 5180   0.366   6.440   5.167
    3OL     H3R 5181   0.258   6.456   5.169
    3OL     H3S 5182   0.387   6.333   5.163
    3OL     C14 5183   0.427   0.031   5.049
    3OL     H4R 5184   0.529   6.477   5.044
    3OL     H4S 5185   0.432   0.139   5.064
    3OL     C15 5186   0.378   6.482   4.908
    3OL     H5R 5187   0.283   0.047   4.894
    3OL     H5S 5188   0.357   6.375   4.901
    3OL     C16 5189   0.468   0.044   4.793
    3OL     H6R 5190   0.575   0.035   4.816
    3OL     H6S 5191   0.456   0.151   4.773
    3OL     C17 5192   0.438   6.454   4.663
    3OL     H7R 5193   0.330   6.445   4.649
    3OL     H7S 5194   0.467   6.351   4.685
    3OL     C18 5195   0.517   0.023   4.544
    3OL     H8R 5196   0.625   0.017   4.560
    3OL     H8S 5197   0.475   0.122   4.525
    3OL     C19 5198   0.483   6.416   4.430
    3OL     H9R 5199   0.376   6.399   4.424
    3OL    C110 5200   0.568   6.350   4.353
    3OL    H10R 5201   0.534   6.279   4.278
    3OL    C111 5202   0.711   6.395   4.337
    3OL    H11R 5203   0.768   6.364   4.425
    3OL    H11S 5204   0.720   0.017   4.327
    3OL    C112 5205   0.793   6.323   4.228
    3OL    H12R 5206   0.735   6.325   4.136
    3OL    H12S 5207   0.806   6.219   4.259
    3OL    C113 5208   0.933   6.383   4.209
    3OL    H13R 5209   0.998   6.377   4.296
    3OL    H13S 5210   0.904   6.485   4.183
    3OL    C114 5211   1.005   6.336   4.082
    3OL    H14R 5212   1.092   6.401   4.071
    3OL    H14S 5213   0.937   6.358   3.999
    3OL    C115 5214   1.056   6.191   4.088
    3OL    H15R 5215   0.980   6.124   4.128
    3OL    H15S 5216   1.134   6.181   4.163
    3OL    C116 5217   1.114   6.144   3.953
    3OL    H16R 5218   1.193   6.207   3.912
    3OL    H16S 5219   1.032   6.162   3.883
    3OL    C117 5220   1.160   5.998   3.956
    3OL    H17R 5221   1.081   5.940   4.004
    3OL    H17S 5222   1.249   5.979   4.016
    3OL    C118 5223   1.168   5.935   3.816
    3OL    H18R 5224   1.066   5.936   3.779
    3OL    H18S 5225   1.209   5.834   3.815
    3OL    H18T 5226   1.229   6.002   3.755
    1PA    C116 5227   5.111   4.192   3.971
    1PA    H16R 5228   5.184   4.186   4.052
    1PA    H16S 5229   5.127   4.281   3.911
    1PA    H16T 5230   5.134   4.106   3.906
    1PA    C115 5231   4.968   4.181   4.027
    1PA    H15R 5232   4.899   4.227   3.956
    1PA    H15S 5233   4.949   4.075   4.042
    1PA    C114 5234   4.963   4.260   4.158
    1PA    H14R 5235   5.041   4.229   4.229
    1PA    H14S 5236   4.994   4.363   4.139
    1PA    C113 5237   4.820   4.256   4.213
    1PA    H13R 5238   4.839   4.327   4.294
    1PA    H13S 5239   4.745   4.311   4.155
    1PA    C112 5240   4.775   4.113   4.245
    1PA    H12R 5241   4.788   4.045   4.160
    1PA    H12S 5242   4.838   4.083   4.329
    1PA    C111 5243   4.628   4.098   4.284
    1PA    H11R 5244   4.600   3.995   4.308
    1PA    H11S 5245   4.623   4.148   4.381
    1PA    C110 5246   4.529   4.147   4.177
    1PA    H10R 5247   4.526   4.255   4.157
    1PA    H10S 5248   4.550   4.107   4.077
    1PA     C19 5249   4.382   4.111   4.203
    1PA     H9R 5250   4.312   4.170   4.143
    1PA     H9S 5251   4.372   4.003   4.189
    1PA     C18 5252   4.334   4.144   4.345
    1PA     H8R 5253   4.228   4.120   4.350
    1PA     H8S 5254   4.382   4.083   4.422
    1PA     C17 5255   4.359   4.289   4.386
    1PA     H7R 5256   4.461   4.324   4.400
    1PA     H7S 5257   4.319   4.348   4.303
    1PA     C16 5258   4.274   4.331   4.507
    1PA     H6R 5259   4.170   4.303   4.487
    1PA     H6S 5260   4.300   4.271   4.595
    1PA     C15 5261   4.282   4.480   4.539
    1PA     H5R 5262   4.389   4.504   4.541
    1PA     H5S 5263   4.246   4.536   4.453
    1PA     C14 5264   4.213   4.510   4.673
    1PA     H4R 5265   4.107   4.485   4.661
    1PA     H4S 5266   4.259   4.452   4.753
    1PA     C13 5267   4.222   4.663   4.688
    1PA     H3R 5268   4.321   4.708   4.700
    1PA     H3S 5269   4.180   4.699   4.594
    1PA     C12 5270   4.137   4.724   4.801
    1PA     H2R 5271   4.137   4.833   4.799
    1PA     H2S 5272   4.033   4.696   4.785
    2PC     C11 5273   4.178   4.684   4.941
    2PC     O12 5274   4.248   4.752   5.014
    2PC     O11 5275   4.120   4.569   4.978
    2PC      C1 5276   4.155   4.501   5.100
    2PC      HR 5277   4.264   4.508   5.101
    2PC      HS 5278   4.109   4.552   5.184
    2PC      C2 5279   4.124   4.351   5.098
    2PC      HX 5280   4.021   4.325   5.072
    2PC      C3 5281   4.166   4.288   5.231
    2PC      HA 5282   4.103   4.322   5.313
    2PC      HB 5283   4.162   4.178   5.227
    2PC     O31 5284   4.301   4.327   5.263
    2PC     P31 5285   4.361   4.321   5.412
    2PC     O32 5286   4.252   4.412   5.486
    2PC     C31 5287   4.293   4.543   5.527
    2PC     H1A 5288   4.370   4.526   5.603
    2PC     H1B 5289   4.335   4.597   5.442
    2PC     C32 5290   4.173   4.617   5.589
    2PC     H2A 5291   4.226   4.706   5.622
    2PC     H2B 5292   4.095   4.649   5.520
    2PC     N31 5293   4.108   4.556   5.710
    2PC     C33 5294   4.014   4.446   5.669
    2PC     H3A 5295   3.970   4.407   5.761
    2PC     H3B 5296   3.931   4.488   5.613
    2PC     H3C 5297   4.064   4.364   5.616
    2PC     C34 5298   4.204   4.507   5.813
    2PC     H4A 5299   4.250   4.413   5.783
    2PC     H4B 5300   4.281   4.582   5.832
    2PC     H4C 5301   4.148   4.497   5.907
    2PC     C35 5302   4.014   4.654   5.774
    2PC     H5A 5303   3.937   4.692   5.708
    2PC     H5B 5304   4.068   4.740   5.813
    2PC     H5C 5305   3.974   4.610   5.866
    2PC     O33 5306   4.359   4.183   5.466
    2PC     O34 5307   4.505   4.357   5.415
    2PC     O21 5308   4.217   4.301   5.000
    2PC     C21 5309   4.236   4.170   4.977
    2PC     O22 5310   4.156   4.088   5.017
    3OL     C12 5311   4.358   4.136   4.896
    3OL     H2R 5312   4.346   4.153   4.789
    3OL     H2S 5313   4.379   4.029   4.905
    3OL     C13 5314   4.476   4.227   4.932
    3OL     H3R 5315   4.497   4.251   5.037
    3OL     H3S 5316   4.465   4.328   4.892
    3OL     C14 5317   4.595   4.161   4.861
    3OL     H4R 5318   4.585   4.153   4.753
    3OL     H4S 5319   4.598   4.058   4.896
    3OL     C15 5320   4.730   4.229   4.888
    3OL     H5R 5321   4.755   4.232   4.994
    3OL     H5S 5322   4.726   4.336   4.867
    3OL     C16 5323   4.842   4.161   4.809
    3OL     H6R 5324   4.811   4.153   4.704
    3OL     H6S 5325   4.857   4.065   4.859
    3OL     C17 5326   4.978   4.231   4.817
    3OL     H7R 5327   4.981   4.338   4.795
    3OL     H7S 5328   5.037   4.190   4.735
    3OL     C18 5329   5.049   4.208   4.950
    3OL     H8R 5330   4.974   4.234   5.025
    3OL     H8S 5331   5.138   4.270   4.968
    3OL     C19 5332   5.084   4.062   4.971
    3OL     H9R 5333   5.052   3.989   4.897
    3OL    C110 5334   5.160   4.026   5.072
    3OL    H10R 5335   5.192   3.923   5.090
    3OL    C111 5336   5.207   4.122   5.179
    3OL    H11R 5337   5.209   4.226   5.146
    3OL    H11S 5338   5.305   4.089   5.213
    3OL    C112 5339   5.117   4.131   5.302
    3OL    H12R 5340   5.076   4.030   5.312
    3OL    H12S 5341   5.031   4.195   5.285
    3OL    C113 5342   5.194   4.151   5.433
    3OL    H13R 5343   5.287   4.094   5.434
    3OL    H13S 5344   5.133   4.109   5.514
    3OL    C114 5345   5.237   4.297   5.454
    3OL    H14R 5346   5.153   4.367   5.464
    3OL    H14S 5347   5.305   4.319   5.372
    3OL    C115 5348   5.324   4.318   5.579
    3OL    H15R 5349   5.361   4.420   5.579
    3OL    H15S 5350   5.420   4.268   5.562
    3OL    C116 5351   5.261   4.303   5.718
    3OL    H16R 5352   5.325   4.344   5.796
    3OL    H16S 5353   5.252   4.194   5.721
    3OL    C117 5354   5.118   4.358   5.728
    3OL    H17R 5355   5.048   4.274   5.727
    3OL    H17S 5356   5.102   4.421   5.640
    3OL    C118 5357   5.112   4.442   5.856
    3OL    H18R 5358   5.006   4.465   5.864
    3OL    H18S 5359   5.176   4.527   5.831
    3OL    H18T 5360   5.147   4.388   5.944
    1PA    C116 5361   4.319   0.623   3.798
    1PA    H16R 5362   4.232   0.611   3.732
    1PA    H16S 5363   4.411   0.586   3.752
    1PA    H16T 5364   4.345   0.721   3.839
    1PA    C115 5365   4.290   0.527   3.914
    1PA    H15R 5366   4.358   0.541   3.998
    1PA    H15S 5367   4.192   0.555   3.953
    1PA    C114 5368   4.318   0.383   3.868
    1PA    H14R 5369   4.268   0.363   3.773
    1PA    H14S 5370   4.424   0.363   3.852
    1PA    C113 5371   4.266   0.279   3.967
    1PA    H13R 5372   4.167   0.311   4.000
    1PA    H13S 5373   4.243   0.185   3.916
    1PA    C112 5374   4.360   0.255   4.086
    1PA    H12R 5375   4.462   0.246   4.048
    1PA    H12S 5376   4.367   0.344   4.149
    1PA    C111 5377   4.314   0.131   4.163
    1PA    H11R 5378   4.373   0.128   4.254
    1PA    H11S 5379   4.209   0.134   4.192
    1PA    C110 5380   4.356   0.004   4.087
    1PA    H10R 5381   4.308   0.023   3.991
    1PA    H10S 5382   4.464   0.001   4.069
    1PA     C19 5383   4.302   6.362   4.151
    1PA     H9R 5384   4.196   6.368   4.177
    1PA     H9S 5385   4.302   6.288   4.070
    1PA     C18 5386   4.388   6.321   4.272
    1PA     H8R 5387   4.493   6.336   4.245
    1PA     H8S 5388   4.383   6.391   4.356
    1PA     C17 5389   4.356   6.181   4.324
    1PA     H7R 5390   4.250   6.181   4.353
    1PA     H7S 5391   4.365   6.099   4.252
    1PA     C16 5392   4.442   6.138   4.444
    1PA     H6R 5393   4.447   6.030   4.433
    1PA     H6S 5394   4.545   6.174   4.440
    1PA     C15 5395   4.383   6.181   4.579
    1PA     H5R 5396   4.467   6.201   4.645
    1PA     H5S 5397   4.332   6.278   4.575
    1PA     C14 5398   4.299   6.071   4.646
    1PA     H4R 5399   4.211   6.064   4.582
    1PA     H4S 5400   4.353   5.976   4.638
    1PA     C13 5401   4.239   6.109   4.782
    1PA     H3R 5402   4.313   6.108   4.862
    1PA     H3S 5403   4.189   6.206   4.781
    1PA     C12 5404   4.133   6.005   4.823
    1PA     H2R 5405   4.042   6.014   4.763
    1PA     H2S 5406   4.174   5.907   4.801
    2PC     C11 5407   4.098   6.021   4.969
    2PC     O12 5408   4.076   6.124   5.029
    2PC     O11 5409   4.110   5.902   5.030
    2PC      C1 5410   4.087   5.900   5.172
    2PC      HR 5411   4.118   5.800   5.204
    2PC      HS 5412   4.156   5.971   5.217
    2PC      C2 5413   3.940   5.918   5.213
    2PC      HX 5414   3.910   6.023   5.205
    2PC      C3 5415   3.926   5.876   5.360
    2PC      HA 5416   3.913   5.772   5.391
    2PC      HB 5417   4.017   5.901   5.416
    2PC     O31 5418   3.826   5.954   5.428
    2PC     P31 5419   3.837   5.981   5.585
    2PC     O32 5420   3.713   6.081   5.607
    2PC     C31 5421   3.747   6.218   5.629
    2PC     H1A 5422   3.833   6.251   5.569
    2PC     H1B 5423   3.666   6.285   5.599
    2PC     C32 5424   3.763   6.243   5.780
    2PC     H2A 5425   3.664   6.224   5.823
    2PC     H2B 5426   3.839   6.178   5.821
    2PC     N31 5427   3.808   6.375   5.835
    2PC     C33 5428   3.705   6.478   5.800
    2PC     H3A 5429   3.612   6.437   5.839
    2PC     H3B 5430   3.726   0.083   5.856
    2PC     H3C 5431   3.700   0.007   5.692
    2PC     C34 5432   3.811   6.374   5.985
    2PC     H4A 5433   3.713   6.345   6.023
    2PC     H4B 5434   3.885   6.306   6.029
    2PC     H4C 5435   3.840   6.470   6.027
    2PC     C35 5436   3.944   6.419   5.793
    2PC     H5A 5437   4.011   6.338   5.823
    2PC     H5B 5438   3.960   0.026   5.847
    2PC     H5C 5439   3.940   6.426   5.684
    2PC     O33 5440   3.824   5.860   5.670
    2PC     O34 5441   3.960   6.056   5.620
    2PC     O21 5442   3.858   5.837   5.126
    2PC     C21 5443   3.854   5.703   5.121
    2PC     O22 5444   3.921   5.634   5.195
    3OL     C12 5445   3.733   5.672   5.036
    3OL     H2R 5446   3.644   5.729   5.063
    3OL     H2S 5447   3.708   5.566   5.036
    3OL     C13 5448   3.748   5.713   4.889
    3OL     H3R 5449   3.810   5.802   4.894
    3OL     H3S 5450   3.652   5.743   4.848
    3OL     C14 5451   3.835   5.610   4.815
    3OL     H4R 5452   3.791   5.512   4.835
    3OL     H4S 5453   3.939   5.608   4.848
    3OL     C15 5454   3.820   5.642   4.665
    3OL     H5R 5455   3.858   5.743   4.648
    3OL     H5S 5456   3.715   5.631   4.639
    3OL     C16 5457   3.908   5.548   4.581
    3OL     H6R 5458   3.868   5.447   4.592
    3OL     H6S 5459   4.011   5.546   4.616
    3OL     C17 5460   3.915   5.606   4.440
    3OL     H7R 5461   3.965   5.703   4.452
    3OL     H7S 5462   3.819   5.636   4.397
    3OL     C18 5463   4.008   5.529   4.346
    3OL     H8R 5464   4.109   5.528   4.389
    3OL     H8S 5465   4.023   5.588   4.255
    3OL     C19 5466   3.949   5.393   4.318
    3OL     H9R 5467   3.847   5.386   4.282
    3OL    C110 5468   4.016   5.279   4.335
    3OL    H10R 5469   3.969   5.190   4.296
    3OL    C111 5470   4.164   5.256   4.356
    3OL    H11R 5471   4.185   5.233   4.460
    3OL    H11S 5472   4.230   5.334   4.318
    3OL    C112 5473   4.208   5.131   4.279
    3OL    H12R 5474   4.313   5.129   4.310
    3OL    H12S 5475   4.197   5.154   4.172
    3OL    C113 5476   4.136   5.007   4.332
    3OL    H13R 5477   4.028   5.018   4.333
    3OL    H13S 5478   4.178   4.971   4.427
    3OL    C114 5479   4.173   4.895   4.233
    3OL    H14R 5480   4.161   4.921   4.128
    3OL    H14S 5481   4.107   4.810   4.253
    3OL    C115 5482   4.318   4.856   4.264
    3OL    H15R 5483   4.322   4.838   4.372
    3OL    H15S 5484   4.380   4.943   4.242
    3OL    C116 5485   4.362   4.738   4.176
    3OL    H16R 5486   4.363   4.764   4.070
    3OL    H16S 5487   4.288   4.658   4.182
    3OL    C117 5488   4.503   4.699   4.223
    3OL    H17R 5489   4.506   4.676   4.330
    3OL    H17S 5490   4.572   4.775   4.185
    3OL    C118 5491   4.544   4.568   4.154
    3OL    H18R 5492   4.650   4.558   4.180
    3OL    H18S 5493   4.530   4.567   4.046
    3OL    H18T 5494   4.489   4.479   4.185
    1PA    C116 5495   1.479   4.459   3.674
    1PA    H16R 5496   1.577   4.415   3.656
    1PA    H16S 5497   1.469   4.527   3.588
    1PA    H16T 5498   1.410   4.374   3.675
    1PA    C115 5499   1.474   4.540   3.804
    1PA    H15R 5500   1.476   4.647   3.783
    1PA    H15S 5501   1.378   4.525   3.855
    1PA    C114 5502   1.588   4.496   3.895
    1PA    H14R 5503   1.570   4.388   3.905
    1PA    H14S 5504   1.685   4.503   3.845
    1PA    C113 5505   1.592   4.576   4.026
    1PA    H13R 5506   1.502   4.610   4.077
    1PA    H13S 5507   1.636   4.502   4.093
    1PA    C112 5508   1.695   4.690   4.012
    1PA    H12R 5509   1.793   4.643   4.021
    1PA    H12S 5510   1.689   4.734   3.912
    1PA    C111 5511   1.673   4.791   4.125
    1PA    H11R 5512   1.620   4.742   4.208
    1PA    H11S 5513   1.771   4.826   4.159
    1PA    C110 5514   1.588   4.905   4.068
    1PA    H10R 5515   1.655   4.957   4.000
    1PA    H10S 5516   1.503   4.865   4.013
    1PA     C19 5517   1.544   5.009   4.173
    1PA     H9R 5518   1.468   5.070   4.124
    1PA     H9S 5519   1.495   4.958   4.256
    1PA     C18 5520   1.667   5.093   4.208
    1PA     H8R 5521   1.757   5.038   4.237
    1PA     H8S 5522   1.690   5.157   4.122
    1PA     C17 5523   1.637   5.170   4.337
    1PA     H7R 5524   1.559   5.243   4.314
    1PA     H7S 5525   1.589   5.100   4.405
    1PA     C16 5526   1.757   5.243   4.400
    1PA     H6R 5527   1.845   5.179   4.401
    1PA     H6S 5528   1.787   5.319   4.328
    1PA     C15 5529   1.724   5.303   4.538
    1PA     H5R 5530   1.656   5.387   4.523
    1PA     H5S 5531   1.684   5.230   4.608
    1PA     C14 5532   1.846   5.382   4.588
    1PA     H4R 5533   1.934   5.319   4.601
    1PA     H4S 5534   1.874   5.458   4.514
    1PA     C13 5535   1.809   5.448   4.721
    1PA     H3R 5536   1.732   5.522   4.700
    1PA     H3S 5537   1.768   5.369   4.786
    1PA     C12 5538   1.921   5.509   4.806
    1PA     H2R 5539   1.981   5.428   4.847
    1PA     H2S 5540   1.976   5.574   4.738
    2PC     C11 5541   1.870   5.578   4.930
    2PC     O12 5542   1.752   5.585   4.961
    2PC     O11 5543   1.969   5.625   5.007
    2PC      C1 5544   1.924   5.661   5.139
    2PC      HR 5545   1.865   5.752   5.140
    2PC      HS 5546   1.875   5.573   5.181
    2PC      C2 5547   2.052   5.685   5.220
    2PC      HX 5548   2.132   5.616   5.193
    2PC      C3 5549   2.036   5.679   5.373
    2PC      HA 5550   1.965   5.755   5.407
    2PC      HB 5551   1.994   5.583   5.404
    2PC     O31 5552   2.162   5.695   5.439
    2PC     P31 5553   2.171   5.770   5.580
    2PC     O32 5554   2.141   5.673   5.704
    2PC     C31 5555   2.122   5.735   5.833
    2PC     H1A 5556   2.219   5.780   5.858
    2PC     H1B 5557   2.048   5.814   5.821
    2PC     C32 5558   2.077   5.626   5.931
    2PC     H2A 5559   2.100   5.662   6.031
    2PC     H2B 5560   1.970   5.606   5.921
    2PC     N31 5561   2.149   5.495   5.942
    2PC     C33 5562   2.091   5.429   6.063
    2PC     H3A 5563   2.052   5.512   6.123
    2PC     H3B 5564   2.002   5.373   6.034
    2PC     H3C 5565   2.161   5.371   6.124
    2PC     C34 5566   2.132   5.409   5.820
    2PC     H4A 5567   2.028   5.396   5.791
    2PC     H4B 5568   2.176   5.452   5.730
    2PC     H4C 5569   2.187   5.318   5.844
    2PC     C35 5570   2.295   5.522   5.964
    2PC     H5A 5571   2.298   5.558   6.067
    2PC     H5B 5572   2.337   5.596   5.895
    2PC     H5C 5573   2.356   5.432   5.962
    2PC     O33 5574   2.302   5.834   5.608
    2PC     O34 5575   2.076   5.883   5.569
    2PC     O21 5576   2.098   5.818   5.189
    2PC     C21 5577   2.196   5.834   5.098
    2PC     O22 5578   2.275   5.749   5.064
    3OL     C12 5579   2.203   5.979   5.057
    3OL     H2R 5580   2.228   6.035   5.148
    3OL     H2S 5581   2.110   6.017   5.016
    3OL     C13 5582   2.316   6.005   4.956
    3OL     H3R 5583   2.292   5.940   4.872
    3OL     H3S 5584   2.404   5.954   4.995
    3OL     C14 5585   2.329   6.154   4.920
    3OL     H4R 5586   2.369   6.207   5.007
    3OL     H4S 5587   2.234   6.198   4.889
    3OL     C15 5588   2.440   6.179   4.817
    3OL     H5R 5589   2.535   6.140   4.854
    3OL     H5S 5590   2.462   6.285   4.800
    3OL     C16 5591   2.403   6.127   4.677
    3OL     H6R 5592   2.312   6.180   4.647
    3OL     H6S 5593   2.359   6.027   4.685
    3OL     C17 5594   2.511   6.137   4.569
    3OL     H7R 5595   2.470   6.085   4.483
    3OL     H7S 5596   2.607   6.099   4.605
    3OL     C18 5597   2.523   6.285   4.528
    3OL     H8R 5598   2.565   6.342   4.611
    3OL     H8S 5599   2.428   6.336   4.507
    3OL     C19 5600   2.619   6.286   4.412
    3OL     H9R 5601   2.708   6.227   4.435
    3OL    C110 5602   2.622   6.367   4.308
    3OL    H10R 5603   2.714   6.365   4.251
    3OL    C111 5604   2.513   6.459   4.260
    3OL    H11R 5605   2.555   0.072   4.244
    3OL    H11S 5606   2.424   6.458   4.323
    3OL    C112 5607   2.475   6.402   4.123
    3OL    H12R 5608   2.416   6.312   4.142
    3OL    H12S 5609   2.569   6.372   4.076
    3OL    C113 5610   2.396   0.014   4.036
    3OL    H13R 5611   2.435   0.116   4.035
    3OL    H13S 5612   2.310   0.028   4.102
    3OL    C114 5613   2.353   6.455   3.896
    3OL    H14R 5614   2.271   0.036   3.869
    3OL    H14S 5615   2.332   6.348   3.890
    3OL    C115 5616   2.468   6.473   3.795
    3OL    H15R 5617   2.549   6.404   3.817
    3OL    H15S 5618   2.506   0.089   3.792
    3OL    C116 5619   2.430   6.448   3.649
    3OL    H16R 5620   2.344   0.018   3.612
    3OL    H16S 5621   2.405   6.341   3.647
    3OL    C117 5622   2.531   6.484   3.539
    3OL    H17R 5623   2.549   0.105   3.545
    3OL    H17S 5624   2.492   6.457   3.440
    3OL    C118 5625   2.666   6.416   3.562
    3OL    H18R 5626   2.724   6.442   3.474
    3OL    H18S 5627   2.663   6.307   3.570
    3OL    H18T 5628   2.716   6.456   3.651
    1PA    C116 5629   2.073   2.684   3.679
    1PA    H16R 5630   2.174   2.678   3.638
    1PA    H16S 5631   2.011   2.705   3.591
    1PA    H16T 5632   2.049   2.590   3.729
    1PA    C115 5633   2.057   2.798   3.780
    1PA    H15R 5634   2.103   2.765   3.873
    1PA    H15S 5635   2.117   2.882   3.742
    1PA    C114 5636   1.908   2.832   3.797
    1PA    H14R 5637   1.867   2.874   3.705
    1PA    H14S 5638   1.860   2.742   3.834
    1PA    C113 5639   1.903   2.933   3.913
    1PA    H13R 5640   2.000   2.984   3.914
    1PA    H13S 5641   1.827   3.008   3.891
    1PA    C112 5642   1.874   2.857   4.043
    1PA    H12R 5643   1.778   2.806   4.032
    1PA    H12S 5644   1.950   2.783   4.069
    1PA    C111 5645   1.872   2.955   4.160
    1PA    H11R 5646   1.974   2.994   4.155
    1PA    H11S 5647   1.793   3.030   4.157
    1PA    C110 5648   1.866   2.877   4.293
    1PA    H10R 5649   1.779   2.812   4.294
    1PA    H10S 5650   1.957   2.819   4.303
    1PA     C19 5651   1.861   2.961   4.421
    1PA     H9R 5652   1.871   2.895   4.508
    1PA     H9S 5653   1.955   3.015   4.432
    1PA     C18 5654   1.739   3.051   4.446
    1PA     H8R 5655   1.739   3.129   4.369
    1PA     H8S 5656   1.655   2.984   4.432
    1PA     C17 5657   1.735   3.108   4.588
    1PA     H7R 5658   1.639   3.160   4.599
    1PA     H7S 5659   1.730   3.026   4.660
    1PA     C16 5660   1.842   3.213   4.621
    1PA     H6R 5661   1.932   3.151   4.618
    1PA     H6S 5662   1.849   3.294   4.548
    1PA     C15 5663   1.834   3.273   4.762
    1PA     H5R 5664   1.894   3.363   4.773
    1PA     H5S 5665   1.734   3.313   4.783
    1PA     C14 5666   1.878   3.166   4.863
    1PA     H4R 5667   1.801   3.090   4.873
    1PA     H4S 5668   1.970   3.111   4.843
    1PA     C13 5669   1.902   3.231   5.001
    1PA     H3R 5670   2.008   3.250   5.012
    1PA     H3S 5671   1.844   3.323   5.012
    1PA     C12 5672   1.859   3.142   5.119
    1PA     H2R 5673   1.751   3.124   5.115
    1PA     H2S 5674   1.904   3.044   5.103
    2PC     C11 5675   1.915   3.185   5.252
    2PC     O12 5676   1.847   3.240   5.336
    2PC     O11 5677   2.048   3.169   5.258
    2PC      C1 5678   2.109   3.242   5.365
    2PC      HR 5679   2.113   3.351   5.358
    2PC      HS 5680   2.059   3.228   5.461
    2PC      C2 5681   2.256   3.201   5.382
    2PC      HX 5682   2.253   3.095   5.410
    2PC      C3 5683   2.326   3.286   5.488
    2PC      HA 5684   2.292   3.247   5.585
    2PC      HB 5685   2.434   3.266   5.490
    2PC     O31 5686   2.292   3.426   5.488
    2PC     P31 5687   2.353   3.514   5.608
    2PC     O32 5688   2.264   3.465   5.732
    2PC     C31 5689   2.194   3.568   5.803
    2PC     H1A 5690   2.262   3.650   5.827
    2PC     H1B 5691   2.115   3.614   5.743
    2PC     C32 5692   2.137   3.500   5.928
    2PC     H2A 5693   2.220   3.442   5.969
    2PC     H2B 5694   2.106   3.582   5.993
    2PC     N31 5695   2.016   3.412   5.924
    2PC     C33 5696   2.024   3.316   5.810
    2PC     H3A 5697   2.090   3.231   5.829
    2PC     H3B 5698   1.926   3.269   5.800
    2PC     H3C 5699   2.059   3.370   5.722
    2PC     C34 5700   2.002   3.346   6.058
    2PC     H4A 5701   2.056   3.252   6.066
    2PC     H4B 5702   2.038   3.419   6.132
    2PC     H4C 5703   1.895   3.327   6.067
    2PC     C35 5704   1.893   3.495   5.900
    2PC     H5A 5705   1.905   3.549   5.805
    2PC     H5B 5706   1.892   3.573   5.977
    2PC     H5C 5707   1.806   3.430   5.898
    2PC     O33 5708   2.495   3.478   5.624
    2PC     O34 5709   2.356   3.660   5.586
    2PC     O21 5710   2.323   3.219   5.256
    2PC     C21 5711   2.300   3.133   5.155
    2PC     O22 5712   2.247   3.025   5.163
    3OL     C12 5713   2.339   3.196   5.023
    3OL     H2R 5714   2.445   3.219   5.018
    3OL     H2S 5715   2.278   3.287   5.012
    3OL     C13 5716   2.306   3.095   4.913
    3OL     H3R 5717   2.204   3.056   4.910
    3OL     H3S 5718   2.370   3.008   4.932
    3OL     C14 5719   2.333   3.172   4.783
    3OL     H4R 5720   2.431   3.221   4.786
    3OL     H4S 5721   2.272   3.262   4.782
    3OL     C15 5722   2.301   3.083   4.661
    3OL     H5R 5723   2.194   3.075   4.640
    3OL     H5S 5724   2.350   2.986   4.672
    3OL     C16 5725   2.377   3.152   4.547
    3OL     H6R 5726   2.478   3.164   4.585
    3OL     H6S 5727   2.332   3.248   4.521
    3OL     C17 5728   2.380   3.074   4.415
    3OL     H7R 5729   2.457   2.997   4.415
    3OL     H7S 5730   2.405   3.141   4.333
    3OL     C18 5731   2.246   3.012   4.370
    3OL     H8R 5732   2.170   3.091   4.371
    3OL     H8S 5733   2.198   2.942   4.439
    3OL     C19 5734   2.259   2.961   4.229
    3OL     H9R 5735   2.226   3.031   4.154
    3OL    C110 5736   2.309   2.843   4.194
    3OL    H10R 5737   2.306   2.818   4.089
    3OL    C111 5738   2.347   2.739   4.297
    3OL    H11R 5739   2.312   2.766   4.397
    3OL    H11S 5740   2.456   2.737   4.304
    3OL    C112 5741   2.307   2.594   4.269
    3OL    H12R 5742   2.316   2.544   4.366
    3OL    H12S 5743   2.385   2.547   4.208
    3OL    C113 5744   2.167   2.589   4.206
    3OL    H13R 5745   2.165   2.637   4.109
    3OL    H13S 5746   2.099   2.636   4.278
    3OL    C114 5747   2.126   2.444   4.174
    3OL    H14R 5748   2.136   2.399   4.272
    3OL    H14S 5749   2.203   2.410   4.104
    3OL    C115 5750   1.980   2.425   4.129
    3OL    H15R 5751   1.922   2.477   4.205
    3OL    H15S 5752   1.953   2.320   4.127
    3OL    C116 5753   1.949   2.491   3.993
    3OL    H16R 5754   2.030   2.471   3.923
    3OL    H16S 5755   1.962   2.599   3.993
    3OL    C117 5756   1.809   2.457   3.941
    3OL    H17R 5757   1.794   2.350   3.928
    3OL    H17S 5758   1.793   2.506   3.845
    3OL    C118 5759   1.694   2.500   4.034
    3OL    H18R 5760   1.701   2.605   4.064
    3OL    H18S 5761   1.686   2.424   4.112
    3OL    H18T 5762   1.600   2.487   3.980
    1PA    C116 5763   5.365   3.868   3.612
    1PA    H16R 5764   5.414   3.966   3.618
    1PA    H16S 5765   5.259   3.884   3.594
    1PA    H16T 5766   5.399   3.808   3.527
    1PA    C115 5767   5.376   3.787   3.742
    1PA    H15R 5768   5.320   3.693   3.733
    1PA    H15S 5769   5.483   3.770   3.758
    1PA    C114 5770   5.316   3.858   3.864
    1PA    H14R 5771   5.367   3.951   3.888
    1PA    H14S 5772   5.218   3.887   3.825
    1PA    C113 5773   5.323   3.772   3.990
    1PA    H13R 5774   5.258   3.805   4.071
    1PA    H13S 5775   5.282   3.671   3.975
    1PA    C112 5776   5.464   3.748   4.046
    1PA    H12R 5777   5.451   3.678   4.129
    1PA    H12S 5778   5.530   3.696   3.978
    1PA    C111 5779   5.536   3.871   4.102
    1PA    H11R 5780   5.556   3.938   4.018
    1PA    H11S 5781   5.467   3.916   4.174
    1PA    C110 5782   5.671   3.846   4.170
    1PA    H10R 5783   5.701   3.741   4.164
    1PA    H10S 5784   5.744   3.909   4.118
    1PA     C19 5785   5.663   3.853   4.323
    1PA     H9R 5786   5.600   3.940   4.345
    1PA     H9S 5787   5.597   3.779   4.368
    1PA     C18 5788   5.802   3.856   4.387
    1PA     H8R 5789   5.857   3.763   4.369
    1PA     H8S 5790   5.854   3.929   4.324
    1PA     C17 5791   5.800   3.899   4.535
    1PA     H7R 5792   5.768   4.003   4.531
    1PA     H7S 5793   5.720   3.841   4.581
    1PA     C16 5794   5.931   3.879   4.613
    1PA     H6R 5795   5.984   3.787   4.588
    1PA     H6S 5796   5.995   3.964   4.589
    1PA     C15 5797   5.910   3.873   4.765
    1PA     H5R 5798   5.862   3.966   4.797
    1PA     H5S 5799   5.850   3.785   4.786
    1PA     C14 5800   6.042   3.860   4.842
    1PA     H4R 5801   6.098   3.772   4.811
    1PA     H4S 5802   6.105   3.947   4.823
    1PA     C13 5803   6.024   3.843   4.994
    1PA     H3R 5804   5.970   3.931   5.030
    1PA     H3S 5805   5.965   3.755   5.022
    1PA     C12 5806   6.154   3.836   5.075
    1PA     H2R 5807   6.204   3.739   5.065
    1PA     H2S 5808   6.220   3.917   5.042
    2PC     C11 5809   6.121   3.857   5.220
    2PC     O12 5810   6.033   3.926   5.267
    2PC     O11 5811   6.187   3.766   5.294
    2PC      C1 5812   6.142   3.743   5.429
    2PC      HR 5813   6.205   3.679   5.490
    2PC      HS 5814   6.129   3.840   5.479
    2PC      C2 5815   6.005   3.673   5.429
    2PC      HX 5816   5.928   3.741   5.393
    2PC      C3 5817   5.971   3.631   5.572
    2PC      HA 5818   5.963   3.720   5.636
    2PC      HB 5819   5.891   3.556   5.573
    2PC     O31 5820   6.084   3.552   5.613
    2PC     P31 5821   6.060   3.457   5.740
    2PC     O32 5822   6.142   3.535   5.854
    2PC     C31 5823   6.081   3.656   5.900
    2PC     H1A 5824   6.084   3.714   5.808
    2PC     H1B 5825   5.983   3.620   5.933
    2PC     C32 5826   6.163   3.720   6.013
    2PC     H2A 5827   6.270   3.713   5.995
    2PC     H2B 5828   6.140   3.827   6.011
    2PC     N31 5829   6.128   3.678   6.153
    2PC     C33 5830   6.202   3.762   6.252
    2PC     H3A 5831   6.158   3.758   6.352
    2PC     H3B 5832   6.308   3.737   6.243
    2PC     H3C 5833   6.184   3.864   6.217
    2PC     C34 5834   5.980   3.692   6.176
    2PC     H4A 5835   5.922   3.635   6.104
    2PC     H4B 5836   5.954   3.655   6.275
    2PC     H4C 5837   5.953   3.798   6.180
    2PC     C35 5838   6.171   3.538   6.183
    2PC     H5A 5839   6.278   3.523   6.198
    2PC     H5B 5840   6.143   3.474   6.098
    2PC     H5C 5841   6.120   3.510   6.275
    2PC     O33 5842   5.922   3.423   5.782
    2PC     O34 5843   6.115   3.322   5.717
    2PC     O21 5844   6.013   3.558   5.343
    2PC     C21 5845   5.913   3.470   5.325
    2PC     O22 5846   5.804   3.475   5.380
    3OL     C12 5847   5.946   3.366   5.222
    3OL     H2R 5848   5.859   3.300   5.212
    3OL     H2S 5849   6.016   3.296   5.267
    3OL     C13 5850   5.986   3.432   5.089
    3OL     H3R 5851   6.071   3.496   5.114
    3OL     H3S 5852   5.904   3.500   5.067
    3OL     C14 5853   6.014   3.343   4.967
    3OL     H4R 5854   5.930   3.277   4.945
    3OL     H4S 5855   6.090   3.268   4.990
    3OL     C15 5856   6.050   3.440   4.854
    3OL     H5R 5857   6.136   3.503   4.878
    3OL     H5S 5858   5.963   3.504   4.838
    3OL     C16 5859   6.086   3.372   4.721
    3OL     H6R 5860   6.001   3.327   4.669
    3OL     H6S 5861   6.158   3.290   4.732
    3OL     C17 5862   6.133   3.487   4.630
    3OL     H7R 5863   6.213   3.543   4.679
    3OL     H7S 5864   6.046   3.549   4.608
    3OL     C18 5865   6.177   3.442   4.490
    3OL     H8R 5866   6.253   3.364   4.485
    3OL     H8S 5867   6.237   3.523   4.449
    3OL     C19 5868   6.061   3.416   4.397
    3OL     H9R 5869   5.989   3.495   4.374
    3OL    C110 5870   6.031   3.302   4.337
    3OL    H10R 5871   5.949   3.310   4.266
    3OL    C111 5872   6.112   3.175   4.345
    3OL    H11R 5873   6.194   3.179   4.417
    3OL    H11S 5874   6.154   3.147   4.248
    3OL    C112 5875   6.022   3.060   4.394
    3OL    H12R 5876   6.062   2.962   4.370
    3OL    H12S 5877   5.930   3.086   4.342
    3OL    C113 5878   5.986   3.063   4.543
    3OL    H13R 5879   5.913   3.140   4.569
    3OL    H13S 5880   6.084   3.077   4.588
    3OL    C114 5881   5.942   2.923   4.589
    3OL    H14R 5882   6.020   2.851   4.564
    3OL    H14S 5883   5.851   2.897   4.535
    3OL    C115 5884   5.916   2.912   4.740
    3OL    H15R 5885   6.003   2.946   4.797
    3OL    H15S 5886   5.893   2.807   4.762
    3OL    C116 5887   5.803   3.000   4.795
    3OL    H16R 5888   5.829   3.106   4.804
    3OL    H16S 5889   5.785   2.960   4.895
    3OL    C117 5890   5.675   2.976   4.713
    3OL    H17R 5891   5.654   2.870   4.696
    3OL    H17S 5892   5.680   3.009   4.609
    3OL    C118 5893   5.558   3.058   4.768
    3OL    H18R 5894   5.592   3.162   4.766
    3OL    H18S 5895   5.532   3.033   4.871
    3OL    H18T 5896   5.469   3.049   4.704
    1PA    C116 5897   3.579   5.970   3.416
    1PA    H16R 5898   3.641   5.909   3.482
    1PA    H16S 5899   3.659   6.039   3.389
    1PA    H16T 5900   3.546   5.917   3.326
    1PA    C115 5901   3.467   6.046   3.487
    1PA    H15R 5902   3.420   6.119   3.421
    1PA    H15S 5903   3.390   5.972   3.513
    1PA    C114 5904   3.514   6.107   3.620
    1PA    H14R 5905   3.546   6.031   3.691
    1PA    H14S 5906   3.597   6.176   3.600
    1PA    C113 5907   3.401   6.198   3.669
    1PA    H13R 5908   3.378   6.280   3.600
    1PA    H13S 5909   3.308   6.140   3.675
    1PA    C112 5910   3.445   6.261   3.802
    1PA    H12R 5911   3.552   6.284   3.803
    1PA    H12S 5912   3.388   6.354   3.806
    1PA    C111 5913   3.415   6.173   3.925
    1PA    H11R 5914   3.469   6.079   3.933
    1PA    H11S 5915   3.450   6.222   4.016
    1PA    C110 5916   3.269   6.133   3.951
    1PA    H10R 5917   3.211   6.225   3.951
    1PA    H10S 5918   3.227   6.077   3.867
    1PA     C19 5919   3.260   6.062   4.087
    1PA     H9R 5920   3.337   5.984   4.082
    1PA     H9S 5921   3.291   6.134   4.163
    1PA     C18 5922   3.116   6.012   4.107
    1PA     H8R 5923   3.057   6.103   4.104
    1PA     H8S 5924   3.078   5.962   4.017
    1PA     C17 5925   3.097   5.929   4.234
    1PA     H7R 5926   3.166   5.844   4.240
    1PA     H7S 5927   3.112   5.987   4.325
    1PA     C16 5928   2.950   5.883   4.240
    1PA     H6R 5929   2.880   5.967   4.232
    1PA     H6S 5930   2.923   5.811   4.162
    1PA     C15 5931   2.913   5.805   4.366
    1PA     H5R 5932   2.814   5.759   4.356
    1PA     H5S 5933   2.984   5.724   4.383
    1PA     C14 5934   2.906   5.900   4.486
    1PA     H4R 5935   2.994   5.964   4.497
    1PA     H4S 5936   2.812   5.956   4.481
    1PA     C13 5937   2.885   5.826   4.619
    1PA     H3R 5938   2.798   5.762   4.601
    1PA     H3S 5939   2.973   5.763   4.632
    1PA     C12 5940   2.866   5.926   4.734
    1PA     H2R 5941   2.947   5.999   4.735
    1PA     H2S 5942   2.774   5.980   4.714
    2PC     C11 5943   2.869   5.850   4.864
    2PC     O12 5944   2.767   5.835   4.930
    2PC     O11 5945   2.986   5.792   4.896
    2PC      C1 5946   2.990   5.691   4.999
    2PC      HR 5947   3.088   5.690   5.046
    2PC      HS 5948   2.909   5.705   5.071
    2PC      C2 5949   2.964   5.556   4.931
    2PC      HX 5950   2.883   5.569   4.858
    2PC      C3 5951   2.924   5.452   5.037
    2PC      HA 5952   2.836   5.486   5.092
    2PC      HB 5953   2.906   5.356   4.988
    2PC     O31 5954   3.022   5.427   5.139
    2PC     P31 5955   2.978   5.319   5.249
    2PC     O32 5956   3.004   5.197   5.148
    2PC     C31 5957   3.123   5.117   5.148
    2PC     H1A 5958   3.196   5.184   5.101
    2PC     H1B 5959   3.147   5.103   5.253
    2PC     C32 5960   3.112   4.984   5.071
    2PC     H2A 5961   3.041   4.927   5.130
    2PC     H2B 5962   3.060   4.996   4.976
    2PC     N31 5963   3.240   4.911   5.044
    2PC     C33 5964   3.312   4.875   5.171
    2PC     H3A 5965   3.398   4.809   5.160
    2PC     H3B 5966   3.353   4.964   5.219
    2PC     H3C 5967   3.242   4.821   5.235
    2PC     C34 5968   3.207   4.782   4.975
    2PC     H4A 5969   3.306   4.740   4.954
    2PC     H4B 5970   3.157   4.712   5.042
    2PC     H4C 5971   3.148   4.795   4.885
    2PC     C35 5972   3.318   4.997   4.949
    2PC     H5A 5973   3.350   5.086   5.003
    2PC     H5B 5974   3.256   5.028   4.864
    2PC     H5C 5975   3.407   4.940   4.925
    2PC     O33 5976   3.054   5.340   5.374
    2PC     O34 5977   2.835   5.330   5.286
    2PC     O21 5978   3.077   5.513   4.854
    2PC     C21 5979   3.069   5.418   4.759
    2PC     O22 5980   2.961   5.376   4.724
    3OL     C12 5981   3.196   5.361   4.700
    3OL     H2R 5982   3.272   5.410   4.760
    3OL     H2S 5983   3.199   5.404   4.600
    3OL     C13 5984   3.203   5.208   4.704
    3OL     H3R 5985   3.116   5.170   4.649
    3OL     H3S 5986   3.196   5.174   4.808
    3OL     C14 5987   3.333   5.149   4.648
    3OL     H4R 5988   3.348   5.043   4.671
    3OL     H4S 5989   3.416   5.192   4.704
    3OL     C15 5990   3.356   5.164   4.497
    3OL     H5R 5991   3.338   5.268   4.468
    3OL     H5S 5992   3.273   5.113   4.446
    3OL     C16 5993   3.492   5.109   4.454
    3OL     H6R 5994   3.499   5.001   4.469
    3OL     H6S 5995   3.566   5.155   4.519
    3OL     C17 5996   3.501   5.144   4.304
    3OL     H7R 5997   3.472   5.248   4.287
    3OL     H7S 5998   3.427   5.094   4.242
    3OL     C18 5999   3.644   5.111   4.261
    3OL     H8R 6000   3.656   5.003   4.258
    3OL     H8S 6001   3.719   5.146   4.333
    3OL     C19 6002   3.671   5.172   4.125
    3OL     H9R 6003   3.606   5.257   4.106
    3OL    C110 6004   3.778   5.157   4.049
    3OL    H10R 6005   3.798   5.230   3.971
    3OL    C111 6006   3.885   5.052   4.063
    3OL    H11R 6007   3.870   4.995   4.155
    3OL    H11S 6008   3.981   5.104   4.062
    3OL    C112 6009   3.877   4.965   3.936
    3OL    H12R 6010   3.974   4.915   3.924
    3OL    H12S 6011   3.861   5.030   3.850
    3OL    C113 6012   3.769   4.857   3.948
    3OL    H13R 6013   3.670   4.901   3.962
    3OL    H13S 6014   3.794   4.799   4.037
    3OL    C114 6015   3.762   4.766   3.825
    3OL    H14R 6016   3.857   4.714   3.818
    3OL    H14S 6017   3.745   4.825   3.735
    3OL    C115 6018   3.653   4.659   3.843
    3OL    H15R 6019   3.558   4.709   3.863
    3OL    H15S 6020   3.668   4.606   3.938
    3OL    C116 6021   3.643   4.565   3.722
    3OL    H16R 6022   3.733   4.503   3.721
    3OL    H16S 6023   3.632   4.617   3.626
    3OL    C117 6024   3.531   4.461   3.726
    3OL    H17R 6025   3.568   4.380   3.788
    3OL    H17S 6026   3.514   4.414   3.628
    3OL    C118 6027   3.395   4.514   3.774
    3OL    H18R 6028   3.321   4.437   3.752
    3OL    H18S 6029   3.363   4.606   3.725
    3OL    H18T 6030   3.393   4.535   3.881
    1PA    C116 6031   2.217   1.254   4.274
    1PA    H16R 6032   2.253   1.290   4.177
    1PA    H16S 6033   2.301   1.237   4.342
    1PA    H16T 6034   2.153   1.334   4.313
    1PA    C115 6035   2.120   1.137   4.259
    1PA    H15R 6036   2.034   1.149   4.192
    1PA    H15S 6037   2.171   1.057   4.204
    1PA    C114 6038   2.071   1.093   4.398
    1PA    H14R 6039   2.020   1.163   4.465
    1PA    H14S 6040   1.997   1.015   4.384
    1PA    C113 6041   2.177   1.015   4.477
    1PA    H13R 6042   2.192   0.920   4.426
    1PA    H13S 6043   2.269   1.075   4.476
    1PA    C112 6044   2.124   0.985   4.618
    1PA    H12R 6045   2.105   1.082   4.666
    1PA    H12S 6046   2.032   0.927   4.612
    1PA    C111 6047   2.215   0.896   4.703
    1PA    H11R 6048   2.254   0.804   4.657
    1PA    H11S 6049   2.309   0.951   4.709
    1PA    C110 6050   2.173   0.870   4.848
    1PA    H10R 6051   2.145   0.964   4.897
    1PA    H10S 6052   2.092   0.797   4.843
    1PA     C19 6053   2.287   0.807   4.929
    1PA     H9R 6054   2.308   0.702   4.906
    1PA     H9S 6055   2.369   0.879   4.924
    1PA     C18 6056   2.238   0.788   5.073
    1PA     H8R 6057   2.161   0.853   5.115
    1PA     H8S 6058   2.178   0.697   5.063
    1PA     C17 6059   2.354   0.780   5.172
    1PA     H7R 6060   2.402   0.879   5.171
    1PA     H7S 6061   2.312   0.767   5.272
    1PA     C16 6062   2.460   0.674   5.138
    1PA     H6R 6063   2.409   0.585   5.100
    1PA     H6S 6064   2.516   0.710   5.051
    1PA     C15 6065   2.564   0.640   5.245
    1PA     H5R 6066   2.612   0.730   5.282
    1PA     H5S 6067   2.508   0.592   5.325
    1PA     C14 6068   2.665   0.535   5.197
    1PA     H4R 6069   2.626   0.441   5.158
    1PA     H4S 6070   2.723   0.577   5.115
    1PA     C13 6071   2.766   0.498   5.307
    1PA     H3R 6072   2.713   0.483   5.401
    1PA     H3S 6073   2.788   0.400   5.265
    1PA     C12 6074   2.882   0.598   5.321
    1PA     H2R 6075   2.950   0.601   5.235
    1PA     H2S 6076   2.851   0.702   5.324
    2PC     C11 6077   2.968   0.576   5.443
    2PC     O12 6078   2.971   0.469   5.500
    2PC     O11 6079   3.028   0.688   5.486
    2PC      C1 6080   3.131   0.702   5.586
    2PC      HR 6081   3.149   0.810   5.597
    2PC      HS 6082   3.099   0.666   5.684
    2PC      C2 6083   3.254   0.628   5.530
    2PC      HX 6084   3.236   0.526   5.497
    2PC      C3 6085   3.376   0.627   5.623
    2PC      HA 6086   3.356   0.572   5.716
    2PC      HB 6087   3.459   0.583   5.569
    2PC     O31 6088   3.406   0.766   5.650
    2PC     P31 6089   3.535   0.808   5.735
    2PC     O32 6090   3.595   0.922   5.641
    2PC     C31 6091   3.738   0.932   5.655
    2PC     H1A 6092   3.784   0.843   5.698
    2PC     H1B 6093   3.769   0.945   5.551
    2PC     C32 6094   3.770   1.051   5.746
    2PC     H2A 6095   3.686   1.050   5.816
    2PC     H2B 6096   3.863   1.022   5.797
    2PC     N31 6097   3.784   1.193   5.700
    2PC     C33 6098   3.822   1.278   5.817
    2PC     H3A 6099   3.778   1.235   5.907
    2PC     H3B 6100   3.931   1.267   5.824
    2PC     H3C 6101   3.800   1.383   5.797
    2PC     C34 6102   3.884   1.210   5.590
    2PC     H4A 6103   3.887   1.313   5.554
    2PC     H4B 6104   3.976   1.163   5.626
    2PC     H4C 6105   3.854   1.151   5.503
    2PC     C35 6106   3.654   1.242   5.644
    2PC     H5A 6107   3.628   1.163   5.575
    2PC     H5B 6108   3.677   1.341   5.605
    2PC     H5C 6109   3.576   1.235   5.720
    2PC     O33 6110   3.500   0.855   5.871
    2PC     O34 6111   3.622   0.689   5.754
    2PC     O21 6112   3.286   0.697   5.408
    2PC     C21 6113   3.380   0.642   5.329
    2PC     O22 6114   3.415   0.527   5.345
    3OL     C12 6115   3.417   0.731   5.213
    3OL     H2R 6116   3.493   0.803   5.245
    3OL     H2S 6117   3.333   0.796   5.186
    3OL     C13 6118   3.477   0.650   5.097
    3OL     H3R 6119   3.398   0.592   5.049
    3OL     H3S 6120   3.552   0.581   5.134
    3OL     C14 6121   3.529   0.735   4.980
    3OL     H4R 6122   3.586   0.676   4.908
    3OL     H4S 6123   3.614   0.794   5.014
    3OL     C15 6124   3.426   0.824   4.909
    3OL     H5R 6125   3.417   0.912   4.973
    3OL     H5S 6126   3.332   0.772   4.891
    3OL     C16 6127   3.479   0.863   4.770
    3OL     H6R 6128   3.497   0.773   4.712
    3OL     H6S 6129   3.575   0.915   4.780
    3OL     C17 6130   3.386   0.954   4.688
    3OL     H7R 6131   3.284   0.916   4.698
    3OL     H7S 6132   3.404   0.946   4.581
    3OL     C18 6133   3.387   1.104   4.724
    3OL     H8R 6134   3.322   1.143   4.645
    3OL     H8S 6135   3.490   1.139   4.713
    3OL     C19 6136   3.334   1.151   4.857
    3OL     H9R 6137   3.328   1.078   4.937
    3OL    C110 6138   3.304   1.277   4.884
    3OL    H10R 6139   3.259   1.293   4.982
    3OL    C111 6140   3.300   1.400   4.797
    3OL    H11R 6141   3.331   1.365   4.698
    3OL    H11S 6142   3.367   1.472   4.844
    3OL    C112 6143   3.158   1.458   4.793
    3OL    H12R 6144   3.134   1.492   4.894
    3OL    H12S 6145   3.088   1.375   4.783
    3OL    C113 6146   3.127   1.565   4.688
    3OL    H13R 6147   3.144   1.527   4.587
    3OL    H13S 6148   3.199   1.646   4.700
    3OL    C114 6149   2.985   1.622   4.697
    3OL    H14R 6150   2.985   1.718   4.646
    3OL    H14S 6151   2.956   1.636   4.801
    3OL    C115 6152   2.876   1.532   4.637
    3OL    H15R 6153   2.775   1.546   4.678
    3OL    H15S 6154   2.891   1.426   4.659
    3OL    C116 6155   2.882   1.550   4.485
    3OL    H16R 6156   2.980   1.522   4.446
    3OL    H16S 6157   2.861   1.654   4.458
    3OL    C117 6158   2.771   1.472   4.412
    3OL    H17R 6159   2.774   1.364   4.429
    3OL    H17S 6160   2.792   1.475   4.305
    3OL    C118 6161   2.633   1.533   4.433
    3OL    H18R 6162   2.633   1.642   4.419
    3OL    H18S 6163   2.591   1.507   4.531
    3OL    H18T 6164   2.561   1.492   4.362
    1PA    C116 6165   5.939   4.662   3.541
    1PA    H16R 6166   5.957   4.616   3.443
    1PA    H16S 6167   5.956   4.769   3.533
    1PA    H16T 6168   5.831   4.649   3.553
    1PA    C115 6169   5.996   4.600   3.669
    1PA    H15R 6170   5.960   4.499   3.688
    1PA    H15S 6171   6.103   4.594   3.647
    1PA    C114 6172   5.967   4.683   3.795
    1PA    H14R 6173   6.024   4.775   3.790
    1PA    H14S 6174   5.863   4.715   3.799
    1PA    C113 6175   6.003   4.614   3.927
    1PA    H13R 6176   5.949   4.522   3.951
    1PA    H13S 6177   6.109   4.586   3.924
    1PA    C112 6178   6.003   4.716   4.041
    1PA    H12R 6179   6.064   4.801   4.011
    1PA    H12S 6180   5.899   4.748   4.049
    1PA    C111 6181   6.052   4.661   4.176
    1PA    H11R 6182   5.971   4.597   4.212
    1PA    H11S 6183   6.139   4.597   4.165
    1PA    C110 6184   6.098   4.764   4.279
    1PA    H10R 6185   6.136   4.715   4.369
    1PA    H10S 6186   6.177   4.833   4.247
    1PA     C19 6187   5.975   4.839   4.333
    1PA     H9R 6188   5.909   4.877   4.256
    1PA     H9S 6189   5.920   4.770   4.397
    1PA     C18 6190   6.018   4.967   4.407
    1PA     H8R 6191   6.076   5.029   4.338
    1PA     H8S 6192   5.933   5.025   4.441
    1PA     C17 6193   6.104   4.932   4.530
    1PA     H7R 6194   6.181   4.864   4.493
    1PA     H7S 6195   6.158   5.017   4.572
    1PA     C16 6196   6.025   4.861   4.641
    1PA     H6R 6197   5.952   4.926   4.689
    1PA     H6S 6198   5.981   4.772   4.595
    1PA     C15 6199   6.124   4.823   4.752
    1PA     H5R 6200   6.211   4.772   4.708
    1PA     H5S 6201   6.160   4.920   4.787
    1PA     C14 6202   6.061   4.738   4.864
    1PA     H4R 6203   6.000   4.659   4.820
    1PA     H4S 6204   6.130   4.692   4.934
    1PA     C13 6205   5.965   4.822   4.949
    1PA     H3R 6206   6.028   4.890   5.008
    1PA     H3S 6207   5.901   4.874   4.878
    1PA     C12 6208   5.874   4.748   5.048
    1PA     H2R 6209   5.807   4.824   5.090
    1PA     H2S 6210   5.821   4.663   5.005
    2PC     C11 6211   5.947   4.704   5.172
    2PC     O12 6212   6.060   4.734   5.203
    2PC     O11 6213   5.854   4.641   5.247
    2PC      C1 6214   5.877   4.600   5.382
    2PC      HR 6215   5.957   4.527   5.400
    2PC      HS 6216   5.907   4.695   5.426
    2PC      C2 6217   5.748   4.567   5.458
    2PC      HX 6218   5.683   4.655   5.463
    2PC      C3 6219   5.768   4.545   5.608
    2PC      HA 6220   5.848   4.472   5.621
    2PC      HB 6221   5.804   4.637   5.654
    2PC     O31 6222   5.641   4.501   5.662
    2PC     P31 6223   5.626   4.498   5.821
    2PC     O32 6224   5.607   4.340   5.840
    2PC     C31 6225   5.716   4.251   5.813
    2PC     H1A 6226   5.729   4.253   5.704
    2PC     H1B 6227   5.811   4.283   5.858
    2PC     C32 6228   5.688   4.105   5.854
    2PC     H2A 6229   5.610   4.073   5.785
    2PC     H2B 6230   5.780   4.047   5.847
    2PC     N31 6231   5.631   4.094   5.992
    2PC     C33 6232   5.715   4.152   6.101
    2PC     H3A 6233   5.668   4.118   6.193
    2PC     H3B 6234   5.820   4.121   6.092
    2PC     H3C 6235   5.705   4.261   6.096
    2PC     C34 6236   5.489   4.137   6.012
    2PC     H4A 6237   5.433   4.100   5.926
    2PC     H4B 6238   5.458   4.095   6.108
    2PC     H4C 6239   5.482   4.245   6.004
    2PC     C35 6240   5.634   3.950   6.034
    2PC     H5A 6241   5.557   3.891   5.983
    2PC     H5B 6242   5.613   3.949   6.141
    2PC     H5C 6243   5.732   3.906   6.014
    2PC     O33 6244   5.747   4.546   5.892
    2PC     O34 6245   5.514   4.588   5.859
    2PC     O21 6246   5.678   4.458   5.395
    2PC     C21 6247   5.722   4.333   5.411
    2PC     O22 6248   5.834   4.309   5.453
    3OL     C12 6249   5.626   4.235   5.348
    3OL     H2R 6250   5.556   4.285   5.281
    3OL     H2S 6251   5.562   4.194   5.426
    3OL     C13 6252   5.702   4.124   5.274
    3OL     H3R 6253   5.776   4.082   5.342
    3OL     H3S 6254   5.752   4.170   5.189
    3OL     C14 6255   5.606   4.021   5.215
    3OL     H4R 6256   5.541   4.073   5.144
    3OL     H4S 6257   5.554   3.974   5.299
    3OL     C15 6258   5.678   3.906   5.143
    3OL     H5R 6259   5.766   3.877   5.201
    3OL     H5S 6260   5.719   3.939   5.047
    3OL     C16 6261   5.587   3.790   5.100
    3OL     H6R 6262   5.542   3.829   5.008
    3OL     H6S 6263   5.514   3.762   5.175
    3OL     C17 6264   5.672   3.668   5.061
    3OL     H7R 6265   5.737   3.642   5.144
    3OL     H7S 6266   5.735   3.702   4.978
    3OL     C18 6267   5.585   3.546   5.026
    3OL     H8R 6268   5.505   3.565   4.955
    3OL     H8S 6269   5.542   3.490   5.110
    3OL     C19 6270   5.668   3.450   4.944
    3OL     H9R 6271   5.711   3.368   5.001
    3OL    C110 6272   5.702   3.459   4.816
    3OL    H10R 6273   5.751   3.381   4.760
    3OL    C111 6274   5.673   3.582   4.734
    3OL    H11R 6275   5.772   3.616   4.703
    3OL    H11S 6276   5.605   3.654   4.780
    3OL    C112 6277   5.589   3.549   4.609
    3OL    H12R 6278   5.567   3.645   4.561
    3OL    H12S 6279   5.488   3.519   4.638
    3OL    C113 6280   5.661   3.453   4.513
    3OL    H13R 6281   5.654   3.352   4.553
    3OL    H13S 6282   5.765   3.484   4.504
    3OL    C114 6283   5.593   3.466   4.376
    3OL    H14R 6284   5.593   3.567   4.334
    3OL    H14S 6285   5.487   3.441   4.383
    3OL    C115 6286   5.656   3.379   4.266
    3OL    H15R 6287   5.759   3.415   4.254
    3OL    H15S 6288   5.586   3.393   4.184
    3OL    C116 6289   5.655   3.230   4.303
    3OL    H16R 6290   5.564   3.211   4.360
    3OL    H16S 6291   5.743   3.210   4.365
    3OL    C117 6292   5.660   3.146   4.174
    3OL    H17R 6293   5.754   3.158   4.120
    3OL    H17S 6294   5.575   3.179   4.113
    3OL    C118 6295   5.662   2.995   4.199
    3OL    H18R 6296   5.636   2.940   4.109
    3OL    H18S 6297   5.592   2.953   4.272
    3OL    H18T 6298   5.765   2.976   4.230
    1PA    C116 6299   0.745   5.321   3.735
    1PA    H16R 6300   0.849   5.298   3.714
    1PA    H16S 6301   0.737   5.418   3.785
    1PA    H16T 6302   0.698   5.333   3.637
    1PA    C115 6303   0.668   5.222   3.824
    1PA    H15R 6304   0.571   5.272   3.821
    1PA    H15S 6305   0.657   5.135   3.759
    1PA    C114 6306   0.733   5.201   3.961
    1PA    H14R 6307   0.829   5.150   3.951
    1PA    H14S 6308   0.752   5.303   3.997
    1PA    C113 6309   0.646   5.114   4.053
    1PA    H13R 6310   0.547   5.160   4.060
    1PA    H13S 6311   0.651   5.010   4.019
    1PA    C112 6312   0.694   5.108   4.199
    1PA    H12R 6313   0.783   5.045   4.198
    1PA    H12S 6314   0.716   5.208   4.237
    1PA    C111 6315   0.585   5.055   4.294
    1PA    H11R 6316   0.500   5.122   4.302
    1PA    H11S 6317   0.548   4.960   4.255
    1PA    C110 6318   0.631   5.042   4.440
    1PA    H10R 6319   0.721   4.979   4.432
    1PA    H10S 6320   0.666   5.136   4.481
    1PA     C19 6321   0.520   4.987   4.530
    1PA     H9R 6322   0.427   5.045   4.528
    1PA     H9S 6323   0.498   4.887   4.493
    1PA     C18 6324   0.566   4.980   4.676
    1PA     H8R 6325   0.645   4.905   4.678
    1PA     H8S 6326   0.605   5.077   4.710
    1PA     C17 6327   0.452   4.946   4.772
    1PA     H7R 6328   0.363   4.995   4.732
    1PA     H7S 6329   0.445   4.837   4.782
    1PA     C16 6330   0.488   4.985   4.916
    1PA     H6R 6331   0.579   4.930   4.942
    1PA     H6S 6332   0.514   5.090   4.903
    1PA     C15 6333   0.363   4.964   5.003
    1PA     H5R 6334   0.287   5.015   4.944
    1PA     H5S 6335   0.342   4.857   5.013
    1PA     C14 6336   0.384   5.018   5.145
    1PA     H4R 6337   0.470   4.972   5.196
    1PA     H4S 6338   0.423   5.119   5.137
    1PA     C13 6339   0.252   5.022   5.223
    1PA     H3R 6340   0.174   5.051   5.152
    1PA     H3S 6341   0.226   4.921   5.256
    1PA     C12 6342   0.243   5.113   5.346
    1PA     H2R 6343   0.254   5.219   5.325
    1PA     H2S 6344   0.144   5.096   5.389
    2PC     C11 6345   0.349   5.081   5.448
    2PC     O12 6346   0.462   5.124   5.459
    2PC     O11 6347   0.314   4.979   5.529
    2PC      C1 6348   0.390   4.941   5.645
    2PC      HR 6349   0.494   4.944   5.612
    2PC      HS 6350   0.371   5.011   5.728
    2PC      C2 6351   0.349   4.797   5.680
    2PC      HX 6352   0.255   4.803   5.735
    2PC      C3 6353   0.443   4.728   5.780
    2PC      HA 6354   0.535   4.696   5.730
    2PC      HB 6355   0.473   4.786   5.868
    2PC     O31 6356   0.375   4.609   5.824
    2PC     P31 6357   0.464   4.493   5.888
    2PC     O32 6358   0.461   4.532   6.044
    2PC     C31 6359   0.574   4.604   6.098
    2PC     H1A 6360   0.666   4.546   6.087
    2PC     H1B 6361   0.594   4.700   6.050
    2PC     C32 6362   0.559   4.630   6.248
    2PC     H2A 6363   0.640   4.698   6.275
    2PC     H2B 6364   0.461   4.676   6.256
    2PC     N31 6365   0.576   4.507   6.333
    2PC     C33 6366   0.566   4.540   6.479
    2PC     H3A 6367   0.466   4.581   6.493
    2PC     H3B 6368   0.592   4.450   6.535
    2PC     H3C 6369   0.635   4.621   6.502
    2PC     C34 6370   0.469   4.404   6.314
    2PC     H4A 6371   0.372   4.446   6.342
    2PC     H4B 6372   0.470   4.379   6.208
    2PC     H4C 6373   0.489   4.317   6.375
    2PC     C35 6374   0.713   4.448   6.318
    2PC     H5A 6375   0.779   4.523   6.361
    2PC     H5B 6376   0.747   4.437   6.215
    2PC     H5C 6377   0.713   4.354   6.374
    2PC     O33 6378   0.398   4.361   5.871
    2PC     O34 6379   0.604   4.487   5.842
    2PC     O21 6380   0.328   4.705   5.572
    2PC     C21 6381   0.426   4.686   5.481
    2PC     O22 6382   0.534   4.739   5.495
    3OL     C12 6383   0.373   4.608   5.364
    3OL     H2R 6384   0.268   4.638   5.355
    3OL     H2S 6385   0.380   4.503   5.394
    3OL     C13 6386   0.464   4.629   5.242
    3OL     H3R 6387   0.566   4.617   5.278
    3OL     H3S 6388   0.449   4.731   5.206
    3OL     C14 6389   0.438   4.534   5.124
    3OL     H4R 6390   0.336   4.558   5.095
    3OL     H4S 6391   0.435   4.429   5.153
    3OL     C15 6392   0.539   4.560   5.011
    3OL     H5R 6393   0.642   4.556   5.049
    3OL     H5S 6394   0.523   4.663   4.978
    3OL     C16 6395   0.526   4.467   4.890
    3OL     H6R 6396   0.513   4.365   4.927
    3OL     H6S 6397   0.621   4.479   4.839
    3OL     C17 6398   0.410   4.508   4.798
    3OL     H7R 6399   0.420   4.613   4.773
    3OL     H7S 6400   0.316   4.497   4.853
    3OL     C18 6401   0.420   4.433   4.665
    3OL     H8R 6402   0.362   4.340   4.668
    3OL     H8S 6403   0.523   4.400   4.646
    3OL     C19 6404   0.373   4.511   4.545
    3OL     H9R 6405   0.268   4.536   4.545
    3OL    C110 6406   0.447   4.528   4.436
    3OL    H10R 6407   0.388   4.574   4.357
    3OL    C111 6408   0.595   4.507   4.416
    3OL    H11R 6409   0.605   4.430   4.339
    3OL    H11S 6410   0.640   4.464   4.505
    3OL    C112 6411   0.657   4.642   4.376
    3OL    H12R 6412   0.651   4.715   4.456
    3OL    H12S 6413   0.605   4.683   4.289
    3OL    C113 6414   0.808   4.644   4.346
    3OL    H13R 6415   0.867   4.610   4.431
    3OL    H13S 6416   0.836   4.750   4.342
    3OL    C114 6417   0.857   4.584   4.214
    3OL    H14R 6418   0.813   4.635   4.128
    3OL    H14S 6419   0.815   4.483   4.215
    3OL    C115 6420   1.009   4.588   4.196
    3OL    H15R 6421   1.044   4.688   4.222
    3OL    H15S 6422   1.041   4.569   4.093
    3OL    C116 6423   1.084   4.485   4.282
    3OL    H16R 6424   1.049   4.382   4.271
    3OL    H16S 6425   1.059   4.489   4.388
    3OL    C117 6426   1.237   4.484   4.267
    3OL    H17R 6427   1.285   4.412   4.334
    3OL    H17S 6428   1.271   4.582   4.301
    3OL    C118 6429   1.271   4.453   4.121
    3OL    H18R 6430   1.193   4.389   4.079
    3OL    H18S 6431   1.360   4.390   4.114
    3OL    H18T 6432   1.281   4.542   4.059
    1PA    C116 6433   5.051   5.808   3.645
    1PA    H16R 6434   5.085   5.790   3.543
    1PA    H16S 6435   5.130   5.770   3.710
    1PA    H16T 6436   5.036   5.916   3.659
    1PA    C115 6437   4.923   5.727   3.661
    1PA    H15R 6438   4.850   5.742   3.581
    1PA    H15S 6439   4.957   5.623   3.651
    1PA    C114 6440   4.866   5.745   3.803
    1PA    H14R 6441   4.944   5.706   3.868
    1PA    H14S 6442   4.847   5.852   3.808
    1PA    C113 6443   4.734   5.668   3.816
    1PA    H13R 6444   4.674   5.684   3.726
    1PA    H13S 6445   4.749   5.561   3.832
    1PA    C112 6446   4.648   5.723   3.930
    1PA    H12R 6447   4.631   5.831   3.922
    1PA    H12S 6448   4.550   5.680   3.911
    1PA    C111 6449   4.713   5.693   4.066
    1PA    H11R 6450   4.708   5.587   4.094
    1PA    H11S 6451   4.814   5.733   4.078
    1PA    C110 6452   4.633   5.761   4.178
    1PA    H10R 6453   4.697   5.811   4.251
    1PA    H10S 6454   4.578   5.836   4.120
    1PA     C19 6455   4.538   5.664   4.251
    1PA     H9R 6456   4.470   5.624   4.175
    1PA     H9S 6457   4.606   5.596   4.303
    1PA     C18 6458   4.456   5.749   4.349
    1PA     H8R 6459   4.527   5.809   4.406
    1PA     H8S 6460   4.398   5.823   4.294
    1PA     C17 6461   4.364   5.672   4.446
    1PA     H7R 6462   4.270   5.727   4.451
    1PA     H7S 6463   4.345   5.572   4.405
    1PA     C16 6464   4.419   5.669   4.589
    1PA     H6R 6465   4.522   5.631   4.592
    1PA     H6S 6466   4.430   5.772   4.622
    1PA     C15 6467   4.338   5.578   4.682
    1PA     H5R 6468   4.231   5.601   4.687
    1PA     H5S 6469   4.340   5.475   4.646
    1PA     C14 6470   4.379   5.603   4.828
    1PA     H4R 6471   4.367   5.710   4.842
    1PA     H4S 6472   4.316   5.538   4.889
    1PA     C13 6473   4.523   5.557   4.858
    1PA     H3R 6474   4.529   5.451   4.833
    1PA     H3S 6475   4.601   5.610   4.803
    1PA     C12 6476   4.551   5.574   5.008
    1PA     H2R 6477   4.526   5.676   5.036
    1PA     H2S 6478   4.481   5.509   5.062
    2PC     C11 6479   4.693   5.541   5.045
    2PC     O12 6480   4.756   5.442   5.014
    2PC     O11 6481   4.757   5.650   5.092
    2PC      C1 6482   4.886   5.631   5.153
    2PC      HR 6483   4.897   5.541   5.214
    2PC      HS 6484   4.958   5.618   5.072
    2PC      C2 6485   4.922   5.751   5.242
    2PC      HX 6486   5.002   5.720   5.310
    2PC      C3 6487   4.794   5.782   5.320
    2PC      HA 6488   4.712   5.821   5.260
    2PC      HB 6489   4.756   5.683   5.349
    2PC     O31 6490   4.815   5.867   5.434
    2PC     P31 6491   4.919   5.824   5.549
    2PC     O32 6492   4.868   5.913   5.672
    2PC     C31 6493   4.907   5.865   5.802
    2PC     H1A 6494   4.872   5.765   5.831
    2PC     H1B 6495   5.016   5.869   5.813
    2PC     C32 6496   4.836   5.971   5.887
    2PC     H2A 6497   4.878   6.065   5.852
    2PC     H2B 6498   4.728   5.966   5.868
    2PC     N31 6499   4.846   5.974   6.036
    2PC     C33 6500   4.817   5.836   6.088
    2PC     H3A 6501   4.836   5.830   6.196
    2PC     H3B 6502   4.717   5.804   6.059
    2PC     H3C 6503   4.891   5.765   6.050
    2PC     C34 6504   4.980   6.029   6.074
    2PC     H4A 6505   4.999   6.113   6.007
    2PC     H4B 6506   4.980   6.063   6.178
    2PC     H4C 6507   5.055   5.956   6.045
    2PC     C35 6508   4.742   6.065   6.096
    2PC     H5A 6509   4.765   6.165   6.059
    2PC     H5B 6510   4.751   6.051   6.204
    2PC     H5C 6511   4.643   6.035   6.061
    2PC     O33 6512   4.900   5.682   5.584
    2PC     O34 6513   5.061   5.860   5.531
    2PC     O21 6514   4.961   5.868   5.168
    2PC     C21 6515   5.092   5.876   5.140
    2PC     O22 6516   5.176   5.796   5.178
    3OL     C12 6517   5.129   5.980   5.038
    3OL     H2R 6518   5.236   6.000   5.035
    3OL     H2S 6519   5.080   6.077   5.053
    3OL     C13 6520   5.095   5.922   4.900
    3OL     H3R 6521   4.994   5.882   4.905
    3OL     H3S 6522   5.164   5.839   4.879
    3OL     C14 6523   5.099   6.030   4.791
    3OL     H4R 6524   5.038   6.118   4.814
    3OL     H4S 6525   5.042   5.997   4.703
    3OL     C15 6526   5.241   6.076   4.756
    3OL     H5R 6527   5.292   5.988   4.719
    3OL     H5S 6528   5.284   6.114   4.849
    3OL     C16 6529   5.236   6.192   4.656
    3OL     H6R 6530   5.333   6.244   4.655
    3OL     H6S 6531   5.158   6.261   4.688
    3OL     C17 6532   5.230   6.141   4.511
    3OL     H7R 6533   5.148   6.069   4.506
    3OL     H7S 6534   5.322   6.085   4.494
    3OL     C18 6535   5.220   6.257   4.410
    3OL     H8R 6536   5.122   6.303   4.425
    3OL     H8S 6537   5.212   6.218   4.308
    3OL     C19 6538   5.321   6.366   4.433
    3OL     H9R 6539   5.342   6.387   4.538
    3OL    C110 6540   5.376   6.444   4.342
    3OL    H10R 6541   5.442   0.036   4.379
    3OL    C111 6542   5.352   6.419   4.195
    3OL    H11R 6543   5.294   6.329   4.172
    3OL    H11S 6544   5.445   6.412   4.139
    3OL    C112 6545   5.273   0.055   4.144
    3OL    H12R 6546   5.335   0.139   4.177
    3OL    H12S 6547   5.179   0.060   4.198
    3OL    C113 6548   5.254   0.044   3.992
    3OL    H13R 6549   5.206   6.435   3.970
    3OL    H13S 6550   5.353   0.051   3.947
    3OL    C114 6551   5.164   0.149   3.926
    3OL    H14R 6552   5.160   0.131   3.818
    3OL    H14S 6553   5.211   0.246   3.940
    3OL    C115 6554   5.017   0.143   3.972
    3OL    H15R 6555   5.020   0.154   4.080
    3OL    H15S 6556   4.960   0.052   3.955
    3OL    C116 6557   4.947   0.260   3.900
    3OL    H16R 6558   4.952   0.235   3.794
    3OL    H16S 6559   5.004   0.352   3.908
    3OL    C117 6560   4.802   0.276   3.949
    3OL    H17R 6561   4.791   0.276   4.058
    3OL    H17S 6562   4.744   0.190   3.917
    3OL    C118 6563   4.739   0.402   3.889
    3OL    H18R 6564   4.737   0.414   3.781
    3OL    H18S 6565   4.806   0.482   3.924
    3OL    H18T 6566   4.634   0.416   3.917
    1PA    C116 6567   6.083   2.502   3.508
    1PA    H16R 6568   6.145   2.464   3.426
    1PA    H16S 6569   6.094   2.433   3.591
    1PA    H16T 6570   6.126   2.600   3.530
    1PA    C115 6571   5.934   2.509   3.470
    1PA    H15R 6572   5.920   2.566   3.378
    1PA    H15S 6573   5.890   2.410   3.460
    1PA    C114 6574   5.854   2.583   3.578
    1PA    H14R 6575   5.869   2.537   3.676
    1PA    H14S 6576   5.890   2.686   3.574
    1PA    C113 6577   5.703   2.594   3.554
    1PA    H13R 6578   5.705   2.645   3.457
    1PA    H13S 6579   5.664   2.493   3.546
    1PA    C112 6580   5.637   2.688   3.657
    1PA    H12R 6581   5.711   2.763   3.683
    1PA    H12S 6582   5.551   2.726   3.601
    1PA    C111 6583   5.588   2.621   3.786
    1PA    H11R 6584   5.520   2.540   3.760
    1PA    H11S 6585   5.681   2.576   3.823
    1PA    C110 6586   5.528   2.720   3.886
    1PA    H10R 6587   5.617   2.775   3.919
    1PA    H10S 6588   5.463   2.785   3.828
    1PA     C19 6589   5.466   2.652   4.009
    1PA     H9R 6590   5.437   2.728   4.083
    1PA     H9S 6591   5.371   2.609   3.979
    1PA     C18 6592   5.565   2.550   4.068
    1PA     H8R 6593   5.573   2.465   4.000
    1PA     H8S 6594   5.667   2.589   4.077
    1PA     C17 6595   5.510   2.495   4.200
    1PA     H7R 6596   5.416   2.440   4.191
    1PA     H7S 6597   5.586   2.427   4.240
    1PA     C16 6598   5.493   2.596   4.315
    1PA     H6R 6599   5.593   2.630   4.341
    1PA     H6S 6600   5.443   2.686   4.279
    1PA     C15 6601   5.422   2.535   4.437
    1PA     H5R 6602   5.315   2.526   4.417
    1PA     H5S 6603   5.454   2.435   4.466
    1PA     C14 6604   5.439   2.631   4.556
    1PA     H4R 6605   5.546   2.647   4.570
    1PA     H4S 6606   5.387   2.723   4.530
    1PA     C13 6607   5.377   2.575   4.684
    1PA     H3R 6608   5.271   2.551   4.673
    1PA     H3S 6609   5.428   2.482   4.713
    1PA     C12 6610   5.385   2.678   4.798
    1PA     H2R 6611   5.490   2.699   4.821
    1PA     H2S 6612   5.342   2.770   4.758
    2PC     C11 6613   5.324   2.633   4.928
    2PC     O12 6614   5.262   2.710   4.999
    2PC     O11 6615   5.349   2.508   4.972
    2PC      C1 6616   5.294   2.479   5.101
    2PC      HR 6617   5.355   2.396   5.138
    2PC      HS 6618   5.315   2.562   5.168
    2PC      C2 6619   5.143   2.448   5.102
    2PC      HX 6620   5.092   2.519   5.037
    2PC      C3 6621   5.089   2.448   5.245
    2PC      HA 6622   5.083   2.554   5.271
    2PC      HB 6623   4.990   2.404   5.252
    2PC     O31 6624   5.176   2.382   5.339
    2PC     P31 6625   5.163   2.409   5.497
    2PC     O32 6626   5.287   2.510   5.501
    2PC     C31 6627   5.263   2.625   5.584
    2PC     H1A 6628   5.193   2.688   5.529
    2PC     H1B 6629   5.223   2.598   5.682
    2PC     C32 6630   5.399   2.695   5.599
    2PC     H2A 6631   5.462   2.634   5.664
    2PC     H2B 6632   5.436   2.696   5.496
    2PC     N31 6633   5.408   2.838   5.643
    2PC     C33 6634   5.341   2.853   5.776
    2PC     H3A 6635   5.234   2.833   5.771
    2PC     H3B 6636   5.400   2.795   5.847
    2PC     H3C 6637   5.356   2.957   5.807
    2PC     C34 6638   5.553   2.875   5.647
    2PC     H4A 6639   5.595   2.865   5.547
    2PC     H4B 6640   5.571   2.978   5.678
    2PC     H4C 6641   5.595   2.805   5.719
    2PC     C35 6642   5.346   2.933   5.546
    2PC     H5A 6643   5.240   2.921   5.569
    2PC     H5B 6644   5.372   2.901   5.445
    2PC     H5C 6645   5.375   3.037   5.558
    2PC     O33 6646   5.037   2.479   5.531
    2PC     O34 6647   5.193   2.295   5.587
    2PC     O21 6648   5.109   2.318   5.050
    2PC     C21 6649   5.103   2.299   4.917
    2PC     O22 6650   5.101   2.390   4.836
    3OL     C12 6651   5.091   2.153   4.881
    3OL     H2R 6652   5.124   2.097   4.968
    3OL     H2S 6653   5.163   2.141   4.799
    3OL     C13 6654   4.953   2.107   4.832
    3OL     H3R 6655   4.975   2.026   4.762
    3OL     H3S 6656   4.896   2.184   4.781
    3OL     C14 6657   4.884   2.037   4.950
    3OL     H4R 6658   4.881   2.111   5.030
    3OL     H4S 6659   4.939   1.949   4.985
    3OL     C15 6660   4.746   1.980   4.913
    3OL     H5R 6661   4.722   1.909   4.992
    3OL     H5S 6662   4.753   1.915   4.826
    3OL     C16 6663   4.638   2.088   4.898
    3OL     H6R 6664   4.675   2.164   4.829
    3OL     H6S 6665   4.614   2.137   4.993
    3OL     C17 6666   4.505   2.030   4.850
    3OL     H7R 6667   4.506   1.996   4.746
    3OL     H7S 6668   4.432   2.112   4.854
    3OL     C18 6669   4.455   1.915   4.938
    3OL     H8R 6670   4.524   1.830   4.934
    3OL     H8S 6671   4.358   1.886   4.897
    3OL     C19 6672   4.453   1.957   5.083
    3OL     H9R 6673   4.531   2.023   5.118
    3OL    C110 6674   4.359   1.924   5.170
    3OL    H10R 6675   4.359   1.970   5.268
    3OL    C111 6676   4.239   1.832   5.163
    3OL    H11R 6677   4.253   1.765   5.249
    3OL    H11S 6678   4.244   1.775   5.070
    3OL    C112 6679   4.104   1.903   5.173
    3OL    H12R 6680   4.104   1.976   5.254
    3OL    H12S 6681   4.033   1.827   5.206
    3OL    C113 6682   4.070   1.969   5.038
    3OL    H13R 6683   4.068   1.902   4.952
    3OL    H13S 6684   4.152   2.037   5.015
    3OL    C114 6685   3.944   2.056   5.033
    3OL    H14R 6686   3.971   2.135   5.104
    3OL    H14S 6687   3.857   2.015   5.085
    3OL    C115 6688   3.913   2.112   4.894
    3OL    H15R 6689   3.933   2.045   4.811
    3OL    H15S 6690   3.990   2.190   4.887
    3OL    C116 6691   3.781   2.191   4.886
    3OL    H16R 6692   3.697   2.131   4.921
    3OL    H16S 6693   3.769   2.221   4.782
    3OL    C117 6694   3.791   2.324   4.962
    3OL    H17R 6695   3.872   2.392   4.932
    3OL    H17S 6696   3.815   2.292   5.063
    3OL    C118 6697   3.658   2.399   4.950
    3OL    H18R 6698   3.579   2.326   4.970
    3OL    H18S 6699   3.644   2.441   4.850
    3OL    H18T 6700   3.656   2.482   5.021
    1PA    C116 6701   3.231   1.556   3.573
    1PA    H16R 6702   3.338   1.541   3.560
    1PA    H16S 6703   3.201   1.648   3.523
    1PA    H16T 6704   3.180   1.468   3.533
    1PA    C115 6705   3.204   1.567   3.724
    1PA    H15R 6706   3.272   1.641   3.765
    1PA    H15S 6707   3.109   1.618   3.733
    1PA    C114 6708   3.210   1.433   3.798
    1PA    H14R 6709   3.149   1.362   3.741
    1PA    H14S 6710   3.315   1.402   3.799
    1PA    C113 6711   3.168   1.447   3.944
    1PA    H13R 6712   3.212   1.534   3.994
    1PA    H13S 6713   3.060   1.468   3.942
    1PA    C112 6714   3.201   1.317   4.019
    1PA    H12R 6715   3.159   1.244   3.950
    1PA    H12S 6716   3.308   1.297   4.026
    1PA    C111 6717   3.144   1.321   4.161
    1PA    H11R 6718   3.197   1.400   4.214
    1PA    H11S 6719   3.036   1.335   4.156
    1PA    C110 6720   3.178   1.185   4.224
    1PA    H10R 6721   3.143   1.102   4.161
    1PA    H10S 6722   3.286   1.169   4.216
    1PA     C19 6723   3.138   1.179   4.372
    1PA     H9R 6724   3.185   1.094   4.421
    1PA     H9S 6725   3.164   1.276   4.414
    1PA     C18 6726   2.987   1.161   4.396
    1PA     H8R 6727   2.934   1.239   4.340
    1PA     H8S 6728   2.957   1.066   4.350
    1PA     C17 6729   2.966   1.170   4.547
    1PA     H7R 6730   3.035   1.238   4.598
    1PA     H7S 6731   2.863   1.204   4.562
    1PA     C16 6732   2.977   1.028   4.604
    1PA     H6R 6733   2.884   0.984   4.566
    1PA     H6S 6734   3.062   0.974   4.562
    1PA     C15 6735   2.976   1.020   4.757
    1PA     H5R 6736   3.068   1.060   4.800
    1PA     H5S 6737   2.889   1.077   4.790
    1PA     C14 6738   2.945   0.878   4.808
    1PA     H4R 6739   2.870   0.826   4.748
    1PA     H4S 6740   3.044   0.830   4.805
    1PA     C13 6741   2.914   0.869   4.958
    1PA     H3R 6742   2.828   0.931   4.981
    1PA     H3S 6743   2.892   0.762   4.969
    1PA     C12 6744   3.041   0.899   5.039
    1PA     H2R 6745   3.107   0.812   5.036
    1PA     H2S 6746   3.085   0.988   4.994
    2PC     C11 6747   3.016   0.945   5.181
    2PC     O12 6748   2.908   0.974   5.227
    2PC     O11 6749   3.132   0.952   5.248
    2PC      C1 6750   3.135   1.019   5.375
    2PC      HR 6751   3.076   1.111   5.362
    2PC      HS 6752   3.090   0.959   5.454
    2PC      C2 6753   3.284   1.047   5.397
    2PC      HX 6754   3.350   0.964   5.371
    2PC      C3 6755   3.318   1.088   5.541
    2PC      HA 6756   3.301   1.006   5.613
    2PC      HB 6757   3.424   1.110   5.554
    2PC     O31 6758   3.238   1.199   5.586
    2PC     P31 6759   3.250   1.259   5.734
    2PC     O32 6760   3.119   1.349   5.746
    2PC     C31 6761   3.120   1.485   5.699
    2PC     H1A 6762   3.212   1.541   5.723
    2PC     H1B 6763   3.121   1.483   5.590
    2PC     C32 6764   2.986   1.550   5.735
    2PC     H2A 6765   2.960   1.637   5.674
    2PC     H2B 6766   2.900   1.484   5.726
    2PC     N31 6767   2.980   1.594   5.878
    2PC     C33 6768   3.065   1.709   5.923
    2PC     H3A 6769   3.029   1.793   5.864
    2PC     H3B 6770   3.049   1.723   6.030
    2PC     H3C 6771   3.171   1.690   5.904
    2PC     C34 6772   2.836   1.628   5.902
    2PC     H4A 6773   2.770   1.543   5.882
    2PC     H4B 6774   2.824   1.662   6.005
    2PC     H4C 6775   2.815   1.710   5.832
    2PC     C35 6776   2.996   1.479   5.973
    2PC     H5A 6777   3.095   1.433   5.972
    2PC     H5B 6778   2.924   1.412   5.926
    2PC     H5C 6779   2.950   1.502   6.069
    2PC     O33 6780   3.252   1.163   5.847
    2PC     O34 6781   3.368   1.347   5.749
    2PC     O21 6782   3.315   1.162   5.316
    2PC     C21 6783   3.444   1.183   5.285
    2PC     O22 6784   3.535   1.116   5.330
    3OL     C12 6785   3.462   1.300   5.193
    3OL     H2R 6786   3.372   1.300   5.131
    3OL     H2S 6787   3.549   1.294   5.127
    3OL     C13 6788   3.452   1.431   5.273
    3OL     H3R 6789   3.540   1.431   5.338
    3OL     H3S 6790   3.367   1.433   5.341
    3OL     C14 6791   3.454   1.563   5.195
    3OL     H4R 6792   3.442   1.648   5.263
    3OL     H4S 6793   3.359   1.572   5.142
    3OL     C15 6794   3.569   1.578   5.094
    3OL     H5R 6795   3.592   1.486   5.040
    3OL     H5S 6796   3.659   1.597   5.153
    3OL     C16 6797   3.545   1.689   4.991
    3OL     H6R 6798   3.532   1.774   5.059
    3OL     H6S 6799   3.454   1.674   4.932
    3OL     C17 6800   3.662   1.696   4.893
    3OL     H7R 6801   3.638   1.615   4.824
    3OL     H7S 6802   3.752   1.670   4.950
    3OL     C18 6803   3.651   1.832   4.823
    3OL     H8R 6804   3.705   1.895   4.893
    3OL     H8S 6805   3.547   1.865   4.814
    3OL     C19 6806   3.715   1.810   4.688
    3OL     H9R 6807   3.811   1.853   4.660
    3OL    C110 6808   3.651   1.757   4.585
    3OL    H10R 6809   3.697   1.768   4.486
    3OL    C111 6810   3.518   1.687   4.573
    3OL    H11R 6811   3.451   1.709   4.656
    3OL    H11S 6812   3.535   1.580   4.558
    3OL    C112 6813   3.451   1.747   4.448
    3OL    H12R 6814   3.516   1.727   4.363
    3OL    H12S 6815   3.459   1.855   4.455
    3OL    C113 6816   3.307   1.706   4.415
    3OL    H13R 6817   3.243   1.747   4.492
    3OL    H13S 6818   3.297   1.597   4.420
    3OL    C114 6819   3.252   1.761   4.283
    3OL    H14R 6820   3.313   1.722   4.201
    3OL    H14S 6821   3.273   1.868   4.278
    3OL    C115 6822   3.102   1.740   4.258
    3OL    H15R 6823   3.043   1.783   4.339
    3OL    H15S 6824   3.092   1.632   4.248
    3OL    C116 6825   3.049   1.792   4.124
    3OL    H16R 6826   3.110   1.751   4.043
    3OL    H16S 6827   3.073   1.898   4.110
    3OL    C117 6828   2.903   1.765   4.084
    3OL    H17R 6829   2.853   1.815   4.167
    3OL    H17S 6830   2.879   1.658   4.083
    3OL    C118 6831   2.851   1.811   3.947
    3OL    H18R 6832   2.743   1.802   3.930
    3OL    H18S 6833   2.891   1.754   3.863
    3OL    H18T 6834   2.878   1.916   3.935
    1PA    C116 6835   2.558   5.486   3.752
    1PA    H16R 6836   2.617   5.406   3.797
    1PA    H16S 6837   2.521   5.552   3.830
    1PA    H16T 6838   2.627   5.543   3.689
    1PA    C115 6839   2.450   5.421   3.665
    1PA    H15R 6840   2.397   5.509   3.627
    1PA    H15S 6841   2.495   5.360   3.586
    1PA    C114 6842   2.356   5.327   3.740
    1PA    H14R 6843   2.331   5.379   3.833
    1PA    H14S 6844   2.263   5.315   3.683
    1PA    C113 6845   2.417   5.189   3.769
    1PA    H13R 6846   2.370   5.108   3.714
    1PA    H13S 6847   2.515   5.195   3.721
    1PA    C112 6848   2.428   5.148   3.916
    1PA    H12R 6849   2.477   5.233   3.965
    1PA    H12S 6850   2.330   5.123   3.957
    1PA    C111 6851   2.529   5.034   3.933
    1PA    H11R 6852   2.474   4.948   3.895
    1PA    H11S 6853   2.621   5.052   3.876
    1PA    C110 6854   2.559   4.989   4.077
    1PA    H10R 6855   2.593   5.076   4.134
    1PA    H10S 6856   2.468   4.953   4.126
    1PA     C19 6857   2.658   4.875   4.100
    1PA     H9R 6858   2.628   4.811   4.016
    1PA     H9S 6859   2.762   4.900   4.079
    1PA     C18 6860   2.640   4.796   4.230
    1PA     H8R 6861   2.672   4.859   4.314
    1PA     H8S 6862   2.535   4.769   4.247
    1PA     C17 6863   2.728   4.671   4.220
    1PA     H7R 6864   2.749   4.648   4.116
    1PA     H7S 6865   2.828   4.678   4.263
    1PA     C16 6866   2.655   4.544   4.265
    1PA     H6R 6867   2.620   4.561   4.367
    1PA     H6S 6868   2.565   4.535   4.204
    1PA     C15 6869   2.747   4.425   4.235
    1PA     H5R 6870   2.701   4.327   4.246
    1PA     H5S 6871   2.781   4.435   4.131
    1PA     C14 6872   2.884   4.424   4.305
    1PA     H4R 6873   2.937   4.329   4.293
    1PA     H4S 6874   2.949   4.504   4.270
    1PA     C13 6875   2.878   4.430   4.458
    1PA     H3R 6876   2.818   4.517   4.486
    1PA     H3S 6877   2.828   4.340   4.494
    1PA     C12 6878   3.021   4.453   4.509
    1PA     H2R 6879   3.082   4.372   4.469
    1PA     H2S 6880   3.063   4.547   4.472
    2PC     C11 6881   3.024   4.459   4.660
    2PC     O12 6882   2.974   4.549   4.723
    2PC     O11 6883   3.111   4.368   4.709
    2PC      C1 6884   3.147   4.357   4.848
    2PC      HR 6885   3.238   4.297   4.856
    2PC      HS 6886   3.174   4.460   4.871
    2PC      C2 6887   3.032   4.314   4.940
    2PC      HX 6888   2.940   4.373   4.929
    2PC      C3 6889   3.085   4.314   5.084
    2PC      HA 6890   3.160   4.236   5.100
    2PC      HB 6891   3.142   4.406   5.098
    2PC     O31 6892   2.963   4.293   5.157
    2PC     P31 6893   2.966   4.259   5.313
    2PC     O32 6894   2.822   4.192   5.338
    2PC     C31 6895   2.811   4.048   5.330
    2PC     H1A 6896   2.841   4.011   5.232
    2PC     H1B 6897   2.883   4.012   5.404
    2PC     C32 6898   2.664   4.014   5.358
    2PC     H2A 6899   2.641   4.040   5.461
    2PC     H2B 6900   2.601   4.068   5.287
    2PC     N31 6901   2.626   3.871   5.333
    2PC     C33 6902   2.477   3.867   5.345
    2PC     H3A 6903   2.441   3.929   5.427
    2PC     H3B 6904   2.426   3.915   5.261
    2PC     H3C 6905   2.457   3.761   5.363
    2PC     C34 6906   2.670   3.804   5.206
    2PC     H4A 6907   2.608   3.716   5.189
    2PC     H4B 6908   2.644   3.874   5.127
    2PC     H4C 6909   2.778   3.796   5.211
    2PC     C35 6910   2.685   3.777   5.434
    2PC     H5A 6911   2.621   3.759   5.521
    2PC     H5B 6912   2.787   3.809   5.456
    2PC     H5C 6913   2.705   3.680   5.387
    2PC     O33 6914   3.067   4.161   5.358
    2PC     O34 6915   2.976   4.387   5.387
    2PC     O21 6916   2.998   4.179   4.904
    2PC     C21 6917   3.076   4.070   4.913
    2PC     O22 6918   3.198   4.069   4.914
    3OL     C12 6919   2.992   3.947   4.935
    3OL     H2R 6920   2.960   3.949   5.039
    3OL     H2S 6921   3.061   3.862   4.935
    3OL     C13 6922   2.871   3.928   4.843
    3OL     H3R 6923   2.905   3.964   4.745
    3OL     H3S 6924   2.780   3.983   4.869
    3OL     C14 6925   2.842   3.779   4.823
    3OL     H4R 6926   2.820   3.729   4.918
    3OL     H4S 6927   2.935   3.735   4.789
    3OL     C15 6928   2.734   3.762   4.714
    3OL     H5R 6929   2.769   3.815   4.626
    3OL     H5S 6930   2.645   3.816   4.745
    3OL     C16 6931   2.710   3.613   4.688
    3OL     H6R 6932   2.647   3.580   4.771
    3OL     H6S 6933   2.802   3.554   4.681
    3OL     C17 6934   2.640   3.606   4.552
    3OL     H7R 6935   2.717   3.619   4.476
    3OL     H7S 6936   2.562   3.682   4.539
    3OL     C18 6937   2.569   3.475   4.515
    3OL     H8R 6938   2.517   3.505   4.424
    3OL     H8S 6939   2.501   3.441   4.593
    3OL     C19 6940   2.682   3.377   4.494
    3OL     H9R 6941   2.726   3.349   4.590
    3OL    C110 6942   2.730   3.324   4.383
    3OL    H10R 6943   2.816   3.258   4.393
    3OL    C111 6944   2.670   3.351   4.247
    3OL    H11R 6945   2.565   3.382   4.248
    3OL    H11S 6946   2.668   3.254   4.197
    3OL    C112 6947   2.751   3.461   4.177
    3OL    H12R 6948   2.853   3.426   4.191
    3OL    H12S 6949   2.729   3.554   4.230
    3OL    C113 6950   2.709   3.482   4.031
    3OL    H13R 6951   2.601   3.498   4.020
    3OL    H13S 6952   2.744   3.397   3.973
    3OL    C114 6953   2.794   3.596   3.972
    3OL    H14R 6954   2.900   3.569   3.978
    3OL    H14S 6955   2.777   3.696   4.012
    3OL    C115 6956   2.763   3.602   3.822
    3OL    H15R 6957   2.660   3.638   3.818
    3OL    H15S 6958   2.775   3.505   3.775
    3OL    C116 6959   2.852   3.704   3.749
    3OL    H16R 6960   2.955   3.669   3.755
    3OL    H16S 6961   2.853   3.796   3.807
    3OL    C117 6962   2.813   3.732   3.603
    3OL    H17R 6963   2.709   3.765   3.592
    3OL    H17S 6964   2.835   3.638   3.551
    3OL    C118 6965   2.898   3.844   3.541
    3OL    H18R 6966   2.889   3.939   3.593
    3OL    H18S 6967   2.867   3.871   3.440
    3OL    H18T 6968   3.000   3.805   3.536
    1PA    C116 6969   3.305   6.418   4.943
    1PA    H16R 6970   3.331   6.317   4.977
    1PA    H16S 6971   3.197   6.430   4.951
    1PA    H16T 6972   3.345   6.476   5.027
    1PA    C115 6973   3.370   6.464   4.812
    1PA    H15R 6974   3.478   6.473   4.825
    1PA    H15S 6975   3.362   6.386   4.736
    1PA    C114 6976   3.307   0.110   4.767
    1PA    H14R 6977   3.201   0.099   4.743
    1PA    H14S 6978   3.316   0.180   4.849
    1PA    C113 6979   3.368   0.190   4.651
    1PA    H13R 6980   3.362   0.122   4.565
    1PA    H13S 6981   3.307   0.271   4.611
    1PA    C112 6982   3.506   0.254   4.669
    1PA    H12R 6983   3.561   0.195   4.742
    1PA    H12S 6984   3.563   0.261   4.576
    1PA    C111 6985   3.503   0.400   4.716
    1PA    H11R 6986   3.427   0.449   4.655
    1PA    H11S 6987   3.467   0.414   4.818
    1PA    C110 6988   3.641   0.464   4.698
    1PA    H10R 6989   3.692   0.424   4.610
    1PA    H10S 6990   3.623   0.572   4.692
    1PA     C19 6991   3.727   0.429   4.820
    1PA     H9R 6992   3.676   0.452   4.914
    1PA     H9S 6993   3.739   0.320   4.822
    1PA     C18 6994   3.866   0.492   4.821
    1PA     H8R 6995   3.931   0.473   4.735
    1PA     H8S 6996   3.857   0.601   4.829
    1PA     C17 6997   3.944   0.458   4.949
    1PA     H7R 6998   3.941   0.349   4.963
    1PA     H7S 6999   4.050   0.483   4.937
    1PA     C16 7000   3.889   0.531   5.072
    1PA     H6R 7001   3.910   0.636   5.050
    1PA     H6S 7002   3.781   0.521   5.082
    1PA     C15 7003   3.955   0.477   5.199
    1PA     H5R 7004   3.906   0.385   5.229
    1PA     H5S 7005   4.061   0.452   5.185
    1PA     C14 7006   3.940   0.580   5.312
    1PA     H4R 7007   4.002   0.668   5.298
    1PA     H4S 7008   3.841   0.622   5.332
    1PA     C13 7009   3.971   0.517   5.449
    1PA     H3R 7010   3.904   0.434   5.474
    1PA     H3S 7011   4.070   0.472   5.441
    1PA     C12 7012   3.971   0.620   5.563
    1PA     H2R 7013   4.003   0.721   5.534
    1PA     H2S 7014   3.870   0.630   5.602
    2PC     C11 7015   4.059   0.571   5.676
    2PC     O12 7016   4.015   0.532   5.782
    2PC     O11 7017   4.186   0.544   5.641
    2PC      C1 7018   4.279   0.487   5.735
    2PC      HR 7019   4.379   0.509   5.697
    2PC      HS 7020   4.264   0.535   5.832
    2PC      C2 7021   4.253   0.336   5.739
    2PC      HX 7022   4.148   0.321   5.765
    2PC      C3 7023   4.347   0.262   5.836
    2PC      HA 7024   4.306   0.251   5.936
    2PC      HB 7025   4.377   0.159   5.814
    2PC     O31 7026   4.475   0.328   5.845
    2PC     P31 7027   4.568   0.291   5.970
    2PC     O32 7028   4.581   0.134   5.941
    2PC     C31 7029   4.614   0.043   6.047
    2PC     H1A 7030   4.654   6.438   6.002
    2PC     H1B 7031   4.687   0.083   6.118
    2PC     C32 7032   4.483   0.024   6.125
    2PC     H2A 7033   4.448   0.119   6.166
    2PC     H2B 7034   4.414   6.474   6.048
    2PC     N31 7035   4.468   6.404   6.230
    2PC     C33 7036   4.538   6.451   6.354
    2PC     H3A 7037   4.480   0.049   6.391
    2PC     H3B 7038   4.528   6.371   6.429
    2PC     H3C 7039   4.642   6.482   6.343
    2PC     C34 7040   4.322   6.396   6.265
    2PC     H4A 7041   4.263   6.385   6.174
    2PC     H4B 7042   4.309   6.312   6.333
    2PC     H4C 7043   4.293   0.006   6.309
    2PC     C35 7044   4.525   6.274   6.182
    2PC     H5A 7045   4.469   6.243   6.093
    2PC     H5B 7046   4.514   6.205   6.266
    2PC     H5C 7047   4.625   6.301   6.149
    2PC     O33 7048   4.695   0.368   5.966
    2PC     O34 7049   4.508   0.340   6.096
    2PC     O21 7050   4.270   0.285   5.605
    2PC     C21 7051   4.220   0.163   5.581
    2PC     O22 7052   4.179   0.086   5.666
    3OL     C12 7053   4.221   0.112   5.439
    3OL     H2R 7054   4.131   0.053   5.426
    3OL     H2S 7055   4.308   0.049   5.419
    3OL     C13 7056   4.225   0.223   5.333
    3OL     H3R 7057   4.299   0.292   5.374
    3OL     H3S 7058   4.132   0.275   5.307
    3OL     C14 7059   4.275   0.159   5.203
    3OL     H4R 7060   4.243   0.055   5.188
    3OL     H4S 7061   4.384   0.153   5.206
    3OL     C15 7062   4.228   0.239   5.081
    3OL     H5R 7063   4.284   0.332   5.075
    3OL     H5S 7064   4.120   0.248   5.089
    3OL     C16 7065   4.251   0.165   4.949
    3OL     H6R 7066   4.217   0.231   4.870
    3OL     H6S 7067   4.198   0.069   4.953
    3OL     C17 7068   4.396   0.132   4.910
    3OL     H7R 7069   4.443   0.080   4.994
    3OL     H7S 7070   4.454   0.222   4.890
    3OL     C18 7071   4.393   0.041   4.786
    3OL     H8R 7072   4.323   6.448   4.813
    3OL     H8S 7073   4.491   6.482   4.768
    3OL     C19 7074   4.339   0.111   4.664
    3OL     H9R 7075   4.240   0.076   4.635
    3OL    C110 7076   4.401   0.201   4.589
    3OL    H10R 7077   4.338   0.222   4.503
    3OL    C111 7078   4.534   0.267   4.619
    3OL    H11R 7079   4.609   0.195   4.652
    3OL    H11S 7080   4.523   0.336   4.703
    3OL    C112 7081   4.574   0.356   4.500
    3OL    H12R 7082   4.603   0.289   4.418
    3OL    H12S 7083   4.667   0.409   4.524
    3OL    C113 7084   4.469   0.461   4.463
    3OL    H13R 7085   4.419   0.507   4.549
    3OL    H13S 7086   4.390   0.411   4.408
    3OL    C114 7087   4.529   0.581   4.389
    3OL    H14R 7088   4.572   0.538   4.298
    3OL    H14S 7089   4.611   0.631   4.441
    3OL    C115 7090   4.428   0.682   4.332
    3OL    H15R 7091   4.359   0.720   4.408
    3OL    H15S 7092   4.372   0.615   4.267
    3OL    C116 7093   4.494   0.788   4.242
    3OL    H16R 7094   4.557   0.737   4.168
    3OL    H16S 7095   4.560   0.853   4.300
    3OL    C117 7096   4.380   0.868   4.180
    3OL    H17R 7097   4.307   0.897   4.256
    3OL    H17S 7098   4.322   0.803   4.115
    3OL    C118 7099   4.424   0.998   4.110
    3OL    H18R 7100   4.506   0.975   4.042
    3OL    H18S 7101   4.473   1.061   4.185
    3OL    H18T 7102   4.344   1.059   4.069
    1PA    C116 7103   6.149   4.261   4.329
    1PA    H16R 7104   6.107   4.346   4.383
    1PA    H16S 7105   6.256   4.282   4.317
    1PA    H16T 7106   6.136   4.169   4.386
    1PA    C115 7107   6.076   4.251   4.195
    1PA    H15R 7108   6.085   4.343   4.138
    1PA    H15S 7109   6.123   4.167   4.143
    1PA    C114 7110   5.934   4.205   4.233
    1PA    H14R 7111   5.876   4.224   4.142
    1PA    H14S 7112   5.935   4.101   4.266
    1PA    C113 7113   5.858   4.285   4.340
    1PA    H13R 7114   5.896   4.245   4.434
    1PA    H13S 7115   5.872   4.392   4.330
    1PA    C112 7116   5.711   4.243   4.327
    1PA    H12R 7117   5.687   4.297   4.235
    1PA    H12S 7118   5.706   4.134   4.320
    1PA    C111 7119   5.629   4.303   4.442
    1PA    H11R 7120   5.643   4.264   4.543
    1PA    H11S 7121   5.667   4.404   4.460
    1PA    C110 7122   5.478   4.300   4.419
    1PA    H10R 7123   5.468   4.357   4.326
    1PA    H10S 7124   5.436   4.199   4.413
    1PA     C19 7125   5.396   4.381   4.521
    1PA     H9R 7126   5.387   4.324   4.613
    1PA     H9S 7127   5.438   4.480   4.539
    1PA     C18 7128   5.251   4.411   4.483
    1PA     H8R 7129   5.239   4.466   4.389
    1PA     H8S 7130   5.195   4.319   4.466
    1PA     C17 7131   5.167   4.491   4.584
    1PA     H7R 7132   5.189   4.446   4.681
    1PA     H7S 7133   5.202   4.594   4.585
    1PA     C16 7134   5.019   4.487   4.543
    1PA     H6R 7135   4.994   4.515   4.441
    1PA     H6S 7136   4.990   4.382   4.556
    1PA     C15 7137   4.933   4.578   4.631
    1PA     H5R 7138   4.944   4.541   4.733
    1PA     H5S 7139   4.967   4.682   4.636
    1PA     C14 7140   4.785   4.579   4.588
    1PA     H4R 7141   4.780   4.562   4.480
    1PA     H4S 7142   4.732   4.491   4.626
    1PA     C13 7143   4.714   4.712   4.616
    1PA     H3R 7144   4.764   4.790   4.560
    1PA     H3S 7145   4.614   4.699   4.573
    1PA     C12 7146   4.703   4.743   4.766
    1PA     H2R 7147   4.803   4.741   4.812
    1PA     H2S 7148   4.680   4.850   4.762
    2PC     C11 7149   4.611   4.654   4.846
    2PC     O12 7150   4.531   4.580   4.794
    2PC     O11 7151   4.637   4.650   4.977
    2PC      C1 7152   4.576   4.557   5.069
    2PC      HR 7153   4.470   4.573   5.045
    2PC      HS 7154   4.604   4.453   5.057
    2PC      C2 7155   4.609   4.602   5.212
    2PC      HX 7156   4.565   4.531   5.282
    2PC      C3 7157   4.551   4.740   5.248
    2PC      HA 7158   4.621   4.817   5.215
    2PC      HB 7159   4.452   4.763   5.209
    2PC     O31 7160   4.536   4.749   5.391
    2PC     P31 7161   4.467   4.879   5.454
    2PC     O32 7162   4.588   4.983   5.435
    2PC     C31 7163   4.723   4.942   5.465
    2PC     H1A 7164   4.732   4.905   5.567
    2PC     H1B 7165   4.756   4.870   5.389
    2PC     C32 7166   4.825   5.056   5.458
    2PC     H2A 7167   4.823   5.090   5.354
    2PC     H2B 7168   4.793   5.145   5.511
    2PC     N31 7169   4.970   5.038   5.493
    2PC     C33 7170   4.974   5.004   5.639
    2PC     H3A 7171   4.926   5.083   5.696
    2PC     H3B 7172   4.928   4.906   5.651
    2PC     H3C 7173   5.082   5.003   5.659
    2PC     C34 7174   5.022   4.923   5.412
    2PC     H4A 7175   4.995   4.940   5.308
    2PC     H4B 7176   5.129   4.937   5.429
    2PC     H4C 7177   4.983   4.829   5.449
    2PC     C35 7178   5.043   5.168   5.472
    2PC     H5A 7179   5.011   5.229   5.556
    2PC     H5B 7180   5.011   5.213   5.378
    2PC     H5C 7181   5.151   5.151   5.480
    2PC     O33 7182   4.341   4.928   5.393
    2PC     O34 7183   4.428   4.858   5.595
    2PC     O21 7184   4.753   4.603   5.212
    2PC     C21 7185   4.827   4.497   5.175
    2PC     O22 7186   4.787   4.385   5.152
    3OL     C12 7187   4.974   4.528   5.170
    3OL     H2R 7188   5.047   4.449   5.187
    3OL     H2S 7189   5.003   4.597   5.250
    3OL     C13 7190   5.013   4.593   5.036
    3OL     H3R 7191   4.946   4.568   4.953
    3OL     H3S 7192   5.114   4.558   5.014
    3OL     C14 7193   5.027   4.745   5.048
    3OL     H4R 7194   5.079   4.772   5.140
    3OL     H4S 7195   4.932   4.798   5.032
    3OL     C15 7196   5.120   4.789   4.934
    3OL     H5R 7197   5.098   4.742   4.838
    3OL     H5S 7198   5.221   4.755   4.960
    3OL     C16 7199   5.106   4.941   4.916
    3OL     H6R 7200   5.137   4.994   5.007
    3OL     H6S 7201   5.002   4.969   4.899
    3OL     C17 7202   5.196   4.999   4.807
    3OL     H7R 7203   5.295   4.953   4.802
    3OL     H7S 7204   5.208   5.108   4.811
    3OL     C18 7205   5.123   5.001   4.672
    3OL     H8R 7206   5.034   5.063   4.683
    3OL     H8S 7207   5.073   4.908   4.645
    3OL     C19 7208   5.213   5.061   4.567
    3OL     H9R 7209   5.265   5.151   4.599
    3OL    C110 7210   5.232   5.016   4.444
    3OL    H10R 7211   5.299   5.075   4.381
    3OL    C111 7212   5.161   4.898   4.383
    3OL    H11R 7213   5.136   4.832   4.466
    3OL    H11S 7214   5.229   4.848   4.313
    3OL    C112 7215   5.031   4.930   4.307
    3OL    H12R 7216   5.047   4.969   4.207
    3OL    H12S 7217   4.984   5.008   4.368
    3OL    C113 7218   4.933   4.812   4.309
    3OL    H13R 7219   4.828   4.841   4.306
    3OL    H13S 7220   4.946   4.775   4.411
    3OL    C114 7221   4.972   4.700   4.211
    3OL    H14R 7222   4.928   4.603   4.234
    3OL    H14S 7223   5.080   4.688   4.211
    3OL    C115 7224   4.923   4.730   4.068
    3OL    H15R 7225   4.987   4.812   4.034
    3OL    H15S 7226   4.819   4.763   4.071
    3OL    C116 7227   4.924   4.610   3.972
    3OL    H16R 7228   4.853   4.537   4.010
    3OL    H16S 7229   5.023   4.565   3.973
    3OL    C117 7230   4.880   4.655   3.832
    3OL    H17R 7231   4.938   4.740   3.797
    3OL    H17S 7232   4.774   4.683   3.834
    3OL    C118 7233   4.883   4.536   3.734
    3OL    H18R 7234   4.986   4.505   3.713
    3OL    H18S 7235   4.843   4.573   3.640
    3OL    H18T 7236   4.819   4.452   3.761
    1PA    C116 7237   3.132   4.054   4.458
    1PA    H16R 7238   3.182   4.069   4.554
    1PA    H16S 7239   3.116   4.158   4.428
    1PA    H16T 7240   3.200   3.989   4.402
    1PA    C115 7241   3.003   3.973   4.468
    1PA    H15R 7242   3.023   3.878   4.518
    1PA    H15S 7243   2.936   4.033   4.530
    1PA    C114 7244   2.937   3.967   4.330
    1PA    H14R 7245   2.933   4.065   4.283
    1PA    H14S 7246   3.003   3.902   4.272
    1PA    C113 7247   2.793   3.913   4.328
    1PA    H13R 7248   2.770   3.872   4.230
    1PA    H13S 7249   2.784   3.832   4.401
    1PA    C112 7250   2.684   4.016   4.362
    1PA    H12R 7251   2.703   4.061   4.460
    1PA    H12S 7252   2.676   4.090   4.282
    1PA    C111 7253   2.549   3.946   4.389
    1PA    H11R 7254   2.564   3.855   4.446
    1PA    H11S 7255   2.486   4.016   4.445
    1PA    C110 7256   2.465   3.909   4.267
    1PA    H10R 7257   2.494   3.975   4.185
    1PA    H10S 7258   2.490   3.805   4.244
    1PA     C19 7259   2.314   3.917   4.294
    1PA     H9R 7260   2.271   3.866   4.208
    1PA     H9S 7261   2.272   3.861   4.377
    1PA     C18 7262   2.265   4.062   4.285
    1PA     H8R 7263   2.339   4.135   4.319
    1PA     H8S 7264   2.255   4.083   4.178
    1PA     C17 7265   2.127   4.095   4.344
    1PA     H7R 7266   2.103   4.193   4.302
    1PA     H7S 7267   2.056   4.017   4.315
    1PA     C16 7268   2.136   4.106   4.497
    1PA     H6R 7269   2.177   4.010   4.530
    1PA     H6S 7270   2.202   4.178   4.546
    1PA     C15 7271   1.997   4.114   4.560
    1PA     H5R 7272   1.952   4.209   4.530
    1PA     H5S 7273   1.939   4.040   4.504
    1PA     C14 7274   1.997   4.082   4.710
    1PA     H4R 7275   1.891   4.066   4.735
    1PA     H4S 7276   2.044   3.987   4.735
    1PA     C13 7277   2.046   4.200   4.794
    1PA     H3R 7278   2.046   4.170   4.899
    1PA     H3S 7279   2.147   4.224   4.760
    1PA     C12 7280   1.953   4.320   4.770
    1PA     H2R 7281   1.970   4.368   4.673
    1PA     H2S 7282   1.849   4.288   4.778
    2PC     C11 7283   1.967   4.431   4.871
    2PC     O12 7284   1.871   4.475   4.932
    2PC     O11 7285   2.091   4.481   4.881
    2PC      C1 7286   2.116   4.576   4.986
    2PC      HR 7287   2.044   4.656   4.965
    2PC      HS 7288   2.088   4.526   5.078
    2PC      C2 7289   2.262   4.623   4.982
    2PC      HX 7290   2.332   4.544   4.953
    2PC      C3 7291   2.313   4.681   5.115
    2PC      HA 7292   2.249   4.764   5.144
    2PC      HB 7293   2.300   4.601   5.188
    2PC     O31 7294   2.450   4.720   5.096
    2PC     P31 7295   2.522   4.792   5.219
    2PC     O32 7296   2.614   4.673   5.277
    2PC     C31 7297   2.715   4.703   5.375
    2PC     H1A 7298   2.797   4.739   5.312
    2PC     H1B 7299   2.672   4.765   5.453
    2PC     C32 7300   2.759   4.569   5.435
    2PC     H2A 7301   2.816   4.518   5.357
    2PC     H2B 7302   2.819   4.583   5.525
    2PC     N31 7303   2.650   4.477   5.482
    2PC     C33 7304   2.537   4.548   5.549
    2PC     H3A 7305   2.573   4.632   5.607
    2PC     H3B 7306   2.470   4.587   5.471
    2PC     H3C 7307   2.482   4.480   5.614
    2PC     C34 7308   2.605   4.397   5.363
    2PC     H4A 7309   2.533   4.322   5.394
    2PC     H4B 7310   2.568   4.461   5.283
    2PC     H4C 7311   2.694   4.343   5.328
    2PC     C35 7312   2.712   4.385   5.583
    2PC     H5A 7313   2.632   4.322   5.623
    2PC     H5B 7314   2.751   4.434   5.672
    2PC     H5C 7315   2.786   4.316   5.542
    2PC     O33 7316   2.604   4.908   5.177
    2PC     O34 7317   2.425   4.847   5.316
    2PC     O21 7318   2.262   4.726   4.881
    2PC     C21 7319   2.378   4.749   4.816
    2PC     O22 7320   2.477   4.680   4.825
    3OL     C12 7321   2.369   4.870   4.727
    3OL     H2R 7322   2.348   4.953   4.794
    3OL     H2S 7323   2.286   4.865   4.656
    3OL     C13 7324   2.496   4.897   4.644
    3OL     H3R 7325   2.509   4.818   4.569
    3OL     H3S 7326   2.588   4.885   4.702
    3OL     C14 7327   2.493   5.038   4.583
    3OL     H4R 7328   2.598   5.060   4.567
    3OL     H4S 7329   2.454   5.116   4.648
    3OL     C15 7330   2.410   5.045   4.454
    3OL     H5R 7331   2.306   5.017   4.472
    3OL     H5S 7332   2.464   4.977   4.388
    3OL     C16 7333   2.418   5.178   4.377
    3OL     H6R 7334   2.371   5.160   4.280
    3OL     H6S 7335   2.525   5.195   4.363
    3OL     C17 7336   2.347   5.291   4.452
    3OL     H7R 7337   2.350   5.385   4.397
    3OL     H7S 7338   2.401   5.316   4.544
    3OL     C18 7339   2.200   5.261   4.486
    3OL     H8R 7340   2.157   5.339   4.550
    3OL     H8S 7341   2.183   5.175   4.552
    3OL     C19 7342   2.118   5.249   4.360
    3OL     H9R 7343   2.093   5.147   4.332
    3OL    C110 7344   2.084   5.348   4.279
    3OL    H10R 7345   2.034   5.336   4.184
    3OL    C111 7346   2.108   5.495   4.302
    3OL    H11R 7347   2.147   5.511   4.403
    3OL    H11S 7348   2.015   5.549   4.286
    3OL    C112 7349   2.219   5.544   4.208
    3OL    H12R 7350   2.289   5.464   4.184
    3OL    H12S 7351   2.278   5.629   4.243
    3OL    C113 7352   2.132   5.596   4.093
    3OL    H13R 7353   2.065   5.676   4.126
    3OL    H13S 7354   2.065   5.513   4.070
    3OL    C114 7355   2.219   5.636   3.973
    3OL    H14R 7356   2.279   5.547   3.956
    3OL    H14S 7357   2.283   5.719   4.006
    3OL    C115 7358   2.138   5.674   3.848
    3OL    H15R 7359   2.068   5.598   3.815
    3OL    H15S 7360   2.212   5.693   3.769
    3OL    C116 7361   2.077   5.815   3.855
    3OL    H16R 7362   2.008   5.821   3.940
    3OL    H16S 7363   2.023   5.829   3.761
    3OL    C117 7364   2.186   5.923   3.852
    3OL    H17R 7365   2.265   5.905   3.779
    3OL    H17S 7366   2.246   5.922   3.943
    3OL    C118 7367   2.129   6.065   3.842
    3OL    H18R 7368   2.086   6.067   3.742
    3OL    H18S 7369   2.208   6.139   3.852
    3OL    H18T 7370   2.051   6.064   3.920
    1PA    C116 7371   5.172   3.996   4.335
    1PA    H16R 7372   5.068   3.979   4.307
    1PA    H16S 7373   5.228   3.979   4.244
    1PA    H16T 7374   5.182   4.103   4.355
    1PA    C115 7375   5.219   3.906   4.450
    1PA    H15R 7376   5.173   3.809   4.434
    1PA    H15S 7377   5.327   3.891   4.437
    1PA    C114 7378   5.199   3.972   4.587
    1PA    H14R 7379   5.226   4.077   4.575
    1PA    H14S 7380   5.093   3.958   4.611
    1PA    C113 7381   5.282   3.891   4.687
    1PA    H13R 7382   5.237   3.893   4.786
    1PA    H13S 7383   5.290   3.785   4.663
    1PA    C112 7384   5.419   3.957   4.709
    1PA    H12R 7385   5.487   3.884   4.752
    1PA    H12S 7386   5.467   3.977   4.613
    1PA    C111 7387   5.406   4.076   4.806
    1PA    H11R 7388   5.329   4.146   4.774
    1PA    H11S 7389   5.368   4.042   4.902
    1PA    C110 7390   5.540   4.151   4.816
    1PA    H10R 7391   5.614   4.081   4.853
    1PA    H10S 7392   5.576   4.187   4.719
    1PA     C19 7393   5.534   4.262   4.922
    1PA     H9R 7394   5.483   4.228   5.012
    1PA     H9S 7395   5.638   4.288   4.941
    1PA     C18 7396   5.477   4.396   4.874
    1PA     H8R 7397   5.520   4.419   4.776
    1PA     H8S 7398   5.371   4.375   4.859
    1PA     C17 7399   5.504   4.507   4.976
    1PA     H7R 7400   5.610   4.516   4.999
    1PA     H7S 7401   5.477   4.598   4.922
    1PA     C16 7402   5.423   4.496   5.107
    1PA     H6R 7403   5.316   4.487   5.087
    1PA     H6S 7404   5.466   4.414   5.164
    1PA     C15 7405   5.443   4.625   5.187
    1PA     H5R 7406   5.545   4.641   5.223
    1PA     H5S 7407   5.419   4.716   5.132
    1PA     C14 7408   5.361   4.611   5.316
    1PA     H4R 7409   5.261   4.599   5.273
    1PA     H4S 7410   5.396   4.524   5.372
    1PA     C13 7411   5.380   4.737   5.401
    1PA     H3R 7412   5.485   4.760   5.421
    1PA     H3S 7413   5.322   4.816   5.352
    1PA     C12 7414   5.316   4.717   5.539
    1PA     H2R 7415   5.214   4.678   5.534
    1PA     H2S 7416   5.366   4.637   5.594
    2PC     C11 7417   5.310   4.841   5.625
    2PC     O12 7418   5.259   4.845   5.735
    2PC     O11 7419   5.364   4.948   5.564
    2PC      C1 7420   5.376   5.062   5.651
    2PC      HR 7421   5.274   5.100   5.666
    2PC      HS 7422   5.429   5.042   5.745
    2PC      C2 7423   5.446   5.178   5.579
    2PC      HX 7424   5.534   5.141   5.526
    2PC      C3 7425   5.470   5.287   5.685
    2PC      HA 7426   5.543   5.358   5.645
    2PC      HB 7427   5.378   5.338   5.716
    2PC     O31 7428   5.534   5.237   5.804
    2PC     P31 7429   5.477   5.288   5.944
    2PC     O32 7430   5.584   5.210   6.034
    2PC     C31 7431   5.576   5.220   6.177
    2PC     H1A 7432   5.587   5.326   6.202
    2PC     H1B 7433   5.476   5.187   6.207
    2PC     C32 7434   5.682   5.128   6.239
    2PC     H2A 7435   5.782   5.159   6.207
    2PC     H2B 7436   5.697   5.159   6.343
    2PC     N31 7437   5.667   4.980   6.225
    2PC     C33 7438   5.769   4.917   6.315
    2PC     H3A 7439   5.739   4.825   6.367
    2PC     H3B 7440   5.859   4.891   6.259
    2PC     H3C 7441   5.802   4.985   6.394
    2PC     C34 7442   5.527   4.933   6.246
    2PC     H4A 7443   5.519   4.826   6.226
    2PC     H4B 7444   5.509   4.959   6.350
    2PC     H4C 7445   5.455   4.973   6.174
    2PC     C35 7446   5.695   4.941   6.083
    2PC     H5A 7447   5.683   4.833   6.087
    2PC     H5B 7448   5.792   4.986   6.060
    2PC     H5C 7449   5.616   4.989   6.025
    2PC     O33 7450   5.506   5.433   5.955
    2PC     O34 7451   5.329   5.278   5.945
    2PC     O21 7452   5.353   5.235   5.485
    2PC     C21 7453   5.402   5.302   5.380
    2PC     O22 7454   5.520   5.309   5.350
    3OL     C12 7455   5.294   5.370   5.299
    3OL     H2R 7456   5.228   5.429   5.363
    3OL     H2S 7457   5.229   5.286   5.278
    3OL     C13 7458   5.340   5.457   5.181
    3OL     H3R 7459   5.438   5.422   5.148
    3OL     H3S 7460   5.333   5.564   5.201
    3OL     C14 7461   5.239   5.440   5.067
    3OL     H4R 7462   5.148   5.461   5.124
    3OL     H4S 7463   5.237   5.335   5.037
    3OL     C15 7464   5.276   5.543   4.959
    3OL     H5R 7465   5.372   5.521   4.913
    3OL     H5S 7466   5.294   5.638   5.011
    3OL     C16 7467   5.174   5.550   4.844
    3OL     H6R 7468   5.219   5.619   4.772
    3OL     H6S 7469   5.080   5.592   4.880
    3OL     C17 7470   5.162   5.416   4.770
    3OL     H7R 7471   5.116   5.342   4.835
    3OL     H7S 7472   5.264   5.379   4.753
    3OL     C18 7473   5.083   5.427   4.638
    3OL     H8R 7474   5.102   5.331   4.588
    3OL     H8S 7475   5.128   5.501   4.571
    3OL     C19 7476   4.941   5.472   4.656
    3OL     H9R 7477   4.906   5.429   4.750
    3OL    C110 7478   4.866   5.559   4.589
    3OL    H10R 7479   4.766   5.597   4.605
    3OL    C111 7480   4.906   5.612   4.454
    3OL    H11R 7481   4.816   5.618   4.393
    3OL    H11S 7482   4.988   5.555   4.410
    3OL    C112 7483   4.970   5.751   4.474
    3OL    H12R 7484   5.069   5.737   4.517
    3OL    H12S 7485   4.903   5.822   4.525
    3OL    C113 7486   4.992   5.822   4.340
    3OL    H13R 7487   5.018   5.925   4.363
    3OL    H13S 7488   4.904   5.833   4.275
    3OL    C114 7489   5.097   5.745   4.259
    3OL    H14R 7490   5.079   5.638   4.258
    3OL    H14S 7491   5.191   5.748   4.315
    3OL    C115 7492   5.117   5.802   4.117
    3OL    H15R 7493   5.019   5.833   4.078
    3OL    H15S 7494   5.149   5.718   4.055
    3OL    C116 7495   5.218   5.916   4.134
    3OL    H16R 7496   5.305   5.858   4.168
    3OL    H16S 7497   5.186   5.992   4.204
    3OL    C117 7498   5.247   5.963   3.991
    3OL    H17R 7499   5.268   5.875   3.931
    3OL    H17S 7500   5.342   6.015   4.000
    3OL    C118 7501   5.149   6.067   3.935
    3OL    H18R 7502   5.055   6.011   3.933
    3OL    H18S 7503   5.172   6.098   3.833
    3OL    H18T 7504   5.131   6.155   3.998
    1PA    C116 7505   6.460   1.180   3.770
    1PA    H16R 7506   6.399   1.090   3.780
    1PA    H16S 7507   0.039   1.176   3.682
    1PA    H16T 7508   6.392   1.261   3.743
    1PA    C115 7509   0.057   1.209   3.896
    1PA    H15R 7510   0.118   1.123   3.922
    1PA    H15S 7511   0.132   1.285   3.872
    1PA    C114 7512   6.465   1.258   4.019
    1PA    H14R 7513   6.401   1.339   3.986
    1PA    H14S 7514   6.409   1.166   4.039
    1PA    C113 7515   0.076   1.304   4.129
    1PA    H13R 7516   0.142   1.222   4.158
    1PA    H13S 7517   0.135   1.392   4.102
    1PA    C112 7518   6.478   1.336   4.253
    1PA    H12R 7519   6.418   1.426   4.234
    1PA    H12S 7520   6.411   1.253   4.276
    1PA    C111 7521   0.092   1.356   4.368
    1PA    H11R 7522   0.138   1.260   4.391
    1PA    H11S 7523   0.170   1.424   4.333
    1PA    C110 7524   0.025   1.411   4.494
    1PA    H10R 7525   6.472   1.509   4.464
    1PA    H10S 7526   6.435   1.335   4.515
    1PA     C19 7527   0.122   1.425   4.611
    1PA     H9R 7528   0.157   1.322   4.627
    1PA     H9S 7529   0.202   1.495   4.587
    1PA     C18 7530   0.064   1.484   4.740
    1PA     H8R 7531   0.023   1.578   4.703
    1PA     H8S 7532   6.466   1.423   4.774
    1PA     C17 7533   0.177   1.506   4.842
    1PA     H7R 7534   0.269   1.494   4.784
    1PA     H7S 7535   0.166   1.600   4.896
    1PA     C16 7536   0.189   1.386   4.937
    1PA     H6R 7537   0.171   1.295   4.881
    1PA     H6S 7538   0.293   1.382   4.972
    1PA     C15 7539   0.095   1.414   5.056
    1PA     H5R 7540   0.114   1.510   5.103
    1PA     H5S 7541   6.481   1.424   5.014
    1PA     C14 7542   0.092   1.295   5.154
    1PA     H4R 7543   0.059   1.204   5.103
    1PA     H4S 7544   0.192   1.275   5.192
    1PA     C13 7545   6.474   1.302   5.267
    1PA     H3R 7546   0.012   1.388   5.329
    1PA     H3S 7547   6.377   1.319   5.220
    1PA     C12 7548   6.466   1.168   5.340
    1PA     H2R 7549   6.453   1.081   5.275
    1PA     H2S 7550   0.078   1.153   5.386
    2PC     C11 7551   6.370   1.179   5.456
    2PC     O12 7552   6.297   1.273   5.480
    2PC     O11 7553   6.372   1.059   5.518
    2PC      C1 7554   6.265   1.030   5.611
    2PC      HR 7555   6.262   1.107   5.688
    2PC      HS 7556   6.176   1.029   5.547
    2PC      C2 7557   6.293   0.894   5.675
    2PC      HX 7558   6.201   0.849   5.713
    2PC      C3 7559   6.403   0.897   5.783
    2PC      HA 7560   0.008   0.901   5.723
    2PC      HB 7561   6.386   0.994   5.832
    2PC     O31 7562   6.405   0.778   5.863
    2PC     P31 7563   6.279   0.751   5.958
    2PC     O32 7564   6.212   0.627   5.884
    2PC     C31 7565   6.171   0.510   5.958
    2PC     H1A 7566   6.251   0.478   6.026
    2PC     H1B 7567   6.097   0.544   6.030
    2PC     C32 7568   6.120   0.397   5.867
    2PC     H2A 7569   6.199   0.372   5.797
    2PC     H2B 7570   6.096   0.307   5.924
    2PC     N31 7571   6.002   0.417   5.777
    2PC     C33 7572   5.884   0.439   5.867
    2PC     H3A 7573   5.876   0.351   5.931
    2PC     H3B 7574   5.888   0.537   5.914
    2PC     H3C 7575   5.799   0.446   5.799
    2PC     C34 7576   6.028   0.533   5.686
    2PC     H4A 7577   6.008   0.622   5.746
    2PC     H4B 7578   6.127   0.533   5.642
    2PC     H4C 7579   5.955   0.532   5.604
    2PC     C35 7580   5.985   0.294   5.693
    2PC     H5A 7581   5.966   0.204   5.752
    2PC     H5B 7582   6.069   0.285   5.625
    2PC     H5C 7583   5.895   0.311   5.633
    2PC     O33 7584   6.322   0.708   6.093
    2PC     O34 7585   6.183   0.863   5.972
    2PC     O21 7586   6.333   0.801   5.572
    2PC     C21 7587   6.241   0.761   5.483
    2PC     O22 7588   6.126   0.799   5.488
    3OL     C12 7589   6.304   0.687   5.367
    3OL     H2R 7590   6.298   0.580   5.390
    3OL     H2S 7591   6.408   0.715   5.350
    3OL     C13 7592   6.226   0.700   5.236
    3OL     H3R 7593   6.211   0.804   5.203
    3OL     H3S 7594   6.121   0.672   5.245
    3OL     C14 7595   6.298   0.612   5.134
    3OL     H4R 7596   6.371   0.544   5.178
    3OL     H4S 7597   6.364   0.677   5.075
    3OL     C15 7598   6.209   0.527   5.043
    3OL     H5R 7599   6.140   0.461   5.097
    3OL     H5S 7600   6.273   0.455   4.992
    3OL     C16 7601   6.126   0.601   4.937
    3OL     H6R 7602   6.187   0.662   4.870
    3OL     H6S 7603   6.066   0.681   4.981
    3OL     C17 7604   6.039   0.500   4.862
    3OL     H7R 7605   5.993   0.426   4.928
    3OL     H7S 7606   6.098   0.433   4.799
    3OL     C18 7607   5.937   0.563   4.766
    3OL     H8R 7608   5.844   0.591   4.817
    3OL     H8S 7609   5.907   0.477   4.707
    3OL     C19 7610   5.985   0.681   4.686
    3OL     H9R 7611   5.933   0.771   4.718
    3OL    C110 7612   6.068   0.685   4.583
    3OL    H10R 7613   6.085   0.783   4.538
    3OL    C111 7614   6.122   0.559   4.519
    3OL    H11R 7615   6.053   0.480   4.550
    3OL    H11S 7616   6.221   0.532   4.557
    3OL    C112 7617   6.122   0.567   4.366
    3OL    H12R 7618   6.191   0.644   4.331
    3OL    H12S 7619   6.028   0.596   4.319
    3OL    C113 7620   6.163   0.430   4.311
    3OL    H13R 7621   6.082   0.358   4.320
    3OL    H13S 7622   6.252   0.392   4.362
    3OL    C114 7623   6.200   0.428   4.162
    3OL    H14R 7624   6.227   0.324   4.141
    3OL    H14S 7625   6.281   0.498   4.139
    3OL    C115 7626   6.076   0.448   4.074
    3OL    H15R 7627   6.044   0.546   4.110
    3OL    H15S 7628   5.994   0.380   4.100
    3OL    C116 7629   6.095   0.430   3.923
    3OL    H16R 7630   6.135   0.330   3.905
    3OL    H16S 7631   6.175   0.493   3.884
    3OL    C117 7632   5.970   0.471   3.843
    3OL    H17R 7633   5.943   0.577   3.837
    3OL    H17S 7634   5.875   0.434   3.880
    3OL    C118 7635   5.996   0.433   3.696
    3OL    H18R 7636   5.922   0.466   3.624
    3OL    H18S 7637   6.014   0.326   3.689
    3OL    H18T 7638   6.086   0.487   3.664
    1PA    C116 7639   6.396   4.813   3.833
    1PA    H16R 7640   6.356   4.727   3.779
    1PA    H16S 7641   6.485   4.854   3.784
    1PA    H16T 7642   6.317   4.887   3.842
    1PA    C115 7643   6.423   4.750   3.971
    1PA    H15R 7644   6.331   4.711   4.013
    1PA    H15S 7645   0.003   4.665   3.950
    1PA    C114 7646   6.483   4.842   4.078
    1PA    H14R 7647   0.090   4.878   4.033
    1PA    H14S 7648   6.420   4.928   4.099
    1PA    C113 7649   0.039   4.773   4.209
    1PA    H13R 7650   6.454   4.696   4.240
    1PA    H13S 7651   0.128   4.711   4.198
    1PA    C112 7652   0.076   4.870   4.322
    1PA    H12R 7653   0.168   4.923   4.300
    1PA    H12S 7654   6.479   4.941   4.327
    1PA    C111 7655   0.095   4.799   4.457
    1PA    H11R 7656   0.011   4.735   4.484
    1PA    H11S 7657   0.177   4.729   4.438
    1PA    C110 7658   0.139   4.900   4.564
    1PA    H10R 7659   0.196   4.846   4.640
    1PA    H10S 7660   0.208   4.976   4.526
    1PA     C19 7661   0.015   4.961   4.630
    1PA     H9R 7662   6.448   5.023   4.557
    1PA     H9S 7663   6.435   4.880   4.659
    1PA     C18 7664   0.039   5.027   4.767
    1PA     H8R 7665   6.431   5.037   4.821
    1PA     H8S 7666   0.099   4.959   4.829
    1PA     C17 7667   0.114   5.160   4.757
    1PA     H7R 7668   0.221   5.144   4.742
    1PA     H7S 7669   0.085   5.218   4.668
    1PA     C16 7670   0.086   5.244   4.882
    1PA     H6R 7671   6.466   5.257   4.903
    1PA     H6S 7672   0.124   5.195   4.973
    1PA     C15 7673   0.151   5.381   4.860
    1PA     H5R 7674   0.259   5.369   4.855
    1PA     H5S 7675   0.120   5.431   4.767
    1PA     C14 7676   0.120   5.484   4.969
    1PA     H4R 7677   0.158   5.583   4.943
    1PA     H4S 7678   0.012   5.497   4.976
    1PA     C13 7679   0.180   5.452   5.107
    1PA     H3R 7680   0.149   5.352   5.138
    1PA     H3S 7681   0.289   5.447   5.107
    1PA     C12 7682   0.129   5.557   5.207
    1PA     H2R 7683   0.188   5.540   5.297
    1PA     H2S 7684   0.160   5.659   5.182
    2PC     C11 7685   6.474   5.549   5.257
    2PC     O12 7686   6.395   5.458   5.239
    2PC     O11 7687   6.434   5.659   5.323
    2PC      C1 7688   6.311   5.661   5.397
    2PC      HR 7689   6.231   5.696   5.331
    2PC      HS 7690   6.289   5.562   5.438
    2PC      C2 7691   6.318   5.748   5.523
    2PC      HX 7692   6.404   5.730   5.587
    2PC      C3 7693   6.186   5.730   5.598
    2PC      HA 7694   6.100   5.752   5.534
    2PC      HB 7695   6.180   5.627   5.634
    2PC     O31 7696   6.186   5.821   5.709
    2PC     P31 7697   6.246   5.778   5.852
    2PC     O32 7698   6.129   5.829   5.948
    2PC     C31 7699   6.109   5.972   5.955
    2PC     H1A 7700   6.203   6.027   5.965
    2PC     H1B 7701   6.049   6.006   5.870
    2PC     C32 7702   6.028   5.996   6.082
    2PC     H2A 7703   5.975   6.091   6.079
    2PC     H2B 7704   5.951   5.920   6.097
    2PC     N31 7705   6.101   5.987   6.213
    2PC     C33 7706   6.209   6.090   6.218
    2PC     H3A 7707   6.280   6.095   6.136
    2PC     H3B 7708   6.162   6.188   6.230
    2PC     H3C 7709   6.266   6.070   6.309
    2PC     C34 7710   6.007   6.023   6.324
    2PC     H4A 7711   5.957   6.113   6.287
    2PC     H4B 7712   5.932   5.945   6.332
    2PC     H4C 7713   6.058   6.040   6.420
    2PC     C35 7714   6.152   5.849   6.244
    2PC     H5A 7715   6.223   5.818   6.167
    2PC     H5B 7716   6.070   5.782   6.270
    2PC     H5C 7717   6.208   5.868   6.336
    2PC     O33 7718   6.263   5.632   5.866
    2PC     O34 7719   6.386   5.826   5.862
    2PC     O21 7720   6.319   5.883   5.473
    2PC     C21 7721   6.435   5.939   5.433
    2PC     O22 7722   0.054   5.890   5.467
    3OL     C12 7723   6.416   6.069   5.358
    3OL     H2R 7724   6.405   6.148   5.433
    3OL     H2S 7725   6.330   6.062   5.291
    3OL     C13 7726   0.054   6.096   5.271
    3OL     H3R 7727   0.050   6.027   5.187
    3OL     H3S 7728   0.145   6.086   5.330
    3OL     C14 7729   0.066   6.240   5.220
    3OL     H4R 7730   0.168   6.260   5.188
    3OL     H4S 7731   0.061   6.306   5.308
    3OL     C15 7732   6.453   6.281   5.110
    3OL     H5R 7733   6.417   6.384   5.117
    3OL     H5S 7734   6.361   6.226   5.129
    3OL     C16 7735   0.020   6.250   4.970
    3OL     H6R 7736   0.056   6.148   4.965
    3OL     H6S 7737   0.100   6.319   4.940
    3OL     C17 7738   6.397   6.272   4.864
    3OL     H7R 7739   6.381   6.380   4.868
    3OL     H7S 7740   6.311   6.213   4.897
    3OL     C18 7741   6.452   6.228   4.728
    3OL     H8R 7742   6.464   6.120   4.731
    3OL     H8S 7743   0.058   6.284   4.711
    3OL     C19 7744   6.345   6.259   4.626
    3OL     H9R 7745   6.341   6.365   4.606
    3OL    C110 7746   6.264   6.169   4.571
    3OL    H10R 7747   6.178   6.204   4.515
    3OL    C111 7748   6.264   6.019   4.560
    3OL    H11R 7749   6.340   5.972   4.623
    3OL    H11S 7750   6.293   5.983   4.461
    3OL    C112 7751   6.125   5.962   4.594
    3OL    H12R 7752   6.043   6.028   4.566
    3OL    H12S 7753   6.121   5.952   4.703
    3OL    C113 7754   6.099   5.829   4.521
    3OL    H13R 7755   6.166   5.748   4.551
    3OL    H13S 7756   6.114   5.851   4.415
    3OL    C114 7757   5.954   5.788   4.547
    3OL    H14R 7758   5.880   5.866   4.524
    3OL    H14S 7759   5.951   5.751   4.649
    3OL    C115 7760   5.917   5.666   4.461
    3OL    H15R 7761   5.821   5.623   4.493
    3OL    H15S 7762   5.997   5.594   4.479
    3OL    C116 7763   5.900   5.677   4.309
    3OL    H16R 7764   5.995   5.704   4.264
    3OL    H16S 7765   5.838   5.762   4.280
    3OL    C117 7766   5.838   5.547   4.254
    3OL    H17R 7767   5.834   5.553   4.145
    3OL    H17S 7768   5.735   5.531   4.286
    3OL    C118 7769   5.937   5.434   4.285
    3OL    H18R 7770   6.041   5.463   4.267
    3OL    H18S 7771   5.909   5.340   4.239
    3OL    H18T 7772   5.935   5.424   4.393
    1PA    C116 7773   6.063   0.859   3.891
    1PA    H16R 7774   6.158   0.908   3.867
    1PA    H16S 7775   6.001   0.855   3.802
    1PA    H16T 7776   6.090   0.760   3.929
    1PA    C115 7777   5.995   0.943   4.000
    1PA    H15R 7778   5.989   1.047   3.965
    1PA    H15S 7779   5.895   0.900   4.010
    1PA    C114 7780   6.062   0.932   4.137
    1PA    H14R 7781   5.995   0.984   4.205
    1PA    H14S 7782   6.061   0.828   4.172
    1PA    C113 7783   6.204   0.990   4.126
    1PA    H13R 7784   6.246   0.923   4.052
    1PA    H13S 7785   6.194   1.093   4.090
    1PA    C112 7786   6.279   0.984   4.259
    1PA    H12R 7787   6.297   0.879   4.287
    1PA    H12S 7788   6.378   1.022   4.234
    1PA    C111 7789   6.210   1.057   4.375
    1PA    H11R 7790   6.193   1.161   4.348
    1PA    H11S 7791   6.111   1.014   4.396
    1PA    C110 7792   6.292   1.071   4.504
    1PA    H10R 7793   6.344   0.978   4.529
    1PA    H10S 7794   6.383   1.127   4.483
    1PA     C19 7795   6.207   1.128   4.619
    1PA     H9R 7796   6.187   1.233   4.595
    1PA     H9S 7797   6.115   1.070   4.620
    1PA     C18 7798   6.277   1.107   4.753
    1PA     H8R 7799   6.313   1.003   4.750
    1PA     H8S 7800   6.352   1.186   4.759
    1PA     C17 7801   6.173   1.123   4.865
    1PA     H7R 7802   6.147   1.228   4.883
    1PA     H7S 7803   6.089   1.055   4.850
    1PA     C16 7804   6.230   1.059   4.993
    1PA     H6R 7805   6.209   0.952   4.995
    1PA     H6S 7806   6.337   1.082   4.994
    1PA     C15 7807   6.168   1.112   5.123
    1PA     H5R 7808   6.219   1.077   5.213
    1PA     H5S 7809   6.169   1.221   5.119
    1PA     C14 7810   6.023   1.067   5.149
    1PA     H4R 7811   5.944   1.093   5.079
    1PA     H4S 7812   6.018   0.959   5.131
    1PA     C13 7813   5.968   1.099   5.289
    1PA     H3R 7814   5.868   1.056   5.292
    1PA     H3S 7815   6.035   1.062   5.367
    1PA     C12 7816   5.947   1.248   5.317
    1PA     H2R 7817   6.047   1.292   5.324
    1PA     H2S 7818   5.893   1.300   5.237
    2PC     C11 7819   5.883   1.261   5.453
    2PC     O12 7820   5.801   1.184   5.497
    2PC     O11 7821   5.934   1.369   5.515
    2PC      C1 7822   5.922   1.375   5.659
    2PC      HR 7823   5.816   1.385   5.680
    2PC      HS 7824   5.957   1.283   5.706
    2PC      C2 7825   5.997   1.497   5.715
    2PC      HX 7826   6.092   1.511   5.661
    2PC      C3 7827   6.021   1.503   5.866
    2PC      HA 7828   6.060   1.407   5.900
    2PC      HB 7829   6.098   1.577   5.891
    2PC     O31 7830   5.900   1.528   5.941
    2PC     P31 7831   5.895   1.608   6.079
    2PC     O32 7832   5.940   1.510   6.198
    2PC     C31 7833   5.948   1.368   6.173
    2PC     H1A 7834   5.848   1.334   6.143
    2PC     H1B 7835   6.025   1.354   6.097
    2PC     C32 7836   5.993   1.299   6.302
    2PC     H2A 7837   5.991   1.191   6.289
    2PC     H2B 7838   6.100   1.320   6.312
    2PC     N31 7839   5.924   1.310   6.435
    2PC     C33 7840   5.995   1.215   6.527
    2PC     H3A 7841   5.988   1.119   6.477
    2PC     H3B 7842   6.096   1.255   6.540
    2PC     H3C 7843   5.939   1.215   6.621
    2PC     C34 7844   5.930   1.448   6.493
    2PC     H4A 7845   6.024   1.502   6.475
    2PC     H4B 7846   5.846   1.508   6.458
    2PC     H4C 7847   5.921   1.436   6.601
    2PC     C35 7848   5.781   1.267   6.426
    2PC     H5A 7849   5.728   1.319   6.346
    2PC     H5B 7850   5.731   1.274   6.522
    2PC     H5C 7851   5.784   1.162   6.397
    2PC     O33 7852   5.970   1.735   6.073
    2PC     O34 7853   5.755   1.640   6.116
    2PC     O21 7854   5.923   1.615   5.679
    2PC     C21 7855   5.987   1.733   5.667
    2PC     O22 7856   6.107   1.748   5.673
    3OL     C12 7857   5.888   1.842   5.633
    3OL     H2R 7858   5.864   1.906   5.718
    3OL     H2S 7859   5.795   1.799   5.594
    3OL     C13 7860   5.948   1.939   5.531
    3OL     H3R 7861   5.982   1.876   5.449
    3OL     H3S 7862   6.044   1.976   5.570
    3OL     C14 7863   5.846   2.040   5.476
    3OL     H4R 7864   5.810   2.102   5.558
    3OL     H4S 7865   5.753   1.992   5.445
    3OL     C15 7866   5.908   2.135   5.372
    3OL     H5R 7867   6.007   2.174   5.397
    3OL     H5S 7868   5.847   2.225   5.364
    3OL     C16 7869   5.920   2.078   5.230
    3OL     H6R 7870   5.825   2.063   5.180
    3OL     H6S 7871   5.963   1.977   5.227
    3OL     C17 7872   6.018   2.170   5.156
    3OL     H7R 7873   6.116   2.175   5.202
    3OL     H7S 7874   5.970   2.269   5.151
    3OL     C18 7875   6.030   2.113   5.014
    3OL     H8R 7876   6.063   2.009   5.013
    3OL     H8S 7877   6.115   2.162   4.965
    3OL     C19 7878   5.922   2.142   4.913
    3OL     H9R 7879   5.827   2.185   4.945
    3OL    C110 7880   5.918   2.099   4.788
    3OL    H10R 7881   5.828   2.115   4.730
    3OL    C111 7882   6.044   2.049   4.721
    3OL    H11R 7883   6.036   1.941   4.712
    3OL    H11S 7884   6.137   2.058   4.778
    3OL    C112 7885   6.057   2.095   4.575
    3OL    H12R 7886   6.152   2.059   4.535
    3OL    H12S 7887   6.068   2.204   4.578
    3OL    C113 7888   5.941   2.058   4.481
    3OL    H13R 7889   5.847   2.103   4.512
    3OL    H13S 7890   5.918   1.953   4.500
    3OL    C114 7891   5.971   2.089   4.334
    3OL    H14R 7892   6.057   2.026   4.310
    3OL    H14S 7893   6.005   2.192   4.317
    3OL    C115 7894   5.846   2.065   4.248
    3OL    H15R 7895   5.766   2.136   4.271
    3OL    H15S 7896   5.799   1.967   4.253
    3OL    C116 7897   5.888   2.096   4.104
    3OL    H16R 7898   5.980   2.042   4.078
    3OL    H16S 7899   5.925   2.198   4.091
    3OL    C117 7900   5.773   2.055   4.011
    3OL    H17R 7901   5.726   1.962   4.044
    3OL    H17S 7902   5.813   2.046   3.909
    3OL    C118 7903   5.671   2.169   4.006
    3OL    H18R 7904   5.620   2.180   4.102
    3OL    H18S 7905   5.587   2.146   3.941
    3OL    H18T 7906   5.716   2.266   3.984
    1PA    C116 7907   5.248   0.808   3.758
    1PA    H16R 7908   5.139   0.805   3.749
    1PA    H16S 7909   5.292   0.732   3.693
    1PA    H16T 7910   5.282   0.909   3.736
    1PA    C115 7911   5.276   0.779   3.906
    1PA    H15R 7912   5.382   0.794   3.927
    1PA    H15S 7913   5.224   0.851   3.970
    1PA    C114 7914   5.212   0.646   3.949
    1PA    H14R 7915   5.108   0.651   3.917
    1PA    H14S 7916   5.245   0.556   3.897
    1PA    C113 7917   5.220   0.631   4.101
    1PA    H13R 7918   5.322   0.640   4.140
    1PA    H13S 7919   5.165   0.711   4.152
    1PA    C112 7920   5.156   0.501   4.150
    1PA    H12R 7921   5.053   0.495   4.114
    1PA    H12S 7922   5.216   0.420   4.108
    1PA    C111 7923   5.156   0.483   4.303
    1PA    H11R 7924   5.257   0.461   4.338
    1PA    H11S 7925   5.124   0.576   4.350
    1PA    C110 7926   5.055   0.372   4.334
    1PA    H10R 7927   4.952   0.401   4.311
    1PA    H10S 7928   5.073   0.276   4.286
    1PA     C19 7929   5.057   0.344   4.485
    1PA     H9R 7930   5.155   0.304   4.513
    1PA     H9S 7931   5.048   0.441   4.535
    1PA     C18 7932   4.949   0.241   4.517
    1PA     H8R 7933   4.859   0.256   4.457
    1PA     H8S 7934   4.987   0.147   4.475
    1PA     C17 7935   4.917   0.227   4.667
    1PA     H7R 7936   4.899   0.319   4.722
    1PA     H7S 7937   4.822   0.172   4.675
    1PA     C16 7938   5.025   0.136   4.728
    1PA     H6R 7939   5.053   0.058   4.657
    1PA     H6S 7940   5.112   0.197   4.751
    1PA     C15 7941   4.977   0.074   4.860
    1PA     H5R 7942   4.949   0.155   4.928
    1PA     H5S 7943   4.890   0.016   4.828
    1PA     C14 7944   5.087   6.480   4.930
    1PA     H4R 7945   5.130   6.409   4.858
    1PA     H4S 7946   5.165   0.062   4.964
    1PA     C13 7947   5.033   6.393   5.044
    1PA     H3R 7948   4.950   6.329   5.013
    1PA     H3S 7949   5.109   6.323   5.076
    1PA     C12 7950   4.997   6.480   5.166
    1PA     H2R 7951   5.087   0.053   5.186
    1PA     H2S 7952   4.919   0.066   5.141
    2PC     C11 7953   4.966   6.399   5.289
    2PC     O12 7954   4.983   6.435   5.404
    2PC     O11 7955   4.905   6.284   5.255
    2PC      C1 7956   4.876   6.184   5.355
    2PC      HR 7957   4.866   6.082   5.318
    2PC      HS 7958   4.946   6.183   5.440
    2PC      C2 7959   4.734   6.220   5.400
    2PC      HX 7960   4.725   6.328   5.397
    2PC      C3 7961   4.712   6.170   5.544
    2PC      HA 7962   4.709   6.061   5.552
    2PC      HB 7963   4.803   6.202   5.597
    2PC     O31 7964   4.599   6.238   5.602
    2PC     P31 7965   4.582   6.202   5.757
    2PC     O32 7966   4.540   6.048   5.740
    2PC     C31 7967   4.407   6.013   5.783
    2PC     H1A 7968   4.396   6.028   5.891
    2PC     H1B 7969   4.336   6.082   5.736
    2PC     C32 7970   4.384   5.865   5.751
    2PC     H2A 7971   4.478   5.817   5.778
    2PC     H2B 7972   4.307   5.827   5.819
    2PC     N31 7973   4.365   5.824   5.608
    2PC     C33 7974   4.342   5.676   5.603
    2PC     H3A 7975   4.445   5.646   5.584
    2PC     H3B 7976   4.282   5.639   5.686
    2PC     H3C 7977   4.288   5.654   5.511
    2PC     C34 7978   4.252   5.893   5.538
    2PC     H4A 7979   4.271   5.864   5.435
    2PC     H4B 7980   4.167   5.841   5.581
    2PC     H4C 7981   4.257   6.001   5.558
    2PC     C35 7982   4.486   5.860   5.528
    2PC     H5A 7983   4.495   5.818   5.427
    2PC     H5B 7984   4.576   5.823   5.579
    2PC     H5C 7985   4.490   5.968   5.513
    2PC     O33 7986   4.699   6.236   5.842
    2PC     O34 7987   4.467   6.287   5.794
    2PC     O21 7988   4.640   6.145   5.321
    2PC     C21 7989   4.519   6.197   5.297
    2PC     O22 7990   4.478   6.309   5.320
    3OL     C12 7991   4.444   6.090   5.221
    3OL     H2R 7992   4.351   6.138   5.189
    3OL     H2S 7993   4.411   6.016   5.294
    3OL     C13 7994   4.513   6.030   5.097
    3OL     H3R 7995   4.453   5.953   5.048
    3OL     H3S 7996   4.603   5.976   5.128
    3OL     C14 7997   4.556   6.146   5.007
    3OL     H4R 7998   4.634   6.203   5.058
    3OL     H4S 7999   4.472   6.212   4.984
    3OL     C15 8000   4.636   6.112   4.880
    3OL     H5R 8001   4.571   6.059   4.809
    3OL     H5S 8002   4.722   6.049   4.905
    3OL     C16 8003   4.699   6.230   4.805
    3OL     H6R 8004   4.778   6.268   4.870
    3OL     H6S 8005   4.626   6.308   4.785
    3OL     C17 8006   4.760   6.179   4.674
    3OL     H7R 8007   4.681   6.133   4.614
    3OL     H7S 8008   4.832   6.099   4.691
    3OL     C18 8009   4.828   6.291   4.594
    3OL     H8R 8010   4.874   6.231   4.515
    3OL     H8S 8011   4.902   6.335   4.661
    3OL     C19 8012   4.735   6.391   4.530
    3OL     H9R 8013   4.654   6.435   4.588
    3OL    C110 8014   4.740   6.417   4.400
    3OL    H10R 8015   4.666   0.004   4.367
    3OL    C111 8016   4.850   6.401   4.298
    3OL    H11R 8017   4.927   6.328   4.322
    3OL    H11S 8018   4.907   0.005   4.277
    3OL    C112 8019   4.782   6.358   4.167
    3OL    H12R 8020   4.861   6.369   4.093
    3OL    H12S 8021   4.696   6.418   4.139
    3OL    C113 8022   4.751   6.207   4.160
    3OL    H13R 8023   4.687   6.180   4.244
    3OL    H13S 8024   4.839   6.145   4.180
    3OL    C114 8025   4.686   6.161   4.029
    3OL    H14R 8026   4.589   6.208   4.009
    3OL    H14S 8027   4.662   6.055   4.031
    3OL    C115 8028   4.777   6.168   3.905
    3OL    H15R 8029   4.760   6.078   3.845
    3OL    H15S 8030   4.878   6.149   3.939
    3OL    C116 8031   4.763   6.289   3.812
    3OL    H16R 8032   4.772   6.382   3.869
    3OL    H16S 8033   4.659   6.297   3.779
    3OL    C117 8034   4.853   6.301   3.688
    3OL    H17R 8035   4.816   6.235   3.609
    3OL    H17S 8036   4.959   6.277   3.695
    3OL    C118 8037   4.857   6.441   3.624
    3OL    H18R 8038   4.828   0.019   3.707
    3OL    H18S 8039   4.789   6.447   3.539
    3OL    H18T 8040   4.958   6.462   3.587
    1PA    C116 8041   4.304   4.390   3.821
    1PA    H16R 8042   4.366   4.446   3.891
    1PA    H16S 8043   4.289   4.443   3.727
    1PA    H16T 8044   4.365   4.303   3.796
    1PA    C115 8045   4.163   4.356   3.872
    1PA    H15R 8046   4.099   4.333   3.786
    1PA    H15S 8047   4.161   4.274   3.944
    1PA    C114 8048   4.099   4.479   3.938
    1PA    H14R 8049   4.174   4.525   4.003
    1PA    H14S 8050   4.077   4.539   3.849
    1PA    C113 8051   3.970   4.447   4.013
    1PA    H13R 8052   3.906   4.536   4.019
    1PA    H13S 8053   3.916   4.366   3.963
    1PA    C112 8054   4.009   4.409   4.157
    1PA    H12R 8055   4.067   4.317   4.156
    1PA    H12S 8056   4.073   4.486   4.201
    1PA    C111 8057   3.880   4.385   4.238
    1PA    H11R 8058   3.811   4.327   4.177
    1PA    H11S 8059   3.909   4.337   4.331
    1PA    C110 8060   3.811   4.517   4.275
    1PA    H10R 8061   3.803   4.585   4.189
    1PA    H10S 8062   3.714   4.495   4.319
    1PA     C19 8063   3.884   4.594   4.385
    1PA     H9R 8064   3.891   4.531   4.474
    1PA     H9S 8065   3.982   4.627   4.350
    1PA     C18 8066   3.807   4.721   4.425
    1PA     H8R 8067   3.790   4.785   4.338
    1PA     H8S 8068   3.716   4.684   4.472
    1PA     C17 8069   3.894   4.803   4.521
    1PA     H7R 8070   3.919   4.742   4.609
    1PA     H7S 8071   3.984   4.839   4.471
    1PA     C16 8072   3.830   4.937   4.557
    1PA     H6R 8073   3.835   4.989   4.461
    1PA     H6S 8074   3.729   4.908   4.588
    1PA     C15 8075   3.909   5.001   4.672
    1PA     H5R 8076   3.886   4.961   4.771
    1PA     H5S 8077   4.013   4.969   4.666
    1PA     C14 8078   3.891   5.153   4.679
    1PA     H4R 8079   3.928   5.213   4.596
    1PA     H4S 8080   3.785   5.175   4.673
    1PA     C13 8081   3.928   5.216   4.814
    1PA     H3R 8082   3.867   5.306   4.821
    1PA     H3S 8083   3.885   5.148   4.888
    1PA     C12 8084   4.076   5.255   4.812
    1PA     H2R 8085   4.140   5.192   4.750
    1PA     H2S 8086   4.079   5.357   4.775
    2PC     C11 8087   4.129   5.268   4.953
    2PC     O12 8088   4.070   5.322   5.044
    2PC     O11 8089   4.240   5.195   4.969
    2PC      C1 8090   4.315   5.211   5.091
    2PC      HR 8091   4.323   5.320   5.103
    2PC      HS 8092   4.261   5.177   5.180
    2PC      C2 8093   4.455   5.151   5.071
    2PC      HX 8094   4.452   5.043   5.061
    2PC      C3 8095   4.548   5.178   5.190
    2PC      HA 8096   4.509   5.113   5.269
    2PC      HB 8097   4.651   5.168   5.157
    2PC     O31 8098   4.519   5.312   5.235
    2PC     P31 8099   4.587   5.376   5.365
    2PC     O32 8100   4.526   5.276   5.474
    2PC     C31 8101   4.386   5.277   5.505
    2PC     H1A 8102   4.347   5.377   5.525
    2PC     H1B 8103   4.338   5.237   5.415
    2PC     C32 8104   4.365   5.189   5.629
    2PC     H2A 8105   4.259   5.182   5.652
    2PC     H2B 8106   4.402   5.089   5.604
    2PC     N31 8107   4.439   5.218   5.756
    2PC     C33 8108   4.577   5.158   5.750
    2PC     H3A 8109   4.628   5.171   5.846
    2PC     H3B 8110   4.575   5.050   5.737
    2PC     H3C 8111   4.633   5.201   5.667
    2PC     C34 8112   4.438   5.365   5.787
    2PC     H4A 8113   4.508   5.418   5.722
    2PC     H4B 8114   4.338   5.407   5.774
    2PC     H4C 8115   4.465   5.374   5.892
    2PC     C35 8116   4.382   5.148   5.875
    2PC     H5A 8117   4.375   5.042   5.852
    2PC     H5B 8118   4.287   5.197   5.897
    2PC     H5C 8119   4.449   5.160   5.961
    2PC     O33 8120   4.734   5.381   5.345
    2PC     O34 8121   4.547   5.513   5.404
    2PC     O21 8122   4.521   5.207   4.956
    2PC     C21 8123   4.616   5.131   4.898
    2PC     O22 8124   4.649   5.024   4.944
    3OL     C12 8125   4.679   5.196   4.778
    3OL     H2R 8126   4.773   5.146   4.752
    3OL     H2S 8127   4.704   5.296   4.814
    3OL     C13 8128   4.576   5.202   4.664
    3OL     H3R 8129   4.482   5.242   4.702
    3OL     H3S 8130   4.553   5.101   4.630
    3OL     C14 8131   4.620   5.290   4.546
    3OL     H4R 8132   4.682   5.372   4.583
    3OL     H4S 8133   4.538   5.338   4.493
    3OL     C15 8134   4.693   5.203   4.442
    3OL     H5R 8135   4.653   5.102   4.429
    3OL     H5S 8136   4.789   5.176   4.486
    3OL     C16 8137   4.720   5.287   4.317
    3OL     H6R 8138   4.803   5.354   4.342
    3OL     H6S 8139   4.634   5.351   4.295
    3OL     C17 8140   4.772   5.201   4.201
    3OL     H7R 8141   4.856   5.140   4.235
    3OL     H7S 8142   4.826   5.264   4.130
    3OL     C18 8143   4.670   5.110   4.131
    3OL     H8R 8144   4.634   5.030   4.196
    3OL     H8S 8145   4.718   5.052   4.051
    3OL     C19 8146   4.546   5.182   4.085
    3OL     H9R 8147   4.539   5.284   4.121
    3OL    C110 8148   4.469   5.142   3.985
    3OL    H10R 8149   4.396   5.217   3.954
    3OL    C111 8150   4.457   4.999   3.940
    3OL    H11R 8151   4.352   4.968   3.938
    3OL    H11S 8152   4.512   4.942   4.014
    3OL    C112 8153   4.515   4.990   3.798
    3OL    H12R 8154   4.623   5.006   3.802
    3OL    H12S 8155   4.456   5.056   3.735
    3OL    C113 8156   4.515   4.845   3.746
    3OL    H13R 8157   4.419   4.803   3.777
    3OL    H13S 8158   4.586   4.790   3.808
    3OL    C114 8159   4.527   4.825   3.594
    3OL    H14R 8160   4.617   4.880   3.567
    3OL    H14S 8161   4.449   4.879   3.540
    3OL    C115 8162   4.555   4.682   3.547
    3OL    H15R 8163   4.466   4.620   3.560
    3OL    H15S 8164   4.629   4.632   3.610
    3OL    C116 8165   4.596   4.692   3.399
    3OL    H16R 8166   4.686   4.751   3.381
    3OL    H16S 8167   4.516   4.742   3.345
    3OL    C117 8168   4.610   4.556   3.329
    3OL    H17R 8169   4.569   4.559   3.228
    3OL    H17S 8170   4.553   4.486   3.390
    3OL    C118 8171   4.753   4.501   3.319
    3OL    H18R 8172   4.762   4.427   3.240
    3OL    H18S 8173   4.784   4.454   3.413
    3OL    H18T 8174   4.819   4.584   3.292
    1PA    C116 8175   0.639   5.968   4.348
    1PA    H16R 8176   0.704   5.887   4.314
    1PA    H16S 8177   0.695   6.032   4.416
    1PA    H16T 8178   0.637   6.035   4.262
    1PA    C115 8179   0.499   5.924   4.395
    1PA    H15R 8180   0.455   5.857   4.322
    1PA    H15S 8181   0.513   5.871   4.489
    1PA    C114 8182   0.408   6.046   4.416
    1PA    H14R 8183   0.465   6.131   4.453
    1PA    H14S 8184   0.365   6.081   4.322
    1PA    C113 8185   0.283   6.030   4.504
    1PA    H13R 8186   0.234   6.128   4.500
    1PA    H13S 8187   0.217   5.960   4.452
    1PA    C112 8188   0.309   6.002   4.652
    1PA    H12R 8189   0.415   6.020   4.669
    1PA    H12S 8190   0.255   6.064   4.724
    1PA    C111 8191   0.280   5.852   4.673
    1PA    H11R 8192   0.326   5.800   4.588
    1PA    H11S 8193   0.337   5.817   4.759
    1PA    C110 8194   0.131   5.819   4.689
    1PA    H10R 8195   0.073   5.879   4.618
    1PA    H10S 8196   0.112   5.718   4.654
    1PA     C19 8197   0.082   5.859   4.828
    1PA     H9R 8198   0.154   5.828   4.905
    1PA     H9S 8199   0.075   5.965   4.851
    1PA     C18 8200   6.433   5.792   4.856
    1PA     H8R 8201   6.363   5.845   4.791
    1PA     H8S 8202   6.426   5.689   4.818
    1PA     C17 8203   6.388   5.812   5.001
    1PA     H7R 8204   6.457   5.765   5.071
    1PA     H7S 8205   6.374   5.918   5.023
    1PA     C16 8206   6.252   5.741   5.014
    1PA     H6R 8207   6.258   5.642   4.967
    1PA     H6S 8208   6.234   5.725   5.120
    1PA     C15 8209   6.131   5.814   4.954
    1PA     H5R 8210   6.127   5.802   4.846
    1PA     H5S 8211   6.047   5.751   4.984
    1PA     C14 8212   6.099   5.955   5.006
    1PA     H4R 8213   6.182   6.021   4.978
    1PA     H4S 8214   6.014   5.978   4.942
    1PA     C13 8215   6.070   5.960   5.157
    1PA     H3R 8216   5.983   5.901   5.185
    1PA     H3S 8217   6.147   5.921   5.224
    1PA     C12 8218   6.049   6.107   5.198
    1PA     H2R 8219   6.139   6.168   5.189
    1PA     H2S 8220   5.963   6.152   5.148
    2PC     C11 8221   6.008   6.102   5.343
    2PC     O12 8222   6.088   6.081   5.432
    2PC     O11 8223   5.876   6.109   5.365
    2PC      C1 8224   5.836   6.063   5.496
    2PC      HR 8225   5.878   5.963   5.514
    2PC      HS 8226   5.880   6.131   5.569
    2PC      C2 8227   5.683   6.059   5.493
    2PC      HX 8228   5.638   6.152   5.456
    2PC      C3 8229   5.622   6.034   5.632
    2PC      HA 8230   5.618   6.132   5.681
    2PC      HB 8231   5.521   5.993   5.631
    2PC     O31 8232   5.711   5.947   5.705
    2PC     P31 8233   5.682   5.914   5.859
    2PC     O32 8234   5.811   5.820   5.872
    2PC     C31 8235   5.810   5.695   5.799
    2PC     H1A 8236   5.717   5.686   5.743
    2PC     H1B 8237   5.896   5.696   5.732
    2PC     C32 8238   5.821   5.579   5.899
    2PC     H2A 8239   5.880   5.604   5.987
    2PC     H2B 8240   5.722   5.554   5.938
    2PC     N31 8241   5.875   5.452   5.841
    2PC     C33 8242   5.806   5.417   5.712
    2PC     H3A 8243   5.835   5.490   5.636
    2PC     H3B 8244   5.848   5.320   5.685
    2PC     H3C 8245   5.698   5.413   5.728
    2PC     C34 8246   6.024   5.462   5.828
    2PC     H4A 8247   6.048   5.536   5.751
    2PC     H4B 8248   6.059   5.496   5.925
    2PC     H4C 8249   6.071   5.367   5.800
    2PC     C35 8250   5.851   5.341   5.939
    2PC     H5A 8251   5.925   5.341   6.020
    2PC     H5B 8252   5.856   5.253   5.876
    2PC     H5C 8253   5.751   5.348   5.982
    2PC     O33 8254   5.696   6.025   5.955
    2PC     O34 8255   5.570   5.820   5.884
    2PC     O21 8256   5.660   5.951   5.401
    2PC     C21 8257   5.537   5.911   5.367
    2PC     O22 8258   5.438   5.963   5.414
    3OL     C12 8259   5.537   5.796   5.270
    3OL     H2R 8260   5.450   5.805   5.204
    3OL     H2S 8261   5.510   5.705   5.325
    3OL     C13 8262   5.663   5.790   5.183
    3OL     H3R 8263   5.744   5.741   5.238
    3OL     H3S 8264   5.699   5.890   5.160
    3OL     C14 8265   5.635   5.705   5.058
    3OL     H4R 8266   5.574   5.753   4.982
    3OL     H4S 8267   5.583   5.615   5.091
    3OL     C15 8268   5.766   5.672   4.985
    3OL     H5R 8269   5.838   5.623   5.052
    3OL     H5S 8270   5.804   5.768   4.948
    3OL     C16 8271   5.744   5.574   4.869
    3OL     H6R 8272   5.815   5.602   4.791
    3OL     H6S 8273   5.647   5.597   4.824
    3OL     C17 8274   5.748   5.426   4.910
    3OL     H7R 8275   5.703   5.363   4.833
    3OL     H7S 8276   5.683   5.411   4.996
    3OL     C18 8277   5.892   5.390   4.950
    3OL     H8R 8278   5.892   5.370   5.057
    3OL     H8S 8279   5.961   5.472   4.931
    3OL     C19 8280   5.938   5.263   4.882
    3OL     H9R 8281   5.858   5.192   4.863
    3OL    C110 8282   6.066   5.235   4.861
    3OL    H10R 8283   6.086   5.138   4.817
    3OL    C111 8284   6.182   5.325   4.893
    3OL    H11R 8285   6.268   5.268   4.928
    3OL    H11S 8286   6.148   5.396   4.969
    3OL    C112 8287   6.211   5.420   4.776
    3OL    H12R 8288   6.296   5.482   4.806
    3OL    H12S 8289   6.130   5.491   4.757
    3OL    C113 8290   6.241   5.343   4.647
    3OL    H13R 8291   6.152   5.283   4.623
    3OL    H13S 8292   6.327   5.281   4.674
    3OL    C114 8293   6.278   5.423   4.522
    3OL    H14R 8294   6.229   5.520   4.520
    3OL    H14S 8295   6.247   5.358   4.440
    3OL    C115 8296   6.430   5.446   4.522
    3OL    H15R 8297   6.475   5.347   4.514
    3OL    H15S 8298   6.466   5.488   4.616
    3OL    C116 8299   6.474   5.519   4.395
    3OL    H16R 8300   6.418   5.613   4.385
    3OL    H16S 8301   6.448   5.457   4.309
    3OL    C117 8302   0.139   5.542   4.401
    3OL    H17R 8303   0.186   5.448   4.430
    3OL    H17S 8304   0.164   5.610   4.483
    3OL    C118 8305   0.204   5.607   4.278
    3OL    H18R 8306   0.309   5.625   4.302
    3OL    H18S 8307   0.156   5.699   4.241
    3OL    H18T 8308   0.196   5.537   4.194
    1PA    C116 8309   5.585   1.053   4.025
    1PA    H16R 8310   5.654   1.114   3.966
    1PA    H16S 8311   5.492   1.060   3.969
    1PA    H16T 8312   5.618   0.950   4.042
    1PA    C115 8313   5.562   1.115   4.164
    1PA    H15R 8314   5.548   1.223   4.156
    1PA    H15S 8315   5.479   1.072   4.220
    1PA    C114 8316   5.689   1.109   4.251
    1PA    H14R 8317   5.714   1.003   4.258
    1PA    H14S 8318   5.764   1.169   4.200
    1PA    C113 8319   5.653   1.162   4.390
    1PA    H13R 8320   5.593   1.253   4.377
    1PA    H13S 8321   5.584   1.086   4.427
    1PA    C112 8322   5.767   1.184   4.491
    1PA    H12R 8323   5.815   1.088   4.510
    1PA    H12S 8324   5.853   1.244   4.459
    1PA    C111 8325   5.720   1.239   4.626
    1PA    H11R 8326   5.808   1.258   4.687
    1PA    H11S 8327   5.669   1.333   4.604
    1PA    C110 8328   5.643   1.133   4.706
    1PA    H10R 8329   5.559   1.095   4.648
    1PA    H10S 8330   5.713   1.051   4.723
    1PA     C19 8331   5.601   1.195   4.840
    1PA     H9R 8332   5.596   1.114   4.913
    1PA     H9S 8333   5.679   1.259   4.882
    1PA     C18 8334   5.476   1.283   4.837
    1PA     H8R 8335   5.479   1.331   4.935
    1PA     H8S 8336   5.486   1.370   4.772
    1PA     C17 8337   5.341   1.214   4.814
    1PA     H7R 8338   5.334   1.197   4.706
    1PA     H7S 8339   5.338   1.121   4.871
    1PA     C16 8340   5.224   1.303   4.858
    1PA     H6R 8341   5.220   1.325   4.965
    1PA     H6S 8342   5.229   1.404   4.816
    1PA     C15 8343   5.091   1.240   4.815
    1PA     H5R 8344   5.016   1.317   4.799
    1PA     H5S 8345   5.106   1.179   4.726
    1PA     C14 8346   5.046   1.141   4.924
    1PA     H4R 8347   4.976   1.073   4.873
    1PA     H4S 8348   5.126   1.081   4.967
    1PA     C13 8349   4.967   1.214   5.033
    1PA     H3R 8350   5.029   1.291   5.081
    1PA     H3S 8351   4.883   1.256   4.978
    1PA     C12 8352   4.919   1.112   5.137
    1PA     H2R 8353   4.850   1.037   5.098
    1PA     H2S 8354   4.993   1.039   5.171
    2PC     C11 8355   4.845   1.194   5.240
    2PC     O12 8356   4.759   1.146   5.310
    2PC     O11 8357   4.892   1.319   5.254
    2PC      C1 8358   4.840   1.388   5.370
    2PC      HR 8359   4.889   1.486   5.370
    2PC      HS 8360   4.732   1.399   5.358
    2PC      C2 8361   4.893   1.321   5.497
    2PC      HX 8362   4.855   1.219   5.504
    2PC      C3 8363   4.846   1.402   5.619
    2PC      HA 8364   4.862   1.509   5.606
    2PC      HB 8365   4.741   1.379   5.641
    2PC     O31 8366   4.924   1.351   5.728
    2PC     P31 8367   4.887   1.408   5.873
    2PC     O32 8368   5.015   1.366   5.960
    2PC     C31 8369   5.130   1.452   5.961
    2PC     H1A 8370   5.181   1.446   5.864
    2PC     H1B 8371   5.092   1.554   5.966
    2PC     C32 8372   5.227   1.418   6.074
    2PC     H2A 8373   5.282   1.326   6.054
    2PC     H2B 8374   5.293   1.504   6.075
    2PC     N31 8375   5.184   1.399   6.217
    2PC     C33 8376   5.296   1.400   6.316
    2PC     H3A 8377   5.346   1.496   6.297
    2PC     H3B 8378   5.265   1.406   6.420
    2PC     H3C 8379   5.371   1.327   6.285
    2PC     C34 8380   5.089   1.505   6.264
    2PC     H4A 8381   5.016   1.516   6.183
    2PC     H4B 8382   5.024   1.465   6.341
    2PC     H4C 8383   5.153   1.590   6.288
    2PC     C35 8384   5.117   1.265   6.222
    2PC     H5A 8385   5.070   1.250   6.319
    2PC     H5B 8386   5.186   1.185   6.194
    2PC     H5C 8387   5.029   1.271   6.158
    2PC     O33 8388   4.883   1.556   5.871
    2PC     O34 8389   4.758   1.353   5.922
    2PC     O21 8390   5.036   1.336   5.487
    2PC     C21 8391   5.115   1.232   5.455
    2PC     O22 8392   5.070   1.123   5.426
    3OL     C12 8393   5.263   1.258   5.464
    3OL     H2R 8394   5.321   1.174   5.502
    3OL     H2S 8395   5.277   1.346   5.527
    3OL     C13 8396   5.318   1.313   5.331
    3OL     H3R 8397   5.420   1.347   5.347
    3OL     H3S 8398   5.258   1.395   5.291
    3OL     C14 8399   5.340   1.204   5.224
    3OL     H4R 8400   5.371   1.258   5.134
    3OL     H4S 8401   5.246   1.150   5.215
    3OL     C15 8402   5.459   1.115   5.262
    3OL     H5R 8403   5.461   1.077   5.364
    3OL     H5S 8404   5.551   1.172   5.251
    3OL     C16 8405   5.476   0.990   5.174
    3OL     H6R 8406   5.461   1.022   5.071
    3OL     H6S 8407   5.400   0.916   5.201
    3OL     C17 8408   5.617   0.929   5.184
    3OL     H7R 8409   5.646   0.905   5.287
    3OL     H7S 8410   5.700   0.991   5.150
    3OL     C18 8411   5.625   0.798   5.106
    3OL     H8R 8412   5.583   0.812   5.006
    3OL     H8S 8413   5.556   0.726   5.150
    3OL     C19 8414   5.766   0.747   5.088
    3OL     H9R 8415   5.843   0.823   5.074
    3OL    C110 8416   5.794   0.619   5.103
    3OL    H10R 8417   5.898   0.587   5.100
    3OL    C111 8418   5.687   0.512   5.107
    3OL    H11R 8419   5.600   0.534   5.044
    3OL    H11S 8420   5.645   0.501   5.207
    3OL    C112 8421   5.744   0.378   5.061
    3OL    H12R 8422   5.843   0.369   5.107
    3OL    H12S 8423   5.757   0.377   4.952
    3OL    C113 8424   5.647   0.269   5.109
    3OL    H13R 8425   5.607   0.285   5.209
    3OL    H13S 8426   5.685   0.168   5.093
    3OL    C114 8427   5.518   0.264   5.026
    3OL    H14R 8428   5.458   0.356   5.036
    3OL    H14S 8429   5.440   0.194   5.055
    3OL    C115 8430   5.546   0.223   4.880
    3OL    H15R 8431   5.608   0.134   4.885
    3OL    H15S 8432   5.610   0.295   4.828
    3OL    C116 8433   5.410   0.209   4.810
    3OL    H16R 8434   5.345   0.296   4.820
    3OL    H16S 8435   5.347   0.136   4.862
    3OL    C117 8436   5.409   0.167   4.663
    3OL    H17R 8437   5.311   0.145   4.619
    3OL    H17S 8438   5.477   0.083   4.648
    3OL    C118 8439   5.463   0.285   4.581
    3OL    H18R 8440   5.541   0.344   4.628
    3OL    H18S 8441   5.377   0.352   4.588
    3OL    H18T 8442   5.498   0.259   4.481
    1PA    C116 8443   5.772   5.236   4.531
    1PA    H16R 8444   5.804   5.332   4.573
    1PA    H16S 8445   5.793   5.239   4.424
    1PA    H16T 8446   5.827   5.158   4.584
    1PA    C115 8447   5.622   5.228   4.562
    1PA    H15R 8448   5.598   5.134   4.513
    1PA    H15S 8449   5.609   5.224   4.671
    1PA    C114 8450   5.536   5.329   4.485
    1PA    H14R 8451   5.549   5.343   4.377
    1PA    H14S 8452   5.432   5.298   4.497
    1PA    C113 8453   5.543   5.463   4.560
    1PA    H13R 8454   5.503   5.449   4.661
    1PA    H13S 8455   5.648   5.492   4.560
    1PA    C112 8456   5.460   5.574   4.493
    1PA    H12R 8457   5.512   5.601   4.401
    1PA    H12S 8458   5.359   5.538   4.475
    1PA    C111 8459   5.439   5.700   4.578
    1PA    H11R 8460   5.365   5.763   4.528
    1PA    H11S 8461   5.404   5.674   4.678
    1PA    C110 8462   5.575   5.770   4.586
    1PA    H10R 8463   5.653   5.706   4.627
    1PA    H10S 8464   5.591   5.796   4.482
    1PA     C19 8465   5.556   5.899   4.668
    1PA     H9R 8466   5.488   5.952   4.601
    1PA     H9S 8467   5.526   5.882   4.771
    1PA     C18 8468   5.674   5.996   4.679
    1PA     H8R 8469   5.758   5.947   4.729
    1PA     H8S 8470   5.705   6.035   4.582
    1PA     C17 8471   5.643   6.128   4.751
    1PA     H7R 8472   5.706   6.207   4.712
    1PA     H7S 8473   5.541   6.159   4.727
    1PA     C16 8474   5.652   6.113   4.904
    1PA     H6R 8475   5.569   6.048   4.932
    1PA     H6S 8476   5.744   6.061   4.931
    1PA     C15 8477   5.643   6.249   4.975
    1PA     H5R 8478   5.733   6.304   4.948
    1PA     H5S 8479   5.550   6.295   4.941
    1PA     C14 8480   5.649   6.239   5.128
    1PA     H4R 8481   5.576   6.162   5.156
    1PA     H4S 8482   5.745   6.202   5.163
    1PA     C13 8483   5.630   6.375   5.196
    1PA     H3R 8484   5.658   6.377   5.302
    1PA     H3S 8485   5.685   6.449   5.138
    1PA     C12 8486   5.481   6.413   5.197
    1PA     H2R 8487   5.448   6.451   5.100
    1PA     H2S 8488   5.417   6.332   5.233
    2PC     C11 8489   5.444   0.029   5.302
    2PC     O12 8490   5.515   0.064   5.393
    2PC     O11 8491   5.321   0.079   5.279
    2PC      C1 8492   5.252   0.145   5.385
    2PC      HR 8493   5.144   0.136   5.372
    2PC      HS 8494   5.274   0.086   5.474
    2PC      C2 8495   5.296   0.291   5.409
    2PC      HX 8496   5.396   0.307   5.369
    2PC      C3 8497   5.303   0.334   5.556
    2PC      HA 8498   5.393   0.297   5.604
    2PC      HB 8499   5.312   0.443   5.564
    2PC     O31 8500   5.190   0.269   5.618
    2PC     P31 8501   5.158   0.278   5.774
    2PC     O32 8502   5.010   0.216   5.764
    2PC     C31 8503   4.904   0.312   5.750
    2PC     H1A 8504   4.892   0.378   5.836
    2PC     H1B 8505   4.915   0.364   5.655
    2PC     C32 8506   4.777   0.225   5.746
    2PC     H2A 8507   4.758   0.185   5.845
    2PC     H2B 8508   4.691   0.292   5.741
    2PC     N31 8509   4.759   0.110   5.652
    2PC     C33 8510   4.835   6.475   5.698
    2PC     H3A 8511   4.803   6.442   5.796
    2PC     H3B 8512   4.809   6.396   5.627
    2PC     H3C 8513   4.941   0.013   5.704
    2PC     C34 8514   4.611   0.085   5.652
    2PC     H4A 8515   4.582   0.033   5.560
    2PC     H4B 8516   4.583   0.012   5.728
    2PC     H4C 8517   4.560   0.181   5.655
    2PC     C35 8518   4.807   0.157   5.518
    2PC     H5A 8519   4.782   0.263   5.515
    2PC     H5B 8520   4.757   0.106   5.435
    2PC     H5C 8521   4.914   0.136   5.522
    2PC     O33 8522   5.250   0.203   5.863
    2PC     O34 8523   5.161   0.418   5.823
    2PC     O21 8524   5.204   0.373   5.334
    2PC     C21 8525   5.245   0.494   5.294
    2PC     O22 8526   5.353   0.544   5.317
    3OL     C12 8527   5.137   0.565   5.215
    3OL     H2R 8528   5.080   0.628   5.284
    3OL     H2S 8529   5.079   0.491   5.161
    3OL     C13 8530   5.182   0.645   5.091
    3OL     H3R 8531   5.262   0.714   5.117
    3OL     H3S 8532   5.096   0.688   5.040
    3OL     C14 8533   5.226   0.546   4.982
    3OL     H4R 8534   5.163   0.457   4.977
    3OL     H4S 8535   5.326   0.504   4.995
    3OL     C15 8536   5.233   0.618   4.847
    3OL     H5R 8537   5.141   0.674   4.829
    3OL     H5S 8538   5.242   0.538   4.774
    3OL     C16 8539   5.359   0.706   4.843
    3OL     H6R 8540   5.451   0.647   4.850
    3OL     H6S 8541   5.370   0.776   4.926
    3OL     C17 8542   5.370   0.795   4.718
    3OL     H7R 8543   5.459   0.858   4.727
    3OL     H7S 8544   5.289   0.867   4.701
    3OL     C18 8545   5.372   0.709   4.591
    3OL     H8R 8546   5.274   0.662   4.589
    3OL     H8S 8547   5.439   0.623   4.596
    3OL     C19 8548   5.391   0.784   4.462
    3OL     H9R 8549   5.301   0.821   4.413
    3OL    C110 8550   5.512   0.796   4.411
    3OL    H10R 8551   5.524   0.847   4.315
    3OL    C111 8552   5.640   0.746   4.473
    3OL    H11R 8553   5.629   0.740   4.582
    3OL    H11S 8554   5.717   0.822   4.457
    3OL    C112 8555   5.672   0.613   4.403
    3OL    H12R 8556   5.590   0.549   4.437
    3OL    H12S 8557   5.765   0.594   4.456
    3OL    C113 8558   5.680   0.613   4.250
    3OL    H13R 8559   5.765   0.677   4.223
    3OL    H13S 8560   5.590   0.654   4.203
    3OL    C114 8561   5.720   0.473   4.201
    3OL    H14R 8562   5.782   0.425   4.277
    3OL    H14S 8563   5.780   0.479   4.110
    3OL    C115 8564   5.605   0.377   4.169
    3OL    H15R 8565   5.544   0.433   4.098
    3OL    H15S 8566   5.547   0.347   4.257
    3OL    C116 8567   5.653   0.249   4.100
    3OL    H16R 8568   5.708   0.291   4.015
    3OL    H16S 8569   5.566   0.188   4.073
    3OL    C117 8570   5.750   0.162   4.180
    3OL    H17R 8571   5.849   0.208   4.187
    3OL    H17S 8572   5.767   0.068   4.127
    3OL    C118 8573   5.712   0.133   4.325
    3OL    H18R 8574   5.700   0.225   4.383
    3OL    H18S 8575   5.790   0.072   4.371
    3OL    H18T 8576   5.612   0.088   4.325
    1PA    C116 8577   0.959   3.114   4.081
    1PA    H16R 8578   1.037   3.189   4.092
    1PA    H16S 8579   0.975   3.040   4.160
    1PA    H16T 8580   0.866   3.166   4.103
    1PA    C115 8581   0.971   3.043   3.945
    1PA    H15R 8582   1.007   3.115   3.870
    1PA    H15S 8583   1.045   2.963   3.951
    1PA    C114 8584   0.841   2.979   3.893
    1PA    H14R 8585   0.795   2.908   3.962
    1PA    H14S 8586   0.771   3.063   3.898
    1PA    C113 8587   0.841   2.915   3.754
    1PA    H13R 8588   0.858   2.993   3.679
    1PA    H13S 8589   0.915   2.835   3.749
    1PA    C112 8590   0.700   2.861   3.728
    1PA    H12R 8591   0.684   2.783   3.804
    1PA    H12S 8592   0.622   2.936   3.740
    1PA    C111 8593   0.697   2.791   3.592
    1PA    H11R 8594   0.740   2.860   3.519
    1PA    H11S 8595   0.762   2.703   3.590
    1PA    C110 8596   0.555   2.749   3.550
    1PA    H10R 8597   0.530   2.664   3.613
    1PA    H10S 8598   0.484   2.826   3.579
    1PA     C19 8599   0.554   2.724   3.399
    1PA     H9R 8600   0.563   2.820   3.347
    1PA     H9S 8601   0.638   2.657   3.381
    1PA     C18 8602   0.423   2.664   3.345
    1PA     H8R 8603   0.416   2.556   3.363
    1PA     H8S 8604   0.342   2.711   3.401
    1PA     C17 8605   0.408   2.696   3.196
    1PA     H7R 8606   0.300   2.696   3.177
    1PA     H7S 8607   0.432   2.801   3.180
    1PA     C16 8608   0.494   2.608   3.105
    1PA     H6R 8609   0.587   2.599   3.162
    1PA     H6S 8610   0.451   2.507   3.102
    1PA     C15 8611   0.512   2.658   2.961
    1PA     H5R 8612   0.578   2.745   2.958
    1PA     H5S 8613   0.564   2.583   2.900
    1PA     C14 8614   0.383   2.694   2.887
    1PA     H4R 8615   0.307   2.616   2.886
    1PA     H4S 8616   0.333   2.778   2.937
    1PA     C13 8617   0.400   2.734   2.740
    1PA     H3R 8618   0.299   2.749   2.699
    1PA     H3S 8619   0.453   2.829   2.728
    1PA     C12 8620   0.459   2.621   2.654
    1PA     H2R 8621   0.567   2.636   2.658
    1PA     H2S 8622   0.430   2.522   2.691
    2PC     C11 8623   0.434   2.641   2.507
    2PC     O12 8624   0.472   2.551   2.434
    2PC     O11 8625   0.379   2.757   2.468
    2PC      C1 8626   0.347   2.769   2.329
    2PC      HR 8627   0.307   2.871   2.329
    2PC      HS 8628   0.418   2.745   2.249
    2PC      C2 8629   0.220   2.688   2.298
    2PC      HX 8630   0.226   2.582   2.324
    2PC      C3 8631   0.187   2.687   2.148
    2PC      HA 8632   0.084   2.651   2.140
    2PC      HB 8633   0.246   2.613   2.093
    2PC     O31 8634   0.191   2.816   2.084
    2PC     P31 8635   0.182   2.829   1.925
    2PC     O32 8636   0.038   2.780   1.874
    2PC     C31 8637   6.413   2.861   1.915
    2PC     H1A 8638   6.416   2.873   2.024
    2PC     H1B 8639   6.425   2.960   1.870
    2PC     C32 8640   6.278   2.801   1.873
    2PC     H2A 8641   6.195   2.844   1.929
    2PC     H2B 8642   6.268   2.835   1.770
    2PC     N31 8643   6.258   2.653   1.880
    2PC     C33 8644   6.250   2.610   2.023
    2PC     H3A 8645   6.175   2.666   2.079
    2PC     H3B 8646   6.212   2.508   2.030
    2PC     H3C 8647   6.346   2.627   2.071
    2PC     C34 8648   6.125   2.633   1.814
    2PC     H4A 8649   6.048   2.680   1.876
    2PC     H4B 8650   6.118   2.690   1.721
    2PC     H4C 8651   6.099   2.528   1.798
    2PC     C35 8652   6.360   2.585   1.793
    2PC     H5A 8653   6.330   2.482   1.773
    2PC     H5B 8654   6.458   2.580   1.840
    2PC     H5C 8655   6.359   2.637   1.697
    2PC     O33 8656   0.229   2.958   1.869
    2PC     O34 8657   0.299   2.755   1.871
    2PC     O21 8658   0.107   2.750   2.360
    2PC     C21 8659   0.047   2.694   2.467
    2PC     O22 8660   0.060   2.581   2.509
    3OL     C12 8661   6.438   2.796   2.525
    3OL     H2R 8662   6.352   2.739   2.558
    3OL     H2S 8663   6.395   2.857   2.445
    3OL     C13 8664   0.010   2.870   2.647
    3OL     H3R 8665   0.081   2.940   2.602
    3OL     H3S 8666   0.068   2.803   2.710
    3OL     C14 8667   6.389   2.943   2.729
    3OL     H4R 8668   6.325   2.869   2.778
    3OL     H4S 8669   6.331   3.013   2.669
    3OL     C15 8670   6.446   3.041   2.833
    3OL     H5R 8671   0.046   3.093   2.793
    3OL     H5S 8672   6.485   2.974   2.911
    3OL     C16 8673   6.341   3.143   2.879
    3OL     H6R 8674   6.259   3.093   2.931
    3OL     H6S 8675   6.307   3.190   2.787
    3OL     C17 8676   6.408   3.250   2.967
    3OL     H7R 8677   0.008   3.292   2.915
    3OL     H7S 8678   6.440   3.209   3.063
    3OL     C18 8679   6.312   3.359   3.016
    3OL     H8R 8680   6.303   3.414   2.922
    3OL     H8S 8681   6.362   3.422   3.090
    3OL     C19 8682   6.183   3.305   3.069
    3OL     H9R 8683   6.101   3.305   2.998
    3OL    C110 8684   6.165   3.273   3.197
    3OL    H10R 8685   6.072   3.221   3.219
    3OL    C111 8686   6.278   3.257   3.295
    3OL    H11R 8687   6.355   3.326   3.263
    3OL    H11S 8688   6.320   3.160   3.269
    3OL    C112 8689   6.241   3.258   3.444
    3OL    H12R 8690   6.181   3.168   3.458
    3OL    H12S 8691   6.182   3.348   3.461
    3OL    C113 8692   6.353   3.246   3.549
    3OL    H13R 8693   6.410   3.339   3.551
    3OL    H13S 8694   6.416   3.159   3.532
    3OL    C114 8695   6.294   3.238   3.690
    3OL    H14R 8696   6.232   3.150   3.708
    3OL    H14S 8697   6.229   3.325   3.703
    3OL    C115 8698   6.402   3.237   3.799
    3OL    H15R 8699   6.486   3.302   3.770
    3OL    H15S 8700   6.446   3.137   3.805
    3OL    C116 8701   6.349   3.260   3.941
    3OL    H16R 8702   6.409   3.198   4.008
    3OL    H16S 8703   6.247   3.225   3.956
    3OL    C117 8704   6.355   3.407   3.983
    3OL    H17R 8705   6.303   3.410   4.079
    3OL    H17S 8706   6.293   3.463   3.912
    3OL    C118 8707   0.008   3.472   3.987
    3OL    H18R 8708   0.044   3.493   3.886
    3OL    H18S 8709   0.074   3.404   4.041
    3OL    H18T 8710   6.477   3.569   4.034
    1PA    C116 8711   0.842   0.872   3.484
    1PA    H16R 8712   0.800   0.771   3.477
    1PA    H16S 8713   0.798   0.903   3.579
    1PA    H16T 8714   0.949   0.862   3.502
    1PA    C115 8715   0.817   0.963   3.363
    1PA    H15R 8716   0.715   1.000   3.368
    1PA    H15S 8717   0.877   1.051   3.390
    1PA    C114 8718   0.862   0.894   3.234
    1PA    H14R 8719   0.970   0.880   3.229
    1PA    H14S 8720   0.819   0.795   3.219
    1PA    C113 8721   0.824   0.989   3.119
    1PA    H13R 8722   0.717   1.013   3.119
    1PA    H13S 8723   0.874   1.083   3.141
    1PA    C112 8724   0.859   0.926   2.983
    1PA    H12R 8725   0.968   0.916   2.981
    1PA    H12S 8726   0.820   0.824   2.978
    1PA    C111 8727   0.802   1.020   2.876
    1PA    H11R 8728   0.694   1.030   2.886
    1PA    H11S 8729   0.849   1.118   2.894
    1PA    C110 8730   0.825   0.963   2.735
    1PA    H10R 8731   0.928   0.981   2.705
    1PA    H10S 8732   0.796   0.858   2.728
    1PA     C19 8733   0.727   1.031   2.639
    1PA     H9R 8734   0.729   0.978   2.544
    1PA     H9S 8735   0.626   1.034   2.680
    1PA     C18 8736   0.766   1.178   2.615
    1PA     H8R 8737   0.764   1.229   2.712
    1PA     H8S 8738   0.864   1.188   2.568
    1PA     C17 8739   0.675   1.222   2.499
    1PA     H7R 8740   0.689   1.148   2.421
    1PA     H7S 8741   0.573   1.220   2.537
    1PA     C16 8742   0.725   1.361   2.457
    1PA     H6R 8743   0.765   1.405   2.549
    1PA     H6S 8744   0.819   1.352   2.402
    1PA     C15 8745   0.616   1.456   2.405
    1PA     H5R 8746   0.571   1.412   2.316
    1PA     H5S 8747   0.543   1.459   2.486
    1PA     C14 8748   0.673   1.592   2.361
    1PA     H4R 8749   0.764   1.568   2.305
    1PA     H4S 8750   0.600   1.642   2.297
    1PA     C13 8751   0.697   1.687   2.479
    1PA     H3R 8752   0.598   1.721   2.510
    1PA     H3S 8753   0.737   1.632   2.565
    1PA     C12 8754   0.792   1.803   2.446
    1PA     H2R 8755   0.828   1.849   2.538
    1PA     H2S 8756   0.882   1.759   2.402
    2PC     C11 8757   0.736   1.900   2.345
    2PC     O12 8758   0.806   1.956   2.263
    2PC     O11 8759   0.603   1.912   2.359
    2PC      C1 8760   0.528   1.990   2.264
    2PC      HR 8761   0.576   2.087   2.250
    2PC      HS 8762   0.524   1.929   2.173
    2PC      C2 8763   0.386   2.020   2.314
    2PC      HX 8764   0.355   1.932   2.371
    2PC      C3 8765   0.286   2.056   2.204
    2PC      HA 8766   0.275   1.970   2.137
    2PC      HB 8767   0.191   2.095   2.241
    2PC     O31 8768   0.346   2.153   2.115
    2PC     P31 8769   0.253   2.236   2.015
    2PC     O32 8770   0.369   2.304   1.928
    2PC     C31 8771   0.325   2.406   1.836
    2PC     H1A 8772   0.251   2.358   1.771
    2PC     H1B 8773   0.285   2.488   1.895
    2PC     C32 8774   0.454   2.450   1.766
    2PC     H2A 8775   0.439   2.555   1.742
    2PC     H2B 8776   0.537   2.449   1.837
    2PC     N31 8777   0.509   2.367   1.653
    2PC     C33 8778   0.629   2.444   1.609
    2PC     H3A 8779   0.702   2.449   1.690
    2PC     H3B 8780   0.652   2.382   1.522
    2PC     H3C 8781   0.600   2.545   1.579
    2PC     C34 8782   0.548   2.230   1.701
    2PC     H4A 8783   0.454   2.184   1.731
    2PC     H4B 8784   0.597   2.185   1.615
    2PC     H4C 8785   0.615   2.230   1.787
    2PC     C35 8786   0.409   2.370   1.541
    2PC     H5A 8787   0.372   2.470   1.519
    2PC     H5B 8788   0.326   2.308   1.575
    2PC     H5C 8789   0.455   2.336   1.448
    2PC     O33 8790   0.172   2.132   1.945
    2PC     O34 8791   0.164   2.333   2.082
    2PC     O21 8792   0.392   2.134   2.402
    2PC     C21 8793   0.286   2.156   2.483
    2PC     O22 8794   0.194   2.077   2.485
    3OL     C12 8795   0.287   2.286   2.560
    3OL     H2R 8796   0.206   2.349   2.522
    3OL     H2S 8797   0.382   2.337   2.546
    3OL     C13 8798   0.280   2.261   2.711
    3OL     H3R 8799   0.201   2.189   2.732
    3OL     H3S 8800   0.253   2.356   2.757
    3OL     C14 8801   0.418   2.219   2.766
    3OL     H4R 8802   0.409   2.249   2.871
    3OL     H4S 8803   0.501   2.271   2.718
    3OL     C15 8804   0.430   2.066   2.775
    3OL     H5R 8805   0.403   2.021   2.679
    3OL     H5S 8806   0.360   2.021   2.846
    3OL     C16 8807   0.576   2.029   2.801
    3OL     H6R 8808   0.641   2.071   2.724
    3OL     H6S 8809   0.571   1.921   2.790
    3OL     C17 8810   0.624   2.074   2.940
    3OL     H7R 8811   0.560   2.032   3.018
    3OL     H7S 8812   0.630   2.179   2.966
    3OL     C18 8813   0.770   2.033   2.968
    3OL     H8R 8814   0.840   2.053   2.888
    3OL     H8S 8815   0.769   1.924   2.978
    3OL     C19 8816   0.819   2.087   3.100
    3OL     H9R 8817   0.783   2.027   3.183
    3OL    C110 8818   0.910   2.181   3.121
    3OL    H10R 8819   0.918   2.212   3.226
    3OL    C111 8820   0.978   2.270   3.020
    3OL    H11R 8821   0.940   2.247   2.920
    3OL    H11S 8822   1.085   2.252   3.026
    3OL    C112 8823   0.949   2.420   3.037
    3OL    H12R 8824   0.841   2.429   3.022
    3OL    H12S 8825   0.984   2.484   2.956
    3OL    C113 8826   0.989   2.469   3.177
    3OL    H13R 8827   1.098   2.476   3.168
    3OL    H13S 8828   0.959   2.398   3.254
    3OL    C114 8829   0.915   2.603   3.193
    3OL    H14R 8830   0.807   2.591   3.197
    3OL    H14S 8831   0.933   2.667   3.106
    3OL    C115 8832   0.951   2.670   3.326
    3OL    H15R 8833   0.965   2.595   3.405
    3OL    H15S 8834   0.864   2.724   3.364
    3OL    C116 8835   1.073   2.762   3.331
    3OL    H16R 8836   1.057   2.841   3.257
    3OL    H16S 8837   1.166   2.707   3.313
    3OL    C117 8838   1.082   2.825   3.470
    3OL    H17R 8839   1.078   2.744   3.543
    3OL    H17S 8840   0.991   2.882   3.492
    3OL    C118 8841   1.212   2.905   3.489
    3OL    H18R 8842   1.215   2.949   3.589
    3OL    H18S 8843   1.212   2.981   3.410
    3OL    H18T 8844   1.296   2.838   3.469
    1PA    C116 8845   1.174   4.785   3.860
    1PA    H16R 8846   1.178   4.869   3.929
    1PA    H16S 8847   1.231   4.817   3.772
    1PA    H16T 8848   1.231   4.704   3.907
    1PA    C115 8849   1.031   4.735   3.834
    1PA    H15R 8850   0.967   4.714   3.919
    1PA    H15S 8851   0.974   4.791   3.759
    1PA    C114 8852   1.034   4.593   3.776
    1PA    H14R 8853   1.070   4.520   3.849
    1PA    H14S 8854   0.929   4.564   3.764
    1PA    C113 8855   1.107   4.585   3.642
    1PA    H13R 8856   1.097   4.673   3.578
    1PA    H13S 8857   1.213   4.560   3.654
    1PA    C112 8858   1.048   4.466   3.564
    1PA    H12R 8859   1.054   4.372   3.619
    1PA    H12S 8860   0.940   4.482   3.560
    1PA    C111 8861   1.113   4.448   3.426
    1PA    H11R 8862   1.129   4.545   3.377
    1PA    H11S 8863   1.208   4.397   3.441
    1PA    C110 8864   1.027   4.356   3.338
    1PA    H10R 8865   1.010   4.257   3.381
    1PA    H10S 8866   0.931   4.406   3.321
    1PA     C19 8867   1.101   4.344   3.204
    1PA     H9R 8868   1.109   4.439   3.151
    1PA     H9S 8869   1.207   4.321   3.216
    1PA     C18 8870   1.035   4.254   3.098
    1PA     H8R 8871   0.931   4.285   3.089
    1PA     H8S 8872   1.066   4.270   2.995
    1PA     C17 8873   1.050   4.107   3.139
    1PA     H7R 8874   1.155   4.077   3.151
    1PA     H7S 8875   0.998   4.094   3.234
    1PA     C16 8876   1.000   4.006   3.035
    1PA     H6R 8877   0.892   4.000   3.051
    1PA     H6S 8878   1.027   4.046   2.937
    1PA     C15 8879   1.057   3.865   3.053
    1PA     H5R 8880   1.070   3.847   3.160
    1PA     H5S 8881   0.990   3.790   3.011
    1PA     C14 8882   1.198   3.860   2.992
    1PA     H4R 8883   1.263   3.934   3.039
    1PA     H4S 8884   1.238   3.762   3.018
    1PA     C13 8885   1.198   3.866   2.839
    1PA     H3R 8886   1.099   3.891   2.801
    1PA     H3S 8887   1.264   3.947   2.806
    1PA     C12 8888   1.248   3.745   2.758
    1PA     H2R 8889   1.349   3.714   2.786
    1PA     H2S 8890   1.181   3.659   2.763
    2PC     C11 8891   1.256   3.773   2.610
    2PC     O12 8892   1.186   3.852   2.551
    2PC     O11 8893   1.346   3.692   2.552
    2PC      C1 8894   1.368   3.706   2.411
    2PC      HR 8895   1.276   3.708   2.352
    2PC      HS 8896   1.427   3.797   2.398
    2PC      C2 8897   1.445   3.582   2.363
    2PC      HX 8898   1.536   3.585   2.423
    2PC      C3 8899   1.479   3.599   2.214
    2PC      HA 8900   1.556   3.676   2.201
    2PC      HB 8901   1.524   3.508   2.173
    2PC     O31 8902   1.365   3.621   2.130
    2PC     P31 8903   1.377   3.645   1.972
    2PC     O32 8904   1.277   3.765   1.933
    2PC     C31 8905   1.342   3.891   1.908
    2PC     H1A 8906   1.425   3.896   1.979
    2PC     H1B 8907   1.379   3.882   1.806
    2PC     C32 8908   1.236   4.000   1.928
    2PC     H2A 8909   1.268   4.097   1.891
    2PC     H2B 8910   1.153   3.969   1.865
    2PC     N31 8911   1.180   4.022   2.066
    2PC     C33 8912   1.093   3.908   2.110
    2PC     H3A 8913   1.154   3.817   2.101
    2PC     H3B 8914   1.054   3.919   2.212
    2PC     H3C 8915   1.004   3.904   2.048
    2PC     C34 8916   1.294   4.038   2.161
    2PC     H4A 8917   1.254   4.072   2.256
    2PC     H4B 8918   1.350   3.944   2.164
    2PC     H4C 8919   1.357   4.113   2.114
    2PC     C35 8920   1.100   4.149   2.067
    2PC     H5A 8921   1.163   4.236   2.052
    2PC     H5B 8922   1.057   4.169   2.165
    2PC     H5C 8923   1.022   4.148   1.991
    2PC     O33 8924   1.514   3.683   1.931
    2PC     O34 8925   1.361   3.518   1.899
    2PC     O21 8926   1.366   3.464   2.382
    2PC     C21 8927   1.434   3.348   2.392
    2PC     O22 8928   1.555   3.351   2.396
    3OL     C12 8929   1.349   3.224   2.404
    3OL     H2R 8930   1.389   3.171   2.491
    3OL     H2S 8931   1.355   3.159   2.316
    3OL     C13 8932   1.205   3.262   2.440
    3OL     H3R 8933   1.151   3.283   2.347
    3OL     H3S 8934   1.198   3.345   2.510
    3OL     C14 8935   1.142   3.146   2.518
    3OL     H4R 8936   1.207   3.114   2.600
    3OL     H4S 8937   1.139   3.060   2.450
    3OL     C15 8938   0.999   3.175   2.565
    3OL     H5R 8939   0.934   3.199   2.480
    3OL     H5S 8940   0.999   3.271   2.618
    3OL     C16 8941   0.953   3.050   2.641
    3OL     H6R 8942   1.028   3.016   2.714
    3OL     H6S 8943   0.947   2.968   2.570
    3OL     C17 8944   0.817   3.060   2.710
    3OL     H7R 8945   0.748   3.078   2.627
    3OL     H7S 8946   0.825   3.147   2.776
    3OL     C18 8947   0.766   2.943   2.794
    3OL     H8R 8948   0.752   2.856   2.730
    3OL     H8S 8949   0.670   2.962   2.843
    3OL     C19 8950   0.866   2.904   2.901
    3OL     H9R 8951   0.935   2.827   2.867
    3OL    C110 8952   0.853   2.938   3.028
    3OL    H10R 8953   0.908   2.890   3.108
    3OL    C111 8954   0.751   3.037   3.077
    3OL    H11R 8955   0.652   3.001   3.106
    3OL    H11S 8956   0.740   3.122   3.009
    3OL    C112 8957   0.780   3.093   3.217
    3OL    H12R 8958   0.804   3.009   3.283
    3OL    H12S 8959   0.697   3.153   3.255
    3OL    C113 8960   0.897   3.193   3.209
    3OL    H13R 8961   0.872   3.278   3.146
    3OL    H13S 8962   0.985   3.150   3.163
    3OL    C114 8963   0.940   3.244   3.347
    3OL    H14R 8964   0.961   3.164   3.417
    3OL    H14S 8965   0.860   3.310   3.383
    3OL    C115 8966   1.070   3.326   3.344
    3OL    H15R 8967   1.067   3.393   3.258
    3OL    H15S 8968   1.154   3.264   3.312
    3OL    C116 8969   1.091   3.403   3.475
    3OL    H16R 8970   1.015   3.481   3.477
    3OL    H16S 8971   1.191   3.447   3.463
    3OL    C117 8972   1.078   3.320   3.604
    3OL    H17R 8973   1.129   3.225   3.585
    3OL    H17S 8974   0.973   3.316   3.631
    3OL    C118 8975   1.140   3.393   3.724
    3OL    H18R 8976   1.244   3.421   3.710
    3OL    H18S 8977   1.141   3.316   3.801
    3OL    H18T 8978   1.083   3.484   3.745
    1PA    C116 8979   0.506   3.219   3.815
    1PA    H16R 8980   0.552   3.186   3.908
    1PA    H16S 8981   0.563   3.309   3.789
    1PA    H16T 8982   0.530   3.141   3.742
    1PA    C115 8983   0.359   3.265   3.816
    1PA    H15R 8984   0.290   3.199   3.869
    1PA    H15S 8985   0.344   3.352   3.880
    1PA    C114 8986   0.302   3.292   3.676
    1PA    H14R 8987   0.211   3.350   3.685
    1PA    H14S 8988   0.378   3.348   3.620
    1PA    C113 8989   0.271   3.161   3.602
    1PA    H13R 8990   0.355   3.091   3.609
    1PA    H13S 8991   0.186   3.114   3.651
    1PA    C112 8992   0.251   3.179   3.451
    1PA    H12R 8993   0.170   3.244   3.419
    1PA    H12S 8994   0.333   3.232   3.402
    1PA    C111 8995   0.225   3.044   3.382
    1PA    H11R 8996   0.297   2.966   3.409
    1PA    H11S 8997   0.132   3.021   3.434
    1PA    C110 8998   0.199   3.067   3.233
    1PA    H10R 8999   0.152   2.975   3.197
    1PA    H10S 9000   0.131   3.150   3.214
    1PA     C19 9001   0.324   3.097   3.149
    1PA     H9R 9002   0.384   3.183   3.179
    1PA     H9S 9003   0.399   3.017   3.147
    1PA     C18 9004   0.296   3.111   2.999
    1PA     H8R 9005   0.259   3.015   2.962
    1PA     H8S 9006   0.227   3.196   2.990
    1PA     C17 9007   0.414   3.155   2.911
    1PA     H7R 9008   0.464   3.242   2.954
    1PA     H7S 9009   0.497   3.084   2.914
    1PA     C16 9010   0.374   3.185   2.765
    1PA     H6R 9011   0.337   3.091   2.723
    1PA     H6S 9012   0.284   3.246   2.770
    1PA     C15 9013   0.486   3.250   2.683
    1PA     H5R 9014   0.533   3.334   2.735
    1PA     H5S 9015   0.558   3.170   2.667
    1PA     C14 9016   0.430   3.286   2.545
    1PA     H4R 9017   0.361   3.207   2.513
    1PA     H4S 9018   0.373   3.378   2.554
    1PA     C13 9019   0.539   3.303   2.438
    1PA     H3R 9020   0.613   3.375   2.475
    1PA     H3S 9021   0.575   3.204   2.412
    1PA     C12 9022   0.469   3.363   2.316
    1PA     H2R 9023   0.394   3.441   2.335
    1PA     H2S 9024   0.543   3.415   2.255
    2PC     C11 9025   0.408   3.269   2.214
    2PC     O12 9026   0.439   3.155   2.187
    2PC     O11 9027   0.303   3.328   2.155
    2PC      C1 9028   0.191   3.248   2.112
    2PC      HR 9029   0.122   3.309   2.052
    2PC      HS 9030   0.233   3.176   2.042
    2PC      C2 9031   0.121   3.193   2.237
    2PC      HX 9032   0.191   3.143   2.304
    2PC      C3 9033   0.017   3.088   2.193
    2PC      HA 9034   0.075   3.004   2.155
    2PC      HB 9035   6.439   3.062   2.277
    2PC     O31 9036   6.433   3.151   2.084
    2PC     P31 9037   6.273   3.152   2.091
    2PC     O32 9038   6.247   3.123   1.936
    2PC     C31 9039   6.297   3.226   1.848
    2PC     H1A 9040   6.284   3.325   1.892
    2PC     H1B 9041   6.405   3.215   1.841
    2PC     C32 9042   6.238   3.204   1.707
    2PC     H2A 9043   6.291   3.282   1.652
    2PC     H2B 9044   6.277   3.105   1.680
    2PC     N31 9045   6.090   3.218   1.689
    2PC     C33 9046   6.057   3.363   1.703
    2PC     H3A 9047   6.055   3.418   1.608
    2PC     H3B 9048   5.960   3.376   1.752
    2PC     H3C 9049   6.132   3.405   1.769
    2PC     C34 9050   6.049   3.182   1.550
    2PC     H4A 9051   6.126   3.222   1.484
    2PC     H4B 9052   6.050   3.073   1.548
    2PC     H4C 9053   5.954   3.221   1.515
    2PC     C35 9054   6.004   3.138   1.783
    2PC     H5A 9055   6.041   3.035   1.777
    2PC     H5B 9056   5.901   3.147   1.748
    2PC     H5C 9057   6.011   3.181   1.883
    2PC     O33 9058   6.210   3.039   2.163
    2PC     O34 9059   6.216   3.272   2.156
    2PC     O21 9060   0.051   3.295   2.309
    2PC     C21 9061   6.476   3.281   2.428
    2PC     O22 9062   6.460   3.179   2.490
    3OL     C12 9063   6.433   3.420   2.470
    3OL     H2R 9064   6.382   3.460   2.382
    3OL     H2S 9065   0.042   3.472   2.483
    3OL     C13 9066   6.349   3.406   2.597
    3OL     H3R 9067   6.410   3.379   2.684
    3OL     H3S 9068   6.272   3.329   2.582
    3OL     C14 9069   6.275   3.535   2.633
    3OL     H4R 9070   6.204   3.513   2.713
    3OL     H4S 9071   6.211   3.559   2.548
    3OL     C15 9072   6.376   3.645   2.669
    3OL     H5R 9073   6.454   3.651   2.593
    3OL     H5S 9074   6.421   3.614   2.764
    3OL     C16 9075   6.294   3.772   2.698
    3OL     H6R 9076   6.223   3.761   2.780
    3OL     H6S 9077   6.239   3.792   2.606
    3OL     C17 9078   6.391   3.887   2.728
    3OL     H7R 9079   6.450   3.891   2.637
    3OL     H7S 9080   6.454   3.858   2.812
    3OL     C18 9081   6.299   4.009   2.744
    3OL     H8R 9082   6.218   4.002   2.672
    3OL     H8S 9083   6.350   4.104   2.722
    3OL     C19 9084   6.241   4.002   2.883
    3OL     H9R 9085   6.296   3.924   2.936
    3OL    C110 9086   6.141   4.067   2.940
    3OL    H10R 9087   6.111   4.043   3.042
    3OL    C111 9088   6.075   4.184   2.872
    3OL    H11R 9089   5.980   4.142   2.838
    3OL    H11S 9090   6.142   4.224   2.795
    3OL    C112 9091   6.032   4.296   2.967
    3OL    H12R 9092   5.949   4.252   3.023
    3OL    H12S 9093   5.978   4.369   2.907
    3OL    C113 9094   6.149   4.350   3.050
    3OL    H13R 9095   6.232   4.375   2.984
    3OL    H13S 9096   6.183   4.268   3.115
    3OL    C114 9097   6.113   4.469   3.141
    3OL    H14R 9098   6.034   4.441   3.211
    3OL    H14S 9099   6.083   4.558   3.085
    3OL    C115 9100   6.242   4.503   3.215
    3OL    H15R 9101   6.292   4.565   3.140
    3OL    H15S 9102   6.312   4.425   3.248
    3OL    C116 9103   6.217   4.590   3.340
    3OL    H16R 9104   6.151   4.529   3.402
    3OL    H16S 9105   6.163   4.683   3.327
    3OL    C117 9106   6.345   4.627   3.416
    3OL    H17R 9107   6.418   4.645   3.337
    3OL    H17S 9108   6.380   4.542   3.475
    3OL    C118 9109   6.328   4.748   3.508
    3OL    H18R 9110   6.420   4.784   3.555
    3OL    H18S 9111   6.246   4.735   3.579
    3OL    H18T 9112   6.301   4.831   3.443
    1PA    C116 9113   0.985   1.196   3.862
    1PA    H16R 9114   1.066   1.180   3.791
    1PA    H16S 9115   0.996   1.124   3.943
    1PA    H16T 9116   0.994   1.299   3.899
    1PA    C115 9117   0.850   1.194   3.789
    1PA    H15R 9118   0.832   1.092   3.754
    1PA    H15S 9119   0.776   1.232   3.859
    1PA    C114 9120   0.861   1.289   3.669
    1PA    H14R 9121   0.863   1.390   3.709
    1PA    H14S 9122   0.951   1.265   3.612
    1PA    C113 9123   0.739   1.283   3.575
    1PA    H13R 9124   0.715   1.178   3.555
    1PA    H13S 9125   0.651   1.331   3.617
    1PA    C112 9126   0.769   1.353   3.442
    1PA    H12R 9127   0.769   1.462   3.455
    1PA    H12S 9128   0.866   1.330   3.396
    1PA    C111 9129   0.653   1.321   3.347
    1PA    H11R 9130   0.654   1.213   3.332
    1PA    H11S 9131   0.564   1.352   3.403
    1PA    C110 9132   0.690   1.395   3.218
    1PA    H10R 9133   0.670   1.499   3.242
    1PA    H10S 9134   0.796   1.376   3.203
    1PA     C19 9135   0.608   1.338   3.101
    1PA     H9R 9136   0.616   1.229   3.101
    1PA     H9S 9137   0.505   1.374   3.109
    1PA     C18 9138   0.660   1.374   2.961
    1PA     H8R 9139   0.711   1.471   2.966
    1PA     H8S 9140   0.719   1.285   2.939
    1PA     C17 9141   0.559   1.382   2.845
    1PA     H7R 9142   0.606   1.359   2.749
    1PA     H7S 9143   0.476   1.312   2.855
    1PA     C16 9144   0.506   1.525   2.827
    1PA     H6R 9145   0.496   1.564   2.929
    1PA     H6S 9146   0.583   1.579   2.771
    1PA     C15 9147   0.366   1.530   2.764
    1PA     H5R 9148   0.362   1.481   2.666
    1PA     H5S 9149   0.288   1.493   2.830
    1PA     C14 9150   0.331   1.677   2.740
    1PA     H4R 9151   0.331   1.722   2.840
    1PA     H4S 9152   0.408   1.729   2.683
    1PA     C13 9153   0.192   1.692   2.675
    1PA     H3R 9154   0.201   1.661   2.571
    1PA     H3S 9155   0.113   1.638   2.727
    1PA     C12 9156   0.156   1.840   2.695
    1PA     H2R 9157   0.154   1.862   2.802
    1PA     H2S 9158   0.233   1.902   2.649
    2PC     C11 9159   0.028   1.884   2.629
    2PC     O12 9160   6.482   1.847   2.518
    2PC     O11 9161   6.452   1.980   2.700
    2PC      C1 9162   6.345   2.053   2.638
    2PC      HR 9163   6.314   2.133   2.706
    2PC      HS 9164   6.386   2.095   2.546
    2PC      C2 9165   6.226   1.963   2.600
    2PC      HX 9166   6.251   1.857   2.590
    2PC      C3 9167   6.160   2.007   2.468
    2PC      HA 9168   6.101   2.099   2.474
    2PC      HB 9169   6.234   2.018   2.389
    2PC     O31 9170   6.071   1.898   2.437
    2PC     P31 9171   5.984   1.908   2.302
    2PC     O32 9172   6.053   1.792   2.217
    2PC     C31 9173   6.037   1.658   2.269
    2PC     H1A 9174   6.068   1.658   2.373
    2PC     H1B 9175   5.932   1.634   2.252
    2PC     C32 9176   6.125   1.559   2.193
    2PC     H2A 9177   6.120   1.458   2.234
    2PC     H2B 9178   6.080   1.554   2.093
    2PC     N31 9179   6.272   1.584   2.175
    2PC     C33 9180   6.331   1.614   2.310
    2PC     H3A 9181   6.318   1.527   2.375
    2PC     H3B 9182   6.437   1.631   2.290
    2PC     H3C 9183   6.287   1.707   2.345
    2PC     C34 9184   6.343   1.459   2.133
    2PC     H4A 9185   6.449   1.480   2.146
    2PC     H4B 9186   6.292   1.381   2.191
    2PC     H4C 9187   6.323   1.445   2.027
    2PC     C35 9188   6.299   1.697   2.080
    2PC     H5A 9189   6.264   1.780   2.142
    2PC     H5B 9190   6.247   1.689   1.985
    2PC     H5C 9191   6.408   1.700   2.081
    2PC     O33 9192   5.839   1.889   2.319
    2PC     O34 9193   5.998   2.042   2.241
    2PC     O21 9194   6.120   1.984   2.694
    2PC     C21 9195   6.020   1.897   2.714
    2PC     O22 9196   6.004   1.786   2.667
    3OL     C12 9197   5.910   1.953   2.801
    3OL     H2R 9198   5.882   1.876   2.873
    3OL     H2S 9199   5.817   1.973   2.747
    3OL     C13 9200   5.948   2.078   2.882
    3OL     H3R 9201   6.024   2.060   2.959
    3OL     H3S 9202   6.002   2.147   2.817
    3OL     C14 9203   5.828   2.148   2.946
    3OL     H4R 9204   5.781   2.087   3.024
    3OL     H4S 9205   5.757   2.146   2.863
    3OL     C15 9206   5.852   2.292   2.993
    3OL     H5R 9207   5.893   2.353   2.912
    3OL     H5S 9208   5.923   2.285   3.076
    3OL     C16 9209   5.721   2.357   3.037
    3OL     H6R 9210   5.683   2.307   3.127
    3OL     H6S 9211   5.656   2.340   2.951
    3OL     C17 9212   5.733   2.509   3.053
    3OL     H7R 9213   5.827   2.535   3.103
    3OL     H7S 9214   5.650   2.535   3.119
    3OL     C18 9215   5.728   2.592   2.924
    3OL     H8R 9216   5.637   2.567   2.870
    3OL     H8S 9217   5.810   2.561   2.859
    3OL     C19 9218   5.742   2.739   2.954
    3OL     H9R 9219   5.647   2.790   2.972
    3OL    C110 9220   5.859   2.800   2.968
    3OL    H10R 9221   5.865   2.905   2.998
    3OL    C111 9222   5.994   2.736   2.954
    3OL    H11R 9223   6.050   2.785   2.874
    3OL    H11S 9224   5.981   2.633   2.920
    3OL    C112 9225   6.073   2.728   3.086
    3OL    H12R 9226   6.151   2.651   3.077
    3OL    H12S 9227   5.999   2.689   3.155
    3OL    C113 9228   6.121   2.863   3.141
    3OL    H13R 9229   6.036   2.930   3.155
    3OL    H13S 9230   6.175   2.905   3.056
    3OL    C114 9231   6.192   2.866   3.277
    3OL    H14R 9232   6.136   2.809   3.352
    3OL    H14S 9233   6.209   2.970   3.307
    3OL    C115 9234   6.336   2.814   3.270
    3OL    H15R 9235   6.397   2.877   3.206
    3OL    H15S 9236   6.332   2.719   3.216
    3OL    C116 9237   6.384   2.793   3.415
    3OL    H16R 9238   6.319   2.734   3.479
    3OL    H16S 9239   6.396   2.892   3.459
    3OL    C117 9240   0.038   2.733   3.409
    3OL    H17R 9241   0.086   2.759   3.504
    3OL    H17S 9242   0.098   2.775   3.328
    3OL    C118 9243   0.033   2.579   3.414
    3OL    H18R 9244   6.465   2.537   3.498
    3OL    H18S 9245   0.128   2.529   3.394
    3OL    H18T 9246   6.453   2.546   3.334
    1PA    C116 9247   6.460   0.712   4.008
    1PA    H16R 9248   6.354   0.694   3.989
    1PA    H16S 9249   6.474   0.795   4.077
    1PA    H16T 9250   0.016   0.625   4.059
    1PA    C115 9251   0.061   0.733   3.883
    1PA    H15R 9252   0.069   0.841   3.874
    1PA    H15S 9253   0.166   0.704   3.893
    1PA    C114 9254   0.009   0.661   3.757
    1PA    H14R 9255   6.390   0.688   3.742
    1PA    H14S 9256   0.058   0.704   3.670
    1PA    C113 9257   0.023   0.509   3.766
    1PA    H13R 9258   0.129   0.483   3.777
    1PA    H13S 9259   6.463   0.477   3.860
    1PA    C112 9260   6.457   0.430   3.646
    1PA    H12R 9261   6.452   0.325   3.678
    1PA    H12S 9262   6.357   0.463   3.619
    1PA    C111 9263   0.053   0.430   3.516
    1PA    H11R 9264   0.158   0.450   3.537
    1PA    H11S 9265   0.032   0.339   3.460
    1PA    C110 9266   0.012   0.544   3.421
    1PA    H10R 9267   6.396   0.521   3.389
    1PA    H10S 9268   0.001   0.637   3.478
    1PA     C19 9269   0.103   0.564   3.299
    1PA     H9R 9270   0.065   0.649   3.243
    1PA     H9S 9271   0.201   0.595   3.335
    1PA     C18 9272   0.111   0.435   3.216
    1PA     H8R 9273   0.161   0.357   3.273
    1PA     H8S 9274   0.009   0.412   3.183
    1PA     C17 9275   0.193   0.470   3.090
    1PA     H7R 9276   0.147   0.543   3.024
    1PA     H7S 9277   0.293   0.502   3.119
    1PA     C16 9278   0.226   0.347   3.004
    1PA     H6R 9279   0.284   0.279   3.067
    1PA     H6S 9280   0.136   0.290   2.978
    1PA     C15 9281   0.303   0.374   2.874
    1PA     H5R 9282   0.234   0.435   2.816
    1PA     H5S 9283   0.392   0.427   2.909
    1PA     C14 9284   0.345   0.253   2.789
    1PA     H4R 9285   0.441   0.210   2.818
    1PA     H4S 9286   0.280   0.166   2.797
    1PA     C13 9287   0.349   0.288   2.640
    1PA     H3R 9288   0.253   0.318   2.599
    1PA     H3S 9289   0.417   0.373   2.630
    1PA     C12 9290   0.407   0.168   2.563
    1PA     H2R 9291   0.502   0.148   2.614
    1PA     H2S 9292   0.343   0.079   2.561
    2PC     C11 9293   0.434   0.200   2.419
    2PC     O12 9294   0.348   0.197   2.333
    2PC     O11 9295   0.563   0.235   2.402
    2PC      C1 9296   0.610   0.278   2.273
    2PC      HR 9297   0.718   0.293   2.274
    2PC      HS 9298   0.578   0.205   2.198
    2PC      C2 9299   0.545   0.412   2.234
    2PC      HX 9300   0.436   0.412   2.240
    2PC      C3 9301   0.576   0.463   2.093
    2PC      HA 9302   0.657   0.537   2.091
    2PC      HB 9303   0.619   0.384   2.031
    2PC     O31 9304   0.463   0.519   2.023
    2PC     P31 9305   0.485   0.616   1.897
    2PC     O32 9306   0.504   0.495   1.793
    2PC     C31 9307   0.590   0.514   1.679
    2PC     H1A 9308   0.534   0.581   1.613
    2PC     H1B 9309   0.685   0.558   1.710
    2PC     C32 9310   0.611   0.382   1.603
    2PC     H2A 9311   0.676   0.415   1.523
    2PC     H2B 9312   0.679   0.315   1.655
    2PC     N31 9313   0.495   0.320   1.531
    2PC     C33 9314   0.542   0.216   1.433
    2PC     H3A 9315   0.583   0.252   1.339
    2PC     H3B 9316   0.612   0.155   1.490
    2PC     H3C 9317   0.463   0.143   1.415
    2PC     C34 9318   0.415   0.241   1.630
    2PC     H4A 9319   0.398   0.286   1.728
    2PC     H4B 9320   0.317   0.216   1.590
    2PC     H4C 9321   0.464   0.144   1.642
    2PC     C35 9322   0.399   0.417   1.468
    2PC     H5A 9323   0.319   0.358   1.423
    2PC     H5B 9324   0.452   0.472   1.390
    2PC     H5C 9325   0.362   0.491   1.539
    2PC     O33 9326   0.379   0.716   1.873
    2PC     O34 9327   0.604   0.703   1.910
    2PC     O21 9328   0.601   0.501   2.332
    2PC     C21 9329   0.549   0.624   2.347
    2PC     O22 9330   0.460   0.668   2.277
    3OL     C12 9331   0.615   0.706   2.455
    3OL     H2R 9332   0.607   0.812   2.432
    3OL     H2S 9333   0.723   0.690   2.452
    3OL     C13 9334   0.553   0.686   2.594
    3OL     H3R 9335   0.625   0.724   2.667
    3OL     H3S 9336   0.541   0.581   2.620
    3OL     C14 9337   0.418   0.758   2.609
    3OL     H4R 9338   0.406   0.846   2.545
    3OL     H4S 9339   0.421   0.811   2.704
    3OL     C15 9340   0.291   0.675   2.587
    3OL     H5R 9341   0.290   0.589   2.654
    3OL     H5S 9342   0.298   0.637   2.485
    3OL     C16 9343   0.165   0.761   2.605
    3OL     H6R 9344   0.085   0.720   2.542
    3OL     H6S 9345   0.184   0.864   2.574
    3OL     C17 9346   0.110   0.737   2.746
    3OL     H7R 9347   0.179   0.778   2.820
    3OL     H7S 9348   0.087   0.633   2.769
    3OL     C18 9349   6.454   0.793   2.761
    3OL     H8R 9350   6.373   0.746   2.705
    3OL     H8S 9351   6.445   0.894   2.720
    3OL     C19 9352   6.417   0.804   2.907
    3OL     H9R 9353   0.018   0.797   2.972
    3OL    C110 9354   6.306   0.854   2.958
    3OL    H10R 9355   6.297   0.882   3.063
    3OL    C111 9356   6.181   0.881   2.878
    3OL    H11R 9357   6.096   0.850   2.939
    3OL    H11S 9358   6.183   0.816   2.791
    3OL    C112 9359   6.182   1.029   2.838
    3OL    H12R 9360   6.129   1.044   2.744
    3OL    H12S 9361   6.279   1.067   2.805
    3OL    C113 9362   6.111   1.125   2.935
    3OL    H13R 9363   6.020   1.074   2.968
    3OL    H13S 9364   6.075   1.219   2.893
    3OL    C114 9365   6.201   1.170   3.051
    3OL    H14R 9366   6.278   1.238   3.012
    3OL    H14S 9367   6.250   1.091   3.107
    3OL    C115 9368   6.120   1.256   3.148
    3OL    H15R 9369   6.036   1.200   3.189
    3OL    H15S 9370   6.076   1.344   3.100
    3OL    C116 9371   6.215   1.313   3.255
    3OL    H16R 9372   6.310   1.345   3.210
    3OL    H16S 9373   6.241   1.230   3.321
    3OL    C117 9374   6.152   1.418   3.347
    3OL    H17R 9375   6.059   1.386   3.394
    3OL    H17S 9376   6.109   1.507   3.301
    3OL    C118 9377   6.258   1.464   3.448
    3OL    H18R 9378   6.206   1.524   3.524
    3OL    H18S 9379   6.334   1.527   3.402
    3OL    H18T 9380   6.297   1.378   3.501
    1PA    C116 9381   2.565   1.973   3.742
    1PA    H16R 9382   2.514   2.006   3.833
    1PA    H16S 9383   2.611   2.056   3.688
    1PA    H16T 9384   2.639   1.909   3.789
    1PA    C115 9385   2.469   1.895   3.651
    1PA    H15R 9386   2.418   1.813   3.702
    1PA    H15S 9387   2.390   1.966   3.624
    1PA    C114 9388   2.541   1.821   3.537
    1PA    H14R 9389   2.643   1.792   3.563
    1PA    H14S 9390   2.493   1.725   3.517
    1PA    C113 9391   2.514   1.891   3.403
    1PA    H13R 9392   2.406   1.897   3.389
    1PA    H13S 9393   2.559   1.991   3.407
    1PA    C112 9394   2.581   1.808   3.293
    1PA    H12R 9395   2.688   1.815   3.314
    1PA    H12S 9396   2.546   1.706   3.303
    1PA    C111 9397   2.549   1.848   3.148
    1PA    H11R 9398   2.442   1.835   3.129
    1PA    H11S 9399   2.578   1.952   3.133
    1PA    C110 9400   2.623   1.767   3.041
    1PA    H10R 9401   2.724   1.752   3.080
    1PA    H10S 9402   2.570   1.674   3.019
    1PA     C19 9403   2.628   1.842   2.908
    1PA     H9R 9404   2.529   1.831   2.863
    1PA     H9S 9405   2.638   1.949   2.928
    1PA     C18 9406   2.739   1.799   2.810
    1PA     H8R 9407   2.748   1.864   2.723
    1PA     H8S 9408   2.835   1.798   2.861
    1PA     C17 9409   2.721   1.657   2.754
    1PA     H7R 9410   2.806   1.629   2.692
    1PA     H7S 9411   2.730   1.579   2.830
    1PA     C16 9412   2.606   1.657   2.653
    1PA     H6R 9413   2.522   1.599   2.691
    1PA     H6S 9414   2.577   1.761   2.636
    1PA     C15 9415   2.634   1.578   2.524
    1PA     H5R 9416   2.732   1.599   2.481
    1PA     H5S 9417   2.618   1.473   2.547
    1PA     C14 9418   2.538   1.611   2.409
    1PA     H4R 9419   2.557   1.558   2.315
    1PA     H4S 9420   2.437   1.591   2.446
    1PA     C13 9421   2.521   1.760   2.376
    1PA     H3R 9422   2.455   1.789   2.295
    1PA     H3S 9423   2.470   1.815   2.456
    1PA     C12 9424   2.650   1.838   2.350
    1PA     H2R 9425   2.622   1.940   2.323
    1PA     H2S 9426   2.704   1.855   2.444
    2PC     C11 9427   2.728   1.777   2.236
    2PC     O12 9428   2.712   1.808   2.120
    2PC     O11 9429   2.809   1.685   2.290
    2PC      C1 9430   2.908   1.641   2.196
    2PC      HR 9431   2.864   1.621   2.097
    2PC      HS 9432   2.980   1.723   2.190
    2PC      C2 9433   2.982   1.512   2.235
    2PC      HX 9434   3.029   1.530   2.332
    2PC      C3 9435   3.102   1.472   2.148
    2PC      HA 9436   3.146   1.564   2.109
    2PC      HB 9437   3.176   1.413   2.203
    2PC     O31 9438   3.063   1.386   2.040
    2PC     P31 9439   3.171   1.341   1.930
    2PC     O32 9440   3.218   1.198   1.984
    2PC     C31 9441   3.117   1.095   1.979
    2PC     H1A 9442   3.025   1.132   2.025
    2PC     H1B 9443   3.094   1.059   1.879
    2PC     C32 9444   3.172   0.986   2.072
    2PC     H2A 9445   3.199   1.030   2.168
    2PC     H2B 9446   3.088   0.920   2.092
    2PC     N31 9447   3.295   0.919   2.019
    2PC     C33 9448   3.272   0.880   1.876
    2PC     H3A 9449   3.167   0.862   1.856
    2PC     H3B 9450   3.304   0.957   1.806
    2PC     H3C 9451   3.311   0.781   1.852
    2PC     C34 9452   3.411   1.014   2.023
    2PC     H4A 9453   3.418   1.097   1.953
    2PC     H4B 9454   3.416   1.050   2.125
    2PC     H4C 9455   3.504   0.961   2.001
    2PC     C35 9456   3.319   0.797   2.103
    2PC     H5A 9457   3.399   0.736   2.061
    2PC     H5B 9458   3.229   0.736   2.098
    2PC     H5C 9459   3.347   0.837   2.201
    2PC     O33 9460   3.117   1.347   1.792
    2PC     O34 9461   3.292   1.425   1.918
    2PC     O21 9462   2.890   1.403   2.250
    2PC     C21 9463   2.808   1.349   2.158
    2PC     O22 9464   2.790   1.391   2.045
    3OL     C12 9465   2.750   1.218   2.203
    3OL     H2R 9466   2.789   1.173   2.295
    3OL     H2S 9467   2.770   1.149   2.121
    3OL     C13 9468   2.599   1.231   2.229
    3OL     H3R 9469   2.549   1.239   2.133
    3OL     H3S 9470   2.582   1.326   2.280
    3OL     C14 9471   2.539   1.117   2.311
    3OL     H4R 9472   2.603   1.103   2.398
    3OL     H4S 9473   2.545   1.022   2.257
    3OL     C15 9474   2.391   1.135   2.349
    3OL     H5R 9475   2.352   1.036   2.374
    3OL     H5S 9476   2.337   1.178   2.264
    3OL     C16 9477   2.367   1.222   2.473
    3OL     H6R 9478   2.381   1.329   2.456
    3OL     H6S 9479   2.436   1.199   2.554
    3OL     C17 9480   2.221   1.211   2.519
    3OL     H7R 9481   2.195   1.106   2.539
    3OL     H7S 9482   2.168   1.251   2.432
    3OL     C18 9483   2.194   1.305   2.636
    3OL     H8R 9484   2.085   1.300   2.649
    3OL     H8S 9485   2.213   1.412   2.621
    3OL     C19 9486   2.264   1.258   2.761
    3OL     H9R 9487   2.309   1.159   2.750
    3OL    C110 9488   2.306   1.337   2.858
    3OL    H10R 9489   2.374   1.291   2.929
    3OL    C111 9490   2.254   1.476   2.882
    3OL    H11R 9491   2.161   1.487   2.826
    3OL    H11S 9492   2.334   1.540   2.842
    3OL    C112 9493   2.229   1.512   3.029
    3OL    H12R 9494   2.210   1.620   3.027
    3OL    H12S 9495   2.319   1.489   3.087
    3OL    C113 9496   2.109   1.440   3.090
    3OL    H13R 9497   2.126   1.333   3.099
    3OL    H13S 9498   2.022   1.470   3.031
    3OL    C114 9499   2.080   1.483   3.235
    3OL    H14R 9500   2.163   1.472   3.305
    3OL    H14S 9501   1.999   1.422   3.274
    3OL    C115 9502   2.030   1.628   3.240
    3OL    H15R 9503   1.934   1.629   3.189
    3OL    H15S 9504   2.097   1.699   3.191
    3OL    C116 9505   2.005   1.660   3.388
    3OL    H16R 9506   1.965   1.578   3.448
    3OL    H16S 9507   1.946   1.752   3.382
    3OL    C117 9508   2.134   1.706   3.457
    3OL    H17R 9509   2.201   1.763   3.391
    3OL    H17S 9510   2.187   1.615   3.485
    3OL    C118 9511   2.096   1.781   3.585
    3OL    H18R 9512   2.054   1.880   3.568
    3OL    H18S 9513   2.192   1.795   3.637
    3OL    H18T 9514   2.026   1.727   3.649
    1PA    C116 9515   2.090   1.271   3.593
    1PA    H16R 9516   2.102   1.219   3.689
    1PA    H16S 9517   1.993   1.242   3.554
    1PA    H16T 9518   2.089   1.378   3.617
    1PA    C115 9519   2.204   1.227   3.500
    1PA    H15R 9520   2.184   1.119   3.492
    1PA    H15S 9521   2.203   1.272   3.401
    1PA    C114 9522   2.340   1.261   3.562
    1PA    H14R 9523   2.345   1.370   3.556
    1PA    H14S 9524   2.343   1.232   3.667
    1PA    C113 9525   2.455   1.199   3.481
    1PA    H13R 9526   2.552   1.224   3.525
    1PA    H13S 9527   2.457   1.092   3.503
    1PA    C112 9528   2.451   1.226   3.330
    1PA    H12R 9529   2.366   1.184   3.277
    1PA    H12S 9530   2.452   1.333   3.307
    1PA    C111 9531   2.575   1.175   3.255
    1PA    H11R 9532   2.663   1.231   3.287
    1PA    H11S 9533   2.594   1.068   3.262
    1PA    C110 9534   2.556   1.216   3.108
    1PA    H10R 9535   2.469   1.169   3.062
    1PA    H10S 9536   2.541   1.324   3.100
    1PA     C19 9537   2.677   1.180   3.020
    1PA     H9R 9538   2.771   1.225   3.053
    1PA     H9S 9539   2.677   1.071   3.023
    1PA     C18 9540   2.662   1.223   2.874
    1PA     H8R 9541   2.585   1.174   2.814
    1PA     H8S 9542   2.649   1.332   2.871
    1PA     C17 9543   2.800   1.203   2.808
    1PA     H7R 9544   2.869   1.274   2.854
    1PA     H7S 9545   2.830   1.099   2.819
    1PA     C16 9546   2.791   1.221   2.656
    1PA     H6R 9547   2.730   1.138   2.623
    1PA     H6S 9548   2.732   1.311   2.637
    1PA     C15 9549   2.929   1.225   2.589
    1PA     H5R 9550   2.983   1.136   2.624
    1PA     H5S 9551   2.918   1.211   2.481
    1PA     C14 9552   2.995   1.362   2.611
    1PA     H4R 9553   2.941   1.441   2.560
    1PA     H4S 9554   3.016   1.378   2.717
    1PA     C13 9555   3.138   1.346   2.558
    1PA     H3R 9556   3.178   1.272   2.628
    1PA     H3S 9557   3.139   1.307   2.456
    1PA     C12 9558   3.222   1.474   2.569
    1PA     H2R 9559   3.160   1.555   2.530
    1PA     H2S 9560   3.246   1.492   2.674
    2PC     C11 9561   3.357   1.467   2.502
    2PC     O12 9562   3.397   1.372   2.439
    2PC     O11 9563   3.432   1.570   2.547
    2PC      C1 9564   3.566   1.575   2.496
    2PC      HR 9565   3.617   1.479   2.511
    2PC      HS 9566   3.557   1.601   2.390
    2PC      C2 9567   3.636   1.687   2.573
    2PC      HX 9568   3.577   1.777   2.592
    2PC      C3 9569   3.747   1.748   2.485
    2PC      HA 9570   3.691   1.803   2.409
    2PC      HB 9571   3.816   1.811   2.542
    2PC     O31 9572   3.823   1.642   2.425
    2PC     P31 9573   3.951   1.681   2.337
    2PC     O32 9574   4.053   1.559   2.358
    2PC     C31 9575   4.096   1.496   2.236
    2PC     H1A 9576   4.139   1.565   2.163
    2PC     H1B 9577   4.183   1.437   2.265
    2PC     C32 9578   3.993   1.412   2.160
    2PC     H2A 9579   3.903   1.471   2.141
    2PC     H2B 9580   4.024   1.385   2.058
    2PC     N31 9581   3.947   1.282   2.219
    2PC     C33 9582   3.852   1.207   2.129
    2PC     H3A 9583   3.902   1.182   2.035
    2PC     H3B 9584   3.829   1.121   2.192
    2PC     H3C 9585   3.764   1.266   2.104
    2PC     C34 9586   4.066   1.203   2.263
    2PC     H4A 9587   4.128   1.173   2.178
    2PC     H4B 9588   4.124   1.247   2.344
    2PC     H4C 9589   4.028   1.113   2.312
    2PC     C35 9590   3.865   1.298   2.343
    2PC     H5A 9591   3.922   1.360   2.411
    2PC     H5B 9592   3.852   1.196   2.381
    2PC     H5C 9593   3.765   1.335   2.318
    2PC     O33 9594   3.915   1.699   2.194
    2PC     O34 9595   4.011   1.810   2.377
    2PC     O21 9596   3.690   1.643   2.699
    2PC     C21 9597   3.747   1.730   2.784
    2PC     O22 9598   3.744   1.849   2.765
    3OL     C12 9599   3.808   1.668   2.908
    3OL     H2R 9600   3.848   1.740   2.980
    3OL     H2S 9601   3.890   1.615   2.859
    3OL     C13 9602   3.722   1.559   2.972
    3OL     H3R 9603   3.710   1.480   2.896
    3OL     H3S 9604   3.624   1.594   3.005
    3OL     C14 9605   3.795   1.503   3.095
    3OL     H4R 9606   3.819   1.583   3.165
    3OL     H4S 9607   3.894   1.473   3.059
    3OL     C15 9608   3.721   1.385   3.158
    3OL     H5R 9609   3.722   1.294   3.097
    3OL     H5S 9610   3.617   1.405   3.186
    3OL     C16 9611   3.795   1.334   3.282
    3OL     H6R 9612   3.819   1.418   3.349
    3OL     H6S 9613   3.892   1.293   3.253
    3OL     C17 9614   3.715   1.232   3.364
    3OL     H7R 9615   3.684   1.148   3.302
    3OL     H7S 9616   3.627   1.284   3.403
    3OL     C18 9617   3.795   1.182   3.486
    3OL     H8R 9618   3.830   1.259   3.555
    3OL     H8S 9619   3.879   1.132   3.437
    3OL     C19 9620   3.721   1.076   3.564
    3OL     H9R 9621   3.738   0.975   3.529
    3OL    C110 9622   3.664   1.090   3.683
    3OL    H10R 9623   3.624   1.005   3.737
    3OL    C111 9624   3.630   1.224   3.743
    3OL    H11R 9625   3.529   1.207   3.781
    3OL    H11S 9626   3.637   1.298   3.663
    3OL    C112 9627   3.712   1.267   3.865
    3OL    H12R 9628   3.815   1.280   3.831
    3OL    H12S 9629   3.717   1.196   3.948
    3OL    C113 9630   3.642   1.390   3.926
    3OL    H13R 9631   3.538   1.370   3.952
    3OL    H13S 9632   3.630   1.467   3.849
    3OL    C114 9633   3.719   1.453   4.042
    3OL    H14R 9634   3.697   1.559   4.029
    3OL    H14S 9635   3.827   1.440   4.029
    3OL    C115 9636   3.673   1.398   4.178
    3OL    H15R 9637   3.678   1.289   4.180
    3OL    H15S 9638   3.566   1.421   4.186
    3OL    C116 9639   3.744   1.474   4.292
    3OL    H16R 9640   3.700   1.573   4.302
    3OL    H16S 9641   3.847   1.505   4.273
    3OL    C117 9642   3.729   1.387   4.417
    3OL    H17R 9643   3.755   1.282   4.405
    3OL    H17S 9644   3.622   1.382   4.442
    3OL    C118 9645   3.807   1.447   4.535
    3OL    H18R 9646   3.770   1.549   4.547
    3OL    H18S 9647   3.911   1.477   4.523
    3OL    H18T 9648   3.785   1.392   4.627
    1PA    C116 9649   0.292   3.842   4.111
    1PA    H16R 9650   0.359   3.924   4.082
    1PA    H16S 9651   0.345   3.776   4.180
    1PA    H16T 9652   0.206   3.890   4.158
    1PA    C115 9653   0.246   3.748   3.998
    1PA    H15R 9654   0.330   3.697   3.950
    1PA    H15S 9655   0.181   3.672   4.042
    1PA    C114 9656   0.160   3.830   3.901
    1PA    H14R 9657   0.074   3.771   3.870
    1PA    H14S 9658   0.123   3.913   3.961
    1PA    C113 9659   0.234   3.873   3.774
    1PA    H13R 9660   0.163   3.943   3.729
    1PA    H13S 9661   0.332   3.919   3.793
    1PA    C112 9662   0.248   3.760   3.671
    1PA    H12R 9663   0.324   3.688   3.701
    1PA    H12S 9664   0.147   3.718   3.663
    1PA    C111 9665   0.292   3.808   3.533
    1PA    H11R 9666   0.218   3.876   3.490
    1PA    H11S 9667   0.388   3.861   3.533
    1PA    C110 9668   0.316   3.693   3.435
    1PA    H10R 9669   0.358   3.726   3.340
    1PA    H10S 9670   0.385   3.619   3.475
    1PA     C19 9671   0.178   3.634   3.401
    1PA     H9R 9672   0.148   3.580   3.491
    1PA     H9S 9673   0.093   3.702   3.385
    1PA     C18 9674   0.189   3.531   3.288
    1PA     H8R 9675   0.280   3.478   3.316
    1PA     H8S 9676   0.103   3.465   3.297
    1PA     C17 9677   0.197   3.600   3.151
    1PA     H7R 9678   0.123   3.681   3.143
    1PA     H7S 9679   0.298   3.642   3.145
    1PA     C16 9680   0.167   3.504   3.035
    1PA     H6R 9681   0.243   3.425   3.033
    1PA     H6S 9682   0.067   3.464   3.053
    1PA     C15 9683   0.165   3.569   2.896
    1PA     H5R 9684   0.115   3.496   2.832
    1PA     H5S 9685   0.110   3.663   2.887
    1PA     C14 9686   0.305   3.594   2.838
    1PA     H4R 9687   0.352   3.669   2.901
    1PA     H4S 9688   0.365   3.503   2.850
    1PA     C13 9689   0.308   3.625   2.688
    1PA     H3R 9690   0.251   3.554   2.628
    1PA     H3S 9691   0.263   3.723   2.673
    1PA     C12 9692   0.452   3.637   2.638
    1PA     H2R 9693   0.515   3.697   2.704
    1PA     H2S 9694   0.495   3.537   2.623
    2PC     C11 9695   0.463   3.704   2.503
    2PC     O12 9696   0.373   3.755   2.440
    2PC     O11 9697   0.592   3.696   2.464
    2PC      C1 9698   0.616   3.744   2.330
    2PC      HR 9699   0.712   3.703   2.297
    2PC      HS 9700   0.535   3.720   2.261
    2PC      C2 9701   0.633   3.896   2.340
    2PC      HX 9702   0.541   3.921   2.393
    2PC      C3 9703   0.631   3.958   2.200
    2PC      HA 9704   0.529   3.980   2.166
    2PC      HB 9705   0.684   4.053   2.197
    2PC     O31 9706   0.696   3.872   2.104
    2PC     P31 9707   0.719   3.926   1.955
    2PC     O32 9708   0.810   4.058   1.968
    2PC     C31 9709   0.752   4.185   1.935
    2PC     H1A 9710   0.654   4.205   1.978
    2PC     H1B 9711   0.817   4.262   1.977
    2PC     C32 9712   0.749   4.199   1.782
    2PC     H2A 9713   0.845   4.178   1.735
    2PC     H2B 9714   0.690   4.112   1.752
    2PC     N31 9715   0.688   4.318   1.715
    2PC     C33 9716   0.700   4.300   1.567
    2PC     H3A 9717   0.796   4.336   1.530
    2PC     H3B 9718   0.687   4.194   1.540
    2PC     H3C 9719   0.610   4.345   1.525
    2PC     C34 9720   0.544   4.337   1.752
    2PC     H4A 9721   0.485   4.247   1.738
    2PC     H4B 9722   0.545   4.374   1.855
    2PC     H4C 9723   0.499   4.415   1.691
    2PC     C35 9724   0.766   4.443   1.745
    2PC     H5A 9725   0.867   4.424   1.711
    2PC     H5B 9726   0.764   4.466   1.851
    2PC     H5C 9727   0.723   4.529   1.693
    2PC     O33 9728   0.772   3.820   1.866
    2PC     O34 9729   0.592   3.966   1.891
    2PC     O21 9730   0.734   3.929   2.437
    2PC     C21 9731   0.725   4.051   2.492
    2PC     O22 9732   0.638   4.131   2.462
    3OL     C12 9733   0.817   4.066   2.610
    3OL     H2R 9734   0.821   4.172   2.637
    3OL     H2S 9735   0.917   4.033   2.583
    3OL     C13 9736   0.765   3.978   2.725
    3OL     H3R 9737   0.818   4.003   2.817
    3OL     H3S 9738   0.780   3.874   2.696
    3OL     C14 9739   0.616   4.001   2.753
    3OL     H4R 9740   0.559   3.942   2.681
    3OL     H4S 9741   0.581   4.104   2.751
    3OL     C15 9742   0.597   3.937   2.891
    3OL     H5R 9743   0.660   3.990   2.963
    3OL     H5S 9744   0.623   3.831   2.903
    3OL     C16 9745   0.449   3.947   2.932
    3OL     H6R 9746   0.399   3.868   2.876
    3OL     H6S 9747   0.405   4.045   2.912
    3OL     C17 9748   0.431   3.910   3.080
    3OL     H7R 9749   0.497   3.827   3.103
    3OL     H7S 9750   0.332   3.866   3.095
    3OL     C18 9751   0.455   4.032   3.171
    3OL     H8R 9752   0.397   4.026   3.263
    3OL     H8S 9753   0.422   4.117   3.110
    3OL     C19 9754   0.601   4.045   3.208
    3OL     H9R 9755   0.668   3.969   3.170
    3OL    C110 9756   0.652   4.149   3.273
    3OL    H10R 9757   0.759   4.139   3.291
    3OL    C111 9758   0.575   4.262   3.337
    3OL    H11R 9759   0.475   4.224   3.356
    3OL    H11S 9760   0.561   4.346   3.268
    3OL    C112 9761   0.628   4.307   3.474
    3OL    H12R 9762   0.584   4.405   3.494
    3OL    H12S 9763   0.737   4.305   3.472
    3OL    C113 9764   0.589   4.204   3.580
    3OL    H13R 9765   0.618   4.101   3.557
    3OL    H13S 9766   0.481   4.206   3.596
    3OL    C114 9767   0.652   4.242   3.715
    3OL    H14R 9768   0.579   4.312   3.756
    3OL    H14S 9769   0.749   4.289   3.697
    3OL    C115 9770   0.668   4.117   3.802
    3OL    H15R 9771   0.732   4.052   3.742
    3OL    H15S 9772   0.574   4.062   3.817
    3OL    C116 9773   0.734   4.145   3.938
    3OL    H16R 9774   0.833   4.188   3.919
    3OL    H16S 9775   0.748   4.050   3.989
    3OL    C117 9776   0.649   4.243   4.020
    3OL    H17R 9777   0.624   4.341   3.980
    3OL    H17S 9778   0.703   4.245   4.115
    3OL    C118 9779   0.511   4.181   4.048
    3OL    H18R 9780   0.455   4.170   3.955
    3OL    H18S 9781   0.463   4.247   4.121
    3OL    H18T 9782   0.519   4.084   4.098
    1PA    C116 9783   0.208   4.316   3.790
    1PA    H16R 9784   0.293   4.256   3.822
    1PA    H16S 9785   0.225   4.424   3.786
    1PA    H16T 9786   0.184   4.291   3.687
    1PA    C115 9787   0.097   4.280   3.890
    1PA    H15R 9788   0.095   4.171   3.898
    1PA    H15S 9789   0.133   4.315   3.987
    1PA    C114 9790   6.449   4.344   3.855
    1PA    H14R 9791   6.383   4.341   3.942
    1PA    H14S 9792   6.460   4.451   3.837
    1PA    C113 9793   6.378   4.272   3.739
    1PA    H13R 9794   6.437   4.288   3.648
    1PA    H13S 9795   6.373   4.163   3.743
    1PA    C112 9796   6.236   4.320   3.704
    1PA    H12R 9797   6.177   4.294   3.793
    1PA    H12S 9798   6.240   4.427   3.684
    1PA    C111 9799   6.185   4.253   3.576
    1PA    H11R 9800   6.243   4.284   3.489
    1PA    H11S 9801   6.185   4.144   3.585
    1PA    C110 9802   6.042   4.286   3.529
    1PA    H10R 9803   5.979   4.252   3.612
    1PA    H10S 9804   6.039   4.394   3.511
    1PA     C19 9805   6.006   4.196   3.410
    1PA     H9R 9806   6.069   4.223   3.325
    1PA     H9S 9807   6.034   4.094   3.438
    1PA     C18 9808   5.858   4.225   3.384
    1PA     H8R 9809   5.801   4.197   3.473
    1PA     H8S 9810   5.839   4.332   3.372
    1PA     C17 9811   5.787   4.159   3.265
    1PA     H7R 9812   5.680   4.173   3.278
    1PA     H7S 9813   5.819   4.223   3.183
    1PA     C16 9814   5.826   4.017   3.221
    1PA     H6R 9815   5.933   4.026   3.203
    1PA     H6S 9816   5.809   3.952   3.307
    1PA     C15 9817   5.744   3.983   3.095
    1PA     H5R 9818   5.637   3.968   3.107
    1PA     H5S 9819   5.749   4.071   3.031
    1PA     C14 9820   5.806   3.875   3.004
    1PA     H4R 9821   5.908   3.901   2.976
    1PA     H4S 9822   5.823   3.793   3.074
    1PA     C13 9823   5.722   3.835   2.882
    1PA     H3R 9824   5.751   3.733   2.856
    1PA     H3S 9825   5.618   3.821   2.910
    1PA     C12 9826   5.747   3.921   2.757
    1PA     H2R 9827   5.739   4.026   2.787
    1PA     H2S 9828   5.843   3.895   2.713
    2PC     C11 9829   5.652   3.896   2.643
    2PC     O12 9830   5.604   3.786   2.620
    2PC     O11 9831   5.625   4.006   2.571
    2PC      C1 9832   5.523   3.992   2.470
    2PC      HR 9833   5.507   4.089   2.423
    2PC      HS 9834   5.550   3.920   2.392
    2PC      C2 9835   5.385   3.950   2.524
    2PC      HX 9836   5.395   3.905   2.623
    2PC      C3 9837   5.326   3.848   2.427
    2PC      HA 9838   5.395   3.763   2.420
    2PC      HB 9839   5.228   3.822   2.468
    2PC     O31 9840   5.302   3.893   2.292
    2PC     P31 9841   5.219   3.815   2.179
    2PC     O32 9842   5.084   3.900   2.176
    2PC     C31 9843   4.986   3.875   2.073
    2PC     H1A 9844   5.041   3.877   1.978
    2PC     H1B 9845   4.940   3.777   2.090
    2PC     C32 9846   4.876   3.982   2.069
    2PC     H2A 9847   4.825   3.996   1.973
    2PC     H2B 9848   4.805   3.940   2.139
    2PC     N31 9849   4.902   4.121   2.118
    2PC     C33 9850   5.021   4.177   2.047
    2PC     H3A 9851   5.007   4.186   1.939
    2PC     H3B 9852   5.057   4.270   2.093
    2PC     H3C 9853   5.096   4.101   2.067
    2PC     C34 9854   4.778   4.200   2.087
    2PC     H4A 9855   4.694   4.163   2.146
    2PC     H4B 9856   4.793   4.306   2.109
    2PC     H4C 9857   4.771   4.206   1.979
    2PC     C35 9858   4.935   4.125   2.264
    2PC     H5A 9859   5.038   4.095   2.282
    2PC     H5B 9860   4.868   4.065   2.326
    2PC     H5C 9861   4.932   4.224   2.309
    2PC     O33 9862   5.282   3.842   2.048
    2PC     O34 9863   5.191   3.670   2.186
    2PC     O21 9864   5.298   4.064   2.535
    2PC     C21 9865   5.187   4.046   2.609
    2PC     O22 9866   5.156   3.943   2.665
    3OL     C12 9867   5.087   4.158   2.611
    3OL     H2R 9868   5.115   4.221   2.527
    3OL     H2S 9869   5.105   4.223   2.697
    3OL     C13 9870   4.944   4.107   2.587
    3OL     H3R 9871   4.919   4.038   2.668
    3OL     H3S 9872   4.943   4.039   2.501
    3OL     C14 9873   4.834   4.213   2.574
    3OL     H4R 9874   4.739   4.165   2.549
    3OL     H4S 9875   4.845   4.284   2.493
    3OL     C15 9876   4.811   4.285   2.708
    3OL     H5R 9877   4.861   4.225   2.784
    3OL     H5S 9878   4.706   4.297   2.733
    3OL     C16 9879   4.866   4.429   2.704
    3OL     H6R 9880   4.832   4.483   2.616
    3OL     H6S 9881   4.974   4.430   2.688
    3OL     C17 9882   4.835   4.518   2.825
    3OL     H7R 9883   4.727   4.533   2.827
    3OL     H7S 9884   4.882   4.616   2.813
    3OL     C18 9885   4.882   4.450   2.955
    3OL     H8R 9886   4.830   4.357   2.977
    3OL     H8S 9887   4.861   4.524   3.033
    3OL     C19 9888   5.030   4.425   2.951
    3OL     H9R 9889   5.052   4.348   2.878
    3OL    C110 9890   5.128   4.487   3.016
    3OL    H10R 9891   5.232   4.465   2.993
    3OL    C111 9892   5.108   4.618   3.088
    3OL    H11R 9893   5.007   4.656   3.075
    3OL    H11S 9894   5.180   4.694   3.055
    3OL    C112 9895   5.126   4.597   3.239
    3OL    H12R 9896   5.216   4.542   3.266
    3OL    H12S 9897   5.041   4.534   3.268
    3OL    C113 9898   5.109   4.728   3.317
    3OL    H13R 9899   5.004   4.754   3.327
    3OL    H13S 9900   5.161   4.809   3.266
    3OL    C114 9901   5.165   4.721   3.460
    3OL    H14R 9902   5.268   4.685   3.460
    3OL    H14S 9903   5.108   4.641   3.507
    3OL    C115 9904   5.157   4.847   3.549
    3OL    H15R 9905   5.057   4.889   3.560
    3OL    H15S 9906   5.221   4.924   3.506
    3OL    C116 9907   5.207   4.817   3.691
    3OL    H16R 9908   5.311   4.783   3.692
    3OL    H16S 9909   5.148   4.735   3.732
    3OL    C117 9910   5.190   4.947   3.770
    3OL    H17R 9911   5.083   4.966   3.784
    3OL    H17S 9912   5.223   5.038   3.719
    3OL    C118 9913   5.253   4.939   3.910
    3OL    H18R 9914   5.359   4.914   3.898
    3OL    H18S 9915   5.214   4.862   3.976
    3OL    H18T 9916   5.253   5.041   3.950
    1PA    C116 9917   4.582   3.948   3.548
    1PA    H16R 9918   4.519   3.885   3.485
    1PA    H16S 9919   4.510   4.016   3.594
    1PA    H16T 9920   4.635   3.886   3.621
    1PA    C115 9921   4.685   4.013   3.454
    1PA    H15R 9922   4.750   3.937   3.410
    1PA    H15S 9923   4.619   4.057   3.379
    1PA    C114 9924   4.767   4.116   3.532
    1PA    H14R 9925   4.698   4.194   3.565
    1PA    H14S 9926   4.824   4.064   3.609
    1PA    C113 9927   4.871   4.184   3.441
    1PA    H13R 9928   4.832   4.198   3.340
    1PA    H13S 9929   4.894   4.279   3.490
    1PA    C112 9930   4.999   4.103   3.417
    1PA    H12R 9931   5.064   4.110   3.504
    1PA    H12S 9932   4.972   4.000   3.391
    1PA    C111 9933   5.068   4.173   3.299
    1PA    H11R 9934   4.998   4.171   3.216
    1PA    H11S 9935   5.080   4.278   3.326
    1PA    C110 9936   5.204   4.109   3.264
    1PA    H10R 9937   5.266   4.114   3.354
    1PA    H10S 9938   5.186   4.009   3.226
    1PA     C19 9939   5.257   4.178   3.138
    1PA     H9R 9940   5.177   4.183   3.065
    1PA     H9S 9941   5.293   4.277   3.169
    1PA     C18 9942   5.377   4.098   3.086
    1PA     H8R 9943   5.447   4.111   3.170
    1PA     H8S 9944   5.355   3.992   3.068
    1PA     C17 9945   5.449   4.158   2.965
    1PA     H7R 9946   5.541   4.101   2.951
    1PA     H7S 9947   5.394   4.136   2.873
    1PA     C16 9948   5.485   4.306   2.980
    1PA     H6R 9949   5.392   4.364   2.984
    1PA     H6S 9950   5.544   4.322   3.071
    1PA     C15 9951   5.563   4.368   2.863
    1PA     H5R 9952   5.595   4.469   2.890
    1PA     H5S 9953   5.654   4.311   2.844
    1PA     C14 9954   5.485   4.376   2.732
    1PA     H4R 9955   5.459   4.276   2.694
    1PA     H4S 9956   5.395   4.434   2.753
    1PA     C13 9957   5.572   4.447   2.628
    1PA     H3R 9958   5.521   4.470   2.534
    1PA     H3S 9959   5.602   4.540   2.676
    1PA     C12 9960   5.694   4.361   2.590
    1PA     H2R 9961   5.780   4.399   2.645
    1PA     H2S 9962   5.682   4.257   2.621
    2PC     C11 9963   5.725   4.381   2.444
    2PC     O12 9964   5.664   4.329   2.353
    2PC     O11 9965   5.843   4.437   2.416
    2PC      C1 9966   5.883   4.450   2.278
    2PC      HR 9967   5.898   4.351   2.234
    2PC      HS 9968   5.795   4.495   2.232
    2PC      C2 9969   5.995   4.553   2.260
    2PC      HX 9970   5.951   4.650   2.284
    2PC      C3 9971   6.037   4.561   2.112
    2PC      HA 9972   5.969   4.615   2.046
    2PC      HB 9973   6.129   4.618   2.095
    2PC     O31 9974   6.048   4.431   2.051
    2PC     P31 9975   6.145   4.404   1.926
    2PC     O32 9976   6.051   4.473   1.816
    2PC     C31 9977   5.942   4.400   1.756
    2PC     H1A 9978   5.988   4.308   1.722
    2PC     H1B 9979   5.870   4.375   1.835
    2PC     C32 9980   5.870   4.489   1.653
    2PC     H2A 9981   5.782   4.441   1.611
    2PC     H2B 9982   5.824   4.578   1.697
    2PC     N31 9983   5.955   4.522   1.534
    2PC     C33 9984   5.872   4.601   1.437
    2PC     H3A 9985   5.933   4.644   1.358
    2PC     H3B 9986   5.784   4.546   1.404
    2PC     H3C 9987   5.830   4.687   1.489
    2PC     C34 9988   6.076   4.604   1.566
    2PC     H4A 9989   6.108   4.648   1.471
    2PC     H4B 9990   6.042   4.687   1.628
    2PC     H4C 9991   6.156   4.540   1.604
    2PC     C35 9992   5.998   4.400   1.459
    2PC     H5A 9993   6.033   4.327   1.533
    2PC     H5B 9994   6.086   4.405   1.394
    2PC     H5C 9995   5.912   4.366   1.401
    2PC     O33 9996   6.269   4.480   1.948
    2PC     O34 9997   6.160   4.259   1.899
    2PC     O21 9998   6.105   4.519   2.347
    2PC     C21 9999   6.149   4.586   2.454
    2PC     O2210000   6.103   4.692   2.493
    3OL     C1210001   6.267   4.522   2.521
    3OL     H2R10002   6.351   4.591   2.511
    3OL     H2S10003   6.301   4.434   2.466
    3OL     C1310004   6.248   4.488   2.670
    3OL     H3R10005   6.327   4.426   2.712
    3OL     H3S10006   6.158   4.427   2.681
    3OL     C1410007   6.237   4.614   2.757
    3OL     H4R10008   6.159   4.625   2.833
    3OL     H4S10009   6.227   4.712   2.711
    3OL     C1510010   6.372   4.627   2.828
    3OL     H5R10011   6.459   4.620   2.763
    3OL     H5S10012   6.372   4.549   2.905
    3OL     C1610013   6.386   4.765   2.895
    3OL     H6R10014   6.322   4.777   2.983
    3OL     H6S10015   6.349   4.838   2.823
    3OL     C1710016   0.043   4.792   2.943
    3OL     H7R10017   0.106   4.792   2.854
    3OL     H7S10018   0.077   4.706   3.000
    3OL     C1810019   0.052   4.922   3.025
    3OL     H8R10020   6.447   4.934   3.083
    3OL     H8S10021   0.067   5.008   2.959
    3OL     C1910022   0.167   4.900   3.120
    3OL     H9R10023   0.252   4.836   3.093
    3OL    C11010024   0.192   4.963   3.233
    3OL    H10R10025   0.285   4.944   3.287
    3OL    C11110026   0.104   5.068   3.295
    3OL    H11R10027   0.009   5.074   3.242
    3OL    H11S10028   0.144   5.165   3.268
    3OL    C11210029   0.081   5.045   3.446
    3OL    H12R10030   0.039   4.945   3.458
    3OL    H12S10031   0.012   5.123   3.478
    3OL    C11310032   0.204   5.053   3.537
    3OL    H13R10033   0.265   5.139   3.510
    3OL    H13S10034   0.269   4.966   3.526
    3OL    C11410035   0.168   5.061   3.686
    3OL    H14R10036   0.158   4.960   3.726
    3OL    H14S10037   0.074   5.114   3.703
    3OL    C11510038   0.281   5.133   3.761
    3OL    H15R10039   0.286   5.238   3.731
    3OL    H15S10040   0.378   5.093   3.732
    3OL    C11610041   0.268   5.131   3.913
    3OL    H16R10042   0.360   5.172   3.956
    3OL    H16S10043   0.247   5.028   3.941
    3OL    C11710044   0.146   5.209   3.965
    3OL    H17R10045   0.055   5.171   3.919
    3OL    H17S10046   0.161   5.313   3.936
    3OL    C11810047   0.134   5.205   4.118
    3OL    H18R10048   0.050   5.268   4.147
    3OL    H18S10049   0.141   5.101   4.150
    3OL    H18T10050   0.218   5.259   4.162
    1PA    C11610051   1.427   1.610   3.491
    1PA    H16R10052   1.430   1.709   3.537
    1PA    H16S10053   1.441   1.624   3.383
    1PA    H16T10054   1.332   1.568   3.524
    1PA    C11510055   1.548   1.526   3.534
    1PA    H15R10056   1.638   1.587   3.545
    1PA    H15S10057   1.521   1.494   3.635
    1PA    C11410058   1.573   1.400   3.451
    1PA    H14R10059   1.636   1.334   3.511
    1PA    H14S10060   1.484   1.339   3.434
    1PA    C11310061   1.644   1.419   3.316
    1PA    H13R10062   1.604   1.499   3.254
    1PA    H13S10063   1.747   1.447   3.337
    1PA    C11210064   1.639   1.293   3.228
    1PA    H12R10065   1.693   1.214   3.279
    1PA    H12S10066   1.532   1.271   3.215
    1PA    C11110067   1.700   1.328   3.092
    1PA    H11R10068   1.661   1.422   3.053
    1PA    H11S10069   1.807   1.323   3.113
    1PA    C11010070   1.659   1.220   2.990
    1PA    H10R10071   1.693   1.125   3.030
    1PA    H10S10072   1.551   1.202   2.992
    1PA     C1910073   1.719   1.258   2.854
    1PA     H9R10074   1.683   1.360   2.840
    1PA     H9S10075   1.828   1.250   2.856
    1PA     C1810076   1.666   1.173   2.737
    1PA     H8R10077   1.676   1.068   2.765
    1PA     H8S10078   1.561   1.187   2.713
    1PA     C1710079   1.740   1.218   2.610
    1PA     H7R10080   1.722   1.325   2.605
    1PA     H7S10081   1.848   1.201   2.609
    1PA     C1610082   1.680   1.165   2.479
    1PA     H6R10083   1.697   1.057   2.474
    1PA     H6S10084   1.572   1.182   2.492
    1PA     C1510085   1.733   1.233   2.353
    1PA     H5R10086   1.707   1.338   2.339
    1PA     H5S10087   1.841   1.222   2.341
    1PA     C1410088   1.665   1.156   2.238
    1PA     H4R10089   1.670   1.048   2.254
    1PA     H4S10090   1.559   1.174   2.223
    1PA     C1310091   1.736   1.174   2.103
    1PA     H3R10092   1.845   1.172   2.109
    1PA     H3S10093   1.707   1.090   2.040
    1PA     C1210094   1.696   1.309   2.040
    1PA     H2R10095   1.587   1.314   2.029
    1PA     H2S10096   1.726   1.388   2.108
    2PC     C1110097   1.769   1.345   1.913
    2PC     O1210098   1.787   1.275   1.816
    2PC     O1110099   1.830   1.465   1.919
    2PC      C110100   1.908   1.507   1.807
    2PC      HR10101   1.968   1.598   1.821
    2PC      HS10102   1.977   1.427   1.781
    2PC      C210103   1.810   1.540   1.693
    2PC      HX10104   1.768   1.443   1.665
    2PC      C310105   1.894   1.599   1.579
    2PC      HA10106   1.931   1.697   1.610
    2PC      HB10107   1.978   1.531   1.564
    2PC     O3110108   1.836   1.624   1.450
    2PC     P3110109   1.790   1.501   1.360
    2PC     O3210110   1.743   1.580   1.229
    2PC     C3110111   1.607   1.579   1.181
    2PC     H1A10112   1.568   1.478   1.164
    2PC     H1B10113   1.540   1.631   1.250
    2PC     C3210114   1.601   1.663   1.053
    2PC     H2A10115   1.681   1.636   0.984
    2PC     H2B10116   1.504   1.637   1.011
    2PC     N3110117   1.576   1.809   1.071
    2PC     C3310118   1.584   1.878   0.938
    2PC     H3A10119   1.559   1.984   0.933
    2PC     H3B10120   1.681   1.862   0.891
    2PC     H3C10121   1.504   1.832   0.879
    2PC     C3410122   1.449   1.838   1.145
    2PC     H4A10123   1.420   1.941   1.125
    2PC     H4B10124   1.373   1.769   1.108
    2PC     H4C10125   1.460   1.826   1.253
    2PC     C3510126   1.684   1.871   1.155
    2PC     H5A10127   1.673   1.842   1.260
    2PC     H5B10128   1.693   1.978   1.140
    2PC     H5C10129   1.772   1.820   1.116
    2PC     O3310130   1.888   1.392   1.336
    2PC     O3410131   1.684   1.424   1.429
    2PC     O2110132   1.717   1.642   1.735
    2PC     C2110133   1.598   1.606   1.786
    2PC     O2210134   1.556   1.493   1.775
    3OL     C1210135   1.525   1.722   1.848
    3OL     H2R10136   1.458   1.772   1.777
    3OL     H2S10137   1.606   1.791   1.873
    3OL     C1310138   1.457   1.686   1.981
    3OL     H3R10139   1.377   1.613   1.966
    3OL     H3S10140   1.399   1.771   2.015
    3OL     C1410141   1.556   1.653   2.094
    3OL     H4R10142   1.629   1.732   2.108
    3OL     H4S10143   1.621   1.573   2.057
    3OL     C1510144   1.477   1.627   2.223
    3OL     H5R10145   1.428   1.530   2.216
    3OL     H5S10146   1.410   1.712   2.242
    3OL     C1610147   1.567   1.618   2.347
    3OL     H6R10148   1.602   1.721   2.365
    3OL     H6S10149   1.655   1.557   2.326
    3OL     C1710150   1.489   1.557   2.464
    3OL     H7R10151   1.473   1.450   2.450
    3OL     H7S10152   1.388   1.594   2.479
    3OL     C1810153   1.579   1.569   2.587
    3OL     H8R10154   1.598   1.675   2.608
    3OL     H8S10155   1.675   1.521   2.567
    3OL     C1910156   1.521   1.502   2.709
    3OL     H9R10157   1.505   1.395   2.697
    3OL    C11010158   1.519   1.566   2.825
    3OL    H10R10159   1.498   1.508   2.914
    3OL    C11110160   1.553   1.711   2.848
    3OL    H11R10161   1.517   1.781   2.772
    3OL    H11S10162   1.662   1.716   2.841
    3OL    C11210163   1.518   1.761   2.989
    3OL    H12R10164   1.559   1.862   2.998
    3OL    H12S10165   1.571   1.698   3.061
    3OL    C11310166   1.366   1.766   3.008
    3OL    H13R10167   1.327   1.686   2.944
    3OL    H13S10168   1.321   1.862   2.980
    3OL    C11410169   1.312   1.727   3.146
    3OL    H14R10170   1.335   1.811   3.212
    3OL    H14S10171   1.347   1.634   3.190
    3OL    C11510172   1.159   1.726   3.134
    3OL    H15R10173   1.121   1.654   3.062
    3OL    H15S10174   1.114   1.820   3.101
    3OL    C11610175   1.101   1.693   3.273
    3OL    H16R10176   1.145   1.756   3.351
    3OL    H16S10177   1.115   1.588   3.296
    3OL    C11710178   0.949   1.713   3.272
    3OL    H17R10179   0.890   1.638   3.219
    3OL    H17S10180   0.918   1.809   3.232
    3OL    C11810181   0.904   1.702   3.419
    3OL    H18R10182   0.796   1.712   3.432
    3OL    H18S10183   0.949   1.789   3.467
    3OL    H18T10184   0.951   1.616   3.466
    1PA    C11610185   5.544   5.751   3.724
    1PA    H16R10186   5.468   5.713   3.792
    1PA    H16S10187   5.615   5.798   3.793
    1PA    H16T10188   5.600   5.670   3.678
    1PA    C11510189   5.504   5.859   3.622
    1PA    H15R10190   5.426   5.822   3.557
    1PA    H15S10191   5.457   5.936   3.683
    1PA    C11410192   5.616   5.910   3.531
    1PA    H14R10193   5.692   5.948   3.599
    1PA    H14S10194   5.660   5.826   3.476
    1PA    C11310195   5.573   6.013   3.425
    1PA    H13R10196   5.485   5.986   3.366
    1PA    H13S10197   5.548   6.098   3.489
    1PA    C11210198   5.700   6.042   3.344
    1PA    H12R10199   5.773   6.078   3.417
    1PA    H12S10200   5.748   5.955   3.300
    1PA    C11110201   5.671   6.134   3.224
    1PA    H11R10202   5.592   6.097   3.158
    1PA    H11S10203   5.632   6.228   3.263
    1PA    C11010204   5.798   6.161   3.141
    1PA    H10R10205   5.843   6.066   3.113
    1PA    H10S10206   5.774   6.210   3.046
    1PA     C1910207   5.896   6.249   3.220
    1PA     H9R10208   5.854   6.346   3.247
    1PA     H9S10209   5.919   6.193   3.311
    1PA     C1810210   6.026   6.262   3.140
    1PA     H8R10211   6.113   6.255   3.206
    1PA     H8S10212   6.046   6.165   3.093
    1PA     C1710213   6.038   6.376   3.038
    1PA     H7R10214   5.941   6.376   2.987
    1PA     H7S10215   6.045   6.466   3.100
    1PA     C1610216   6.153   6.347   2.941
    1PA     H6R10217   6.241   6.347   3.006
    1PA     H6S10218   6.127   6.258   2.883
    1PA     C1510219   6.185   6.451   2.833
    1PA     H5R10220   6.211   0.057   2.886
    1PA     H5S10221   6.274   6.449   2.770
    1PA     C1410222   6.066   6.469   2.737
    1PA     H4R10223   6.036   6.375   2.690
    1PA     H4S10224   5.984   0.012   2.802
    1PA     C1310225   6.085   0.093   2.631
    1PA     H3R10226   6.132   0.179   2.678
    1PA     H3S10227   6.162   0.056   2.563
    1PA     C1210228   5.954   0.124   2.558
    1PA     H2R10229   5.911   0.031   2.520
    1PA     H2S10230   5.880   0.160   2.630
    2PC     C1110231   5.976   0.221   2.444
    2PC     O1210232   6.086   0.266   2.422
    2PC     O1110233   5.861   0.261   2.387
    2PC      C110234   5.874   0.357   2.281
    2PC      HR10235   5.927   0.444   2.319
    2PC      HS10236   5.936   0.320   2.199
    2PC      C210237   5.736   0.394   2.225
    2PC      HX10238   5.682   0.300   2.241
    2PC      C310239   5.736   0.434   2.077
    2PC      HA10240   5.769   0.539   2.078
    2PC      HB10241   5.808   0.366   2.031
    2PC     O3110242   5.607   0.425   2.015
    2PC     P3110243   5.578   0.435   1.858
    2PC     O3210244   5.488   0.566   1.842
    2PC     C3110245   5.381   0.589   1.936
    2PC     H1A10246   5.422   0.557   2.032
    2PC     H1B10247   5.354   0.694   1.938
    2PC     C3210248   5.256   0.503   1.911
    2PC     H2A10249   5.280   0.397   1.904
    2PC     H2B10250   5.196   0.522   1.999
    2PC     N3110251   5.189   0.526   1.779
    2PC     C3310252   5.069   0.437   1.773
    2PC     H3A10253   5.107   0.335   1.787
    2PC     H3B10254   5.007   0.458   1.860
    2PC     H3C10255   5.017   0.456   1.679
    2PC     C3410256   5.137   0.666   1.767
    2PC     H4A10257   5.080   0.691   1.857
    2PC     H4B10258   5.231   0.721   1.770
    2PC     H4C10259   5.092   0.689   1.670
    2PC     C3510260   5.280   0.500   1.662
    2PC     H5A10261   5.338   0.411   1.687
    2PC     H5B10262   5.354   0.578   1.647
    2PC     H5C10263   5.223   0.493   1.569
    2PC     O3310264   5.696   0.443   1.768
    2PC     O3410265   5.520   0.306   1.813
    2PC     O2110266   5.687   0.492   2.318
    2PC     C2110267   5.554   0.505   2.330
    2PC     O2210268   5.465   0.464   2.258
    3OL     C1210269   5.517   0.602   2.439
    3OL     H2R10270   5.433   0.663   2.408
    3OL     H2S10271   5.600   0.668   2.466
    3OL     C1310272   5.485   0.536   2.574
    3OL     H3R10273   5.572   0.482   2.612
    3OL     H3S10274   5.406   0.463   2.552
    3OL     C1410275   5.451   0.635   2.686
    3OL     H4R10276   5.369   0.705   2.671
    3OL     H4S10277   5.538   0.700   2.695
    3OL     C1510278   5.427   0.562   2.819
    3OL     H5R10279   5.507   0.512   2.873
    3OL     H5S10280   5.350   0.485   2.805
    3OL     C1610281   5.362   0.660   2.917
    3OL     H6R10282   5.262   0.694   2.886
    3OL     H6S10283   5.422   0.750   2.932
    3OL     C1710284   5.348   0.610   3.061
    3OL     H7R10285   5.295   0.515   3.063
    3OL     H7S10286   5.285   0.675   3.122
    3OL     C1810287   5.483   0.603   3.135
    3OL     H8R10288   5.552   0.543   3.074
    3OL     H8S10289   5.459   0.544   3.224
    3OL     C1910290   5.531   0.735   3.187
    3OL     H9R10291   5.462   0.796   3.245
    3OL    C11010292   5.649   0.789   3.160
    3OL    H10R10293   5.647   0.894   3.190
    3OL    C11110294   5.763   0.743   3.073
    3OL    H11R10295   5.790   0.816   2.996
    3OL    H11S10296   5.732   0.653   3.018
    3OL    C11210297   5.889   0.714   3.155
    3OL    H12R10298   5.973   0.687   3.091
    3OL    H12S10299   5.883   0.631   3.225
    3OL    C11310300   5.928   0.840   3.234
    3OL    H13R10301   5.841   0.872   3.292
    3OL    H13S10302   5.976   0.917   3.174
    3OL    C11410303   6.041   0.803   3.331
    3OL    H14R10304   6.140   0.790   3.288
    3OL    H14S10305   6.011   0.713   3.385
    3OL    C11510306   6.083   0.914   3.428
    3OL    H15R10307   6.001   0.945   3.493
    3OL    H15S10308   6.132   0.995   3.373
    3OL    C11610309   6.193   0.867   3.525
    3OL    H16R10310   6.158   0.773   3.566
    3OL    H16S10311   6.211   0.933   3.610
    3OL    C11710312   6.338   0.862   3.474
    3OL    H17R10313   6.344   0.808   3.379
    3OL    H17S10314   6.401   0.805   3.542
    3OL    C11810315   6.388   1.004   3.444
    3OL    H18R10316   6.347   1.035   3.347
    3OL    H18S10317   0.010   1.000   3.442
    3OL    H18T10318   6.360   1.069   3.527
    1PA    C11610319   0.482   1.299   4.192
    1PA    H16R10320   0.569   1.312   4.257
    1PA    H16S10321   0.422   1.219   4.235
    1PA    H16T10322   0.421   1.389   4.205
    1PA    C11510323   0.530   1.263   4.050
    1PA    H15R10324   0.593   1.341   4.009
    1PA    H15S10325   0.581   1.166   4.049
    1PA    C11410326   0.404   1.236   3.968
    1PA    H14R10327   0.359   1.142   4.002
    1PA    H14S10328   0.337   1.322   3.973
    1PA    C11310329   0.442   1.206   3.822
    1PA    H13R10330   0.462   1.303   3.776
    1PA    H13S10331   0.529   1.141   3.830
    1PA    C11210332   0.331   1.146   3.735
    1PA    H12R10333   0.282   1.067   3.792
    1PA    H12S10334   0.274   1.238   3.719
    1PA    C11110335   0.390   1.086   3.607
    1PA    H11R10336   0.433   1.161   3.540
    1PA    H11S10337   0.473   1.022   3.636
    1PA    C11010338   0.276   1.009   3.539
    1PA    H10R10339   0.254   0.913   3.587
    1PA    H10S10340   0.182   1.064   3.540
    1PA     C1910341   0.319   0.972   3.396
    1PA     H9R10342   0.224   0.963   3.343
    1PA     H9S10343   0.372   1.046   3.336
    1PA     C1810344   0.402   0.843   3.384
    1PA     H8R10345   0.484   0.841   3.456
    1PA     H8S10346   0.338   0.755   3.395
    1PA     C1710347   0.453   0.822   3.241
    1PA     H7R10348   0.376   0.806   3.165
    1PA     H7S10349   0.518   0.905   3.212
    1PA     C1610350   0.524   0.688   3.224
    1PA     H6R10351   0.607   0.666   3.292
    1PA     H6S10352   0.449   0.610   3.236
    1PA     C1510353   0.587   0.676   3.084
    1PA     H5R10354   0.509   0.686   3.008
    1PA     H5S10355   0.649   0.765   3.074
    1PA     C1410356   0.680   0.557   3.060
    1PA     H4R10357   0.768   0.572   3.123
    1PA     H4S10358   0.625   0.466   3.087
    1PA     C1310359   0.716   0.553   2.911
    1PA     H3R10360   0.625   0.577   2.855
    1PA     H3S10361   0.788   0.633   2.898
    1PA     C1210362   0.757   0.410   2.873
    1PA     H2R10363   0.840   0.372   2.933
    1PA     H2S10364   0.665   0.353   2.888
    2PC     C1110365   0.805   0.403   2.730
    2PC     O1210366   0.829   0.507   2.672
    2PC     O1110367   0.828   0.277   2.692
    2PC      C110368   0.868   0.252   2.556
    2PC      HR10369   0.784   0.244   2.486
    2PC      HS10370   0.936   0.329   2.518
    2PC      C210371   0.932   0.112   2.551
    2PC      HX10372   1.008   0.112   2.629
    2PC      C310373   1.008   0.100   2.418
    2PC      HA10374   1.073   0.185   2.398
    2PC      HB10375   1.070   0.010   2.415
    2PC     O3110376   0.923   0.090   2.302
    2PC     P3110377   0.986   0.051   2.160
    2PC     O3210378   1.069   6.404   2.193
    2PC     C3110379   0.983   6.292   2.224
    2PC     H1A10380   0.911   6.323   2.300
    2PC     H1B10381   0.934   6.246   2.138
    2PC     C3210382   1.078   6.199   2.301
    2PC     H2A10383   1.116   6.265   2.378
    2PC     H2B10384   1.032   6.123   2.365
    2PC     N3110385   1.185   6.125   2.225
    2PC     C3310386   1.297   6.211   2.175
    2PC     H3A10387   1.302   6.293   2.247
    2PC     H3B10388   1.391   6.156   2.182
    2PC     H3C10389   1.268   6.249   2.078
    2PC     C3410390   1.250   6.032   2.323
    2PC     H4A10391   1.327   5.970   2.278
    2PC     H4B10392   1.297   6.083   2.407
    2PC     H4C10393   1.168   5.970   2.360
    2PC     C3510394   1.136   6.042   2.111
    2PC     H5A10395   1.218   5.976   2.085
    2PC     H5B10396   1.105   6.107   2.028
    2PC     H5C10397   1.047   5.992   2.149
    2PC     O3310398   0.885   0.028   2.054
    2PC     O3410399   1.070   0.161   2.106
    2PC     O2110400   0.824   0.019   2.573
    2PC     C2110401   0.852   6.375   2.592
    2PC     O2210402   0.964   6.332   2.608
    3OL     C1210403   0.726   6.300   2.625
    3OL     H2R10404   0.748   6.194   2.634
    3OL     H2S10405   0.655   6.317   2.543
    3OL     C1310406   0.671   6.349   2.760
    3OL     H3R10407   0.584   6.286   2.778
    3OL     H3S10408   0.638   6.451   2.738
    3OL     C1410409   0.764   6.338   2.881
    3OL     H4R10410   0.855   6.391   2.850
    3OL     H4S10411   0.795   6.234   2.894
    3OL     C1510412   0.710   6.396   3.012
    3OL     H5R10413   0.635   6.332   3.059
    3OL     H5S10414   0.663   0.007   2.995
    3OL     C1610415   0.818   6.418   3.120
    3OL     H6R10416   0.891   0.005   3.084
    3OL     H6S10417   0.875   6.325   3.124
    3OL     C1710418   0.761   6.457   3.257
    3OL     H7R10419   0.848   6.449   3.321
    3OL     H7S10420   0.692   6.383   3.298
    3OL     C1810421   0.709   0.115   3.270
    3OL     H8R10422   0.750   0.178   3.192
    3OL     H8S10423   0.724   0.160   3.368
    3OL     C1910424   0.559   0.114   3.252
    3OL     H9R10425   0.518   0.021   3.214
    3OL    C11010426   0.478   0.207   3.301
    3OL    H10R10427   0.371   0.192   3.289
    3OL    C11110428   0.522   0.337   3.362
    3OL    H11R10429   0.468   0.420   3.315
    3OL    H11S10430   0.628   0.355   3.348
    3OL    C11210431   0.474   0.341   3.508
    3OL    H12R10432   0.514   0.267   3.577
    3OL    H12S10433   0.368   0.317   3.497
    3OL    C11310434   0.496   0.481   3.568
    3OL    H13R10435   0.433   0.545   3.506
    3OL    H13S10436   0.601   0.507   3.557
    3OL    C11410437   0.456   0.481   3.717
    3OL    H14R10438   0.520   0.415   3.776
    3OL    H14S10439   0.360   0.431   3.725
    3OL    C11510440   0.453   0.623   3.776
    3OL    H15R10441   0.455   0.605   3.884
    3OL    H15S10442   0.364   0.681   3.752
    3OL    C11610443   0.580   0.701   3.744
    3OL    H16R10444   0.573   0.731   3.639
    3OL    H16S10445   0.673   0.643   3.744
    3OL    C11710446   0.593   0.837   3.814
    3OL    H17R10447   0.491   0.875   3.818
    3OL    H17S10448   0.656   0.906   3.756
    3OL    C11810449   0.666   0.822   3.948
    3OL    H18R10450   0.620   0.741   4.006
    3OL    H18S10451   0.662   0.914   4.006
    3OL    H18T10452   0.771   0.792   3.935
    1PA    C11610453   3.964   1.033   4.014
    1PA    H16R10454   3.981   0.979   4.108
    1PA    H16S10455   3.859   1.018   3.989
    1PA    H16T10456   4.007   1.133   4.016
    1PA    C11510457   4.046   0.960   3.908
    1PA    H15R10458   4.151   0.989   3.916
    1PA    H15S10459   4.045   0.854   3.934
    1PA    C11410460   4.004   0.988   3.763
    1PA    H14R10461   3.895   0.976   3.756
    1PA    H14S10462   4.021   1.093   3.739
    1PA    C11310463   4.063   0.896   3.656
    1PA    H13R10464   4.078   0.794   3.693
    1PA    H13S10465   3.984   0.892   3.581
    1PA    C11210466   4.188   0.966   3.599
    1PA    H12R10467   4.172   1.059   3.544
    1PA    H12S10468   4.255   0.988   3.682
    1PA    C11110469   4.259   0.885   3.490
    1PA    H11R10470   4.292   0.796   3.543
    1PA    H11S10471   4.191   0.863   3.407
    1PA    C11010472   4.382   0.955   3.431
    1PA    H10R10473   4.357   1.052   3.388
    1PA    H10S10474   4.461   0.962   3.506
    1PA     C1910475   4.437   0.869   3.316
    1PA     H9R10476   4.458   0.767   3.349
    1PA     H9S10477   4.358   0.865   3.240
    1PA     C1810478   4.573   0.926   3.275
    1PA     H8R10479   4.549   1.029   3.248
    1PA     H8S10480   4.640   0.924   3.361
    1PA     C1710481   4.619   0.838   3.158
    1PA     H7R10482   4.608   0.732   3.181
    1PA     H7S10483   4.560   0.848   3.066
    1PA     C1610484   4.766   0.870   3.127
    1PA     H6R10485   4.781   0.971   3.090
    1PA     H6S10486   4.826   0.855   3.217
    1PA     C1510487   4.829   0.768   3.032
    1PA     H5R10488   4.825   0.668   3.075
    1PA     H5S10489   4.781   0.770   2.933
    1PA     C1410490   4.978   0.798   3.013
    1PA     H4R10491   5.027   0.826   3.107
    1PA     H4S10492   5.039   0.715   2.978
    1PA     C1310493   5.014   0.918   2.924
    1PA     H3R10494   4.938   0.994   2.944
    1PA     H3S10495   5.112   0.954   2.956
    1PA     C1210496   5.033   0.870   2.779
    1PA     H2R10497   5.108   0.792   2.766
    1PA     H2S10498   4.942   0.818   2.747
    2PC     C1110499   5.056   0.983   2.682
    2PC     O1210500   5.081   1.095   2.723
    2PC     O1110501   5.038   0.964   2.550
    2PC      C110502   5.095   1.053   2.452
    2PC      HR10503   5.045   1.040   2.355
    2PC      HS10504   5.069   1.155   2.480
    2PC      C210505   5.245   1.024   2.440
    2PC      HX10506   5.287   1.097   2.370
    2PC      C310507   5.275   0.882   2.392
    2PC      HA10508   5.299   0.811   2.472
    2PC      HB10509   5.188   0.846   2.338
    2PC     O3110510   5.381   0.881   2.295
    2PC     P3110511   5.368   0.945   2.148
    2PC     O3210512   5.509   0.891   2.093
    2PC     C3110513   5.629   0.932   2.161
    2PC     H1A10514   5.627   1.041   2.162
    2PC     H1B10515   5.626   0.902   2.266
    2PC     C3210516   5.751   0.873   2.090
    2PC     H2A10517   5.843   0.915   2.131
    2PC     H2B10518   5.763   0.766   2.106
    2PC     N3110519   5.762   0.896   1.942
    2PC     C3310520   5.752   1.039   1.896
    2PC     H3A10521   5.673   1.078   1.960
    2PC     H3B10522   5.844   1.096   1.910
    2PC     H3C10523   5.732   1.043   1.789
    2PC     C3410524   5.904   0.859   1.912
    2PC     H4A10525   5.963   0.931   1.969
    2PC     H4B10526   5.932   0.762   1.952
    2PC     H4C10527   5.916   0.860   1.803
    2PC     C3510528   5.673   0.817   1.851
    2PC     H5A10529   5.678   0.711   1.875
    2PC     H5B10530   5.704   0.832   1.748
    2PC     H5C10531   5.571   0.855   1.857
    2PC     O3310532   5.254   0.885   2.076
    2PC     O3410533   5.360   1.091   2.130
    2PC     O2110534   5.312   1.036   2.567
    2PC     C2110535   5.439   1.079   2.575
    2PC     O2210536   5.514   1.095   2.481
    3OL     C1210537   5.483   1.098   2.718
    3OL     H2R10538   5.404   1.064   2.785
    3OL     H2S10539   5.506   1.203   2.739
    3OL     C1310540   5.606   1.008   2.741
    3OL     H3R10541   5.655   0.986   2.646
    3OL     H3S10542   5.568   0.910   2.771
    3OL     C1410543   5.704   1.070   2.841
    3OL     H4R10544   5.733   1.163   2.791
    3OL     H4S10545   5.783   0.999   2.864
    3OL     C1510546   5.649   1.113   2.978
    3OL     H5R10547   5.606   1.026   3.027
    3OL     H5S10548   5.565   1.182   2.967
    3OL     C1610549   5.757   1.169   3.070
    3OL     H6R10550   5.809   1.253   3.023
    3OL     H6S10551   5.833   1.098   3.105
    3OL     C1710552   5.680   1.228   3.189
    3OL     H7R10553   5.632   1.145   3.241
    3OL     H7S10554   5.600   1.294   3.153
    3OL     C1810555   5.780   1.302   3.279
    3OL     H8R10556   5.800   1.399   3.234
    3OL     H8S10557   5.880   1.258   3.285
    3OL     C1910558   5.720   1.337   3.413
    3OL     H9R10559   5.676   1.436   3.418
    3OL    C11010560   5.732   1.265   3.524
    3OL    H10R10561   5.699   1.310   3.617
    3OL    C11110562   5.788   1.125   3.528
    3OL    H11R10563   5.891   1.131   3.564
    3OL    H11S10564   5.789   1.084   3.427
    3OL    C11210565   5.692   1.041   3.614
    3OL    H12R10566   5.586   1.052   3.591
    3OL    H12S10567   5.716   1.065   3.718
    3OL    C11310568   5.725   0.892   3.600
    3OL    H13R10569   5.825   0.859   3.628
    3OL    H13S10570   5.719   0.860   3.496
    3OL    C11410571   5.614   0.820   3.679
    3OL    H14R10572   5.519   0.836   3.628
    3OL    H14S10573   5.592   0.855   3.780
    3OL    C11510574   5.654   0.672   3.685
    3OL    H15R10575   5.747   0.668   3.742
    3OL    H15S10576   5.675   0.639   3.583
    3OL    C11610577   5.542   0.586   3.746
    3OL    H16R10578   5.459   0.600   3.676
    3OL    H16S10579   5.513   0.624   3.844
    3OL    C11710580   5.570   0.435   3.743
    3OL    H17R10581   5.659   0.405   3.798
    3OL    H17S10582   5.584   0.400   3.641
    3OL    C11810583   5.450   0.352   3.791
    3OL    H18R10584   5.391   0.405   3.866
    3OL    H18S10585   5.472   0.248   3.815
    3OL    H18T10586   5.387   0.354   3.702
    1PA    C11610587   1.585   2.668   3.703
    1PA    H16R10588   1.692   2.650   3.717
    1PA    H16S10589   1.544   2.568   3.688
    1PA    H16T10590   1.537   2.716   3.788
    1PA    C11510591   1.567   2.737   3.568
    1PA    H15R10592   1.463   2.735   3.533
    1PA    H15S10593   1.604   2.839   3.584
    1PA    C11410594   1.652   2.671   3.459
    1PA    H14R10595   1.756   2.663   3.489
    1PA    H14S10596   1.613   2.568   3.461
    1PA    C11310597   1.648   2.736   3.320
    1PA    H13R10598   1.683   2.839   3.330
    1PA    H13S10599   1.708   2.675   3.252
    1PA    C11210600   1.506   2.741   3.262
    1PA    H12R10601   1.469   2.639   3.254
    1PA    H12S10602   1.448   2.801   3.333
    1PA    C11110603   1.495   2.812   3.126
    1PA    H11R10604   1.544   2.909   3.140
    1PA    H11S10605   1.550   2.757   3.050
    1PA    C11010606   1.346   2.817   3.089
    1PA    H10R10607   1.303   2.717   3.088
    1PA    H10S10608   1.299   2.882   3.163
    1PA     C1910609   1.321   2.891   2.957
    1PA     H9R10610   1.213   2.894   2.945
    1PA     H9S10611   1.367   2.990   2.956
    1PA     C1810612   1.374   2.805   2.840
    1PA     H8R10613   1.369   2.864   2.749
    1PA     H8S10614   1.479   2.778   2.854
    1PA     C1710615   1.298   2.673   2.821
    1PA     H7R10616   1.296   2.624   2.918
    1PA     H7S10617   1.196   2.695   2.789
    1PA     C1610618   1.367   2.575   2.725
    1PA     H6R10619   1.470   2.548   2.753
    1PA     H6S10620   1.314   2.480   2.727
    1PA     C1510621   1.354   2.622   2.580
    1PA     H5R10622   1.249   2.630   2.552
    1PA     H5S10623   1.403   2.720   2.584
    1PA     C1410624   1.429   2.528   2.485
    1PA     H4R10625   1.403   2.425   2.514
    1PA     H4S10626   1.376   2.552   2.393
    1PA     C1310627   1.578   2.563   2.472
    1PA     H3R10628   1.592   2.671   2.476
    1PA     H3S10629   1.634   2.529   2.559
    1PA     C1210630   1.652   2.494   2.356
    1PA     H2R10631   1.753   2.471   2.390
    1PA     H2S10632   1.606   2.397   2.333
    2PC     C1110633   1.650   2.580   2.232
    2PC     O1210634   1.550   2.588   2.165
    2PC     O1110635   1.771   2.637   2.212
    2PC      C110636   1.792   2.720   2.097
    2PC      HR10637   1.895   2.740   2.065
    2PC      HS10638   1.733   2.677   2.016
    2PC      C210639   1.730   2.858   2.121
    2PC      HX10640   1.621   2.847   2.120
    2PC      C310641   1.763   2.961   2.012
    2PC      HA10642   1.686   3.038   2.005
    2PC      HB10643   1.864   2.998   2.025
    2PC     O3110644   1.779   2.895   1.885
    2PC     P3110645   1.660   2.895   1.778
    2PC     O3210646   1.536   2.863   1.874
    2PC     C3110647   1.409   2.817   1.824
    2PC     H1A10648   1.348   2.897   1.780
    2PC     H1B10649   1.416   2.734   1.754
    2PC     C3210650   1.338   2.770   1.952
    2PC     H2A10651   1.411   2.707   2.004
    2PC     H2B10652   1.311   2.859   2.010
    2PC     N3110653   1.209   2.695   1.948
    2PC     C3310654   1.180   2.659   2.091
    2PC     H3A10655   1.265   2.593   2.108
    2PC     H3B10656   1.203   2.749   2.148
    2PC     H3C10657   1.092   2.597   2.110
    2PC     C3410658   1.097   2.787   1.909
    2PC     H4A10659   1.094   2.859   1.991
    2PC     H4B10660   1.123   2.843   1.819
    2PC     H4C10661   1.000   2.738   1.896
    2PC     C3510662   1.214   2.571   1.864
    2PC     H5A10663   1.217   2.596   1.758
    2PC     H5B10664   1.128   2.511   1.892
    2PC     H5C10665   1.308   2.516   1.879
    2PC     O3310666   1.645   3.029   1.715
    2PC     O3410667   1.669   2.794   1.671
    2PC     O2110668   1.774   2.904   2.249
    2PC     C2110669   1.686   2.948   2.341
    2PC     O2210670   1.566   2.929   2.335
    3OL     C1210671   1.756   3.015   2.457
    3OL     H2R10672   1.742   3.122   2.440
    3OL     H2S10673   1.863   2.992   2.455
    3OL     C1310674   1.685   2.973   2.586
    3OL     H3R10675   1.699   2.865   2.587
    3OL     H3S10676   1.577   2.988   2.578
    3OL     C1410677   1.760   3.038   2.703
    3OL     H4R10678   1.759   3.146   2.683
    3OL     H4S10679   1.862   3.006   2.726
    3OL     C1510680   1.686   3.020   2.836
    3OL     H5R10681   1.673   2.913   2.854
    3OL     H5S10682   1.584   3.057   2.831
    3OL     C1610683   1.755   3.086   2.956
    3OL     H6R10684   1.691   3.069   3.043
    3OL     H6S10685   1.760   3.195   2.942
    3OL     C1710686   1.891   3.022   2.987
    3OL     H7R10687   1.951   3.073   3.063
    3OL     H7S10688   1.959   3.025   2.903
    3OL     C1810689   1.875   2.873   3.021
    3OL     H8R10690   1.866   2.812   2.930
    3OL     H8S10691   1.773   2.867   3.061
    3OL     C1910692   1.977   2.806   3.110
    3OL     H9R10693   2.032   2.725   3.063
    3OL    C11010694   2.010   2.835   3.235
    3OL    H10R10695   2.086   2.783   3.292
    3OL    C11110696   1.948   2.940   3.323
    3OL    H11R10697   1.908   2.887   3.410
    3OL    H11S10698   1.861   2.992   3.282
    3OL    C11210699   2.053   3.039   3.374
    3OL    H12R10700   2.096   3.099   3.293
    3OL    H12S10701   2.120   2.973   3.429
    3OL    C11310702   1.980   3.134   3.470
    3OL    H13R10703   1.927   3.079   3.547
    3OL    H13S10704   1.909   3.194   3.412
    3OL    C11410705   2.075   3.228   3.545
    3OL    H14R10706   2.146   3.278   3.479
    3OL    H14S10707   2.134   3.162   3.609
    3OL    C11510708   2.000   3.338   3.623
    3OL    H15R10709   1.939   3.405   3.562
    3OL    H15S10710   2.081   3.399   3.664
    3OL    C11610711   1.932   3.272   3.744
    3OL    H16R10712   2.015   3.215   3.786
    3OL    H16S10713   1.848   3.212   3.708
    3OL    C11710714   1.863   3.366   3.843
    3OL    H17R10715   1.773   3.397   3.790
    3OL    H17S10716   1.923   3.449   3.880
    3OL    C11810717   1.829   3.278   3.965
    3OL    H18R10718   1.909   3.214   4.002
    3OL    H18S10719   1.736   3.224   3.949
    3OL    H18T10720   1.806   3.347   4.046
    1PA    C11610721   0.322   4.582   4.067
    1PA    H16R10722   0.256   4.661   4.031
    1PA    H16S10723   0.310   4.581   4.175
    1PA    H16T10724   0.297   4.482   4.031
    1PA    C11510725   0.466   4.619   4.026
    1PA    H15R10726   0.481   4.711   4.083
    1PA    H15S10727   0.532   4.542   4.067
    1PA    C11410728   0.472   4.639   3.874
    1PA    H14R10729   0.437   4.552   3.817
    1PA    H14S10730   0.404   4.719   3.847
    1PA    C11310731   0.615   4.682   3.838
    1PA    H13R10732   0.635   4.771   3.897
    1PA    H13S10733   0.680   4.597   3.863
    1PA    C11210734   0.642   4.711   3.690
    1PA    H12R10735   0.750   4.724   3.679
    1PA    H12S10736   0.605   4.630   3.626
    1PA    C11110737   0.574   4.843   3.652
    1PA    H11R10738   0.468   4.818   3.641
    1PA    H11S10739   0.591   4.906   3.739
    1PA    C11010740   0.638   4.897   3.524
    1PA    H10R10741   0.744   4.912   3.546
    1PA    H10S10742   0.635   4.824   3.443
    1PA     C1910743   0.577   5.029   3.475
    1PA     H9R10744   0.469   5.020   3.476
    1PA     H9S10745   0.613   5.115   3.533
    1PA     C1810746   0.614   5.057   3.328
    1PA     H8R10747   0.721   5.078   3.324
    1PA     H8S10748   0.586   4.970   3.270
    1PA     C1710749   0.544   5.184   3.275
    1PA     H7R10750   0.437   5.163   3.274
    1PA     H7S10751   0.558   5.257   3.355
    1PA     C1610752   0.598   5.230   3.139
    1PA     H6R10753   0.607   5.338   3.131
    1PA     H6S10754   0.703   5.201   3.129
    1PA     C1510755   0.530   5.175   3.013
    1PA     H5R10756   0.432   5.225   3.009
    1PA     H5S10757   0.587   5.193   2.922
    1PA     C1410758   0.502   5.024   3.012
    1PA     H4R10759   0.591   4.962   3.012
    1PA     H4S10760   0.446   4.988   3.098
    1PA     C1310761   0.410   4.965   2.904
    1PA     H3R10762   0.381   4.863   2.931
    1PA     H3S10763   0.327   5.036   2.899
    1PA     C1210764   0.478   4.965   2.767
    1PA     H2R10765   0.536   5.054   2.744
    1PA     H2S10766   0.548   4.881   2.777
    2PC     C1110767   0.382   4.945   2.653
    2PC     O1210768   0.394   5.002   2.546
    2PC     O1110769   0.278   4.864   2.681
    2PC      C110770   0.182   4.834   2.578
    2PC      HR10771   0.084   4.810   2.619
    2PC      HS10772   0.168   4.919   2.511
    2PC      C210773   0.245   4.733   2.481
    2PC      HX10774   0.340   4.773   2.444
    2PC      C310775   0.152   4.710   2.361
    2PC      HA10776   0.065   4.651   2.393
    2PC      HB10777   0.103   4.799   2.322
    2PC     O3110778   0.220   4.657   2.245
    2PC     P3110779   0.289   4.513   2.251
    2PC     O3210780   0.159   4.421   2.263
    2PC     C3110781   0.067   4.428   2.153
    2PC     H1A10782   0.021   4.526   2.162
    2PC     H1B10783   0.104   4.417   2.050
    2PC     C3210784   6.434   4.333   2.174
    2PC     H2A10785   6.435   4.300   2.278
    2PC     H2B10786   6.343   4.382   2.138
    2PC     N3110787   6.441   4.203   2.100
    2PC     C3310788   0.057   4.114   2.163
    2PC     H3A10789   0.150   4.169   2.142
    2PC     H3B10790   0.041   4.106   2.271
    2PC     H3C10791   0.054   4.015   2.118
    2PC     C3410792   6.312   4.129   2.121
    2PC     H4A10793   6.308   4.097   2.226
    2PC     H4B10794   6.233   4.201   2.095
    2PC     H4C10795   6.310   4.038   2.061
    2PC     C3510796   6.474   4.225   1.956
    2PC     H5A10797   6.470   4.130   1.903
    2PC     H5B10798   0.093   4.251   1.950
    2PC     H5C10799   6.405   4.296   1.909
    2PC     O3310800   0.361   4.467   2.130
    2PC     O3410801   0.396   4.486   2.351
    2PC     O2110802   0.266   4.613   2.557
    2PC     C2110803   0.377   4.595   2.630
    2PC     O2210804   0.475   4.668   2.624
    3OL     C1210805   0.378   4.470   2.714
    3OL     H2R10806   0.461   4.482   2.784
    3OL     H2S10807   0.393   4.387   2.646
    3OL     C1310808   0.248   4.456   2.794
    3OL     H3R10809   0.161   4.473   2.730
    3OL     H3S10810   0.248   4.536   2.869
    3OL     C1410811   0.234   4.317   2.859
    3OL     H4R10812   0.323   4.292   2.916
    3OL     H4S10813   0.236   4.244   2.778
    3OL     C1510814   0.106   4.304   2.943
    3OL     H5R10815   0.023   4.296   2.872
    3OL     H5S10816   0.093   4.392   3.007
    3OL     C1610817   0.117   4.174   3.022
    3OL     H6R10818   0.210   4.164   3.078
    3OL     H6S10819   0.110   4.091   2.951
    3OL     C1710820   0.001   4.159   3.122
    3OL     H7R10821   6.393   4.177   3.069
    3OL     H7S10822   0.013   4.243   3.191
    3OL     C1810823   6.482   4.021   3.189
    3OL     H8R10824   0.090   3.997   3.238
    3OL     H8S10825   6.481   3.941   3.114
    3OL     C1910826   6.361   4.008   3.278
    3OL     H9R10827   6.355   4.078   3.362
    3OL    C11010828   6.258   3.926   3.271
    3OL    H10R10829   6.175   3.930   3.342
    3OL    C11110830   6.239   3.805   3.183
    3OL    H11R10831   6.340   3.775   3.154
    3OL    H11S10832   6.189   3.853   3.098
    3OL    C11210833   6.158   3.690   3.245
    3OL    H12R10834   6.153   3.608   3.173
    3OL    H12S10835   6.059   3.726   3.271
    3OL    C11310836   6.232   3.629   3.365
    3OL    H13R10837   6.338   3.649   3.351
    3OL    H13S10838   6.219   3.521   3.370
    3OL    C11410839   6.189   3.696   3.496
    3OL    H14R10840   6.098   3.648   3.532
    3OL    H14S10841   6.168   3.801   3.477
    3OL    C11510842   6.306   3.672   3.592
    3OL    H15R10843   6.399   3.722   3.565
    3OL    H15S10844   6.314   3.563   3.595
    3OL    C11610845   6.273   3.726   3.732
    3OL    H16R10846   6.352   3.698   3.801
    3OL    H16S10847   6.179   3.687   3.771
    3OL    C11710848   6.267   3.880   3.739
    3OL    H17R10849   6.184   3.905   3.673
    3OL    H17S10850   6.366   3.904   3.699
    3OL    C11810851   6.226   3.944   3.872
    3OL    H18R10852   6.303   3.932   3.949
    3OL    H18S10853   6.132   3.895   3.899
    3OL    H18T10854   6.209   4.049   3.851
    1PA    C11610855   6.160   2.289   3.832
    1PA    H16R10856   6.158   2.397   3.814
    1PA    H16S10857   6.125   2.261   3.931
    1PA    H16T10858   6.101   2.236   3.757
    1PA    C11510859   6.305   2.245   3.807
    1PA    H15R10860   6.362   2.288   3.890
    1PA    H15S10861   6.321   2.137   3.809
    1PA    C11410862   6.352   2.303   3.673
    1PA    H14R10863   6.323   2.407   3.658
    1PA    H14S10864   6.461   2.302   3.668
    1PA    C11310865   6.292   2.224   3.557
    1PA    H13R10866   6.183   2.213   3.564
    1PA    H13S10867   6.307   2.271   3.459
    1PA    C11210868   6.362   2.090   3.534
    1PA    H12R10869   6.465   2.117   3.509
    1PA    H12S10870   6.359   2.027   3.623
    1PA    C11110871   6.308   2.024   3.406
    1PA    H11R10872   6.201   2.006   3.408
    1PA    H11S10873   6.322   2.084   3.316
    1PA    C11010874   6.397   1.902   3.378
    1PA    H10R10875   0.016   1.932   3.370
    1PA    H10S10876   6.385   1.839   3.467
    1PA     C1910877   6.357   1.805   3.266
    1PA     H9R10878   6.416   1.714   3.282
    1PA     H9S10879   6.256   1.766   3.285
    1PA     C1810880   6.393   1.866   3.131
    1PA     H8R10881   6.332   1.951   3.099
    1PA     H8S10882   0.010   1.901   3.135
    1PA     C1710883   6.396   1.761   3.019
    1PA     H7R10884   6.433   1.818   2.933
    1PA     H7S10885   6.462   1.677   3.042
    1PA     C1610886   6.254   1.723   2.977
    1PA     H6R10887   6.198   1.689   3.064
    1PA     H6S10888   6.202   1.815   2.950
    1PA     C1510889   6.261   1.633   2.852
    1PA     H5R10890   6.180   1.651   2.781
    1PA     H5S10891   6.352   1.658   2.798
    1PA     C1410892   6.282   1.486   2.890
    1PA     H4R10893   6.355   1.479   2.970
    1PA     H4S10894   6.183   1.449   2.918
    1PA     C1310895   6.331   1.408   2.766
    1PA     H3R10896   6.428   1.450   2.739
    1PA     H3S10897   6.350   1.305   2.795
    1PA     C1210898   6.234   1.422   2.648
    1PA     H2R10899   6.135   1.405   2.691
    1PA     H2S10900   6.248   1.518   2.597
    2PC     C1110901   6.267   1.321   2.541
    2PC     O1210902   6.240   1.341   2.424
    2PC     O1110903   6.310   1.203   2.586
    2PC      C110904   6.333   1.103   2.485
    2PC      HR10905   6.337   0.999   2.520
    2PC      HS10906   6.248   1.101   2.417
    2PC      C210907   6.459   1.135   2.403
    2PC      HX10908   6.459   1.236   2.360
    2PC      C310909   6.467   1.036   2.286
    2PC      HA10910   0.031   0.946   2.322
    2PC      HB10911   6.373   1.001   2.241
    2PC     O3110912   0.068   1.094   2.188
    2PC     P3110913   0.099   1.008   2.056
    2PC     O3210914   0.256   0.996   2.083
    2PC     C3110915   0.343   1.049   1.982
    2PC     H1A10916   0.306   1.007   1.888
    2PC     H1B10917   0.333   1.158   1.980
    2PC     C3210918   0.482   0.988   2.006
    2PC     H2A10919   0.484   0.879   2.008
    2PC     H2B10920   0.550   1.018   1.926
    2PC     N3110921   0.560   1.034   2.125
    2PC     C3310922   0.494   0.997   2.254
    2PC     H3A10923   0.554   1.008   2.345
    2PC     H3B10924   0.409   1.064   2.264
    2PC     H3C10925   0.448   0.899   2.262
    2PC     C3410926   0.700   0.979   2.126
    2PC     H4A10927   0.693   0.874   2.096
    2PC     H4B10928   0.759   1.035   2.054
    2PC     H4C10929   0.749   0.981   2.223
    2PC     C3510930   0.565   1.184   2.125
    2PC     H5A10931   0.617   1.232   2.042
    2PC     H5B10932   0.602   1.221   2.220
    2PC     H5C10933   0.460   1.210   2.113
    2PC     O3310934   0.029   0.878   2.065
    2PC     O3410935   0.066   1.081   1.932
    2PC     O2110936   0.095   1.107   2.472
    2PC     C2110937   0.136   1.209   2.550
    2PC     O2210938   0.093   1.322   2.550
    3OL     C1210939   0.256   1.185   2.638
    3OL     H2R10940   0.304   1.280   2.662
    3OL     H2S10941   0.329   1.139   2.571
    3OL     C1310942   0.227   1.097   2.761
    3OL     H3R10943   0.313   1.048   2.808
    3OL     H3S10944   0.160   1.017   2.727
    3OL     C1410945   0.147   1.176   2.865
    3OL     H4R10946   0.046   1.190   2.825
    3OL     H4S10947   0.185   1.278   2.870
    3OL     C1510948   0.144   1.116   3.006
    3OL     H5R10949   0.248   1.088   3.022
    3OL     H5S10950   0.076   1.030   2.996
    3OL     C1610951   0.092   1.217   3.109
    3OL     H6R10952   0.006   1.179   3.164
    3OL     H6S10953   0.059   1.304   3.051
    3OL     C1710954   0.195   1.271   3.208
    3OL     H7R10955   0.292   1.289   3.161
    3OL     H7S10956   0.206   1.199   3.289
    3OL     C1810957   0.140   1.395   3.279
    3OL     H8R10958   0.187   1.396   3.378
    3OL     H8S10959   0.035   1.373   3.300
    3OL     C1910960   0.152   1.519   3.195
    3OL     H9R10961   0.086   1.521   3.108
    3OL    C11010962   0.233   1.623   3.208
    3OL    H10R10963   0.244   1.703   3.135
    3OL    C11110964   0.344   1.631   3.309
    3OL    H11R10965   0.435   1.668   3.261
    3OL    H11S10966   0.375   1.527   3.326
    3OL    C11210967   0.311   1.708   3.438
    3OL    H12R10968   0.274   1.635   3.510
    3OL    H12S10969   0.241   1.791   3.428
    3OL    C11310970   0.446   1.753   3.496
    3OL    H13R10971   0.487   1.822   3.422
    3OL    H13S10972   0.517   1.670   3.498
    3OL    C11410973   0.429   1.814   3.636
    3OL    H14R10974   0.392   1.733   3.699
    3OL    H14S10975   0.350   1.890   3.638
    3OL    C11510976   0.546   1.879   3.711
    3OL    H15R10977   0.515   1.891   3.815
    3OL    H15S10978   0.541   1.981   3.673
    3OL    C11610979   0.685   1.816   3.703
    3OL    H16R10980   0.758   1.882   3.751
    3OL    H16S10981   0.712   1.824   3.597
    3OL    C11710982   0.706   1.670   3.745
    3OL    H17R10983   0.814   1.661   3.730
    3OL    H17S10984   0.655   1.594   3.685
    3OL    C11810985   0.665   1.659   3.893
    3OL    H18R10986   0.561   1.691   3.897
    3OL    H18S10987   0.714   1.733   3.957
    3OL    H18T10988   0.674   1.561   3.940
    1PA    C11610989   1.206   4.043   3.573
    1PA    H16R10990   1.234   3.971   3.496
    1PA    H16S10991   1.298   4.087   3.613
    1PA    H16T10992   1.141   4.124   3.540
    1PA    C11510993   1.132   3.950   3.671
    1PA    H15R10994   1.181   3.853   3.673
    1PA    H15S10995   1.132   3.990   3.772
    1PA    C11410996   0.985   3.932   3.629
    1PA    H14R10997   0.927   3.902   3.716
    1PA    H14S10998   0.946   4.031   3.602
    1PA    C11310999   0.980   3.822   3.522
    1PA    H13R11000   1.053   3.847   3.445
    1PA    H13S11001   1.002   3.723   3.563
    1PA    C11211002   0.842   3.813   3.456
    1PA    H12R11003   0.778   3.803   3.543
    1PA    H12S11004   0.805   3.906   3.412
    1PA    C11111005   0.829   3.696   3.357
    1PA    H11R11006   0.891   3.705   3.267
    1PA    H11S11007   0.851   3.600   3.405
    1PA    C11011008   0.690   3.693   3.292
    1PA    H10R11009   0.611   3.693   3.367
    1PA    H10S11010   0.660   3.782   3.236
    1PA     C1911011   0.676   3.571   3.200
    1PA     H9R11012   0.698   3.476   3.249
    1PA     H9S11013   0.574   3.549   3.167
    1PA     C1811014   0.754   3.598   3.070
    1PA     H8R11015   0.714   3.688   3.023
    1PA     H8S11016   0.861   3.602   3.091
    1PA     C1711017   0.731   3.481   2.975
    1PA     H7R11018   0.735   3.384   3.025
    1PA     H7S11019   0.633   3.499   2.931
    1PA     C1611020   0.830   3.477   2.857
    1PA     H6R11021   0.926   3.465   2.907
    1PA     H6S11022   0.823   3.404   2.776
    1PA     C1511023   0.840   3.606   2.775
    1PA     H5R11024   0.742   3.646   2.745
    1PA     H5S11025   0.882   3.683   2.840
    1PA     C1411026   0.932   3.599   2.652
    1PA     H4R11027   0.974   3.698   2.632
    1PA     H4S11028   1.018   3.542   2.687
    1PA     C1311029   0.875   3.541   2.522
    1PA     H3R11030   0.848   3.437   2.542
    1PA     H3S11031   0.787   3.598   2.491
    1PA     C1211032   0.974   3.558   2.406
    1PA     H2R11033   0.996   3.665   2.398
    1PA     H2S11034   1.068   3.504   2.406
    2PC     C1111035   0.922   3.523   2.268
    2PC     O1211036   0.815   3.471   2.243
    2PC     O1111037   1.007   3.570   2.175
    2PC      C111038   0.973   3.567   2.035
    2PC      HR11039   0.864   3.574   2.031
    2PC      HS11040   1.017   3.654   1.986
    2PC      C211041   1.034   3.439   1.975
    2PC      HX11042   1.126   3.412   2.027
    2PC      C311043   1.056   3.454   1.824
    2PC      HA11044   1.088   3.552   1.787
    2PC      HB11045   1.124   3.375   1.793
    2PC     O3111046   0.928   3.429   1.763
    2PC     P3111047   0.908   3.480   1.612
    2PC     O3211048   0.996   3.378   1.526
    2PC     C3111049   1.135   3.412   1.512
    2PC     H1A11050   1.144   3.519   1.489
    2PC     H1B11051   1.193   3.384   1.600
    2PC     C3211052   1.187   3.320   1.400
    2PC     H2A11053   1.163   3.217   1.426
    2PC     H2B11054   1.118   3.328   1.315
    2PC     N3111055   1.330   3.322   1.358
    2PC     C3311056   1.367   3.231   1.244
    2PC     H3A11057   1.380   3.128   1.279
    2PC     H3B11058   1.292   3.216   1.167
    2PC     H3C11059   1.464   3.255   1.200
    2PC     C3411060   1.355   3.462   1.310
    2PC     H4A11061   1.267   3.501   1.258
    2PC     H4B11062   1.381   3.527   1.394
    2PC     H4C11063   1.434   3.458   1.235
    2PC     C3511064   1.408   3.284   1.480
    2PC     H5A11065   1.381   3.368   1.544
    2PC     H5B11066   1.515   3.268   1.463
    2PC     H5C11067   1.359   3.197   1.522
    2PC     O3311068   0.761   3.486   1.590
    2PC     O3411069   0.952   3.620   1.591
    2PC     O2111070   0.934   3.342   2.009
    2PC     C2111071   0.962   3.211   1.996
    2PC     O2211072   1.064   3.164   1.950
    3OL     C1211073   0.855   3.119   2.048
    3OL     H2R11074   0.885   3.018   2.016
    3OL     H2S11075   0.759   3.134   1.999
    3OL     C1311076   0.837   3.122   2.201
    3OL     H3R11077   0.796   3.219   2.230
    3OL     H3S11078   0.939   3.122   2.239
    3OL     C1411079   0.764   3.004   2.267
    3OL     H4R11080   0.676   2.984   2.207
    3OL     H4S11081   0.728   3.025   2.368
    3OL     C1511082   0.864   2.888   2.278
    3OL     H5R11083   0.949   2.920   2.338
    3OL     H5S11084   0.897   2.855   2.179
    3OL     C1611085   0.785   2.773   2.341
    3OL     H6R11086   0.685   2.753   2.303
    3OL     H6S11087   0.768   2.788   2.448
    3OL     C1711088   0.868   2.644   2.329
    3OL     H7R11089   0.910   2.633   2.229
    3OL     H7S11090   0.803   2.558   2.348
    3OL     C1811091   0.990   2.653   2.422
    3OL     H8R11092   1.046   2.743   2.397
    3OL     H8S11093   1.058   2.574   2.389
    3OL     C1911094   0.962   2.651   2.571
    3OL     H9R11095   0.958   2.745   2.625
    3OL    C11011096   0.943   2.543   2.644
    3OL    H10R11097   0.928   2.550   2.751
    3OL    C11111098   0.958   2.404   2.588
    3OL    H11R11099   0.965   2.400   2.479
    3OL    H11S11100   0.859   2.362   2.604
    3OL    C11211101   1.073   2.328   2.657
    3OL    H12R11102   1.071   2.356   2.762
    3OL    H12S11103   1.172   2.359   2.622
    3OL    C11311104   1.059   2.178   2.627
    3OL    H13R11105   1.083   2.161   2.522
    3OL    H13S11106   0.959   2.140   2.649
    3OL    C11411107   1.168   2.102   2.705
    3OL    H14R11108   1.159   2.136   2.808
    3OL    H14S11109   1.264   2.142   2.670
    3OL    C11511110   1.156   1.950   2.687
    3OL    H15R11111   1.239   1.901   2.738
    3OL    H15S11112   1.154   1.929   2.580
    3OL    C11611113   1.030   1.899   2.758
    3OL    H16R11114   0.941   1.951   2.722
    3OL    H16S11115   1.050   1.907   2.865
    3OL    C11711116   1.013   1.747   2.747
    3OL    H17R11117   1.102   1.691   2.775
    3OL    H17S11118   0.992   1.726   2.642
    3OL    C11811119   0.901   1.697   2.838
    3OL    H18R11120   0.893   1.588   2.839
    3OL    H18S11121   0.807   1.741   2.804
    3OL    H18T11122   0.914   1.731   2.941
    1PA    C11611123   1.784   2.011   3.792
    1PA    H16R11124   1.737   2.008   3.891
    1PA    H16S11125   1.816   2.114   3.777
    1PA    H16T11126   1.870   1.943   3.786
    1PA    C11511127   1.675   1.963   3.695
    1PA    H15R11128   1.655   1.858   3.715
    1PA    H15S11129   1.580   2.016   3.706
    1PA    C11411130   1.718   1.973   3.548
    1PA    H14R11131   1.808   1.915   3.527
    1PA    H14S11132   1.631   1.928   3.498
    1PA    C11311133   1.734   2.113   3.488
    1PA    H13R11134   1.647   2.177   3.507
    1PA    H13S11135   1.817   2.168   3.534
    1PA    C11211136   1.762   2.121   3.338
    1PA    H12R11137   1.662   2.106   3.297
    1PA    H12S11138   1.796   2.221   3.310
    1PA    C11111139   1.863   2.028   3.268
    1PA    H11R11140   1.967   2.050   3.291
    1PA    H11S11141   1.837   1.925   3.295
    1PA    C11011142   1.841   2.034   3.116
    1PA    H10R11143   1.739   2.000   3.098
    1PA    H10S11144   1.855   2.139   3.088
    1PA     C1911145   1.934   1.950   3.027
    1PA     H9R11146   2.032   1.997   3.018
    1PA     H9S11147   1.948   1.856   3.081
    1PA     C1811148   1.869   1.923   2.891
    1PA     H8R11149   1.771   1.877   2.903
    1PA     H8S11150   1.864   2.020   2.841
    1PA     C1711151   1.951   1.822   2.810
    1PA     H7R11152   2.054   1.853   2.794
    1PA     H7S11153   1.954   1.728   2.867
    1PA     C1611154   1.896   1.800   2.668
    1PA     H6R11155   1.798   1.753   2.673
    1PA     H6S11156   1.872   1.892   2.614
    1PA     C1511157   1.990   1.707   2.589
    1PA     H5R11158   2.092   1.747   2.584
    1PA     H5S11159   1.995   1.609   2.636
    1PA     C1411160   1.946   1.677   2.445
    1PA     H4R11161   1.840   1.650   2.446
    1PA     H4S11162   1.956   1.773   2.394
    1PA     C1311163   2.032   1.569   2.379
    1PA     H3R11164   2.134   1.601   2.360
    1PA     H3S11165   2.025   1.473   2.431
    1PA     C1211166   1.965   1.537   2.245
    1PA     H2R11167   2.005   1.440   2.212
    1PA     H2S11168   1.856   1.524   2.250
    2PC     C1111169   1.995   1.629   2.130
    2PC     O1211170   2.075   1.587   2.050
    2PC     O1111171   1.931   1.748   2.136
    2PC      C111172   1.931   1.820   2.011
    2PC      HR11173   2.037   1.833   1.986
    2PC      HS11174   1.891   1.753   1.936
    2PC      C211175   1.845   1.947   2.015
    2PC      HX11176   1.747   1.926   2.061
    2PC      C311177   1.815   1.995   1.873
    2PC      HA11178   1.736   1.936   1.825
    2PC      HB11179   1.786   2.100   1.877
    2PC     O3111180   1.928   1.979   1.785
    2PC     P3111181   1.933   2.078   1.659
    2PC     O3211182   2.033   2.008   1.556
    2PC     C3111183   2.171   1.983   1.588
    2PC     H1A11184   2.209   2.081   1.617
    2PC     H1B11185   2.171   1.903   1.663
    2PC     C3211186   2.245   1.930   1.464
    2PC     H2A11187   2.208   1.828   1.452
    2PC     H2B11188   2.210   1.984   1.376
    2PC     N3111189   2.394   1.941   1.458
    2PC     C3311190   2.435   2.084   1.441
    2PC     H3A11191   2.539   2.093   1.475
    2PC     H3B11192   2.416   2.112   1.338
    2PC     H3C11193   2.371   2.146   1.504
    2PC     C3411194   2.456   1.876   1.578
    2PC     H4A11195   2.565   1.876   1.570
    2PC     H4B11196   2.422   1.935   1.663
    2PC     H4C11197   2.418   1.777   1.602
    2PC     C3511198   2.445   1.863   1.341
    2PC     H5A11199   2.416   1.908   1.246
    2PC     H5B11200   2.400   1.764   1.347
    2PC     H5C11201   2.553   1.865   1.356
    2PC     O3311202   1.801   2.074   1.590
    2PC     O3411203   1.966   2.222   1.667
    2PC     O2111204   1.924   2.044   2.086
    2PC     C2111205   1.871   2.159   2.129
    2PC     O2211206   1.754   2.186   2.110
    3OL     C1211207   1.966   2.249   2.205
    3OL     H2R11208   1.928   2.349   2.182
    3OL     H2S11209   2.066   2.243   2.160
    3OL     C1311210   1.980   2.216   2.354
    3OL     H3R11211   1.884   2.215   2.406
    3OL     H3S11212   2.033   2.299   2.401
    3OL     C1411213   2.047   2.082   2.387
    3OL     H4R11214   2.002   1.996   2.336
    3OL     H4S11215   2.024   2.054   2.490
    3OL     C1511216   2.200   2.082   2.379
    3OL     H5R11217   2.235   2.124   2.284
    3OL     H5S11218   2.242   1.982   2.383
    3OL     C1611219   2.267   2.142   2.503
    3OL     H6R11220   2.219   2.087   2.585
    3OL     H6S11221   2.235   2.245   2.522
    3OL     C1711222   2.419   2.128   2.507
    3OL     H7R11223   2.458   2.196   2.431
    3OL     H7S11224   2.435   2.023   2.480
    3OL     C1811225   2.488   2.160   2.641
    3OL     H8R11226   2.460   2.259   2.676
    3OL     H8S11227   2.595   2.159   2.621
    3OL     C1911228   2.441   2.058   2.742
    3OL     H9R11229   2.483   1.960   2.720
    3OL    C11011230   2.362   2.083   2.844
    3OL    H10R11231   2.335   2.004   2.914
    3OL    C11111232   2.308   2.217   2.887
    3OL    H11R11233   2.204   2.201   2.917
    3OL    H11S11234   2.299   2.288   2.805
    3OL    C11211235   2.393   2.282   2.997
    3OL    H12R11236   2.378   2.220   3.085
    3OL    H12S11237   2.367   2.386   3.014
    3OL    C11311238   2.545   2.278   2.971
    3OL    H13R11239   2.563   2.325   2.873
    3OL    H13S11240   2.579   2.175   2.969
    3OL    C11411241   2.626   2.350   3.079
    3OL    H14R11242   2.594   2.455   3.078
    3OL    H14S11243   2.731   2.345   3.052
    3OL    C11511244   2.592   2.288   3.216
    3OL    H15R11245   2.610   2.180   3.220
    3OL    H15S11246   2.490   2.305   3.249
    3OL    C11611247   2.698   2.345   3.312
    3OL    H16R11248   2.707   2.453   3.306
    3OL    H16S11249   2.796   2.312   3.277
    3OL    C11711250   2.670   2.300   3.456
    3OL    H17R11251   2.651   2.193   3.464
    3OL    H17S11252   2.572   2.340   3.483
    3OL    C11811253   2.781   2.339   3.554
    3OL    H18R11254   2.780   2.313   3.660
    3OL    H18S11255   2.779   2.448   3.550
    3OL    H18T11256   2.876   2.307   3.510
    1PA    C11611257   2.656   0.319   4.062
    1PA    H16R11258   2.742   0.363   4.114
    1PA    H16S11259   2.683   0.226   4.011
    1PA    H16T11260   2.589   0.288   4.143
    1PA    C11511261   2.599   0.407   3.951
    1PA    H15R11262   2.521   0.342   3.911
    1PA    H15S11263   2.560   0.490   4.010
    1PA    C11411264   2.701   0.451   3.845
    1PA    H14R11265   2.663   0.534   3.785
    1PA    H14S11266   2.794   0.483   3.891
    1PA    C11311267   2.725   0.326   3.758
    1PA    H13R11268   2.755   0.243   3.821
    1PA    H13S11269   2.634   0.293   3.706
    1PA    C11211270   2.842   0.356   3.663
    1PA    H12R11271   2.921   0.400   3.725
    1PA    H12S11272   2.893   0.265   3.631
    1PA    C11111273   2.814   0.448   3.544
    1PA    H11R11274   2.780   0.542   3.587
    1PA    H11S11275   2.904   0.461   3.484
    1PA    C11011276   2.702   0.402   3.449
    1PA    H10R11277   2.608   0.403   3.505
    1PA    H10S11278   2.694   0.483   3.376
    1PA     C1911279   2.717   0.270   3.372
    1PA     H9R11280   2.762   0.202   3.444
    1PA     H9S11281   2.619   0.233   3.342
    1PA     C1811282   2.814   0.269   3.254
    1PA     H8R11283   2.907   0.322   3.274
    1PA     H8S11284   2.858   0.170   3.235
    1PA     C1711285   2.754   0.321   3.123
    1PA     H7R11286   2.659   0.271   3.105
    1PA     H7S11287   2.729   0.426   3.137
    1PA     C1611288   2.846   0.304   3.001
    1PA     H6R11289   2.948   0.342   3.010
    1PA     H6S11290   2.851   0.197   2.978
    1PA     C1511291   2.778   0.352   2.872
    1PA     H5R11292   2.690   0.288   2.855
    1PA     H5S11293   2.754   0.458   2.879
    1PA     C1411294   2.855   0.325   2.741
    1PA     H4R11295   2.895   0.224   2.735
    1PA     H4S11296   2.778   0.343   2.665
    1PA     C1311297   2.968   0.427   2.722
    1PA     H3R11298   2.929   0.527   2.738
    1PA     H3S11299   3.038   0.417   2.804
    1PA     C1211300   3.049   0.422   2.591
    1PA     H2R11301   3.128   0.495   2.608
    1PA     H2S11302   3.093   0.322   2.581
    2PC     C1111303   2.972   0.464   2.469
    2PC     O1211304   2.855   0.448   2.440
    2PC     O1111305   3.060   0.532   2.393
    2PC      C111306   3.017   0.581   2.264
    2PC      HR11307   3.105   0.604   2.204
    2PC      HS11308   2.948   0.512   2.214
    2PC      C211309   2.951   0.716   2.297
    2PC      HX11310   2.883   0.701   2.381
    2PC      C311311   2.867   0.775   2.183
    2PC      HA11312   2.770   0.726   2.172
    2PC      HB11313   2.859   0.883   2.194
    2PC     O3111314   2.939   0.755   2.060
    2PC     P3111315   2.868   0.814   1.930
    2PC     O3211316   2.746   0.713   1.908
    2PC     C3111317   2.695   0.704   1.774
    2PC     H1A11318   2.773   0.704   1.696
    2PC     H1B11319   2.640   0.609   1.770
    2PC     C3211320   2.595   0.819   1.757
    2PC     H2A11321   2.508   0.783   1.812
    2PC     H2B11322   2.643   0.910   1.792
    2PC     N3111323   2.540   0.848   1.621
    2PC     C3311324   2.462   0.725   1.587
    2PC     H3A11325   2.411   0.728   1.490
    2PC     H3B11326   2.524   0.635   1.594
    2PC     H3C11327   2.379   0.711   1.656
    2PC     C3411328   2.454   0.970   1.636
    2PC     H4A11329   2.373   0.929   1.696
    2PC     H4B11330   2.504   1.050   1.691
    2PC     H4C11331   2.429   1.006   1.536
    2PC     C3511332   2.649   0.873   1.521
    2PC     H5A11333   2.607   0.907   1.426
    2PC     H5B11334   2.710   0.784   1.506
    2PC     H5C11335   2.708   0.957   1.557
    2PC     O3311336   2.820   0.954   1.942
    2PC     O3411337   2.957   0.800   1.813
    2PC     O2111338   3.043   0.822   2.331
    2PC     C2111339   3.061   0.856   2.459
    2PC     O2211340   2.983   0.821   2.544
    3OL     C1211341   3.181   0.944   2.487
    3OL     H2R11342   3.158   1.026   2.555
    3OL     H2S11343   3.198   0.988   2.389
    3OL     C1311344   3.303   0.860   2.529
    3OL     H3R11345   3.390   0.925   2.540
    3OL     H3S11346   3.334   0.791   2.450
    3OL     C1411347   3.286   0.772   2.653
    3OL     H4R11348   3.369   0.700   2.654
    3OL     H4S11349   3.191   0.720   2.639
    3OL     C1511350   3.298   0.861   2.778
    3OL     H5R11351   3.228   0.943   2.759
    3OL     H5S11352   3.398   0.905   2.784
    3OL     C1611353   3.253   0.788   2.905
    3OL     H6R11354   3.288   0.848   2.990
    3OL     H6S11355   3.296   0.688   2.902
    3OL     C1711356   3.100   0.785   2.922
    3OL     H7R11357   3.070   0.740   2.827
    3OL     H7S11358   3.054   0.884   2.922
    3OL     C1811359   3.061   0.711   3.051
    3OL     H8R11360   3.090   0.768   3.139
    3OL     H8S11361   3.119   0.619   3.046
    3OL     C1911362   2.918   0.662   3.053
    3OL     H9R11363   2.903   0.573   2.992
    3OL    C11011364   2.828   0.689   3.147
    3OL    H10R11365   2.732   0.639   3.152
    3OL    C11111366   2.822   0.807   3.240
    3OL    H11R11367   2.728   0.863   3.229
    3OL    H11S11368   2.907   0.874   3.229
    3OL    C11211369   2.827   0.747   3.381
    3OL    H12R11370   2.917   0.689   3.401
    3OL    H12S11371   2.739   0.688   3.407
    3OL    C11311372   2.823   0.865   3.479
    3OL    H13R11373   2.724   0.910   3.483
    3OL    H13S11374   2.900   0.937   3.455
    3OL    C11411375   2.852   0.812   3.620
    3OL    H14R11376   2.937   0.744   3.610
    3OL    H14S11377   2.769   0.755   3.662
    3OL    C11511378   2.870   0.918   3.729
    3OL    H15R11379   2.785   0.986   3.739
    3OL    H15S11380   2.953   0.987   3.712
    3OL    C11611381   2.874   0.848   3.866
    3OL    H16R11382   2.941   0.762   3.858
    3OL    H16S11383   2.778   0.801   3.885
    3OL    C11711384   2.928   0.923   3.989
    3OL    H17R11385   2.863   1.005   4.019
    3OL    H17S11386   3.030   0.960   3.974
    3OL    C11811387   2.935   0.833   4.114
    3OL    H18R11388   2.833   0.796   4.119
    3OL    H18S11389   2.960   0.885   4.206
    3OL    H18T11390   2.999   0.746   4.098
    1PA    C11611391   3.198   2.217   4.174
    1PA    H16R11392   3.227   2.118   4.140
    1PA    H16S11393   3.093   2.227   4.146
    1PA    H16T11394   3.206   2.227   4.283
    1PA    C11511395   3.265   2.331   4.096
    1PA    H15R11396   3.203   2.413   4.132
    1PA    H15S11397   3.371   2.349   4.115
    1PA    C11411398   3.252   2.305   3.945
    1PA    H14R11399   3.318   2.219   3.931
    1PA    H14S11400   3.148   2.277   3.924
    1PA    C11311401   3.272   2.438   3.871
    1PA    H13R11402   3.264   2.525   3.937
    1PA    H13S11403   3.367   2.443   3.817
    1PA    C11211404   3.164   2.457   3.763
    1PA    H12R11405   3.155   2.385   3.682
    1PA    H12S11406   3.071   2.455   3.820
    1PA    C11111407   3.178   2.596   3.700
    1PA    H11R11408   3.163   2.682   3.766
    1PA    H11S11409   3.276   2.604   3.653
    1PA    C11011410   3.070   2.605   3.591
    1PA    H10R11411   3.049   2.513   3.537
    1PA    H10S11412   2.974   2.627   3.637
    1PA     C1911413   3.106   2.712   3.486
    1PA     H9R11414   3.128   2.812   3.521
    1PA     H9S11415   3.198   2.686   3.434
    1PA     C1811416   2.993   2.746   3.387
    1PA     H8R11417   2.911   2.798   3.437
    1PA     H8S11418   3.024   2.826   3.319
    1PA     C1711419   2.949   2.623   3.306
    1PA     H7R11420   3.042   2.573   3.280
    1PA     H7S11421   2.889   2.565   3.376
    1PA     C1611422   2.873   2.658   3.178
    1PA     H6R11423   2.827   2.569   3.134
    1PA     H6S11424   2.790   2.723   3.207
    1PA     C1511425   2.964   2.712   3.067
    1PA     H5R11426   2.910   2.794   3.020
    1PA     H5S11427   3.046   2.765   3.116
    1PA     C1411428   3.015   2.610   2.965
    1PA     H4R11429   3.107   2.564   3.003
    1PA     H4S11430   2.940   2.533   2.945
    1PA     C1311431   3.049   2.677   2.831
    1PA     H3R11432   2.959   2.718   2.783
    1PA     H3S11433   3.113   2.764   2.844
    1PA     C1211434   3.106   2.571   2.736
    1PA     H2R11435   3.185   2.515   2.786
    1PA     H2S11436   3.027   2.502   2.705
    2PC     C1111437   3.160   2.639   2.612
    2PC     O1211438   3.270   2.606   2.572
    2PC     O1111439   3.082   2.736   2.562
    2PC      C111440   3.126   2.800   2.441
    2PC      HR11441   3.223   2.843   2.465
    2PC      HS11442   3.142   2.718   2.370
    2PC      C211443   3.013   2.895   2.399
    2PC      HX11444   2.921   2.837   2.398
    2PC      C311445   3.040   2.950   2.258
    2PC      HA11446   3.037   2.876   2.177
    2PC      HB11447   2.973   3.034   2.239
    2PC     O3111448   3.171   3.007   2.245
    2PC     P3111449   3.232   3.040   2.101
    2PC     O3211450   3.340   2.923   2.082
    2PC     C3111451   3.440   2.909   2.185
    2PC     H1A11452   3.494   3.004   2.190
    2PC     H1B11453   3.395   2.898   2.284
    2PC     C3211454   3.547   2.804   2.153
    2PC     H2A11455   3.585   2.814   2.051
    2PC     H2B11456   3.632   2.823   2.218
    2PC     N3111457   3.508   2.659   2.159
    2PC     C3311458   3.458   2.621   2.295
    2PC     H3A11459   3.358   2.659   2.316
    2PC     H3B11460   3.446   2.513   2.298
    2PC     H3C11461   3.535   2.647   2.367
    2PC     C3411462   3.403   2.619   2.059
    2PC     H4A11463   3.371   2.517   2.081
    2PC     H4B11464   3.323   2.692   2.074
    2PC     H4C11465   3.448   2.631   1.961
    2PC     C3511466   3.634   2.582   2.134
    2PC     H5A11467   3.693   2.586   2.225
    2PC     H5B11468   3.682   2.650   2.063
    2PC     H5C11469   3.623   2.484   2.088
    2PC     O3311470   3.134   3.022   1.992
    2PC     O3411471   3.299   3.172   2.107
    2PC     O2111472   3.021   3.003   2.494
    2PC     C2111473   2.919   3.088   2.516
    2PC     O2211474   2.800   3.078   2.495
    3OL     C1211475   2.972   3.205   2.594
    3OL     H2R11476   3.037   3.180   2.678
    3OL     H2S11477   2.891   3.261   2.641
    3OL     C1311478   3.048   3.303   2.503
    3OL     H3R11479   2.977   3.364   2.448
    3OL     H3S11480   3.103   3.252   2.424
    3OL     C1411481   3.140   3.404   2.572
    3OL     H4R11482   3.200   3.456   2.497
    3OL     H4S11483   3.215   3.356   2.636
    3OL     C1511484   3.064   3.504   2.661
    3OL     H5R11485   3.021   3.447   2.744
    3OL     H5S11486   2.981   3.550   2.608
    3OL     C1611487   3.164   3.610   2.710
    3OL     H6R11488   3.256   3.559   2.742
    3OL     H6S11489   3.132   3.653   2.805
    3OL     C1711490   3.216   3.720   2.617
    3OL     H7R11491   3.132   3.766   2.564
    3OL     H7S11492   3.279   3.675   2.541
    3OL     C1811493   3.294   3.830   2.690
    3OL     H8R11494   3.244   3.855   2.784
    3OL     H8S11495   3.292   3.923   2.633
    3OL     C1911496   3.433   3.781   2.723
    3OL     H9R11497   3.432   3.674   2.742
    3OL    C11011498   3.549   3.843   2.705
    3OL    H10R11499   3.638   3.782   2.717
    3OL    C11111500   3.573   3.988   2.672
    3OL    H11R11501   3.484   4.051   2.680
    3OL    H11S11502   3.602   3.999   2.568
    3OL    C11211503   3.681   4.063   2.750
    3OL    H12R11504   3.677   4.170   2.725
    3OL    H12S11505   3.782   4.038   2.716
    3OL    C11311506   3.680   4.050   2.903
    3OL    H13R11507   3.759   4.114   2.943
    3OL    H13S11508   3.706   3.948   2.930
    3OL    C11411509   3.546   4.091   2.967
    3OL    H14R11510   3.470   4.019   2.936
    3OL    H14S11511   3.527   4.191   2.927
    3OL    C11511512   3.554   4.090   3.120
    3OL    H15R11513   3.631   4.158   3.156
    3OL    H15S11514   3.583   3.994   3.162
    3OL    C11611515   3.424   4.145   3.181
    3OL    H16R11516   3.342   4.101   3.125
    3OL    H16S11517   3.435   4.252   3.160
    3OL    C11711518   3.416   4.116   3.332
    3OL    H17R11519   3.413   4.007   3.340
    3OL    H17S11520   3.328   4.165   3.374
    3OL    C11811521   3.540   4.164   3.408
    3OL    H18R11522   3.633   4.113   3.382
    3OL    H18S11523   3.530   4.148   3.516
    3OL    H18T11524   3.563   4.269   3.387
    1PA    C11611525   4.397   1.823   4.131
    1PA    H16R11526   4.320   1.899   4.115
    1PA    H16S11527   4.476   1.877   4.184
    1PA    H16T11528   4.356   1.750   4.200
    1PA    C11511529   4.441   1.757   4.000
    1PA    H15R11530   4.530   1.812   3.971
    1PA    H15S11531   4.457   1.651   4.019
    1PA    C11411532   4.330   1.769   3.895
    1PA    H14R11533   4.251   1.703   3.932
    1PA    H14S11534   4.282   1.867   3.891
    1PA    C11311535   4.368   1.727   3.752
    1PA    H13R11536   4.385   1.619   3.747
    1PA    H13S11537   4.280   1.748   3.691
    1PA    C11211538   4.489   1.803   3.698
    1PA    H12R11539   4.483   1.912   3.709
    1PA    H12S11540   4.572   1.763   3.757
    1PA    C11111541   4.517   1.774   3.550
    1PA    H11R11542   4.430   1.798   3.488
    1PA    H11S11543   4.596   1.841   3.515
    1PA    C11011544   4.562   1.629   3.531
    1PA    H10R11545   4.642   1.614   3.603
    1PA    H10S11546   4.480   1.558   3.543
    1PA     C1911547   4.614   1.608   3.388
    1PA     H9R11548   4.547   1.640   3.308
    1PA     H9S11549   4.700   1.672   3.365
    1PA     C1811550   4.662   1.463   3.375
    1PA     H8R11551   4.749   1.441   3.437
    1PA     H8S11552   4.578   1.400   3.407
    1PA     C1711553   4.696   1.437   3.228
    1PA     H7R11554   4.756   1.517   3.185
    1PA     H7S11555   4.769   1.357   3.224
    1PA     C1611556   4.576   1.408   3.136
    1PA     H6R11557   4.507   1.337   3.181
    1PA     H6S11558   4.498   1.484   3.130
    1PA     C1511559   4.607   1.371   2.990
    1PA     H5R11560   4.534   1.384   2.911
    1PA     H5S11561   4.688   1.436   2.957
    1PA     C1411562   4.676   1.235   2.975
    1PA     H4R11563   4.777   1.259   3.011
    1PA     H4S11564   4.632   1.162   3.044
    1PA     C1311565   4.692   1.185   2.831
    1PA     H3R11566   4.674   1.262   2.755
    1PA     H3S11567   4.795   1.149   2.826
    1PA     C1211568   4.602   1.065   2.794
    1PA     H2R11569   4.633   0.977   2.851
    1PA     H2S11570   4.496   1.085   2.809
    2PC     C1111571   4.629   1.037   2.648
    2PC     O1211572   4.569   1.103   2.565
    2PC     O1111573   4.706   0.932   2.615
    2PC      C111574   4.727   0.895   2.478
    2PC      HR11575   4.635   0.887   2.420
    2PC      HS11576   4.787   0.971   2.427
    2PC      C211577   4.799   0.759   2.472
    2PC      HX11578   4.877   0.759   2.548
    2PC      C311579   4.852   0.748   2.329
    2PC      HA11580   4.940   0.811   2.315
    2PC      HB11581   4.894   0.648   2.311
    2PC     O3111582   4.748   0.767   2.231
    2PC     P3111583   4.769   0.727   2.077
    2PC     O3211584   4.645   0.803   2.010
    2PC     C3111585   4.631   0.779   1.869
    2PC     H1A11586   4.710   0.832   1.816
    2PC     H1B11587   4.647   0.673   1.847
    2PC     C3211588   4.494   0.829   1.819
    2PC     H2A11589   4.414   0.790   1.881
    2PC     H2B11590   4.488   0.937   1.829
    2PC     N3111591   4.448   0.793   1.681
    2PC     C3311592   4.551   0.826   1.576
    2PC     H3A11593   4.602   0.919   1.602
    2PC     H3B11594   4.624   0.746   1.574
    2PC     H3C11595   4.523   0.846   1.472
    2PC     C3411596   4.402   0.652   1.663
    2PC     H4A11597   4.337   0.627   1.747
    2PC     H4B11598   4.357   0.640   1.564
    2PC     H4C11599   4.486   0.583   1.675
    2PC     C3511600   4.330   0.883   1.664
    2PC     H5A11601   4.256   0.837   1.731
    2PC     H5B11602   4.304   0.903   1.560
    2PC     H5C11603   4.356   0.982   1.702
    2PC     O3311604   4.891   0.783   2.014
    2PC     O3411605   4.776   0.581   2.056
    2PC     O2111606   4.708   0.653   2.507
    2PC     C2111607   4.749   0.534   2.555
    2PC     O2211608   4.867   0.506   2.549
    3OL     C1211609   4.646   0.442   2.614
    3OL     H2R11610   4.699   0.363   2.668
    3OL     H2S11611   4.589   0.390   2.536
    3OL     C1311612   4.563   0.522   2.715
    3OL     H3R11613   4.526   0.609   2.661
    3OL     H3S11614   4.636   0.564   2.786
    3OL     C1411615   4.472   0.430   2.797
    3OL     H4R11616   4.535   0.342   2.812
    3OL     H4S11617   4.382   0.402   2.742
    3OL     C1511618   4.440   0.485   2.937
    3OL     H5R11619   4.526   0.533   2.984
    3OL     H5S11620   4.419   0.397   2.998
    3OL     C1611621   4.324   0.585   2.925
    3OL     H6R11622   4.239   0.535   2.880
    3OL     H6S11623   4.354   0.667   2.858
    3OL     C1711624   4.286   0.625   3.068
    3OL     H7R11625   4.374   0.668   3.115
    3OL     H7S11626   4.256   0.536   3.124
    3OL     C1811627   4.160   0.711   3.063
    3OL     H8R11628   4.084   0.656   3.007
    3OL     H8S11629   4.174   0.802   3.004
    3OL     C1911630   4.103   0.739   3.200
    3OL     H9R11631   4.131   0.672   3.280
    3OL    C11011632   4.034   0.846   3.236
    3OL    H10R11633   3.993   0.845   3.337
    3OL    C11111634   3.981   0.959   3.151
    3OL    H11R11635   3.891   0.995   3.201
    3OL    H11S11636   3.942   0.911   3.062
    3OL    C11211637   4.080   1.072   3.117
    3OL    H12R11638   4.026   1.140   3.051
    3OL    H12S11639   4.159   1.037   3.050
    3OL    C11311640   4.114   1.147   3.246
    3OL    H13R11641   4.183   1.087   3.305
    3OL    H13S11642   4.031   1.163   3.315
    3OL    C11411643   4.186   1.280   3.220
    3OL    H14R11644   4.124   1.335   3.150
    3OL    H14S11645   4.265   1.269   3.146
    3OL    C11511646   4.232   1.362   3.341
    3OL    H15R11647   4.288   1.449   3.305
    3OL    H15S11648   4.315   1.322   3.400
    3OL    C11611649   4.113   1.412   3.424
    3OL    H16R11650   4.065   1.332   3.481
    3OL    H16S11651   4.048   1.460   3.351
    3OL    C11711652   4.152   1.530   3.514
    3OL    H17R11653   4.193   1.608   3.448
    3OL    H17S11654   4.231   1.500   3.583
    3OL    C11811655   4.025   1.567   3.591
    3OL    H18R11656   4.052   1.643   3.665
    3OL    H18S11657   3.980   1.476   3.632
    3OL    H18T11658   3.951   1.615   3.526
    1PA    C11611659   5.993   3.518   3.990
    1PA    H16R11660   6.041   3.554   3.899
    1PA    H16S11661   6.058   3.524   4.077
    1PA    H16T11662   5.902   3.575   4.011
    1PA    C11511663   5.937   3.378   3.961
    1PA    H15R11664   6.017   3.307   3.939
    1PA    H15S11665   5.887   3.337   4.048
    1PA    C11411666   5.828   3.383   3.853
    1PA    H14R11667   5.747   3.445   3.892
    1PA    H14S11668   5.869   3.423   3.760
    1PA    C11311669   5.775   3.244   3.814
    1PA    H13R11670   5.862   3.179   3.822
    1PA    H13S11671   5.703   3.219   3.892
    1PA    C11211672   5.714   3.240   3.673
    1PA    H12R11673   5.625   3.304   3.669
    1PA    H12S11674   5.797   3.277   3.612
    1PA    C11111675   5.679   3.100   3.621
    1PA    H11R11676   5.763   3.032   3.605
    1PA    H11S11677   5.610   3.045   3.685
    1PA    C11011678   5.610   3.096   3.484
    1PA    H10R11679   5.521   3.159   3.486
    1PA    H10S11680   5.678   3.133   3.407
    1PA     C1911681   5.556   2.961   3.437
    1PA     H9R11682   5.647   2.902   3.424
    1PA     H9S11683   5.502   2.908   3.516
    1PA     C1811684   5.472   2.963   3.308
    1PA     H8R11685   5.367   2.973   3.335
    1PA     H8S11686   5.506   3.035   3.233
    1PA     C1711687   5.481   2.826   3.241
    1PA     H7R11688   5.582   2.805   3.205
    1PA     H7S11689   5.453   2.759   3.322
    1PA     C1611690   5.380   2.831   3.125
    1PA     H6R11691   5.278   2.854   3.155
    1PA     H6S11692   5.410   2.912   3.058
    1PA     C1511693   5.377   2.694   3.057
    1PA     H5R11694   5.475   2.663   3.022
    1PA     H5S11695   5.332   2.622   3.126
    1PA     C1411696   5.294   2.706   2.928
    1PA     H4R11697   5.199   2.755   2.950
    1PA     H4S11698   5.348   2.767   2.856
    1PA     C1311699   5.290   2.566   2.865
    1PA     H3R11700   5.389   2.548   2.825
    1PA     H3S11701   5.256   2.487   2.933
    1PA     C1211702   5.193   2.555   2.747
    1PA     H2R11703   5.188   2.449   2.719
    1PA     H2S11704   5.100   2.591   2.792
    2PC     C1111705   5.224   2.639   2.626
    2PC     O1211706   5.325   2.614   2.564
    2PC     O1111707   5.130   2.732   2.599
    2PC      C111708   5.159   2.805   2.478
    2PC      HR11709   5.245   2.871   2.490
    2PC      HS11710   5.166   2.733   2.395
    2PC      C211711   5.036   2.887   2.435
    2PC      HX11712   4.958   2.825   2.390
    2PC      C311713   5.067   2.995   2.330
    2PC      HA11714   5.063   2.945   2.233
    2PC      HB11715   4.987   3.068   2.336
    2PC     O3111716   5.200   3.049   2.348
    2PC     P3111717   5.247   3.168   2.252
    2PC     O3211718   5.402   3.128   2.254
    2PC     C3111719   5.479   3.207   2.162
    2PC     H1A11720   5.452   3.171   2.062
    2PC     H1B11721   5.468   3.315   2.168
    2PC     C3211722   5.626   3.173   2.188
    2PC     H2A11723   5.653   3.208   2.287
    2PC     H2B11724   5.631   3.064   2.186
    2PC     N3111725   5.724   3.219   2.083
    2PC     C3311726   5.861   3.183   2.130
    2PC     H3A11727   5.889   3.234   2.222
    2PC     H3B11728   5.879   3.075   2.134
    2PC     H3C11729   5.928   3.214   2.050
    2PC     C3411730   5.701   3.153   1.951
    2PC     H4A11731   5.732   3.049   1.957
    2PC     H4B11732   5.596   3.149   1.919
    2PC     H4C11733   5.767   3.204   1.880
    2PC     C3511734   5.716   3.369   2.079
    2PC     H5A11735   5.786   3.414   2.009
    2PC     H5B11736   5.744   3.401   2.180
    2PC     H5C11737   5.614   3.402   2.060
    2PC     O3311738   5.203   3.150   2.111
    2PC     O3411739   5.211   3.306   2.292
    2PC     O2111740   4.983   2.965   2.544
    2PC     C2111741   4.875   2.917   2.608
    2PC     O2211742   4.801   2.829   2.569
    3OL     C1211743   4.850   3.007   2.726
    3OL     H2R11744   4.772   3.080   2.703
    3OL     H2S11745   4.937   3.069   2.749
    3OL     C1311746   4.802   2.936   2.853
    3OL     H3R11747   4.722   2.868   2.822
    3OL     H3S11748   4.755   3.002   2.926
    3OL     C1411749   4.917   2.850   2.907
    3OL     H4R11750   4.994   2.915   2.948
    3OL     H4S11751   4.976   2.790   2.837
    3OL     C1511752   4.883   2.762   3.028
    3OL     H5R11753   4.838   2.824   3.106
    3OL     H5S11754   4.977   2.722   3.065
    3OL     C1611755   4.781   2.652   2.996
    3OL     H6R11756   4.809   2.593   2.908
    3OL     H6S11757   4.686   2.700   2.971
    3OL     C1711758   4.784   2.556   3.115
    3OL     H7R11759   4.888   2.540   3.144
    3OL     H7S11760   4.750   2.454   3.092
    3OL     C1811761   4.699   2.604   3.232
    3OL     H8R11762   4.595   2.627   3.209
    3OL     H8S11763   4.732   2.701   3.272
    3OL     C1911764   4.704   2.503   3.344
    3OL     H9R11765   4.754   2.408   3.324
    3OL    C11011766   4.651   2.519   3.464
    3OL    H10R11767   4.662   2.440   3.538
    3OL    C11111768   4.554   2.627   3.505
    3OL    H11R11769   4.471   2.651   3.438
    3OL    H11S11770   4.609   2.717   3.534
    3OL    C11211771   4.486   2.600   3.640
    3OL    H12R11772   4.559   2.598   3.721
    3OL    H12S11773   4.440   2.502   3.644
    3OL    C11311774   4.375   2.702   3.671
    3OL    H13R11775   4.301   2.705   3.591
    3OL    H13S11776   4.409   2.805   3.671
    3OL    C11411777   4.312   2.678   3.809
    3OL    H14R11778   4.393   2.675   3.882
    3OL    H14S11779   4.254   2.585   3.815
    3OL    C11511780   4.225   2.799   3.848
    3OL    H15R11781   4.134   2.798   3.788
    3OL    H15S11782   4.276   2.895   3.840
    3OL    C11611783   4.177   2.778   3.992
    3OL    H16R11784   4.263   2.797   4.058
    3OL    H16S11785   4.147   2.676   4.016
    3OL    C11711786   4.052   2.861   4.025
    3OL    H17R11787   4.003   2.814   4.110
    3OL    H17S11788   3.979   2.857   3.944
    3OL    C11811789   4.090   3.007   4.053
    3OL    H18R11790   4.167   3.015   4.129
    3OL    H18S11791   4.000   3.055   4.091
    3OL    H18T11792   4.111   3.063   3.961
    1PA    C11611793   4.847   3.031   3.319
    1PA    H16R11794   4.868   2.943   3.381
    1PA    H16S11795   4.766   3.007   3.250
    1PA    H16T11796   4.817   3.110   3.389
    1PA    C11511797   4.967   3.075   3.234
    1PA    H15R11798   5.056   3.104   3.290
    1PA    H15S11799   4.993   2.984   3.179
    1PA    C11411800   4.923   3.175   3.127
    1PA    H14R11801   5.007   3.191   3.059
    1PA    H14S11802   4.840   3.133   3.071
    1PA    C11311803   4.882   3.309   3.191
    1PA    H13R11804   4.790   3.286   3.245
    1PA    H13S11805   4.961   3.337   3.260
    1PA    C11211806   4.868   3.427   3.093
    1PA    H12R11807   4.968   3.466   3.078
    1PA    H12S11808   4.832   3.388   2.998
    1PA    C11111809   4.778   3.535   3.155
    1PA    H11R11810   4.689   3.490   3.200
    1PA    H11S11811   4.831   3.562   3.246
    1PA    C11011812   4.743   3.645   3.053
    1PA    H10R11813   4.829   3.681   2.996
    1PA    H10S11814   4.683   3.604   2.971
    1PA     C1911815   4.671   3.758   3.126
    1PA     H9R11816   4.569   3.729   3.153
    1PA     H9S11817   4.718   3.779   3.222
    1PA     C1811818   4.658   3.887   3.044
    1PA     H8R11819   4.600   3.951   3.111
    1PA     H8S11820   4.758   3.931   3.033
    1PA     C1711821   4.580   3.869   2.914
    1PA     H7R11822   4.537   3.770   2.899
    1PA     H7S11823   4.507   3.949   2.913
    1PA     C1611824   4.671   3.877   2.790
    1PA     H6R11825   4.721   3.974   2.796
    1PA     H6S11826   4.744   3.797   2.809
    1PA     C1511827   4.598   3.840   2.661
    1PA     H5R11828   4.667   3.831   2.577
    1PA     H5S11829   4.561   3.737   2.670
    1PA     C1411830   4.479   3.933   2.631
    1PA     H4R11831   4.406   3.931   2.711
    1PA     H4S11832   4.511   4.037   2.623
    1PA     C1311833   4.414   3.891   2.499
    1PA     H3R11834   4.479   3.922   2.416
    1PA     H3S11835   4.398   3.783   2.486
    1PA     C1211836   4.280   3.962   2.474
    1PA     H2R11837   4.203   3.924   2.542
    1PA     H2S11838   4.293   4.070   2.483
    2PC     C1111839   4.221   3.936   2.338
    2PC     O1211840   4.270   3.884   2.240
    2PC     O1111841   4.097   3.988   2.337
    2PC      C111842   4.028   3.988   2.211
    2PC      HR11843   4.081   4.045   2.135
    2PC      HS11844   4.004   3.889   2.170
    2PC      C211845   3.883   4.035   2.232
    2PC      HX11846   3.831   3.965   2.298
    2PC      C311847   3.799   4.045   2.104
    2PC      HA11848   3.854   4.111   2.037
    2PC      HB11849   3.774   3.946   2.065
    2PC     O3111850   3.673   4.108   2.137
    2PC     P3111851   3.574   4.186   2.039
    2PC     O3211852   3.585   4.344   2.060
    2PC     C3111853   3.468   4.418   2.099
    2PC     H1A11854   3.387   4.407   2.026
    2PC     H1B11855   3.446   4.383   2.200
    2PC     C3211856   3.521   4.562   2.108
    2PC     H2A11857   3.454   4.627   2.164
    2PC     H2B11858   3.617   4.566   2.159
    2PC     N3111859   3.541   4.641   1.982
    2PC     C3311860   3.430   4.633   1.882
    2PC     H3A11861   3.340   4.670   1.932
    2PC     H3B11862   3.463   4.704   1.806
    2PC     H3C11863   3.421   4.527   1.855
    2PC     C3411864   3.562   4.786   2.013
    2PC     H4A11865   3.471   4.844   2.024
    2PC     H4B11866   3.624   4.799   2.103
    2PC     H4C11867   3.609   4.836   1.929
    2PC     C3511868   3.672   4.609   1.919
    2PC     H5A11869   3.709   4.693   1.859
    2PC     H5B11870   3.666   4.516   1.861
    2PC     H5C11871   3.738   4.600   2.005
    2PC     O3311872   3.591   4.146   1.897
    2PC     O3411873   3.442   4.134   2.081
    2PC     O2111874   3.905   4.170   2.278
    2PC     C2111875   3.828   4.222   2.374
    2PC     O2211876   3.731   4.162   2.417
    3OL     C1211877   3.878   4.356   2.422
    3OL     H2R11878   3.804   4.411   2.481
    3OL     H2S11879   3.897   4.421   2.336
    3OL     C1311880   4.006   4.337   2.504
    3OL     H3R11881   4.033   4.429   2.556
    3OL     H3S11882   4.081   4.311   2.429
    3OL     C1411883   3.991   4.226   2.610
    3OL     H4R11884   3.971   4.131   2.559
    3OL     H4S11885   3.901   4.245   2.669
    3OL     C1511886   4.113   4.216   2.703
    3OL     H5R11887   4.146   4.311   2.745
    3OL     H5S11888   4.200   4.183   2.645
    3OL     C1611889   4.079   4.109   2.807
    3OL     H6R11890   4.038   4.020   2.759
    3OL     H6S11891   4.002   4.161   2.865
    3OL     C1711892   4.198   4.083   2.900
    3OL     H7R11893   4.238   4.171   2.951
    3OL     H7S11894   4.281   4.028   2.855
    3OL     C1811895   4.146   3.999   3.018
    3OL     H8R11896   4.095   3.911   2.977
    3OL     H8S11897   4.069   4.053   3.073
    3OL     C1911898   4.258   3.934   3.094
    3OL     H9R11899   4.352   3.931   3.039
    3OL    C11011900   4.253   3.899   3.222
    3OL    H10R11901   4.342   3.856   3.265
    3OL    C11111902   4.136   3.913   3.316
    3OL    H11R11903   4.167   3.871   3.412
    3OL    H11S11904   4.054   3.847   3.287
    3OL    C11211905   4.092   4.057   3.343
    3OL    H12R11906   4.053   4.125   3.266
    3OL    H12S11907   4.177   4.117   3.377
    3OL    C11311908   3.973   4.056   3.440
    3OL    H13R11909   3.892   3.997   3.398
    3OL    H13S11910   3.939   4.160   3.447
    3OL    C11411911   4.007   4.008   3.582
    3OL    H14R11912   4.104   4.052   3.607
    3OL    H14S11913   4.000   3.900   3.592
    3OL    C11511914   3.919   4.073   3.691
    3OL    H15R11915   3.919   4.178   3.661
    3OL    H15S11916   3.959   4.057   3.791
    3OL    C11611917   3.770   4.036   3.685
    3OL    H16R11918   3.756   3.938   3.731
    3OL    H16S11919   3.744   4.018   3.580
    3OL    C11711920   3.676   4.138   3.750
    3OL    H17R11921   3.574   4.108   3.722
    3OL    H17S11922   3.704   4.236   3.712
    3OL    C11811923   3.690   4.135   3.903
    3OL    H18R11924   3.633   4.052   3.944
    3OL    H18S11925   3.649   4.231   3.937
    3OL    H18T11926   3.797   4.132   3.923
    1PA    C11611927   2.850   4.167   3.991
    1PA    H16R11928   2.846   4.255   3.926
    1PA    H16S11929   2.951   4.130   4.005
    1PA    H16T11930   2.816   4.201   4.089
    1PA    C11511931   2.765   4.055   3.929
    1PA    H15R11932   2.794   4.015   3.832
    1PA    H15S11933   2.771   3.963   3.986
    1PA    C11411934   2.619   4.102   3.915
    1PA    H14R11935   2.572   4.121   4.012
    1PA    H14S11936   2.611   4.199   3.867
    1PA    C11311937   2.544   3.999   3.829
    1PA    H13R11938   2.571   3.898   3.859
    1PA    H13S11939   2.436   3.999   3.845
    1PA    C11211940   2.576   4.007   3.679
    1PA    H12R11941   2.578   4.111   3.648
    1PA    H12S11942   2.672   3.957   3.669
    1PA    C11111943   2.480   3.920   3.596
    1PA    H11R11944   2.493   3.814   3.620
    1PA    H11S11945   2.377   3.947   3.621
    1PA    C11011946   2.519   3.906   3.448
    1PA    H10R11947   2.540   4.006   3.410
    1PA    H10S11948   2.608   3.844   3.439
    1PA     C1911949   2.416   3.832   3.361
    1PA     H9R11950   2.399   3.730   3.395
    1PA     H9S11951   2.321   3.885   3.372
    1PA     C1811952   2.450   3.841   3.211
    1PA     H8R11953   2.469   3.940   3.169
    1PA     H8S11954   2.544   3.789   3.193
    1PA     C1711955   2.330   3.784   3.134
    1PA     H7R11956   2.315   3.679   3.156
    1PA     H7S11957   2.243   3.850   3.144
    1PA     C1611958   2.351   3.777   2.982
    1PA     H6R11959   2.385   3.869   2.934
    1PA     H6S11960   2.430   3.704   2.969
    1PA     C1511961   2.226   3.725   2.909
    1PA     H5R11962   2.206   3.622   2.941
    1PA     H5S11963   2.138   3.782   2.940
    1PA     C1411964   2.243   3.725   2.757
    1PA     H4R11965   2.225   3.826   2.719
    1PA     H4S11966   2.343   3.696   2.723
    1PA     C1311967   2.150   3.621   2.694
    1PA     H3R11968   2.194   3.524   2.718
    1PA     H3S11969   2.048   3.638   2.729
    1PA     C1211970   2.144   3.643   2.542
    1PA     H2R11971   2.108   3.744   2.519
    1PA     H2S11972   2.240   3.627   2.492
    2PC     C1111973   2.046   3.545   2.483
    2PC     O1211974   1.927   3.569   2.473
    2PC     O1111975   2.102   3.426   2.455
    2PC      C111976   2.025   3.333   2.377
    2PC      HR11977   1.940   3.291   2.432
    2PC      HS11978   1.984   3.378   2.286
    2PC      C211979   2.115   3.218   2.330
    2PC      HX11980   2.219   3.246   2.312
    2PC      C311981   2.048   3.145   2.212
    2PC      HA11982   1.971   3.073   2.240
    2PC      HB11983   2.000   3.219   2.147
    2PC     O3111984   2.146   3.068   2.140
    2PC     P3111985   2.201   3.115   1.997
    2PC     O3211986   2.099   3.062   1.886
    2PC     C3111987   2.105   2.925   1.842
    2PC     H1A11988   2.206   2.888   1.823
    2PC     H1B11989   2.043   2.860   1.904
    2PC     C3211990   2.035   2.914   1.706
    2PC     H2A11991   1.927   2.922   1.705
    2PC     H2B11992   2.072   2.994   1.642
    2PC     N3111993   2.066   2.794   1.620
    2PC     C3311994   1.979   2.798   1.498
    2PC     H3A11995   1.976   2.699   1.453
    2PC     H3B11996   1.875   2.815   1.530
    2PC     H3C11997   2.022   2.874   1.433
    2PC     C3411998   2.213   2.792   1.591
    2PC     H4A11999   2.242   2.896   1.579
    2PC     H4B12000   2.278   2.752   1.669
    2PC     H4C12001   2.227   2.745   1.493
    2PC     C3512002   2.036   2.663   1.685
    2PC     H5A12003   2.067   2.576   1.626
    2PC     H5B12004   1.930   2.669   1.711
    2PC     H5C12005   2.085   2.661   1.783
    2PC     O3312006   2.228   3.261   2.006
    2PC     O3412007   2.333   3.052   1.975
    2PC     O2112008   2.116   3.122   2.437
    2PC     C2112009   2.203   3.020   2.428
    2PC     O2212010   2.287   3.000   2.343
    3OL     C1212011   2.175   2.930   2.546
    3OL     H2R12012   2.113   2.975   2.624
    3OL     H2S12013   2.271   2.896   2.585
    3OL     C1312014   2.098   2.806   2.499
    3OL     H3R12015   2.140   2.779   2.402
    3OL     H3S12016   1.992   2.829   2.481
    3OL     C1412017   2.111   2.688   2.596
    3OL     H4R12018   2.082   2.728   2.693
    3OL     H4S12019   2.205   2.633   2.605
    3OL     C1512020   2.006   2.579   2.572
    3OL     H5R12021   2.021   2.513   2.487
    3OL     H5S12022   1.901   2.609   2.561
    3OL     C1612023   2.012   2.476   2.686
    3OL     H6R12024   2.111   2.474   2.732
    3OL     H6S12025   2.011   2.369   2.663
    3OL     C1712026   1.908   2.503   2.795
    3OL     H7R12027   1.806   2.478   2.765
    3OL     H7S12028   1.920   2.611   2.807
    3OL     C1812029   1.955   2.432   2.923
    3OL     H8R12030   2.063   2.423   2.939
    3OL     H8S12031   1.936   2.328   2.897
    3OL     C1912032   1.874   2.462   3.047
    3OL     H9R12033   1.773   2.498   3.030
    3OL    C11012034   1.916   2.448   3.172
    3OL    H10R12035   1.843   2.476   3.248
    3OL    C11112036   2.044   2.385   3.219
    3OL    H11R12037   2.104   2.343   3.138
    3OL    H11S12038   2.018   2.304   3.288
    3OL    C11212039   2.121   2.490   3.301
    3OL    H12R12040   2.048   2.550   3.356
    3OL    H12S12041   2.166   2.548   3.221
    3OL    C11312042   2.218   2.435   3.406
    3OL    H13R12043   2.257   2.521   3.463
    3OL    H13S12044   2.300   2.379   3.360
    3OL    C11412045   2.151   2.346   3.512
    3OL    H14R12046   2.128   2.250   3.464
    3OL    H14S12047   2.059   2.385   3.554
    3OL    C11512048   2.253   2.316   3.623
    3OL    H15R12049   2.280   2.410   3.671
    3OL    H15S12050   2.349   2.279   3.587
    3OL    C11612051   2.186   2.222   3.724
    3OL    H16R12052   2.165   2.129   3.671
    3OL    H16S12053   2.088   2.259   3.758
    3OL    C11712054   2.276   2.200   3.846
    3OL    H17R12055   2.283   2.295   3.899
    3OL    H17S12056   2.374   2.162   3.817
    3OL    C11812057   2.202   2.110   3.946
    3OL    H18R12058   2.163   2.021   3.896
    3OL    H18S12059   2.117   2.167   3.986
    3OL    H18T12060   2.268   2.070   4.023
    1PA    C11612061   5.220   3.383   3.782
    1PA    H16R12062   5.303   3.335   3.836
    1PA    H16S12063   5.127   3.327   3.794
    1PA    H16T12064   5.210   3.478   3.834
    1PA    C11512065   5.257   3.413   3.636
    1PA    H15R12066   5.333   3.488   3.618
    1PA    H15S12067   5.297   3.322   3.591
    1PA    C11412068   5.135   3.459   3.555
    1PA    H14R12069   5.160   3.464   3.448
    1PA    H14S12070   5.052   3.389   3.566
    1PA    C11312071   5.065   3.587   3.602
    1PA    H13R12072   5.027   3.576   3.704
    1PA    H13S12073   5.120   3.681   3.594
    1PA    C11212074   4.938   3.619   3.521
    1PA    H12R12075   4.896   3.712   3.559
    1PA    H12S12076   4.963   3.649   3.419
    1PA    C11112077   4.830   3.513   3.542
    1PA    H11R12078   4.848   3.432   3.470
    1PA    H11S12079   4.837   3.473   3.643
    1PA    C11012080   4.688   3.564   3.510
    1PA    H10R12081   4.658   3.653   3.567
    1PA    H10S12082   4.685   3.594   3.405
    1PA     C1912083   4.589   3.457   3.557
    1PA     H9R12084   4.604   3.356   3.517
    1PA     H9S12085   4.604   3.457   3.665
    1PA     C1812086   4.444   3.499   3.527
    1PA     H8R12087   4.371   3.440   3.581
    1PA     H8S12088   4.423   3.601   3.562
    1PA     C1712089   4.424   3.476   3.377
    1PA     H7R12090   4.504   3.517   3.314
    1PA     H7S12091   4.432   3.368   3.362
    1PA     C1612092   4.289   3.527   3.325
    1PA     H6R12093   4.211   3.472   3.378
    1PA     H6S12094   4.276   3.634   3.342
    1PA     C1512095   4.277   3.502   3.174
    1PA     H5R12096   4.356   3.555   3.121
    1PA     H5S12097   4.279   3.395   3.152
    1PA     C1412098   4.143   3.554   3.121
    1PA     H4R12099   4.058   3.491   3.150
    1PA     H4S12100   4.116   3.655   3.151
    1PA     C1312101   4.140   3.553   2.967
    1PA     H3R12102   4.224   3.616   2.937
    1PA     H3S12103   4.162   3.456   2.922
    1PA     C1212104   4.008   3.608   2.912
    1PA     H2R12105   3.919   3.552   2.943
    1PA     H2S12106   4.000   3.712   2.945
    2PC     C1112107   4.024   3.607   2.762
    2PC     O1212108   4.129   3.625   2.704
    2PC     O1112109   3.907   3.601   2.697
    2PC      C112110   3.897   3.619   2.555
    2PC      HR12111   3.805   3.668   2.523
    2PC      HS12112   3.982   3.682   2.526
    2PC      C212113   3.912   3.478   2.496
    2PC      HX12114   4.004   3.428   2.527
    2PC      C312115   3.919   3.489   2.343
    2PC      HA12116   4.011   3.544   2.319
    2PC      HB12117   3.933   3.395   2.290
    2PC     O3112118   3.806   3.561   2.291
    2PC     P3112119   3.804   3.611   2.138
    2PC     O3212120   3.699   3.731   2.155
    2PC     C3112121   3.590   3.727   2.062
    2PC     H1A12122   3.620   3.745   1.958
    2PC     H1B12123   3.539   3.632   2.084
    2PC     C3212124   3.497   3.840   2.108
    2PC     H2A12125   3.565   3.925   2.103
    2PC     H2B12126   3.413   3.871   2.046
    2PC     N3112127   3.441   3.817   2.246
    2PC     C3312128   3.535   3.854   2.356
    2PC     H3A12129   3.601   3.767   2.360
    2PC     H3B12130   3.598   3.938   2.325
    2PC     H3C12131   3.490   3.861   2.456
    2PC     C3412132   3.329   3.913   2.272
    2PC     H4A12133   3.238   3.872   2.228
    2PC     H4B12134   3.316   3.925   2.380
    2PC     H4C12135   3.354   4.008   2.225
    2PC     C3512136   3.383   3.681   2.270
    2PC     H5A12137   3.460   3.608   2.246
    2PC     H5B12138   3.310   3.678   2.189
    2PC     H5C12139   3.337   3.676   2.369
    2PC     O3312140   3.935   3.656   2.086
    2PC     O3412141   3.754   3.497   2.058
    2PC     O2112142   3.789   3.411   2.531
    2PC     C2112143   3.756   3.284   2.504
    2PC     O2212144   3.835   3.197   2.471
    3OL     C1212145   3.608   3.268   2.524
    3OL     H2R12146   3.547   3.317   2.447
    3OL     H2S12147   3.586   3.320   2.617
    3OL     C1312148   3.582   3.119   2.547
    3OL     H3R12149   3.652   3.096   2.628
    3OL     H3S12150   3.608   3.062   2.457
    3OL     C1412151   3.433   3.103   2.578
    3OL     H4R12152   3.390   3.094   2.478
    3OL     H4S12153   3.394   3.192   2.627
    3OL     C1512154   3.395   2.974   2.652
    3OL     H5R12155   3.446   2.895   2.597
    3OL     H5S12156   3.288   2.958   2.644
    3OL     C1612157   3.433   2.987   2.800
    3OL     H6R12158   3.358   3.054   2.842
    3OL     H6S12159   3.533   3.029   2.814
    3OL     C1712160   3.431   2.855   2.878
    3OL     H7R12161   3.510   2.792   2.837
    3OL     H7S12162   3.338   2.802   2.858
    3OL     C1812163   3.458   2.881   3.027
    3OL     H8R12164   3.371   2.915   3.084
    3OL     H8S12165   3.520   2.971   3.023
    3OL     C1912166   3.521   2.761   3.093
    3OL     H9R12167   3.571   2.682   3.037
    3OL    C11012168   3.524   2.738   3.223
    3OL    H10R12169   3.567   2.640   3.240
    3OL    C11112170   3.469   2.821   3.337
    3OL    H11R12171   3.361   2.814   3.326
    3OL    H11S12172   3.483   2.929   3.330
    3OL    C11212173   3.529   2.782   3.472
    3OL    H12R12174   3.635   2.759   3.453
    3OL    H12S12175   3.479   2.693   3.511
    3OL    C11312176   3.538   2.899   3.571
    3OL    H13R12177   3.599   2.976   3.524
    3OL    H13S12178   3.584   2.876   3.667
    3OL    C11412179   3.402   2.966   3.596
    3OL    H14R12180   3.354   2.891   3.659
    3OL    H14S12181   3.341   2.978   3.507
    3OL    C11512182   3.417   3.102   3.666
    3OL    H15R12183   3.462   3.175   3.597
    3OL    H15S12184   3.480   3.100   3.755
    3OL    C11612185   3.282   3.165   3.703
    3OL    H16R12186   3.232   3.097   3.773
    3OL    H16S12187   3.215   3.165   3.617
    3OL    C11712188   3.309   3.308   3.752
    3OL    H17R12189   3.348   3.359   3.665
    3OL    H17S12190   3.384   3.314   3.831
    3OL    C11812191   3.182   3.385   3.794
    3OL    H18R12192   3.121   3.329   3.865
    3OL    H18S12193   3.127   3.404   3.702
    3OL    H18T12194   3.210   3.487   3.822
    1PA    C11612195   3.781   2.377   3.945
    1PA    H16R12196   3.723   2.458   3.988
    1PA    H16S12197   3.799   2.403   3.841
    1PA    H16T12198   3.883   2.381   3.984
    1PA    C11512199   3.707   2.243   3.960
    1PA    H15R12200   3.694   2.219   4.065
    1PA    H15S12201   3.605   2.239   3.922
    1PA    C11412202   3.794   2.129   3.905
    1PA    H14R12203   3.897   2.145   3.937
    1PA    H14S12204   3.770   2.033   3.950
    1PA    C11312205   3.776   2.120   3.753
    1PA    H13R12206   3.681   2.076   3.721
    1PA    H13S12207   3.785   2.217   3.703
    1PA    C11212208   3.886   2.031   3.693
    1PA    H12R12209   3.874   1.941   3.753
    1PA    H12S12210   3.853   2.020   3.589
    1PA    C11112211   4.025   2.096   3.695
    1PA    H11R12212   4.017   2.196   3.652
    1PA    H11S12213   4.054   2.111   3.800
    1PA    C11012214   4.127   2.007   3.624
    1PA    H10R12215   4.225   2.053   3.641
    1PA    H10S12216   4.122   1.906   3.666
    1PA     C1912217   4.109   2.007   3.471
    1PA     H9R12218   4.015   1.969   3.431
    1PA     H9S12219   4.121   2.112   3.444
    1PA     C1812220   4.229   1.938   3.405
    1PA     H8R12221   4.319   1.984   3.448
    1PA     H8S12222   4.228   1.831   3.428
    1PA     C1712223   4.232   1.963   3.254
    1PA     H7R12224   4.138   1.939   3.203
    1PA     H7S12225   4.237   2.072   3.241
    1PA     C1612226   4.348   1.888   3.188
    1PA     H6R12227   4.448   1.914   3.223
    1PA     H6S12228   4.333   1.786   3.222
    1PA     C1512229   4.346   1.887   3.034
    1PA     H5R12230   4.334   1.985   2.987
    1PA     H5S12231   4.441   1.855   2.992
    1PA     C1412232   4.230   1.804   2.978
    1PA     H4R12233   4.229   1.701   3.016
    1PA     H4S12234   4.137   1.853   3.007
    1PA     C1312235   4.261   1.790   2.828
    1PA     H3R12236   4.352   1.731   2.817
    1PA     H3S12237   4.175   1.739   2.784
    1PA     C1212238   4.256   1.925   2.756
    1PA     H2R12239   4.158   1.972   2.772
    1PA     H2S12240   4.340   1.991   2.779
    2PC     C1112241   4.275   1.915   2.607
    2PC     O1212242   4.234   2.006   2.539
    2PC     O1112243   4.344   1.806   2.568
    2PC      C112244   4.360   1.786   2.426
    2PC      HR12245   4.259   1.770   2.387
    2PC      HS12246   4.391   1.884   2.387
    2PC      C212247   4.453   1.666   2.407
    2PC      HX12248   4.539   1.682   2.472
    2PC      C312249   4.497   1.647   2.261
    2PC      HA12250   4.594   1.692   2.240
    2PC      HB12251   4.488   1.542   2.230
    2PC     O3112252   4.400   1.710   2.175
    2PC     P3112253   4.413   1.665   2.022
    2PC     O3212254   4.545   1.741   1.971
    2PC     C3112255   4.571   1.758   1.831
    2PC     H1A12256   4.596   1.656   1.798
    2PC     H1B12257   4.481   1.795   1.782
    2PC     C3212258   4.689   1.854   1.810
    2PC     H2A12259   4.682   1.944   1.871
    2PC     H2B12260   4.784   1.810   1.844
    2PC     N3112261   4.711   1.896   1.668
    2PC     C3312262   4.776   1.789   1.587
    2PC     H3A12263   4.875   1.767   1.627
    2PC     H3B12264   4.709   1.704   1.600
    2PC     H3C12265   4.772   1.826   1.484
    2PC     C3412266   4.580   1.926   1.601
    2PC     H4A12267   4.600   1.953   1.497
    2PC     H4B12268   4.511   1.842   1.596
    2PC     H4C12269   4.541   2.016   1.649
    2PC     C3512270   4.801   2.016   1.658
    2PC     H5A12271   4.811   2.052   1.555
    2PC     H5B12272   4.889   1.990   1.717
    2PC     H5C12273   4.749   2.092   1.716
    2PC     O3312274   4.432   1.520   2.004
    2PC     O3412275   4.295   1.710   1.945
    2PC     O2112276   4.372   1.550   2.436
    2PC     C2112277   4.386   1.487   2.554
    2PC     O2212278   4.469   1.515   2.637
    3OL     C1212279   4.271   1.392   2.578
    3OL     H2R12280   4.270   1.320   2.497
    3OL     H2S12281   4.176   1.446   2.571
    3OL     C1312282   4.274   1.323   2.715
    3OL     H3R12283   4.266   1.397   2.794
    3OL     H3S12284   4.373   1.281   2.737
    3OL     C1412285   4.169   1.212   2.724
    3OL     H4R12286   4.193   1.161   2.818
    3OL     H4S12287   4.172   1.138   2.644
    3OL     C1512288   4.023   1.258   2.729
    3OL     H5R12289   4.014   1.327   2.645
    3OL     H5S12290   3.998   1.312   2.821
    3OL     C1612291   3.931   1.136   2.713
    3OL     H6R12292   3.953   1.058   2.785
    3OL     H6S12293   3.950   1.095   2.614
    3OL     C1712294   3.782   1.170   2.699
    3OL     H7R12295   3.729   1.082   2.660
    3OL     H7S12296   3.771   1.246   2.621
    3OL     C1812297   3.715   1.204   2.833
    3OL     H8R12298   3.786   1.275   2.877
    3OL     H8S12299   3.714   1.115   2.896
    3OL     C1912300   3.588   1.283   2.818
    3OL     H9R12301   3.588   1.373   2.757
    3OL    C11012302   3.477   1.251   2.884
    3OL    H10R12303   3.387   1.304   2.854
    3OL    C11112304   3.463   1.166   3.008
    3OL    H11R12305   3.562   1.148   3.052
    3OL    H11S12306   3.416   1.072   2.978
    3OL    C11212307   3.373   1.230   3.114
    3OL    H12R12308   3.279   1.263   3.067
    3OL    H12S12309   3.420   1.325   3.141
    3OL    C11312310   3.359   1.150   3.244
    3OL    H13R12311   3.460   1.122   3.275
    3OL    H13S12312   3.306   1.061   3.211
    3OL    C11412313   3.286   1.219   3.360
    3OL    H14R12314   3.203   1.280   3.323
    3OL    H14S12315   3.351   1.294   3.405
    3OL    C11512316   3.235   1.118   3.465
    3OL    H15R12317   3.182   1.035   3.417
    3OL    H15S12318   3.160   1.163   3.530
    3OL    C11612319   3.356   1.064   3.542
    3OL    H16R12320   3.408   1.149   3.585
    3OL    H16S12321   3.424   1.012   3.475
    3OL    C11712322   3.304   0.965   3.648
    3OL    H17R12323   3.389   0.905   3.683
    3OL    H17S12324   3.223   0.907   3.604
    3OL    C11812325   3.251   1.034   3.774
    3OL    H18R12326   3.248   0.958   3.852
    3OL    H18S12327   3.148   1.070   3.768
    3OL    H18T12328   3.320   1.110   3.812
    1PA    C11612329   4.593   0.829   3.732
    1PA    H16R12330   4.594   0.813   3.840
    1PA    H16S12331   4.490   0.809   3.701
    1PA    H16T12332   4.616   0.936   3.723
    1PA    C11512333   4.696   0.742   3.658
    1PA    H15R12334   4.747   0.800   3.581
    1PA    H15S12335   4.771   0.716   3.733
    1PA    C11412336   4.636   0.615   3.597
    1PA    H14R12337   4.611   0.547   3.679
    1PA    H14S12338   4.545   0.636   3.540
    1PA    C11312339   4.723   0.536   3.499
    1PA    H13R12340   4.764   0.594   3.416
    1PA    H13S12341   4.800   0.500   3.568
    1PA    C11212342   4.646   0.417   3.440
    1PA    H12R12343   4.627   0.342   3.517
    1PA    H12S12344   4.547   0.447   3.406
    1PA    C11112345   4.723   0.342   3.330
    1PA    H11R12346   4.830   0.326   3.349
    1PA    H11S12347   4.685   0.241   3.314
    1PA    C11012348   4.699   0.425   3.204
    1PA    H10R12349   4.594   0.427   3.174
    1PA    H10S12350   4.724   0.531   3.217
    1PA     C1912351   4.785   0.367   3.091
    1PA     H9R12352   4.756   0.262   3.080
    1PA     H9S12353   4.752   0.418   3.000
    1PA     C1812354   4.936   0.394   3.099
    1PA     H8R12355   4.945   0.503   3.095
    1PA     H8S12356   4.972   0.374   3.200
    1PA     C1712357   5.020   0.323   2.992
    1PA     H7R12358   5.121   0.355   3.019
    1PA     H7S12359   5.009   0.216   3.006
    1PA     C1612360   4.996   0.381   2.852
    1PA     H6R12361   4.895   0.357   2.818
    1PA     H6S12362   5.009   0.489   2.844
    1PA     C1512363   5.099   0.328   2.752
    1PA     H5R12364   5.062   0.369   2.658
    1PA     H5S12365   5.199   0.368   2.770
    1PA     C1412366   5.114   0.176   2.735
    1PA     H4R12367   5.170   0.128   2.815
    1PA     H4S12368   5.013   0.132   2.733
    1PA     C1312369   5.188   0.136   2.606
    1PA     H3R12370   5.147   0.038   2.580
    1PA     H3S12371   5.160   0.202   2.524
    1PA     C1212372   5.341   0.136   2.623
    1PA     H2R12373   5.379   0.228   2.668
    1PA     H2S12374   5.362   0.050   2.688
    2PC     C1112375   5.402   0.117   2.487
    2PC     O1212376   5.449   0.210   2.425
    2PC     O1112377   5.404   6.473   2.454
    2PC      C112378   5.495   6.428   2.352
    2PC      HR12379   5.492   6.319   2.345
    2PC      HS12380   5.456   6.478   2.264
    2PC      C212381   5.642   6.461   2.384
    2PC      HX12382   5.661   0.069   2.435
    2PC      C312383   5.717   6.461   2.250
    2PC      HA12384   5.691   6.380   2.181
    2PC      HB12385   5.707   0.071   2.198
    2PC     O3112386   5.856   6.455   2.286
    2PC     P3112387   5.975   6.451   2.178
    2PC     O3212388   5.929   6.310   2.119
    2PC     C3112389   5.995   6.192   2.168
    2PC     H1A12390   6.102   6.202   2.148
    2PC     H1B12391   5.980   6.181   2.276
    2PC     C3212392   5.932   6.068   2.102
    2PC     H2A12393   5.957   5.977   2.156
    2PC     H2B12394   5.823   6.076   2.109
    2PC     N3112395   5.957   6.045   1.956
    2PC     C3312396   5.856   6.117   1.872
    2PC     H3A12397   5.882   6.222   1.890
    2PC     H3B12398   5.861   6.097   1.765
    2PC     H3C12399   5.760   6.099   1.920
    2PC     C3412400   6.091   6.075   1.898
    2PC     H4A12401   6.164   6.020   1.958
    2PC     H4B12402   6.090   6.028   1.799
    2PC     H4C12403   6.107   6.183   1.898
    2PC     C3512404   5.928   5.898   1.939
    2PC     H5A12405   5.970   5.835   2.017
    2PC     H5B12406   5.968   5.866   1.842
    2PC     H5C12407   5.820   5.884   1.935
    2PC     O3312408   5.968   0.070   2.074
    2PC     O3412409   6.104   6.459   2.250
    2PC     O2112410   5.694   6.347   2.455
    2PC     C2112411   5.700   6.355   2.589
    2PC     O2212412   5.676   6.450   2.661
    3OL     C1212413   5.736   6.220   2.646
    3OL     H2R12414   5.840   6.222   2.679
    3OL     H2S12415   5.727   6.147   2.566
    3OL     C1312416   5.657   6.183   2.773
    3OL     H3R12417   5.663   6.263   2.847
    3OL     H3S12418   5.706   6.100   2.825
    3OL     C1412419   5.510   6.159   2.739
    3OL     H4R12420   5.499   6.086   2.658
    3OL     H4S12421   5.472   6.254   2.701
    3OL     C1512422   5.426   6.102   2.854
    3OL     H5R12423   5.464   6.004   2.883
    3OL     H5S12424   5.327   6.080   2.813
    3OL     C1612425   5.410   6.193   2.976
    3OL     H6R12426   5.502   6.249   2.991
    3OL     H6S12427   5.387   6.133   3.064
    3OL     C1712428   5.303   6.303   2.967
    3OL     H7R12429   5.207   6.252   2.974
    3OL     H7S12430   5.304   6.349   2.868
    3OL     C1812431   5.325   6.409   3.077
    3OL     H8R12432   5.382   6.370   3.161
    3OL     H8S12433   5.228   6.431   3.121
    3OL     C1912434   5.401   0.038   3.017
    3OL     H9R12435   5.449   0.017   2.922
    3OL    C11012436   5.399   0.162   3.063
    3OL    H10R12437   5.471   0.233   3.023
    3OL    C11112438   5.324   0.212   3.184
    3OL    H11R12439   5.228   0.161   3.182
    3OL    H11S12440   5.315   0.319   3.163
    3OL    C11212441   5.395   0.184   3.317
    3OL    H12R12442   5.502   0.203   3.315
    3OL    H12S12443   5.384   0.080   3.348
    3OL    C11312444   5.342   0.271   3.432
    3OL    H13R12445   5.389   0.368   3.412
    3OL    H13S12446   5.395   0.237   3.521
    3OL    C11412447   5.189   0.275   3.446
    3OL    H14R12448   5.155   0.172   3.450
    3OL    H14S12449   5.157   0.323   3.353
    3OL    C11512450   5.137   0.356   3.566
    3OL    H15R12451   5.183   0.311   3.654
    3OL    H15S12452   5.031   0.331   3.577
    3OL    C11612453   5.163   0.507   3.558
    3OL    H16R12454   5.265   0.531   3.588
    3OL    H16S12455   5.093   0.544   3.633
    3OL    C11712456   5.119   0.569   3.425
    3OL    H17R12457   5.014   0.548   3.401
    3OL    H17S12458   5.182   0.540   3.340
    3OL    C11812459   5.133   0.721   3.434
    3OL    H18R12460   5.059   0.762   3.504
    3OL    H18S12461   5.107   0.769   3.339
    3OL    H18T12462   5.236   0.743   3.462
    1PA    C11612463   1.939   0.856   3.515
    1PA    H16R12464   2.035   0.905   3.501
    1PA    H16S12465   1.942   0.786   3.599
    1PA    H16T12466   1.868   0.931   3.551
    1PA    C11512467   1.897   0.807   3.376
    1PA    H15R12468   1.983   0.746   3.344
    1PA    H15S12469   1.817   0.734   3.368
    1PA    C11412470   1.870   0.927   3.284
    1PA    H14R12471   1.822   0.893   3.192
    1PA    H14S12472   1.796   0.987   3.336
    1PA    C11312473   1.985   1.015   3.233
    1PA    H13R12474   1.950   1.112   3.196
    1PA    H13S12475   2.046   1.047   3.318
    1PA    C11212476   2.079   0.950   3.131
    1PA    H12R12477   2.182   0.988   3.137
    1PA    H12S12478   2.083   0.842   3.147
    1PA    C11112479   2.028   0.979   2.989
    1PA    H11R12480   1.922   0.953   2.986
    1PA    H11S12481   2.042   1.084   2.963
    1PA    C11012482   2.094   0.895   2.878
    1PA    H10R12483   2.202   0.910   2.878
    1PA    H10S12484   2.080   0.789   2.901
    1PA     C1912485   2.027   0.931   2.744
    1PA     H9R12486   1.920   0.939   2.763
    1PA     H9S12487   2.075   1.025   2.717
    1PA     C1812488   2.045   0.826   2.634
    1PA     H8R12489   2.151   0.807   2.614
    1PA     H8S12490   2.013   0.726   2.665
    1PA     C1712491   1.981   0.874   2.503
    1PA     H7R12492   1.875   0.895   2.516
    1PA     H7S12493   2.039   0.963   2.480
    1PA     C1612494   2.004   0.775   2.388
    1PA     H6R12495   2.109   0.761   2.363
    1PA     H6S12496   1.978   0.677   2.428
    1PA     C1512497   1.915   0.790   2.264
    1PA     H5R12498   1.812   0.768   2.293
    1PA     H5S12499   1.924   0.894   2.232
    1PA     C1412500   1.961   0.699   2.150
    1PA     H4R12501   2.063   0.717   2.115
    1PA     H4S12502   1.961   0.593   2.176
    1PA     C1312503   1.866   0.710   2.029
    1PA     H3R12504   1.884   0.632   1.955
    1PA     H3S12505   1.762   0.701   2.061
    1PA     C1212506   1.878   0.843   1.953
    1PA     H2R12507   1.844   0.928   2.013
    1PA     H2S12508   1.985   0.854   1.933
    2PC     C1112509   1.802   0.848   1.823
    2PC     O1212510   1.839   0.774   1.734
    2PC     O1112511   1.711   0.947   1.821
    2PC      C112512   1.640   0.983   1.701
    2PC      HR12513   1.597   1.082   1.715
    2PC      HS12514   1.717   0.993   1.624
    2PC      C212515   1.532   0.881   1.663
    2PC      HX12516   1.582   0.807   1.599
    2PC      C312517   1.417   0.949   1.587
    2PC      HA12518   1.355   1.001   1.660
    2PC      HB12519   1.458   1.026   1.522
    2PC     O3112520   1.334   0.856   1.516
    2PC     P3112521   1.188   0.900   1.466
    2PC     O3212522   1.209   0.885   1.308
    2PC     C3112523   1.182   1.001   1.227
    2PC     H1A12524   1.087   1.044   1.260
    2PC     H1B12525   1.253   1.083   1.235
    2PC     C3212526   1.164   0.952   1.083
    2PC     H2A12527   1.096   0.867   1.089
    2PC     H2B12528   1.118   1.032   1.024
    2PC     N3112529   1.284   0.902   1.009
    2PC     C3312530   1.412   0.975   1.036
    2PC     H3A12531   1.438   0.955   1.140
    2PC     H3B12532   1.490   0.926   0.977
    2PC     H3C12533   1.402   1.081   1.012
    2PC     C3412534   1.305   0.765   1.065
    2PC     H4A12535   1.371   0.712   0.996
    2PC     H4B12536   1.356   0.764   1.161
    2PC     H4C12537   1.220   0.700   1.087
    2PC     C3512538   1.253   0.889   0.863
    2PC     H5A12539   1.228   0.986   0.821
    2PC     H5B12540   1.169   0.823   0.843
    2PC     H5C12541   1.348   0.855   0.819
    2PC     O3312542   1.078   0.814   1.517
    2PC     O3412543   1.147   1.039   1.500
    2PC     O2112544   1.488   0.806   1.778
    2PC     C2112545   1.438   0.876   1.881
    2PC     O2212546   1.406   0.993   1.873
    3OL     C1212547   1.418   0.787   2.001
    3OL     H2R12548   1.472   0.694   1.986
    3OL     H2S12549   1.311   0.762   2.006
    3OL     C1312550   1.449   0.863   2.131
    3OL     H3R12551   1.396   0.956   2.153
    3OL     H3S12552   1.556   0.884   2.139
    3OL     C1412553   1.425   0.766   2.248
    3OL     H4R12554   1.478   0.673   2.232
    3OL     H4S12555   1.319   0.738   2.253
    3OL     C1512556   1.463   0.826   2.384
    3OL     H5R12557   1.445   0.934   2.388
    3OL     H5S12558   1.571   0.827   2.405
    3OL     C1612559   1.393   0.764   2.506
    3OL     H6R12560   1.414   0.657   2.514
    3OL     H6S12561   1.284   0.762   2.495
    3OL     C1712562   1.433   0.825   2.641
    3OL     H7R12563   1.428   0.934   2.637
    3OL     H7S12564   1.535   0.791   2.659
    3OL     C1812565   1.343   0.774   2.754
    3OL     H8R12566   1.390   0.685   2.796
    3OL     H8S12567   1.245   0.759   2.707
    3OL     C1912568   1.322   0.873   2.866
    3OL     H9R12569   1.261   0.958   2.839
    3OL    C11012570   1.376   0.864   2.987
    3OL    H10R12571   1.344   0.945   3.053
    3OL    C11112572   1.498   0.786   3.026
    3OL    H11R12573   1.587   0.847   3.011
    3OL    H11S12574   1.508   0.690   2.974
    3OL    C11212575   1.499   0.752   3.176
    3OL    H12R12576   1.536   0.839   3.231
    3OL    H12S12577   1.570   0.671   3.192
    3OL    C11312578   1.363   0.713   3.236
    3OL    H13R12579   1.290   0.793   3.224
    3OL    H13S12580   1.384   0.686   3.340
    3OL    C11412581   1.309   0.588   3.165
    3OL    H14R12582   1.388   0.514   3.169
    3OL    H14S12583   1.295   0.596   3.057
    3OL    C11512584   1.179   0.532   3.224
    3OL    H15R12585   1.097   0.600   3.201
    3OL    H15S12586   1.178   0.519   3.332
    3OL    C11612587   1.126   0.394   3.182
    3OL    H16R12588   1.126   0.402   3.073
    3OL    H16S12589   1.022   0.389   3.216
    3OL    C11712590   1.214   0.279   3.235
    3OL    H17R12591   1.221   0.276   3.344
    3OL    H17S12592   1.316   0.289   3.199
    3OL    C11812593   1.148   0.149   3.189
    3OL    H18R12594   1.102   0.160   3.090
    3OL    H18S12595   1.069   0.120   3.259
    3OL    H18T12596   1.218   0.066   3.190
    1PA    C11612597   0.212   0.368   4.177
    1PA    H16R12598   0.242   0.464   4.219
    1PA    H16S12599   0.267   0.291   4.231
    1PA    H16T12600   0.103   0.356   4.178
    1PA    C11512601   0.257   0.352   4.031
    1PA    H15R12602   0.219   0.434   3.970
    1PA    H15S12603   0.365   0.364   4.022
    1PA    C11412604   0.225   0.214   3.972
    1PA    H14R12605   0.270   0.134   4.032
    1PA    H14S12606   0.116   0.209   3.975
    1PA    C11312607   0.261   0.211   3.823
    1PA    H13R12608   0.196   0.286   3.778
    1PA    H13S12609   0.364   0.243   3.806
    1PA    C11212610   0.231   0.068   3.778
    1PA    H12R12611   0.308   6.485   3.813
    1PA    H12S12612   0.133   0.029   3.810
    1PA    C11112613   0.239   0.065   3.625
    1PA    H11R12614   0.164   0.132   3.583
    1PA    H11S12615   0.341   0.089   3.593
    1PA    C11012616   0.209   6.410   3.573
    1PA    H10R12617   0.270   6.336   3.625
    1PA    H10S12618   0.107   6.382   3.600
    1PA     C1912619   0.237   6.395   3.423
    1PA     H9R12620   0.330   6.449   3.405
    1PA     H9S12621   0.256   6.290   3.400
    1PA     C1812622   0.118   6.446   3.341
    1PA     H8R12623   0.031   6.382   3.357
    1PA     H8S12624   0.095   0.062   3.375
    1PA     C1712625   0.151   6.439   3.191
    1PA     H7R12626   0.247   0.002   3.177
    1PA     H7S12627   0.153   6.333   3.165
    1PA     C1612628   0.048   0.027   3.105
    1PA     H6R12629   6.434   6.475   3.129
    1PA     H6S12630   0.059   0.134   3.122
    1PA     C1512631   0.079   0.002   2.957
    1PA     H5R12632   6.481   0.049   2.907
    1PA     H5S12633   0.163   0.068   2.934
    1PA     C1412634   0.092   6.344   2.905
    1PA     H4R12635   0.174   6.291   2.954
    1PA     H4S12636   6.481   6.298   2.921
    1PA     C1312637   0.112   6.346   2.753
    1PA     H3R12638   0.011   6.360   2.713
    1PA     H3S12639   0.176   6.428   2.720
    1PA     C1212640   0.170   6.208   2.718
    1PA     H2R12641   0.268   6.199   2.765
    1PA     H2S12642   0.106   6.127   2.754
    2PC     C1112643   0.187   6.186   2.570
    2PC     O1212644   0.118   6.106   2.510
    2PC     O1112645   0.274   6.271   2.513
    2PC      C112646   0.322   6.275   2.377
    2PC      HR12647   0.405   6.345   2.386
    2PC      HS12648   0.367   6.180   2.348
    2PC      C212649   0.209   6.312   2.279
    2PC      HX12650   0.120   6.249   2.273
    2PC      C312651   0.254   6.314   2.132
    2PC      HA12652   0.294   6.215   2.109
    2PC      HB12653   0.164   6.342   2.076
    2PC     O3112654   0.333   6.433   2.115
    2PC     P3112655   0.373   6.476   1.967
    2PC     O3212656   0.288   0.121   1.931
    2PC     C3112657   0.313   0.242   2.005
    2PC     H1A12658   0.315   0.226   2.113
    2PC     H1B12659   0.409   0.277   1.967
    2PC     C3212660   0.201   0.344   1.980
    2PC     H2A12661   0.238   0.446   1.989
    2PC     H2B12662   0.169   0.345   1.876
    2PC     N3112663   0.069   0.318   2.048
    2PC     C3312664   6.455   0.409   1.983
    2PC     H3A12665   6.482   0.512   2.007
    2PC     H3B12666   6.461   0.384   1.877
    2PC     H3C12667   6.354   0.390   2.020
    2PC     C3412668   0.017   0.178   2.033
    2PC     H4A12669   0.027   0.154   1.927
    2PC     H4B12670   0.071   0.112   2.101
    2PC     H4C12671   6.398   0.181   2.061
    2PC     C3512672   0.078   0.372   2.187
    2PC     H5A12673   0.171   0.332   2.227
    2PC     H5B12674   6.472   0.338   2.234
    2PC     H5C12675   0.091   0.480   2.179
    2PC     O3312676   0.517   0.009   1.936
    2PC     O3412677   0.335   6.357   1.887
    2PC     O2112678   0.160   6.445   2.300
    2PC     C2112679   0.053   6.466   2.379
    2PC     O2212680   6.463   6.385   2.427
    3OL     C1212681   0.031   0.126   2.407
    3OL     H2R12682   6.433   0.154   2.343
    3OL     H2S12683   0.120   0.186   2.387
    3OL     C1312684   0.002   0.156   2.555
    3OL     H3R12685   0.089   0.139   2.619
    3OL     H3S12686   6.415   0.080   2.584
    3OL     C1412687   6.431   0.297   2.567
    3OL     H4R12688   6.340   0.310   2.507
    3OL     H4S12689   0.023   0.373   2.557
    3OL     C1512690   6.389   0.322   2.713
    3OL     H5R12691   6.481   0.332   2.771
    3OL     H5S12692   6.340   0.234   2.755
    3OL     C1612693   6.306   0.450   2.729
    3OL     H6R12694   6.202   0.441   2.697
    3OL     H6S12695   6.353   0.532   2.674
    3OL     C1712696   6.287   0.494   2.875
    3OL     H7R12697   6.226   0.584   2.878
    3OL     H7S12698   6.386   0.525   2.908
    3OL     C1812699   6.224   0.393   2.972
    3OL     H8R12700   6.291   0.310   2.997
    3OL     H8S12701   6.136   0.347   2.928
    3OL     C1912702   6.174   0.463   3.096
    3OL     H9R12703   6.146   0.568   3.084
    3OL    C11012704   6.160   0.411   3.217
    3OL    H10R12705   6.112   0.474   3.291
    3OL    C11112706   6.190   0.271   3.262
    3OL    H11R12707   6.289   0.235   3.232
    3OL    H11S12708   6.113   0.202   3.226
    3OL    C11212709   6.188   0.256   3.414
    3OL    H12R12710   6.086   0.266   3.455
    3OL    H12S12711   6.249   0.335   3.458
    3OL    C11312712   6.240   0.121   3.466
    3OL    H13R12713   6.348   0.119   3.451
    3OL    H13S12714   6.198   0.044   3.401
    3OL    C11412715   6.219   0.109   3.618
    3OL    H14R12716   6.115   0.133   3.639
    3OL    H14S12717   6.286   0.177   3.669
    3OL    C11512718   6.245   6.454   3.673
    3OL    H15R12719   6.351   6.431   3.656
    3OL    H15S12720   6.189   6.389   3.605
    3OL    C11612721   6.201   6.443   3.819
    3OL    H16R12722   6.188   6.339   3.851
    3OL    H16S12723   6.105   0.008   3.824
    3OL    C11712724   6.306   0.026   3.907
    3OL    H17R12725   6.330   0.118   3.854
    3OL    H17S12726   6.399   6.455   3.913
    3OL    C11812727   6.252   0.064   4.045
    3OL    H18R12728   6.328   0.126   4.093
    3OL    H18S12729   6.234   6.461   4.106
    3OL    H18T12730   6.166   0.130   4.033
    1PA    C11612731   6.309   5.897   3.976
    1PA    H16R12732   6.240   5.982   3.981
    1PA    H16S12733   6.290   5.845   3.881
    1PA    H16T12734   6.409   5.939   3.984
    1PA    C11512735   6.265   5.814   4.098
    1PA    H15R12736   6.278   5.878   4.185
    1PA    H15S12737   6.161   5.789   4.078
    1PA    C11412738   6.336   5.679   4.117
    1PA    H14R12739   6.443   5.702   4.118
    1PA    H14S12740   6.293   5.634   4.206
    1PA    C11312741   6.298   5.580   4.007
    1PA    H13R12742   6.291   5.480   4.051
    1PA    H13S12743   6.198   5.603   3.968
    1PA    C11212744   6.400   5.575   3.893
    1PA    H12R12745   6.420   5.678   3.864
    1PA    H12S12746   0.003   5.525   3.934
    1PA    C11112747   6.348   5.496   3.772
    1PA    H11R12748   6.351   5.391   3.804
    1PA    H11S12749   6.244   5.518   3.751
    1PA    C11012750   6.432   5.523   3.647
    1PA    H10R12751   6.417   5.628   3.619
    1PA    H10S12752   0.049   5.514   3.680
    1PA     C1912753   6.408   5.422   3.533
    1PA     H9R12754   0.014   5.375   3.499
    1PA     H9S12755   6.343   5.346   3.575
    1PA     C1812756   6.328   5.479   3.415
    1PA     H8R12757   6.227   5.505   3.447
    1PA     H8S12758   6.372   5.569   3.372
    1PA     C1712759   6.324   5.374   3.303
    1PA     H7R12760   6.423   5.331   3.284
    1PA     H7S12761   6.258   5.292   3.329
    1PA     C1612762   6.266   5.436   3.175
    1PA     H6R12763   6.158   5.448   3.173
    1PA     H6S12764   6.296   5.541   3.173
    1PA     C1512765   6.308   5.371   3.042
    1PA     H5R12766   6.325   5.459   2.980
    1PA     H5S12767   6.407   5.327   3.055
    1PA     C1412768   6.207   5.265   2.996
    1PA     H4R12769   6.217   5.162   3.031
    1PA     H4S12770   6.109   5.304   3.025
    1PA     C1312771   6.221   5.252   2.844
    1PA     H3R12772   6.177   5.338   2.795
    1PA     H3S12773   6.327   5.252   2.817
    1PA     C1212774   6.167   5.118   2.793
    1PA     H2R12775   6.217   5.030   2.835
    1PA     H2S12776   6.060   5.105   2.804
    2PC     C1112777   6.187   5.112   2.644
    2PC     O1212778   6.257   5.034   2.583
    2PC     O1112779   6.093   5.192   2.591
    2PC      C112780   6.084   5.217   2.450
    2PC      HR12781   6.182   5.198   2.404
    2PC      HS12782   6.009   5.145   2.419
    2PC      C212783   6.026   5.357   2.423
    2PC      HX12784   5.942   5.370   2.492
    2PC      C312785   5.978   5.383   2.280
    2PC      HA12786   5.877   5.341   2.276
    2PC      HB12787   5.979   5.489   2.253
    2PC     O3112788   6.073   5.330   2.186
    2PC     P3112789   6.007   5.284   2.048
    2PC     O3212790   6.138   5.212   1.990
    2PC     C3112791   6.169   5.075   2.019
    2PC     H1A12792   6.189   5.070   2.126
    2PC     H1B12793   6.087   5.006   1.997
    2PC     C3212794   6.287   5.040   1.928
    2PC     H2A12795   6.282   5.072   1.824
    2PC     H2B12796   6.374   5.099   1.960
    2PC     N3112797   6.337   4.899   1.918
    2PC     C3312798   6.348   4.851   2.059
    2PC     H3A12799   6.437   4.896   2.103
    2PC     H3B12800   6.261   4.881   2.118
    2PC     H3C12801   6.363   4.744   2.044
    2PC     C3412802   6.247   4.808   1.840
    2PC     H4A12803   6.297   4.711   1.831
    2PC     H4B12804   6.154   4.812   1.897
    2PC     H4C12805   6.235   4.864   1.748
    2PC     C3512806   6.476   4.908   1.862
    2PC     H5A12807   0.047   4.998   1.885
    2PC     H5B12808   6.469   4.895   1.753
    2PC     H5C12809   0.048   4.823   1.897
    2PC     O3312810   5.887   5.200   2.064
    2PC     O3412811   5.988   5.396   1.952
    2PC     O2112812   6.127   5.453   2.459
    2PC     C2112813   6.100   5.546   2.552
    2PC     O2212814   6.006   5.540   2.629
    3OL     C1212815   6.203   5.656   2.551
    3OL     H2R12816   6.158   5.754   2.536
    3OL     H2S12817   6.273   5.641   2.469
    3OL     C1312818   6.273   5.642   2.687
    3OL     H3R12819   6.328   5.547   2.685
    3OL     H3S12820   6.192   5.633   2.760
    3OL     C1412821   6.358   5.761   2.731
    3OL     H4R12822   6.301   5.854   2.729
    3OL     H4S12823   6.445   5.768   2.665
    3OL     C1512824   6.413   5.745   2.874
    3OL     H5R12825   6.437   5.640   2.892
    3OL     H5S12826   6.337   5.781   2.944
    3OL     C1612827   0.055   5.828   2.889
    3OL     H6R12828   0.018   5.926   2.857
    3OL     H6S12829   0.140   5.805   2.824
    3OL     C1712830   0.100   5.842   3.035
    3OL     H7R12831   0.143   5.748   3.071
    3OL     H7S12832   0.013   5.860   3.099
    3OL     C1812833   0.214   5.941   3.058
    3OL     H8R12834   0.186   6.036   3.011
    3OL     H8S12835   0.309   5.913   3.012
    3OL     C1912836   0.213   5.980   3.204
    3OL     H9R12837   0.123   5.973   3.265
    3OL    C11012838   0.300   6.059   3.265
    3OL    H10R12839   0.282   6.085   3.369
    3OL    C11112840   0.431   6.104   3.205
    3OL    H11R12841   0.418   6.212   3.190
    3OL    H11S12842   0.447   6.063   3.105
    3OL    C11212843   0.563   6.086   3.280
    3OL    H12R12844   0.589   6.170   3.344
    3OL    H12S12845   0.643   6.091   3.207
    3OL    C11312846   0.571   5.961   3.370
    3OL    H13R12847   0.546   5.869   3.316
    3OL    H13S12848   0.511   5.964   3.462
    3OL    C11412849   0.719   5.944   3.406
    3OL    H14R12850   0.771   6.030   3.449
    3OL    H14S12851   0.779   5.922   3.317
    3OL    C11512852   0.735   5.827   3.504
    3OL    H15R12853   0.678   5.743   3.466
    3OL    H15S12854   0.690   5.847   3.601
    3OL    C11612855   0.884   5.791   3.521
    3OL    H16R12856   0.931   5.861   3.592
    3OL    H16S12857   0.936   5.787   3.425
    3OL    C11712858   0.901   5.651   3.581
    3OL    H17R12859   0.880   5.570   3.510
    3OL    H17S12860   0.834   5.634   3.665
    3OL    C11812861   1.048   5.632   3.621
    3OL    H18R12862   1.111   5.622   3.532
    3OL    H18S12863   1.061   5.538   3.674
    3OL    H18T12864   1.077   5.711   3.691
    1PA    C11612865   5.760   6.407   3.826
    1PA    H16R12866   5.749   6.449   3.926
    1PA    H16S12867   5.859   6.362   3.812
    1PA    H16T12868   5.697   6.318   3.818
    1PA    C11512869   5.732   0.018   3.711
    1PA    H15R12870   5.630   0.054   3.726
    1PA    H15S12871   5.793   0.108   3.718
    1PA    C11412872   5.739   6.438   3.573
    1PA    H14R12873   5.829   6.379   3.556
    1PA    H14S12874   5.653   6.370   3.569
    1PA    C11312875   5.706   0.054   3.462
    1PA    H13R12876   5.694   0.000   3.368
    1PA    H13S12877   5.612   0.094   3.499
    1PA    C11212878   5.809   0.168   3.455
    1PA    H12R12879   5.815   0.227   3.546
    1PA    H12S12880   5.906   0.120   3.438
    1PA    C11112881   5.793   0.266   3.338
    1PA    H11R12882   5.687   0.294   3.329
    1PA    H11S12883   5.844   0.362   3.347
    1PA    C11012884   5.827   0.203   3.202
    1PA    H10R12885   5.925   0.155   3.205
    1PA    H10S12886   5.747   0.132   3.183
    1PA     C1912887   5.827   0.309   3.090
    1PA     H9R12888   5.751   0.384   3.111
    1PA     H9S12889   5.919   0.367   3.101
    1PA     C1812890   5.821   0.244   2.951
    1PA     H8R12891   5.909   0.184   2.928
    1PA     H8S12892   5.740   0.171   2.954
    1PA     C1712893   5.788   0.346   2.841
    1PA     H7R12894   5.785   0.288   2.748
    1PA     H7S12895   5.688   0.380   2.866
    1PA     C1612896   5.882   0.466   2.829
    1PA     H6R12897   5.885   0.522   2.922
    1PA     H6S12898   5.987   0.437   2.818
    1PA     C1512899   5.830   0.553   2.714
    1PA     H5R12900   5.841   0.486   2.628
    1PA     H5S12901   5.728   0.583   2.738
    1PA     C1412902   5.921   0.677   2.715
    1PA     H4R12903   5.906   0.729   2.809
    1PA     H4S12904   6.022   0.638   2.698
    1PA     C1312905   5.877   0.763   2.596
    1PA     H3R12906   5.878   0.706   2.503
    1PA     H3S12907   5.771   0.791   2.600
    1PA     C1212908   5.964   0.890   2.583
    1PA     H2R12909   5.939   0.944   2.675
    1PA     H2S12910   6.071   0.870   2.592
    2PC     C1112911   5.925   0.977   2.467
    2PC     O1212912   5.841   0.949   2.383
    2PC     O1112913   5.993   1.093   2.467
    2PC      C112914   5.941   1.193   2.378
    2PC      HR12915   6.013   1.274   2.362
    2PC      HS12916   5.930   1.154   2.277
    2PC      C212917   5.813   1.255   2.437
    2PC      HX12918   5.751   1.172   2.472
    2PC      C312919   5.748   1.338   2.326
    2PC      HA12920   5.673   1.279   2.272
    2PC      HB12921   5.695   1.422   2.371
    2PC     O3112922   5.833   1.374   2.216
    2PC     P3112923   5.763   1.426   2.082
    2PC     O3212924   5.804   1.579   2.058
    2PC     C3112925   5.725   1.692   2.099
    2PC     H1A12926   5.665   1.658   2.184
    2PC     H1B12927   5.795   1.771   2.125
    2PC     C3212928   5.626   1.735   1.989
    2PC     H2A12929   5.548   1.662   1.966
    2PC     H2B12930   5.570   1.823   2.020
    2PC     N3112931   5.684   1.774   1.857
    2PC     C3312932   5.793   1.877   1.863
    2PC     H3A12933   5.745   1.965   1.905
    2PC     H3B12934   5.875   1.837   1.923
    2PC     H3C12935   5.828   1.906   1.764
    2PC     C3412936   5.727   1.648   1.789
    2PC     H4A12937   5.821   1.608   1.828
    2PC     H4B12938   5.654   1.568   1.805
    2PC     H4C12939   5.723   1.669   1.682
    2PC     C3512940   5.582   1.844   1.773
    2PC     H5A12941   5.600   1.817   1.669
    2PC     H5B12942   5.588   1.953   1.780
    2PC     H5C12943   5.484   1.817   1.813
    2PC     O3312944   5.792   1.332   1.971
    2PC     O3412945   5.616   1.417   2.090
    2PC     O2112946   5.861   1.338   2.544
    2PC     C2112947   5.764   1.380   2.626
    2PC     O2212948   5.646   1.351   2.622
    3OL     C1212949   5.834   1.449   2.741
    3OL     H2R12950   5.886   1.538   2.707
    3OL     H2S12951   5.904   1.378   2.786
    3OL     C1312952   5.724   1.488   2.841
    3OL     H3R12953   5.681   1.391   2.868
    3OL     H3S12954   5.645   1.548   2.794
    3OL     C1412955   5.772   1.562   2.966
    3OL     H4R12956   5.835   1.645   2.932
    3OL     H4S12957   5.838   1.494   3.021
    3OL     C1512958   5.654   1.604   3.054
    3OL     H5R12959   5.595   1.515   3.081
    3OL     H5S12960   5.598   1.682   3.003
    3OL     C1612961   5.698   1.664   3.188
    3OL     H6R12962   5.731   1.591   3.262
    3OL     H6S12963   5.615   1.707   3.245
    3OL     C1712964   5.793   1.784   3.173
    3OL     H7R12965   5.735   1.862   3.125
    3OL     H7S12966   5.875   1.755   3.106
    3OL     C1812967   5.861   1.827   3.303
    3OL     H8R12968   5.944   1.758   3.321
    3OL     H8S12969   5.794   1.821   3.389
    3OL     C1912970   5.917   1.966   3.281
    3OL     H9R12971   5.949   1.976   3.178
    3OL    C11012972   5.916   2.073   3.359
    3OL    H10R12973   5.954   2.164   3.313
    3OL    C11112974   5.875   2.067   3.504
    3OL    H11R12975   5.955   2.119   3.558
    3OL    H11S12976   5.874   1.964   3.541
    3OL    C11212977   5.738   2.135   3.512
    3OL    H12R12978   5.735   2.219   3.443
    3OL    H12S12979   5.722   2.169   3.615
    3OL    C11312980   5.618   2.050   3.468
    3OL    H13R12981   5.631   1.950   3.509
    3OL    H13S12982   5.612   2.037   3.360
    3OL    C11412983   5.485   2.114   3.510
    3OL    H14R12984   5.478   2.135   3.617
    3OL    H14S12985   5.409   2.039   3.485
    3OL    C11512986   5.462   2.244   3.433
    3OL    H15R12987   5.452   2.223   3.326
    3OL    H15S12988   5.546   2.313   3.446
    3OL    C11612989   5.341   2.322   3.488
    3OL    H16R12990   5.349   2.334   3.597
    3OL    H16S12991   5.263   2.247   3.477
    3OL    C11712992   5.306   2.451   3.412
    3OL    H17R12993   5.287   2.428   3.307
    3OL    H17S12994   5.398   2.509   3.415
    3OL    C11812995   5.184   2.520   3.475
    3OL    H18R12996   5.196   2.551   3.580
    3OL    H18S12997   5.099   2.453   3.485
    3OL    H18T12998   5.157   2.608   3.416
    1PA    C11612999   4.853   5.202   3.792
    1PA    H16R13000   4.845   5.099   3.828
    1PA    H16S13001   4.797   5.270   3.857
    1PA    H16T13002   4.957   5.234   3.785
    1PA    C11513003   4.795   5.220   3.651
    1PA    H15R13004   4.686   5.216   3.659
    1PA    H15S13005   4.814   5.320   3.613
    1PA    C11413006   4.859   5.120   3.554
    1PA    H14R13007   4.965   5.148   3.550
    1PA    H14S13008   4.857   5.019   3.596
    1PA    C11313009   4.789   5.121   3.417
    1PA    H13R13010   4.681   5.104   3.418
    1PA    H13S13011   4.796   5.220   3.370
    1PA    C11213012   4.855   5.018   3.324
    1PA    H12R13013   4.960   5.046   3.308
    1PA    H12S13014   4.863   4.918   3.367
    1PA    C11113015   4.799   5.012   3.182
    1PA    H11R13016   4.695   4.978   3.178
    1PA    H11S13017   4.810   5.114   3.144
    1PA    C11013018   4.886   4.925   3.090
    1PA    H10R13019   4.988   4.962   3.096
    1PA    H10S13020   4.896   4.826   3.135
    1PA     C1913021   4.836   4.927   2.945
    1PA     H9R13022   4.826   5.027   2.902
    1PA     H9S13023   4.901   4.877   2.872
    1PA     C1813024   4.695   4.869   2.931
    1PA     H8R13025   4.701   4.772   2.979
    1PA     H8S13026   4.624   4.929   2.989
    1PA     C1713027   4.646   4.842   2.788
    1PA     H7R13028   4.706   4.761   2.747
    1PA     H7S13029   4.540   4.815   2.782
    1PA     C1613030   4.663   4.964   2.697
    1PA     H6R13031   4.601   5.049   2.726
    1PA     H6S13032   4.768   4.994   2.693
    1PA     C1513033   4.624   4.932   2.552
    1PA     H5R13034   4.523   4.891   2.548
    1PA     H5S13035   4.626   5.028   2.500
    1PA     C1413036   4.731   4.841   2.489
    1PA     H4R13037   4.827   4.880   2.522
    1PA     H4S13038   4.709   4.735   2.507
    1PA     C1313039   4.739   4.859   2.337
    1PA     H3R13040   4.765   4.965   2.329
    1PA     H3S13041   4.827   4.802   2.307
    1PA     C1213042   4.614   4.816   2.258
    1PA     H2R13043   4.569   4.739   2.320
    1PA     H2S13044   4.540   4.892   2.230
    2PC     C1113045   4.662   4.771   2.122
    2PC     O1213046   4.696   4.850   2.036
    2PC     O1113047   4.646   4.639   2.104
    2PC      C113048   4.667   4.572   1.978
    2PC      HR13049   4.670   4.465   2.000
    2PC      HS13050   4.585   4.590   1.908
    2PC      C213051   4.800   4.612   1.913
    2PC      HX13052   4.801   4.711   1.868
    2PC      C313053   4.833   4.520   1.795
    2PC      HA13054   4.773   4.552   1.709
    2PC      HB13055   4.940   4.523   1.773
    2PC     O3113056   4.801   4.382   1.822
    2PC     P3113057   4.790   4.272   1.706
    2PC     O3213058   4.945   4.234   1.707
    2PC     C3113059   5.038   4.303   1.622
    2PC     H1A13060   5.013   4.410   1.616
    2PC     H1B13061   5.136   4.295   1.670
    2PC     C3213062   5.034   4.241   1.482
    2PC     H2A13063   4.935   4.201   1.458
    2PC     H2B13064   5.072   4.309   1.405
    2PC     N3113065   5.131   4.128   1.466
    2PC     C3313066   5.270   4.168   1.504
    2PC     H3A13067   5.301   4.253   1.443
    2PC     H3B13068   5.275   4.201   1.608
    2PC     H3C13069   5.342   4.091   1.475
    2PC     C3413070   5.098   4.000   1.538
    2PC     H4A13071   5.061   4.031   1.635
    2PC     H4B13072   5.011   3.963   1.484
    2PC     H4C13073   5.180   3.928   1.537
    2PC     C3513074   5.140   4.089   1.322
    2PC     H5A13075   5.215   4.009   1.321
    2PC     H5B13076   5.172   4.173   1.260
    2PC     H5C13077   5.037   4.065   1.293
    2PC     O3313078   4.694   4.162   1.731
    2PC     O3413079   4.751   4.326   1.573
    2PC     O2113080   4.902   4.594   2.012
    2PC     C2113081   5.020   4.654   1.987
    2PC     O2213082   5.034   4.732   1.895
    3OL     C1213083   5.130   4.618   2.083
    3OL     H2R13084   5.201   4.694   2.048
    3OL     H2S13085   5.170   4.522   2.051
    3OL     C1313086   5.090   4.622   2.231
    3OL     H3R13087   5.022   4.542   2.261
    3OL     H3S13088   5.027   4.711   2.232
    3OL     C1413089   5.207   4.635   2.330
    3OL     H4R13090   5.272   4.716   2.295
    3OL     H4S13091   5.277   4.552   2.334
    3OL     C1513092   5.156   4.662   2.472
    3OL     H5R13093   5.086   4.586   2.506
    3OL     H5S13094   5.091   4.750   2.469
    3OL     C1613095   5.268   4.698   2.569
    3OL     H6R13096   5.330   4.773   2.520
    3OL     H6S13097   5.328   4.609   2.590
    3OL     C1713098   5.213   4.756   2.700
    3OL     H7R13099   5.157   4.685   2.760
    3OL     H7S13100   5.149   4.841   2.676
    3OL     C1813101   5.341   4.791   2.778
    3OL     H8R13102   5.406   4.850   2.713
    3OL     H8S13103   5.407   4.705   2.791
    3OL     C1913104   5.318   4.872   2.903
    3OL     H9R13105   5.258   4.962   2.890
    3OL    C11013106   5.376   4.850   3.020
    3OL    H10R13107   5.375   4.923   3.101
    3OL    C11113108   5.487   4.752   3.047
    3OL    H11R13109   5.582   4.805   3.049
    3OL    H11S13110   5.490   4.676   2.969
    3OL    C11213111   5.479   4.684   3.185
    3OL    H12R13112   5.393   4.616   3.178
    3OL    H12S13113   5.465   4.765   3.257
    3OL    C11313114   5.605   4.610   3.230
    3OL    H13R13115   5.696   4.670   3.226
    3OL    H13S13116   5.622   4.522   3.167
    3OL    C11413117   5.589   4.559   3.374
    3OL    H14R13118   5.547   4.642   3.431
    3OL    H14S13119   5.684   4.536   3.422
    3OL    C11513120   5.491   4.441   3.378
    3OL    H15R13121   5.514   4.357   3.312
    3OL    H15S13122   5.397   4.479   3.335
    3OL    C11613123   5.466   4.387   3.519
    3OL    H16R13124   5.564   4.382   3.567
    3OL    H16S13125   5.418   4.289   3.519
    3OL    C11713126   5.373   4.475   3.603
    3OL    H17R13127   5.280   4.474   3.545
    3OL    H17S13128   5.431   4.568   3.602
    3OL    C11813129   5.342   4.419   3.742
    3OL    H18R13130   5.432   4.376   3.787
    3OL    H18S13131   5.266   4.341   3.739
    3OL    H18T13132   5.315   4.505   3.804
    1PA    C11613133   5.830   4.193   3.839
    1PA    H16R13134   5.902   4.247   3.901
    1PA    H16S13135   5.732   4.184   3.885
    1PA    H16T13136   5.814   4.242   3.742
    1PA    C11513137   5.887   4.052   3.825
    1PA    H15R13138   5.980   4.055   3.767
    1PA    H15S13139   5.912   4.009   3.923
    1PA    C11413140   5.784   3.958   3.762
    1PA    H14R13141   5.709   3.949   3.841
    1PA    H14S13142   5.733   4.004   3.677
    1PA    C11313143   5.846   3.821   3.730
    1PA    H13R13144   5.937   3.834   3.672
    1PA    H13S13145   5.883   3.784   3.826
    1PA    C11213146   5.758   3.716   3.661
    1PA    H12R13147   5.812   3.621   3.661
    1PA    H12S13148   5.672   3.686   3.723
    1PA    C11113149   5.716   3.747   3.517
    1PA    H11R13150   5.674   3.847   3.506
    1PA    H11S13151   5.808   3.755   3.459
    1PA    C11013152   5.627   3.634   3.464
    1PA    H10R13153   5.554   3.598   3.537
    1PA    H10S13154   5.573   3.680   3.381
    1PA     C1913155   5.694   3.501   3.427
    1PA     H9R13156   5.771   3.486   3.504
    1PA     H9S13157   5.624   3.417   3.434
    1PA     C1813158   5.753   3.509   3.286
    1PA     H8R13159   5.678   3.555   3.220
    1PA     H8S13160   5.840   3.574   3.275
    1PA     C1713161   5.779   3.375   3.217
    1PA     H7R13162   5.863   3.332   3.273
    1PA     H7S13163   5.689   3.313   3.219
    1PA     C1613164   5.803   3.406   3.068
    1PA     H6R13165   5.710   3.446   3.026
    1PA     H6S13166   5.885   3.476   3.052
    1PA     C1513167   5.835   3.279   2.989
    1PA     H5R13168   5.913   3.221   3.039
    1PA     H5S13169   5.751   3.213   3.006
    1PA     C1413170   5.873   3.295   2.841
    1PA     H4R13171   5.788   3.326   2.779
    1PA     H4S13172   5.962   3.358   2.838
    1PA     C1313173   5.922   3.161   2.782
    1PA     H3R13174   5.961   3.174   2.681
    1PA     H3S13175   6.006   3.131   2.845
    1PA     C1213176   5.813   3.053   2.777
    1PA     H2R13177   5.876   2.964   2.772
    1PA     H2S13178   5.755   3.057   2.869
    2PC     C1113179   5.711   3.043   2.667
    2PC     O1213180   5.699   3.122   2.575
    2PC     O1113181   5.625   2.941   2.679
    2PC      C113182   5.543   2.913   2.564
    2PC      HR13183   5.464   2.842   2.591
    2PC      HS13184   5.498   3.009   2.539
    2PC      C213185   5.617   2.853   2.443
    2PC      HX13186   5.702   2.917   2.418
    2PC      C313187   5.535   2.830   2.315
    2PC      HA13188   5.479   2.741   2.345
    2PC      HB13189   5.465   2.913   2.306
    2PC     O3113190   5.633   2.801   2.214
    2PC     P3113191   5.586   2.776   2.063
    2PC     O3213192   5.466   2.671   2.076
    2PC     C3113193   5.498   2.538   2.121
    2PC     H1A13194   5.497   2.468   2.037
    2PC     H1B13195   5.597   2.533   2.167
    2PC     C3213196   5.389   2.502   2.222
    2PC     H2A13197   5.365   2.584   2.290
    2PC     H2B13198   5.294   2.482   2.172
    2PC     N3113199   5.414   2.384   2.311
    2PC     C3313200   5.288   2.345   2.383
    2PC     H3A13201   5.215   2.301   2.316
    2PC     H3B13202   5.313   2.266   2.454
    2PC     H3C13203   5.261   2.431   2.444
    2PC     C3413204   5.458   2.259   2.241
    2PC     H4A13205   5.384   2.236   2.164
    2PC     H4B13206   5.557   2.275   2.199
    2PC     H4C13207   5.461   2.168   2.301
    2PC     C3513208   5.522   2.423   2.408
    2PC     H5A13209   5.531   2.335   2.472
    2PC     H5B13210   5.486   2.508   2.465
    2PC     H5C13211   5.620   2.449   2.370
    2PC     O3313212   5.544   2.904   2.002
    2PC     O3413213   5.700   2.722   1.986
    2PC     O2113214   5.667   2.726   2.489
    2PC     C2113215   5.795   2.723   2.529
    2PC     O2213216   5.860   2.821   2.561
    3OL     C1213217   5.838   2.578   2.537
    3OL     H2R13218   5.837   2.547   2.433
    3OL     H2S13219   5.766   2.519   2.593
    3OL     C1313220   5.982   2.569   2.591
    3OL     H3R13221   5.985   2.593   2.698
    3OL     H3S13222   6.041   2.634   2.526
    3OL     C1413223   6.026   2.423   2.579
    3OL     H4R13224   6.010   2.383   2.479
    3OL     H4S13225   5.971   2.368   2.656
    3OL     C1513226   6.170   2.388   2.617
    3OL     H5R13227   6.246   2.407   2.541
    3OL     H5S13228   6.183   2.280   2.627
    3OL     C1613229   6.214   2.453   2.749
    3OL     H6R13230   6.140   2.427   2.826
    3OL     H6S13231   6.199   2.561   2.738
    3OL     C1713232   6.351   2.398   2.789
    3OL     H7R13233   6.415   2.407   2.701
    3OL     H7S13234   6.352   2.291   2.808
    3OL     C1813235   6.406   2.494   2.896
    3OL     H8R13236   6.358   2.490   2.994
    3OL     H8S13237   6.390   2.592   2.850
    3OL     C1913238   0.066   2.469   2.923
    3OL     H9R13239   0.124   2.525   2.850
    3OL    C11013240   0.126   2.395   3.015
    3OL    H10R13241   0.234   2.395   3.021
    3OL    C11113242   0.059   2.317   3.125
    3OL    H11R13243   6.439   2.328   3.104
    3OL    H11S13244   0.088   2.374   3.214
    3OL    C11213245   0.091   2.167   3.139
    3OL    H12R13246   0.079   2.112   3.046
    3OL    H12S13247   0.018   2.126   3.208
    3OL    C11313248   0.230   2.142   3.201
    3OL    H13R13249   0.311   2.183   3.141
    3OL    H13S13250   0.241   2.033   3.192
    3OL    C11413251   0.252   2.186   3.346
    3OL    H14R13252   0.167   2.146   3.402
    3OL    H14S13253   0.255   2.295   3.348
    3OL    C11513254   0.378   2.125   3.411
    3OL    H15R13255   0.397   2.030   3.361
    3OL    H15S13256   0.354   2.108   3.516
    3OL    C11613257   0.497   2.220   3.391
    3OL    H16R13258   0.467   2.315   3.435
    3OL    H16S13259   0.528   2.239   3.288
    3OL    C11713260   0.622   2.177   3.469
    3OL    H17R13261   0.665   2.084   3.431
    3OL    H17S13262   0.591   2.176   3.574
    3OL    C11813263   0.724   2.290   3.453
    3OL    H18R13264   0.813   2.259   3.508
    3OL    H18S13265   0.687   2.388   3.485
    3OL    H18T13266   0.750   2.310   3.349
    1PA    C11613267   3.315   0.123   3.909
    1PA    H16R13268   3.297   0.182   3.999
    1PA    H16S13269   3.387   0.044   3.931
    1PA    H16T13270   3.221   0.074   3.881
    1PA    C11513271   3.355   0.208   3.788
    1PA    H15R13272   3.458   0.246   3.789
    1PA    H15S13273   3.354   0.133   3.708
    1PA    C11413274   3.254   0.318   3.754
    1PA    H14R13275   3.154   0.276   3.748
    1PA    H14S13276   3.254   0.386   3.840
    1PA    C11313277   3.289   0.383   3.618
    1PA    H13R13278   3.386   0.428   3.641
    1PA    H13S13279   3.295   0.317   3.531
    1PA    C11213280   3.185   0.494   3.596
    1PA    H12R13281   3.086   0.450   3.599
    1PA    H12S13282   3.205   0.563   3.678
    1PA    C11113283   3.196   0.563   3.459
    1PA    H11R13284   3.181   0.495   3.375
    1PA    H11S13285   3.111   0.630   3.459
    1PA    C11013286   3.330   0.637   3.444
    1PA    H10R13287   3.336   0.715   3.521
    1PA    H10S13288   3.416   0.570   3.453
    1PA     C1913289   3.340   0.704   3.307
    1PA     H9R13290   3.329   0.637   3.222
    1PA     H9S13291   3.256   0.771   3.289
    1PA     C1813292   3.475   0.773   3.282
    1PA     H8R13293   3.460   0.844   3.201
    1PA     H8S13294   3.511   0.828   3.370
    1PA     C1713295   3.583   0.671   3.242
    1PA     H7R13296   3.616   0.623   3.335
    1PA     H7S13297   3.545   0.593   3.176
    1PA     C1613298   3.707   0.736   3.179
    1PA     H6R13299   3.710   0.834   3.229
    1PA     H6S13300   3.798   0.678   3.185
    1PA     C1513301   3.680   0.758   3.030
    1PA     H5R13302   3.576   0.790   3.017
    1PA     H5S13303   3.741   0.845   3.002
    1PA     C1413304   3.704   0.638   2.937
    1PA     H4R13305   3.798   0.587   2.958
    1PA     H4S13306   3.623   0.567   2.950
    1PA     C1313307   3.698   0.686   2.791
    1PA     H3R13308   3.607   0.743   2.770
    1PA     H3S13309   3.777   0.760   2.783
    1PA     C1213310   3.719   0.572   2.691
    1PA     H2R13311   3.824   0.542   2.692
    1PA     H2S13312   3.664   0.481   2.718
    2PC     C1113313   3.683   0.602   2.548
    2PC     O1213314   3.763   0.642   2.467
    2PC     O1113315   3.552   0.593   2.517
    2PC      C113316   3.514   0.592   2.378
    2PC      HR13317   3.406   0.584   2.372
    2PC      HS13318   3.549   0.684   2.330
    2PC      C213319   3.586   0.479   2.303
    2PC      HX13320   3.693   0.498   2.294
    2PC      C313321   3.532   0.452   2.162
    2PC      HA13322   3.593   0.502   2.087
    2PC      HB13323   3.531   0.343   2.150
    2PC     O3113324   3.395   0.492   2.147
    2PC     P3113325   3.319   0.455   2.010
    2PC     O3213326   3.170   0.419   2.057
    2PC     C3113327   3.132   0.287   2.097
    2PC     H1A13328   3.184   0.211   2.038
    2PC     H1B13329   3.165   0.276   2.201
    2PC     C3213330   2.979   0.271   2.086
    2PC     H2A13331   2.952   0.171   2.117
    2PC     H2B13332   2.923   0.328   2.161
    2PC     N3113333   2.912   0.272   1.952
    2PC     C3313334   2.775   0.211   1.955
    2PC     H3A13335   2.709   0.277   2.011
    2PC     H3B13336   2.730   0.202   1.857
    2PC     H3C13337   2.782   0.114   2.006
    2PC     C3413338   2.904   0.416   1.913
    2PC     H4A13339   2.863   0.432   1.813
    2PC     H4B13340   2.852   0.468   1.993
    2PC     H4C13341   3.009   0.442   1.903
    2PC     C3513342   2.989   0.196   1.847
    2PC     H5A13343   2.941   0.202   1.749
    2PC     H5B13344   3.009   0.093   1.878
    2PC     H5C13345   3.087   0.241   1.830
    2PC     O3313346   3.325   0.562   1.908
    2PC     O3413347   3.404   0.356   1.941
    2PC     O2113348   3.563   0.356   2.374
    2PC     C2113349   3.653   0.293   2.450
    2PC     O2213350   3.766   0.332   2.472
    3OL     C1213351   3.593   0.178   2.527
    3OL     H2R13352   3.642   0.175   2.625
    3OL     H2S13353   3.627   0.091   2.471
    3OL     C1313354   3.441   0.187   2.549
    3OL     H3R13355   3.406   0.094   2.594
    3OL     H3S13356   3.401   0.198   2.448
    3OL     C1413357   3.401   0.309   2.632
    3OL     H4R13358   3.293   0.325   2.637
    3OL     H4S13359   3.438   0.401   2.585
    3OL     C1513360   3.428   0.290   2.782
    3OL     H5R13361   3.532   0.270   2.809
    3OL     H5S13362   3.367   0.203   2.808
    3OL     C1613363   3.381   0.412   2.862
    3OL     H6R13364   3.282   0.436   2.821
    3OL     H6S13365   3.455   0.488   2.839
    3OL     C1713366   3.386   0.372   3.010
    3OL     H7R13367   3.384   0.465   3.068
    3OL     H7S13368   3.473   0.315   3.043
    3OL     C1813369   3.255   0.306   3.054
    3OL     H8R13370   3.174   0.334   2.988
    3OL     H8S13371   3.227   0.341   3.154
    3OL     C1913372   3.262   0.155   3.059
    3OL     H9R13373   3.284   0.102   2.967
    3OL    C11013374   3.250   0.080   3.168
    3OL    H10R13375   3.261   6.459   3.164
    3OL    C11113376   3.200   0.114   3.306
    3OL    H11R13377   3.153   0.213   3.306
    3OL    H11S13378   3.287   0.130   3.371
    3OL    C11213379   3.117   6.486   3.367
    3OL    H12R13380   3.168   6.390   3.351
    3OL    H12S13381   3.017   6.479   3.323
    3OL    C11313382   3.105   0.022   3.518
    3OL    H13R13383   3.061   0.120   3.537
    3OL    H13S13384   3.200   0.017   3.571
    3OL    C11413385   3.033   6.386   3.576
    3OL    H14R13386   3.093   6.295   3.562
    3OL    H14S13387   2.938   6.358   3.530
    3OL    C11513388   3.009   6.415   3.724
    3OL    H15R13389   2.946   0.015   3.746
    3OL    H15S13390   3.106   6.425   3.773
    3OL    C11613391   2.937   6.301   3.798
    3OL    H16R13392   2.996   6.209   3.796
    3OL    H16S13393   2.838   6.275   3.760
    3OL    C11713394   2.929   6.327   3.950
    3OL    H17R13395   3.033   6.342   3.981
    3OL    H17S13396   2.885   6.242   4.003
    3OL    C11813397   2.860   6.456   3.994
    3OL    H18R13398   2.906   0.062   3.956
    3OL    H18S13399   2.871   6.460   4.102
    3OL    H18T13400   2.761   6.451   3.947
    1PA    C11613401   0.152   4.466   3.434
    1PA    H16R13402   0.050   4.433   3.412
    1PA    H16S13403   0.149   4.556   3.497
    1PA    H16T13404   0.202   4.385   3.487
    1PA    C11513405   0.228   4.500   3.305
    1PA    H15R13406   0.223   4.411   3.241
    1PA    H15S13407   0.169   4.575   3.253
    1PA    C11413408   0.372   4.551   3.324
    1PA    H14R13409   0.361   4.654   3.358
    1PA    H14S13410   0.426   4.492   3.398
    1PA    C11313411   0.437   4.568   3.186
    1PA    H13R13412   0.459   4.468   3.148
    1PA    H13S13413   0.371   4.608   3.110
    1PA    C11213414   0.560   4.659   3.198
    1PA    H12R13415   0.528   4.763   3.207
    1PA    H12S13416   0.616   4.625   3.285
    1PA    C11113417   0.639   4.653   3.066
    1PA    H11R13418   0.561   4.646   2.990
    1PA    H11S13419   0.689   4.750   3.060
    1PA    C11013420   0.734   4.534   3.049
    1PA    H10R13421   0.793   4.528   3.141
    1PA    H10S13422   0.675   4.442   3.051
    1PA     C1913423   0.821   4.539   2.923
    1PA     H9R13424   0.857   4.643   2.921
    1PA     H9S13425   0.902   4.466   2.922
    1PA     C1813426   0.756   4.531   2.784
    1PA     H8R13427   0.696   4.440   2.771
    1PA     H8S13428   0.676   4.605   2.780
    1PA     C1713429   0.851   4.558   2.667
    1PA     H7R13430   0.928   4.481   2.669
    1PA     H7S13431   0.788   4.542   2.579
    1PA     C1613432   0.938   4.684   2.658
    1PA     H6R13433   1.015   4.683   2.736
    1PA     H6S13434   1.003   4.676   2.571
    1PA     C1513435   0.857   4.812   2.640
    1PA     H5R13436   0.814   4.806   2.540
    1PA     H5S13437   0.775   4.811   2.713
    1PA     C1413438   0.943   4.937   2.667
    1PA     H4R13439   0.988   4.940   2.766
    1PA     H4S13440   1.027   4.939   2.597
    1PA     C1313441   0.853   5.059   2.644
    1PA     H3R13442   0.793   5.057   2.553
    1PA     H3S13443   0.780   5.062   2.725
    1PA     C1213444   0.918   5.198   2.649
    1PA     H2R13445   0.949   5.216   2.752
    1PA     H2S13446   1.005   5.218   2.586
    2PC     C1113447   0.826   5.316   2.627
    2PC     O1213448   0.722   5.310   2.688
    2PC     O1113449   0.867   5.410   2.539
    2PC      C113450   0.776   5.518   2.510
    2PC      HR13451   0.707   5.484   2.433
    2PC      HS13452   0.732   5.547   2.606
    2PC      C213453   0.849   5.641   2.454
    2PC      HX13454   0.773   5.698   2.401
    2PC      C313455   0.966   5.595   2.366
    2PC      HA13456   1.052   5.580   2.433
    2PC      HB13457   0.947   5.498   2.320
    2PC     O3113458   0.996   5.690   2.262
    2PC     P3113459   1.107   5.649   2.154
    2PC     O3213460   1.023   5.613   2.023
    2PC     C3113461   1.024   5.485   1.959
    2PC     H1A13462   1.128   5.460   1.933
    2PC     H1B13463   0.989   5.409   2.030
    2PC     C3213464   0.922   5.491   1.845
    2PC     H2A13465   0.861   5.400   1.840
    2PC     H2B13466   0.861   5.581   1.852
    2PC     N3113467   0.973   5.511   1.706
    2PC     C3313468   1.059   5.393   1.670
    2PC     H3A13469   1.135   5.396   1.748
    2PC     H3B13470   0.990   5.308   1.679
    2PC     H3C13471   1.101   5.396   1.570
    2PC     C3413472   0.861   5.522   1.607
    2PC     H4A13473   0.814   5.423   1.602
    2PC     H4B13474   0.793   5.601   1.636
    2PC     H4C13475   0.915   5.554   1.518
    2PC     C3513476   1.043   5.643   1.695
    2PC     H5A13477   1.131   5.642   1.760
    2PC     H5B13478   0.977   5.726   1.718
    2PC     H5C13479   1.084   5.639   1.594
    2PC     O3313480   1.208   5.747   2.107
    2PC     O3413481   1.192   5.530   2.178
    2PC     O2113482   0.901   5.722   2.561
    2PC     C2113483   0.929   5.852   2.545
    2PC     O2213484   0.906   5.914   2.443
    3OL     C1213485   1.004   5.916   2.660
    3OL     H2R13486   0.923   5.969   2.709
    3OL     H2S13487   1.070   5.991   2.616
    3OL     C1313488   1.075   5.824   2.760
    3OL     H3R13489   0.999   5.752   2.788
    3OL     H3S13490   1.116   5.869   2.852
    3OL     C1413491   1.196   5.766   2.686
    3OL     H4R13492   1.267   5.838   2.644
    3OL     H4S13493   1.168   5.708   2.598
    3OL     C1513494   1.264   5.661   2.774
    3OL     H5R13495   1.190   5.585   2.801
    3OL     H5S13496   1.281   5.711   2.869
    3OL     C1613497   1.397   5.615   2.712
    3OL     H6R13498   1.459   5.703   2.693
    3OL     H6S13499   1.370   5.560   2.621
    3OL     C1713500   1.463   5.528   2.820
    3OL     H7R13501   1.409   5.440   2.854
    3OL     H7S13502   1.468   5.587   2.913
    3OL     C1813503   1.608   5.483   2.797
    3OL     H8R13504   1.604   5.399   2.727
    3OL     H8S13505   1.650   5.452   2.892
    3OL     C1913506   1.697   5.588   2.734
    3OL     H9R13507   1.699   5.600   2.627
    3OL    C11013508   1.786   5.650   2.810
    3OL    H10R13509   1.865   5.712   2.769
    3OL    C11113510   1.776   5.654   2.960
    3OL    H11R13511   1.787   5.558   3.011
    3OL    H11S13512   1.670   5.674   2.978
    3OL    C11213513   1.873   5.757   3.021
    3OL    H12R13514   1.843   5.856   2.986
    3OL    H12S13515   1.974   5.746   2.982
    3OL    C11313516   1.878   5.746   3.174
    3OL    H13R13517   1.889   5.643   3.210
    3OL    H13S13518   1.792   5.785   3.228
    3OL    C11413519   1.997   5.826   3.229
    3OL    H14R13520   1.988   5.920   3.174
    3OL    H14S13521   2.088   5.771   3.207
    3OL    C11513522   1.990   5.855   3.380
    3OL    H15R13523   1.990   5.759   3.431
    3OL    H15S13524   1.899   5.911   3.402
    3OL    C11613525   2.117   5.924   3.433
    3OL    H16R13526   2.210   5.892   3.387
    3OL    H16S13527   2.130   5.910   3.540
    3OL    C11713528   2.106   6.076   3.411
    3OL    H17R13529   2.023   6.116   3.468
    3OL    H17S13530   2.085   6.092   3.305
    3OL    C11813531   2.239   6.136   3.457
    3OL    H18R13532   2.256   6.238   3.422
    3OL    H18S13533   2.324   6.089   3.409
    3OL    H18T13534   2.262   6.116   3.562
    1PA    C11613535   3.651   1.657   3.649
    1PA    H16R13536   3.749   1.670   3.603
    1PA    H16S13537   3.621   1.552   3.640
    1PA    H16T13538   3.654   1.679   3.756
    1PA    C11513539   3.550   1.753   3.584
    1PA    H15R13540   3.453   1.737   3.631
    1PA    H15S13541   3.589   1.850   3.615
    1PA    C11413542   3.555   1.748   3.430
    1PA    H14R13543   3.658   1.748   3.393
    1PA    H14S13544   3.499   1.657   3.408
    1PA    C11313545   3.479   1.859   3.357
    1PA    H13R13546   3.372   1.847   3.377
    1PA    H13S13547   3.508   1.956   3.398
    1PA    C11213548   3.491   1.845   3.205
    1PA    H12R13549   3.473   1.742   3.175
    1PA    H12S13550   3.410   1.904   3.161
    1PA    C11113551   3.629   1.880   3.148
    1PA    H11R13552   3.703   1.809   3.187
    1PA    H11S13553   3.635   1.867   3.040
    1PA    C11013554   3.677   2.024   3.173
    1PA    H10R13555   3.604   2.091   3.127
    1PA    H10S13556   3.678   2.035   3.282
    1PA     C1913557   3.818   2.046   3.116
    1PA     H9R13558   3.895   2.009   3.183
    1PA     H9S13559   3.830   1.982   3.028
    1PA     C1813560   3.860   2.194   3.105
    1PA     H8R13561   3.792   2.244   3.035
    1PA     H8S13562   3.847   2.227   3.208
    1PA     C1713563   4.005   2.221   3.065
    1PA     H7R13564   4.038   2.317   3.105
    1PA     H7S13565   4.074   2.157   3.120
    1PA     C1613566   4.031   2.193   2.916
    1PA     H6R13567   4.133   2.155   2.904
    1PA     H6S13568   3.969   2.113   2.874
    1PA     C1513569   4.036   2.321   2.832
    1PA     H5R13570   3.945   2.378   2.853
    1PA     H5S13571   4.118   2.382   2.870
    1PA     C1413572   4.053   2.284   2.684
    1PA     H4R13573   4.146   2.227   2.681
    1PA     H4S13574   3.968   2.220   2.660
    1PA     C1313575   4.062   2.412   2.599
    1PA     H3R13576   3.966   2.463   2.605
    1PA     H3S13577   4.133   2.485   2.639
    1PA     C1213578   4.096   2.386   2.451
    1PA     H2R13579   4.189   2.333   2.432
    1PA     H2S13580   4.016   2.329   2.403
    2PC     C1113581   4.091   2.510   2.365
    2PC     O1213582   4.090   2.511   2.244
    2PC     O1113583   4.091   2.624   2.436
    2PC      C113584   4.101   2.751   2.368
    2PC      HR13585   4.141   2.829   2.433
    2PC      HS13586   4.171   2.730   2.286
    2PC      C213587   3.965   2.788   2.306
    2PC      HX13588   3.920   2.704   2.253
    2PC      C313589   3.977   2.890   2.191
    2PC      HA13590   3.968   2.991   2.232
    2PC      HB13591   4.076   2.890   2.146
    2PC     O3113592   3.868   2.876   2.097
    2PC     P3113593   3.861   2.983   1.979
    2PC     O3213594   3.702   2.988   1.963
    2PC     C3113595   3.654   3.083   1.866
    2PC     H1A13596   3.681   3.187   1.888
    2PC     H1B13597   3.714   3.067   1.777
    2PC     C3213598   3.504   3.062   1.840
    2PC     H2A13599   3.448   3.050   1.933
    2PC     H2B13600   3.465   3.147   1.784
    2PC     N3113601   3.457   2.958   1.742
    2PC     C3313602   3.511   2.971   1.603
    2PC     H3A13603   3.457   2.910   1.531
    2PC     H3B13604   3.515   3.077   1.577
    2PC     H3C13605   3.610   2.924   1.606
    2PC     C3413606   3.505   2.827   1.797
    2PC     H4A13607   3.468   2.742   1.740
    2PC     H4B13608   3.614   2.830   1.790
    2PC     H4C13609   3.475   2.819   1.902
    2PC     C3513610   3.308   2.967   1.731
    2PC     H5A13611   3.283   2.886   1.662
    2PC     H5B13612   3.277   3.065   1.694
    2PC     H5C13613   3.262   2.932   1.824
    2PC     O3313614   3.898   3.122   2.014
    2PC     O3413615   3.931   2.948   1.853
    2PC     O2113616   3.886   2.839   2.415
    2PC     C2113617   3.817   2.745   2.482
    2PC     O2213618   3.765   2.647   2.433
    3OL     C1213619   3.781   2.792   2.621
    3OL     H2R13620   3.679   2.766   2.649
    3OL     H2S13621   3.801   2.897   2.639
    3OL     C1313622   3.870   2.717   2.721
    3OL     H3R13623   3.975   2.722   2.690
    3OL     H3S13624   3.845   2.612   2.707
    3OL     C1413625   3.844   2.756   2.867
    3OL     H4R13626   3.742   2.732   2.898
    3OL     H4S13627   3.853   2.865   2.868
    3OL     C1513628   3.941   2.689   2.964
    3OL     H5R13629   4.042   2.720   2.936
    3OL     H5S13630   3.934   2.581   2.945
    3OL     C1613631   3.920   2.716   3.114
    3OL     H6R13632   4.003   2.684   3.178
    3OL     H6S13633   3.832   2.660   3.144
    3OL     C1713634   3.891   2.863   3.148
    3OL     H7R13635   3.800   2.885   3.092
    3OL     H7S13636   3.975   2.927   3.120
    3OL     C1813637   3.857   2.885   3.296
    3OL     H8R13638   3.948   2.860   3.352
    3OL     H8S13639   3.788   2.805   3.324
    3OL     C1913640   3.796   3.022   3.314
    3OL     H9R13641   3.696   3.032   3.274
    3OL    C11013642   3.845   3.126   3.380
    3OL    H10R13643   3.786   3.217   3.394
    3OL    C11113644   3.977   3.123   3.451
    3OL    H11R13645   4.007   3.019   3.468
    3OL    H11S13646   3.968   3.174   3.548
    3OL    C11213647   4.078   3.194   3.360
    3OL    H12R13648   4.031   3.291   3.343
    3OL    H12S13649   4.075   3.148   3.261
    3OL    C11313650   4.222   3.194   3.411
    3OL    H13R13651   4.228   3.255   3.501
    3OL    H13S13652   4.283   3.245   3.336
    3OL    C11413653   4.272   3.051   3.438
    3OL    H14R13654   4.276   2.993   3.346
    3OL    H14S13655   4.210   2.994   3.507
    3OL    C11513656   4.415   3.045   3.493
    3OL    H15R13657   4.491   3.086   3.426
    3OL    H15S13658   4.447   2.941   3.505
    3OL    C11613659   4.429   3.111   3.631
    3OL    H16R13660   4.360   3.051   3.690
    3OL    H16S13661   4.400   3.216   3.623
    3OL    C11713662   4.576   3.100   3.675
    3OL    H17R13663   4.630   3.194   3.668
    3OL    H17S13664   4.635   3.030   3.615
    3OL    C11813665   4.567   3.046   3.818
    3OL    H18R13666   4.493   3.098   3.880
    3OL    H18S13667   4.667   3.052   3.862
    3OL    H18T13668   4.538   2.941   3.812
    1PA    C11613669   4.374   2.249   3.913
    1PA    H16R13670   4.382   2.225   3.807
    1PA    H16S13671   4.328   2.348   3.924
    1PA    H16T13672   4.303   2.173   3.946
    1PA    C11513673   4.505   2.241   3.992
    1PA    H15R13674   4.487   2.281   4.092
    1PA    H15S13675   4.551   2.142   3.993
    1PA    C11413676   4.606   2.332   3.921
    1PA    H14R13677   4.554   2.427   3.906
    1PA    H14S13678   4.698   2.351   3.978
    1PA    C11313679   4.640   2.281   3.780
    1PA    H13R13680   4.559   2.231   3.727
    1PA    H13S13681   4.674   2.370   3.725
    1PA    C11213682   4.748   2.172   3.784
    1PA    H12R13683   4.823   2.207   3.855
    1PA    H12S13684   4.706   2.078   3.819
    1PA    C11113685   4.819   2.151   3.650
    1PA    H11R13686   4.889   2.231   3.625
    1PA    H11S13687   4.889   2.068   3.662
    1PA    C11013688   4.728   2.134   3.527
    1PA    H10R13689   4.647   2.066   3.552
    1PA    H10S13690   4.691   2.233   3.497
    1PA     C1913691   4.796   2.052   3.417
    1PA     H9R13692   4.889   2.105   3.396
    1PA     H9S13693   4.839   1.964   3.465
    1PA     C1813694   4.712   2.016   3.293
    1PA     H8R13695   4.653   1.936   3.339
    1PA     H8S13696   4.646   2.101   3.272
    1PA     C1713697   4.796   1.959   3.179
    1PA     H7R13698   4.857   2.037   3.132
    1PA     H7S13699   4.858   1.875   3.210
    1PA     C1613700   4.701   1.913   3.068
    1PA     H6R13701   4.644   1.824   3.093
    1PA     H6S13702   4.619   1.977   3.034
    1PA     C1513703   4.780   1.866   2.945
    1PA     H5R13704   4.832   1.951   2.900
    1PA     H5S13705   4.867   1.810   2.981
    1PA     C1413706   4.706   1.778   2.843
    1PA     H4R13707   4.683   1.681   2.887
    1PA     H4S13708   4.610   1.828   2.827
    1PA     C1313709   4.769   1.764   2.704
    1PA     H3R13710   4.878   1.758   2.707
    1PA     H3S13711   4.734   1.676   2.649
    1PA     C1213712   4.727   1.887   2.621
    1PA     H2R13713   4.619   1.902   2.613
    1PA     H2S13714   4.768   1.970   2.679
    2PC     C1113715   4.792   1.891   2.486
    2PC     O1213716   4.757   1.828   2.388
    2PC     O1113717   4.913   1.950   2.492
    2PC      C113718   4.985   1.970   2.369
    2PC      HR13719   4.975   1.880   2.308
    2PC      HS13720   4.955   2.061   2.316
    2PC      C213721   5.130   1.983   2.417
    2PC      HX13722   5.135   2.070   2.484
    2PC      C313723   5.222   1.989   2.294
    2PC      HA13724   5.228   2.095   2.267
    2PC      HB13725   5.322   1.956   2.322
    2PC     O3113726   5.168   1.921   2.180
    2PC     P3113727   5.258   1.929   2.047
    2PC     O3213728   5.327   1.785   2.056
    2PC     C3113729   5.258   1.669   2.006
    2PC     H1A13730   5.151   1.668   2.028
    2PC     H1B13731   5.260   1.669   1.896
    2PC     C3213732   5.333   1.552   2.072
    2PC     H2A13733   5.308   1.454   2.032
    2PC     H2B13734   5.439   1.577   2.070
    2PC     N3113735   5.313   1.522   2.217
    2PC     C3313736   5.381   1.393   2.250
    2PC     H3A13737   5.338   1.305   2.202
    2PC     H3B13738   5.490   1.390   2.243
    2PC     H3C13739   5.345   1.373   2.351
    2PC     C3413740   5.371   1.628   2.306
    2PC     H4A13741   5.377   1.589   2.407
    2PC     H4B13742   5.471   1.638   2.265
    2PC     H4C13743   5.308   1.717   2.311
    2PC     C3513744   5.165   1.509   2.240
    2PC     H5A13745   5.116   1.439   2.173
    2PC     H5B13746   5.129   1.611   2.229
    2PC     H5C13747   5.154   1.485   2.346
    2PC     O3313748   5.175   1.926   1.925
    2PC     O3413749   5.343   2.048   2.025
    2PC     O2113750   5.164   1.864   2.490
    2PC     C2113751   5.178   1.867   2.624
    2PC     O2213752   5.191   1.963   2.697
    3OL     C1213753   5.187   1.728   2.681
    3OL     H2R13754   5.276   1.680   2.640
    3OL     H2S13755   5.106   1.662   2.648
    3OL     C1313756   5.200   1.734   2.833
    3OL     H3R13757   5.131   1.807   2.877
    3OL     H3S13758   5.301   1.766   2.859
    3OL     C1413759   5.165   1.594   2.887
    3OL     H4R13760   5.213   1.514   2.831
    3OL     H4S13761   5.058   1.575   2.885
    3OL     C1513762   5.215   1.584   3.032
    3OL     H5R13763   5.138   1.630   3.094
    3OL     H5S13764   5.312   1.633   3.042
    3OL     C1613765   5.255   1.441   3.070
    3OL     H6R13766   5.299   1.452   3.170
    3OL     H6S13767   5.332   1.398   3.006
    3OL     C1713768   5.149   1.330   3.079
    3OL     H7R13769   5.095   1.336   2.984
    3OL     H7S13770   5.080   1.343   3.163
    3OL     C1813771   5.216   1.193   3.094
    3OL     H8R13772   5.285   1.167   3.013
    3OL     H8S13773   5.132   1.124   3.108
    3OL     C1913774   5.292   1.187   3.224
    3OL     H9R13775   5.398   1.212   3.222
    3OL    C11013776   5.236   1.152   3.339
    3OL    H10R13777   5.306   1.151   3.422
    3OL    C11113778   5.094   1.114   3.369
    3OL    H11R13779   5.102   1.009   3.399
    3OL    H11S13780   5.024   1.120   3.285
    3OL    C11213781   5.034   1.191   3.487
    3OL    H12R13782   5.050   1.296   3.460
    3OL    H12S13783   5.084   1.175   3.582
    3OL    C11313784   4.885   1.165   3.512
    3OL    H13R13785   4.881   1.063   3.552
    3OL    H13S13786   4.827   1.162   3.419
    3OL    C11413787   4.825   1.246   3.628
    3OL    H14R13788   4.853   1.349   3.608
    3OL    H14S13789   4.878   1.228   3.722
    3OL    C11513790   4.674   1.222   3.634
    3OL    H15R13791   4.653   1.117   3.657
    3OL    H15S13792   4.623   1.227   3.537
    3OL    C11613793   4.601   1.322   3.725
    3OL    H16R13794   4.614   1.425   3.691
    3OL    H16S13795   4.633   1.300   3.826
    3OL    C11713796   4.449   1.302   3.716
    3OL    H17R13797   4.411   1.274   3.618
    3OL    H17S13798   4.391   1.390   3.743
    3OL    C11813799   4.401   1.197   3.817
    3OL    H18R13800   4.433   1.100   3.779
    3OL    H18S13801   4.293   1.198   3.835
    3OL    H18T13802   4.460   1.211   3.907
    1PA    C11613803   2.243   3.350   4.137
    1PA    H16R13804   2.312   3.267   4.120
    1PA    H16S13805   2.172   3.342   4.220
    1PA    H16T13806   2.314   3.432   4.156
    1PA    C11513807   2.173   3.350   4.001
    1PA    H15R13808   2.126   3.253   3.984
    1PA    H15S13809   2.098   3.428   3.990
    1PA    C11413810   2.282   3.359   3.893
    1PA    H14R13811   2.377   3.317   3.927
    1PA    H14S13812   2.244   3.307   3.805
    1PA    C11313813   2.313   3.506   3.860
    1PA    H13R13814   2.219   3.558   3.839
    1PA    H13S13815   2.353   3.555   3.949
    1PA    C11213816   2.419   3.519   3.749
    1PA    H12R13817   2.436   3.627   3.743
    1PA    H12S13818   2.516   3.479   3.776
    1PA    C11113819   2.379   3.472   3.609
    1PA    H11R13820   2.350   3.367   3.617
    1PA    H11S13821   2.282   3.520   3.595
    1PA    C11013822   2.496   3.485   3.510
    1PA    H10R13823   2.544   3.583   3.504
    1PA    H10S13824   2.565   3.406   3.540
    1PA     C1913825   2.448   3.443   3.371
    1PA     H9R13826   2.422   3.338   3.371
    1PA     H9S13827   2.361   3.506   3.348
    1PA     C1813828   2.560   3.455   3.266
    1PA     H8R13829   2.592   3.560   3.266
    1PA     H8S13830   2.647   3.394   3.293
    1PA     C1713831   2.527   3.426   3.119
    1PA     H7R13832   2.464   3.339   3.102
    1PA     H7S13833   2.481   3.518   3.083
    1PA     C1613834   2.654   3.400   3.037
    1PA     H6R13835   2.698   3.303   3.063
    1PA     H6S13836   2.627   3.403   2.931
    1PA     C1513837   2.766   3.502   3.058
    1PA     H5R13838   2.777   3.514   3.166
    1PA     H5S13839   2.854   3.452   3.019
    1PA     C1413840   2.736   3.641   3.000
    1PA     H4R13841   2.645   3.671   3.052
    1PA     H4S13842   2.820   3.707   3.024
    1PA     C1313843   2.719   3.656   2.848
    1PA     H3R13844   2.796   3.590   2.808
    1PA     H3S13845   2.621   3.612   2.826
    1PA     C1213846   2.730   3.800   2.798
    1PA     H2R13847   2.656   3.859   2.853
    1PA     H2S13848   2.831   3.830   2.831
    2PC     C1113849   2.715   3.820   2.650
    2PC     O1213850   2.805   3.844   2.573
    2PC     O1113851   2.585   3.812   2.614
    2PC      C113852   2.568   3.830   2.473
    2PC      HR13853   2.462   3.849   2.454
    2PC      HS13854   2.624   3.920   2.444
    2PC      C213855   2.610   3.703   2.397
    2PC      HX13856   2.713   3.681   2.424
    2PC      C313857   2.593   3.722   2.245
    2PC      HA13858   2.492   3.706   2.206
    2PC      HB13859   2.628   3.815   2.200
    2PC     O3113860   2.681   3.622   2.193
    2PC     P3113861   2.668   3.595   2.035
    2PC     O3213862   2.724   3.726   1.962
    2PC     C3113863   2.632   3.777   1.865
    2PC     H1A13864   2.605   3.692   1.802
    2PC     H1B13865   2.546   3.825   1.913
    2PC     C3213866   2.715   3.875   1.782
    2PC     H2A13867   2.647   3.950   1.740
    2PC     H2B13868   2.796   3.914   1.844
    2PC     N3113869   2.781   3.808   1.665
    2PC     C3313870   2.875   3.905   1.600
    2PC     H3A13871   2.914   3.861   1.509
    2PC     H3B13872   2.822   3.988   1.553
    2PC     H3C13873   2.953   3.928   1.673
    2PC     C3413874   2.863   3.689   1.702
    2PC     H4A13875   2.915   3.653   1.612
    2PC     H4B13876   2.944   3.708   1.773
    2PC     H4C13877   2.794   3.618   1.748
    2PC     C3513878   2.669   3.780   1.569
    2PC     H5A13879   2.592   3.716   1.613
    2PC     H5B13880   2.711   3.731   1.481
    2PC     H5C13881   2.633   3.878   1.538
    2PC     O3313882   2.748   3.479   1.989
    2PC     O3413883   2.530   3.557   1.996
    2PC     O2113884   2.516   3.601   2.435
    2PC     C2113885   2.557   3.473   2.427
    2PC     O2213886   2.669   3.440   2.394
    3OL     C1213887   2.449   3.374   2.459
    3OL     H2R13888   2.466   3.286   2.397
    3OL     H2S13889   2.350   3.418   2.449
    3OL     C1313890   2.473   3.327   2.603
    3OL     H3R13891   2.445   3.412   2.666
    3OL     H3S13892   2.578   3.299   2.618
    3OL     C1413893   2.378   3.211   2.635
    3OL     H4R13894   2.403   3.133   2.563
    3OL     H4S13895   2.275   3.241   2.615
    3OL     C1513896   2.395   3.159   2.779
    3OL     H5R13897   2.502   3.172   2.798
    3OL     H5S13898   2.373   3.054   2.796
    3OL     C1613899   2.321   3.247   2.880
    3OL     H6R13900   2.343   3.353   2.872
    3OL     H6S13901   2.362   3.219   2.978
    3OL     C1713902   2.172   3.212   2.894
    3OL     H7R13903   2.156   3.111   2.933
    3OL     H7S13904   2.129   3.204   2.794
    3OL     C1813905   2.092   3.317   2.973
    3OL     H8R13906   1.985   3.296   2.970
    3OL     H8S13907   2.104   3.417   2.929
    3OL     C1913908   2.148   3.317   3.113
    3OL     H9R13909   2.214   3.235   3.139
    3OL    C11013910   2.097   3.396   3.206
    3OL    H10R13911   2.127   3.388   3.310
    3OL    C11113912   2.000   3.506   3.168
    3OL    H11R13913   1.917   3.455   3.119
    3OL    H11S13914   2.053   3.571   3.097
    3OL    C11213915   1.949   3.583   3.291
    3OL    H12R13916   1.885   3.523   3.357
    3OL    H12S13917   1.882   3.658   3.249
    3OL    C11313918   2.059   3.650   3.374
    3OL    H13R13919   2.102   3.726   3.308
    3OL    H13S13920   2.136   3.576   3.400
    3OL    C11413921   2.011   3.727   3.497
    3OL    H14R13922   1.967   3.651   3.561
    3OL    H14S13923   1.943   3.811   3.482
    3OL    C11513924   2.130   3.790   3.572
    3OL    H15R13925   2.158   3.881   3.517
    3OL    H15S13926   2.213   3.720   3.578
    3OL    C11613927   2.069   3.836   3.705
    3OL    H16R13928   2.024   3.749   3.752
    3OL    H16S13929   1.991   3.911   3.690
    3OL    C11713930   2.168   3.903   3.801
    3OL    H17R13931   2.212   3.997   3.766
    3OL    H17S13932   2.257   3.845   3.826
    3OL    C11813933   2.105   3.942   3.935
    3OL    H18R13934   2.062   3.860   3.994
    3OL    H18S13935   2.027   4.015   3.913
    3OL    H18T13936   2.180   3.992   3.996
    1PA    C11613937   4.370   2.345   3.287
    1PA    H16R13938   4.430   2.259   3.317
    1PA    H16S13939   4.432   2.431   3.316
    1PA    H16T13940   4.348   2.351   3.181
    1PA    C11513941   4.242   2.349   3.371
    1PA    H15R13942   4.166   2.277   3.338
    1PA    H15S13943   4.256   2.324   3.476
    1PA    C11413944   4.172   2.485   3.357
    1PA    H14R13945   4.255   2.555   3.368
    1PA    H14S13946   4.134   2.493   3.255
    1PA    C11313947   4.055   2.504   3.455
    1PA    H13R13948   4.083   2.474   3.556
    1PA    H13S13949   4.029   2.608   3.474
    1PA    C11213950   3.930   2.429   3.407
    1PA    H12R13951   3.901   2.461   3.307
    1PA    H12S13952   3.954   2.323   3.399
    1PA    C11113953   3.815   2.448   3.507
    1PA    H11R13954   3.864   2.429   3.602
    1PA    H11S13955   3.781   2.552   3.510
    1PA    C11013956   3.701   2.354   3.465
    1PA    H10R13957   3.673   2.381   3.363
    1PA    H10S13958   3.730   2.251   3.485
    1PA     C1913959   3.580   2.373   3.558
    1PA     H9R13960   3.615   2.364   3.661
    1PA     H9S13961   3.542   2.474   3.543
    1PA     C1813962   3.473   2.264   3.541
    1PA     H8R13963   3.511   2.167   3.574
    1PA     H8S13964   3.384   2.278   3.603
    1PA     C1713965   3.422   2.242   3.398
    1PA     H7R13966   3.500   2.199   3.335
    1PA     H7S13967   3.334   2.178   3.412
    1PA     C1613968   3.366   2.372   3.338
    1PA     H6R13969   3.277   2.401   3.394
    1PA     H6S13970   3.438   2.453   3.357
    1PA     C1513971   3.324   2.359   3.192
    1PA     H5R13972   3.257   2.276   3.167
    1PA     H5S13973   3.259   2.444   3.171
    1PA     C1413974   3.437   2.358   3.088
    1PA     H4R13975   3.520   2.418   3.128
    1PA     H4S13976   3.487   2.261   3.097
    1PA     C1313977   3.387   2.391   2.947
    1PA     H3R13978   3.297   2.333   2.925
    1PA     H3S13979   3.362   2.497   2.955
    1PA     C1213980   3.492   2.355   2.841
    1PA     H2R13981   3.590   2.404   2.849
    1PA     H2S13982   3.508   2.249   2.857
    2PC     C1113983   3.451   2.363   2.696
    2PC     O1213984   3.522   2.411   2.611
    2PC     O1113985   3.329   2.314   2.670
    2PC      C113986   3.277   2.304   2.536
    2PC      HR13987   3.171   2.275   2.540
    2PC      HS13988   3.296   2.396   2.481
    2PC      C213989   3.344   2.180   2.476
    2PC      HX13990   3.449   2.185   2.507
    2PC      C313991   3.328   2.185   2.323
    2PC      HA13992   3.370   2.279   2.284
    2PC      HB13993   3.381   2.100   2.280
    2PC     O3113994   3.190   2.170   2.287
    2PC     P3113995   3.136   2.152   2.137
    2PC     O3213996   3.221   2.022   2.096
    2PC     C3113997   3.200   1.975   1.961
    2PC     H1A13998   3.234   1.871   1.972
    2PC     H1B13999   3.096   1.967   1.928
    2PC     C3214000   3.284   2.037   1.849
    2PC     H2A14001   3.279   1.974   1.759
    2PC     H2B14002   3.252   2.139   1.828
    2PC     N3114003   3.432   2.045   1.867
    2PC     C3314004   3.471   2.152   1.965
    2PC     H3A14005   3.430   2.242   1.920
    2PC     H3B14006   3.441   2.126   2.067
    2PC     H3C14007   3.577   2.164   1.943
    2PC     C3414008   3.501   1.918   1.907
    2PC     H4A14009   3.603   1.942   1.940
    2PC     H4B14010   3.452   1.873   1.993
    2PC     H4C14011   3.501   1.843   1.828
    2PC     C3514012   3.491   2.082   1.734
    2PC     H5A14013   3.597   2.109   1.736
    2PC     H5B14014   3.427   2.166   1.711
    2PC     H5C14015   3.463   2.004   1.663
    2PC     O3314016   2.989   2.130   2.137
    2PC     O3414017   3.168   2.269   2.053
    2PC     O2114018   3.274   2.066   2.527
    2PC     C2114019   3.331   1.945   2.515
    2PC     O2214020   3.432   1.922   2.450
    3OL     C1214021   3.269   1.846   2.610
    3OL     H2R14022   3.279   1.747   2.565
    3OL     H2S14023   3.163   1.873   2.611
    3OL     C1314024   3.327   1.865   2.751
    3OL     H3R14025   3.304   1.963   2.794
    3OL     H3S14026   3.436   1.869   2.743
    3OL     C1414027   3.293   1.754   2.852
    3OL     H4R14028   3.354   1.761   2.942
    3OL     H4S14029   3.323   1.660   2.805
    3OL     C1514030   3.142   1.748   2.880
    3OL     H5R14031   3.087   1.720   2.790
    3OL     H5S14032   3.108   1.848   2.910
    3OL     C1614033   3.113   1.627   2.970
    3OL     H6R14034   3.175   1.540   2.948
    3OL     H6S14035   3.008   1.602   2.951
    3OL     C1714036   3.116   1.668   3.118
    3OL     H7R14037   3.042   1.747   3.127
    3OL     H7S14038   3.217   1.697   3.146
    3OL     C1814039   3.090   1.563   3.227
    3OL     H8R14040   3.102   1.609   3.325
    3OL     H8S14041   3.162   1.482   3.218
    3OL     C1914042   2.952   1.505   3.206
    3OL     H9R14043   2.929   1.475   3.104
    3OL    C11014044   2.854   1.493   3.294
    3OL    H10R14045   2.756   1.460   3.259
    3OL    C11114046   2.854   1.529   3.440
    3OL    H11R14047   2.784   1.612   3.450
    3OL    H11S14048   2.952   1.562   3.476
    3OL    C11214049   2.810   1.406   3.521
    3OL    H12R14050   2.872   1.318   3.499
    3OL    H12S14051   2.709   1.382   3.486
    3OL    C11314052   2.805   1.449   3.668
    3OL    H13R14053   2.720   1.517   3.679
    3OL    H13S14054   2.896   1.497   3.703
    3OL    C11414055   2.764   1.331   3.757
    3OL    H14R14056   2.844   1.256   3.751
    3OL    H14S14057   2.674   1.290   3.712
    3OL    C11514058   2.733   1.375   3.901
    3OL    H15R14059   2.645   1.440   3.905
    3OL    H15S14060   2.811   1.434   3.950
    3OL    C11614061   2.691   1.254   3.985
    3OL    H16R14062   2.762   1.172   3.972
    3OL    H16S14063   2.591   1.217   3.961
    3OL    C11714064   2.697   1.275   4.137
    3OL    H17R14065   2.624   1.347   4.173
    3OL    H17S14066   2.796   1.313   4.164
    3OL    C11814067   2.674   1.144   4.214
    3OL    H18R14068   2.570   1.123   4.188
    3OL    H18S14069   2.685   1.160   4.321
    3OL    H18T14070   2.754   1.077   4.181
    1PA    C11614071   3.581   1.876   4.076
    1PA    H16R14072   3.543   1.785   4.125
    1PA    H16S14073   3.559   1.955   4.149
    1PA    H16T14074   3.689   1.861   4.074
    1PA    C11514075   3.519   1.902   3.938
    1PA    H15R14076   3.563   1.995   3.901
    1PA    H15S14077   3.540   1.814   3.878
    1PA    C11414078   3.367   1.916   3.950
    1PA    H14R14079   3.318   1.823   3.978
    1PA    H14S14080   3.345   1.984   4.032
    1PA    C11314081   3.312   1.969   3.816
    1PA    H13R14082   3.357   2.067   3.802
    1PA    H13S14083   3.348   1.900   3.740
    1PA    C11214084   3.158   1.973   3.808
    1PA    H12R14085   3.119   1.873   3.829
    1PA    H12S14086   3.123   2.046   3.881
    1PA    C11114087   3.110   2.015   3.669
    1PA    H11R14088   3.101   2.122   3.655
    1PA    H11S14089   3.183   1.969   3.602
    1PA    C11014090   2.975   1.947   3.641
    1PA    H10R14091   2.998   1.840   3.640
    1PA    H10S14092   2.904   1.977   3.717
    1PA     C1914093   2.919   1.993   3.505
    1PA     H9R14094   2.810   1.986   3.506
    1PA     H9S14095   2.943   2.098   3.489
    1PA     C1814096   2.974   1.912   3.387
    1PA     H8R14097   3.082   1.925   3.394
    1PA     H8S14098   2.943   1.809   3.399
    1PA     C1714099   2.919   1.967   3.254
    1PA     H7R14100   2.900   1.880   3.191
    1PA     H7S14101   2.822   2.014   3.270
    1PA     C1614102   3.008   2.065   3.178
    1PA     H6R14103   3.006   2.167   3.218
    1PA     H6S14104   3.109   2.025   3.189
    1PA     C1514105   2.960   2.076   3.033
    1PA     H5R14106   2.959   1.981   2.977
    1PA     H5S14107   2.853   2.097   3.041
    1PA     C1414108   3.047   2.179   2.961
    1PA     H4R14109   3.039   2.280   3.003
    1PA     H4S14110   3.151   2.148   2.969
    1PA     C1314111   3.027   2.188   2.809
    1PA     H3R14112   3.095   2.268   2.777
    1PA     H3S14113   3.056   2.101   2.751
    1PA     C1214114   2.884   2.237   2.782
    1PA     H2R14115   2.822   2.162   2.832
    1PA     H2S14116   2.855   2.330   2.831
    2PC     C1114117   2.861   2.241   2.633
    2PC     O1214118   2.850   2.143   2.562
    2PC     O1114119   2.880   2.364   2.584
    2PC      C114120   2.888   2.395   2.444
    2PC      HR14121   2.897   2.504   2.441
    2PC      HS14122   2.977   2.344   2.406
    2PC      C214123   2.763   2.360   2.362
    2PC      HX14124   2.749   2.252   2.354
    2PC      C314125   2.778   2.423   2.223
    2PC      HA14126   2.863   2.371   2.178
    2PC      HB14127   2.694   2.413   2.155
    2PC     O3114128   2.820   2.561   2.227
    2PC     P3114129   2.848   2.626   2.083
    2PC     O3214130   2.770   2.766   2.094
    2PC     C3114131   2.678   2.799   1.989
    2PC     H1A14132   2.743   2.806   1.902
    2PC     H1B14133   2.606   2.718   1.972
    2PC     C3214134   2.608   2.935   2.007
    2PC     H2A14135   2.577   2.964   1.906
    2PC     H2B14136   2.518   2.922   2.067
    2PC     N3114137   2.682   3.048   2.072
    2PC     C3314138   2.685   3.026   2.220
    2PC     H3A14139   2.734   2.930   2.236
    2PC     H3B14140   2.736   3.106   2.274
    2PC     H3C14141   2.585   3.006   2.259
    2PC     C3414142   2.818   3.052   2.009
    2PC     H4A14143   2.813   3.046   1.901
    2PC     H4B14144   2.870   3.146   2.028
    2PC     H4C14145   2.866   2.965   2.055
    2PC     C3514146   2.605   3.174   2.042
    2PC     H5A14147   2.650   3.257   2.097
    2PC     H5B14148   2.503   3.158   2.077
    2PC     H5C14149   2.613   3.198   1.936
    2PC     O3314150   2.991   2.640   2.046
    2PC     O3414151   2.802   2.538   1.974
    2PC     O2114152   2.661   2.433   2.432
    2PC     C2114153   2.535   2.442   2.386
    2PC     O2214154   2.488   2.394   2.285
    3OL     C1214155   2.450   2.521   2.481
    3OL     H2R14156   2.492   2.525   2.582
    3OL     H2S14157   2.352   2.472   2.481
    3OL     C1314158   2.430   2.660   2.419
    3OL     H3R14159   2.357   2.713   2.481
    3OL     H3S14160   2.380   2.644   2.324
    3OL     C1414161   2.560   2.738   2.395
    3OL     H4R14162   2.533   2.831   2.344
    3OL     H4S14163   2.621   2.688   2.320
    3OL     C1514164   2.645   2.758   2.521
    3OL     H5R14165   2.745   2.798   2.507
    3OL     H5S14166   2.661   2.659   2.565
    3OL     C1614167   2.572   2.847   2.622
    3OL     H6R14168   2.470   2.808   2.629
    3OL     H6S14169   2.574   2.952   2.593
    3OL     C1714170   2.616   2.852   2.769
    3OL     H7R14171   2.568   2.933   2.823
    3OL     H7S14172   2.723   2.877   2.771
    3OL     C1814173   2.604   2.718   2.843
    3OL     H8R14174   2.664   2.713   2.934
    3OL     H8S14175   2.662   2.645   2.787
    3OL     C1914176   2.461   2.672   2.857
    3OL     H9R14177   2.405   2.659   2.765
    3OL    C11014178   2.387   2.666   2.967
    3OL    H10R14179   2.280   2.645   2.964
    3OL    C11114180   2.437   2.699   3.106
    3OL    H11R14181   2.542   2.673   3.119
    3OL    H11S14182   2.380   2.636   3.175
    3OL    C11214183   2.412   2.844   3.150
    3OL    H12R14184   2.304   2.851   3.159
    3OL    H12S14185   2.451   2.909   3.072
    3OL    C11314186   2.484   2.868   3.283
    3OL    H13R14187   2.593   2.881   3.280
    3OL    H13S14188   2.463   2.786   3.351
    3OL    C11414189   2.433   3.001   3.341
    3OL    H14R14190   2.328   2.989   3.368
    3OL    H14S14191   2.442   3.076   3.262
    3OL    C11514192   2.504   3.053   3.467
    3OL    H15R14193   2.506   3.162   3.458
    3OL    H15S14194   2.603   3.008   3.475
    3OL    C11614195   2.420   3.009   3.587
    3OL    H16R14196   2.395   2.903   3.578
    3OL    H16S14197   2.326   3.063   3.593
    3OL    C11714198   2.498   3.036   3.717
    3OL    H17R14199   2.524   3.142   3.719
    3OL    H17S14200   2.586   2.972   3.717
    3OL    C11814201   2.405   3.010   3.836
    3OL    H18R14202   2.356   2.916   3.810
    3OL    H18S14203   2.330   3.088   3.851
    3OL    H18T14204   2.464   3.005   3.928
    1PA    C11614205   3.188   4.937   3.454
    1PA    H16R14206   3.182   4.955   3.562
    1PA    H16S14207   3.090   4.909   3.416
    1PA    H16T14208   3.220   5.027   3.401
    1PA    C11514209   3.284   4.820   3.430
    1PA    H15R14210   3.306   4.813   3.323
    1PA    H15S14211   3.374   4.844   3.487
    1PA    C11414212   3.235   4.685   3.486
    1PA    H14R14213   3.315   4.613   3.500
    1PA    H14S14214   3.168   4.700   3.571
    1PA    C11314215   3.151   4.613   3.379
    1PA    H13R14216   3.100   4.528   3.423
    1PA    H13S14217   3.078   4.681   3.334
    1PA    C11214218   3.244   4.564   3.267
    1PA    H12R14219   3.310   4.642   3.229
    1PA    H12S14220   3.315   4.493   3.308
    1PA    C11114221   3.157   4.512   3.151
    1PA    H11R14222   3.116   4.417   3.186
    1PA    H11S14223   3.077   4.579   3.118
    1PA    C11014224   3.243   4.469   3.032
    1PA    H10R14225   3.278   4.559   2.980
    1PA    H10S14226   3.331   4.412   3.063
    1PA     C1914227   3.162   4.401   2.921
    1PA     H9R14228   3.056   4.414   2.945
    1PA     H9S14229   3.180   4.465   2.835
    1PA     C1814230   3.198   4.252   2.912
    1PA     H8R14231   3.307   4.243   2.909
    1PA     H8S14232   3.164   4.197   2.999
    1PA     C1714233   3.131   4.186   2.790
    1PA     H7R14234   3.170   4.085   2.792
    1PA     H7S14235   3.024   4.170   2.805
    1PA     C1614236   3.165   4.250   2.655
    1PA     H6R14237   3.131   4.353   2.669
    1PA     H6S14238   3.271   4.239   2.632
    1PA     C1514239   3.081   4.185   2.543
    1PA     H5R14240   3.139   4.188   2.451
    1PA     H5S14241   3.058   4.081   2.563
    1PA     C1414242   2.947   4.257   2.522
    1PA     H4R14243   2.887   4.256   2.613
    1PA     H4S14244   2.967   4.363   2.505
    1PA     C1314245   2.888   4.201   2.393
    1PA     H3R14246   2.942   4.242   2.307
    1PA     H3S14247   2.901   4.093   2.408
    1PA     C1214248   2.742   4.242   2.372
    1PA     H2R14249   2.666   4.194   2.434
    1PA     H2S14250   2.736   4.346   2.406
    2PC     C1114251   2.698   4.243   2.227
    2PC     O1214252   2.745   4.182   2.133
    2PC     O1114253   2.583   4.311   2.216
    2PC      C114254   2.508   4.295   2.095
    2PC      HR14255   2.427   4.368   2.085
    2PC      HS14256   2.578   4.308   2.012
    2PC      C214257   2.437   4.159   2.092
    2PC      HX14258   2.503   4.077   2.121
    2PC      C314259   2.376   4.129   1.954
    2PC      HA14260   2.296   4.202   1.940
    2PC      HB14261   2.456   4.142   1.880
    2PC     O3114262   2.318   3.998   1.942
    2PC     P3114263   2.264   3.961   1.795
    2PC     O3214264   2.201   3.814   1.811
    2PC     C3114265   2.284   3.697   1.818
    2PC     H1A14266   2.345   3.685   1.727
    2PC     H1B14267   2.359   3.719   1.894
    2PC     C3214268   2.197   3.577   1.857
    2PC     H2A14269   2.263   3.499   1.894
    2PC     H2B14270   2.128   3.609   1.936
    2PC     N3114271   2.101   3.522   1.756
    2PC     C3314272   1.972   3.598   1.748
    2PC     H3A14273   1.914   3.562   1.664
    2PC     H3B14274   1.911   3.585   1.838
    2PC     H3C14275   1.998   3.703   1.729
    2PC     C3414276   2.169   3.537   1.623
    2PC     H4A14277   2.112   3.477   1.553
    2PC     H4B14278   2.159   3.641   1.589
    2PC     H4C14279   2.270   3.496   1.629
    2PC     C3514280   2.058   3.384   1.791
    2PC     H5A14281   2.150   3.327   1.805
    2PC     H5B14282   2.005   3.338   1.707
    2PC     H5C14283   2.008   3.395   1.888
    2PC     O3314284   2.157   4.053   1.751
    2PC     O3414285   2.375   3.978   1.698
    2PC     O2114286   2.326   4.168   2.183
    2PC     C2114287   2.345   4.134   2.311
    2PC     O2214288   2.453   4.105   2.359
    3OL     C1214289   2.218   4.139   2.392
    3OL     H2R14290   2.131   4.101   2.337
    3OL     H2S14291   2.198   4.241   2.423
    3OL     C1314292   2.231   4.047   2.515
    3OL     H3R14293   2.325   4.065   2.569
    3OL     H3S14294   2.249   3.952   2.464
    3OL     C1414295   2.107   4.050   2.605
    3OL     H4R14296   2.085   3.951   2.644
    3OL     H4S14297   2.018   4.077   2.548
    3OL     C1514298   2.117   4.168   2.703
    3OL     H5R14299   2.020   4.219   2.704
    3OL     H5S14300   2.182   4.242   2.654
    3OL     C1614301   2.163   4.126   2.843
    3OL     H6R14302   2.265   4.086   2.832
    3OL     H6S14303   2.092   4.046   2.862
    3OL     C1714304   2.149   4.240   2.944
    3OL     H7R14305   2.045   4.274   2.949
    3OL     H7S14306   2.208   4.318   2.896
    3OL     C1814307   2.205   4.209   3.084
    3OL     H8R14308   2.161   4.111   3.108
    3OL     H8S14309   2.178   4.287   3.155
    3OL     C1914310   2.352   4.179   3.087
    3OL     H9R14311   2.388   4.089   3.038
    3OL    C11014312   2.444   4.242   3.159
    3OL    H10R14313   2.545   4.202   3.159
    3OL    C11114314   2.414   4.347   3.262
    3OL    H11R14315   2.339   4.422   3.235
    3OL    H11S14316   2.507   4.395   3.295
    3OL    C11214317   2.354   4.285   3.390
    3OL    H12R14318   2.375   4.178   3.388
    3OL    H12S14319   2.246   4.297   3.397
    3OL    C11314320   2.413   4.346   3.518
    3OL    H13R14321   2.419   4.454   3.499
    3OL    H13S14322   2.516   4.312   3.532
    3OL    C11414323   2.329   4.314   3.642
    3OL    H14R14324   2.352   4.209   3.662
    3OL    H14S14325   2.221   4.327   3.628
    3OL    C11514326   2.374   4.397   3.762
    3OL    H15R14327   2.364   4.504   3.746
    3OL    H15S14328   2.483   4.387   3.755
    3OL    C11614329   2.318   4.344   3.895
    3OL    H16R14330   2.338   4.237   3.907
    3OL    H16S14331   2.212   4.369   3.894
    3OL    C11714332   2.380   4.425   4.010
    3OL    H17R14333   2.372   4.534   4.002
    3OL    H17S14334   2.487   4.401   4.010
    3OL    C11814335   2.319   4.387   4.146
    3OL    H18R14336   2.217   4.424   4.154
    3OL    H18S14337   2.359   4.454   4.222
    3OL    H18T14338   2.326   4.281   4.169
    1PA    C11614339   2.148   0.552   4.141
    1PA    H16R14340   2.147   0.444   4.158
    1PA    H16S14341   2.057   0.578   4.195
    1PA    H16T14342   2.231   0.602   4.192
    1PA    C11514343   2.138   0.593   3.994
    1PA    H15R14344   2.045   0.566   3.943
    1PA    H15S14345   2.152   0.700   3.983
    1PA    C11414346   2.256   0.530   3.918
    1PA    H14R14347   2.350   0.560   3.965
    1PA    H14S14348   2.251   0.421   3.920
    1PA    C11314349   2.251   0.595   3.779
    1PA    H13R14350   2.154   0.563   3.741
    1PA    H13S14351   2.251   0.703   3.792
    1PA    C11214352   2.352   0.545   3.675
    1PA    H12R14353   2.447   0.596   3.694
    1PA    H12S14354   2.382   0.441   3.684
    1PA    C11114355   2.315   0.582   3.530
    1PA    H11R14356   2.378   0.518   3.468
    1PA    H11S14357   2.210   0.563   3.508
    1PA    C11014358   2.349   0.721   3.474
    1PA    H10R14359   2.286   0.802   3.511
    1PA    H10S14360   2.446   0.750   3.515
    1PA     C1914361   2.337   0.715   3.322
    1PA     H9R14362   2.399   0.632   3.287
    1PA     H9S14363   2.233   0.697   3.293
    1PA     C1814364   2.396   0.845   3.264
    1PA     H8R14365   2.332   0.926   3.300
    1PA     H8S14366   2.499   0.867   3.292
    1PA     C1714367   2.394   0.845   3.111
    1PA     H7R14368   2.299   0.808   3.074
    1PA     H7S14369   2.406   0.948   3.076
    1PA     C1614370   2.511   0.769   3.048
    1PA     H6R14371   2.596   0.834   3.071
    1PA     H6S14372   2.529   0.668   3.085
    1PA     C1514373   2.506   0.783   2.895
    1PA     H5R14374   2.426   0.712   2.873
    1PA     H5S14375   2.466   0.881   2.869
    1PA     C1414376   2.634   0.736   2.825
    1PA     H4R14377   2.715   0.805   2.849
    1PA     H4S14378   2.665   0.636   2.853
    1PA     C1314379   2.629   0.736   2.671
    1PA     H3R14380   2.692   0.821   2.646
    1PA     H3S14381   2.686   0.651   2.632
    1PA     C1214382   2.491   0.738   2.603
    1PA     H2R14383   2.443   0.645   2.634
    1PA     H2S14384   2.428   0.821   2.635
    2PC     C1114385   2.507   0.734   2.453
    2PC     O1214386   2.596   0.779   2.385
    2PC     O1114387   2.400   0.668   2.404
    2PC      C114388   2.386   0.641   2.264
    2PC      HR14389   2.290   0.597   2.235
    2PC      HS14390   2.401   0.731   2.204
    2PC      C214391   2.504   0.554   2.219
    2PC      HX14392   2.605   0.580   2.249
    2PC      C314393   2.512   0.546   2.066
    2PC      HA14394   2.506   0.650   2.031
    2PC      HB14395   2.609   0.507   2.035
    2PC     O3114396   2.402   0.474   2.006
    2PC     P3114397   2.328   0.523   1.873
    2PC     O3214398   2.184   0.471   1.921
    2PC     C3114399   2.080   0.433   1.829
    2PC     H1A14400   1.987   0.422   1.886
    2PC     H1B14401   2.072   0.506   1.749
    2PC     C3214402   2.133   0.310   1.755
    2PC     H2A14403   2.233   0.322   1.713
    2PC     H2B14404   2.138   0.235   1.834
    2PC     N3114405   2.050   0.255   1.643
    2PC     C3314406   2.039   0.356   1.533
    2PC     H3A14407   2.137   0.397   1.508
    2PC     H3B14408   1.996   0.314   1.442
    2PC     H3C14409   1.978   0.439   1.570
    2PC     C3414410   2.121   0.135   1.587
    2PC     H4A14411   2.224   0.147   1.552
    2PC     H4B14412   2.106   0.046   1.648
    2PC     H4C14413   2.060   0.114   1.499
    2PC     C3514414   1.912   0.228   1.696
    2PC     H5A14415   1.844   0.190   1.620
    2PC     H5B14416   1.866   0.321   1.730
    2PC     H5C14417   1.920   0.152   1.774
    2PC     O3314418   2.320   0.671   1.866
    2PC     O3414419   2.382   0.471   1.745
    2PC     O2114420   2.470   0.422   2.265
    2PC     C2114421   2.568   0.332   2.249
    2PC     O2214422   2.678   0.345   2.199
    3OL     C1214423   2.524   0.201   2.309
    3OL     H2R14424   2.415   0.206   2.307
    3OL     H2S14425   2.559   0.198   2.412
    3OL     C1314426   2.559   0.066   2.244
    3OL     H3R14427   2.551   0.082   2.136
    3OL     H3S14428   2.500   6.465   2.274
    3OL     C1414429   2.693   0.010   2.291
    3OL     H4R14430   2.774   0.083   2.281
    3OL     H4S14431   2.734   6.418   2.227
    3OL     C1514432   2.690   6.453   2.439
    3OL     H5R14433   2.626   0.038   2.491
    3OL     H5S14434   2.789   6.468   2.481
    3OL     C1614435   2.651   6.308   2.472
    3OL     H6R14436   2.561   6.284   2.416
    3OL     H6S14437   2.637   6.301   2.580
    3OL     C1714438   2.769   6.211   2.452
    3OL     H7R14439   2.855   6.257   2.500
    3OL     H7S14440   2.797   6.202   2.346
    3OL     C1814441   2.751   6.068   2.506
    3OL     H8R14442   2.723   6.099   2.608
    3OL     H8S14443   2.841   6.008   2.499
    3OL     C1914444   2.648   5.997   2.422
    3OL     H9R14445   2.686   5.954   2.330
    3OL    C11014446   2.530   5.964   2.472
    3OL    H10R14447   2.468   5.903   2.406
    3OL    C11114448   2.457   6.019   2.591
    3OL    H11R14449   2.479   6.125   2.609
    3OL    H11S14450   2.492   5.970   2.682
    3OL    C11214451   2.306   6.005   2.562
    3OL    H12R14452   2.268   5.904   2.547
    3OL    H12S14453   2.271   6.055   2.472
    3OL    C11314454   2.235   6.055   2.688
    3OL    H13R14455   2.247   6.160   2.718
    3OL    H13S14456   2.267   5.996   2.775
    3OL    C11414457   2.084   6.028   2.680
    3OL    H14R14458   2.078   5.920   2.664
    3OL    H14S14459   2.045   6.090   2.599
    3OL    C11514460   2.000   6.059   2.805
    3OL    H15R14461   2.014   5.982   2.881
    3OL    H15S14462   1.892   6.050   2.787
    3OL    C11614463   2.022   6.196   2.869
    3OL    H16R14464   2.021   6.270   2.789
    3OL    H16S14465   2.117   6.187   2.921
    3OL    C11714466   1.906   6.235   2.962
    3OL    H17R14467   1.881   6.152   3.029
    3OL    H17S14468   1.819   6.263   2.903
    3OL    C11814469   1.946   6.352   3.054
    3OL    H18R14470   1.854   6.393   3.095
    3OL    H18S14471   1.998   6.431   2.999
    3OL    H18T14472   2.017   6.320   3.131
    1PA    C11614473   5.325   6.441   3.626
    1PA    H16R14474   5.417   6.464   3.572
    1PA    H16S14475   5.337   0.003   3.723
    1PA    H16T14476   5.236   6.479   3.576
    1PA    C11514477   5.310   6.290   3.649
    1PA    H15R14478   5.410   6.245   3.646
    1PA    H15S14479   5.264   6.285   3.748
    1PA    C11414480   5.226   6.216   3.544
    1PA    H14R14481   5.226   6.108   3.560
    1PA    H14S14482   5.121   6.245   3.559
    1PA    C11314483   5.277   6.246   3.403
    1PA    H13R14484   5.264   6.354   3.404
    1PA    H13S14485   5.377   6.202   3.391
    1PA    C11214486   5.178   6.189   3.300
    1PA    H12R14487   5.074   6.199   3.330
    1PA    H12S14488   5.183   6.239   3.203
    1PA    C11114489   5.203   6.040   3.277
    1PA    H11R14490   5.307   6.012   3.261
    1PA    H11S14491   5.182   5.990   3.372
    1PA    C11014492   5.118   5.981   3.163
    1PA    H10R14493   5.041   6.053   3.133
    1PA    H10S14494   5.178   5.955   3.076
    1PA     C1914495   5.041   5.856   3.205
    1PA     H9R14496   5.104   5.785   3.259
    1PA     H9S14497   4.964   5.881   3.278
    1PA     C1814498   4.967   5.776   3.096
    1PA     H8R14499   5.041   5.713   3.046
    1PA     H8S14500   4.893   5.710   3.141
    1PA     C1714501   4.902   5.871   2.994
    1PA     H7R14502   4.850   5.957   3.038
    1PA     H7S14503   4.979   5.922   2.935
    1PA     C1614504   4.819   5.793   2.892
    1PA     H6R14505   4.869   5.701   2.859
    1PA     H6S14506   4.739   5.761   2.959
    1PA     C1514507   4.770   5.886   2.781
    1PA     H5R14508   4.757   5.989   2.817
    1PA     H5S14509   4.845   5.902   2.702
    1PA     C1414510   4.636   5.836   2.726
    1PA     H4R14511   4.649   5.740   2.675
    1PA     H4S14512   4.568   5.826   2.811
    1PA     C1314513   4.581   5.943   2.632
    1PA     H3R14514   4.662   5.990   2.575
    1PA     H3S14515   4.510   5.896   2.564
    1PA     C1214516   4.503   6.057   2.699
    1PA     H2R14517   4.400   6.021   2.701
    1PA     H2S14518   4.538   6.079   2.800
    2PC     C1114519   4.501   6.171   2.600
    2PC     O1214520   4.601   6.215   2.549
    2PC     O1114521   4.378   6.225   2.590
    2PC      C114522   4.361   6.331   2.493
    2PC      HR14523   4.423   6.417   2.518
    2PC      HS14524   4.391   6.306   2.391
    2PC      C214525   4.210   6.360   2.502
    2PC      HX14526   4.154   6.271   2.532
    2PC      C314527   4.167   6.414   2.365
    2PC      HA14528   4.172   6.342   2.284
    2PC      HB14529   4.062   6.445   2.376
    2PC     O3114530   4.250   0.039   2.328
    2PC     P3114531   4.188   0.147   2.227
    2PC     O3214532   4.253   0.289   2.259
    2PC     C3114533   4.396   0.287   2.238
    2PC     H1A14534   4.441   0.199   2.285
    2PC     H1B14535   4.414   0.290   2.131
    2PC     C3214536   4.448   0.419   2.296
    2PC     H2A14537   4.440   0.425   2.405
    2PC     H2B14538   4.557   0.412   2.288
    2PC     N3114539   4.401   0.552   2.245
    2PC     C3314540   4.468   0.663   2.319
    2PC     H3A14541   4.471   0.639   2.426
    2PC     H3B14542   4.573   0.669   2.290
    2PC     H3C14543   4.416   0.757   2.302
    2PC     C3414544   4.431   0.566   2.099
    2PC     H4A14545   4.540   0.567   2.088
    2PC     H4B14546   4.392   0.478   2.048
    2PC     H4C14547   4.384   0.659   2.065
    2PC     C3514548   4.252   0.571   2.252
    2PC     H5A14549   4.219   0.666   2.208
    2PC     H5B14550   4.232   0.565   2.359
    2PC     H5C14551   4.203   0.488   2.202
    2PC     O3314552   4.217   0.116   2.085
    2PC     O3414553   4.043   0.177   2.211
    2PC     O2114554   4.187   6.457   2.606
    2PC     C2114555   4.062   0.011   2.636
    2PC     O2214556   3.958   6.458   2.588
    3OL     C1214557   4.072   0.110   2.749
    3OL     H2R14558   4.149   0.178   2.711
    3OL     H2S14559   4.113   0.066   2.840
    3OL     C1314560   3.944   0.193   2.761
    3OL     H3R14561   3.873   0.132   2.818
    3OL     H3S14562   3.900   0.216   2.664
    3OL     C1414563   3.958   0.321   2.844
    3OL     H4R14564   3.860   0.370   2.843
    3OL     H4S14565   4.031   0.387   2.795
    3OL     C1514566   4.012   0.306   2.987
    3OL     H5R14567   4.049   0.408   3.002
    3OL     H5S14568   4.106   0.252   2.974
    3OL     C1614569   3.896   0.259   3.076
    3OL     H6R14570   3.854   0.161   3.051
    3OL     H6S14571   3.815   0.328   3.053
    3OL     C1714572   3.936   0.274   3.224
    3OL     H7R14573   4.025   0.214   3.245
    3OL     H7S14574   3.854   0.237   3.286
    3OL     C1814575   3.965   0.419   3.263
    3OL     H8R14576   3.870   0.474   3.263
    3OL     H8S14577   4.029   0.461   3.186
    3OL     C1914578   4.025   0.425   3.401
    3OL     H9R14579   4.134   0.416   3.396
    3OL    C11014580   3.971   0.451   3.519
    3OL    H10R14581   4.033   0.465   3.607
    3OL    C11114582   3.824   0.457   3.551
    3OL    H11R14583   3.791   0.377   3.618
    3OL    H11S14584   3.764   0.457   3.460
    3OL    C11214585   3.801   0.586   3.632
    3OL    H12R14586   3.803   0.673   3.567
    3OL    H12S14587   3.881   0.604   3.705
    3OL    C11314588   3.673   0.576   3.716
    3OL    H13R14589   3.681   0.492   3.786
    3OL    H13S14590   3.585   0.552   3.657
    3OL    C11414591   3.637   0.707   3.788
    3OL    H14R14592   3.619   0.790   3.720
    3OL    H14S14593   3.727   0.733   3.844
    3OL    C11514594   3.516   0.691   3.882
    3OL    H15R14595   3.531   0.595   3.932
    3OL    H15S14596   3.418   0.682   3.834
    3OL    C11614597   3.521   0.813   3.975
    3OL    H16R14598   3.521   0.904   3.915
    3OL    H16S14599   3.612   0.803   4.036
    3OL    C11714600   3.403   0.803   4.072
    3OL    H17R14601   3.417   0.709   4.126
    3OL    H17S14602   3.307   0.809   4.021
    3OL    C11814603   3.409   0.908   4.184
    3OL    H18R14604   3.384   1.002   4.135
    3OL    H18S14605   3.505   0.912   4.234
    3OL    H18T14606   3.341   0.893   4.269
    1PA    C11614607   0.390   5.453   3.978
    1PA    H16R14608   0.344   5.413   4.068
    1PA    H16S14609   0.498   5.463   3.989
    1PA    H16T14610   0.371   5.382   3.896
    1PA    C11514611   0.331   5.587   3.932
    1PA    H15R14612   0.225   5.569   3.912
    1PA    H15S14613   0.352   5.658   4.013
    1PA    C11414614   0.407   5.645   3.812
    1PA    H14R14615   0.423   5.753   3.820
    1PA    H14S14616   0.510   5.609   3.802
    1PA    C11314617   0.331   5.607   3.684
    1PA    H13R14618   0.346   5.500   3.666
    1PA    H13S14619   0.225   5.631   3.695
    1PA    C11214620   0.367   5.674   3.551
    1PA    H12R14621   0.370   5.783   3.556
    1PA    H12S14622   0.470   5.657   3.520
    1PA    C11114623   0.271   5.637   3.437
    1PA    H11R14624   0.171   5.663   3.471
    1PA    H11S14625   0.293   5.698   3.348
    1PA    C11014626   0.273   5.490   3.393
    1PA    H10R14627   0.378   5.460   3.399
    1PA    H10S14628   0.208   5.441   3.465
    1PA     C1914629   0.211   5.472   3.254
    1PA     H9R14630   0.180   5.368   3.246
    1PA     H9S14631   0.125   5.539   3.249
    1PA     C1814632   0.313   5.499   3.142
    1PA     H8R14633   0.343   5.604   3.141
    1PA     H8S14634   0.399   5.437   3.168
    1PA     C1714635   0.258   5.483   2.999
    1PA     H7R14636   0.215   5.383   3.002
    1PA     H7S14637   0.168   5.545   2.993
    1PA     C1614638   0.355   5.507   2.884
    1PA     H6R14639   0.394   5.609   2.894
    1PA     H6S14640   0.432   5.430   2.890
    1PA     C1514641   0.282   5.488   2.750
    1PA     H5R14642   0.202   5.562   2.742
    1PA     H5S14643   0.350   5.505   2.666
    1PA     C1414644   0.217   5.350   2.736
    1PA     H4R14645   0.290   5.270   2.729
    1PA     H4S14646   0.144   5.326   2.813
    1PA     C1314647   0.143   5.349   2.601
    1PA     H3R14648   0.100   5.447   2.579
    1PA     H3S14649   0.231   5.339   2.536
    1PA     C1214650   0.039   5.237   2.586
    1PA     H2R14651   0.078   5.147   2.634
    1PA     H2S14652   6.432   5.254   2.639
    2PC     C1114653   0.006   5.209   2.441
    2PC     O1214654   6.483   5.099   2.392
    2PC     O1114655   6.456   5.318   2.372
    2PC      C114656   6.440   5.317   2.228
    2PC      HR14657   0.039   5.274   2.175
    2PC      HS14658   6.359   5.257   2.188
    2PC      C214659   6.395   5.455   2.177
    2PC      HX14660   6.304   5.488   2.227
    2PC      C314661   6.383   5.455   2.024
    2PC      HA14662   6.292   5.402   1.993
    2PC      HB14663   6.374   5.559   1.993
    2PC     O3114664   0.013   5.390   1.969
    2PC     P3114665   0.025   5.359   1.813
    2PC     O3214666   0.147   5.255   1.803
    2PC     C3114667   0.273   5.305   1.755
    2PC     H1A14668   0.254   5.334   1.651
    2PC     H1B14669   0.306   5.397   1.803
    2PC     C3214670   0.375   5.190   1.754
    2PC     H2A14671   0.333   5.115   1.687
    2PC     H2B14672   0.468   5.227   1.712
    2PC     N3114673   0.412   5.108   1.874
    2PC     C3314674   0.294   5.029   1.922
    2PC     H3A14675   0.217   5.098   1.956
    2PC     H3B14676   0.250   4.970   1.842
    2PC     H3C14677   0.322   4.975   2.012
    2PC     C3414678   0.522   5.014   1.834
    2PC     H4A14679   0.474   4.926   1.791
    2PC     H4B14680   0.595   5.069   1.774
    2PC     H4C14681   0.563   4.973   1.926
    2PC     C3514682   0.469   5.200   1.978
    2PC     H5A14683   0.402   5.285   1.993
    2PC     H5B14684   0.566   5.233   1.941
    2PC     H5C14685   0.488   5.146   2.071
    2PC     O3314686   6.381   5.303   1.770
    2PC     O3414687   0.054   5.474   1.725
    2PC     O2114688   0.013   5.548   2.212
    2PC     C2114689   6.483   5.681   2.208
    2PC     O2214690   6.373   5.731   2.190
    3OL     C1214691   0.125   5.753   2.237
    3OL     H2R14692   0.111   5.858   2.211
    3OL     H2S14693   0.199   5.710   2.169
    3OL     C1314694   0.179   5.763   2.380
    3OL     H3R14695   0.189   5.667   2.431
    3OL     H3S14696   0.108   5.828   2.431
    3OL     C1414697   0.316   5.832   2.382
    3OL     H4R14698   0.308   5.936   2.350
    3OL     H4S14699   0.380   5.781   2.309
    3OL     C1514700   0.389   5.829   2.517
    3OL     H5R14701   0.414   5.727   2.544
    3OL     H5S14702   0.316   5.869   2.588
    3OL     C1614703   0.519   5.911   2.517
    3OL     H6R14704   0.501   6.014   2.485
    3OL     H6S14705   0.586   5.874   2.440
    3OL     C1714706   0.601   5.918   2.647
    3OL     H7R14707   0.701   5.961   2.636
    3OL     H7S14708   0.622   5.813   2.668
    3OL     C1814709   0.530   5.998   2.757
    3OL     H8R14710   0.442   5.945   2.793
    3OL     H8S14711   0.491   6.097   2.729
    3OL     C1914712   0.616   6.009   2.880
    3OL     H9R14713   0.643   6.113   2.894
    3OL    C11014714   0.636   5.917   2.973
    3OL    H10R14715   0.694   5.944   3.061
    3OL    C11114716   0.586   5.774   2.973
    3OL    H11R14717   0.537   5.752   2.878
    3OL    H11S14718   0.509   5.760   3.048
    3OL    C11214719   0.695   5.668   2.992
    3OL    H12R14720   0.763   5.667   2.906
    3OL    H12S14721   0.645   5.571   2.988
    3OL    C11314722   0.764   5.661   3.129
    3OL    H13R14723   0.730   5.572   3.183
    3OL    H13S14724   0.723   5.746   3.183
    3OL    C11414725   0.916   5.677   3.124
    3OL    H14R14726   0.959   5.690   3.224
    3OL    H14S14727   0.940   5.765   3.064
    3OL    C11514728   0.997   5.559   3.068
    3OL    H15R14729   1.101   5.569   3.097
    3OL    H15S14730   1.018   5.576   2.962
    3OL    C11614731   0.958   5.411   3.081
    3OL    H16R14732   0.857   5.391   3.046
    3OL    H16S14733   0.957   5.381   3.186
    3OL    C11714734   1.052   5.323   2.998
    3OL    H17R14735   1.157   5.334   3.027
    3OL    H17S14736   1.050   5.352   2.893
    3OL    C11814737   1.005   5.177   3.012
    3OL    H18R14738   0.902   5.168   2.978
    3OL    H18S14739   1.021   5.132   3.110
    3OL    H18T14740   1.054   5.110   2.940
    1PA    C11614741   5.625   5.111   4.150
    1PA    H16R14742   5.543   5.125   4.221
    1PA    H16S14743   5.699   5.187   4.175
    1PA    H16T14744   5.661   5.009   4.164
    1PA    C11514745   5.576   5.124   4.005
    1PA    H15R14746   5.484   5.068   3.988
    1PA    H15S14747   5.562   5.230   3.984
    1PA    C11414748   5.673   5.073   3.897
    1PA    H14R14749   5.771   5.122   3.894
    1PA    H14S14750   5.693   4.969   3.920
    1PA    C11314751   5.609   5.092   3.759
    1PA    H13R14752   5.505   5.058   3.762
    1PA    H13S14753   5.603   5.199   3.742
    1PA    C11214754   5.687   5.019   3.648
    1PA    H12R14755   5.786   5.062   3.636
    1PA    H12S14756   5.700   4.915   3.678
    1PA    C11114757   5.604   5.026   3.519
    1PA    H11R14758   5.645   4.951   3.452
    1PA    H11S14759   5.500   4.999   3.535
    1PA    C11014760   5.617   5.162   3.449
    1PA    H10R14761   5.574   5.239   3.513
    1PA    H10S14762   5.722   5.190   3.431
    1PA     C1914763   5.542   5.169   3.315
    1PA     H9R14764   5.455   5.103   3.314
    1PA     H9S14765   5.506   5.272   3.314
    1PA     C1814766   5.634   5.146   3.195
    1PA     H8R14767   5.725   5.204   3.177
    1PA     H8S14768   5.651   5.039   3.179
    1PA     C1714769   5.540   5.177   3.078
    1PA     H7R14770   5.458   5.105   3.072
    1PA     H7S14771   5.487   5.273   3.072
    1PA     C1614772   5.622   5.175   2.949
    1PA     H6R14773   5.716   5.120   2.959
    1PA     H6S14774   5.569   5.122   2.869
    1PA     C1514775   5.658   5.313   2.893
    1PA     H5R14776   5.584   5.387   2.865
    1PA     H5S14777   5.717   5.355   2.976
    1PA     C1414778   5.753   5.290   2.775
    1PA     H4R14779   5.826   5.371   2.776
    1PA     H4S14780   5.816   5.202   2.790
    1PA     C1314781   5.681   5.286   2.639
    1PA     H3R14782   5.740   5.229   2.567
    1PA     H3S14783   5.586   5.232   2.638
    1PA     C1214784   5.661   5.433   2.597
    1PA     H2R14785   5.594   5.475   2.672
    1PA     H2S14786   5.755   5.488   2.594
    2PC     C1114787   5.589   5.445   2.465
    2PC     O1214788   5.559   5.349   2.397
    2PC     O1114789   5.568   5.573   2.431
    2PC      C114790   5.503   5.610   2.309
    2PC      HR14791   5.511   5.718   2.290
    2PC      HS14792   5.543   5.557   2.221
    2PC      C214793   5.353   5.583   2.318
    2PC      HX14794   5.324   5.485   2.359
    2PC      C314795   5.293   5.589   2.177
    2PC      HA14796   5.329   5.492   2.141
    2PC      HB14797   5.185   5.591   2.192
    2PC     O3114798   5.341   5.707   2.111
    2PC     P3114799   5.350   5.708   1.951
    2PC     O3214800   5.213   5.778   1.904
    2PC     C3114801   5.216   5.882   1.805
    2PC     H1A14802   5.267   5.969   1.846
    2PC     H1B14803   5.270   5.840   1.719
    2PC     C3214804   5.083   5.927   1.742
    2PC     H2A14805   5.031   5.996   1.808
    2PC     H2B14806   5.115   5.988   1.657
    2PC     N3114807   4.995   5.820   1.683
    2PC     C3314808   5.069   5.736   1.584
    2PC     H3A14809   5.002   5.659   1.546
    2PC     H3B14810   5.127   5.775   1.500
    2PC     H3C14811   5.147   5.684   1.640
    2PC     C3414812   4.936   5.739   1.794
    2PC     H4A14813   4.896   5.818   1.858
    2PC     H4B14814   4.864   5.668   1.753
    2PC     H4C14815   5.010   5.677   1.846
    2PC     C3514816   4.882   5.883   1.607
    2PC     H5A14817   4.810   5.811   1.569
    2PC     H5B14818   4.925   5.925   1.515
    2PC     H5C14819   4.848   5.964   1.671
    2PC     O3314820   5.472   5.783   1.914
    2PC     O3414821   5.363   5.574   1.889
    2PC     O2114822   5.306   5.691   2.400
    2PC     C2114823   5.279   5.673   2.530
    2PC     O2214824   5.279   5.561   2.578
    3OL     C1214825   5.242   5.799   2.604
    3OL     H2R14826   5.155   5.835   2.550
    3OL     H2S14827   5.331   5.862   2.602
    3OL     C1314828   5.210   5.788   2.754
    3OL     H3R14829   5.120   5.730   2.777
    3OL     H3S14830   5.184   5.888   2.790
    3OL     C1414831   5.331   5.729   2.827
    3OL     H4R14832   5.419   5.786   2.796
    3OL     H4S14833   5.354   5.628   2.791
    3OL     C1514834   5.320   5.720   2.980
    3OL     H5R14835   5.249   5.640   3.002
    3OL     H5S14836   5.294   5.817   3.024
    3OL     C1614837   5.442   5.671   3.058
    3OL     H6R14838   5.530   5.734   3.045
    3OL     H6S14839   5.474   5.571   3.027
    3OL     C1714840   5.414   5.671   3.209
    3OL     H7R14841   5.345   5.589   3.228
    3OL     H7S14842   5.372   5.765   3.246
    3OL     C1814843   5.542   5.651   3.292
    3OL     H8R14844   5.519   5.632   3.397
    3OL     H8S14845   5.593   5.747   3.281
    3OL     C1914846   5.628   5.537   3.245
    3OL     H9R14847   5.609   5.502   3.144
    3OL    C11014848   5.718   5.467   3.313
    3OL    H10R14849   5.766   5.382   3.267
    3OL    C11114850   5.764   5.499   3.453
    3OL    H11R14851   5.734   5.417   3.519
    3OL    H11S14852   5.704   5.587   3.478
    3OL    C11214853   5.917   5.510   3.464
    3OL    H12R14854   5.948   5.588   3.394
    3OL    H12S14855   5.965   5.420   3.425
    3OL    C11314856   5.959   5.544   3.608
    3OL    H13R14857   6.067   5.536   3.614
    3OL    H13S14858   5.908   5.467   3.666
    3OL    C11414859   5.917   5.686   3.649
    3OL    H14R14860   5.817   5.720   3.622
    3OL    H14S14861   5.986   5.754   3.600
    3OL    C11514862   5.941   5.709   3.799
    3OL    H15R14863   6.039   5.669   3.824
    3OL    H15S14864   5.870   5.643   3.849
    3OL    C11614865   5.923   5.852   3.853
    3OL    H16R14866   5.951   5.862   3.958
    3OL    H16S14867   5.817   5.875   3.842
    3OL    C11714868   5.998   5.951   3.763
    3OL    H17R14869   5.959   5.961   3.662
    3OL    H17S14870   6.095   5.900   3.755
    3OL    C11814871   6.013   6.091   3.823
    3OL    H18R14872   6.075   6.153   3.758
    3OL    H18S14873   6.069   6.073   3.915
    3OL    H18T14874   5.917   6.142   3.840
    1PA    C11614875   2.755   6.105   3.274
    1PA    H16R14876   2.723   6.207   3.298
    1PA    H16S14877   2.662   6.048   3.259
    1PA    H16T14878   2.811   6.118   3.181
    1PA    C11514879   2.824   6.040   3.395
    1PA    H15R14880   2.901   6.104   3.438
    1PA    H15S14881   2.751   6.041   3.476
    1PA    C11414882   2.895   5.906   3.375
    1PA    H14R14883   2.982   5.931   3.314
    1PA    H14S14884   2.934   5.863   3.467
    1PA    C11314885   2.807   5.808   3.295
    1PA    H13R14886   2.725   5.764   3.353
    1PA    H13S14887   2.758   5.850   3.208
    1PA    C11214888   2.888   5.685   3.251
    1PA    H12R14889   2.977   5.705   3.190
    1PA    H12S14890   2.915   5.617   3.332
    1PA    C11114891   2.799   5.605   3.155
    1PA    H11R14892   2.699   5.584   3.195
    1PA    H11S14893   2.775   5.664   3.066
    1PA    C11014894   2.856   5.470   3.111
    1PA    H10R14895   2.957   5.480   3.069
    1PA    H10S14896   2.868   5.402   3.195
    1PA     C1914897   2.760   5.428   2.999
    1PA     H9R14898   2.771   5.495   2.914
    1PA     H9S14899   2.657   5.427   3.035
    1PA     C1814900   2.786   5.290   2.936
    1PA     H8R14901   2.887   5.277   2.898
    1PA     H8S14902   2.754   5.213   3.007
    1PA     C1714903   2.697   5.266   2.814
    1PA     H7R14904   2.592   5.274   2.841
    1PA     H7S14905   2.709   5.347   2.741
    1PA     C1614906   2.732   5.138   2.737
    1PA     H6R14907   2.840   5.149   2.722
    1PA     H6S14908   2.722   5.053   2.805
    1PA     C1514909   2.658   5.128   2.603
    1PA     H5R14910   2.651   5.225   2.553
    1PA     H5S14911   2.708   5.053   2.541
    1PA     C1414912   2.514   5.076   2.605
    1PA     H4R14913   2.503   4.976   2.646
    1PA     H4S14914   2.465   5.143   2.677
    1PA     C1314915   2.448   5.094   2.468
    1PA     H3R14916   2.450   5.198   2.435
    1PA     H3S14917   2.520   5.043   2.403
    1PA     C1214918   2.305   5.037   2.466
    1PA     H2R14919   2.294   4.948   2.527
    1PA     H2S14920   2.234   5.113   2.499
    2PC     C1114921   2.257   4.995   2.329
    2PC     O1214922   2.137   4.988   2.308
    2PC     O1114923   2.355   4.961   2.244
    2PC      C114924   2.320   4.947   2.105
    2PC      HR14925   2.280   4.846   2.097
    2PC      HS14926   2.236   5.013   2.078
    2PC      C214927   2.444   4.972   2.018
    2PC      HX14928   2.483   5.071   2.043
    2PC      C314929   2.420   4.945   1.869
    2PC      HA14930   2.389   4.841   1.856
    2PC      HB14931   2.348   5.011   1.820
    2PC     O3114932   2.550   4.968   1.811
    2PC     P3114933   2.575   4.941   1.655
    2PC     O3214934   2.732   4.910   1.658
    2PC     C3114935   2.778   4.782   1.706
    2PC     H1A14936   2.781   4.792   1.815
    2PC     H1B14937   2.693   4.715   1.696
    2PC     C3214938   2.898   4.729   1.627
    2PC     H2A14939   2.986   4.793   1.634
    2PC     H2B14940   2.930   4.628   1.653
    2PC     N3114941   2.884   4.722   1.478
    2PC     C3314942   2.973   4.614   1.424
    2PC     H3A14943   2.956   4.610   1.316
    2PC     H3B14944   3.077   4.638   1.447
    2PC     H3C14945   2.950   4.515   1.465
    2PC     C3414946   2.740   4.693   1.445
    2PC     H4A14947   2.678   4.777   1.479
    2PC     H4B14948   2.734   4.690   1.336
    2PC     H4C14949   2.707   4.597   1.484
    2PC     C3514950   2.924   4.855   1.422
    2PC     H5A14951   2.913   4.857   1.313
    2PC     H5B14952   3.024   4.886   1.453
    2PC     H5C14953   2.848   4.918   1.467
    2PC     O3314954   2.495   4.828   1.604
    2PC     O3414955   2.546   5.040   1.549
    2PC     O2114956   2.536   4.870   2.059
    2PC     C2114957   2.625   4.901   2.155
    2PC     O2214958   2.658   5.016   2.179
    3OL     C1214959   2.685   4.779   2.219
    3OL     H2R14960   2.781   4.763   2.169
    3OL     H2S14961   2.612   4.698   2.219
    3OL     C1314962   2.722   4.814   2.364
    3OL     H3R14963   2.630   4.832   2.420
    3OL     H3S14964   2.785   4.903   2.363
    3OL     C1414965   2.790   4.697   2.436
    3OL     H4R14966   2.884   4.684   2.382
    3OL     H4S14967   2.720   4.613   2.431
    3OL     C1514968   2.816   4.740   2.581
    3OL     H5R14969   2.718   4.760   2.627
    3OL     H5S14970   2.876   4.832   2.580
    3OL     C1614971   2.869   4.621   2.662
    3OL     H6R14972   2.972   4.600   2.632
    3OL     H6S14973   2.797   4.539   2.666
    3OL     C1714974   2.905   4.675   2.802
    3OL     H7R14975   2.985   4.745   2.781
    3OL     H7S14976   2.942   4.597   2.869
    3OL     C1814977   2.794   4.747   2.880
    3OL     H8R14978   2.772   4.842   2.831
    3OL     H8S14979   2.841   4.786   2.970
    3OL     C1914980   2.677   4.657   2.907
    3OL     H9R14981   2.620   4.628   2.819
    3OL    C11014982   2.644   4.609   3.027
    3OL    H10R14983   2.559   4.541   3.028
    3OL    C11114984   2.730   4.628   3.149
    3OL    H11R14985   2.682   4.685   3.228
    3OL    H11S14986   2.819   4.691   3.132
    3OL    C11214987   2.791   4.495   3.194
    3OL    H12R14988   2.880   4.462   3.140
    3OL    H12S14989   2.716   4.418   3.174
    3OL    C11314990   2.801   4.506   3.347
    3OL    H13R14991   2.703   4.522   3.391
    3OL    H13S14992   2.862   4.590   3.380
    3OL    C11414993   2.855   4.373   3.402
    3OL    H14R14994   2.948   4.332   3.362
    3OL    H14S14995   2.776   4.299   3.389
    3OL    C11514996   2.881   4.396   3.552
    3OL    H15R14997   2.785   4.414   3.602
    3OL    H15S14998   2.943   4.485   3.564
    3OL    C11614999   2.937   4.270   3.620
    3OL    H16R15000   2.891   4.182   3.573
    3OL    H16S15001   2.920   4.270   3.728
    3OL    C11715002   3.087   4.258   3.590
    3OL    H17R15003   3.135   4.353   3.615
    3OL    H17S15004   3.107   4.237   3.485
    3OL    C11815005   3.153   4.148   3.674
    3OL    H18R15006   3.133   4.183   3.776
    3OL    H18S15007   3.262   4.140   3.669
    3OL    H18T15008   3.115   4.048   3.653
    1PA    C11615009   3.061   4.524   3.971
    1PA    H16R15010   3.136   4.597   4.000
    1PA    H16S15011   3.095   4.459   3.889
    1PA    H16T15012   3.043   4.462   4.059
    1PA    C11515013   2.942   4.605   3.917
    1PA    H15R15014   2.863   4.534   3.892
    1PA    H15S15015   2.911   4.682   3.988
    1PA    C11415016   2.979   4.687   3.792
    1PA    H14R15017   3.066   4.751   3.808
    1PA    H14S15018   3.017   4.616   3.718
    1PA    C11315019   2.849   4.749   3.738
    1PA    H13R15020   2.780   4.670   3.710
    1PA    H13S15021   2.803   4.815   3.812
    1PA    C11215022   2.867   4.842   3.617
    1PA    H12R15023   2.923   4.933   3.637
    1PA    H12S15024   2.910   4.782   3.536
    1PA    C11115025   2.732   4.897   3.572
    1PA    H11R15026   2.670   4.808   3.559
    1PA    H11S15027   2.692   4.958   3.654
    1PA    C11015028   2.732   4.986   3.447
    1PA    H10R15029   2.795   5.071   3.472
    1PA    H10S15030   2.783   4.936   3.365
    1PA     C1915031   2.586   5.023   3.415
    1PA     H9R15032   2.542   4.925   3.395
    1PA     H9S15033   2.539   5.070   3.502
    1PA     C1815034   2.592   5.119   3.296
    1PA     H8R15035   2.530   5.209   3.300
    1PA     H8S15036   2.694   5.154   3.280
    1PA     C1715037   2.553   5.046   3.167
    1PA     H7R15038   2.581   5.101   3.076
    1PA     H7S15039   2.625   4.965   3.158
    1PA     C1615040   2.405   5.004   3.154
    1PA     H6R15041   2.368   4.948   3.240
    1PA     H6S15042   2.345   5.095   3.146
    1PA     C1515043   2.382   4.924   3.025
    1PA     H5R15044   2.359   4.987   2.939
    1PA     H5S15045   2.471   4.861   3.014
    1PA     C1415046   2.273   4.820   3.055
    1PA     H4R15047   2.301   4.768   3.147
    1PA     H4S15048   2.186   4.882   3.075
    1PA     C1315049   2.242   4.722   2.942
    1PA     H3R15050   2.331   4.660   2.928
    1PA     H3S15051   2.153   4.669   2.977
    1PA     C1215052   2.194   4.784   2.810
    1PA     H2R15053   2.098   4.834   2.825
    1PA     H2S15054   2.272   4.857   2.788
    2PC     C1115055   2.184   4.688   2.694
    2PC     O1215056   2.172   4.568   2.704
    2PC     O1115057   2.202   4.737   2.570
    2PC      C115058   2.199   4.654   2.453
    2PC      HR15059   2.128   4.571   2.466
    2PC      HS15060   2.166   4.715   2.369
    2PC      C215061   2.338   4.600   2.417
    2PC      HX15062   2.412   4.681   2.416
    2PC      C315063   2.348   4.562   2.268
    2PC      HA15064   2.343   4.651   2.204
    2PC      HB15065   2.446   4.513   2.260
    2PC     O3115066   2.238   4.475   2.240
    2PC     P3115067   2.147   4.512   2.113
    2PC     O3215068   2.087   4.364   2.096
    2PC     C3115069   1.995   4.343   1.987
    2PC     H1A15070   1.912   4.409   2.013
    2PC     H1B15071   2.040   4.368   1.891
    2PC     C3215072   1.980   4.191   1.981
    2PC     H2A15073   2.069   4.143   1.941
    2PC     H2B15074   1.971   4.148   2.081
    2PC     N3115075   1.868   4.129   1.904
    2PC     C3315076   1.740   4.141   1.979
    2PC     H3A15077   1.663   4.065   1.966
    2PC     H3B15078   1.755   4.141   2.087
    2PC     H3C15079   1.703   4.241   1.955
    2PC     C3415080   1.865   4.187   1.766
    2PC     H4A15081   1.777   4.147   1.715
    2PC     H4B15082   1.847   4.295   1.774
    2PC     H4C15083   1.952   4.164   1.704
    2PC     C3515084   1.894   3.982   1.886
    2PC     H5A15085   1.993   3.968   1.843
    2PC     H5B15086   1.819   3.940   1.819
    2PC     H5C15087   1.875   3.924   1.977
    2PC     O3315088   2.061   4.624   2.156
    2PC     O3415089   2.224   4.549   1.992
    2PC     O2115090   2.377   4.491   2.503
    2PC     C2115091   2.430   4.500   2.626
    2PC     O2215092   2.476   4.606   2.664
    3OL     C1215093   2.448   4.361   2.680
    3OL     H2R15094   2.453   4.277   2.609
    3OL     H2S15095   2.367   4.334   2.748
    3OL     C1315096   2.578   4.358   2.763
    3OL     H3R15097   2.578   4.420   2.853
    3OL     H3S15098   2.649   4.397   2.690
    3OL     C1415099   2.614   4.219   2.817
    3OL     H4R15100   2.655   4.162   2.734
    3OL     H4S15101   2.530   4.164   2.860
    3OL     C1515102   2.713   4.237   2.933
    3OL     H5R15103   2.660   4.300   3.004
    3OL     H5S15104   2.804   4.290   2.905
    3OL     C1615105   2.754   4.106   3.002
    3OL     H6R15106   2.799   4.046   2.923
    3OL     H6S15107   2.667   4.047   3.032
    3OL     C1715108   2.857   4.124   3.114
    3OL     H7R15109   2.826   4.193   3.192
    3OL     H7S15110   2.943   4.174   3.068
    3OL     C1815111   2.902   3.994   3.182
    3OL     H8R15112   2.914   3.923   3.100
    3OL     H8S15113   2.818   3.955   3.240
    3OL     C1915114   3.026   3.995   3.269
    3OL     H9R15115   3.018   4.063   3.353
    3OL    C11015116   3.138   3.930   3.245
    3OL    H10R15117   3.216   3.927   3.320
    3OL    C11115118   3.146   3.821   3.141
    3OL    H11R15119   3.128   3.868   3.044
    3OL    H11S15120   3.080   3.735   3.157
    3OL    C11215121   3.289   3.765   3.136
    3OL    H12R15122   3.352   3.854   3.143
    3OL    H12S15123   3.313   3.718   3.041
    3OL    C11315124   3.320   3.674   3.256
    3OL    H13R15125   3.269   3.580   3.233
    3OL    H13S15126   3.283   3.717   3.350
    3OL    C11415127   3.472   3.662   3.269
    3OL    H14R15128   3.511   3.754   3.313
    3OL    H14S15129   3.526   3.645   3.175
    3OL    C11515130   3.513   3.551   3.367
    3OL    H15R15131   3.488   3.451   3.332
    3OL    H15S15132   3.455   3.560   3.460
    3OL    C11615133   3.662   3.553   3.402
    3OL    H16R15134   3.727   3.549   3.315
    3OL    H16S15135   3.679   3.460   3.458
    3OL    C11715136   3.698   3.669   3.496
    3OL    H17R15137   3.639   3.661   3.587
    3OL    H17S15138   3.686   3.767   3.449
    3OL    C11815139   3.845   3.669   3.541
    3OL    H18R15140   3.898   3.576   3.565
    3OL    H18S15141   3.851   3.740   3.625
    3OL    H18T15142   3.909   3.705   3.461
    1PA    C11615143   4.575   2.169   2.603
    1PA    H16R15144   4.623   2.155   2.700
    1PA    H16S15145   4.637   2.142   2.518
    1PA    H16T15146   4.486   2.106   2.598
    1PA    C11515147   4.514   2.310   2.594
    1PA    H15R15148   4.592   2.377   2.559
    1PA    H15S15149   4.423   2.298   2.534
    1PA    C11415150   4.469   2.366   2.729
    1PA    H14R15151   4.385   2.304   2.761
    1PA    H14S15152   4.552   2.359   2.800
    1PA    C11315153   4.423   2.513   2.723
    1PA    H13R15154   4.496   2.577   2.673
    1PA    H13S15155   4.330   2.525   2.668
    1PA    C11215156   4.403   2.568   2.865
    1PA    H12R15157   4.332   2.501   2.913
    1PA    H12S15158   4.500   2.552   2.914
    1PA    C11115159   4.372   2.718   2.868
    1PA    H11R15160   4.454   2.775   2.825
    1PA    H11S15161   4.284   2.739   2.805
    1PA    C11015162   4.340   2.756   3.013
    1PA    H10R15163   4.254   2.706   3.056
    1PA    H10S15164   4.429   2.725   3.069
    1PA     C1915165   4.315   2.906   3.038
    1PA     H9R15166   4.233   2.943   2.976
    1PA     H9S15167   4.284   2.918   3.142
    1PA     C1815168   4.447   2.983   3.024
    1PA     H8R15169   4.515   2.944   3.099
    1PA     H8S15170   4.497   2.974   2.927
    1PA     C1715171   4.425   3.131   3.057
    1PA     H7R15172   4.329   3.156   3.011
    1PA     H7S15173   4.408   3.141   3.164
    1PA     C1615174   4.545   3.221   3.026
    1PA     H6R15175   4.524   3.316   3.076
    1PA     H6S15176   4.639   3.175   3.060
    1PA     C1515177   4.563   3.236   2.875
    1PA     H5R15178   4.668   3.266   2.864
    1PA     H5S15179   4.544   3.136   2.834
    1PA     C1415180   4.460   3.336   2.820
    1PA     H4R15181   4.360   3.306   2.850
    1PA     H4S15182   4.486   3.436   2.855
    1PA     C1315183   4.464   3.350   2.667
    1PA     H3R15184   4.565   3.379   2.639
    1PA     H3S15185   4.443   3.249   2.629
    1PA     C1215186   4.358   3.440   2.601
    1PA     H2R15187   4.260   3.404   2.632
    1PA     H2S15188   4.375   3.543   2.630
    2PC     C1115189   4.361   3.447   2.450
    2PC     O1215190   4.293   3.380   2.375
    2PC     O1115191   4.453   3.535   2.407
    2PC      C115192   4.490   3.536   2.268
    2PC      HR15193   4.550   3.449   2.239
    2PC      HS15194   4.395   3.547   2.215
    2PC      C215195   4.574   3.663   2.244
    2PC      HX15196   4.535   3.749   2.301
    2PC      C315197   4.587   3.712   2.100
    2PC      HA15198   4.495   3.693   2.044
    2PC      HB15199   4.603   3.820   2.091
    2PC     O3115200   4.688   3.626   2.044
    2PC     P3115201   4.720   3.634   1.888
    2PC     O3215202   4.619   3.521   1.837
    2PC     C3115203   4.649   3.383   1.862
    2PC     H1A15204   4.745   3.352   1.818
    2PC     H1B15205   4.653   3.374   1.971
    2PC     C3215206   4.537   3.296   1.803
    2PC     H2A15207   4.447   3.356   1.807
    2PC     H2B15208   4.557   3.288   1.696
    2PC     N3115209   4.505   3.155   1.844
    2PC     C3315210   4.371   3.121   1.786
    2PC     H3A15211   4.378   3.151   1.681
    2PC     H3B15212   4.369   3.012   1.783
    2PC     H3C15213   4.288   3.152   1.850
    2PC     C3415214   4.609   3.061   1.792
    2PC     H4A15215   4.620   3.067   1.684
    2PC     H4B15216   4.707   3.084   1.833
    2PC     H4C15217   4.580   2.958   1.817
    2PC     C3515218   4.492   3.148   1.993
    2PC     H5A15219   4.457   3.051   2.029
    2PC     H5B15220   4.429   3.232   2.022
    2PC     H5C15221   4.588   3.165   2.041
    2PC     O3315222   4.681   3.763   1.826
    2PC     O3415223   4.862   3.604   1.857
    2PC     O2115224   4.697   3.634   2.312
    2PC     C2115225   4.782   3.733   2.346
    2PC     O2215226   4.765   3.850   2.318
    3OL     C1215227   4.914   3.686   2.402
    3OL     H2R15228   4.973   3.777   2.412
    3OL     H2S15229   4.960   3.621   2.326
    3OL     C1315230   4.911   3.609   2.534
    3OL     H3R15231   4.889   3.506   2.506
    3OL     H3S15232   4.825   3.629   2.598
    3OL     C1415233   5.041   3.604   2.615
    3OL     H4R15234   5.054   3.702   2.661
    3OL     H4S15235   5.118   3.585   2.540
    3OL     C1515236   5.032   3.503   2.731
    3OL     H5R15237   4.930   3.494   2.769
    3OL     H5S15238   5.093   3.529   2.818
    3OL     C1615239   5.075   3.361   2.691
    3OL     H6R15240   5.019   3.349   2.598
    3OL     H6S15241   5.027   3.285   2.753
    3OL     C1715242   5.227   3.349   2.668
    3OL     H7R15243   5.283   3.370   2.759
    3OL     H7S15244   5.254   3.417   2.587
    3OL     C1815245   5.278   3.211   2.627
    3OL     H8R15246   5.385   3.224   2.610
    3OL     H8S15247   5.218   3.179   2.541
    3OL     C1915248   5.260   3.099   2.726
    3OL     H9R15249   5.196   3.018   2.692
    3OL    C11015250   5.315   3.083   2.845
    3OL    H10R15251   5.302   2.986   2.892
    3OL    C11115252   5.406   3.182   2.914
    3OL    H11R15253   5.433   3.250   2.833
    3OL    H11S15254   5.490   3.123   2.950
    3OL    C11215255   5.326   3.244   3.029
    3OL    H12R15256   5.286   3.168   3.097
    3OL    H12S15257   5.244   3.311   3.003
    3OL    C11315258   5.432   3.308   3.121
    3OL    H13R15259   5.475   3.389   3.062
    3OL    H13S15260   5.507   3.231   3.143
    3OL    C11415261   5.369   3.361   3.250
    3OL    H14R15262   5.450   3.352   3.324
    3OL    H14S15263   5.280   3.308   3.285
    3OL    C11515264   5.345   3.512   3.236
    3OL    H15R15265   5.433   3.562   3.195
    3OL    H15S15266   5.335   3.561   3.333
    3OL    C11615267   5.222   3.549   3.151
    3OL    H16R15268   5.139   3.496   3.198
    3OL    H16S15269   5.237   3.526   3.046
    3OL    C11715270   5.201   3.700   3.165
    3OL    H17R15271   5.286   3.758   3.126
    3OL    H17S15272   5.185   3.732   3.268
    3OL    C11815273   5.079   3.754   3.088
    3OL    H18R15274   5.071   3.713   2.987
    3OL    H18S15275   5.086   3.863   3.087
    3OL    H18T15276   4.990   3.726   3.143
    1PA    C11615277   5.248   5.302   4.209
    1PA    H16R15278   5.226   5.220   4.139
    1PA    H16S15279   5.152   5.341   4.246
    1PA    H16T15280   5.313   5.272   4.291
    1PA    C11515281   5.319   5.402   4.118
    1PA    H15R15282   5.342   5.494   4.172
    1PA    H15S15283   5.418   5.365   4.092
    1PA    C11415284   5.230   5.433   3.996
    1PA    H14R15285   5.131   5.398   4.024
    1PA    H14S15286   5.220   5.541   3.979
    1PA    C11315287   5.264   5.353   3.870
    1PA    H13R15288   5.370   5.360   3.843
    1PA    H13S15289   5.234   5.248   3.880
    1PA    C11215290   5.188   5.417   3.753
    1PA    H12R15291   5.083   5.403   3.778
    1PA    H12S15292   5.215   5.523   3.747
    1PA    C11115293   5.236   5.345   3.626
    1PA    H11R15294   5.344   5.353   3.631
    1PA    H11S15295   5.215   5.238   3.632
    1PA    C11015296   5.170   5.414   3.506
    1PA    H10R15297   5.063   5.403   3.484
    1PA    H10S15298   5.187   5.522   3.501
    1PA     C1915299   5.238   5.352   3.383
    1PA     H9R15300   5.338   5.392   3.368
    1PA     H9S15301   5.250   5.244   3.394
    1PA     C1815302   5.145   5.363   3.261
    1PA     H8R15303   5.070   5.286   3.280
    1PA     H8S15304   5.085   5.453   3.251
    1PA     C1715305   5.209   5.316   3.130
    1PA     H7R15306   5.289   5.386   3.103
    1PA     H7S15307   5.243   5.213   3.145
    1PA     C1615308   5.107   5.321   3.015
    1PA     H6R15309   5.014   5.272   3.045
    1PA     H6S15310   5.087   5.422   2.981
    1PA     C1515311   5.151   5.239   2.893
    1PA     H5R15312   5.232   5.172   2.924
    1PA     H5S15313   5.068   5.177   2.857
    1PA     C1415314   5.215   5.333   2.790
    1PA     H4R15315   5.162   5.428   2.784
    1PA     H4S15316   5.309   5.365   2.836
    1PA     C1315317   5.251   5.266   2.657
    1PA     H3R15318   5.316   5.336   2.604
    1PA     H3S15319   5.310   5.174   2.668
    1PA     C1215320   5.125   5.237   2.573
    1PA     H2R15321   5.091   5.145   2.620
    1PA     H2S15322   5.061   5.325   2.584
    2PC     C1115323   5.159   5.199   2.431
    2PC     O1215324   5.140   5.269   2.333
    2PC     O1115325   5.191   5.070   2.418
    2PC      C115326   5.234   5.020   2.290
    2PC      HR15327   5.209   4.914   2.280
    2PC      HS15328   5.178   5.072   2.212
    2PC      C215329   5.386   5.039   2.284
    2PC      HX15330   5.424   5.131   2.329
    2PC      C315331   5.442   5.027   2.141
    2PC      HA15332   5.388   5.093   2.073
    2PC      HB15333   5.548   5.052   2.138
    2PC     O3115334   5.423   4.892   2.095
    2PC     P3115335   5.467   4.850   1.947
    2PC     O3215336   5.388   4.949   1.848
    2PC     C3115337   5.353   4.899   1.718
    2PC     H1A15338   5.447   4.860   1.679
    2PC     H1B15339   5.288   4.812   1.728
    2PC     C3215340   5.295   5.009   1.628
    2PC     H2A15341   5.250   4.963   1.539
    2PC     H2B15342   5.213   5.056   1.682
    2PC     N3115343   5.386   5.120   1.583
    2PC     C3315344   5.304   5.236   1.537
    2PC     H3A15345   5.233   5.202   1.461
    2PC     H3B15346   5.249   5.277   1.622
    2PC     H3C15347   5.361   5.315   1.488
    2PC     C3415348   5.473   5.180   1.689
    2PC     H4A15349   5.515   5.101   1.751
    2PC     H4B15350   5.545   5.244   1.637
    2PC     H4C15351   5.414   5.255   1.742
    2PC     C3515352   5.483   5.075   1.477
    2PC     H5A15353   5.427   5.054   1.385
    2PC     H5B15354   5.531   4.987   1.520
    2PC     H5C15355   5.533   5.168   1.453
    2PC     O3315356   5.611   4.873   1.920
    2PC     O3415357   5.433   4.707   1.931
    2PC     O2115358   5.443   4.937   2.368
    2PC     C2115359   5.575   4.940   2.391
    2PC     O2215360   5.661   5.015   2.349
    3OL     C1215361   5.608   4.823   2.480
    3OL     H2R15362   5.564   4.732   2.437
    3OL     H2S15363   5.558   4.838   2.577
    3OL     C1315364   5.755   4.796   2.515
    3OL     H3R15365   5.817   4.795   2.425
    3OL     H3S15366   5.772   4.694   2.551
    3OL     C1415367   5.811   4.894   2.618
    3OL     H4R15368   5.774   4.997   2.608
    3OL     H4S15369   5.920   4.892   2.609
    3OL     C1515370   5.788   4.845   2.761
    3OL     H5R15371   5.682   4.821   2.777
    3OL     H5S15372   5.811   4.931   2.824
    3OL     C1615373   5.866   4.720   2.803
    3OL     H6R15374   5.970   4.743   2.781
    3OL     H6S15375   5.845   4.635   2.737
    3OL     C1715376   5.836   4.674   2.947
    3OL     H7R15377   5.888   4.579   2.951
    3OL     H7S15378   5.729   4.654   2.960
    3OL     C1815379   5.883   4.778   3.050
    3OL     H8R15380   5.871   4.738   3.151
    3OL     H8S15381   5.818   4.863   3.030
    3OL     C1915382   6.026   4.822   3.026
    3OL     H9R15383   6.094   4.763   2.965
    3OL    C11015384   6.080   4.933   3.074
    3OL    H10R15385   6.182   4.965   3.054
    3OL    C11115386   6.001   5.025   3.163
    3OL    H11R15387   5.903   4.984   3.187
    3OL    H11S15388   5.984   5.121   3.114
    3OL    C11215389   6.075   5.066   3.291
    3OL    H12R15390   6.151   5.143   3.272
    3OL    H12S15391   6.126   4.978   3.331
    3OL    C11315392   5.978   5.117   3.399
    3OL    H13R15393   5.908   5.044   3.441
    3OL    H13S15394   5.921   5.191   3.342
    3OL    C11415395   6.048   5.162   3.528
    3OL    H14R15396   5.964   5.189   3.592
    3OL    H14S15397   6.104   5.254   3.514
    3OL    C11515398   6.138   5.057   3.595
    3OL    H15R15399   6.233   5.043   3.543
    3OL    H15S15400   6.091   4.961   3.613
    3OL    C11615401   6.173   5.111   3.735
    3OL    H16R15402   6.160   5.219   3.736
    3OL    H16S15403   6.272   5.072   3.762
    3OL    C11715404   6.071   5.064   3.839
    3OL    H17R15405   6.072   4.957   3.860
    3OL    H17S15406   5.972   5.102   3.812
    3OL    C11815407   6.120   5.122   3.973
    3OL    H18R15408   6.067   5.075   4.055
    3OL    H18S15409   6.090   5.227   3.971
    3OL    H18T15410   6.228   5.116   3.987
    1PA    C11615411   0.285   6.156   3.875
    1PA    H16R15412   0.202   6.214   3.914
    1PA    H16S15413   0.346   6.215   3.805
    1PA    H16T15414   0.345   6.126   3.961
    1PA    C11515415   0.239   6.032   3.798
    1PA    H15R15416   0.327   5.982   3.757
    1PA    H15S15417   0.195   5.959   3.866
    1PA    C11415418   0.142   6.074   3.686
    1PA    H14R15419   0.066   6.136   3.733
    1PA    H14S15420   0.197   6.134   3.614
    1PA    C11315421   0.079   5.952   3.616
    1PA    H13R15422   0.155   5.890   3.568
    1PA    H13S15423   0.029   5.888   3.689
    1PA    C11215424   6.464   6.012   3.519
    1PA    H12R15425   6.391   6.068   3.578
    1PA    H12S15426   0.021   6.087   3.452
    1PA    C11115427   6.401   5.899   3.436
    1PA    H11R15428   6.481   5.881   3.365
    1PA    H11S15429   6.378   5.814   3.501
    1PA    C11015430   6.274   5.952   3.367
    1PA    H10R15431   6.200   6.005   3.427
    1PA    H10S15432   6.313   6.025   3.296
    1PA     C1915433   6.203   5.838   3.292
    1PA     H9R15434   6.277   5.776   3.241
    1PA     H9S15435   6.146   5.784   3.368
    1PA     C1815436   6.089   5.881   3.199
    1PA     H8R15437   6.018   5.939   3.258
    1PA     H8S15438   6.125   5.955   3.128
    1PA     C1715439   6.021   5.765   3.124
    1PA     H7R15440   6.101   5.719   3.065
    1PA     H7S15441   5.980   5.696   3.197
    1PA     C1615442   5.903   5.808   3.036
    1PA     H6R15443   5.827   5.872   3.083
    1PA     H6S15444   5.943   5.868   2.955
    1PA     C1515445   5.840   5.686   2.966
    1PA     H5R15446   5.914   5.631   2.907
    1PA     H5S15447   5.802   5.614   3.038
    1PA     C1415448   5.726   5.727   2.872
    1PA     H4R15449   5.670   5.633   2.871
    1PA     H4S15450   5.679   5.819   2.906
    1PA     C1315451   5.770   5.765   2.730
    1PA     H3R15452   5.843   5.846   2.728
    1PA     H3S15453   5.825   5.685   2.679
    1PA     C1215454   5.648   5.803   2.645
    1PA     H2R15455   5.578   5.721   2.628
    1PA     H2S15456   5.593   5.884   2.693
    2PC     C1115457   5.688   5.853   2.509
    2PC     O1215458   5.797   5.843   2.455
    2PC     O1115459   5.583   5.910   2.448
    2PC      C115460   5.606   5.965   2.317
    2PC      HR15461   5.666   6.056   2.318
    2PC      HS15462   5.668   5.903   2.251
    2PC      C215463   5.467   6.006   2.265
    2PC      HX15464   5.402   5.918   2.274
    2PC      C315465   5.468   6.048   2.118
    2PC      HA15466   5.506   5.972   2.050
    2PC      HB15467   5.369   6.086   2.091
    2PC     O3115468   5.550   6.164   2.094
    2PC     P3115469   5.503   6.258   1.973
    2PC     O3215470   5.382   6.339   2.040
    2PC     C3115471   5.272   6.371   1.954
    2PC     H1A15472   5.293   6.450   1.882
    2PC     H1B15473   5.245   6.280   1.900
    2PC     C3215474   5.158   6.413   2.048
    2PC     H2A15475   5.129   6.329   2.111
    2PC     H2B15476   5.191   0.014   2.105
    2PC     N3115477   5.030   6.454   1.983
    2PC     C3315478   5.052   0.100   1.915
    2PC     H3A15479   5.144   0.104   1.856
    2PC     H3B15480   4.968   0.122   1.849
    2PC     H3C15481   5.062   0.174   1.994
    2PC     C3415482   4.981   6.362   1.876
    2PC     H4A15483   4.983   6.260   1.916
    2PC     H4B15484   4.876   6.390   1.862
    2PC     H4C15485   5.036   6.369   1.782
    2PC     C3515486   4.923   6.467   2.088
    2PC     H5A15487   4.820   6.470   2.054
    2PC     H5B15488   4.952   0.054   2.163
    2PC     H5C15489   4.933   6.374   2.144
    2PC     O3315490   5.608   6.346   1.918
    2PC     O3415491   5.463   6.162   1.866
    2PC     O2115492   5.416   6.108   2.353
    2PC     C2115493   5.283   6.126   2.347
    2PC     O2215494   5.206   6.072   2.271
    3OL     C1215495   5.235   6.222   2.452
    3OL     H2R15496   5.199   6.316   2.410
    3OL     H2S15497   5.323   6.246   2.513
    3OL     C1315498   5.123   6.159   2.536
    3OL     H3R15499   5.164   6.067   2.579
    3OL     H3S15500   5.045   6.131   2.464
    3OL     C1415501   5.075   6.257   2.644
    3OL     H4R15502   5.034   6.342   2.589
    3OL     H4S15503   5.162   6.287   2.703
    3OL     C1515504   4.967   6.198   2.735
    3OL     H5R15505   5.016   6.117   2.790
    3OL     H5S15506   4.881   6.159   2.680
    3OL     C1615507   4.927   6.298   2.844
    3OL     H6R15508   5.014   6.355   2.876
    3OL     H6S15509   4.875   6.247   2.925
    3OL     C1715510   4.832   6.396   2.773
    3OL     H7R15511   4.758   6.338   2.717
    3OL     H7S15512   4.888   6.465   2.710
    3OL     C1815513   4.739   6.474   2.867
    3OL     H8R15514   4.683   0.062   2.808
    3OL     H8S15515   4.798   0.040   2.942
    3OL     C1915516   4.644   6.375   2.929
    3OL     H9R15517   4.694   6.296   2.985
    3OL    C11015518   4.512   6.372   2.926
    3OL    H10R15519   4.460   6.291   2.975
    3OL    C11115520   4.418   6.472   2.863
    3OL    H11R15521   4.316   6.437   2.856
    3OL    H11S15522   4.442   0.019   2.761
    3OL    C11215523   4.411   0.103   2.962
    3OL    H12R15524   4.358   0.187   2.917
    3OL    H12S15525   4.515   0.132   2.979
    3OL    C11315526   4.348   0.060   3.095
    3OL    H13R15527   4.401   6.458   3.132
    3OL    H13S15528   4.247   0.024   3.076
    3OL    C11415529   4.349   0.182   3.187
    3OL    H14R15530   4.287   0.263   3.147
    3OL    H14S15531   4.445   0.231   3.205
    3OL    C11515532   4.286   0.151   3.323
    3OL    H15R15533   4.199   0.085   3.316
    3OL    H15S15534   4.256   0.250   3.357
    3OL    C11615535   4.379   0.091   3.429
    3OL    H16R15536   4.465   0.158   3.434
    3OL    H16S15537   4.413   6.480   3.392
    3OL    C11715538   4.313   0.053   3.563
    3OL    H17R15539   4.241   6.459   3.549
    3OL    H17S15540   4.262   0.142   3.600
    3OL    C11815541   4.421   0.007   3.662
    3OL    H18R15542   4.383   6.472   3.763
    3OL    H18S15543   4.485   0.094   3.674
    3OL    H18T15544   4.472   6.410   3.613
    1PA    C11615545   3.088   3.030   3.146
    1PA    H16R15546   2.980   3.017   3.137
    1PA    H16S15547   3.111   3.030   3.253
    1PA    H16T15548   3.141   2.948   3.098
    1PA    C11515549   3.130   3.160   3.076
    1PA    H15R15550   3.110   3.160   2.968
    1PA    H15S15551   3.089   3.249   3.122
    1PA    C11415552   3.280   3.192   3.082
    1PA    H14R15553   3.323   3.184   3.182
    1PA    H14S15554   3.331   3.113   3.026
    1PA    C11315555   3.327   3.324   3.020
    1PA    H13R15556   3.308   3.322   2.913
    1PA    H13S15557   3.270   3.410   3.056
    1PA    C11215558   3.472   3.360   3.057
    1PA    H12R15559   3.485   3.467   3.037
    1PA    H12S15560   3.491   3.326   3.159
    1PA    C11115561   3.562   3.291   2.954
    1PA    H11R15562   3.538   3.186   2.940
    1PA    H11S15563   3.553   3.345   2.859
    1PA    C11015564   3.713   3.295   2.984
    1PA    H10R15565   3.753   3.389   3.022
    1PA    H10S15566   3.725   3.211   3.052
    1PA     C1915567   3.789   3.250   2.858
    1PA     H9R15568   3.756   3.158   2.810
    1PA     H9S15569   3.786   3.331   2.785
    1PA     C1815570   3.933   3.226   2.906
    1PA     H8R15571   3.965   3.310   2.967
    1PA     H8S15572   3.941   3.132   2.961
    1PA     C1715573   4.036   3.209   2.794
    1PA     H7R15574   4.034   3.304   2.740
    1PA     H7S15575   4.136   3.203   2.836
    1PA     C1615576   4.013   3.085   2.707
    1PA     H6R15577   4.028   2.998   2.771
    1PA     H6S15578   3.911   3.077   2.669
    1PA     C1515579   4.118   3.083   2.595
    1PA     H5R15580   4.073   3.023   2.515
    1PA     H5S15581   4.126   3.184   2.554
    1PA     C1415582   4.247   3.016   2.646
    1PA     H4R15583   4.304   3.075   2.717
    1PA     H4S15584   4.231   2.920   2.695
    1PA     C1315585   4.343   3.002   2.527
    1PA     H3R15586   4.321   2.924   2.453
    1PA     H3S15587   4.358   3.099   2.480
    1PA     C1215588   4.480   2.959   2.580
    1PA     H2R15589   4.529   3.038   2.637
    1PA     H2S15590   4.472   2.867   2.639
    2PC     C1115591   4.569   2.929   2.462
    2PC     O1215592   4.628   3.024   2.415
    2PC     O1115593   4.564   2.798   2.430
    2PC      C115594   4.622   2.755   2.305
    2PC      HR15595   4.575   2.807   2.221
    2PC      HS15596   4.723   2.797   2.299
    2PC      C215597   4.603   2.603   2.293
    2PC      HX15598   4.660   2.564   2.208
    2PC      C315599   4.454   2.569   2.291
    2PC      HA15600   4.418   2.578   2.394
    2PC      HB15601   4.392   2.632   2.226
    2PC     O3115602   4.428   2.431   2.260
    2PC     P3115603   4.431   2.395   2.104
    2PC     O3215604   4.309   2.291   2.112
    2PC     C3115605   4.318   2.179   2.202
    2PC     H1A15606   4.395   2.110   2.165
    2PC     H1B15607   4.331   2.227   2.299
    2PC     C3215608   4.180   2.112   2.213
    2PC     H2A15609   4.193   2.017   2.266
    2PC     H2B15610   4.119   2.187   2.263
    2PC     N3115611   4.111   2.071   2.086
    2PC     C3315612   4.011   1.963   2.112
    2PC     H3A15613   4.051   1.862   2.120
    2PC     H3B15614   3.941   1.978   2.194
    2PC     H3C15615   3.943   1.965   2.027
    2PC     C3415616   4.035   2.188   2.031
    2PC     H4A15617   3.997   2.163   1.931
    2PC     H4B15618   3.952   2.210   2.099
    2PC     H4C15619   4.101   2.274   2.030
    2PC     C3515620   4.205   2.025   1.979
    2PC     H5A15621   4.153   1.996   1.887
    2PC     H5B15622   4.268   1.944   2.014
    2PC     H5C15623   4.266   2.112   1.954
    2PC     O3315624   4.414   2.509   2.011
    2PC     O3415625   4.561   2.336   2.066
    2PC     O2115626   4.655   2.549   2.416
    2PC     C2115627   4.788   2.549   2.433
    2PC     O2215628   4.869   2.578   2.347
    3OL     C1215629   4.828   2.515   2.574
    3OL     H2R15630   4.739   2.547   2.628
    3OL     H2S15631   4.910   2.578   2.608
    3OL     C1315632   4.873   2.369   2.590
    3OL     H3R15633   4.959   2.353   2.525
    3OL     H3S15634   4.799   2.297   2.556
    3OL     C1415635   4.898   2.345   2.739
    3OL     H4R15636   4.801   2.351   2.789
    3OL     H4S15637   4.961   2.425   2.780
    3OL     C1515638   4.963   2.209   2.765
    3OL     H5R15639   5.057   2.204   2.710
    3OL     H5S15640   4.906   2.121   2.737
    3OL     C1615641   4.990   2.193   2.916
    3OL     H6R15642   5.020   2.090   2.939
    3OL     H6S15643   4.893   2.199   2.965
    3OL     C1715644   5.081   2.303   2.971
    3OL     H7R15645   5.024   2.396   2.979
    3OL     H7S15646   5.162   2.324   2.901
    3OL     C1815647   5.142   2.248   3.101
    3OL     H8R15648   5.075   2.206   3.176
    3OL     H8S15649   5.181   2.341   3.143
    3OL     C1915650   5.255   2.156   3.065
    3OL     H9R15651   5.323   2.187   2.985
    3OL    C11015652   5.254   2.026   3.088
    3OL    H10R15653   5.338   1.971   3.046
    3OL    C11115654   5.158   1.951   3.177
    3OL    H11R15655   5.098   1.885   3.115
    3OL    H11S15656   5.088   2.014   3.232
    3OL    C11215657   5.246   1.867   3.270
    3OL    H12R15658   5.303   1.943   3.324
    3OL    H12S15659   5.306   1.811   3.199
    3OL    C11315660   5.175   1.776   3.371
    3OL    H13R15661   5.089   1.727   3.323
    3OL    H13S15662   5.137   1.848   3.445
    3OL    C11415663   5.279   1.682   3.433
    3OL    H14R15664   5.356   1.738   3.486
    3OL    H14S15665   5.322   1.621   3.353
    3OL    C11515666   5.213   1.588   3.534
    3OL    H15R15667   5.127   1.535   3.491
    3OL    H15S15668   5.192   1.638   3.629
    3OL    C11615669   5.320   1.484   3.571
    3OL    H16R15670   5.409   1.531   3.612
    3OL    H16S15671   5.349   1.433   3.478
    3OL    C11715672   5.274   1.386   3.680
    3OL    H17R15673   5.182   1.330   3.666
    3OL    H17S15674   5.259   1.453   3.765
    3OL    C11815675   5.378   1.280   3.720
    3OL    H18R15676   5.404   1.225   3.629
    3OL    H18S15677   5.333   1.203   3.782
    3OL    H18T15678   5.458   1.333   3.772
    1PA    C11615679   1.986   5.221   3.919
    1PA    H16R15680   1.952   5.298   3.989
    1PA    H16S15681   2.089   5.189   3.938
    1PA    H16T15682   1.919   5.138   3.947
    1PA    C11515683   1.947   5.258   3.775
    1PA    H15R15684   1.839   5.262   3.764
    1PA    H15S15685   1.986   5.360   3.765
    1PA    C11415686   1.996   5.164   3.664
    1PA    H14R15687   2.098   5.133   3.689
    1PA    H14S15688   1.929   5.078   3.659
    1PA    C11315689   1.993   5.229   3.525
    1PA    H13R15690   1.976   5.148   3.455
    1PA    H13S15691   1.906   5.294   3.514
    1PA    C11215692   2.123   5.295   3.477
    1PA    H12R15693   2.134   5.393   3.525
    1PA    H12S15694   2.215   5.240   3.496
    1PA    C11115695   2.108   5.327   3.328
    1PA    H11R15696   2.098   5.239   3.264
    1PA    H11S15697   2.025   5.396   3.309
    1PA    C11015698   2.227   5.417   3.294
    1PA    H10R15699   2.209   5.512   3.344
    1PA    H10S15700   2.323   5.376   3.327
    1PA     C1915701   2.229   5.447   3.143
    1PA     H9R15702   2.220   5.355   3.085
    1PA     H9S15703   2.141   5.499   3.106
    1PA     C1815704   2.352   5.528   3.101
    1PA     H8R15705   2.347   5.625   3.151
    1PA     H8S15706   2.442   5.476   3.134
    1PA     C1715707   2.342   5.554   2.950
    1PA     H7R15708   2.320   5.455   2.912
    1PA     H7S15709   2.266   5.630   2.930
    1PA     C1615710   2.472   5.594   2.879
    1PA     H6R15711   2.521   5.681   2.924
    1PA     H6S15712   2.539   5.507   2.884
    1PA     C1515713   2.452   5.619   2.729
    1PA     H5R15714   2.364   5.682   2.711
    1PA     H5S15715   2.541   5.674   2.699
    1PA     C1415716   2.441   5.490   2.645
    1PA     H4R15717   2.534   5.434   2.655
    1PA     H4S15718   2.356   5.433   2.682
    1PA     C1315719   2.411   5.532   2.501
    1PA     H3R15720   2.372   5.450   2.441
    1PA     H3S15721   2.339   5.614   2.502
    1PA     C1215722   2.539   5.576   2.427
    1PA     H2R15723   2.601   5.643   2.487
    1PA     H2S15724   2.597   5.486   2.405
    2PC     C1115725   2.507   5.644   2.297
    2PC     O1215726   2.584   5.707   2.227
    2PC     O1115727   2.378   5.635   2.263
    2PC      C115728   2.329   5.692   2.140
    2PC      HR15729   2.327   5.801   2.145
    2PC      HS15730   2.375   5.656   2.047
    2PC      C215731   2.180   5.657   2.131
    2PC      HX15732   2.168   5.550   2.148
    2PC      C315733   2.129   5.689   1.990
    2PC      HA15734   2.182   5.632   1.914
    2PC      HB15735   2.021   5.670   1.989
    2PC     O3115736   2.148   5.830   1.967
    2PC     P3115737   2.110   5.885   1.822
    2PC     O3215738   2.254   5.936   1.774
    2PC     C3115739   2.356   5.836   1.758
    2PC     H1A15740   2.347   5.773   1.847
    2PC     H1B15741   2.335   5.762   1.681
    2PC     C3215742   2.496   5.901   1.751
    2PC     H2A15743   2.509   5.968   1.836
    2PC     H2B15744   2.571   5.823   1.762
    2PC     N3115745   2.530   5.977   1.627
    2PC     C3315746   2.669   6.033   1.637
    2PC     H3A15747   2.690   6.085   1.544
    2PC     H3B15748   2.680   6.113   1.710
    2PC     H3C15749   2.739   5.952   1.661
    2PC     C3415750   2.529   5.887   1.507
    2PC     H4A15751   2.614   5.819   1.508
    2PC     H4B15752   2.441   5.825   1.520
    2PC     H4C15753   2.547   5.950   1.420
    2PC     C3515754   2.435   6.088   1.596
    2PC     H5A15755   2.469   6.139   1.505
    2PC     H5B15756   2.429   6.145   1.688
    2PC     H5C15757   2.336   6.048   1.574
    2PC     O3315758   2.055   5.782   1.731
    2PC     O3415759   2.011   5.995   1.818
    2PC     O2115760   2.109   5.739   2.226
    2PC     C2115761   1.981   5.723   2.261
    2PC     O2215762   1.903   5.647   2.208
    3OL     C1215763   1.923   5.825   2.356
    3OL     H2R15764   1.970   5.919   2.324
    3OL     H2S15765   1.960   5.790   2.452
    3OL     C1315766   1.771   5.832   2.337
    3OL     H3R15767   1.726   5.739   2.372
    3OL     H3S15768   1.750   5.861   2.234
    3OL     C1415769   1.707   5.943   2.420
    3OL     H4R15770   1.614   5.973   2.372
    3OL     H4S15771   1.770   6.032   2.426
    3OL     C1515772   1.680   5.899   2.564
    3OL     H5R15773   1.773   5.860   2.605
    3OL     H5S15774   1.599   5.826   2.564
    3OL     C1615775   1.627   6.008   2.658
    3OL     H6R15776   1.534   6.054   2.623
    3OL     H6S15777   1.694   6.093   2.673
    3OL     C1715778   1.603   5.944   2.795
    3OL     H7R15779   1.694   5.897   2.833
    3OL     H7S15780   1.538   5.856   2.789
    3OL     C1815781   1.550   6.052   2.891
    3OL     H8R15782   1.442   6.062   2.880
    3OL     H8S15783   1.602   6.146   2.873
    3OL     C1915784   1.571   6.009   3.034
    3OL     H9R15785   1.670   5.965   3.046
    3OL    C11015786   1.495   6.038   3.138
    3OL    H10R15787   1.531   6.021   3.239
    3OL    C11115788   1.358   6.100   3.122
    3OL    H11R15789   1.302   6.049   3.043
    3OL    H11S15790   1.371   6.202   3.086
    3OL    C11215791   1.275   6.105   3.251
    3OL    H12R15792   1.329   6.165   3.324
    3OL    H12S15793   1.257   6.005   3.289
    3OL    C11315794   1.146   6.186   3.228
    3OL    H13R15795   1.087   6.152   3.143
    3OL    H13S15796   1.172   6.289   3.204
    3OL    C11415797   1.056   6.182   3.353
    3OL    H14R15798   1.011   6.082   3.356
    3OL    H14S15799   0.975   6.253   3.333
    3OL    C11515800   1.115   6.198   3.493
    3OL    H15R15801   1.199   6.129   3.503
    3OL    H15S15802   1.044   6.172   3.571
    3OL    C11615803   1.174   6.339   3.509
    3OL    H16R15804   1.099   6.412   3.477
    3OL    H16S15805   1.261   6.351   3.443
    3OL    C11715806   1.194   6.362   3.659
    3OL    H17R15807   1.235   6.275   3.710
    3OL    H17S15808   1.100   6.386   3.709
    3OL    C11815809   1.284   6.486   3.672
    3OL    H18R15810   1.391   6.470   3.655
    3OL    H18S15811   1.270   0.042   3.771
    3OL    H18T15812   1.247   0.071   3.597
    1PA    C11615813   1.518   5.173   3.686
    1PA    H16R15814   1.621   5.204   3.699
    1PA    H16S15815   1.446   5.228   3.747
    1PA    H16T15816   1.492   5.192   3.582
    1PA    C11515817   1.502   5.021   3.700
    1PA    H15R15818   1.584   4.978   3.759
    1PA    H15S15819   1.411   5.001   3.757
    1PA    C11415820   1.481   4.954   3.563
    1PA    H14R15821   1.435   4.855   3.569
    1PA    H14S15822   1.411   5.015   3.506
    1PA    C11315823   1.613   4.924   3.490
    1PA    H13R15824   1.594   4.916   3.383
    1PA    H13S15825   1.674   5.014   3.500
    1PA    C11215826   1.690   4.799   3.533
    1PA    H12R15827   1.725   4.809   3.636
    1PA    H12S15828   1.622   4.714   3.525
    1PA    C11115829   1.821   4.775   3.457
    1PA    H11R15830   1.883   4.865   3.448
    1PA    H11S15831   1.871   4.696   3.512
    1PA    C11015832   1.788   4.707   3.324
    1PA    H10R15833   1.717   4.625   3.327
    1PA    H10S15834   1.750   4.787   3.259
    1PA     C1915835   1.919   4.649   3.270
    1PA     H9R15836   1.983   4.736   3.253
    1PA     H9S15837   1.966   4.578   3.338
    1PA     C1815838   1.901   4.572   3.138
    1PA     H8R15839   1.999   4.538   3.105
    1PA     H8S15840   1.836   4.486   3.158
    1PA     C1715841   1.841   4.655   3.024
    1PA     H7R15842   1.748   4.703   3.056
    1PA     H7S15843   1.900   4.741   2.992
    1PA     C1615844   1.818   4.570   2.898
    1PA     H6R15845   1.919   4.544   2.867
    1PA     H6S15846   1.760   4.480   2.916
    1PA     C1515847   1.741   4.638   2.784
    1PA     H5R15848   1.711   4.571   2.704
    1PA     H5S15849   1.647   4.674   2.825
    1PA     C1415850   1.821   4.751   2.716
    1PA     H4R15851   1.831   4.835   2.785
    1PA     H4S15852   1.919   4.707   2.696
    1PA     C1315853   1.770   4.777   2.574
    1PA     H3R15854   1.806   4.699   2.507
    1PA     H3S15855   1.663   4.796   2.573
    1PA     C1215856   1.847   4.899   2.521
    1PA     H2R15857   1.830   4.988   2.584
    1PA     H2S15858   1.954   4.880   2.512
    2PC     C1115859   1.810   4.925   2.377
    2PC     O1215860   1.780   4.840   2.296
    2PC     O1115861   1.807   5.056   2.348
    2PC      C115862   1.821   5.100   2.211
    2PC      HR15863   1.908   5.074   2.151
    2PC      HS15864   1.736   5.049   2.164
    2PC      C215865   1.792   5.250   2.208
    2PC      HX15866   1.694   5.277   2.247
    2PC      C315867   1.822   5.309   2.069
    2PC      HA15868   1.743   5.287   1.996
    2PC      HB15869   1.838   5.417   2.073
    2PC     O3115870   1.943   5.248   2.021
    2PC     P3115871   1.969   5.264   1.864
    2PC     O3215872   1.871   5.150   1.807
    2PC     C3115873   1.897   5.070   1.691
    2PC     H1A15874   1.928   5.126   1.603
    2PC     H1B15875   1.973   4.995   1.717
    2PC     C3215876   1.763   5.001   1.662
    2PC     H2A15877   1.745   4.944   1.752
    2PC     H2B15878   1.689   5.077   1.634
    2PC     N3115879   1.761   4.903   1.549
    2PC     C3315880   1.816   4.949   1.417
    2PC     H3A15881   1.740   5.020   1.385
    2PC     H3B15882   1.907   5.006   1.434
    2PC     H3C15883   1.827   4.865   1.348
    2PC     C3415884   1.846   4.784   1.582
    2PC     H4A15885   1.817   4.745   1.681
    2PC     H4B15886   1.839   4.695   1.519
    2PC     H4C15887   1.951   4.813   1.585
    2PC     C3515888   1.617   4.866   1.527
    2PC     H5A15889   1.564   4.960   1.512
    2PC     H5B15890   1.594   4.832   1.628
    2PC     H5C15891   1.606   4.793   1.447
    2PC     O3315892   1.924   5.387   1.795
    2PC     O3415893   2.109   5.258   1.819
    2PC     O2115894   1.896   5.315   2.285
    2PC     C2115895   1.870   5.399   2.386
    2PC     O2215896   1.760   5.426   2.430
    3OL     C1215897   1.991   5.435   2.469
    3OL     H2R15898   1.958   5.521   2.528
    3OL     H2S15899   2.067   5.485   2.408
    3OL     C1315900   2.040   5.317   2.553
    3OL     H3R15901   2.138   5.346   2.592
    3OL     H3S15902   2.062   5.231   2.490
    3OL     C1415903   1.931   5.283   2.656
    3OL     H4R15904   1.856   5.232   2.596
    3OL     H4S15905   1.889   5.374   2.699
    3OL     C1515906   1.990   5.199   2.770
    3OL     H5R15907   2.075   5.241   2.824
    3OL     H5S15908   2.020   5.099   2.738
    3OL     C1615909   1.899   5.186   2.893
    3OL     H6R15910   1.807   5.148   2.847
    3OL     H6S15911   1.867   5.281   2.936
    3OL     C1715912   1.953   5.092   3.002
    3OL     H7R15913   2.052   5.125   3.033
    3OL     H7S15914   1.981   4.993   2.965
    3OL     C1815915   1.854   5.092   3.120
    3OL     H8R15916   1.835   5.198   3.138
    3OL     H8S15917   1.901   5.043   3.205
    3OL     C1915918   1.727   5.019   3.082
    3OL     H9R15919   1.729   4.933   3.016
    3OL    C11015920   1.610   5.055   3.133
    3OL    H10R15921   1.519   5.005   3.103
    3OL    C11115922   1.584   5.189   3.198
    3OL    H11R15923   1.610   5.277   3.139
    3OL    H11S15924   1.641   5.203   3.290
    3OL    C11215925   1.434   5.204   3.225
    3OL    H12R15926   1.393   5.109   3.262
    3OL    H12S15927   1.388   5.222   3.127
    3OL    C11315928   1.389   5.317   3.318
    3OL    H13R15929   1.408   5.289   3.422
    3OL    H13S15930   1.281   5.317   3.304
    3OL    C11415931   1.445   5.457   3.285
    3OL    H14R15932   1.450   5.472   3.177
    3OL    H14S15933   1.548   5.452   3.321
    3OL    C11515934   1.375   5.575   3.354
    3OL    H15R15935   1.369   5.561   3.462
    3OL    H15S15936   1.275   5.576   3.310
    3OL    C11615937   1.451   5.706   3.326
    3OL    H16R15938   1.381   5.790   3.325
    3OL    H16S15939   1.498   5.700   3.227
    3OL    C11715940   1.549   5.735   3.440
    3OL    H17R15941   1.626   5.800   3.399
    3OL    H17S15942   1.604   5.648   3.475
    3OL    C11815943   1.477   5.807   3.555
    3OL    H18R15944   1.394   5.868   3.519
    3OL    H18S15945   1.548   5.876   3.602
    3OL    H18T15946   1.439   5.740   3.632
    1PA    C11615947   3.045   5.114   3.186
    1PA    H16R15948   3.024   5.114   3.293
    1PA    H16S15949   2.995   5.206   3.157
    1PA    H16T15950   3.153   5.125   3.173
    1PA    C11515951   2.989   4.994   3.109
    1PA    H15R15952   3.022   4.902   3.159
    1PA    H15S15953   2.880   4.994   3.102
    1PA    C11415954   3.055   4.989   2.970
    1PA    H14R15955   2.978   4.963   2.897
    1PA    H14S15956   3.091   5.090   2.949
    1PA    C11315957   3.174   4.892   2.968
    1PA    H13R15958   3.242   4.898   3.053
    1PA    H13S15959   3.125   4.795   2.982
    1PA    C11215960   3.252   4.900   2.837
    1PA    H12R15961   3.316   4.812   2.842
    1PA    H12S15962   3.187   4.886   2.750
    1PA    C11115963   3.334   5.027   2.806
    1PA    H11R15964   3.256   5.101   2.784
    1PA    H11S15965   3.394   5.065   2.888
    1PA    C11015966   3.436   5.011   2.693
    1PA    H10R15967   3.396   4.936   2.624
    1PA    H10S15968   3.446   5.103   2.634
    1PA     C1915969   3.575   4.971   2.745
    1PA     H9R15970   3.627   5.052   2.797
    1PA     H9S15971   3.561   4.888   2.814
    1PA     C1815972   3.672   4.932   2.633
    1PA     H8R15973   3.619   4.855   2.576
    1PA     H8S15974   3.691   5.018   2.568
    1PA     C1715975   3.813   4.884   2.672
    1PA     H7R15976   3.872   4.953   2.734
    1PA     H7S15977   3.804   4.789   2.724
    1PA     C1615978   3.891   4.862   2.542
    1PA     H6R15979   3.828   4.813   2.468
    1PA     H6S15980   3.912   4.964   2.509
    1PA     C1515981   4.024   4.789   2.564
    1PA     H5R15982   4.092   4.838   2.634
    1PA     H5S15983   4.005   4.690   2.605
    1PA     C1415984   4.101   4.788   2.431
    1PA     H4R15985   4.092   4.886   2.383
    1PA     H4S15986   4.208   4.770   2.445
    1PA     C1315987   4.047   4.688   2.328
    1PA     H3R15988   4.048   4.589   2.376
    1PA     H3S15989   3.946   4.712   2.296
    1PA     C1215990   4.137   4.666   2.206
    1PA     H2R15991   4.168   4.765   2.172
    1PA     H2S15992   4.227   4.613   2.237
    2PC     C1115993   4.063   4.586   2.102
    2PC     O1215994   3.978   4.637   2.032
    2PC     O1115995   4.080   4.453   2.104
    2PC      C115996   4.016   4.372   2.004
    2PC      HR15997   4.024   4.266   2.028
    2PC      HS15998   3.910   4.397   1.992
    2PC      C215999   4.075   4.377   1.862
    2PC      HX16000   4.078   4.477   1.817
    2PC      C316001   4.004   4.281   1.767
    2PC      HA16002   3.907   4.320   1.734
    2PC      HB16003   4.057   4.265   1.672
    2PC     O3116004   3.991   4.151   1.828
    2PC     P3116005   3.957   4.025   1.736
    2PC     O3216006   4.107   3.980   1.703
    2PC     C3116007   4.179   3.930   1.817
    2PC     H1A16008   4.177   4.008   1.893
    2PC     H1B16009   4.140   3.837   1.860
    2PC     C3216010   4.320   3.910   1.760
    2PC     H2A16011   4.352   4.003   1.714
    2PC     H2B16012   4.374   3.882   1.850
    2PC     N3116013   4.345   3.788   1.676
    2PC     C3316014   4.344   3.664   1.760
    2PC     H3A16015   4.237   3.647   1.779
    2PC     H3B16016   4.374   3.585   1.691
    2PC     H3C16017   4.402   3.681   1.851
    2PC     C3416018   4.244   3.777   1.566
    2PC     H4A16019   4.244   3.874   1.516
    2PC     H4B16020   4.284   3.701   1.498
    2PC     H4C16021   4.149   3.751   1.614
    2PC     C3516022   4.477   3.805   1.607
    2PC     H5A16023   4.547   3.824   1.688
    2PC     H5B16024   4.463   3.899   1.552
    2PC     H5C16025   4.496   3.715   1.548
    2PC     O3316026   3.881   3.904   1.774
    2PC     O3416027   3.896   4.062   1.606
    2PC     O2116028   4.207   4.321   1.871
    2PC     C2116029   4.314   4.393   1.907
    2PC     O2216030   4.306   4.514   1.900
    3OL     C1216031   4.433   4.307   1.940
    3OL     H2R16032   4.530   4.353   1.921
    3OL     H2S16033   4.423   4.216   1.880
    3OL     C1316034   4.423   4.270   2.089
    3OL     H3R16035   4.481   4.182   2.116
    3OL     H3S16036   4.320   4.239   2.103
    3OL     C1416037   4.451   4.384   2.188
    3OL     H4R16038   4.389   4.473   2.179
    3OL     H4S16039   4.556   4.413   2.179
    3OL     C1516040   4.413   4.333   2.328
    3OL     H5R16041   4.458   4.241   2.366
    3OL     H5S16042   4.304   4.328   2.333
    3OL     C1616043   4.458   4.443   2.427
    3OL     H6R16044   4.391   4.527   2.407
    3OL     H6S16045   4.563   4.466   2.410
    3OL     C1716046   4.425   4.402   2.571
    3OL     H7R16047   4.499   4.330   2.605
    3OL     H7S16048   4.323   4.364   2.578
    3OL     C1816049   4.447   4.519   2.668
    3OL     H8R16050   4.381   4.605   2.657
    3OL     H8S16051   4.549   4.552   2.647
    3OL     C1916052   4.448   4.484   2.815
    3OL     H9R16053   4.533   4.424   2.846
    3OL    C11016054   4.359   4.518   2.906
    3OL    H10R16055   4.375   4.497   3.011
    3OL    C11116056   4.244   4.613   2.881
    3OL    H11R16057   4.181   4.567   2.805
    3OL    H11S16058   4.288   4.704   2.839
    3OL    C11216059   4.165   4.645   3.009
    3OL    H12R16060   4.230   4.694   3.082
    3OL    H12S16061   4.126   4.564   3.071
    3OL    C11316062   4.053   4.740   2.965
    3OL    H13R16063   3.977   4.683   2.911
    3OL    H13S16064   4.080   4.820   2.896
    3OL    C11416065   3.981   4.794   3.090
    3OL    H14R16066   4.048   4.836   3.165
    3OL    H14S16067   3.922   4.716   3.137
    3OL    C11516068   3.881   4.901   3.044
    3OL    H15R16069   3.819   4.852   2.968
    3OL    H15S16070   3.928   4.983   2.990
    3OL    C11616071   3.800   4.957   3.161
    3OL    H16R16072   3.747   5.046   3.129
    3OL    H16S16073   3.870   4.986   3.241
    3OL    C11716074   3.698   4.854   3.212
    3OL    H17R16075   3.703   4.863   3.321
    3OL    H17S16076   3.736   4.753   3.193
    3OL    C11816077   3.557   4.888   3.162
    3OL    H18R16078   3.531   4.988   3.197
    3OL    H18S16079   3.497   4.809   3.209
    3OL    H18T16080   3.554   4.888   3.053
    1PA    C11616081   1.550   0.887   3.630
    1PA    H16R16082   1.557   0.799   3.566
    1PA    H16S16083   1.472   0.863   3.703
    1PA    H16T16084   1.633   0.923   3.691
    1PA    C11516085   1.505   1.005   3.543
    1PA    H15R16086   1.506   1.098   3.601
    1PA    H15S16087   1.565   1.019   3.453
    1PA    C11416088   1.364   0.988   3.486
    1PA    H14R16089   1.358   0.896   3.427
    1PA    H14S16090   1.298   0.993   3.573
    1PA    C11316091   1.326   1.096   3.383
    1PA    H13R16092   1.339   1.197   3.423
    1PA    H13S16093   1.377   1.111   3.288
    1PA    C11216094   1.176   1.086   3.352
    1PA    H12R16095   1.151   1.002   3.286
    1PA    H12S16096   1.115   1.064   3.440
    1PA    C11116097   1.128   1.212   3.279
    1PA    H11R16098   1.019   1.207   3.278
    1PA    H11S16099   1.164   1.307   3.322
    1PA    C11016100   1.177   1.211   3.134
    1PA    H10R16101   1.286   1.211   3.140
    1PA    H10S16102   1.136   1.118   3.094
    1PA     C1916103   1.122   1.340   3.071
    1PA     H9R16104   1.013   1.337   3.065
    1PA     H9S16105   1.150   1.425   3.133
    1PA     C1816106   1.172   1.352   2.926
    1PA     H8R16107   1.159   1.458   2.905
    1PA     H8S16108   1.280   1.339   2.916
    1PA     C1716109   1.096   1.262   2.827
    1PA     H7R16110   1.113   1.159   2.859
    1PA     H7S16111   0.990   1.287   2.841
    1PA     C1616112   1.146   1.272   2.683
    1PA     H6R16113   1.255   1.275   2.674
    1PA     H6S16114   1.104   1.189   2.626
    1PA     C1516115   1.103   1.399   2.607
    1PA     H5R16116   0.996   1.415   2.617
    1PA     H5S16117   1.150   1.490   2.646
    1PA     C1416118   1.143   1.381   2.460
    1PA     H4R16119   1.251   1.368   2.458
    1PA     H4S16120   1.088   1.297   2.417
    1PA     C1316121   1.110   1.503   2.372
    1PA     H3R16122   1.005   1.528   2.389
    1PA     H3S16123   1.167   1.595   2.391
    1PA     C1216124   1.120   1.463   2.224
    1PA     H2R16125   1.221   1.425   2.209
    1PA     H2S16126   1.048   1.385   2.199
    2PC     C1116127   1.086   1.577   2.131
    2PC     O1216128   1.035   1.563   2.022
    2PC     O1116129   1.117   1.699   2.179
    2PC      C116130   1.105   1.812   2.090
    2PC      HR16131   1.181   1.787   2.015
    2PC      HS16132   1.006   1.803   2.044
    2PC      C216133   1.136   1.945   2.160
    2PC      HX16134   1.056   1.960   2.233
    2PC      C316135   1.124   2.049   2.047
    2PC      HA16136   1.019   2.043   2.016
    2PC      HB16137   1.135   2.154   2.074
    2PC     O3116138   1.218   2.017   1.943
    2PC     P3116139   1.186   2.021   1.786
    2PC     O3216140   1.091   1.892   1.777
    2PC     C3116141   1.130   1.792   1.681
    2PC     H1A16142   1.114   1.824   1.578
    2PC     H1B16143   1.234   1.768   1.700
    2PC     C3216144   1.035   1.681   1.727
    2PC     H2A16145   1.038   1.676   1.836
    2PC     H2B16146   0.933   1.707   1.700
    2PC     N3116147   1.065   1.539   1.692
    2PC     C3316148   1.069   1.521   1.543
    2PC     H3A16149   0.976   1.557   1.500
    2PC     H3B16150   1.147   1.582   1.496
    2PC     H3C16151   1.081   1.417   1.513
    2PC     C3416152   1.203   1.501   1.737
    2PC     H4A16153   1.220   1.404   1.690
    2PC     H4B16154   1.285   1.566   1.709
    2PC     H4C16155   1.189   1.493   1.845
    2PC     C3516156   0.963   1.442   1.743
    2PC     H5A16157   0.863   1.464   1.706
    2PC     H5B16158   0.963   1.447   1.852
    2PC     H5C16159   1.002   1.350   1.699
    2PC     O3316160   1.119   2.144   1.739
    2PC     O3416161   1.305   2.022   1.698
    2PC     O2116162   1.269   1.953   2.214
    2PC     C2116163   1.311   2.055   2.290
    2PC     O2216164   1.240   2.147   2.328
    3OL     C1216165   1.460   2.049   2.311
    3OL     H2R16166   1.498   2.149   2.290
    3OL     H2S16167   1.500   1.976   2.240
    3OL     C1316168   1.484   2.005   2.456
    3OL     H3R16169   1.442   1.905   2.469
    3OL     H3S16170   1.436   2.082   2.517
    3OL     C1416171   1.631   1.998   2.500
    3OL     H4R16172   1.695   1.995   2.411
    3OL     H4S16173   1.640   1.906   2.558
    3OL     C1516174   1.665   2.116   2.592
    3OL     H5R16175   1.633   2.207   2.542
    3OL     H5S16176   1.774   2.122   2.601
    3OL     C1616177   1.596   2.097   2.728
    3OL     H6R16178   1.622   1.998   2.768
    3OL     H6S16179   1.488   2.103   2.713
    3OL     C1716180   1.639   2.218   2.811
    3OL     H7R16181   1.596   2.304   2.759
    3OL     H7S16182   1.748   2.224   2.813
    3OL     C1816183   1.589   2.212   2.956
    3OL     H8R16184   1.650   2.275   3.020
    3OL     H8S16185   1.589   2.111   2.999
    3OL     C1916186   1.445   2.256   2.964
    3OL     H9R16187   1.385   2.252   2.873
    3OL    C11016188   1.384   2.313   3.067
    3OL    H10R16189   1.281   2.346   3.067
    3OL    C11116190   1.448   2.327   3.203
    3OL    H11R16191   1.462   2.435   3.203
    3OL    H11S16192   1.542   2.271   3.201
    3OL    C11216193   1.362   2.288   3.324
    3OL    H12R16194   1.287   2.364   3.348
    3OL    H12S16195   1.423   2.279   3.415
    3OL    C11316196   1.280   2.164   3.287
    3OL    H13R16197   1.357   2.094   3.254
    3OL    H13S16198   1.224   2.161   3.193
    3OL    C11416199   1.189   2.110   3.398
    3OL    H14R16200   1.117   2.038   3.359
    3OL    H14S16201   1.143   2.197   3.445
    3OL    C11516202   1.271   2.027   3.499
    3OL    H15R16203   1.354   2.083   3.542
    3OL    H15S16204   1.318   1.944   3.444
    3OL    C11616205   1.182   1.970   3.610
    3OL    H16R16206   1.109   1.898   3.571
    3OL    H16S16207   1.128   2.055   3.651
    3OL    C11716208   1.261   1.894   3.717
    3OL    H17R16209   1.331   1.964   3.763
    3OL    H17S16210   1.318   1.807   3.684
    3OL    C11816211   1.155   1.847   3.818
    3OL    H18R16212   1.091   1.765   3.785
    3OL    H18S16213   1.084   1.928   3.831
    3OL    H18T16214   1.200   1.830   3.916
    1PA    C11616215   2.324   0.078   2.633
    1PA    H16R16216   2.418   0.066   2.579
    1PA    H16S16217   2.327   0.177   2.679
    1PA    H16T16218   2.235   0.077   2.569
    1PA    C11516219   2.314   6.451   2.736
    1PA    H15R16220   2.221   6.458   2.792
    1PA    H15S16221   2.301   6.358   2.680
    1PA    C11416222   2.441   6.436   2.822
    1PA    H14R16223   2.526   6.411   2.758
    1PA    H14S16224   2.466   0.045   2.869
    1PA    C11316225   2.428   6.343   2.944
    1PA    H13R16226   2.359   6.378   3.021
    1PA    H13S16227   2.400   6.243   2.911
    1PA    C11216228   2.557   6.340   3.027
    1PA    H12R16229   2.589   6.438   3.062
    1PA    H12S16230   2.546   6.272   3.112
    1PA    C11116231   2.676   6.281   2.951
    1PA    H11R16232   2.687   6.324   2.851
    1PA    H11S16233   2.768   6.305   3.005
    1PA    C11016234   2.663   6.129   2.930
    1PA    H10R16235   2.630   6.079   3.022
    1PA    H10S16236   2.591   6.101   2.853
    1PA     C1916237   2.800   6.071   2.891
    1PA     H9R16238   2.839   6.123   2.803
    1PA     H9S16239   2.868   6.088   2.975
    1PA     C1816240   2.796   5.920   2.868
    1PA     H8R16241   2.793   5.881   2.970
    1PA     H8S16242   2.706   5.885   2.817
    1PA     C1716243   2.924   5.862   2.806
    1PA     H7R16244   2.924   5.880   2.698
    1PA     H7S16245   3.015   5.908   2.844
    1PA     C1616246   2.948   5.712   2.827
    1PA     H6R16247   2.953   5.688   2.933
    1PA     H6S16248   2.876   5.647   2.777
    1PA     C1516249   3.090   5.670   2.787
    1PA     H5R16250   3.103   5.712   2.687
    1PA     H5S16251   3.160   5.711   2.861
    1PA     C1416252   3.110   5.518   2.788
    1PA     H4R16253   3.210   5.492   2.823
    1PA     H4S16254   3.034   5.481   2.857
    1PA     C1316255   3.092   5.453   2.650
    1PA     H3R16256   2.997   5.477   2.602
    1PA     H3S16257   3.179   5.474   2.586
    1PA     C1216258   3.095   5.301   2.670
    1PA     H2R16259   3.179   5.277   2.735
    1PA     H2S16260   3.001   5.269   2.717
    2PC     C1116261   3.099   5.239   2.532
    2PC     O1216262   3.133   5.294   2.429
    2PC     O1116263   3.051   5.114   2.529
    2PC      C116264   3.050   5.037   2.408
    2PC      HR16265   2.977   4.960   2.436
    2PC      HS16266   3.003   5.090   2.325
    2PC      C216267   3.183   4.966   2.383
    2PC      HX16268   3.266   5.012   2.437
    2PC      C316269   3.209   4.962   2.231
    2PC      HA16270   3.215   5.063   2.190
    2PC      HB16271   3.300   4.912   2.198
    2PC     O3116272   3.101   4.893   2.166
    2PC     P3116273   3.116   4.840   2.015
    2PC     O3216274   2.995   4.913   1.940
    2PC     C3116275   2.971   5.051   1.970
    2PC     H1A16276   2.927   5.055   2.070
    2PC     H1B16277   3.062   5.112   1.971
    2PC     C3216278   2.869   5.098   1.866
    2PC     H2A16279   2.913   5.078   1.769
    2PC     H2B16280   2.776   5.041   1.860
    2PC     N3116281   2.841   5.244   1.848
    2PC     C3316282   2.796   5.311   1.975
    2PC     H3A16283   2.876   5.307   2.049
    2PC     H3B16284   2.756   5.408   1.945
    2PC     H3C16285   2.712   5.252   2.011
    2PC     C3416286   2.966   5.311   1.799
    2PC     H4A16287   2.950   5.419   1.792
    2PC     H4B16288   3.058   5.295   1.854
    2PC     H4C16289   2.969   5.282   1.694
    2PC     C3516290   2.733   5.259   1.745
    2PC     H5A16291   2.770   5.211   1.654
    2PC     H5B16292   2.716   5.365   1.730
    2PC     H5C16293   2.645   5.205   1.781
    2PC     O3316294   3.247   4.879   1.957
    2PC     O3416295   3.118   4.692   2.007
    2PC     O2116296   3.164   4.836   2.441
    2PC     C2116297   3.266   4.748   2.435
    2PC     O2216298   3.372   4.780   2.385
    3OL     C1216299   3.234   4.612   2.491
    3OL     H2R16300   3.146   4.578   2.435
    3OL     H2S16301   3.204   4.626   2.595
    3OL     C1316302   3.355   4.516   2.489
    3OL     H3R16303   3.408   4.516   2.394
    3OL     H3S16304   3.322   4.413   2.476
    3OL     C1416305   3.460   4.546   2.597
    3OL     H4R16306   3.404   4.555   2.691
    3OL     H4S16307   3.521   4.634   2.578
    3OL     C1516308   3.552   4.424   2.609
    3OL     H5R16309   3.608   4.413   2.516
    3OL     H5S16310   3.493   4.339   2.643
    3OL     C1616311   3.656   4.451   2.719
    3OL     H6R16312   3.715   4.538   2.693
    3OL     H6S16313   3.734   4.375   2.725
    3OL     C1716314   3.589   4.464   2.857
    3OL     H7R16315   3.529   4.375   2.879
    3OL     H7S16316   3.517   4.546   2.848
    3OL     C1816317   3.698   4.473   2.964
    3OL     H8R16318   3.763   4.558   2.942
    3OL     H8S16319   3.749   4.377   2.971
    3OL     C1916320   3.639   4.502   3.100
    3OL     H9R16321   3.561   4.578   3.106
    3OL    C11016322   3.690   4.461   3.215
    3OL    H10R16323   3.640   4.494   3.306
    3OL    C11116324   3.799   4.359   3.236
    3OL    H11R16325   3.833   4.326   3.138
    3OL    H11S16326   3.767   4.270   3.291
    3OL    C11216327   3.922   4.428   3.297
    3OL    H12R16328   3.950   4.509   3.228
    3OL    H12S16329   4.002   4.355   3.281
    3OL    C11316330   3.913   4.462   3.446
    3OL    H13R16331   3.889   4.366   3.494
    3OL    H13S16332   3.831   4.527   3.477
    3OL    C11416333   4.051   4.506   3.495
    3OL    H14R16334   4.124   4.436   3.452
    3OL    H14S16335   4.056   4.494   3.604
    3OL    C11516336   4.101   4.647   3.462
    3OL    H15R16337   4.090   4.667   3.355
    3OL    H15S16338   4.207   4.660   3.484
    3OL    C11616339   4.016   4.750   3.536
    3OL    H16R16340   4.027   4.740   3.645
    3OL    H16S16341   3.909   4.751   3.513
    3OL    C11716342   4.062   4.894   3.511
    3OL    H17R16343   4.022   4.928   3.414
    3OL    H17S16344   4.171   4.885   3.512
    3OL    C11816345   4.019   4.994   3.619
    3OL    H18R16346   4.048   5.094   3.585
    3OL    H18S16347   4.074   4.993   3.714
    3OL    H18T16348   3.911   4.982   3.629
    1PA    C11616349   1.347   3.708   3.347
    1PA    H16R16350   1.291   3.776   3.411
    1PA    H16S16351   1.330   3.614   3.400
    1PA    H16T16352   1.293   3.698   3.252
    1PA    C11516353   1.495   3.740   3.320
    1PA    H15R16354   1.547   3.752   3.416
    1PA    H15S16355   1.548   3.656   3.276
    1PA    C11416356   1.519   3.864   3.233
    1PA    H14R16357   1.620   3.858   3.193
    1PA    H14S16358   1.454   3.860   3.145
    1PA    C11316359   1.486   3.994   3.308
    1PA    H13R16360   1.380   3.973   3.326
    1PA    H13S16361   1.545   3.999   3.400
    1PA    C11216362   1.504   4.119   3.221
    1PA    H12R16363   1.612   4.123   3.207
    1PA    H12S16364   1.446   4.114   3.129
    1PA    C11116365   1.461   4.238   3.307
    1PA    H11R16366   1.354   4.221   3.324
    1PA    H11S16367   1.529   4.237   3.393
    1PA    C11016368   1.486   4.371   3.233
    1PA    H10R16369   1.594   4.373   3.217
    1PA    H10S16370   1.441   4.359   3.135
    1PA     C1916371   1.460   4.500   3.312
    1PA     H9R16372   1.360   4.486   3.354
    1PA     H9S16373   1.531   4.512   3.394
    1PA     C1816374   1.467   4.634   3.237
    1PA     H8R16375   1.456   4.717   3.306
    1PA     H8S16376   1.557   4.632   3.176
    1PA     C1716377   1.349   4.640   3.138
    1PA     H7R16378   1.363   4.563   3.061
    1PA     H7S16379   1.253   4.628   3.189
    1PA     C1616380   1.360   4.776   3.068
    1PA     H6R16381   1.333   4.851   3.143
    1PA     H6S16382   1.463   4.801   3.044
    1PA     C1516383   1.262   4.789   2.951
    1PA     H5R16384   1.252   4.694   2.897
    1PA     H5S16385   1.163   4.806   2.994
    1PA     C1416386   1.298   4.899   2.850
    1PA     H4R16387   1.229   4.884   2.766
    1PA     H4S16388   1.284   5.001   2.887
    1PA     C1316389   1.440   4.879   2.796
    1PA     H3R16390   1.508   4.897   2.879
    1PA     H3S16391   1.456   4.776   2.762
    1PA     C1216392   1.475   4.986   2.692
    1PA     H2R16393   1.431   5.077   2.731
    1PA     H2S16394   1.583   4.988   2.673
    2PC     C1116395   1.404   4.970   2.560
    2PC     O1216396   1.284   4.956   2.547
    2PC     O1116397   1.491   4.951   2.459
    2PC      C116398   1.460   4.895   2.330
    2PC      HR16399   1.362   4.933   2.300
    2PC      HS16400   1.531   4.939   2.259
    2PC      C216401   1.475   4.742   2.333
    2PC      HX16402   1.576   4.740   2.375
    2PC      C316403   1.447   4.676   2.197
    2PC      HA16404   1.522   4.714   2.128
    2PC      HB16405   1.440   4.567   2.196
    2PC     O3116406   1.328   4.736   2.144
    2PC     P3116407   1.292   4.693   1.994
    2PC     O3216408   1.142   4.743   1.965
    2PC     C3116409   1.033   4.650   1.954
    2PC     H1A16410   0.954   4.708   1.905
    2PC     H1B16411   1.062   4.560   1.900
    2PC     C3216412   0.984   4.601   2.091
    2PC     H2A16413   0.891   4.548   2.072
    2PC     H2B16414   1.057   4.531   2.133
    2PC     N3116415   0.950   4.699   2.200
    2PC     C3316416   0.826   4.773   2.161
    2PC     H3A16417   0.800   4.832   2.250
    2PC     H3B16418   0.861   4.834   2.077
    2PC     H3C16419   0.742   4.709   2.133
    2PC     C3416420   0.916   4.614   2.318
    2PC     H4A16421   1.009   4.583   2.367
    2PC     H4B16422   0.854   4.676   2.384
    2PC     H4C16423   0.867   4.523   2.284
    2PC     C3516424   1.052   4.794   2.252
    2PC     H5A16425   1.138   4.729   2.271
    2PC     H5B16426   1.019   4.843   2.344
    2PC     H5C16427   1.096   4.862   2.178
    2PC     O3316428   1.382   4.754   1.893
    2PC     O3416429   1.291   4.545   1.996
    2PC     O2116430   1.384   4.690   2.432
    2PC     C2116431   1.401   4.564   2.476
    2PC     O2216432   1.504   4.500   2.479
    3OL     C1216433   1.276   4.516   2.545
    3OL     H2R16434   1.205   4.486   2.468
    3OL     H2S16435   1.245   4.608   2.594
    3OL     C1316436   1.295   4.395   2.638
    3OL     H3R16437   1.346   4.322   2.575
    3OL     H3S16438   1.193   4.364   2.662
    3OL     C1416439   1.383   4.443   2.755
    3OL     H4R16440   1.332   4.505   2.829
    3OL     H4S16441   1.465   4.504   2.717
    3OL     C1516442   1.447   4.328   2.834
    3OL     H5R16443   1.380   4.242   2.840
    3OL     H5S16444   1.464   4.363   2.936
    3OL     C1616445   1.580   4.275   2.780
    3OL     H6R16446   1.654   4.355   2.770
    3OL     H6S16447   1.566   4.231   2.681
    3OL     C1716448   1.624   4.158   2.870
    3OL     H7R16449   1.547   4.084   2.894
    3OL     H7S16450   1.630   4.201   2.970
    3OL     C1816451   1.754   4.096   2.816
    3OL     H8R16452   1.823   4.177   2.795
    3OL     H8S16453   1.742   4.029   2.731
    3OL     C1916454   1.818   4.010   2.922
    3OL     H9R16455   1.871   4.064   3.000
    3OL    C11016456   1.796   3.879   2.929
    3OL    H10R16457   1.850   3.824   3.005
    3OL    C11116458   1.723   3.788   2.834
    3OL    H11R16459   1.776   3.802   2.739
    3OL    H11S16460   1.622   3.827   2.822
    3OL    C11216461   1.707   3.642   2.878
    3OL    H12R16462   1.666   3.629   2.979
    3OL    H12S16463   1.808   3.601   2.872
    3OL    C11316464   1.614   3.566   2.783
    3OL    H13R16465   1.649   3.569   2.679
    3OL    H13S16466   1.516   3.611   2.796
    3OL    C11416467   1.608   3.419   2.825
    3OL    H14R16468   1.581   3.405   2.930
    3OL    H14S16469   1.711   3.384   2.826
    3OL    C11516470   1.514   3.330   2.741
    3OL    H15R16471   1.566   3.241   2.706
    3OL    H15S16472   1.488   3.386   2.651
    3OL    C11616473   1.385   3.284   2.811
    3OL    H16R16474   1.408   3.230   2.903
    3OL    H16S16475   1.343   3.206   2.748
    3OL    C11716476   1.292   3.400   2.851
    3OL    H17R16477   1.285   3.466   2.764
    3OL    H17S16478   1.346   3.461   2.924
    3OL    C11816479   1.162   3.343   2.908
    3OL    H18R16480   1.105   3.289   2.832
    3OL    H18S16481   1.109   3.419   2.965
    3OL    H18T16482   1.190   3.262   2.976
    1PA    C11616483   3.751   5.981   3.852
    1PA    H16R16484   3.761   6.004   3.746
    1PA    H16S16485   3.769   6.074   3.906
    1PA    H16T16486   3.654   5.945   3.888
    1PA    C11516487   3.869   5.895   3.899
    1PA    H15R16488   3.963   5.951   3.889
    1PA    H15S16489   3.859   5.875   4.006
    1PA    C11416490   3.870   5.763   3.821
    1PA    H14R16491   3.938   5.693   3.868
    1PA    H14S16492   3.767   5.726   3.815
    1PA    C11316493   3.925   5.781   3.679
    1PA    H13R16494   3.868   5.850   3.617
    1PA    H13S16495   4.026   5.822   3.686
    1PA    C11216496   3.934   5.645   3.609
    1PA    H12R16497   4.027   5.601   3.649
    1PA    H12S16498   3.847   5.581   3.624
    1PA    C11116499   3.952   5.669   3.459
    1PA    H11R16500   3.910   5.582   3.407
    1PA    H11S16501   3.899   5.761   3.435
    1PA    C11016502   4.100   5.679   3.420
    1PA    H10R16503   4.156   5.753   3.478
    1PA    H10S16504   4.150   5.583   3.434
    1PA     C1916505   4.111   5.716   3.271
    1PA     H9R16506   4.035   5.662   3.214
    1PA     H9S16507   4.088   5.823   3.263
    1PA     C1816508   4.255   5.695   3.222
    1PA     H8R16509   4.317   5.726   3.305
    1PA     H8S16510   4.283   5.590   3.215
    1PA     C1716511   4.301   5.785   3.106
    1PA     H7R16512   4.273   5.886   3.136
    1PA     H7S16513   4.410   5.788   3.105
    1PA     C1616514   4.245   5.742   2.969
    1PA     H6R16515   4.139   5.722   2.986
    1PA     H6S16516   4.250   5.825   2.899
    1PA     C1516517   4.314   5.617   2.915
    1PA     H5R16518   4.422   5.627   2.909
    1PA     H5S16519   4.299   5.533   2.983
    1PA     C1416520   4.270   5.567   2.776
    1PA     H4R16521   4.319   5.475   2.742
    1PA     H4S16522   4.164   5.542   2.775
    1PA     C1316523   4.299   5.671   2.667
    1PA     H3R16524   4.230   5.754   2.681
    1PA     H3S16525   4.406   5.690   2.666
    1PA     C1216526   4.270   5.612   2.528
    1PA     H2R16527   4.348   5.540   2.503
    1PA     H2S16528   4.182   5.549   2.540
    2PC     C1116529   4.264   5.717   2.420
    2PC     O1216530   4.296   5.834   2.428
    2PC     O1116531   4.218   5.658   2.309
    2PC      C116532   4.162   5.743   2.207
    2PC      HR16533   4.085   5.807   2.252
    2PC      HS16534   4.237   5.813   2.168
    2PC      C216535   4.101   5.656   2.096
    2PC      HX16536   4.179   5.591   2.056
    2PC      C316537   4.023   5.732   1.988
    2PC      HA16538   4.081   5.815   1.949
    2PC      HB16539   4.006   5.671   1.899
    2PC     O3116540   3.900   5.792   2.035
    2PC     P3116541   3.828   5.902   1.944
    2PC     O3216542   3.693   5.954   2.012
    2PC     C3116543   3.693   6.072   2.094
    2PC     H1A16544   3.599   6.053   2.147
    2PC     H1B16545   3.773   6.073   2.169
    2PC     C3216546   3.705   6.200   2.010
    2PC     H2A16547   3.724   6.286   2.074
    2PC     H2B16548   3.778   6.183   1.931
    2PC     N3116549   3.590   6.223   1.918
    2PC     C3316550   3.603   6.368   1.879
    2PC     H3A16551   3.620   6.427   1.969
    2PC     H3B16552   3.688   6.367   1.811
    2PC     H3C16553   3.510   6.399   1.831
    2PC     C3416554   3.597   6.123   1.807
    2PC     H4A16555   3.689   6.130   1.750
    2PC     H4B16556   3.589   6.025   1.855
    2PC     H4C16557   3.511   6.135   1.740
    2PC     C3516558   3.460   6.215   1.993
    2PC     H5A16559   3.376   6.228   1.925
    2PC     H5B16560   3.471   6.299   2.062
    2PC     H5C16561   3.457   6.121   2.048
    2PC     O3316562   3.931   6.004   1.915
    2PC     O3416563   3.798   5.853   1.807
    2PC     O2116564   4.014   5.556   2.152
    2PC     C2116565   3.980   5.450   2.077
    2PC     O2216566   4.003   5.431   1.959
    3OL     C1216567   3.890   5.350   2.145
    3OL     H2R16568   3.951   5.277   2.198
    3OL     H2S16569   3.852   5.287   2.064
    3OL     C1316570   3.770   5.406   2.223
    3OL     H3R16571   3.687   5.337   2.238
    3OL     H3S16572   3.727   5.491   2.169
    3OL     C1416573   3.804   5.452   2.365
    3OL     H4R16574   3.733   5.521   2.413
    3OL     H4S16575   3.899   5.505   2.363
    3OL     C1516576   3.825   5.339   2.467
    3OL     H5R16577   3.895   5.375   2.543
    3OL     H5S16578   3.869   5.250   2.422
    3OL     C1616579   3.696   5.314   2.546
    3OL     H6R16580   3.716   5.213   2.582
    3OL     H6S16581   3.610   5.307   2.478
    3OL     C1716582   3.665   5.407   2.663
    3OL     H7R16583   3.556   5.410   2.671
    3OL     H7S16584   3.715   5.501   2.640
    3OL     C1816585   3.725   5.342   2.788
    3OL     H8R16586   3.813   5.280   2.766
    3OL     H8S16587   3.655   5.275   2.838
    3OL     C1916588   3.742   5.448   2.894
    3OL     H9R16589   3.662   5.521   2.881
    3OL    C11016590   3.836   5.442   2.987
    3OL    H10R16591   3.842   5.515   3.067
    3OL    C11116592   3.917   5.317   3.014
    3OL    H11R16593   4.007   5.300   2.955
    3OL    H11S16594   3.857   5.228   2.997
    3OL    C11216595   3.949   5.295   3.163
    3OL    H12R16596   4.014   5.375   3.199
    3OL    H12S16597   4.006   5.203   3.172
    3OL    C11316598   3.826   5.298   3.254
    3OL    H13R16599   3.744   5.234   3.221
    3OL    H13S16600   3.773   5.394   3.250
    3OL    C11416601   3.869   5.268   3.398
    3OL    H14R16602   3.946   5.341   3.425
    3OL    H14S16603   3.919   5.172   3.413
    3OL    C11516604   3.755   5.294   3.498
    3OL    H15R16605   3.704   5.384   3.464
    3OL    H15S16606   3.807   5.312   3.592
    3OL    C11616607   3.656   5.177   3.501
    3OL    H16R16608   3.708   5.082   3.516
    3OL    H16S16609   3.594   5.171   3.411
    3OL    C11716610   3.560   5.197   3.618
    3OL    H17R16611   3.511   5.294   3.608
    3OL    H17S16612   3.616   5.203   3.711
    3OL    C11816613   3.449   5.091   3.625
    3OL    H18R16614   3.371   5.115   3.699
    3OL    H18S16615   3.495   4.997   3.656
    3OL    H18T16616   3.398   5.088   3.529
    1PA    C11616617   1.331   0.091   2.854
    1PA    H16R16618   1.247   0.104   2.785
    1PA    H16S16619   1.338   0.167   2.931
    1PA    H16T16620   1.316   6.479   2.900
    1PA    C11516621   1.461   0.096   2.771
    1PA    H15R16622   1.448   0.014   2.700
    1PA    H15S16623   1.470   0.184   2.708
    1PA    C11416624   1.583   0.062   2.857
    1PA    H14R16625   1.604   0.140   2.931
    1PA    H14S16626   1.560   6.461   2.919
    1PA    C11316627   1.705   0.053   2.765
    1PA    H13R16628   1.708   0.141   2.700
    1PA    H13S16629   1.793   0.051   2.830
    1PA    C11216630   1.708   6.422   2.666
    1PA    H12R16631   1.724   6.323   2.711
    1PA    H12S16632   1.625   6.416   2.595
    1PA    C11116633   1.836   6.436   2.583
    1PA    H11R16634   1.834   0.049   2.538
    1PA    H11S16635   1.918   6.418   2.652
    1PA    C11016636   1.845   6.332   2.470
    1PA    H10R16637   1.840   6.230   2.508
    1PA    H10S16638   1.758   6.351   2.407
    1PA     C1916639   1.970   6.352   2.383
    1PA     H9R16640   1.960   6.442   2.322
    1PA     H9S16641   2.050   6.362   2.456
    1PA     C1816642   1.987   6.230   2.291
    1PA     H8R16643   1.975   6.137   2.347
    1PA     H8S16644   1.917   6.239   2.207
    1PA     C1716645   2.130   6.240   2.236
    1PA     H7R16646   2.141   6.328   2.172
    1PA     H7S16647   2.193   6.243   2.325
    1PA     C1616648   2.159   6.122   2.142
    1PA     H6R16649   2.169   6.026   2.192
    1PA     H6S16650   2.074   6.101   2.077
    1PA     C1516651   2.280   6.148   2.051
    1PA     H5R16652   2.293   6.063   1.983
    1PA     H5S16653   2.255   6.233   1.988
    1PA     C1416654   2.409   6.175   2.130
    1PA     H4R16655   2.412   6.264   2.194
    1PA     H4S16656   2.426   6.092   2.199
    1PA     C1316657   2.527   6.178   2.032
    1PA     H3R16658   2.512   6.105   1.953
    1PA     H3S16659   2.525   6.280   1.992
    1PA     C1216660   2.662   6.144   2.098
    1PA     H2R16661   2.688   6.216   2.176
    1PA     H2S16662   2.651   6.047   2.146
    2PC     C1116663   2.770   6.132   1.994
    2PC     O1216664   2.757   6.184   1.885
    2PC     O1116665   2.882   6.067   2.029
    2PC      C116666   2.995   6.063   1.941
    2PC      HR16667   3.075   5.998   1.979
    2PC      HS16668   2.960   6.026   1.844
    2PC      C216669   3.053   6.202   1.912
    2PC      HX16670   2.976   6.279   1.900
    2PC      C316671   3.140   6.212   1.786
    2PC      HA16672   3.233   6.156   1.797
    2PC      HB16673   3.083   6.169   1.702
    2PC     O3116674   3.162   6.352   1.763
    2PC     P3116675   3.279   6.391   1.661
    2PC     O3216676   3.210   6.410   1.518
    2PC     C3116677   3.117   0.031   1.494
    2PC     H1A16678   3.054   0.048   1.582
    2PC     H1B16679   3.189   0.112   1.486
    2PC     C3216680   3.032   0.014   1.367
    2PC     H2A16681   2.984   6.404   1.385
    2PC     H2B16682   2.946   0.080   1.361
    2PC     N3116683   3.101   0.019   1.234
    2PC     C3316684   3.012   6.465   1.120
    2PC     H3A16685   2.919   0.035   1.126
    2PC     H3B16686   3.069   0.004   1.030
    2PC     H3C16687   2.978   6.362   1.118
    2PC     C3416688   3.142   0.161   1.210
    2PC     H4A16689   3.228   0.154   1.142
    2PC     H4B16690   3.059   0.228   1.188
    2PC     H4C16691   3.187   0.201   1.301
    2PC     C3516692   3.217   6.411   1.221
    2PC     H5A16693   3.292   6.443   1.294
    2PC     H5B16694   3.253   6.411   1.119
    2PC     H5C16695   3.193   6.314   1.265
    2PC     O3316696   3.351   0.016   1.728
    2PC     O3416697   3.386   6.289   1.647
    2PC     O2116698   3.144   6.241   2.016
    2PC     C2116699   3.101   6.335   2.102
    2PC     O2216700   2.996   6.394   2.088
    3OL     C1216701   3.194   6.371   2.215
    3OL     H2R16702   3.226   6.476   2.210
    3OL     H2S16703   3.291   6.326   2.191
    3OL     C1316704   3.137   6.328   2.350
    3OL     H3R16705   3.147   6.222   2.373
    3OL     H3S16706   3.034   6.363   2.353
    3OL     C1416707   3.188   6.410   2.470
    3OL     H4R16708   3.166   0.031   2.462
    3OL     H4S16709   3.297   6.415   2.473
    3OL     C1516710   3.132   6.357   2.603
    3OL     H5R16711   3.201   6.285   2.647
    3OL     H5S16712   3.041   6.300   2.588
    3OL     C1616713   3.113   6.466   2.710
    3OL     H6R16714   3.059   0.056   2.654
    3OL     H6S16715   3.204   0.030   2.743
    3OL     C1716716   3.035   6.424   2.836
    3OL     H7R16717   2.928   6.404   2.825
    3OL     H7S16718   3.038   0.025   2.901
    3OL     C1816719   3.111   6.316   2.913
    3OL     H8R16720   3.220   6.323   2.903
    3OL     H8S16721   3.081   6.228   2.856
    3OL     C1916722   3.075   6.299   3.058
    3OL     H9R16723   3.051   6.391   3.110
    3OL    C11016724   3.076   6.185   3.126
    3OL    H10R16725   3.037   6.195   3.227
    3OL    C11116726   3.131   6.051   3.084
    3OL    H11R16727   3.139   6.039   2.976
    3OL    H11S16728   3.067   5.968   3.114
    3OL    C11216729   3.265   6.037   3.157
    3OL    H12R16730   3.237   6.033   3.263
    3OL    H12S16731   3.326   6.127   3.143
    3OL    C11316732   3.352   5.920   3.108
    3OL    H13R16733   3.456   5.941   3.135
    3OL    H13S16734   3.346   5.927   2.999
    3OL    C11416735   3.311   5.790   3.178
    3OL    H14R16736   3.207   5.756   3.178
    3OL    H14S16737   3.337   5.798   3.284
    3OL    C11516738   3.397   5.681   3.113
    3OL    H15R16739   3.503   5.709   3.119
    3OL    H15S16740   3.369   5.674   3.008
    3OL    C11616741   3.380   5.549   3.189
    3OL    H16R16742   3.273   5.526   3.188
    3OL    H16S16743   3.421   5.558   3.290
    3OL    C11716744   3.440   5.431   3.111
    3OL    H17R16745   3.548   5.443   3.104
    3OL    H17S16746   3.400   5.423   3.010
    3OL    C11816747   3.408   5.300   3.185
    3OL    H18R16748   3.299   5.300   3.181
    3OL    H18S16749   3.450   5.301   3.286
    3OL    H18T16750   3.441   5.214   3.126
    1PA    C11616751   1.708   0.428   3.984
    1PA    H16R16752   1.725   0.437   4.092
    1PA    H16S16753   1.794   0.404   3.921
    1PA    H16T16754   1.641   0.343   3.977
    1PA    C11516755   1.636   0.554   3.935
    1PA    H15R16756   1.529   0.554   3.954
    1PA    H15S16757   1.684   0.640   3.982
    1PA    C11416758   1.652   0.570   3.783
    1PA    H14R16759   1.642   0.676   3.761
    1PA    H14S16760   1.741   0.518   3.745
    1PA    C11316761   1.542   0.495   3.707
    1PA    H13R16762   1.542   0.397   3.754
    1PA    H13S16763   1.439   0.530   3.722
    1PA    C11216764   1.552   0.486   3.554
    1PA    H12R16765   1.464   0.428   3.526
    1PA    H12S16766   1.548   0.570   3.484
    1PA    C11116767   1.662   0.387   3.514
    1PA    H11R16768   1.758   0.440   3.517
    1PA    H11S16769   1.664   0.297   3.575
    1PA    C11016770   1.647   0.336   3.370
    1PA    H10R16771   1.695   0.238   3.360
    1PA    H10S16772   1.541   0.326   3.346
    1PA     C1916773   1.707   0.436   3.270
    1PA     H9R16774   1.631   0.453   3.194
    1PA     H9S16775   1.720   0.532   3.322
    1PA     C1816776   1.842   0.393   3.212
    1PA     H8R16777   1.908   0.363   3.295
    1PA     H8S16778   1.832   0.309   3.143
    1PA     C1716779   1.915   0.505   3.136
    1PA     H7R16780   1.934   0.580   3.212
    1PA     H7S16781   2.009   0.474   3.090
    1PA     C1616782   1.825   0.570   3.030
    1PA     H6R16783   1.752   0.635   3.078
    1PA     H6S16784   1.896   0.633   2.975
    1PA     C1516785   1.774   0.467   2.928
    1PA     H5R16786   1.847   0.390   2.906
    1PA     H5S16787   1.687   0.410   2.962
    1PA     C1416788   1.738   0.539   2.798
    1PA     H4R16789   1.658   0.614   2.805
    1PA     H4S16790   1.821   0.597   2.756
    1PA     C1316791   1.695   0.440   2.689
    1PA     H3R16792   1.756   0.350   2.696
    1PA     H3S16793   1.592   0.411   2.711
    1PA     C1216794   1.699   0.508   2.551
    1PA     H2R16795   1.636   0.597   2.550
    1PA     H2S16796   1.803   0.531   2.526
    2PC     C1116797   1.633   0.414   2.454
    2PC     O1216798   1.530   0.450   2.401
    2PC     O1116799   1.691   0.293   2.454
    2PC      C116800   1.640   0.192   2.364
    2PC      HR16801   1.654   0.087   2.393
    2PC      HS16802   1.531   0.198   2.366
    2PC      C216803   1.698   0.206   2.223
    2PC      HX16804   1.659   0.300   2.182
    2PC      C316805   1.649   0.083   2.145
    2PC      HA16806   1.695   6.481   2.189
    2PC      HB16807   1.542   0.075   2.129
    2PC     O3116808   1.706   0.101   2.014
    2PC     P3116809   1.676   0.006   1.889
    2PC     O3216810   1.641   0.113   1.775
    2PC     C3116811   1.508   0.168   1.774
    2PC     H1A16812   1.436   0.090   1.749
    2PC     H1B16813   1.479   0.222   1.864
    2PC     C3216814   1.513   0.275   1.663
    2PC     H2A16815   1.604   0.335   1.674
    2PC     H2B16816   1.525   0.216   1.572
    2PC     N3116817   1.393   0.360   1.635
    2PC     C3316818   1.424   0.451   1.520
    2PC     H3A16819   1.503   0.517   1.555
    2PC     H3B16820   1.456   0.381   1.443
    2PC     H3C16821   1.331   0.501   1.490
    2PC     C3416822   1.275   0.276   1.594
    2PC     H4A16823   1.260   0.188   1.656
    2PC     H4B16824   1.186   0.339   1.596
    2PC     H4C16825   1.290   0.231   1.496
    2PC     C3516826   1.364   0.452   1.750
    2PC     H5A16827   1.441   0.530   1.741
    2PC     H5B16828   1.363   0.401   1.846
    2PC     H5C16829   1.268   0.498   1.726
    2PC     O3316830   1.795   6.422   1.835
    2PC     O3416831   1.577   6.383   1.900
    2PC     O2116832   1.842   0.204   2.234
    2PC     C2116833   1.909   0.266   2.135
    2PC     O2216834   1.858   0.343   2.057
    3OL     C1216835   2.054   0.226   2.128
    3OL     H2R16836   2.072   0.240   2.021
    3OL     H2S16837   2.060   0.119   2.145
    3OL     C1316838   2.143   0.307   2.224
    3OL     H3R16839   2.120   0.409   2.195
    3OL     H3S16840   2.249   0.292   2.205
    3OL     C1416841   2.108   0.293   2.373
    3OL     H4R16842   2.133   0.191   2.406
    3OL     H4S16843   2.001   0.307   2.392
    3OL     C1516844   2.192   0.385   2.463
    3OL     H5R16845   2.190   0.486   2.423
    3OL     H5S16846   2.296   0.354   2.473
    3OL     C1616847   2.124   0.384   2.601
    3OL     H6R16848   2.113   0.285   2.646
    3OL     H6S16849   2.024   0.428   2.596
    3OL     C1716850   2.203   0.474   2.696
    3OL     H7R16851   2.214   0.578   2.665
    3OL     H7S16852   2.303   0.433   2.710
    3OL     C1816853   2.138   0.461   2.834
    3OL     H8R16854   2.136   0.353   2.853
    3OL     H8S16855   2.033   0.489   2.843
    3OL     C1916856   2.226   0.524   2.939
    3OL     H9R16857   2.183   0.618   2.974
    3OL    C11016858   2.330   0.479   3.007
    3OL    H10R16859   2.376   0.535   3.087
    3OL    C11116860   2.392   0.343   2.989
    3OL    H11R16861   2.493   0.354   3.028
    3OL    H11S16862   2.399   0.315   2.883
    3OL    C11216863   2.324   0.230   3.067
    3OL    H12R16864   2.371   0.132   3.057
    3OL    H12S16865   2.231   0.208   3.013
    3OL    C11316866   2.288   0.250   3.215
    3OL    H13R16867   2.248   0.352   3.216
    3OL    H13S16868   2.373   0.253   3.282
    3OL    C11416869   2.176   0.162   3.272
    3OL    H14R16870   2.195   0.055   3.257
    3OL    H14S16871   2.087   0.180   3.212
    3OL    C11516872   2.137   0.206   3.414
    3OL    H15R16873   2.126   0.315   3.416
    3OL    H15S16874   2.228   0.198   3.472
    3OL    C11616875   2.022   0.126   3.477
    3OL    H16R16876   2.048   0.023   3.504
    3OL    H16S16877   1.952   0.106   3.396
    3OL    C11716878   1.955   0.193   3.598
    3OL    H17R16879   1.870   0.127   3.614
    3OL    H17S16880   1.922   0.288   3.553
    3OL    C11816881   2.052   0.221   3.713
    3OL    H18R16882   2.018   0.257   3.811
    3OL    H18S16883   2.118   0.301   3.678
    3OL    H18T16884   2.113   0.131   3.724
    1PA    C11616885   4.822   6.410   3.234
    1PA    H16R16886   4.826   6.471   3.325
    1PA    H16S16887   4.736   6.449   3.180
    1PA    H16T16888   4.911   6.434   3.175
    1PA    C11516889   4.794   6.262   3.266
    1PA    H15R16890   4.824   6.215   3.172
    1PA    H15S16891   4.845   6.219   3.352
    1PA    C11416892   4.646   6.237   3.297
    1PA    H14R16893   4.620   6.300   3.382
    1PA    H14S16894   4.581   6.272   3.217
    1PA    C11316895   4.600   6.092   3.321
    1PA    H13R16896   4.492   6.082   3.328
    1PA    H13S16897   4.621   6.030   3.234
    1PA    C11216898   4.662   6.035   3.450
    1PA    H12R16899   4.770   6.024   3.441
    1PA    H12S16900   4.635   6.092   3.539
    1PA    C11116901   4.602   5.896   3.476
    1PA    H11R16902   4.630   5.857   3.574
    1PA    H11S16903   4.492   5.895   3.473
    1PA    C11016904   4.644   5.789   3.374
    1PA    H10R16905   4.622   5.824   3.273
    1PA    H10S16906   4.753   5.790   3.375
    1PA     C1916907   4.595   5.649   3.410
    1PA     H9R16908   4.625   5.639   3.515
    1PA     H9S16909   4.486   5.639   3.402
    1PA     C1816910   4.667   5.543   3.325
    1PA     H8R16911   4.773   5.558   3.344
    1PA     H8S16912   4.631   5.445   3.358
    1PA     C1716913   4.639   5.542   3.174
    1PA     H7R16914   4.533   5.536   3.147
    1PA     H7S16915   4.688   5.632   3.136
    1PA     C1616916   4.726   5.431   3.115
    1PA     H6R16917   4.830   5.446   3.144
    1PA     H6S16918   4.695   5.337   3.163
    1PA     C1516919   4.704   5.434   2.963
    1PA     H5R16920   4.597   5.430   2.945
    1PA     H5S16921   4.738   5.527   2.915
    1PA     C1416922   4.761   5.308   2.896
    1PA     H4R16923   4.850   5.288   2.956
    1PA     H4S16924   4.698   5.224   2.927
    1PA     C1316925   4.797   5.330   2.749
    1PA     H3R16926   4.860   5.419   2.745
    1PA     H3S16927   4.861   5.248   2.716
    1PA     C1216928   4.668   5.355   2.669
    1PA     H2R16929   4.600   5.270   2.672
    1PA     H2S16930   4.607   5.439   2.704
    2PC     C1116931   4.681   5.382   2.522
    2PC     O1216932   4.766   5.334   2.449
    2PC     O1116933   4.583   5.459   2.473
    2PC      C116934   4.575   5.503   2.336
    2PC      HR16935   4.487   5.565   2.316
    2PC      HS16936   4.669   5.543   2.300
    2PC      C216937   4.553   5.382   2.243
    2PC      HX16938   4.620   5.298   2.263
    2PC      C316939   4.569   5.428   2.098
    2PC      HA16940   4.670   5.467   2.082
    2PC      HB16941   4.555   5.349   2.024
    2PC     O3116942   4.466   5.526   2.077
    2PC     P3116943   4.457   5.608   1.940
    2PC     O3216944   4.414   5.483   1.849
    2PC     C3116945   4.277   5.454   1.815
    2PC     H1A16946   4.237   5.398   1.901
    2PC     H1B16947   4.226   5.551   1.811
    2PC     C3216948   4.261   5.376   1.684
    2PC     H2A16949   4.155   5.370   1.660
    2PC     H2B16950   4.302   5.431   1.599
    2PC     N3116951   4.328   5.243   1.686
    2PC     C3316952   4.305   5.174   1.554
    2PC     H3A16953   4.200   5.163   1.527
    2PC     H3B16954   4.345   5.231   1.470
    2PC     H3C16955   4.351   5.075   1.551
    2PC     C3416956   4.477   5.240   1.707
    2PC     H4A16957   4.504   5.147   1.657
    2PC     H4B16958   4.524   5.328   1.662
    2PC     H4C16959   4.482   5.231   1.815
    2PC     C3516960   4.266   5.148   1.784
    2PC     H5A16961   4.320   5.054   1.772
    2PC     H5B16962   4.163   5.147   1.749
    2PC     H5C16963   4.273   5.188   1.885
    2PC     O3316964   4.361   5.720   1.928
    2PC     O3416965   4.589   5.672   1.916
    2PC     O2116966   4.420   5.331   2.260
    2PC     C2116967   4.368   5.227   2.193
    2PC     O2216968   4.419   5.154   2.110
    3OL     C1216969   4.226   5.204   2.239
    3OL     H2R16970   4.211   5.099   2.210
    3OL     H2S16971   4.147   5.258   2.185
    3OL     C1316972   4.186   5.227   2.385
    3OL     H3R16973   4.086   5.184   2.386
    3OL     H3S16974   4.188   5.333   2.410
    3OL     C1416975   4.259   5.151   2.497
    3OL     H4R16976   4.361   5.189   2.487
    3OL     H4S16977   4.267   5.043   2.484
    3OL     C1516978   4.197   5.181   2.635
    3OL     H5R16979   4.099   5.133   2.631
    3OL     H5S16980   4.185   5.288   2.652
    3OL     C1616981   4.281   5.123   2.749
    3OL     H6R16982   4.380   5.168   2.744
    3OL     H6S16983   4.292   5.017   2.724
    3OL     C1716984   4.209   5.148   2.882
    3OL     H7R16985   4.106   5.116   2.869
    3OL     H7S16986   4.207   5.254   2.909
    3OL     C1816987   4.278   5.063   2.989
    3OL     H8R16988   4.284   4.959   2.954
    3OL     H8S16989   4.211   5.051   3.074
    3OL     C1916990   4.405   5.136   3.024
    3OL     H9R16991   4.472   5.148   2.939
    3OL    C11016992   4.459   5.162   3.142
    3OL    H10R16993   4.553   5.216   3.153
    3OL    C11116994   4.380   5.143   3.269
    3OL    H11R16995   4.411   5.052   3.320
    3OL    H11S16996   4.272   5.138   3.254
    3OL    C11216997   4.402   5.265   3.360
    3OL    H12R16998   4.376   5.355   3.305
    3OL    H12S16999   4.504   5.270   3.397
    3OL    C11317000   4.314   5.259   3.486
    3OL    H13R17001   4.321   5.163   3.537
    3OL    H13S17002   4.211   5.268   3.448
    3OL    C11417003   4.349   5.376   3.579
    3OL    H14R17004   4.331   5.469   3.525
    3OL    H14S17005   4.457   5.375   3.592
    3OL    C11517006   4.275   5.391   3.712
    3OL    H15R17007   4.297   5.309   3.781
    3OL    H15S17008   4.170   5.383   3.682
    3OL    C11617009   4.300   5.527   3.780
    3OL    H16R17010   4.287   5.607   3.708
    3OL    H16S17011   4.406   5.537   3.806
    3OL    C11717012   4.208   5.543   3.902
    3OL    H17R17013   4.211   5.469   3.983
    3OL    H17S17014   4.106   5.532   3.866
    3OL    C11817015   4.225   5.679   3.970
    3OL    H18R17016   4.181   5.683   4.070
    3OL    H18S17017   4.177   5.755   3.907
    3OL    H18T17018   4.327   5.714   3.984
    1PA    C11617019   3.882   0.075   3.913
    1PA    H16R17020   3.850   6.481   3.980
    1PA    H16S17021   3.819   0.164   3.914
    1PA    H16T17022   3.985   0.100   3.940
    1PA    C11517023   3.879   0.014   3.772
    1PA    H15R17024   3.956   0.061   3.711
    1PA    H15S17025   3.892   6.392   3.779
    1PA    C11417026   3.746   0.037   3.699
    1PA    H14R17027   3.655   0.014   3.755
    1PA    H14S17028   3.736   0.144   3.677
    1PA    C11317029   3.728   6.463   3.559
    1PA    H13R17030   3.798   0.018   3.487
    1PA    H13S17031   3.749   6.356   3.564
    1PA    C11217032   3.590   0.004   3.499
    1PA    H12R17033   3.518   6.473   3.579
    1PA    H12S17034   3.589   0.108   3.468
    1PA    C11117035   3.552   6.408   3.375
    1PA    H11R17036   3.597   6.309   3.385
    1PA    H11S17037   3.445   6.385   3.376
    1PA    C11017038   3.592   6.482   3.246
    1PA    H10R17039   3.536   0.088   3.233
    1PA    H10S17040   3.698   0.023   3.256
    1PA     C1917041   3.557   6.401   3.121
    1PA     H9R17042   3.589   6.297   3.133
    1PA     H9S17043   3.448   6.406   3.117
    1PA     C1817044   3.613   6.467   2.994
    1PA     H8R17045   3.609   0.090   2.999
    1PA     H8S17046   3.719   6.444   2.981
    1PA     C1717047   3.545   6.427   2.863
    1PA     H7R17048   3.448   6.475   2.879
    1PA     H7S17049   3.588   6.471   2.773
    1PA     C1617050   3.509   6.278   2.847
    1PA     H6R17051   3.448   6.240   2.929
    1PA     H6S17052   3.446   6.266   2.759
    1PA     C1517053   3.635   6.192   2.835
    1PA     H5R17054   3.690   6.201   2.741
    1PA     H5S17055   3.709   6.215   2.912
    1PA     C1417056   3.599   6.044   2.855
    1PA     H4R17057   3.690   5.987   2.874
    1PA     H4S17058   3.531   6.034   2.940
    1PA     C1317059   3.531   5.971   2.739
    1PA     H3R17060   3.431   6.011   2.720
    1PA     H3S17061   3.589   5.992   2.649
    1PA     C1217062   3.522   5.819   2.756
    1PA     H2R17063   3.622   5.778   2.742
    1PA     H2S17064   3.479   5.800   2.855
    2PC     C1117065   3.446   5.761   2.640
    2PC     O1217066   3.330   5.789   2.617
    2PC     O1117067   3.522   5.675   2.570
    2PC      C117068   3.456   5.616   2.456
    2PC      HR17069   3.498   5.516   2.445
    2PC      HS17070   3.347   5.618   2.469
    2PC      C217071   3.464   5.697   2.326
    2PC      HX17072   3.424   5.797   2.344
    2PC      C317073   3.402   5.626   2.204
    2PC      HA17074   3.298   5.600   2.224
    2PC      HB17075   3.418   5.701   2.126
    2PC     O3117076   3.474   5.505   2.173
    2PC     P3117077   3.424   5.425   2.043
    2PC     O3217078   3.563   5.422   1.962
    2PC     C3117079   3.618   5.540   1.900
    2PC     H1A17080   3.534   5.578   1.841
    2PC     H1B17081   3.637   5.616   1.976
    2PC     C3217082   3.740   5.503   1.814
    2PC     H2A17083   3.806   5.588   1.799
    2PC     H2B17084   3.798   5.426   1.865
    2PC     N3117085   3.703   5.442   1.682
    2PC     C3317086   3.825   5.388   1.614
    2PC     H3A17087   3.825   5.381   1.505
    2PC     H3B17088   3.904   5.454   1.651
    2PC     H3C17089   3.843   5.290   1.658
    2PC     C3417090   3.622   5.316   1.693
    2PC     H4A17091   3.536   5.343   1.754
    2PC     H4B17092   3.587   5.293   1.593
    2PC     H4C17093   3.687   5.242   1.739
    2PC     C3517094   3.638   5.539   1.588
    2PC     H5A17095   3.557   5.601   1.628
    2PC     H5B17096   3.601   5.472   1.511
    2PC     H5C17097   3.713   5.609   1.550
    2PC     O3317098   3.357   5.297   2.072
    2PC     O3417099   3.320   5.494   1.963
    2PC     O2117100   3.601   5.712   2.285
    2PC     C2117101   3.674   5.804   2.351
    2PC     O2217102   3.618   5.891   2.415
    3OL     C1217103   3.823   5.788   2.336
    3OL     H2R17104   3.856   5.880   2.288
    3OL     H2S17105   3.848   5.701   2.275
    3OL     C1317106   3.890   5.789   2.474
    3OL     H3R17107   3.989   5.745   2.465
    3OL     H3S17108   3.840   5.714   2.536
    3OL     C1417109   3.887   5.928   2.539
    3OL     H4R17110   3.797   5.923   2.600
    3OL     H4S17111   3.871   6.009   2.469
    3OL     C1517112   4.015   5.944   2.623
    3OL     H5R17113   4.101   5.950   2.556
    3OL     H5S17114   4.037   5.865   2.696
    3OL     C1617115   4.000   6.069   2.711
    3OL     H6R17116   3.900   6.054   2.752
    3OL     H6S17117   3.988   6.156   2.646
    3OL     C1717118   4.113   6.083   2.813
    3OL     H7R17119   4.206   6.058   2.761
    3OL     H7S17120   4.102   6.010   2.894
    3OL     C1817121   4.119   6.225   2.870
    3OL     H8R17122   4.165   6.291   2.796
    3OL     H8S17123   4.178   6.207   2.960
    3OL     C1917124   3.993   6.292   2.919
    3OL     H9R17125   3.934   6.347   2.847
    3OL    C11017126   3.962   6.296   3.048
    3OL    H10R17127   3.874   6.352   3.078
    3OL    C11117128   4.020   6.209   3.156
    3OL    H11R17129   4.084   6.128   3.121
    3OL    H11S17130   3.937   6.160   3.208
    3OL    C11217131   4.109   6.291   3.250
    3OL    H12R17132   4.053   6.375   3.293
    3OL    H12S17133   4.202   6.326   3.205
    3OL    C11317134   4.158   6.205   3.368
    3OL    H13R17135   4.253   6.250   3.398
    3OL    H13S17136   4.174   6.104   3.328
    3OL    C11417137   4.059   6.189   3.483
    3OL    H14R17138   3.970   6.141   3.440
    3OL    H14S17139   4.033   6.289   3.519
    3OL    C11517140   4.103   6.094   3.595
    3OL    H15R17141   4.149   6.007   3.548
    3OL    H15S17142   4.016   6.077   3.659
    3OL    C11617143   4.213   6.163   3.677
    3OL    H16R17144   4.180   6.260   3.714
    3OL    H16S17145   4.294   6.196   3.612
    3OL    C11717146   4.258   6.082   3.800
    3OL    H17R17147   4.165   6.050   3.849
    3OL    H17S17148   4.327   6.142   3.859
    3OL    C11817149   4.323   5.951   3.752
    3OL    H18R17150   4.377   5.896   3.829
    3OL    H18S17151   4.402   5.984   3.684
    3OL    H18T17152   4.252   5.881   3.707
    4SOL     OW17153   0.628   2.425   5.758
    4SOL    HW117154   0.614   2.370   5.835
    4SOL    HW217155   0.702   2.385   5.713
    5SOL     OW17156   2.940   2.505   6.532
    5SOL    HW117157   2.850   2.471   6.540
    5SOL    HW217158   2.931   2.599   6.545
    6SOL     OW17159   1.391   4.091   6.328
    6SOL    HW117160   1.327   4.119   6.393
    6SOL    HW217161   1.428   4.011   6.364
    7SOL     OW17162   6.198   2.225   2.159
    7SOL    HW117163   6.174   2.311   2.192
    7SOL    HW217164   6.122   2.170   2.180
    8SOL     OW17165   1.703   4.935   6.384
    8SOL    HW117166   1.735   4.936   6.294
    8SOL    HW217167   1.690   4.842   6.404
    9SOL     OW17168   3.396   3.270   5.954
    9SOL    HW117169   3.361   3.253   5.866
    9SOL    HW217170   3.454   3.196   5.971
   10SOL     OW17171   3.119   2.718   6.850
   10SOL    HW117172   3.053   2.782   6.878
   10SOL    HW217173   3.191   2.730   6.912
   11SOL     OW17174   3.571   1.253   0.598
   11SOL    HW117175   3.655   1.220   0.631
   11SOL    HW217176   3.535   1.180   0.548
   12SOL     OW17177   2.246   5.406   0.870
   12SOL    HW117178   2.233   5.501   0.863
   12SOL    HW217179   2.331   5.390   0.829
   13SOL     OW17180   4.233   4.395   6.247
   13SOL    HW117181   4.271   4.454   6.312
   13SOL    HW217182   4.178   4.335   6.298
   14SOL     OW17183   2.768   4.116   0.707
   14SOL    HW117184   2.797   4.201   0.741
   14SOL    HW217185   2.845   4.060   0.714
   15SOL     OW17186   4.745   5.480   1.684
   15SOL    HW117187   4.706   5.547   1.741
   15SOL    HW217188   4.690   5.481   1.606
   16SOL     OW17189   6.236   4.877   1.071
   16SOL    HW117190   6.183   4.800   1.049
   16SOL    HW217191   6.175   4.936   1.115
   17SOL     OW17192   2.211   3.776   0.284
   17SOL    HW117193   2.266   3.839   0.237
   17SOL    HW217194   2.129   3.774   0.234
   18SOL     OW17195   4.914   2.400   0.202
   18SOL    HW117196   4.843   2.453   0.240
   18SOL    HW217197   4.988   2.460   0.197
   19SOL     OW17198   3.355   1.499   6.240
   19SOL    HW117199   3.306   1.450   6.174
   19SOL    HW217200   3.331   1.590   6.225
   20SOL     OW17201   6.188   5.926   2.220
   20SOL    HW117202   6.222   5.948   2.306
   20SOL    HW217203   6.245   5.855   2.190
   21SOL     OW17204   0.469   3.074   1.935
   21SOL    HW117205   0.396   3.015   1.917
   21SOL    HW217206   0.457   3.101   2.026
   22SOL     OW17207   0.781   0.463   0.084
   22SOL    HW117208   0.850   0.434   0.145
   22SOL    HW217209   0.827   0.517   0.020
   23SOL     OW17210   2.518   1.631   0.170
   23SOL    HW117211   2.566   1.552   0.142
   23SOL    HW217212   2.500   1.616   0.263
   24SOL     OW17213   4.445   2.944   0.101
   24SOL    HW117214   4.370   2.920   0.046
   24SOL    HW217215   4.519   2.901   0.059
   25SOL     OW17216   2.682   2.470   7.600
   25SOL    HW117217   2.702   2.562   7.615
   25SOL    HW217218   2.694   2.457   7.506
   26SOL     OW17219   2.816   6.011   0.046
   26SOL    HW117220   2.778   6.088   0.003
   26SOL    HW217221   2.745   5.976   0.099
   27SOL     OW17222   1.388   2.274   0.825
   27SOL    HW117223   1.355   2.363   0.811
   27SOL    HW217224   1.402   2.240   0.736
   28SOL     OW17225   3.538   1.216   2.314
   28SOL    HW117226   3.486   1.273   2.372
   28SOL    HW217227   3.510   1.240   2.226
   29SOL     OW17228   1.560   2.872   0.132
   29SOL    HW117229   1.478   2.874   0.082
   29SOL    HW217230   1.535   2.839   0.218
   30SOL     OW17231   5.656   3.453   0.863
   30SOL    HW117232   5.702   3.512   0.923
   30SOL    HW217233   5.597   3.403   0.919
   31SOL     OW17234   1.472   4.560   7.021
   31SOL    HW117235   1.501   4.478   6.981
   31SOL    HW217236   1.426   4.533   7.101
   32SOL     OW17237   3.423   0.087   0.227
   32SOL    HW117238   3.375   0.155   0.179
   32SOL    HW217239   3.505   0.078   0.179
   33SOL     OW17240   2.766   5.494   4.549
   33SOL    HW117241   2.796   5.465   4.635
   33SOL    HW217242   2.684   5.447   4.536
   34SOL     OW17243   1.177   0.393   6.378
   34SOL    HW117244   1.184   0.482   6.412
   34SOL    HW217245   1.265   0.356   6.390
   35SOL     OW17246   2.698   1.369   6.857
   35SOL    HW117247   2.770   1.432   6.855
   35SOL    HW217248   2.633   1.405   6.797
   36SOL     OW17249   2.960   2.714   5.294
   36SOL    HW117250   2.903   2.789   5.308
   36SOL    HW217251   3.021   2.742   5.226
   37SOL     OW17252   2.845   5.860   1.343
   37SOL    HW117253   2.912   5.895   1.402
   37SOL    HW217254   2.855   5.765   1.350
   38SOL     OW17255   5.560   3.406   0.059
   38SOL    HW117256   5.554   3.475   7.769
   38SOL    HW217257   5.638   3.427   0.111
   39SOL     OW17258   1.906   4.704   6.097
   39SOL    HW117259   1.842   4.655   6.148
   39SOL    HW217260   1.974   4.727   6.160
   40SOL     OW17261   2.446   1.916   6.568
   40SOL    HW117262   2.511   1.976   6.532
   40SOL    HW217263   2.496   1.856   6.624
   41SOL     OW17264   5.274   3.438   6.888
   41SOL    HW117265   5.356   3.416   6.934
   41SOL    HW217266   5.226   3.356   6.884
   42SOL     OW17267   6.438   3.387   0.842
   42SOL    HW117268   0.006   3.430   0.909
   42SOL    HW217269   6.355   3.370   0.886
   43SOL     OW17270   6.148   3.652   6.661
   43SOL    HW117271   6.099   3.713   6.715
   43SOL    HW217272   6.214   3.706   6.617
   44SOL     OW17273   0.391   2.031   7.080
   44SOL    HW117274   0.361   2.038   7.171
   44SOL    HW217275   0.342   1.957   7.044
   45SOL     OW17276   3.184   2.227   0.268
   45SOL    HW117277   3.236   2.247   0.190
   45SOL    HW217278   3.121   2.161   0.238
   46SOL     OW17279   5.417   0.653   6.084
   46SOL    HW117280   5.374   0.572   6.056
   46SOL    HW217281   5.461   0.685   6.006
   47SOL     OW17282   0.678   4.140   6.425
   47SOL    HW117283   0.619   4.113   6.354
   47SOL    HW217284   0.746   4.073   6.426
   48SOL     OW17285   3.615   0.846   0.057
   48SOL    HW117286   3.674   0.827   7.759
   48SOL    HW217287   3.583   0.934   0.040
   49SOL     OW17288   6.362   2.487   2.327
   49SOL    HW117289   6.403   2.401   2.314
   49SOL    HW217290   6.402   2.520   2.408
   50SOL     OW17291   5.851   1.759   1.510
   50SOL    HW117292   5.908   1.835   1.519
   50SOL    HW217293   5.770   1.795   1.474
   51SOL     OW17294   2.798   4.211   0.244
   51SOL    HW117295   2.793   4.239   0.152
   51SOL    HW217296   2.846   4.281   0.288
   52SOL     OW17297   4.867   2.345   1.267
   52SOL    HW117298   4.929   2.361   1.196
   52SOL    HW217299   4.782   2.336   1.224
   53SOL     OW17300   1.830   5.952   7.676
   53SOL    HW117301   1.856   5.868   7.639
   53SOL    HW217302   1.851   5.945   7.769
   54SOL     OW17303   0.358   1.094   5.562
   54SOL    HW117304   0.317   1.180   5.551
   54SOL    HW217305   0.446   1.113   5.594
   55SOL     OW17306   2.475   2.146   2.149
   55SOL    HW117307   2.558   2.138   2.102
   55SOL    HW217308   2.496   2.198   2.227
   56SOL     OW17309   0.973   4.669   1.107
   56SOL    HW117310   1.045   4.708   1.056
   56SOL    HW217311   0.897   4.676   1.050
   57SOL     OW17312   0.443   5.436   5.377
   57SOL    HW117313   0.460   5.402   5.289
   57SOL    HW217314   0.466   5.529   5.371
   58SOL     OW17315   4.561   2.854   7.052
   58SOL    HW117316   4.554   2.898   7.137
   58SOL    HW217317   4.615   2.777   7.070
   59SOL     OW17318   1.178   1.794   0.885
   59SOL    HW117319   1.195   1.884   0.859
   59SOL    HW217320   1.105   1.800   0.947
   60SOL     OW17321   2.449   5.293   7.571
   60SOL    HW117322   2.356   5.275   7.587
   60SOL    HW217323   2.453   5.388   7.557
   61SOL     OW17324   2.449   5.047   0.306
   61SOL    HW117325   2.523   5.101   0.277
   61SOL    HW217326   2.459   5.041   0.401
   62SOL     OW17327   1.438   4.694   0.206
   62SOL    HW117328   1.532   4.681   0.205
   62SOL    HW217329   1.414   4.709   0.114
   63SOL     OW17330   4.514   2.888   7.532
   63SOL    HW117331   4.582   2.877   7.599
   63SOL    HW217332   4.457   2.811   7.543
   64SOL     OW17333   3.958   1.346   7.712
   64SOL    HW117334   3.976   1.439   7.729
   64SOL    HW217335   3.924   1.313   0.020
   65SOL     OW17336   3.617   3.733   0.873
   65SOL    HW117337   3.684   3.789   0.912
   65SOL    HW217338   3.552   3.721   0.943
   66SOL     OW17339   4.677   0.716   0.997
   66SOL    HW117340   4.668   0.698   0.903
   66SOL    HW217341   4.608   0.780   1.015
   67SOL     OW17342   1.309   5.898   0.900
   67SOL    HW117343   1.318   5.876   0.992
   67SOL    HW217344   1.356   5.829   0.854
   68SOL     OW17345   4.429   3.471   7.287
   68SOL    HW117346   4.491   3.409   7.248
   68SOL    HW217347   4.471   3.498   7.369
   69SOL     OW17348   2.064   4.360   7.246
   69SOL    HW117349   2.105   4.389   7.328
   69SOL    HW217350   2.029   4.273   7.266
   70SOL     OW17351   3.826   0.016   0.930
   70SOL    HW117352   3.774   6.468   1.003
   70SOL    HW217353   3.844   0.107   0.954
   71SOL     OW17354   4.912   3.897   1.275
   71SOL    HW117355   4.849   3.847   1.325
   71SOL    HW217356   4.860   3.961   1.226
   72SOL     OW17357   1.607   4.677   1.796
   72SOL    HW117358   1.665   4.737   1.844
   72SOL    HW217359   1.519   4.709   1.815
   73SOL     OW17360   4.967   1.582   7.185
   73SOL    HW117361   5.047   1.585   7.238
   73SOL    HW217362   4.906   1.529   7.236
   74SOL     OW17363   0.070   2.856   0.936
   74SOL    HW117364   6.486   2.890   0.881
   74SOL    HW217365   0.129   2.812   0.875
   75SOL     OW17366   4.174   1.589   1.226
   75SOL    HW117367   4.225   1.654   1.178
   75SOL    HW217368   4.098   1.572   1.171
   76SOL     OW17369   1.659   2.389   7.017
   76SOL    HW117370   1.690   2.477   7.041
   76SOL    HW217371   1.594   2.404   6.948
   77SOL     OW17372   2.103   2.585   1.317
   77SOL    HW117373   2.198   2.581   1.334
   77SOL    HW217374   2.074   2.494   1.324
   78SOL     OW17375   3.841   2.258   6.945
   78SOL    HW117376   3.860   2.172   6.983
   78SOL    HW217377   3.921   2.281   6.897
   79SOL     OW17378   5.244   6.181   0.837
   79SOL    HW117379   5.207   6.094   0.826
   79SOL    HW217380   5.174   6.233   0.876
   80SOL     OW17381   0.554   3.650   7.394
   80SOL    HW117382   0.633   3.668   7.342
   80SOL    HW217383   0.488   3.708   7.357
   81SOL     OW17384   3.602   0.096   6.447
   81SOL    HW117385   3.584   0.036   6.374
   81SOL    HW217386   3.609   0.038   6.524
   82SOL     OW17387   6.095   5.948   0.197
   82SOL    HW117388   6.135   6.006   0.132
   82SOL    HW217389   6.008   5.985   0.212
   83SOL     OW17390   2.985   0.668   6.634
   83SOL    HW117391   2.901   0.623   6.623
   83SOL    HW217392   3.024   0.667   6.547
   84SOL     OW17393   1.731   3.017   0.848
   84SOL    HW117394   1.741   3.046   0.938
   84SOL    HW217395   1.636   3.016   0.832
   85SOL     OW17396   4.854   1.934   7.685
   85SOL    HW117397   4.893   1.998   7.745
   85SOL    HW217398   4.850   1.853   7.736
   86SOL     OW17399   2.048   4.410   0.111
   86SOL    HW117400   1.954   4.431   0.115
   86SOL    HW217401   2.090   4.493   0.091
   87SOL     OW17402   2.816   0.262   1.186
   87SOL    HW117403   2.739   0.315   1.205
   87SOL    HW217404   2.876   0.280   1.258
   88SOL     OW17405   3.238   3.857   6.124
   88SOL    HW117406   3.329   3.830   6.119
   88SOL    HW217407   3.188   3.783   6.088
   89SOL     OW17408   3.572   3.428   6.469
   89SOL    HW117409   3.627   3.403   6.543
   89SOL    HW217410   3.526   3.348   6.444
   90SOL     OW17411   0.583   6.267   0.451
   90SOL    HW117412   0.547   6.217   0.524
   90SOL    HW217413   0.678   6.256   0.459
   91SOL     OW17414   2.267   3.669   0.694
   91SOL    HW117415   2.287   3.592   0.641
   91SOL    HW217416   2.283   3.642   0.784
   92SOL     OW17417   4.613   1.361   7.703
   92SOL    HW117418   4.633   1.358   0.021
   92SOL    HW217419   4.692   1.399   7.663
   93SOL     OW17420   1.789   3.938   1.215
   93SOL    HW117421   1.826   3.937   1.126
   93SOL    HW217422   1.750   3.851   1.225
   94SOL     OW17423   0.014   2.253   1.719
   94SOL    HW117424   0.006   2.241   1.813
   94SOL    HW217425   6.463   2.340   1.702
   95SOL     OW17426   1.605   6.117   1.389
   95SOL    HW117427   1.544   6.145   1.321
   95SOL    HW217428   1.681   6.085   1.341
   96SOL     OW17429   2.899   0.211   7.027
   96SOL    HW117430   2.815   0.254   7.011
   96SOL    HW217431   2.922   0.171   6.943
   97SOL     OW17432   1.312   3.542   6.827
   97SOL    HW117433   1.265   3.517   6.748
   97SOL    HW217434   1.321   3.637   6.820
   98SOL     OW17435   2.730   1.592   7.284
   98SOL    HW117436   2.750   1.560   7.372
   98SOL    HW217437   2.736   1.515   7.228
   99SOL     OW17438   2.627   0.674   6.806
   99SOL    HW117439   2.691   0.685   6.876
   99SOL    HW217440   2.674   0.627   6.737
  100SOL     OW17441   5.561   2.963   0.852
  100SOL    HW117442   5.648   2.965   0.813
  100SOL    HW217443   5.559   2.882   0.903
  101SOL     OW17444   4.369   3.068   6.787
  101SOL    HW117445   4.343   2.991   6.837
  101SOL    HW217446   4.397   3.034   6.702
  102SOL     OW17447   1.594   1.709   0.377
  102SOL    HW117448   1.576   1.629   0.328
  102SOL    HW217449   1.625   1.772   0.312
  103SOL     OW17450   2.475   4.303   0.850
  103SOL    HW117451   2.545   4.357   0.887
  103SOL    HW217452   2.507   4.280   0.763
  104SOL     OW17453   1.107   6.460   6.185
  104SOL    HW117454   1.057   6.482   6.106
  104SOL    HW217455   1.042   6.460   6.255
  105SOL     OW17456   0.562   1.194   0.909
  105SOL    HW117457   0.515   1.181   0.991
  105SOL    HW217458   0.543   1.285   0.884
  106SOL     OW17459   0.404   0.414   6.773
  106SOL    HW117460   0.438   0.487   6.722
  106SOL    HW217461   0.326   0.449   6.818
  107SOL     OW17462   2.237   1.759   6.253
  107SOL    HW117463   2.323   1.799   6.241
  107SOL    HW217464   2.190   1.775   6.171
  108SOL     OW17465   3.916   4.755   5.409
  108SOL    HW117466   4.000   4.793   5.384
  108SOL    HW217467   3.861   4.765   5.331
  109SOL     OW17468   3.285   5.446   5.428
  109SOL    HW117469   3.262   5.502   5.503
  109SOL    HW217470   3.201   5.410   5.400
  110SOL     OW17471   4.599   4.220   0.933
  110SOL    HW117472   4.525   4.220   0.995
  110SOL    HW217473   4.577   4.152   0.870
  111SOL     OW17474   5.077   4.388   0.258
  111SOL    HW117475   5.018   4.320   0.288
  111SOL    HW217476   5.126   4.414   0.336
  112SOL     OW17477   3.200   4.920   1.190
  112SOL    HW117478   3.270   4.906   1.126
  112SOL    HW217479   3.152   4.996   1.157
  113SOL     OW17480   3.090   5.500   7.097
  113SOL    HW117481   3.183   5.513   7.076
  113SOL    HW217482   3.089   5.482   7.191
  114SOL     OW17483   3.505   0.139   0.761
  114SOL    HW117484   3.514   0.139   0.666
  114SOL    HW217485   3.580   0.191   0.792
  115SOL     OW17486   3.165   6.337   0.794
  115SOL    HW117487   3.193   6.355   0.704
  115SOL    HW217488   3.210   6.404   0.846
  116SOL     OW17489   0.889   2.567   6.808
  116SOL    HW117490   0.864   2.477   6.789
  116SOL    HW217491   0.873   2.577   6.901
  117SOL     OW17492   3.634   4.117   0.089
  117SOL    HW117493   3.615   4.119   0.182
  117SOL    HW217494   3.663   4.206   0.068
  118SOL     OW17495   4.000   3.197   0.745
  118SOL    HW117496   4.076   3.199   0.803
  118SOL    HW217497   3.968   3.287   0.744
  119SOL     OW17498   2.496   4.483   6.726
  119SOL    HW117499   2.438   4.446   6.659
  119SOL    HW217500   2.474   4.576   6.727
  120SOL     OW17501   4.476   2.251   1.398
  120SOL    HW117502   4.398   2.284   1.355
  120SOL    HW217503   4.468   2.280   1.489
  121SOL     OW17504   3.264   3.568   0.324
  121SOL    HW117505   3.287   3.646   0.273
  121SOL    HW217506   3.248   3.601   0.412
  122SOL     OW17507   0.117   5.691   7.609
  122SOL    HW117508   0.097   5.632   7.682
  122SOL    HW217509   0.162   5.765   7.650
  123SOL     OW17510   3.325   6.274   6.890
  123SOL    HW117511   3.361   6.310   6.971
  123SOL    HW217512   3.332   6.346   6.827
  124SOL     OW17513   1.511   2.045   1.860
  124SOL    HW117514   1.437   2.024   1.803
  124SOL    HW217515   1.568   2.100   1.806
  125SOL     OW17516   3.009   1.484   0.355
  125SOL    HW117517   2.989   1.570   0.393
  125SOL    HW217518   3.017   1.501   0.261
  126SOL     OW17519   1.670   4.481   2.034
  126SOL    HW117520   1.633   4.512   1.951
  126SOL    HW217521   1.758   4.519   2.036
  127SOL     OW17522   1.161   4.983   0.874
  127SOL    HW117523   1.166   4.895   0.911
  127SOL    HW217524   1.240   4.991   0.820
  128SOL     OW17525   3.428   5.714   6.044
  128SOL    HW117526   3.430   5.688   5.952
  128SOL    HW217527   3.336   5.704   6.069
  129SOL     OW17528   3.852   3.529   7.686
  129SOL    HW117529   3.840   3.610   7.637
  129SOL    HW217530   3.936   3.540   7.730
  130SOL     OW17531   3.830   1.956   1.579
  130SOL    HW117532   3.924   1.940   1.587
  130SOL    HW217533   3.819   1.994   1.492
  131SOL     OW17534   6.367   0.536   0.248
  131SOL    HW117535   6.302   0.500   0.308
  131SOL    HW217536   6.446   0.544   0.301
  132SOL     OW17537   3.130   4.565   6.918
  132SOL    HW117538   3.037   4.571   6.895
  132SOL    HW217539   3.174   4.545   6.835
  133SOL     OW17540   0.079   1.682   1.217
  133SOL    HW117541   0.137   1.689   1.141
  133SOL    HW217542   0.006   1.740   1.197
  134SOL     OW17543   1.830   4.623   7.475
  134SOL    HW117544   1.765   4.597   7.410
  134SOL    HW217545   1.847   4.715   7.456
  135SOL     OW17546   2.781   1.048   1.158
  135SOL    HW117547   2.758   1.135   1.125
  135SOL    HW217548   2.698   1.001   1.160
  136SOL     OW17549   0.388   1.306   0.457
  136SOL    HW117550   0.420   1.252   0.529
  136SOL    HW217551   0.453   1.377   0.451
  137SOL     OW17552   5.086   4.916   6.144
  137SOL    HW117553   5.115   4.863   6.070
  137SOL    HW217554   5.083   4.855   6.218
  138SOL     OW17555   4.006   0.005   0.715
  138SOL    HW117556   4.092   0.006   0.758
  138SOL    HW217557   3.944   0.014   0.787
  139SOL     OW17558   4.340   4.166   5.747
  139SOL    HW117559   4.433   4.183   5.764
  139SOL    HW217560   4.330   4.178   5.653
  140SOL     OW17561   1.936   4.012   5.320
  140SOL    HW117562   1.897   3.940   5.369
  140SOL    HW217563   2.022   3.980   5.293
  141SOL     OW17564   5.588   1.002   6.386
  141SOL    HW117565   5.517   1.017   6.324
  141SOL    HW217566   5.663   0.976   6.331
  142SOL     OW17567   4.851   5.755   0.938
  142SOL    HW117568   4.824   5.747   1.029
  142SOL    HW217569   4.780   5.805   0.897
  143SOL     OW17570   2.358   6.298   6.908
  143SOL    HW117571   2.443   6.283   6.949
  143SOL    HW217572   2.296   6.253   6.965
  144SOL     OW17573   4.176   2.589   1.972
  144SOL    HW117574   4.266   2.560   1.960
  144SOL    HW217575   4.152   2.559   2.060
  145SOL     OW17576   0.917   0.563   0.509
  145SOL    HW117577   0.926   0.564   0.605
  145SOL    HW217578   0.886   0.651   0.487
  146SOL     OW17579   3.822   5.022   5.852
  146SOL    HW117580   3.826   4.932   5.818
  146SOL    HW217581   3.730   5.047   5.842
  147SOL     OW17582   5.690   3.131   6.289
  147SOL    HW117583   5.668   3.224   6.295
  147SOL    HW217584   5.740   3.114   6.368
  148SOL     OW17585   0.415   4.153   1.490
  148SOL    HW117586   0.455   4.095   1.555
  148SOL    HW217587   0.354   4.097   1.442
  149SOL     OW17588   4.605   2.058   7.711
  149SOL    HW117589   4.700   2.062   7.718
  149SOL    HW217590   4.584   1.964   7.720
  150SOL     OW17591   2.508   3.504   0.262
  150SOL    HW117592   2.484   3.484   0.171
  150SOL    HW217593   2.432   3.478   0.313
  151SOL     OW17594   4.216   4.987   6.231
  151SOL    HW117595   4.233   5.080   6.215
  151SOL    HW217596   4.128   4.973   6.196
  152SOL     OW17597   0.257   5.204   0.101
  152SOL    HW117598   0.238   5.224   0.193
  152SOL    HW217599   0.235   5.112   0.091
  153SOL     OW17600   2.560   1.881   0.020
  153SOL    HW117601   2.605   1.829   7.728
  153SOL    HW217602   2.508   1.817   0.069
  154SOL     OW17603   6.475   5.759   6.120
  154SOL    HW117604   6.446   5.790   6.034
  154SOL    HW217605   6.434   5.672   6.129
  155SOL     OW17606   0.999   5.147   1.009
  155SOL    HW117607   1.055   5.097   0.950
  155SOL    HW217608   0.911   5.132   0.976
  156SOL     OW17609   5.639   1.870   1.397
  156SOL    HW117610   5.601   1.842   1.314
  156SOL    HW217611   5.590   1.949   1.421
  157SOL     OW17612   6.456   1.747   1.791
  157SOL    HW117613   6.387   1.783   1.735
  157SOL    HW217614   0.011   1.824   1.830
  158SOL     OW17615   2.945   2.227   6.684
  158SOL    HW117616   3.003   2.301   6.697
  158SOL    HW217617   2.873   2.261   6.631
  159SOL     OW17618   4.315   2.470   6.744
  159SOL    HW117619   4.364   2.481   6.662
  159SOL    HW217620   4.269   2.387   6.733
  160SOL     OW17621   1.102   2.629   1.471
  160SOL    HW117622   1.117   2.717   1.435
  160SOL    HW217623   1.078   2.644   1.562
  161SOL     OW17624   1.608   4.317   7.381
  161SOL    HW117625   1.624   4.410   7.366
  161SOL    HW217626   1.515   4.305   7.362
  162SOL     OW17627   6.331   6.428   2.141
  162SOL    HW117628   6.250   6.439   2.191
  162SOL    HW217629   6.376   6.356   2.184
  163SOL     OW17630   2.522   5.849   5.946
  163SOL    HW117631   2.594   5.809   5.898
  163SOL    HW217632   2.476   5.902   5.881
  164SOL     OW17633   0.701   1.485   7.180
  164SOL    HW117634   0.751   1.527   7.250
  164SOL    HW217635   0.712   1.391   7.195
  165SOL     OW17636   5.012   2.874   5.711
  165SOL    HW117637   4.960   2.863   5.631
  165SOL    HW217638   5.027   2.969   5.717
  166SOL     OW17639   3.370   4.137   6.539
  166SOL    HW117640   3.277   4.115   6.539
  166SOL    HW217641   3.379   4.207   6.474
  167SOL     OW17642   3.855   6.306   2.357
  167SOL    HW117643   3.880   6.372   2.422
  167SOL    HW217644   3.928   6.243   2.358
  168SOL     OW17645   3.806   2.335   6.459
  168SOL    HW117646   3.866   2.261   6.467
  168SOL    HW217647   3.734   2.301   6.406
  169SOL     OW17648   5.928   2.640   2.129
  169SOL    HW117649   5.945   2.728   2.164
  169SOL    HW217650   5.849   2.651   2.075
  170SOL     OW17651   3.122   0.039   7.112
  170SOL    HW117652   3.026   0.038   7.104
  170SOL    HW217653   3.152   0.087   7.035
  171SOL     OW17654   1.221   0.932   5.966
  171SOL    HW117655   1.208   0.848   5.921
  171SOL    HW217656   1.284   0.979   5.913
  172SOL     OW17657   0.553   3.410   7.037
  172SOL    HW117658   0.565   3.337   7.098
  172SOL    HW217659   0.636   3.458   7.041
  173SOL     OW17660   2.740   4.228   5.974
  173SOL    HW117661   2.786   4.183   5.904
  173SOL    HW217662   2.799   4.223   6.049
  174SOL     OW17663   3.988   5.667   1.197
  174SOL    HW117664   4.054   5.607   1.162
  174SOL    HW217665   4.018   5.686   1.286
  175SOL     OW17666   6.287   3.011   6.501
  175SOL    HW117667   6.192   3.015   6.516
  175SOL    HW217668   6.325   3.008   6.589
  176SOL     OW17669   6.417   1.533   0.915
  176SOL    HW117670   0.009   1.479   0.907
  176SOL    HW217671   6.344   1.473   0.898
  177SOL     OW17672   1.823   5.424   7.567
  177SOL    HW117673   1.903   5.371   7.564
  177SOL    HW217674   1.758   5.372   7.520
  178SOL     OW17675   5.774   2.094   1.636
  178SOL    HW117676   5.827   2.035   1.582
  178SOL    HW217677   5.837   2.133   1.697
  179SOL     OW17678   5.729   5.904   6.191
  179SOL    HW117679   5.676   5.966   6.242
  179SOL    HW217680   5.731   5.940   6.103
  180SOL     OW17681   2.312   1.253   7.747
  180SOL    HW117682   2.233   1.244   0.024
  180SOL    HW217683   2.325   1.348   7.738
  181SOL     OW17684   2.654   3.448   1.721
  181SOL    HW117685   2.561   3.425   1.729
  181SOL    HW217686   2.689   3.437   1.810
  182SOL     OW17687   1.705   4.056   7.276
  182SOL    HW117688   1.684   4.114   7.349
  182SOL    HW217689   1.733   4.114   7.205
  183SOL     OW17690   5.762   2.997   1.339
  183SOL    HW117691   5.672   2.968   1.324
  183SOL    HW217692   5.766   3.014   1.433
  184SOL     OW17693   1.124   0.558   1.943
  184SOL    HW117694   1.050   0.507   1.911
  184SOL    HW217695   1.146   0.617   1.871
  185SOL     OW17696   3.085   4.499   5.619
  185SOL    HW117697   3.066   4.463   5.532
  185SOL    HW217698   3.084   4.594   5.607
  186SOL     OW17699   2.870   0.010   7.289
  186SOL    HW117700   2.894   0.090   7.241
  186SOL    HW217701   2.787   0.032   7.332
  187SOL     OW17702   1.273   3.023   5.761
  187SOL    HW117703   1.279   3.033   5.666
  187SOL    HW217704   1.204   3.083   5.788
  188SOL     OW17705   4.164   3.657   7.652
  188SOL    HW117706   4.205   3.598   7.715
  188SOL    HW217707   4.138   3.601   7.579
  189SOL     OW17708   0.030   5.883   6.648
  189SOL    HW117709   0.007   5.897   6.740
  189SOL    HW217710   6.440   5.839   6.611
  190SOL     OW17711   0.269   4.571   1.598
  190SOL    HW117712   0.350   4.616   1.573
  190SOL    HW217713   0.273   4.564   1.693
  191SOL     OW17714   6.260   2.825   6.079
  191SOL    HW117715   6.324   2.831   6.008
  191SOL    HW217716   6.186   2.776   6.041
  192SOL     OW17717   2.627   1.100   6.197
  192SOL    HW117718   2.638   1.185   6.240
  192SOL    HW217719   2.558   1.056   6.247
  193SOL     OW17720   3.061   3.510   2.171
  193SOL    HW117721   3.145   3.484   2.209
  193SOL    HW217722   2.997   3.451   2.211
  194SOL     OW17723   3.988   3.032   6.277
  194SOL    HW117724   4.060   2.969   6.288
  194SOL    HW217725   4.021   3.094   6.212
  195SOL     OW17726   6.129   5.972   6.715
  195SOL    HW117727   6.051   5.938   6.759
  195SOL    HW217728   6.131   6.064   6.738
  196SOL     OW17729   1.070   6.122   7.221
  196SOL    HW117730   1.089   6.214   7.242
  196SOL    HW217731   1.131   6.100   7.151
  197SOL     OW17732   0.676   1.812   0.343
  197SOL    HW117733   0.718   1.896   0.361
  197SOL    HW217734   0.645   1.782   0.429
  198SOL     OW17735   3.598   5.245   0.388
  198SOL    HW117736   3.588   5.264   0.294
  198SOL    HW217737   3.535   5.304   0.430
  199SOL     OW17738   6.091   2.977   7.476
  199SOL    HW117739   6.094   2.981   7.572
  199SOL    HW217740   6.067   2.886   7.457
  200SOL     OW17741   1.369   4.850   7.238
  200SOL    HW117742   1.313   4.859   7.161
  200SOL    HW217743   1.324   4.788   7.294
  201SOL     OW17744   4.051   3.743   0.960
  201SOL    HW117745   4.054   3.736   1.056
  201SOL    HW217746   3.970   3.791   0.942
  202SOL     OW17747   5.117   3.817   1.112
  202SOL    HW117748   5.051   3.868   1.160
  202SOL    HW217749   5.106   3.727   1.144
  203SOL     OW17750   6.293   2.348   0.152
  203SOL    HW117751   6.335   2.421   0.198
  203SOL    HW217752   6.350   2.273   0.170
  204SOL     OW17753   4.265   5.211   0.250
  204SOL    HW117754   4.295   5.257   0.172
  204SOL    HW217755   4.198   5.150   0.219
  205SOL     OW17756   1.052   2.300   1.143
  205SOL    HW117757   1.079   2.247   1.218
  205SOL    HW217758   1.078   2.389   1.166
  206SOL     OW17759   3.960   0.213   7.239
  206SOL    HW117760   4.015   0.265   7.299
  206SOL    HW217761   4.023   0.171   7.181
  207SOL     OW17762   5.966   3.933   5.920
  207SOL    HW117763   5.943   3.906   5.831
  207SOL    HW217764   5.997   4.023   5.910
  208SOL     OW17765   4.230   3.572   0.528
  208SOL    HW117766   4.179   3.563   0.608
  208SOL    HW217767   4.251   3.483   0.502
  209SOL     OW17768   0.531   3.575   1.093
  209SOL    HW117769   0.440   3.548   1.105
  209SOL    HW217770   0.582   3.512   1.143
  210SOL     OW17771   3.071   5.647   5.859
  210SOL    HW117772   2.985   5.620   5.890
  210SOL    HW217773   3.106   5.701   5.931
  211SOL     OW17774   2.583   0.445   0.224
  211SOL    HW117775   2.524   0.453   0.148
  211SOL    HW217776   2.525   0.448   0.300
  212SOL     OW17777   0.454   2.818   5.809
  212SOL    HW117778   0.441   2.909   5.784
  212SOL    HW217779   0.479   2.774   5.728
  213SOL     OW17780   5.330   1.050   0.172
  213SOL    HW117781   5.333   1.036   0.266
  213SOL    HW217782   5.413   1.094   0.151
  214SOL     OW17783   4.182   2.472   1.608
  214SOL    HW117784   4.256   2.483   1.668
  214SOL    HW217785   4.168   2.378   1.603
  215SOL     OW17786   3.177   4.252   1.301
  215SOL    HW117787   3.195   4.342   1.328
  215SOL    HW217788   3.246   4.200   1.341
  216SOL     OW17789   6.227   2.433   1.080
  216SOL    HW117790   6.297   2.380   1.118
  216SOL    HW217791   6.220   2.508   1.140
  217SOL     OW17792   1.050   3.208   6.164
  217SOL    HW117793   1.132   3.170   6.194
  217SOL    HW217794   1.005   3.138   6.118
  218SOL     OW17795   5.685   2.904   7.663
  218SOL    HW117796   5.767   2.860   7.644
  218SOL    HW217797   5.706   2.965   7.734
  219SOL     OW17798   1.631   5.958   0.235
  219SOL    HW117799   1.537   5.957   0.216
  219SOL    HW217800   1.669   6.010   0.164
  220SOL     OW17801   0.742   1.599   1.962
  220SOL    HW117802   0.835   1.599   1.985
  220SOL    HW217803   0.711   1.687   1.984
  221SOL     OW17804   2.595   0.943   6.777
  221SOL    HW117805   2.671   0.967   6.831
  221SOL    HW217806   2.597   0.848   6.773
  222SOL     OW17807   5.964   0.986   0.335
  222SOL    HW117808   5.886   0.969   0.283
  222SOL    HW217809   5.956   1.078   0.360
  223SOL     OW17810   4.669   0.265   2.063
  223SOL    HW117811   4.749   0.306   2.030
  223SOL    HW217812   4.690   0.242   2.154
  224SOL     OW17813   1.812   2.889   7.050
  224SOL    HW117814   1.796   2.805   7.094
  224SOL    HW217815   1.757   2.885   6.971
  225SOL     OW17816   1.389   3.013   7.516
  225SOL    HW117817   1.294   3.022   7.515
  225SOL    HW217818   1.403   2.919   7.530
  226SOL     OW17819   4.040   6.113   5.863
  226SOL    HW117820   4.042   6.113   5.768
  226SOL    HW217821   3.970   6.052   5.886
  227SOL     OW17822   3.002   5.339   5.854
  227SOL    HW117823   2.960   5.374   5.775
  227SOL    HW217824   2.984   5.245   5.850
  228SOL     OW17825   4.252   2.591   7.359
  228SOL    HW117826   4.284   2.606   7.448
  228SOL    HW217827   4.329   2.559   7.312
  229SOL     OW17828   0.896   3.806   0.256
  229SOL    HW117829   0.834   3.818   0.328
  229SOL    HW217830   0.842   3.805   0.177
  230SOL     OW17831   4.576   0.749   0.696
  230SOL    HW117832   4.650   0.794   0.655
  230SOL    HW217833   4.528   0.709   0.622
  231SOL     OW17834   0.268   6.244   0.340
  231SOL    HW117835   0.338   6.201   0.389
  231SOL    HW217836   0.286   6.225   0.249
  232SOL     OW17837   4.835   2.761   6.202
  232SOL    HW117838   4.899   2.722   6.261
  232SOL    HW217839   4.885   2.781   6.123
  233SOL     OW17840   2.623   3.769   0.410
  233SOL    HW117841   2.645   3.852   0.369
  233SOL    HW217842   2.563   3.726   0.349
  234SOL     OW17843   2.668   2.403   1.303
  234SOL    HW117844   2.732   2.472   1.320
  234SOL    HW217845   2.609   2.405   1.379
  235SOL     OW17846   1.423   4.281   0.059
  235SOL    HW117847   1.385   4.230   0.130
  235SOL    HW217848   1.363   4.354   0.047
  236SOL     OW17849   2.897   3.177   7.287
  236SOL    HW117850   2.885   3.211   7.199
  236SOL    HW217851   2.965   3.233   7.325
  237SOL     OW17852   1.291   0.685   6.141
  237SOL    HW117853   1.200   0.682   6.168
  237SOL    HW217854   1.327   0.761   6.187
  238SOL     OW17855   4.567   4.951   6.465
  238SOL    HW117856   4.587   5.031   6.513
  238SOL    HW217857   4.589   4.880   6.525
  239SOL     OW17858   6.331   4.273   1.210
  239SOL    HW117859   6.382   4.332   1.155
  239SOL    HW217860   6.317   4.195   1.155
  240SOL     OW17861   2.155   3.870   5.210
  240SOL    HW117862   2.198   3.792   5.245
  240SOL    HW217863   2.199   3.887   5.127
  241SOL     OW17864   5.501   4.288   0.314
  241SOL    HW117865   5.549   4.290   0.231
  241SOL    HW217866   5.569   4.288   0.381
  242SOL     OW17867   5.254   3.542   7.332
  242SOL    HW117868   5.296   3.625   7.356
  242SOL    HW217869   5.211   3.560   7.249
  243SOL     OW17870   0.374   1.065   6.075
  243SOL    HW117871   0.465   1.038   6.063
  243SOL    HW217872   0.379   1.159   6.093
  244SOL     OW17873   4.601   6.471   7.248
  244SOL    HW117874   4.594   0.010   7.340
  244SOL    HW217875   4.546   0.048   7.202
  245SOL     OW17876   5.473   2.011   0.922
  245SOL    HW117877   5.415   2.045   0.990
  245SOL    HW217878   5.503   2.088   0.873
  246SOL     OW17879   2.376   6.208   5.933
  246SOL    HW117880   2.362   6.141   5.866
  246SOL    HW217881   2.440   6.267   5.895
  247SOL     OW17882   3.696   4.202   6.524
  247SOL    HW117883   3.749   4.210   6.603
  247SOL    HW217884   3.625   4.264   6.536
  248SOL     OW17885   5.605   3.907   5.569
  248SOL    HW117886   5.612   3.814   5.546
  248SOL    HW217887   5.527   3.912   5.625
  249SOL     OW17888   5.131   0.839   0.811
  249SOL    HW117889   5.126   0.855   0.716
  249SOL    HW217890   5.153   0.746   0.818
  250SOL     OW17891   1.249   4.815   5.910
  250SOL    HW117892   1.176   4.876   5.912
  250SOL    HW217893   1.263   4.791   6.002
  251SOL     OW17894   2.709   0.764   6.356
  251SOL    HW117895   2.754   0.682   6.376
  251SOL    HW217896   2.645   0.741   6.289
  252SOL     OW17897   1.960   3.503   5.169
  252SOL    HW117898   1.891   3.537   5.225
  252SOL    HW217899   1.963   3.563   5.095
  253SOL     OW17900   0.929   6.108   5.786
  253SOL    HW117901   0.901   6.177   5.846
  253SOL    HW217902   1.002   6.065   5.832
  254SOL     OW17903   4.014   2.619   7.022
  254SOL    HW117904   4.101   2.656   7.038
  254SOL    HW217905   3.995   2.568   7.101
  255SOL     OW17906   6.196   5.444   0.599
  255SOL    HW117907   6.162   5.442   0.688
  255SOL    HW217908   6.199   5.536   0.576
  256SOL     OW17909   4.305   2.384   1.255
  256SOL    HW117910   4.321   2.465   1.303
  256SOL    HW217911   4.274   2.412   1.170
  257SOL     OW17912   3.699   1.303   6.521
  257SOL    HW117913   3.653   1.387   6.528
  257SOL    HW217914   3.785   1.320   6.559
  258SOL     OW17915   5.305   0.802   6.269
  258SOL    HW117916   5.360   0.755   6.206
  258SOL    HW217917   5.330   0.894   6.260
  259SOL     OW17918   5.791   1.883   6.685
  259SOL    HW117919   5.824   1.822   6.750
  259SOL    HW217920   5.744   1.949   6.737
  260SOL     OW17921   5.908   0.319   6.923
  260SOL    HW117922   5.816   0.294   6.932
  260SOL    HW217923   5.916   0.400   6.974
  261SOL     OW17924   3.681   5.442   5.882
  261SOL    HW117925   3.699   5.525   5.836
  261SOL    HW217926   3.742   5.380   5.843
  262SOL     OW17927   5.758   5.556   1.058
  262SOL    HW117928   5.759   5.548   1.153
  262SOL    HW217929   5.679   5.607   1.039
  263SOL     OW17930   6.209   1.665   6.505
  263SOL    HW117931   6.282   1.609   6.532
  263SOL    HW217932   6.227   1.684   6.413
  264SOL     OW17933   5.386   2.591   6.481
  264SOL    HW117934   5.458   2.599   6.417
  264SOL    HW217935   5.425   2.543   6.554
  265SOL     OW17936   5.149   2.334   0.483
  265SOL    HW117937   5.130   2.421   0.516
  265SOL    HW217938   5.242   2.320   0.502
  266SOL     OW17939   1.703   0.094   0.689
  266SOL    HW117940   1.702   0.190   0.695
  266SOL    HW217941   1.715   0.064   0.779
  267SOL     OW17942   3.158   4.296   6.140
  267SOL    HW117943   3.179   4.355   6.068
  267SOL    HW217944   3.204   4.332   6.215
  268SOL     OW17945   4.723   0.279   1.428
  268SOL    HW117946   4.725   0.246   1.338
  268SOL    HW217947   4.773   0.214   1.478
  269SOL     OW17948   0.598   1.200   5.742
  269SOL    HW117949   0.624   1.281   5.697
  269SOL    HW217950   0.673   1.142   5.731
  270SOL     OW17951   3.104   4.524   0.507
  270SOL    HW117952   3.151   4.442   0.518
  270SOL    HW217953   3.040   4.507   0.438
  271SOL     OW17954   0.865   4.721   6.131
  271SOL    HW117955   0.858   4.710   6.036
  271SOL    HW217956   0.852   4.814   6.146
  272SOL     OW17957   1.137   3.498   6.137
  272SOL    HW117958   1.098   3.412   6.120
  272SOL    HW217959   1.100   3.524   6.221
  273SOL     OW17960   4.544   1.861   5.984
  273SOL    HW117961   4.588   1.903   5.909
  273SOL    HW217962   4.603   1.789   6.009
  274SOL     OW17963   1.365   4.462   7.245
  274SOL    HW117964   1.346   4.375   7.279
  274SOL    HW217965   1.280   4.506   7.243
  275SOL     OW17966   6.097   2.393   6.566
  275SOL    HW117967   6.187   2.425   6.568
  275SOL    HW217968   6.097   2.325   6.499
  276SOL     OW17969   6.374   1.048   6.139
  276SOL    HW117970   6.335   0.987   6.077
  276SOL    HW217971   6.361   1.134   6.099
  277SOL     OW17972   5.082   0.780   0.386
  277SOL    HW117973   5.005   0.767   0.331
  277SOL    HW217974   5.066   0.727   0.464
  278SOL     OW17975   3.089   1.404   0.639
  278SOL    HW117976   3.094   1.447   0.553
  278SOL    HW217977   3.164   1.439   0.687
  279SOL     OW17978   5.800   0.243   1.615
  279SOL    HW117979   5.768   0.284   1.696
  279SOL    HW217980   5.863   0.178   1.644
  280SOL     OW17981   2.444   5.936   6.485
  280SOL    HW117982   2.497   5.957   6.409
  280SOL    HW217983   2.499   5.960   6.560
  281SOL     OW17984   1.331   1.613   0.033
  281SOL    HW117985   1.386   1.583   7.736
  281SOL    HW217986   1.281   1.535   0.058
  282SOL     OW17987   4.568   4.020   1.909
  282SOL    HW117988   4.568   4.086   1.840
  282SOL    HW217989   4.622   3.949   1.875
  283SOL     OW17990   5.775   5.101   1.303
  283SOL    HW117991   5.833   5.171   1.274
  283SOL    HW217992   5.818   5.064   1.380
  284SOL     OW17993   4.145   6.457   0.333
  284SOL    HW117994   4.054   6.462   0.363
  284SOL    HW217995   4.196   6.452   0.414
  285SOL     OW17996   3.996   0.285   1.184
  285SOL    HW117997   4.020   0.355   1.123
  285SOL    HW217998   4.068   0.284   1.248
  286SOL     OW17999   6.112   1.942   0.576
  286SOL    HW118000   6.188   1.886   0.593
  286SOL    HW218001   6.037   1.882   0.576
  287SOL     OW18002   2.987   5.794   7.050
  287SOL    HW118003   3.041   5.755   7.118
  287SOL    HW218004   2.912   5.830   7.096
  288SOL     OW18005   1.721   4.612   5.883
  288SOL    HW118006   1.762   4.631   5.968
  288SOL    HW218007   1.668   4.534   5.899
  289SOL     OW18008   1.773   4.523   5.353
  289SOL    HW118009   1.829   4.599   5.369
  289SOL    HW218010   1.702   4.556   5.298
  290SOL     OW18011   1.224   3.470   6.558
  290SOL    HW118012   1.287   3.500   6.493
  290SOL    HW218013   1.161   3.542   6.565
  291SOL     OW18014   3.986   4.166   0.856
  291SOL    HW118015   4.071   4.202   0.833
  291SOL    HW218016   3.935   4.241   0.886
  292SOL     OW18017   6.320   3.872   2.391
  292SOL    HW118018   6.291   3.803   2.332
  292SOL    HW218019   6.415   3.862   2.395
  293SOL     OW18020   0.510   0.376   0.717
  293SOL    HW118021   0.551   0.432   0.651
  293SOL    HW218022   0.461   0.312   0.666
  294SOL     OW18023   5.156   1.969   5.775
  294SOL    HW118024   5.064   1.978   5.800
  294SOL    HW218025   5.171   1.874   5.772
  295SOL     OW18026   2.393   3.675   5.066
  295SOL    HW118027   2.367   3.760   5.029
  295SOL    HW218028   2.322   3.652   5.126
  296SOL     OW18029   6.409   4.244   7.481
  296SOL    HW118030   6.397   4.254   7.387
  296SOL    HW218031   6.470   4.314   7.505
  297SOL     OW18032   5.233   0.209   1.135
  297SOL    HW118033   5.277   0.263   1.200
  297SOL    HW218034   5.289   0.132   1.125
  298SOL     OW18035   4.744   4.060   1.137
  298SOL    HW118036   4.668   4.057   1.194
  298SOL    HW218037   4.725   4.131   1.076
  299SOL     OW18038   2.292   2.537   6.721
  299SOL    HW118039   2.219   2.565   6.777
  299SOL    HW218040   2.283   2.591   6.643
  300SOL     OW18041   3.146   5.337   1.324
  300SOL    HW118042   3.223   5.364   1.274
  300SOL    HW218043   3.155   5.381   1.408
  301SOL     OW18044   5.739   3.397   1.764
  301SOL    HW118045   5.784   3.451   1.699
  301SOL    HW218046   5.667   3.453   1.795
  302SOL     OW18047   4.998   4.015   7.082
  302SOL    HW118048   4.909   3.984   7.099
  302SOL    HW218049   5.006   4.015   6.986
  303SOL     OW18050   4.386   1.582   0.983
  303SOL    HW118051   4.460   1.584   0.921
  303SOL    HW218052   4.414   1.639   1.055
  304SOL     OW18053   2.453   1.285   5.716
  304SOL    HW118054   2.411   1.345   5.654
  304SOL    HW218055   2.388   1.218   5.733
  305SOL     OW18056   0.320   1.051   1.476
  305SOL    HW118057   0.320   1.000   1.557
  305SOL    HW218058   0.243   1.021   1.428
  306SOL     OW18059   5.747   5.868   0.147
  306SOL    HW118060   5.814   5.808   0.115
  306SOL    HW218061   5.780   5.900   0.231
  307SOL     OW18062   1.690   4.542   6.192
  307SOL    HW118063   1.651   4.463   6.228
  307SOL    HW218064   1.615   4.600   6.175
  308SOL     OW18065   1.473   6.435   6.619
  308SOL    HW118066   1.558   6.459   6.656
  308SOL    HW218067   1.448   0.024   6.566
  309SOL     OW18068   1.579   3.342   6.552
  309SOL    HW118069   1.624   3.416   6.593
  309SOL    HW218070   1.577   3.363   6.458
  310SOL     OW18071   5.870   0.725   1.594
  310SOL    HW118072   5.786   0.696   1.558
  310SOL    HW218073   5.896   0.654   1.653
  311SOL     OW18074   2.616   5.783   1.981
  311SOL    HW118075   2.709   5.779   1.958
  311SOL    HW218076   2.615   5.779   2.077
  312SOL     OW18077   3.653   1.719   7.315
  312SOL    HW118078   3.705   1.753   7.242
  312SOL    HW218079   3.574   1.775   7.315
  313SOL     OW18080   2.657   6.074   5.646
  313SOL    HW118081   2.709   6.097   5.569
  313SOL    HW218082   2.720   6.045   5.711
  314SOL     OW18083   6.077   5.045   6.159
  314SOL    HW118084   6.115   5.126   6.125
  314SOL    HW218085   6.127   4.976   6.116
  315SOL     OW18086   0.721   6.311   7.066
  315SOL    HW118087   0.754   6.254   6.997
  315SOL    HW218088   0.759   6.276   7.147
  316SOL     OW18089   0.574   1.708   1.291
  316SOL    HW118090   0.641   1.774   1.309
  316SOL    HW218091   0.584   1.687   1.198
  317SOL     OW18092   1.146   5.668   7.063
  317SOL    HW118093   1.234   5.698   7.085
  317SOL    HW218094   1.125   5.603   7.130
  318SOL     OW18095   0.415   5.546   7.555
  318SOL    HW118096   0.350   5.489   7.597
  318SOL    HW218097   0.363   5.600   7.495
  319SOL     OW18098   3.736   5.630   5.706
  319SOL    HW118099   3.769   5.717   5.685
  319SOL    HW218100   3.716   5.591   5.620
  320SOL     OW18101   5.135   5.887   6.905
  320SOL    HW118102   5.193   5.943   6.854
  320SOL    HW218103   5.165   5.798   6.886
  321SOL     OW18104   2.940   0.915   7.291
  321SOL    HW118105   2.891   0.977   7.236
  321SOL    HW218106   2.943   0.957   7.377
  322SOL     OW18107   1.862   6.437   1.349
  322SOL    HW118108   1.879   6.417   1.441
  322SOL    HW218109   1.844   6.352   1.309
  323SOL     OW18110   3.276   5.949   0.493
  323SOL    HW118111   3.225   6.023   0.526
  323SOL    HW218112   3.342   5.934   0.561
  324SOL     OW18113   6.102   3.150   0.511
  324SOL    HW118114   6.121   3.244   0.514
  324SOL    HW218115   6.049   3.133   0.588
  325SOL     OW18116   1.256   5.488   6.683
  325SOL    HW118117   1.236   5.398   6.656
  325SOL    HW218118   1.213   5.543   6.618
  326SOL     OW18119   5.416   5.327   1.963
  326SOL    HW118120   5.408   5.418   1.933
  326SOL    HW218121   5.495   5.326   2.017
  327SOL     OW18122   4.840   6.254   2.313
  327SOL    HW118123   4.784   6.331   2.307
  327SOL    HW218124   4.816   6.214   2.396
  328SOL     OW18125   5.621   2.508   0.731
  328SOL    HW118126   5.669   2.583   0.695
  328SOL    HW218127   5.571   2.545   0.804
  329SOL     OW18128   1.157   5.026   1.882
  329SOL    HW118129   1.203   5.028   1.966
  329SOL    HW218130   1.226   5.033   1.816
  330SOL     OW18131   5.806   2.203   6.418
  330SOL    HW118132   5.713   2.184   6.418
  330SOL    HW218133   5.817   2.270   6.351
  331SOL     OW18134   3.899   3.871   0.554
  331SOL    HW118135   3.897   3.962   0.583
  331SOL    HW218136   3.948   3.825   0.623
  332SOL     OW18137   5.155   2.169   0.749
  332SOL    HW118138   5.088   2.194   0.685
  332SOL    HW218139   5.164   2.074   0.739
  333SOL     OW18140   6.142   3.440   1.383
  333SOL    HW118141   6.127   3.495   1.460
  333SOL    HW218142   6.237   3.428   1.381
  334SOL     OW18143   3.132   1.634   6.741
  334SOL    HW118144   3.068   1.682   6.690
  334SOL    HW218145   3.185   1.587   6.676
  335SOL     OW18146   3.312   5.715   1.409
  335SOL    HW118147   3.270   5.791   1.370
  335SOL    HW218148   3.391   5.702   1.357
  336SOL     OW18149   2.001   5.966   6.964
  336SOL    HW118150   1.985   5.935   7.053
  336SOL    HW218151   1.978   6.059   6.967
  337SOL     OW18152   3.655   2.523   1.792
  337SOL    HW118153   3.701   2.443   1.769
  337SOL    HW218154   3.725   2.586   1.811
  338SOL     OW18155   0.450   0.235   7.705
  338SOL    HW118156   0.481   0.316   7.745
  338SOL    HW218157   0.520   0.210   7.644
  339SOL     OW18158   0.287   1.964   0.885
  339SOL    HW118159   0.267   1.999   0.971
  339SOL    HW218160   0.207   1.977   0.834
  340SOL     OW18161   2.980   1.700   1.684
  340SOL    HW118162   2.939   1.619   1.715
  340SOL    HW218163   3.065   1.702   1.729
  341SOL     OW18164   6.103   4.479   6.308
  341SOL    HW118165   6.093   4.527   6.226
  341SOL    HW218166   6.055   4.531   6.372
  342SOL     OW18167   0.986   6.073   1.064
  342SOL    HW118168   0.971   6.091   0.971
  342SOL    HW218169   1.038   5.993   1.066
  343SOL     OW18170   3.534   4.851   7.731
  343SOL    HW118171   3.439   4.858   7.719
  343SOL    HW218172   3.550   4.894   0.039
  344SOL     OW18173   1.459   0.680   7.768
  344SOL    HW118174   1.440   0.720   7.683
  344SOL    HW218175   1.500   0.596   7.747
  345SOL     OW18176   2.710   5.706   0.974
  345SOL    HW118177   2.674   5.656   0.900
  345SOL    HW218178   2.791   5.661   0.996
  346SOL     OW18179   0.288   5.493   2.083
  346SOL    HW118180   0.205   5.445   2.087
  346SOL    HW218181   0.339   5.457   2.155
  347SOL     OW18182   3.466   3.331   7.624
  347SOL    HW118183   3.429   3.247   7.653
  347SOL    HW218184   3.451   3.390   7.698
  348SOL     OW18185   1.914   3.694   4.939
  348SOL    HW118186   1.905   3.789   4.949
  348SOL    HW218187   1.835   3.667   4.892
  349SOL     OW18188   2.221   5.042   0.765
  349SOL    HW118189   2.129   5.041   0.736
  349SOL    HW218190   2.225   4.975   0.833
  350SOL     OW18191   3.218   4.293   0.523
  350SOL    HW118192   3.166   4.213   0.520
  350SOL    HW218193   3.286   4.276   0.588
  351SOL     OW18194   5.444   2.360   0.525
  351SOL    HW118195   5.471   2.419   0.595
  351SOL    HW218196   5.504   2.379   0.453
  352SOL     OW18197   0.582   0.043   7.042
  352SOL    HW118198   0.631   0.124   7.063
  352SOL    HW218199   0.647   6.460   7.050
  353SOL     OW18200   1.690   3.359   0.854
  353SOL    HW118201   1.600   3.328   0.842
  353SOL    HW218202   1.739   3.280   0.878
  354SOL     OW18203   1.586   6.351   0.502
  354SOL    HW118204   1.546   6.327   0.419
  354SOL    HW218205   1.649   6.420   0.479
  355SOL     OW18206   0.935   0.860   6.825
  355SOL    HW118207   1.008   0.798   6.824
  355SOL    HW218208   0.938   0.902   6.739
  356SOL     OW18209   5.006   6.356   7.410
  356SOL    HW118210   4.983   6.439   7.369
  356SOL    HW218211   4.932   6.298   7.392
  357SOL     OW18212   0.812   5.013   6.103
  357SOL    HW118213   0.760   5.005   6.023
  357SOL    HW218214   0.747   5.016   6.174
  358SOL     OW18215   2.298   5.185   5.612
  358SOL    HW118216   2.352   5.129   5.556
  358SOL    HW218217   2.337   5.272   5.603
  359SOL     OW18218   2.871   6.006   1.046
  359SOL    HW118219   2.859   5.913   1.029
  359SOL    HW218220   2.959   6.025   1.014
  360SOL     OW18221   2.884   3.279   0.436
  360SOL    HW118222   2.837   3.353   0.476
  360SOL    HW218223   2.976   3.306   0.438
  361SOL     OW18224   3.139   0.546   0.392
  361SOL    HW118225   3.123   0.461   0.434
  361SOL    HW218226   3.143   0.608   0.464
  362SOL     OW18227   4.416   5.485   6.430
  362SOL    HW118228   4.499   5.521   6.461
  362SOL    HW218229   4.360   5.483   6.508
  363SOL     OW18230   2.675   4.168   6.867
  363SOL    HW118231   2.701   4.227   6.796
  363SOL    HW218232   2.701   4.214   6.946
  364SOL     OW18233   0.670   0.893   1.739
  364SOL    HW118234   0.623   0.840   1.803
  364SOL    HW218235   0.697   0.831   1.671
  365SOL     OW18236   5.047   5.077   1.872
  365SOL    HW118237   4.980   5.127   1.824
  365SOL    HW218238   5.084   5.139   1.934
  366SOL     OW18239   3.084   5.480   6.583
  366SOL    HW118240   3.047   5.528   6.656
  366SOL    HW218241   3.170   5.518   6.569
  367SOL     OW18242   6.305   5.026   7.588
  367SOL    HW118243   6.396   5.051   7.605
  367SOL    HW218244   6.254   5.077   7.651
  368SOL     OW18245   1.754   0.526   1.664
  368SOL    HW118246   1.792   0.596   1.717
  368SOL    HW218247   1.740   0.566   1.578
  369SOL     OW18248   4.166   1.309   5.711
  369SOL    HW118249   4.137   1.373   5.776
  369SOL    HW218250   4.170   1.226   5.759
  370SOL     OW18251   2.487   5.367   6.742
  370SOL    HW118252   2.435   5.295   6.779
  370SOL    HW218253   2.429   5.409   6.679
  371SOL     OW18254   0.720   3.173   5.653
  371SOL    HW118255   0.779   3.135   5.718
  371SOL    HW218256   0.694   3.258   5.690
  372SOL     OW18257   1.187   2.061   0.768
  372SOL    HW118258   1.142   2.075   0.851
  372SOL    HW218259   1.270   2.108   0.779
  373SOL     OW18260   0.063   2.720   7.346
  373SOL    HW118261   0.043   2.699   7.255
  373SOL    HW218262   0.092   2.638   7.384
  374SOL     OW18263   4.927   6.009   0.137
  374SOL    HW118264   4.878   6.049   0.065
  374SOL    HW218265   5.012   5.987   0.099
  375SOL     OW18266   1.228   5.204   7.181
  375SOL    HW118267   1.322   5.199   7.199
  375SOL    HW218268   1.189   5.141   7.242
  376SOL     OW18269   5.422   6.264   5.840
  376SOL    HW118270   5.377   6.349   5.832
  376SOL    HW218271   5.460   6.249   5.754
  377SOL     OW18272   1.621   3.395   1.922
  377SOL    HW118273   1.560   3.334   1.881
  377SOL    HW218274   1.585   3.481   1.903
  378SOL     OW18275   3.393   3.998   1.816
  378SOL    HW118276   3.455   3.940   1.771
  378SOL    HW218277   3.448   4.053   1.872
  379SOL     OW18278   2.065   0.660   7.153
  379SOL    HW118279   2.001   0.663   7.082
  379SOL    HW218280   2.041   0.583   7.203
  380SOL     OW18281   3.614   2.395   6.937
  380SOL    HW118282   3.635   2.454   6.866
  380SOL    HW218283   3.694   2.344   6.951
  381SOL     OW18284   6.480   4.708   1.617
  381SOL    HW118285   0.089   4.708   1.624
  381SOL    HW218286   6.461   4.644   1.548
  382SOL     OW18287   0.891   3.029   0.100
  382SOL    HW118288   0.863   3.091   0.033
  382SOL    HW218289   0.984   3.015   0.082
  383SOL     OW18290   5.529   2.089   1.512
  383SOL    HW118291   5.621   2.102   1.536
  383SOL    HW218292   5.483   2.082   1.595
  384SOL     OW18293   2.390   0.089   6.873
  384SOL    HW118294   2.348   0.004   6.887
  384SOL    HW218295   2.472   0.084   6.922
  385SOL     OW18296   2.862   0.109   5.271
  385SOL    HW118297   2.781   0.136   5.227
  385SOL    HW218298   2.897   0.040   5.215
  386SOL     OW18299   4.973   0.229   1.238
  386SOL    HW118300   4.931   0.233   1.152
  386SOL    HW218301   5.067   0.228   1.219
  387SOL     OW18302   1.202   0.735   1.750
  387SOL    HW118303   1.276   0.776   1.705
  387SOL    HW218304   1.129   0.743   1.687
  388SOL     OW18305   5.365   5.463   7.204
  388SOL    HW118306   5.400   5.494   7.288
  388SOL    HW218307   5.271   5.482   7.209
  389SOL     OW18308   0.095   3.759   0.197
  389SOL    HW118309   0.037   3.701   0.148
  389SOL    HW218310   0.115   3.831   0.137
  390SOL     OW18311   1.383   2.154   1.075
  390SOL    HW118312   1.438   2.212   1.128
  390SOL    HW218313   1.384   2.194   0.988
  391SOL     OW18314   0.446   4.277   0.148
  391SOL    HW118315   0.392   4.240   0.079
  391SOL    HW218316   0.514   4.211   0.164
  392SOL     OW18317   2.824   5.107   7.538
  392SOL    HW118318   2.737   5.110   7.577
  392SOL    HW218319   2.880   5.152   7.602
  393SOL     OW18320   1.269   1.776   7.029
  393SOL    HW118321   1.348   1.722   7.022
  393SOL    HW218322   1.252   1.805   6.939
  394SOL     OW18323   3.399   6.166   6.307
  394SOL    HW118324   3.469   6.150   6.244
  394SOL    HW218325   3.419   6.107   6.380
  395SOL     OW18326   0.059   3.111   5.955
  395SOL    HW118327   6.460   3.109   5.912
  395SOL    HW218328   0.117   3.153   5.892
  396SOL     OW18329   0.111   1.844   6.463
  396SOL    HW118330   0.135   1.897   6.387
  396SOL    HW218331   0.077   1.763   6.426
  397SOL     OW18332   3.060   5.013   0.114
  397SOL    HW118333   2.992   4.972   0.060
  397SOL    HW218334   3.142   4.992   0.069
  398SOL     OW18335   0.028   3.043   1.646
  398SOL    HW118336   0.088   3.070   1.716
  398SOL    HW218337   0.064   3.083   1.567
  399SOL     OW18338   3.167   1.147   7.227
  399SOL    HW118339   3.262   1.138   7.229
  399SOL    HW218340   3.142   1.116   7.140
  400SOL     OW18341   0.149   3.373   7.135
  400SOL    HW118342   0.208   3.398   7.206
  400SOL    HW218343   0.200   3.309   7.084
  401SOL     OW18344   3.422   1.324   7.739
  401SOL    HW118345   3.484   1.394   7.759
  401SOL    HW218346   3.388   1.347   7.653
  402SOL     OW18347   1.979   6.198   1.234
  402SOL    HW118348   1.926   6.119   1.232
  402SOL    HW218349   2.052   6.181   1.174
  403SOL     OW18350   0.101   5.004   0.614
  403SOL    HW118351   0.056   4.937   0.563
  403SOL    HW218352   0.046   5.082   0.605
  404SOL     OW18353   6.473   3.601   0.668
  404SOL    HW118354   0.020   3.573   0.583
  404SOL    HW218355   6.435   3.522   0.707
  405SOL     OW18356   5.534   6.345   1.189
  405SOL    HW118357   5.561   6.411   1.253
  405SOL    HW218358   5.460   6.384   1.144
  406SOL     OW18359   3.988   2.517   7.268
  406SOL    HW118360   4.074   2.522   7.309
  406SOL    HW218361   3.956   2.429   7.288
  407SOL     OW18362   5.786   1.610   1.263
  407SOL    HW118363   5.829   1.665   1.328
  407SOL    HW218364   5.854   1.589   1.199
  408SOL     OW18365   1.543   3.710   7.173
  408SOL    HW118366   1.625   3.704   7.223
  408SOL    HW218367   1.509   3.797   7.194
  409SOL     OW18368   1.828   5.290   1.371
  409SOL    HW118369   1.800   5.241   1.294
  409SOL    HW218370   1.834   5.381   1.341
  410SOL     OW18371   2.588   0.739   0.745
  410SOL    HW118372   2.574   0.823   0.790
  410SOL    HW218373   2.585   0.761   0.652
  411SOL     OW18374   4.806   3.327   1.563
  411SOL    HW118375   4.884   3.364   1.604
  411SOL    HW218376   4.839   3.258   1.506
  412SOL     OW18377   3.995   2.693   6.665
  412SOL    HW118378   3.922   2.652   6.712
  412SOL    HW218379   3.997   2.782   6.698
  413SOL     OW18380   6.434   4.642   6.913
  413SOL    HW118381   0.020   4.702   6.933
  413SOL    HW218382   6.371   4.695   6.864
  414SOL     OW18383   5.797   5.337   6.873
  414SOL    HW118384   5.866   5.391   6.912
  414SOL    HW218385   5.829   5.317   6.785
  415SOL     OW18386   3.083   1.786   0.263
  415SOL    HW118387   3.004   1.769   0.212
  415SOL    HW218388   3.131   1.851   0.211
  416SOL     OW18389   5.826   0.647   5.442
  416SOL    HW118390   5.734   0.655   5.417
  416SOL    HW218391   5.844   0.725   5.494
  417SOL     OW18392   1.687   3.953   2.216
  417SOL    HW118393   1.747   3.925   2.284
  417SOL    HW218394   1.640   4.027   2.254
  418SOL     OW18395   5.697   3.543   7.453
  418SOL    HW118396   5.727   3.587   7.532
  418SOL    HW218397   5.751   3.465   7.447
  419SOL     OW18398   6.467   1.919   2.282
  419SOL    HW118399   0.039   1.879   2.217
  419SOL    HW218400   0.002   1.875   2.364
  420SOL     OW18401   2.455   1.231   6.861
  420SOL    HW118402   2.456   1.174   6.785
  420SOL    HW218403   2.403   1.307   6.834
  421SOL     OW18404   3.751   4.532   7.502
  421SOL    HW118405   3.725   4.451   7.458
  421SOL    HW218406   3.829   4.561   7.455
  422SOL     OW18407   2.264   2.670   0.922
  422SOL    HW118408   2.337   2.632   0.969
  422SOL    HW218409   2.293   2.758   0.898
  423SOL     OW18410   5.135   0.907   6.832
  423SOL    HW118411   5.068   0.839   6.833
  423SOL    HW218412   5.209   0.867   6.787
  424SOL     OW18413   1.526   4.320   2.198
  424SOL    HW118414   1.584   4.372   2.142
  424SOL    HW218415   1.575   4.309   2.280
  425SOL     OW18416   5.834   4.955   0.328
  425SOL    HW118417   5.765   4.961   0.394
  425SOL    HW218418   5.788   4.957   0.244
  426SOL     OW18419   6.328   5.180   1.555
  426SOL    HW118420   6.372   5.233   1.489
  426SOL    HW218421   6.350   5.222   1.638
  427SOL     OW18422   5.611   0.061   1.347
  427SOL    HW118423   5.665   0.062   1.426
  427SOL    HW218424   5.563   0.144   1.349
  428SOL     OW18425   1.103   3.984   6.677
  428SOL    HW118426   1.017   3.991   6.720
  428SOL    HW218427   1.087   4.009   6.586
  429SOL     OW18428   5.007   5.116   1.572
  429SOL    HW118429   4.993   5.196   1.623
  429SOL    HW218430   4.972   5.136   1.485
  430SOL     OW18431   2.019   0.037   5.630
  430SOL    HW118432   1.957   6.458   5.664
  430SOL    HW218433   1.974   0.120   5.640
  431SOL     OW18434   1.980   4.950   0.616
  431SOL    HW118435   2.030   4.880   0.576
  431SOL    HW218436   1.937   4.909   0.692
  432SOL     OW18437   3.759   6.263   1.511
  432SOL    HW118438   3.784   6.345   1.553
  432SOL    HW218439   3.814   6.197   1.552
  433SOL     OW18440   0.188   3.950   0.028
  433SOL    HW118441   0.175   3.898   7.725
  433SOL    HW218442   0.205   4.039   7.772
  434SOL     OW18443   2.028   5.076   5.633
  434SOL    HW118444   2.113   5.117   5.614
  434SOL    HW218445   2.032   4.990   5.591
  435SOL     OW18446   2.700   3.828   1.046
  435SOL    HW118447   2.761   3.756   1.055
  435SOL    HW218448   2.678   3.830   0.952
  436SOL     OW18449   4.671   2.559   0.002
  436SOL    HW118450   4.647   2.574   7.686
  436SOL    HW218451   4.742   2.494   7.773
  437SOL     OW18452   3.773   2.501   7.721
  437SOL    HW118453   3.699   2.563   7.725
  437SOL    HW218454   3.818   2.523   7.639
  438SOL     OW18455   4.313   4.376   0.265
  438SOL    HW118456   4.309   4.310   0.196
  438SOL    HW218457   4.302   4.327   0.346
  439SOL     OW18458   5.884   1.371   1.714
  439SOL    HW118459   5.827   1.350   1.788
  439SOL    HW218460   5.961   1.316   1.727
  440SOL     OW18461   0.757   4.408   1.164
  440SOL    HW118462   0.724   4.400   1.075
  440SOL    HW218463   0.702   4.349   1.215
  441SOL     OW18464   1.283   1.417   0.429
  441SOL    HW118465   1.316   1.494   0.477
  441SOL    HW218466   1.303   1.343   0.486
  442SOL     OW18467   1.878   1.045   0.052
  442SOL    HW118468   1.877   1.015   7.737
  442SOL    HW218469   1.937   0.984   0.097
  443SOL     OW18470   3.752   4.822   5.628
  443SOL    HW118471   3.729   4.733   5.654
  443SOL    HW218472   3.821   4.812   5.563
  444SOL     OW18473   3.373   1.109   1.629
  444SOL    HW118474   3.338   1.181   1.577
  444SOL    HW218475   3.448   1.078   1.579
  445SOL     OW18476   5.926   2.531   1.642
  445SOL    HW118477   5.912   2.591   1.569
  445SOL    HW218478   5.840   2.494   1.660
  446SOL     OW18479   3.431   0.613   6.002
  446SOL    HW118480   3.448   0.537   5.946
  446SOL    HW218481   3.482   0.683   5.961
  447SOL     OW18482   4.489   2.736   6.797
  447SOL    HW118483   4.419   2.671   6.788
  447SOL    HW218484   4.478   2.771   6.886
  448SOL     OW18485   0.136   0.944   5.526
  448SOL    HW118486   0.202   1.004   5.560
  448SOL    HW218487   0.055   0.995   5.528
  449SOL     OW18488   2.160   2.991   0.132
  449SOL    HW118489   2.168   2.938   0.052
  449SOL    HW218490   2.068   2.984   0.156
  450SOL     OW18491   3.685   4.961   0.166
  450SOL    HW118492   3.728   5.042   0.138
  450SOL    HW218493   3.700   4.957   0.260
  451SOL     OW18494   0.196   5.501   5.989
  451SOL    HW118495   0.282   5.475   6.021
  451SOL    HW218496   0.174   5.434   5.924
  452SOL     OW18497   1.224   5.292   5.256
  452SOL    HW118498   1.228   5.218   5.318
  452SOL    HW218499   1.166   5.355   5.299
  453SOL     OW18500   1.713   3.146   6.683
  453SOL    HW118501   1.637   3.202   6.666
  453SOL    HW218502   1.781   3.180   6.626
  454SOL     OW18503   1.145   3.914   0.154
  454SOL    HW118504   1.175   3.856   0.085
  454SOL    HW218505   1.053   3.891   0.167
  455SOL     OW18506   2.827   4.995   5.302
  455SOL    HW118507   2.832   5.091   5.298
  455SOL    HW218508   2.750   4.973   5.250
  456SOL     OW18509   2.031   5.883   0.587
  456SOL    HW118510   2.035   5.844   0.500
  456SOL    HW218511   1.962   5.836   0.633
  457SOL     OW18512   2.261   1.393   7.314
  457SOL    HW118513   2.230   1.482   7.292
  457SOL    HW218514   2.336   1.408   7.370
  458SOL     OW18515   2.415   3.365   1.824
  458SOL    HW118516   2.344   3.324   1.873
  458SOL    HW218517   2.445   3.437   1.880
  459SOL     OW18518   2.209   4.277   1.624
  459SOL    HW118519   2.254   4.324   1.695
  459SOL    HW218520   2.192   4.190   1.661
  460SOL     OW18521   0.499   0.982   1.250
  460SOL    HW118522   0.444   1.000   1.326
  460SOL    HW218523   0.570   1.046   1.256
  461SOL     OW18524   0.326   2.369   5.758
  461SOL    HW118525   0.405   2.381   5.811
  461SOL    HW218526   0.346   2.295   5.702
  462SOL     OW18527   4.126   1.463   5.927
  462SOL    HW118528   4.211   1.501   5.904
  462SOL    HW218529   4.063   1.531   5.904
  463SOL     OW18530   5.962   5.662   7.306
  463SOL    HW118531   5.898   5.730   7.285
  463SOL    HW218532   6.044   5.710   7.320
  464SOL     OW18533   0.799   1.549   1.100
  464SOL    HW118534   0.884   1.538   1.059
  464SOL    HW218535   0.752   1.609   1.042
  465SOL     OW18536   0.495   5.653   1.112
  465SOL    HW118537   0.489   5.733   1.058
  465SOL    HW218538   0.405   5.633   1.136
  466SOL     OW18539   2.120   5.389   1.439
  466SOL    HW118540   2.073   5.433   1.509
  466SOL    HW218541   2.150   5.307   1.477
  467SOL     OW18542   6.043   6.347   1.387
  467SOL    HW118543   5.959   6.351   1.342
  467SOL    HW218544   6.022   6.318   1.475
  468SOL     OW18545   2.676   6.009   7.371
  468SOL    HW118546   2.708   5.955   7.299
  468SOL    HW218547   2.754   6.026   7.423
  469SOL     OW18548   4.655   3.236   6.441
  469SOL    HW118549   4.664   3.240   6.536
  469SOL    HW218550   4.719   3.171   6.412
  470SOL     OW18551   1.102   1.954   0.151
  470SOL    HW118552   1.097   1.887   0.082
  470SOL    HW218553   1.016   1.995   0.151
  471SOL     OW18554   4.962   6.339   1.573
  471SOL    HW118555   5.055   6.338   1.548
  471SOL    HW218556   4.935   6.248   1.568
  472SOL     OW18557   2.292   3.162   6.035
  472SOL    HW118558   2.378   3.202   6.049
  472SOL    HW218559   2.289   3.144   5.941
  473SOL     OW18560   4.712   1.962   6.334
  473SOL    HW118561   4.727   1.944   6.241
  473SOL    HW218562   4.797   1.944   6.375
  474SOL     OW18563   0.102   3.093   6.822
  474SOL    HW118564   0.062   3.110   6.908
  474SOL    HW218565   0.115   2.999   6.820
  475SOL     OW18566   3.652   1.488   7.727
  475SOL    HW118567   3.641   1.577   7.763
  475SOL    HW218568   3.710   1.499   7.652
  476SOL     OW18569   0.649   5.154   2.282
  476SOL    HW118570   0.660   5.234   2.231
  476SOL    HW218571   0.739   5.124   2.298
  477SOL     OW18572   2.359   1.841   7.257
  477SOL    HW118573   2.308   1.764   7.280
  477SOL    HW218574   2.451   1.815   7.269
  478SOL     OW18575   3.923   4.661   1.255
  478SOL    HW118576   3.864   4.728   1.288
  478SOL    HW218577   3.951   4.695   1.169
  479SOL     OW18578   4.012   1.648   0.527
  479SOL    HW118579   3.936   1.660   0.472
  479SOL    HW218580   4.010   1.555   0.551
  480SOL     OW18581   2.690   4.340   1.689
  480SOL    HW118582   2.654   4.253   1.672
  480SOL    HW218583   2.783   4.325   1.707
  481SOL     OW18584   0.062   4.359   0.929
  481SOL    HW118585   0.158   4.362   0.924
  481SOL    HW218586   0.037   4.447   0.958
  482SOL     OW18587   4.448   0.611   1.288
  482SOL    HW118588   4.361   0.650   1.290
  482SOL    HW218589   4.439   0.534   1.231
  483SOL     OW18590   0.187   1.964   1.756
  483SOL    HW118591   0.189   2.009   1.672
  483SOL    HW218592   0.175   2.034   1.821
  484SOL     OW18593   4.485   1.346   6.620
  484SOL    HW118594   4.555   1.396   6.579
  484SOL    HW218595   4.509   1.254   6.605
  485SOL     OW18596   4.379   5.850   7.145
  485SOL    HW118597   4.457   5.841   7.200
  485SOL    HW218598   4.312   5.883   7.204
  486SOL     OW18599   0.193   3.989   1.336
  486SOL    HW118600   0.138   3.965   1.410
  486SOL    HW218601   0.229   3.906   1.305
  487SOL     OW18602   3.891   3.750   7.187
  487SOL    HW118603   3.829   3.690   7.227
  487SOL    HW218604   3.963   3.695   7.157
  488SOL     OW18605   0.953   3.704   7.625
  488SOL    HW118606   0.946   3.797   7.603
  488SOL    HW218607   1.031   3.698   7.681
  489SOL     OW18608   6.147   3.293   0.908
  489SOL    HW118609   6.123   3.218   0.962
  489SOL    HW218610   6.161   3.365   0.970
  490SOL     OW18611   0.612   4.224   5.262
  490SOL    HW118612   0.678   4.281   5.300
  490SOL    HW218613   0.651   4.191   5.181
  491SOL     OW18614   3.515   4.268   7.223
  491SOL    HW118615   3.562   4.235   7.299
  491SOL    HW218616   3.462   4.194   7.193
  492SOL     OW18617   5.008   2.230   2.100
  492SOL    HW118618   5.031   2.320   2.126
  492SOL    HW218619   5.043   2.221   2.011
  493SOL     OW18620   0.430   2.686   1.328
  493SOL    HW118621   0.484   2.607   1.331
  493SOL    HW218622   0.490   2.756   1.353
  494SOL     OW18623   3.070   5.582   1.997
  494SOL    HW118624   3.147   5.534   1.967
  494SOL    HW218625   3.029   5.525   2.062
  495SOL     OW18626   1.840   5.956   1.238
  495SOL    HW118627   1.797   5.920   1.160
  495SOL    HW218628   1.850   5.881   1.297
  496SOL     OW18629   3.762   1.582   7.003
  496SOL    HW118630   3.836   1.539   6.960
  496SOL    HW218631   3.690   1.576   6.941
  497SOL     OW18632   4.136   1.567   0.832
  497SOL    HW118633   4.223   1.589   0.866
  497SOL    HW218634   4.154   1.508   0.759
  498SOL     OW18635   4.964   2.877   1.651
  498SOL    HW118636   4.893   2.883   1.714
  498SOL    HW218637   5.042   2.902   1.700
  499SOL     OW18638   5.765   2.178   0.249
  499SOL    HW118639   5.746   2.090   0.283
  499SOL    HW218640   5.855   2.194   0.276
  500SOL     OW18641   3.163   3.109   0.123
  500SOL    HW118642   3.126   3.096   0.036
  500SOL    HW218643   3.169   3.204   0.133
  501SOL     OW18644   5.351   1.382   1.771
  501SOL    HW118645   5.308   1.321   1.711
  501SOL    HW218646   5.413   1.328   1.819
  502SOL     OW18647   0.279   5.628   0.447
  502SOL    HW118648   0.234   5.707   0.475
  502SOL    HW218649   0.359   5.626   0.499
  503SOL     OW18650   0.393   5.253   6.740
  503SOL    HW118651   0.377   5.346   6.760
  503SOL    HW218652   0.360   5.242   6.651
  504SOL     OW18653   0.073   3.284   7.649
  504SOL    HW118654   0.143   3.231   7.611
  504SOL    HW218655   0.060   3.248   7.736
  505SOL     OW18656   6.181   4.935   1.516
  505SOL    HW118657   6.241   4.880   1.466
  505SOL    HW218658   6.236   5.007   1.548
  506SOL     OW18659   1.764   4.941   0.893
  506SOL    HW118660   1.732   5.013   0.838
  506SOL    HW218661   1.717   4.864   0.862
  507SOL     OW18662   1.325   5.496   5.584
  507SOL    HW118663   1.240   5.453   5.582
  507SOL    HW218664   1.345   5.504   5.677
  508SOL     OW18665   0.132   2.927   6.355
  508SOL    HW118666   0.076   2.866   6.403
  508SOL    HW218667   0.113   2.908   6.262
  509SOL     OW18668   0.934   1.361   0.137
  509SOL    HW118669   0.908   1.274   0.168
  509SOL    HW218670   0.905   1.421   0.205
  510SOL     OW18671   3.904   3.575   1.542
  510SOL    HW118672   3.950   3.601   1.622
  510SOL    HW218673   3.972   3.536   1.487
  511SOL     OW18674   5.657   5.716   6.904
  511SOL    HW118675   5.675   5.624   6.924
  511SOL    HW218676   5.590   5.741   6.968
  512SOL     OW18677   3.998   0.911   0.800
  512SOL    HW118678   3.909   0.892   0.830
  512SOL    HW218679   4.029   0.980   0.858
  513SOL     OW18680   5.125   3.103   1.243
  513SOL    HW118681   5.117   3.107   1.338
  513SOL    HW218682   5.141   3.193   1.216
  514SOL     OW18683   1.455   0.454   6.110
  514SOL    HW118684   1.413   0.540   6.116
  514SOL    HW218685   1.459   0.423   6.201
  515SOL     OW18686   5.688   5.400   7.696
  515SOL    HW118687   5.705   5.354   7.614
  515SOL    HW218688   5.706   5.492   7.676
  516SOL     OW18689   1.714   2.530   1.729
  516SOL    HW118690   1.634   2.506   1.776
  516SOL    HW218691   1.711   2.625   1.723
  517SOL     OW18692   5.287   5.969   1.130
  517SOL    HW118693   5.308   5.966   1.223
  517SOL    HW218694   5.248   5.884   1.111
  518SOL     OW18695   0.325   1.876   0.479
  518SOL    HW118696   0.350   1.856   0.389
  518SOL    HW218697   0.230   1.886   0.477
  519SOL     OW18698   2.447   4.672   0.181
  519SOL    HW118699   2.502   4.655   0.257
  519SOL    HW218700   2.389   4.743   0.208
  520SOL     OW18701   2.906   4.219   1.381
  520SOL    HW118702   2.997   4.227   1.353
  520SOL    HW218703   2.881   4.131   1.355
  521SOL     OW18704   5.933   0.509   1.785
  521SOL    HW118705   5.984   0.430   1.801
  521SOL    HW218706   5.842   0.479   1.777
  522SOL     OW18707   4.353   2.152   1.668
  522SOL    HW118708   4.372   2.071   1.714
  522SOL    HW218709   4.399   2.220   1.718
  523SOL     OW18710   3.130   2.246   7.637
  523SOL    HW118711   3.112   2.152   7.636
  523SOL    HW218712   3.149   2.268   7.546
  524SOL     OW18713   2.267   4.876   0.994
  524SOL    HW118714   2.355   4.848   1.018
  524SOL    HW218715   2.222   4.795   0.970
  525SOL     OW18716   4.349   3.141   7.505
  525SOL    HW118717   4.257   3.140   7.480
  525SOL    HW218718   4.374   3.049   7.511
  526SOL     OW18719   0.258   1.841   6.943
  526SOL    HW118720   0.243   1.770   7.006
  526SOL    HW218721   0.266   1.797   6.858
  527SOL     OW18722   3.992   2.948   6.718
  527SOL    HW118723   4.015   2.975   6.807
  527SOL    HW218724   4.035   3.013   6.662
  528SOL     OW18725   3.426   2.043   6.969
  528SOL    HW118726   3.331   2.036   6.959
  528SOL    HW218727   3.455   2.091   6.892
  529SOL     OW18728   1.028   0.090   0.568
  529SOL    HW118729   0.949   0.092   0.622
  529SOL    HW218730   1.065   0.178   0.576
  530SOL     OW18731   3.414   3.626   1.693
  530SOL    HW118732   3.432   3.535   1.670
  530SOL    HW218733   3.491   3.674   1.662
  531SOL     OW18734   2.194   4.618   1.402
  531SOL    HW118735   2.187   4.707   1.366
  531SOL    HW218736   2.284   4.613   1.434
  532SOL     OW18737   5.285   1.734   0.132
  532SOL    HW118738   5.242   1.659   0.090
  532SOL    HW218739   5.218   1.771   0.189
  533SOL     OW18740   6.004   3.869   7.603
  533SOL    HW118741   6.099   3.856   7.614
  533SOL    HW218742   5.982   3.938   7.664
  534SOL     OW18743   3.418   1.006   7.458
  534SOL    HW118744   3.508   1.006   7.426
  534SOL    HW218745   3.389   0.916   7.449
  535SOL     OW18746   2.088   0.054   0.622
  535SOL    HW118747   2.005   0.065   0.576
  535SOL    HW218748   2.153   0.039   0.553
  536SOL     OW18749   0.531   5.330   0.091
  536SOL    HW118750   0.453   5.277   0.076
  536SOL    HW218751   0.598   5.290   0.036
  537SOL     OW18752   0.046   4.668   0.307
  537SOL    HW118753   0.001   4.690   0.388
  537SOL    HW218754   0.088   4.584   0.324
  538SOL     OW18755   2.143   2.431   5.572
  538SOL    HW118756   2.213   2.420   5.635
  538SOL    HW218757   2.139   2.525   5.556
  539SOL     OW18758   3.984   2.059   2.453
  539SOL    HW118759   4.078   2.069   2.469
  539SOL    HW218760   3.974   1.968   2.425
  540SOL     OW18761   1.875   2.988   1.246
  540SOL    HW118762   1.927   3.035   1.311
  540SOL    HW218763   1.921   2.905   1.233
  541SOL     OW18764   5.616   2.507   7.374
  541SOL    HW118765   5.620   2.431   7.431
  541SOL    HW218766   5.688   2.563   7.403
  542SOL     OW18767   1.957   1.539   1.041
  542SOL    HW118768   2.041   1.513   1.003
  542SOL    HW218769   1.981   1.591   1.118
  543SOL     OW18770   3.530   4.736   1.559
  543SOL    HW118771   3.440   4.708   1.542
  543SOL    HW218772   3.581   4.655   1.556
  544SOL     OW18773   5.588   4.468   6.627
  544SOL    HW118774   5.515   4.413   6.600
  544SOL    HW218775   5.665   4.426   6.590
  545SOL     OW18776   5.079   3.194   6.932
  545SOL    HW118777   5.169   3.164   6.921
  545SOL    HW218778   5.037   3.175   6.848
  546SOL     OW18779   5.446   2.770   7.645
  546SOL    HW118780   5.522   2.787   7.700
  546SOL    HW218781   5.483   2.751   7.558
  547SOL     OW18782   1.741   0.294   5.421
  547SOL    HW118783   1.740   0.384   5.390
  547SOL    HW218784   1.799   0.295   5.497
  548SOL     OW18785   0.835   1.940   1.332
  548SOL    HW118786   0.839   1.950   1.427
  548SOL    HW218787   0.781   2.013   1.303
  549SOL     OW18788   5.924   2.450   0.270
  549SOL    HW118789   5.842   2.487   0.236
  549SOL    HW218790   5.938   2.371   0.217
  550SOL     OW18791   5.023   3.794   1.763
  550SOL    HW118792   5.002   3.802   1.671
  550SOL    HW218793   4.950   3.745   1.801
  551SOL     OW18794   4.668   5.117   6.811
  551SOL    HW118795   4.727   5.191   6.824
  551SOL    HW218796   4.586   5.157   6.780
  552SOL     OW18797   1.372   3.346   0.579
  552SOL    HW118798   1.442   3.280   0.582
  552SOL    HW218799   1.414   3.422   0.539
  553SOL     OW18800   0.591   5.246   0.429
  553SOL    HW118801   0.601   5.294   0.347
  553SOL    HW218802   0.630   5.161   0.412
  554SOL     OW18803   5.866   0.120   0.872
  554SOL    HW118804   5.915   0.038   0.875
  554SOL    HW218805   5.833   0.132   0.961
  555SOL     OW18806   0.614   0.501   0.503
  555SOL    HW118807   0.563   0.567   0.456
  555SOL    HW218808   0.693   0.490   0.451
  556SOL     OW18809   1.379   5.409   2.077
  556SOL    HW118810   1.313   5.462   2.121
  556SOL    HW218811   1.463   5.445   2.106
  557SOL     OW18812   5.145   2.162   1.850
  557SOL    HW118813   5.186   2.089   1.895
  557SOL    HW218814   5.123   2.127   1.763
  558SOL     OW18815   4.241   6.080   0.721
  558SOL    HW118816   4.151   6.051   0.710
  558SOL    HW218817   4.292   5.999   0.725
  559SOL     OW18818   3.769   2.862   6.521
  559SOL    HW118819   3.843   2.876   6.581
  559SOL    HW218820   3.800   2.794   6.461
  560SOL     OW18821   0.280   4.138   7.207
  560SOL    HW118822   0.274   4.211   7.145
  560SOL    HW218823   0.190   4.122   7.234
  561SOL     OW18824   1.040   4.444   0.792
  561SOL    HW118825   1.102   4.494   0.740
  561SOL    HW218826   1.066   4.353   0.779
  562SOL     OW18827   0.721   2.684   1.057
  562SOL    HW118828   0.626   2.687   1.069
  562SOL    HW218829   0.746   2.775   1.040
  563SOL     OW18830   1.285   0.940   0.532
  563SOL    HW118831   1.267   0.860   0.583
  563SOL    HW218832   1.273   0.913   0.441
  564SOL     OW18833   3.173   4.743   0.099
  564SOL    HW118834   3.103   4.695   0.054
  564SOL    HW218835   3.128   4.797   0.163
  565SOL     OW18836   2.854   1.457   1.527
  565SOL    HW118837   2.842   1.462   1.622
  565SOL    HW218838   2.843   1.365   1.505
  566SOL     OW18839   6.165   1.867   5.984
  566SOL    HW118840   6.151   1.953   5.945
  566SOL    HW218841   6.077   1.833   5.999
  567SOL     OW18842   0.357   3.675   6.961
  567SOL    HW118843   0.348   3.583   6.936
  567SOL    HW218844   0.326   3.723   6.884
  568SOL     OW18845   3.982   1.964   0.312
  568SOL    HW118846   3.992   1.938   0.403
  568SOL    HW218847   3.898   2.010   0.309
  569SOL     OW18848   2.289   6.209   0.640
  569SOL    HW118849   2.323   6.120   0.628
  569SOL    HW218850   2.206   6.197   0.686
  570SOL     OW18851   5.256   1.409   6.785
  570SOL    HW118852   5.345   1.439   6.766
  570SOL    HW218853   5.250   1.412   6.881
  571SOL     OW18854   5.118   0.364   0.964
  571SOL    HW118855   5.027   0.347   0.988
  571SOL    HW218856   5.169   0.316   1.030
  572SOL     OW18857   5.354   1.684   6.883
  572SOL    HW118858   5.344   1.756   6.820
  572SOL    HW218859   5.323   1.721   6.966
  573SOL     OW18860   3.136   1.735   6.488
  573SOL    HW118861   3.228   1.722   6.469
  573SOL    HW218862   3.123   1.830   6.483
  574SOL     OW18863   1.371   6.030   0.166
  574SOL    HW118864   1.284   6.022   0.207
  574SOL    HW218865   1.353   6.055   0.076
  575SOL     OW18866   4.837   5.829   1.272
  575SOL    HW118867   4.821   5.870   1.357
  575SOL    HW218868   4.769   5.865   1.215
  576SOL     OW18869   5.142   5.012   0.457
  576SOL    HW118870   5.140   4.918   0.441
  576SOL    HW218871   5.161   5.051   0.372
  577SOL     OW18872   2.177   4.001   5.849
  577SOL    HW118873   2.262   3.958   5.846
  577SOL    HW218874   2.172   4.049   5.766
  578SOL     OW18875   5.360   3.976   6.693
  578SOL    HW118876   5.275   3.932   6.694
  578SOL    HW218877   5.415   3.925   6.752
  579SOL     OW18878   3.120   0.783   1.037
  579SOL    HW118879   3.120   0.697   0.996
  579SOL    HW218880   3.188   0.777   1.105
  580SOL     OW18881   5.423   0.280   1.335
  580SOL    HW118882   5.440   0.272   1.429
  580SOL    HW218883   5.430   0.374   1.318
  581SOL     OW18884   6.337   2.926   7.245
  581SOL    HW118885   6.306   2.836   7.233
  581SOL    HW218886   6.320   2.945   7.337
  582SOL     OW18887   3.332   5.435   1.148
  582SOL    HW118888   3.398   5.486   1.194
  582SOL    HW218889   3.262   5.497   1.129
  583SOL     OW18890   3.891   5.825   0.530
  583SOL    HW118891   3.928   5.738   0.546
  583SOL    HW218892   3.942   5.859   0.456
  584SOL     OW18893   1.770   6.161   0.975
  584SOL    HW118894   1.809   6.226   1.034
  584SOL    HW218895   1.828   6.085   0.983
  585SOL     OW18896   4.294   6.332   0.645
  585SOL    HW118897   4.276   6.239   0.660
  585SOL    HW218898   4.388   6.336   0.628
  586SOL     OW18899   0.802   6.071   7.297
  586SOL    HW118900   0.882   6.062   7.245
  586SOL    HW218901   0.748   5.997   7.270
  587SOL     OW18902   1.070   0.511   6.809
  587SOL    HW118903   1.134   0.575   6.839
  587SOL    HW218904   1.046   0.540   6.721
  588SOL     OW18905   2.168   2.024   1.157
  588SOL    HW118906   2.108   2.050   1.087
  588SOL    HW218907   2.175   1.929   1.148
  589SOL     OW18908   3.036   3.566   5.084
  589SOL    HW118909   2.960   3.511   5.066
  589SOL    HW218910   3.071   3.532   5.167
  590SOL     OW18911   6.095   5.399   0.330
  590SOL    HW118912   6.119   5.413   0.422
  590SOL    HW218913   6.163   5.445   0.280
  591SOL     OW18914   5.179   5.479   1.737
  591SOL    HW118915   5.238   5.525   1.797
  591SOL    HW218916   5.218   5.490   1.651
  592SOL     OW18917   2.868   0.115   5.967
  592SOL    HW118918   2.899   0.079   5.884
  592SOL    HW218919   2.774   0.127   5.954
  593SOL     OW18920   1.310   4.623   6.371
  593SOL    HW118921   1.217   4.622   6.348
  593SOL    HW218922   1.328   4.534   6.400
  594SOL     OW18923   3.374   4.156   0.707
  594SOL    HW118924   3.384   4.077   0.655
  594SOL    HW218925   3.303   4.135   0.769
  595SOL     OW18926   0.512   4.129   0.472
  595SOL    HW118927   0.516   4.219   0.440
  595SOL    HW218928   0.447   4.131   0.543
  596SOL     OW18929   1.872   2.568   7.159
  596SOL    HW118930   1.928   2.550   7.084
  596SOL    HW218931   1.900   2.505   7.226
  597SOL     OW18932   4.238   1.924   5.500
  597SOL    HW118933   4.300   1.901   5.568
  597SOL    HW218934   4.162   1.958   5.547
  598SOL     OW18935   4.537   1.156   0.283
  598SOL    HW118936   4.545   1.106   0.364
  598SOL    HW218937   4.466   1.218   0.300
  599SOL     OW18938   4.395   3.691   7.123
  599SOL    HW118939   4.364   3.621   7.180
  599SOL    HW218940   4.368   3.772   7.168
  600SOL     OW18941   4.192   1.625   7.527
  600SOL    HW118942   4.155   1.712   7.534
  600SOL    HW218943   4.127   1.574   7.479
  601SOL     OW18944   5.801   5.562   1.892
  601SOL    HW118945   5.753   5.503   1.833
  601SOL    HW218946   5.884   5.518   1.907
  602SOL     OW18947   4.463   4.487   1.012
  602SOL    HW118948   4.517   4.415   0.979
  602SOL    HW218949   4.503   4.566   0.977
  603SOL     OW18950   3.424   2.534   1.637
  603SOL    HW118951   3.517   2.527   1.659
  603SOL    HW218952   3.380   2.481   1.703
  604SOL     OW18953   3.046   3.415   1.595
  604SOL    HW118954   3.042   3.406   1.690
  604SOL    HW218955   3.139   3.400   1.574
  605SOL     OW18956   3.498   3.777   0.401
  605SOL    HW118957   3.445   3.759   0.323
  605SOL    HW218958   3.573   3.719   0.392
  606SOL     OW18959   5.867   3.054   5.340
  606SOL    HW118960   5.910   2.973   5.368
  606SOL    HW218961   5.926   3.123   5.371
  607SOL     OW18962   1.379   0.408   0.735
  607SOL    HW118963   1.398   0.317   0.712
  607SOL    HW218964   1.446   0.459   0.690
  608SOL     OW18965   1.393   5.650   1.019
  608SOL    HW118966   1.327   5.613   0.960
  608SOL    HW218967   1.371   5.613   1.105
  609SOL     OW18968   4.710   5.282   6.276
  609SOL    HW118969   4.638   5.232   6.237
  609SOL    HW218970   4.786   5.224   6.270
  610SOL     OW18971   5.800   0.225   1.125
  610SOL    HW118972   5.722   0.220   1.180
  610SOL    HW218973   5.873   0.224   1.187
  611SOL     OW18974   0.901   3.325   6.939
  611SOL    HW118975   0.931   3.297   6.852
  611SOL    HW218976   0.979   3.364   6.980
  612SOL     OW18977   6.272   4.047   7.602
  612SOL    HW118978   6.231   4.079   7.683
  612SOL    HW218979   6.342   4.110   7.584
  613SOL     OW18980   4.739   4.795   1.578
  613SOL    HW118981   4.766   4.715   1.533
  613SOL    HW218982   4.817   4.821   1.628
  614SOL     OW18983   0.740   4.275   6.983
  614SOL    HW118984   0.678   4.326   7.035
  614SOL    HW218985   0.694   4.193   6.964
  615SOL     OW18986   5.771   4.182   2.040
  615SOL    HW118987   5.814   4.168   2.124
  615SOL    HW218988   5.838   4.162   1.975
  616SOL     OW18989   5.689   2.137   2.596
  616SOL    HW118990   5.723   2.163   2.511
  616SOL    HW218991   5.664   2.220   2.638
  617SOL     OW18992   1.764   2.321   7.746
  617SOL    HW118993   1.788   2.350   0.058
  617SOL    HW218994   1.711   2.243   7.761
  618SOL     OW18995   5.399   3.509   2.015
  618SOL    HW118996   5.335   3.447   1.981
  618SOL    HW218997   5.347   3.574   2.062
  619SOL     OW18998   1.411   1.942   6.080
  619SOL    HW118999   1.465   2.010   6.041
  619SOL    HW219000   1.455   1.919   6.161
  620SOL     OW19001   1.058   3.715   5.437
  620SOL    HW119002   1.082   3.759   5.519
  620SOL    HW219003   1.138   3.716   5.385
  621SOL     OW19004   5.657   6.272   7.152
  621SOL    HW119005   5.611   6.235   7.226
  621SOL    HW219006   5.601   6.253   7.076
  622SOL     OW19007   0.842   3.742   6.222
  622SOL    HW119008   0.790   3.693   6.158
  622SOL    HW219009   0.885   3.811   6.171
  623SOL     OW19010   1.029   5.719   7.505
  623SOL    HW119011   1.031   5.713   7.410
  623SOL    HW219012   1.003   5.632   7.535
  624SOL     OW19013   3.594   5.331   4.870
  624SOL    HW119014   3.506   5.336   4.908
  624SOL    HW219015   3.651   5.370   4.937
  625SOL     OW19016   4.318   5.628   1.230
  625SOL    HW119017   4.340   5.535   1.235
  625SOL    HW219018   4.362   5.667   1.306
  626SOL     OW19019   0.943   0.230   6.463
  626SOL    HW119020   1.028   0.270   6.442
  626SOL    HW219021   0.944   0.146   6.419
  627SOL     OW19022   6.030   1.198   7.123
  627SOL    HW119023   5.969   1.268   7.097
  627SOL    HW219024   6.016   1.188   7.217
  628SOL     OW19025   2.235   0.197   7.323
  628SOL    HW119026   2.318   0.177   7.280
  628SOL    HW219027   2.192   0.112   7.333
  629SOL     OW19028   4.630   5.267   7.562
  629SOL    HW119029   4.680   5.265   7.480
  629SOL    HW219030   4.691   5.236   7.629
  630SOL     OW19031   5.205   4.891   7.370
  630SOL    HW119032   5.263   4.860   7.440
  630SOL    HW219033   5.130   4.832   7.373
  631SOL     OW19034   2.818   4.790   7.357
  631SOL    HW119035   2.728   4.767   7.381
  631SOL    HW219036   2.848   4.718   7.302
  632SOL     OW19037   5.552   4.743   0.589
  632SOL    HW119038   5.592   4.682   0.650
  632SOL    HW219039   5.551   4.827   0.635
  633SOL     OW19040   2.435   2.513   7.264
  633SOL    HW119041   2.353   2.504   7.216
  633SOL    HW219042   2.427   2.453   7.338
  634SOL     OW19043   1.458   4.299   6.850
  634SOL    HW119044   1.373   4.257   6.854
  634SOL    HW219045   1.515   4.244   6.903
  635SOL     OW19046   0.005   5.762   1.231
  635SOL    HW119047   6.413   5.725   1.190
  635SOL    HW219048   6.466   5.775   1.323
  636SOL     OW19049   3.494   1.120   5.926
  636SOL    HW119050   3.413   1.164   5.901
  636SOL    HW219051   3.482   1.029   5.899
  637SOL     OW19052   4.165   0.315   7.400
  637SOL    HW119053   4.096   0.339   7.462
  637SOL    HW219054   4.246   0.326   7.449
  638SOL     OW19055   3.936   6.176   0.365
  638SOL    HW119056   3.843   6.172   0.389
  638SOL    HW219057   3.954   6.269   0.354
  639SOL     OW19058   2.145   1.757   0.754
  639SOL    HW119059   2.062   1.725   0.717
  639SOL    HW219060   2.167   1.833   0.700
  640SOL     OW19061   4.327   0.959   2.507
  640SOL    HW119062   4.422   0.972   2.500
  640SOL    HW219063   4.317   0.873   2.547
  641SOL     OW19064   4.062   1.649   6.684
  641SOL    HW119065   3.985   1.679   6.733
  641SOL    HW219066   4.041   1.672   6.593
  642SOL     OW19067   0.152   5.439   0.660
  642SOL    HW119068   0.238   5.400   0.676
  642SOL    HW219069   0.170   5.520   0.612
  643SOL     OW19070   1.167   0.848   7.301
  643SOL    HW119071   1.203   0.909   7.237
  643SOL    HW219072   1.077   0.834   7.273
  644SOL     OW19073   0.081   0.262   6.880
  644SOL    HW119074   0.111   0.254   6.790
  644SOL    HW219075   0.145   0.212   6.931
  645SOL     OW19076   1.455   3.428   7.172
  645SOL    HW119077   1.510   3.493   7.127
  645SOL    HW219078   1.442   3.359   7.107
  646SOL     OW19079   2.322   2.844   2.132
  646SOL    HW119080   2.338   2.910   2.064
  646SOL    HW219081   2.315   2.894   2.213
  647SOL     OW19082   0.822   2.627   7.103
  647SOL    HW119083   0.727   2.623   7.114
  647SOL    HW219084   0.844   2.718   7.124
  648SOL     OW19085   5.330   0.788   5.768
  648SOL    HW119086   5.320   0.883   5.773
  648SOL    HW219087   5.249   0.757   5.727
  649SOL     OW19088   0.382   3.504   1.580
  649SOL    HW119089   0.415   3.441   1.645
  649SOL    HW219090   0.327   3.563   1.631
  650SOL     OW19091   1.504   0.070   7.185
  650SOL    HW119092   1.436   0.042   7.123
  650SOL    HW219093   1.457   0.119   7.252
  651SOL     OW19094   5.603   4.517   1.800
  651SOL    HW119095   5.535   4.542   1.862
  651SOL    HW219096   5.638   4.600   1.767
  652SOL     OW19097   3.822   2.226   7.599
  652SOL    HW119098   3.837   2.276   7.518
  652SOL    HW219099   3.728   2.235   7.614
  653SOL     OW19100   1.187   4.608   0.561
  653SOL    HW119101   1.218   4.539   0.502
  653SOL    HW219102   1.192   4.688   0.509
  654SOL     OW19103   1.474   5.106   1.234
  654SOL    HW119104   1.567   5.124   1.222
  654SOL    HW219105   1.454   5.040   1.169
  655SOL     OW19106   6.170   1.877   6.761
  655SOL    HW119107   6.183   1.971   6.748
  655SOL    HW219108   6.248   1.837   6.723
  656SOL     OW19109   4.141   5.029   0.759
  656SOL    HW119110   4.199   4.954   0.772
  656SOL    HW219111   4.195   5.105   0.782
  657SOL     OW19112   6.083   2.782   6.823
  657SOL    HW119113   6.016   2.825   6.876
  657SOL    HW219114   6.093   2.695   6.862
  658SOL     OW19115   2.449   3.411   0.632
  658SOL    HW119116   2.531   3.387   0.590
  658SOL    HW219117   2.471   3.488   0.685
  659SOL     OW19118   5.816   2.569   6.227
  659SOL    HW119119   5.823   2.477   6.201
  659SOL    HW219120   5.807   2.617   6.145
  660SOL     OW19121   2.921   1.612   7.590
  660SOL    HW119122   2.906   1.535   7.535
  660SOL    HW219123   2.951   1.679   7.529
  661SOL     OW19124   3.806   2.111   1.829
  661SOL    HW119125   3.807   2.193   1.779
  661SOL    HW219126   3.807   2.042   1.762
  662SOL     OW19127   3.969   5.279   0.287
  662SOL    HW119128   3.982   5.219   0.360
  662SOL    HW219129   3.928   5.227   0.218
  663SOL     OW19130   1.320   1.426   6.799
  663SOL    HW119131   1.381   1.496   6.775
  663SOL    HW219132   1.236   1.455   6.765
  664SOL     OW19133   4.934   6.313   5.914
  664SOL    HW119134   4.844   6.287   5.896
  664SOL    HW219135   4.986   6.273   5.844
  665SOL     OW19136   5.600   2.154   0.698
  665SOL    HW119137   5.539   2.194   0.636
  665SOL    HW219138   5.686   2.161   0.656
  666SOL     OW19139   1.110   5.041   0.129
  666SOL    HW119140   1.097   4.975   0.060
  666SOL    HW219141   1.205   5.051   0.136
  667SOL     OW19142   3.734   3.156   6.930
  667SOL    HW119143   3.780   3.240   6.928
  667SOL    HW219144   3.803   3.092   6.945
  668SOL     OW19145   5.514   1.156   7.603
  668SOL    HW119146   5.426   1.118   7.611
  668SOL    HW219147   5.500   1.238   7.555
  669SOL     OW19148   2.624   4.951   5.972
  669SOL    HW119149   2.597   4.865   5.942
  669SOL    HW219150   2.544   5.004   5.969
  670SOL     OW19151   1.950   5.957   0.906
  670SOL    HW119152   2.018   5.907   0.951
  670SOL    HW219153   1.998   6.015   0.847
  671SOL     OW19154   3.336   1.402   6.488
  671SOL    HW119155   3.343   1.447   6.404
  671SOL    HW219156   3.256   1.350   6.481
  672SOL     OW19157   4.810   0.339   7.500
  672SOL    HW119158   4.885   0.382   7.541
  672SOL    HW219159   4.755   0.412   7.469
  673SOL     OW19160   1.054   5.771   6.845
  673SOL    HW119161   1.094   5.722   6.917
  673SOL    HW219162   1.058   5.711   6.771
  674SOL     OW19163   3.492   1.001   0.756
  674SOL    HW119164   3.422   1.049   0.800
  674SOL    HW219165   3.573   1.042   0.789
  675SOL     OW19166   4.105   0.829   7.583
  675SOL    HW119167   4.072   0.773   7.513
  675SOL    HW219168   4.187   0.788   7.610
  676SOL     OW19169   2.548   5.240   7.061
  676SOL    HW119170   2.628   5.189   7.069
  676SOL    HW219171   2.537   5.254   6.967
  677SOL     OW19172   2.299   1.325   6.468
  677SOL    HW119173   2.224   1.283   6.510
  677SOL    HW219174   2.279   1.419   6.471
  678SOL     OW19175   4.396   0.627   0.273
  678SOL    HW119176   4.410   0.704   0.218
  678SOL    HW219177   4.371   0.557   0.212
  679SOL     OW19178   3.135   1.226   0.260
  679SOL    HW119179   3.092   1.189   0.338
  679SOL    HW219180   3.089   1.308   0.244
  680SOL     OW19181   3.596   1.960   6.448
  680SOL    HW119182   3.626   1.875   6.419
  680SOL    HW219183   3.599   1.956   6.544
  681SOL     OW19184   5.456   3.839   6.329
  681SOL    HW119185   5.380   3.825   6.273
  681SOL    HW219186   5.462   3.761   6.383
  682SOL     OW19187   6.401   1.188   6.475
  682SOL    HW119188   6.365   1.112   6.429
  682SOL    HW219189   6.466   1.223   6.414
  683SOL     OW19190   4.692   5.429   0.482
  683SOL    HW119191   4.745   5.359   0.444
  683SOL    HW219192   4.614   5.433   0.426
  684SOL     OW19193   1.371   3.721   7.512
  684SOL    HW119194   1.387   3.800   7.461
  684SOL    HW219195   1.458   3.683   7.526
  685SOL     OW19196   0.172   5.762   5.825
  685SOL    HW119197   0.204   5.686   5.875
  685SOL    HW219198   0.079   5.768   5.847
  686SOL     OW19199   1.308   6.283   6.280
  686SOL    HW119200   1.236   6.344   6.266
  686SOL    HW219201   1.333   6.296   6.371
  687SOL     OW19202   5.276   2.696   0.417
  687SOL    HW119203   5.361   2.734   0.438
  687SOL    HW219204   5.217   2.731   0.483
  688SOL     OW19205   0.282   0.919   7.301
  688SOL    HW119206   0.243   0.974   7.233
  688SOL    HW219207   0.375   0.939   7.298
  689SOL     OW19208   2.820   5.851   0.717
  689SOL    HW119209   2.890   5.809   0.766
  689SOL    HW219210   2.836   5.945   0.727
  690SOL     OW19211   1.054   1.111   7.709
  690SOL    HW119212   1.091   1.085   7.624
  690SOL    HW219213   0.967   1.143   7.687
  691SOL     OW19214   2.445   5.207   5.967
  691SOL    HW119215   2.405   5.205   6.054
  691SOL    HW219216   2.401   5.138   5.918
  692SOL     OW19217   3.729   3.849   0.150
  692SOL    HW119218   3.690   3.926   0.109
  692SOL    HW219219   3.821   3.849   0.121
  693SOL     OW19220   5.276   3.050   0.198
  693SOL    HW119221   5.287   3.116   0.129
  693SOL    HW219222   5.272   2.967   0.150
  694SOL     OW19223   3.787   3.962   7.085
  694SOL    HW119224   3.827   3.891   7.135
  694SOL    HW219225   3.745   3.918   7.011
  695SOL     OW19226   3.322   3.579   6.285
  695SOL    HW119227   3.315   3.484   6.294
  695SOL    HW219228   3.245   3.613   6.330
  696SOL     OW19229   2.912   4.638   0.067
  696SOL    HW119230   2.876   4.573   0.007
  696SOL    HW219231   2.857   4.715   0.056
  697SOL     OW19232   4.451   0.373   1.845
  697SOL    HW119233   4.546   0.382   1.842
  697SOL    HW219234   4.436   0.287   1.885
  698SOL     OW19235   1.773   0.059   7.106
  698SOL    HW119236   1.812   0.054   7.193
  698SOL    HW219237   1.679   0.067   7.122
  699SOL     OW19238   1.135   4.586   5.751
  699SOL    HW119239   1.116   4.655   5.687
  699SOL    HW219240   1.185   4.629   5.819
  700SOL     OW19241   3.764   4.802   0.709
  700SOL    HW119242   3.854   4.768   0.702
  700SOL    HW219243   3.733   4.804   0.618
  701SOL     OW19244   3.779   3.629   1.136
  701SOL    HW119245   3.709   3.657   1.195
  701SOL    HW219246   3.859   3.644   1.186
  702SOL     OW19247   0.679   2.874   6.666
  702SOL    HW119248   0.690   2.967   6.649
  702SOL    HW219249   0.729   2.830   6.597
  703SOL     OW19250   5.376   1.411   2.633
  703SOL    HW119251   5.461   1.368   2.631
  703SOL    HW219252   5.395   1.504   2.640
  704SOL     OW19253   0.299   3.616   0.811
  704SOL    HW119254   0.300   3.672   0.734
  704SOL    HW219255   0.288   3.527   0.776
  705SOL     OW19256   3.386   3.379   6.955
  705SOL    HW119257   3.311   3.436   6.942
  705SOL    HW219258   3.351   3.303   7.003
  706SOL     OW19259   1.967   5.533   0.268
  706SOL    HW119260   1.903   5.516   0.200
  706SOL    HW219261   1.937   5.613   0.311
  707SOL     OW19262   0.024   1.895   7.242
  707SOL    HW119263   6.450   1.822   7.253
  707SOL    HW219264   6.486   1.956   7.312
  708SOL     OW19265   3.731   5.327   7.407
  708SOL    HW119266   3.772   5.273   7.340
  708SOL    HW219267   3.803   5.352   7.465
  709SOL     OW19268   3.544   0.074   6.907
  709SOL    HW119269   3.459   0.092   6.866
  709SOL    HW219270   3.534   0.105   6.997
  710SOL     OW19271   0.563   4.333   7.199
  710SOL    HW119272   0.548   4.407   7.258
  710SOL    HW219273   0.487   4.333   7.141
  711SOL     OW19274   0.037   2.957   0.223
  711SOL    HW119275   6.448   3.002   0.183
  711SOL    HW219276   0.089   2.926   0.149
  712SOL     OW19277   5.189   6.375   5.569
  712SOL    HW119278   5.185   6.281   5.589
  712SOL    HW219279   5.112   6.391   5.515
  713SOL     OW19280   3.688   0.338   0.851
  713SOL    HW119281   3.760   0.358   0.792
  713SOL    HW219282   3.726   0.345   0.939
  714SOL     OW19283   4.713   3.929   0.035
  714SOL    HW119284   4.710   4.006   7.753
  714SOL    HW219285   4.754   3.961   0.116
  715SOL     OW19286   0.823   3.331   6.024
  715SOL    HW119287   0.894   3.301   6.080
  715SOL    HW219288   0.834   3.281   5.943
  716SOL     OW19289   4.323   6.254   5.521
  716SOL    HW119290   4.387   6.265   5.451
  716SOL    HW219291   4.375   6.255   5.601
  717SOL     OW19292   1.214   1.377   0.170
  717SOL    HW119293   1.225   1.397   0.263
  717SOL    HW219294   1.121   1.357   0.161
  718SOL     OW19295   0.107   2.008   0.452
  718SOL    HW119296   0.174   2.072   0.432
  718SOL    HW219297   0.072   2.036   0.537
  719SOL     OW19298   4.270   6.188   0.274
  719SOL    HW119299   4.264   6.176   0.369
  719SOL    HW219300   4.200   6.250   0.253
  720SOL     OW19301   6.168   0.739   6.285
  720SOL    HW119302   6.227   0.742   6.210
  720SOL    HW219303   6.122   0.656   6.275
  721SOL     OW19304   5.406   1.442   7.197
  721SOL    HW119305   5.476   1.406   7.142
  721SOL    HW219306   5.325   1.419   7.151
  722SOL     OW19307   4.108   3.117   1.521
  722SOL    HW119308   4.093   3.027   1.493
  722SOL    HW219309   4.066   3.122   1.607
  723SOL     OW19310   6.112   5.612   2.074
  723SOL    HW119311   6.064   5.531   2.054
  723SOL    HW219312   6.049   5.666   2.121
  724SOL     OW19313   4.000   0.362   2.374
  724SOL    HW119314   3.910   0.364   2.406
  724SOL    HW219315   3.997   0.307   2.296
  725SOL     OW19316   5.915   3.997   6.589
  725SOL    HW119317   5.947   3.999   6.499
  725SOL    HW219318   5.988   4.032   6.641
  726SOL     OW19319   3.519   1.481   1.731
  726SOL    HW119320   3.586   1.543   1.701
  726SOL    HW219321   3.485   1.519   1.811
  727SOL     OW19322   0.846   2.675   1.716
  727SOL    HW119323   0.775   2.714   1.664
  727SOL    HW219324   0.816   2.684   1.807
  728SOL     OW19325   5.070   2.925   5.395
  728SOL    HW119326   5.131   2.896   5.327
  728SOL    HW219327   5.018   2.847   5.414
  729SOL     OW19328   4.982   4.742   1.145
  729SOL    HW119329   4.929   4.807   1.192
  729SOL    HW219330   5.028   4.694   1.214
  730SOL     OW19331   1.026   4.703   6.714
  730SOL    HW119332   0.964   4.695   6.786
  730SOL    HW219333   0.973   4.734   6.640
  731SOL     OW19334   3.462   5.551   5.262
  731SOL    HW119335   3.390   5.534   5.323
  731SOL    HW219336   3.432   5.624   5.209
  732SOL     OW19337   1.832   4.581   2.271
  732SOL    HW119338   1.911   4.603   2.222
  732SOL    HW219339   1.788   4.665   2.285
  733SOL     OW19340   2.115   3.653   2.212
  733SOL    HW119341   2.050   3.590   2.181
  733SOL    HW219342   2.198   3.620   2.179
  734SOL     OW19343   3.009   5.993   1.520
  734SOL    HW119344   3.084   6.051   1.509
  734SOL    HW219345   3.043   5.920   1.572
  735SOL     OW19346   5.218   3.351   7.567
  735SOL    HW119347   5.188   3.281   7.508
  735SOL    HW219348   5.218   3.429   7.512
  736SOL     OW19349   4.821   2.235   7.340
  736SOL    HW119350   4.856   2.150   7.313
  736SOL    HW219351   4.730   2.233   7.311
  737SOL     OW19352   3.672   6.167   0.666
  737SOL    HW119353   3.629   6.180   0.750
  737SOL    HW219354   3.761   6.202   0.679
  738SOL     OW19355   1.890   2.442   0.203
  738SOL    HW119356   1.917   2.525   0.163
  738SOL    HW219357   1.914   2.451   0.295
  739SOL     OW19358   0.786   3.351   1.248
  739SOL    HW119359   0.845   3.370   1.175
  739SOL    HW219360   0.798   3.424   1.309
  740SOL     OW19361   2.781   1.729   0.213
  740SOL    HW119362   2.758   1.819   0.189
  740SOL    HW219363   2.697   1.690   0.240
  741SOL     OW19364   6.435   6.062   1.348
  741SOL    HW119365   0.036   6.063   1.388
  741SOL    HW219366   6.445   6.112   1.267
  742SOL     OW19367   1.529   0.140   0.394
  742SOL    HW119368   1.439   0.123   0.367
  742SOL    HW219369   1.529   0.130   0.489
  743SOL     OW19370   1.624   4.748   0.778
  743SOL    HW119371   1.545   4.712   0.819
  743SOL    HW219372   1.683   4.673   0.770
  744SOL     OW19373   1.924   4.856   7.063
  744SOL    HW119374   1.941   4.795   6.991
  744SOL    HW219375   1.836   4.890   7.046
  745SOL     OW19376   4.188   0.305   1.362
  745SOL    HW119377   4.262   0.337   1.414
  745SOL    HW219378   4.191   0.210   1.373
  746SOL     OW19379   1.364   3.481   0.076
  746SOL    HW119380   1.306   3.438   0.139
  746SOL    HW219381   1.392   3.561   0.120
  747SOL     OW19382   2.834   3.810   0.671
  747SOL    HW119383   2.828   3.803   0.575
  747SOL    HW219384   2.748   3.841   0.698
  748SOL     OW19385   5.473   0.128   7.029
  748SOL    HW119386   5.423   0.151   6.951
  748SOL    HW219387   5.417   0.066   7.077
  749SOL     OW19388   0.676   5.120   5.639
  749SOL    HW119389   0.763   5.147   5.609
  749SOL    HW219390   0.621   5.125   5.561
  750SOL     OW19391   0.881   4.697   6.939
  750SOL    HW119392   0.868   4.637   7.012
  750SOL    HW219393   0.880   4.784   6.979
  751SOL     OW19394   6.290   5.648   1.101
  751SOL    HW119395   6.291   5.568   1.048
  751SOL    HW219396   6.236   5.627   1.176
  752SOL     OW19397   4.683   2.913   0.333
  752SOL    HW119398   4.737   2.865   0.396
  752SOL    HW219399   4.739   2.921   0.255
  753SOL     OW19400   3.762   0.515   5.855
  753SOL    HW119401   3.714   0.597   5.839
  753SOL    HW219402   3.848   0.530   5.816
  754SOL     OW19403   6.044   2.716   6.264
  754SOL    HW119404   6.057   2.700   6.357
  754SOL    HW219405   5.962   2.671   6.242
  755SOL     OW19406   2.281   6.378   7.286
  755SOL    HW119407   2.230   6.380   7.205
  755SOL    HW219408   2.331   6.296   7.281
  756SOL     OW19409   0.032   2.145   7.060
  756SOL    HW119410   0.053   2.059   7.096
  756SOL    HW219411   0.096   2.158   6.990
  757SOL     OW19412   1.099   5.127   1.261
  757SOL    HW119413   1.041   5.132   1.185
  757SOL    HW219414   1.174   5.182   1.238
  758SOL     OW19415   6.056   5.489   6.184
  758SOL    HW119416   5.991   5.558   6.195
  758SOL    HW219417   6.053   5.439   6.266
  759SOL     OW19418   6.311   5.547   1.602
  759SOL    HW119419   6.265   5.477   1.648
  759SOL    HW219420   6.404   5.525   1.613
  760SOL     OW19421   3.388   4.004   0.056
  760SOL    HW119422   3.466   4.060   0.062
  760SOL    HW219423   3.361   4.011   7.740
  761SOL     OW19424   0.002   0.841   1.479
  761SOL    HW119425   6.415   0.780   1.482
  761SOL    HW219426   0.024   0.856   1.571
  762SOL     OW19427   6.026   2.603   0.696
  762SOL    HW119428   6.005   2.514   0.727
  762SOL    HW219429   5.952   2.626   0.639
  763SOL     OW19430   2.745   5.248   2.274
  763SOL    HW119431   2.669   5.279   2.224
  763SOL    HW219432   2.735   5.153   2.276
  764SOL     OW19433   6.380   3.304   1.246
  764SOL    HW119434   6.328   3.225   1.229
  764SOL    HW219435   6.403   3.335   1.159
  765SOL     OW19436   1.647   0.410   1.928
  765SOL    HW119437   1.733   0.390   1.967
  765SOL    HW219438   1.668   0.457   1.847
  766SOL     OW19439   4.601   2.782   1.530
  766SOL    HW119440   4.512   2.809   1.553
  766SOL    HW219441   4.637   2.746   1.611
  767SOL     OW19442   5.555   4.619   2.196
  767SOL    HW119443   5.637   4.669   2.191
  767SOL    HW219444   5.502   4.653   2.123
  768SOL     OW19445   0.061   0.991   1.702
  768SOL    HW119446   0.069   1.022   1.792
  768SOL    HW219447   0.094   1.063   1.648
  769SOL     OW19448   6.404   0.055   6.457
  769SOL    HW119449   6.390   0.045   6.551
  769SOL    HW219450   6.413   6.452   6.424
  770SOL     OW19451   1.732   3.761   2.490
  770SOL    HW119452   1.785   3.840   2.479
  770SOL    HW219453   1.795   3.689   2.491
  771SOL     OW19454   4.766   3.769   6.382
  771SOL    HW119455   4.768   3.787   6.476
  771SOL    HW219456   4.743   3.677   6.375
  772SOL     OW19457   1.160   2.263   0.109
  772SOL    HW119458   1.225   2.287   0.042
  772SOL    HW219459   1.156   2.168   0.104
  773SOL     OW19460   1.684   0.552   5.346
  773SOL    HW119461   1.597   0.592   5.347
  773SOL    HW219462   1.728   0.592   5.271
  774SOL     OW19463   5.731   3.958   1.808
  774SOL    HW119464   5.700   4.038   1.850
  774SOL    HW219465   5.827   3.967   1.808
  775SOL     OW19466   0.242   1.706   1.927
  775SOL    HW119467   0.241   1.801   1.916
  775SOL    HW219468   0.275   1.673   1.844
  776SOL     OW19469   5.720   3.620   5.986
  776SOL    HW119470   5.676   3.537   6.004
  776SOL    HW219471   5.723   3.624   5.890
  777SOL     OW19472   1.366   4.206   7.309
  777SOL    HW119473   1.364   4.153   7.230
  777SOL    HW219474   1.394   4.146   7.378
  778SOL     OW19475   4.703   4.602   0.669
  778SOL    HW119476   4.770   4.555   0.619
  778SOL    HW219477   4.620   4.576   0.628
  779SOL     OW19478   5.641   0.786   0.621
  779SOL    HW119479   5.668   0.701   0.655
  779SOL    HW219480   5.657   0.780   0.526
  780SOL     OW19481   2.133   5.900   7.460
  780SOL    HW119482   2.203   5.836   7.478
  780SOL    HW219483   2.053   5.848   7.459
  781SOL     OW19484   1.635   4.339   6.441
  781SOL    HW119485   1.551   4.315   6.403
  781SOL    HW219486   1.614   4.371   6.528
  782SOL     OW19487   4.830   3.325   2.178
  782SOL    HW119488   4.777   3.403   2.194
  782SOL    HW219489   4.921   3.356   2.180
  783SOL     OW19490   0.840   5.365   6.782
  783SOL    HW119491   0.748   5.359   6.807
  783SOL    HW219492   0.857   5.459   6.774
  784SOL     OW19493   1.270   0.971   7.059
  784SOL    HW119494   1.301   1.061   7.052
  784SOL    HW219495   1.271   0.938   6.969
  785SOL     OW19496   2.814   2.782   7.245
  785SOL    HW119497   2.786   2.819   7.328
  785SOL    HW219498   2.733   2.775   7.194
  786SOL     OW19499   1.984   3.336   0.724
  786SOL    HW119500   2.067   3.305   0.686
  786SOL    HW219501   1.924   3.262   0.712
  787SOL     OW19502   1.312   4.038   0.824
  787SOL    HW119503   1.354   4.053   0.908
  787SOL    HW219504   1.245   4.107   0.818
  788SOL     OW19505   3.455   0.812   1.642
  788SOL    HW119506   3.496   0.897   1.628
  788SOL    HW219507   3.380   0.811   1.583
  789SOL     OW19508   0.857   3.287   6.380
  789SOL    HW119509   0.907   3.239   6.314
  789SOL    HW219510   0.907   3.367   6.393
  790SOL     OW19511   6.121   4.875   2.312
  790SOL    HW119512   6.036   4.897   2.276
  790SOL    HW219513   6.101   4.835   2.397
  791SOL     OW19514   5.629   2.301   1.862
  791SOL    HW119515   5.547   2.322   1.817
  791SOL    HW219516   5.697   2.334   1.803
  792SOL     OW19517   4.270   1.760   0.466
  792SOL    HW119518   4.242   1.759   0.374
  792SOL    HW219519   4.214   1.695   0.509
  793SOL     OW19520   2.064   2.115   0.915
  793SOL    HW119521   1.982   2.070   0.897
  793SOL    HW219522   2.049   2.204   0.884
  794SOL     OW19523   2.481   2.364   6.384
  794SOL    HW119524   2.523   2.450   6.394
  794SOL    HW219525   2.411   2.380   6.320
  795SOL     OW19526   2.941   5.190   1.440
  795SOL    HW119527   3.011   5.212   1.379
  795SOL    HW219528   2.860   5.206   1.391
  796SOL     OW19529   3.122   1.958   0.650
  796SOL    HW119530   3.077   1.981   0.731
  796SOL    HW219531   3.180   2.032   0.632
  797SOL     OW19532   2.592   3.493   7.254
  797SOL    HW119533   2.661   3.430   7.235
  797SOL    HW219534   2.614   3.528   7.340
  798SOL     OW19535   3.107   3.659   5.929
  798SOL    HW119536   3.093   3.585   5.869
  798SOL    HW219537   3.084   3.736   5.876
  799SOL     OW19538   1.790   5.420   0.069
  799SOL    HW119539   1.790   5.388   7.755
  799SOL    HW219540   1.698   5.425   0.094
  800SOL     OW19541   2.290   1.017   6.967
  800SOL    HW119542   2.385   1.024   6.955
  800SOL    HW219543   2.262   1.107   6.986
  801SOL     OW19544   5.728   0.216   0.639
  801SOL    HW119545   5.692   0.131   0.615
  801SOL    HW219546   5.779   0.200   0.718
  802SOL     OW19547   1.266   3.262   0.945
  802SOL    HW119548   1.185   3.234   0.903
  802SOL    HW219549   1.247   3.351   0.976
  803SOL     OW19550   5.614   4.262   1.855
  803SOL    HW119551   5.640   4.247   1.946
  803SOL    HW219552   5.589   4.354   1.853
  804SOL     OW19553   4.010   1.345   1.123
  804SOL    HW119554   3.958   1.362   1.201
  804SOL    HW219555   3.968   1.397   1.054
  805SOL     OW19556   4.295   5.778   1.665
  805SOL    HW119557   4.324   5.760   1.754
  805SOL    HW219558   4.201   5.792   1.672
  806SOL     OW19559   3.815   0.063   6.691
  806SOL    HW119560   3.860   0.046   6.608
  806SOL    HW219561   3.753   6.477   6.700
  807SOL     OW19562   0.197   4.186   5.917
  807SOL    HW119563   0.255   4.258   5.892
  807SOL    HW219564   0.240   4.146   5.993
  808SOL     OW19565   4.112   0.468   6.549
  808SOL    HW119566   4.018   0.482   6.562
  808SOL    HW219567   4.119   0.376   6.521
  809SOL     OW19568   4.832   2.734   0.524
  809SOL    HW119569   4.869   2.814   0.561
  809SOL    HW219570   4.764   2.709   0.587
  810SOL     OW19571   2.150   2.798   7.720
  810SOL    HW119572   2.159   2.808   7.625
  810SOL    HW219573   2.226   2.747   7.746
  811SOL     OW19574   5.609   5.068   7.459
  811SOL    HW119575   5.629   5.044   7.369
  811SOL    HW219576   5.640   5.158   7.468
  812SOL     OW19577   5.251   4.334   6.794
  812SOL    HW119578   5.277   4.339   6.702
  812SOL    HW219579   5.172   4.388   6.799
  813SOL     OW19580   0.748   1.245   6.143
  813SOL    HW119581   0.692   1.290   6.080
  813SOL    HW219582   0.722   1.153   6.136
  814SOL     OW19583   5.403   3.189   1.645
  814SOL    HW119584   5.453   3.115   1.680
  814SOL    HW219585   5.346   3.216   1.717
  815SOL     OW19586   4.263   6.467   6.644
  815SOL    HW119587   4.310   6.398   6.598
  815SOL    HW219588   4.172   6.436   6.648
  816SOL     OW19589   2.931   5.285   7.334
  816SOL    HW119590   2.989   5.235   7.276
  816SOL    HW219591   2.887   5.217   7.386
  817SOL     OW19592   0.722   5.962   5.516
  817SOL    HW119593   0.669   5.971   5.436
  817SOL    HW219594   0.785   6.033   5.511
  818SOL     OW19595   5.903   3.972   7.061
  818SOL    HW119596   5.992   4.004   7.078
  818SOL    HW219597   5.846   4.032   7.109
  819SOL     OW19598   0.112   1.388   1.278
  819SOL    HW119599   0.107   1.483   1.284
  819SOL    HW219600   0.199   1.366   1.313
  820SOL     OW19601   1.314   0.807   6.482
  820SOL    HW119602   1.329   0.901   6.490
  820SOL    HW219603   1.400   0.768   6.495
  821SOL     OW19604   0.208   0.732   2.270
  821SOL    HW119605   0.204   0.787   2.191
  821SOL    HW219606   0.301   0.710   2.279
  822SOL     OW19607   4.460   4.156   6.310
  822SOL    HW119608   4.552   4.131   6.298
  822SOL    HW219609   4.446   4.228   6.249
  823SOL     OW19610   5.367   2.350   1.444
  823SOL    HW119611   5.281   2.366   1.405
  823SOL    HW219612   5.392   2.263   1.414
  824SOL     OW19613   5.114   4.667   1.597
  824SOL    HW119614   5.076   4.751   1.622
  824SOL    HW219615   5.146   4.630   1.679
  825SOL     OW19616   3.047   0.983   7.009
  825SOL    HW119617   2.992   1.058   6.988
  825SOL    HW219618   3.080   0.953   6.924
  826SOL     OW19619   3.892   0.071   5.263
  826SOL    HW119620   3.902   6.463   5.249
  826SOL    HW219621   3.802   0.090   5.235
  827SOL     OW19622   2.336   2.201   0.960
  827SOL    HW119623   2.256   2.176   0.915
  827SOL    HW219624   2.306   2.240   1.042
  828SOL     OW19625   3.172   3.929   1.352
  828SOL    HW119626   3.155   4.023   1.347
  828SOL    HW219627   3.131   3.893   1.273
  829SOL     OW19628   5.251   5.904   5.712
  829SOL    HW119629   5.194   5.847   5.661
  829SOL    HW219630   5.327   5.918   5.656
  830SOL     OW19631   3.128   0.760   7.174
  830SOL    HW119632   3.169   0.777   7.089
  830SOL    HW219633   3.071   0.836   7.189
  831SOL     OW19634   1.900   2.052   7.283
  831SOL    HW119635   1.833   2.119   7.265
  831SOL    HW219636   1.954   2.091   7.352
  832SOL     OW19637   3.673   5.293   6.971
  832SOL    HW119638   3.591   5.326   6.935
  832SOL    HW219639   3.692   5.214   6.921
  833SOL     OW19640   0.060   0.345   0.438
  833SOL    HW119641   0.034   0.292   0.363
  833SOL    HW219642   0.130   0.295   0.480
  834SOL     OW19643   2.643   0.112   7.425
  834SOL    HW119644   2.577   0.083   7.488
  834SOL    HW219645   2.672   0.198   7.458
  835SOL     OW19646   4.993   3.153   1.974
  835SOL    HW119647   5.074   3.167   2.023
  835SOL    HW219648   4.975   3.238   1.933
  836SOL     OW19649   6.430   6.136   7.022
  836SOL    HW119650   6.353   6.138   7.078
  836SOL    HW219651   6.472   6.221   7.036
  837SOL     OW19652   5.850   0.586   7.015
  837SOL    HW119653   5.765   0.625   6.997
  837SOL    HW219654   5.907   0.621   6.947
  838SOL     OW19655   5.185   2.803   7.507
  838SOL    HW119656   5.240   2.801   7.585
  838SOL    HW219657   5.204   2.720   7.462
  839SOL     OW19658   1.753   3.725   2.024
  839SOL    HW119659   1.709   3.784   2.085
  839SOL    HW219660   1.682   3.688   1.972
  840SOL     OW19661   4.333   4.611   6.346
  840SOL    HW119662   4.408   4.637   6.292
  840SOL    HW219663   4.371   4.592   6.432
  841SOL     OW19664   3.781   0.724   0.594
  841SOL    HW119665   3.770   0.724   0.499
  841SOL    HW219666   3.872   0.751   0.608
  842SOL     OW19667   3.619   4.720   2.330
  842SOL    HW119668   3.525   4.730   2.349
  842SOL    HW219669   3.651   4.810   2.323
  843SOL     OW19670   2.014   2.431   7.350
  843SOL    HW119671   2.056   2.345   7.347
  843SOL    HW219672   2.009   2.452   7.443
  844SOL     OW19673   1.580   1.785   7.307
  844SOL    HW119674   1.503   1.789   7.363
  844SOL    HW219675   1.620   1.872   7.314
  845SOL     OW19676   5.117   4.544   1.019
  845SOL    HW119677   5.055   4.527   0.947
  845SOL    HW219678   5.071   4.605   1.076
  846SOL     OW19679   1.754   5.140   1.119
  846SOL    HW119680   1.735   5.167   1.029
  846SOL    HW219681   1.806   5.060   1.110
  847SOL     OW19682   1.451   2.071   0.642
  847SOL    HW119683   1.528   2.116   0.607
  847SOL    HW219684   1.467   1.978   0.626
  848SOL     OW19685   4.927   1.600   1.014
  848SOL    HW119686   4.972   1.667   0.963
  848SOL    HW219687   4.979   1.521   0.999
  849SOL     OW19688   4.510   3.881   6.700
  849SOL    HW119689   4.508   3.963   6.650
  849SOL    HW219690   4.597   3.845   6.684
  850SOL     OW19691   5.446   3.334   7.350
  850SOL    HW119692   5.423   3.257   7.297
  850SOL    HW219693   5.382   3.400   7.325
  851SOL     OW19694   0.391   1.496   6.234
  851SOL    HW119695   0.346   1.416   6.261
  851SOL    HW219696   0.358   1.513   6.146
  852SOL     OW19697   4.227   0.411   2.523
  852SOL    HW119698   4.261   0.323   2.539
  852SOL    HW219699   4.143   0.397   2.480
  853SOL     OW19700   5.834   3.505   1.498
  853SOL    HW119701   5.829   3.441   1.427
  853SOL    HW219702   5.764   3.567   1.480
  854SOL     OW19703   2.897   2.101   1.883
  854SOL    HW119704   2.921   2.193   1.874
  854SOL    HW219705   2.903   2.084   1.977
  855SOL     OW19706   0.784   6.088   0.686
  855SOL    HW119707   0.726   6.030   0.638
  855SOL    HW219708   0.730   6.126   0.755
  856SOL     OW19709   4.021   5.988   0.056
  856SOL    HW119710   3.935   6.021   0.083
  856SOL    HW219711   4.055   6.055   7.772
  857SOL     OW19712   3.367   0.004   0.933
  857SOL    HW119713   3.403   6.402   0.926
  857SOL    HW219714   3.429   0.060   0.888
  858SOL     OW19715   4.598   6.448   0.087
  858SOL    HW119716   4.667   6.453   0.153
  858SOL    HW219717   4.562   6.360   0.097
  859SOL     OW19718   2.467   1.124   1.103
  859SOL    HW119719   2.474   1.211   1.065
  859SOL    HW219720   2.375   1.116   1.126
  860SOL     OW19721   2.596   3.893   0.790
  860SOL    HW119722   2.641   3.976   0.804
  860SOL    HW219723   2.541   3.908   0.713
  861SOL     OW19724   4.674   2.605   5.720
  861SOL    HW119725   4.614   2.555   5.775
  861SOL    HW219726   4.687   2.552   5.642
  862SOL     OW19727   5.603   5.962   1.796
  862SOL    HW119728   5.542   6.031   1.826
  862SOL    HW219729   5.575   5.884   1.844
  863SOL     OW19730   1.609   5.483   1.876
  863SOL    HW119731   1.633   5.528   1.957
  863SOL    HW219732   1.655   5.533   1.808
  864SOL     OW19733   5.628   6.166   0.968
  864SOL    HW119734   5.712   6.147   1.009
  864SOL    HW219735   5.598   6.246   1.010
  865SOL     OW19736   2.613   4.543   1.868
  865SOL    HW119737   2.654   4.476   1.813
  865SOL    HW219738   2.682   4.568   1.930
  866SOL     OW19739   1.332   1.281   7.571
  866SOL    HW119740   1.280   1.336   7.513
  866SOL    HW219741   1.310   1.192   7.547
  867SOL     OW19742   1.855   3.648   6.914
  867SOL    HW119743   1.762   3.658   6.892
  867SOL    HW219744   1.855   3.594   6.993
  868SOL     OW19745   0.305   2.623   0.461
  868SOL    HW119746   0.267   2.708   0.483
  868SOL    HW219747   0.379   2.613   0.520
  869SOL     OW19748   2.769   2.794   7.539
  869SOL    HW119749   2.796   2.864   7.598
  869SOL    HW219750   2.678   2.776   7.563
  870SOL     OW19751   0.343   5.691   0.744
  870SOL    HW119752   0.417   5.720   0.690
  870SOL    HW219753   0.345   5.750   0.819
  871SOL     OW19754   3.133   2.346   6.120
  871SOL    HW119755   3.129   2.361   6.214
  871SOL    HW219756   3.195   2.412   6.088
  872SOL     OW19757   2.508   0.228   1.748
  872SOL    HW119758   2.443   0.175   1.794
  872SOL    HW219759   2.467   0.315   1.741
  873SOL     OW19760   4.073   2.851   6.002
  873SOL    HW119761   4.000   2.791   6.017
  873SOL    HW219762   4.090   2.844   5.908
  874SOL     OW19763   5.702   6.146   0.522
  874SOL    HW119764   5.682   6.164   0.430
  874SOL    HW219765   5.616   6.137   0.564
  875SOL     OW19766   1.190   6.376   0.461
  875SOL    HW119767   1.217   6.399   0.372
  875SOL    HW219768   1.137   6.450   0.490
  876SOL     OW19769   0.210   4.140   1.067
  876SOL    HW119770   0.140   4.187   1.022
  876SOL    HW219771   0.174   4.119   1.153
  877SOL     OW19772   1.362   6.347   0.696
  877SOL    HW119773   1.436   6.325   0.639
  877SOL    HW219774   1.286   6.346   0.637
  878SOL     OW19775   5.715   4.449   7.352
  878SOL    HW119776   5.766   4.475   7.275
  878SOL    HW219777   5.629   4.425   7.316
  879SOL     OW19778   0.740   3.821   1.036
  879SOL    HW119779   0.692   3.743   1.064
  879SOL    HW219780   0.796   3.843   1.110
  880SOL     OW19781   5.988   6.414   0.582
  880SOL    HW119782   5.964   6.341   0.639
  880SOL    HW219783   5.969   6.382   0.494
  881SOL     OW19784   4.179   5.670   7.690
  881SOL    HW119785   4.217   5.758   7.682
  881SOL    HW219786   4.127   5.659   7.610
  882SOL     OW19787   4.944   2.699   7.085
  882SOL    HW119788   5.004   2.640   7.040
  882SOL    HW219789   4.883   2.727   7.016
  883SOL     OW19790   4.521   0.373   1.115
  883SOL    HW119791   4.598   0.426   1.137
  883SOL    HW219792   4.517   0.377   1.019
  884SOL     OW19793   5.753   4.799   2.140
  884SOL    HW119794   5.767   4.887   2.174
  884SOL    HW219795   5.734   4.812   2.047
  885SOL     OW19796   6.129   5.382   1.737
  885SOL    HW119797   6.091   5.374   1.824
  885SOL    HW219798   6.219   5.351   1.747
  886SOL     OW19799   6.201   0.373   6.877
  886SOL    HW119800   6.198   0.306   6.809
  886SOL    HW219801   6.110   0.391   6.898
  887SOL     OW19802   1.493   1.550   7.595
  887SOL    HW119803   1.570   1.574   7.647
  887SOL    HW219804   1.521   1.472   7.546
  888SOL     OW19805   3.611   0.343   5.404
  888SOL    HW119806   3.555   0.416   5.378
  888SOL    HW219807   3.617   0.349   5.499
  889SOL     OW19808   2.778   1.074   7.167
  889SOL    HW119809   2.791   1.085   7.073
  889SOL    HW219810   2.684   1.085   7.179
  890SOL     OW19811   3.966   6.015   7.501
  890SOL    HW119812   3.911   6.067   7.559
  890SOL    HW219813   3.921   6.018   7.417
  891SOL     OW19814   3.593   4.964   1.756
  891SOL    HW119815   3.514   5.011   1.782
  891SOL    HW219816   3.566   4.909   1.684
  892SOL     OW19817   4.725   0.625   5.905
  892SOL    HW119818   4.702   0.535   5.925
  892SOL    HW219819   4.688   0.640   5.818
  893SOL     OW19820   4.398   4.974   0.090
  893SOL    HW119821   4.304   4.990   0.104
  893SOL    HW219822   4.425   5.045   0.031
  894SOL     OW19823   2.296   1.455   2.086
  894SOL    HW119824   2.379   1.502   2.096
  894SOL    HW219825   2.230   1.523   2.075
  895SOL     OW19826   4.090   2.196   5.522
  895SOL    HW119827   4.004   2.233   5.545
  895SOL    HW219828   4.112   2.237   5.439
  896SOL     OW19829   0.364   4.047   1.911
  896SOL    HW119830   0.371   4.118   1.975
  896SOL    HW219831   0.455   4.020   1.896
  897SOL     OW19832   3.613   3.398   1.020
  897SOL    HW119833   3.663   3.317   1.035
  897SOL    HW219834   3.662   3.466   1.066
  898SOL     OW19835   1.359   1.255   6.104
  898SOL    HW119836   1.325   1.266   6.015
  898SOL    HW219837   1.439   1.204   6.094
  899SOL     OW19838   2.242   2.852   5.334
  899SOL    HW119839   2.331   2.832   5.307
  899SOL    HW219840   2.203   2.896   5.259
  900SOL     OW19841   5.256   0.213   0.077
  900SOL    HW119842   5.296   0.296   0.052
  900SOL    HW219843   5.303   0.147   0.027
  901SOL     OW19844   2.782   4.869   0.026
  901SOL    HW119845   2.765   4.896   0.117
  901SOL    HW219846   2.717   4.917   7.750
  902SOL     OW19847   6.449   1.761   1.487
  902SOL    HW119848   6.453   1.855   1.509
  902SOL    HW219849   0.045   1.744   1.442
  903SOL     OW19850   1.846   3.781   1.010
  903SOL    HW119851   1.892   3.713   0.961
  903SOL    HW219852   1.753   3.762   0.996
  904SOL     OW19853   2.573   6.451   0.506
  904SOL    HW119854   2.623   0.046   0.520
  904SOL    HW219855   2.558   6.418   0.595
  905SOL     OW19856   4.095   5.038   0.138
  905SOL    HW119857   4.055   4.959   0.174
  905SOL    HW219858   4.049   5.053   0.055
  906SOL     OW19859   4.689   1.716   5.707
  906SOL    HW119860   4.677   1.810   5.720
  906SOL    HW219861   4.774   1.697   5.745
  907SOL     OW19862   3.121   6.186   7.406
  907SOL    HW119863   3.097   6.271   7.443
  907SOL    HW219864   3.165   6.207   7.324
  908SOL     OW19865   4.646   5.875   0.765
  908SOL    HW119866   4.652   5.908   0.676
  908SOL    HW219867   4.632   5.953   0.819
  909SOL     OW19868   0.945   5.800   6.101
  909SOL    HW119869   0.992   5.803   6.184
  909SOL    HW219870   1.004   5.841   6.038
  910SOL     OW19871   4.863   5.307   5.864
  910SOL    HW119872   4.877   5.380   5.923
  910SOL    HW219873   4.945   5.301   5.814
  911SOL     OW19874   5.176   5.923   0.056
  911SOL    HW119875   5.208   5.839   0.087
  911SOL    HW219876   5.246   5.985   0.076
  912SOL     OW19877   2.035   5.183   7.086
  912SOL    HW119878   1.942   5.166   7.099
  912SOL    HW219879   2.040   5.228   7.002
  913SOL     OW19880   1.244   6.281   2.685
  913SOL    HW119881   1.153   6.253   2.691
  913SOL    HW219882   1.241   6.360   2.631
  914SOL     OW19883   4.099   3.151   7.456
  914SOL    HW119884   4.082   3.162   7.549
  914SOL    HW219885   4.015   3.167   7.413
  915SOL     OW19886   0.492   1.204   7.356
  915SOL    HW119887   0.502   1.124   7.304
  915SOL    HW219888   0.464   1.173   7.442
  916SOL     OW19889   2.566   3.345   6.759
  916SOL    HW119890   2.557   3.423   6.704
  916SOL    HW219891   2.506   3.361   6.832
  917SOL     OW19892   3.028   2.817   5.928
  917SOL    HW119893   3.118   2.843   5.949
  917SOL    HW219894   2.989   2.894   5.887
  918SOL     OW19895   2.356   5.235   6.214
  918SOL    HW119896   2.287   5.211   6.276
  918SOL    HW219897   2.421   5.281   6.266
  919SOL     OW19898   2.137   6.342   1.450
  919SOL    HW119899   2.082   6.274   1.410
  919SOL    HW219900   2.158   6.401   1.377
  920SOL     OW19901   5.924   3.784   0.600
  920SOL    HW119902   5.929   3.867   0.647
  920SOL    HW219903   5.917   3.717   0.668
  921SOL     OW19904   3.619   4.543   0.293
  921SOL    HW119905   3.634   4.502   0.208
  921SOL    HW219906   3.546   4.603   0.278
  922SOL     OW19907   6.245   2.115   6.623
  922SOL    HW119908   6.268   2.183   6.560
  922SOL    HW219909   6.164   2.077   6.588
  923SOL     OW19910   2.106   2.426   1.010
  923SOL    HW119911   2.141   2.398   1.095
  923SOL    HW219912   2.137   2.516   0.999
  924SOL     OW19913   2.207   2.671   6.491
  924SOL    HW119914   2.127   2.697   6.446
  924SOL    HW219915   2.222   2.581   6.463
  925SOL     OW19916   6.312   5.419   7.717
  925SOL    HW119917   6.264   5.346   7.757
  925SOL    HW219918   6.310   5.400   7.623
  926SOL     OW19919   3.661   0.224   1.893
  926SOL    HW119920   3.602   0.299   1.905
  926SOL    HW219921   3.698   0.237   1.805
  927SOL     OW19922   4.358   6.350   0.002
  927SOL    HW119923   4.372   6.291   0.076
  927SOL    HW219924   4.412   6.426   0.021
  928SOL     OW19925   2.046   5.278   7.540
  928SOL    HW119926   2.094   5.345   7.589
  928SOL    HW219927   2.096   5.266   7.460
  929SOL     OW19928   1.096   3.696   5.955
  929SOL    HW119929   1.105   3.622   6.014
  929SOL    HW219930   1.026   3.749   5.994
  930SOL     OW19931   5.893   3.038   7.257
  930SOL    HW119932   5.962   3.032   7.323
  930SOL    HW219933   5.897   3.129   7.227
  931SOL     OW19934   0.272   5.324   7.626
  931SOL    HW119935   0.207   5.393   7.640
  931SOL    HW219936   0.273   5.274   7.707
  932SOL     OW19937   3.023   5.968   2.270
  932SOL    HW119938   2.980   6.010   2.195
  932SOL    HW219939   2.962   5.899   2.296
  933SOL     OW19940   6.411   0.515   6.799
  933SOL    HW119941   6.329   0.476   6.829
  933SOL    HW219942   6.478   0.451   6.821
  934SOL     OW19943   2.659   3.226   6.231
  934SOL    HW119944   2.614   3.258   6.153
  934SOL    HW219945   2.734   3.284   6.242
  935SOL     OW19946   4.393   6.166   7.453
  935SOL    HW119947   4.350   6.172   7.367
  935SOL    HW219948   4.322   6.148   7.514
  936SOL     OW19949   3.727   1.913   0.774
  936SOL    HW119950   3.777   1.934   0.852
  936SOL    HW219951   3.712   1.818   0.780
  937SOL     OW19952   1.815   5.509   5.665
  937SOL    HW119953   1.872   5.453   5.611
  937SOL    HW219954   1.798   5.586   5.610
  938SOL     OW19955   3.690   3.492   0.773
  938SOL    HW119956   3.659   3.441   0.848
  938SOL    HW219957   3.675   3.583   0.799
  939SOL     OW19958   1.544   0.300   1.028
  939SOL    HW119959   1.612   0.238   1.002
  939SOL    HW219960   1.497   0.320   0.947
  940SOL     OW19961   5.856   1.418   7.220
  940SOL    HW119962   5.872   1.365   7.298
  940SOL    HW219963   5.769   1.456   7.234
  941SOL     OW19964   6.230   5.246   6.080
  941SOL    HW119965   6.324   5.228   6.073
  941SOL    HW219966   6.225   5.339   6.103
  942SOL     OW19967   5.583   1.247   0.792
  942SOL    HW119968   5.534   1.293   0.861
  942SOL    HW219969   5.578   1.155   0.817
  943SOL     OW19970   0.290   6.212   0.084
  943SOL    HW119971   0.198   6.191   0.099
  943SOL    HW219972   0.308   6.180   7.771
  944SOL     OW19973   3.735   3.952   5.532
  944SOL    HW119974   3.669   3.947   5.602
  944SOL    HW219975   3.818   3.960   5.578
  945SOL     OW19976   2.747   1.373   7.133
  945SOL    HW119977   2.725   1.372   7.039
  945SOL    HW219978   2.807   1.299   7.144
  946SOL     OW19979   3.297   3.761   7.663
  946SOL    HW119980   3.387   3.793   7.658
  946SOL    HW219981   3.260   3.779   7.576
  947SOL     OW19982   5.086   4.007   5.907
  947SOL    HW119983   5.050   3.999   5.818
  947SOL    HW219984   5.058   3.927   5.951
  948SOL     OW19985   1.925   2.373   1.889
  948SOL    HW119986   1.929   2.309   1.818
  948SOL    HW219987   1.856   2.435   1.861
  949SOL     OW19988   3.714   4.982   2.259
  949SOL    HW119989   3.652   5.055   2.254
  949SOL    HW219990   3.787   5.007   2.202
  950SOL     OW19991   3.121   2.615   1.022
  950SOL    HW119992   3.172   2.651   1.095
  950SOL    HW219993   3.085   2.691   0.978
  951SOL     OW19994   1.023   3.453   7.604
  951SOL    HW119995   0.972   3.533   7.600
  951SOL    HW219996   1.112   3.479   7.580
  952SOL     OW19997   2.374   4.048   7.628
  952SOL    HW119998   2.448   4.039   7.688
  952SOL    HW219999   2.300   4.072   7.684
  953SOL     OW20000   4.546   5.091   0.317
  953SOL    HW120001   4.501   5.062   0.396
  953SOL    HW220002   4.477   5.098   0.251
  954SOL     OW20003   4.173   3.803   5.845
  954SOL    HW120004   4.115   3.754   5.787
  954SOL    HW220005   4.252   3.819   5.793
  955SOL     OW20006   4.723   4.784   7.063
  955SOL    HW120007   4.804   4.829   7.038
  955SOL    HW220008   4.654   4.849   7.049
  956SOL     OW20009   1.571   6.370   1.478
  956SOL    HW120010   1.640   6.412   1.528
  956SOL    HW220011   1.605   6.283   1.459
  957SOL     OW20012   1.275   0.166   7.334
  957SOL    HW120013   1.192   0.170   7.285
  957SOL    HW220014   1.295   0.257   7.355
  958SOL     OW20015   5.862   3.938   5.667
  958SOL    HW120016   5.777   3.925   5.624
  958SOL    HW220017   5.907   4.003   5.613
  959SOL     OW20018   5.130   2.580   6.916
  959SOL    HW120019   5.143   2.603   6.824
  959SOL    HW220020   5.218   2.566   6.951
  960SOL     OW20021   5.530   1.658   2.569
  960SOL    HW120022   5.617   1.635   2.536
  960SOL    HW220023   5.529   1.754   2.570
  961SOL     OW20024   6.218   5.782   0.403
  961SOL    HW120025   6.175   5.837   0.337
  961SOL    HW220026   6.237   5.700   0.358
  962SOL     OW20027   0.105   5.452   7.083
  962SOL    HW120028   0.085   5.420   6.995
  962SOL    HW220029   0.090   5.546   7.078
  963SOL     OW20030   5.449   1.040   6.154
  963SOL    HW120031   5.472   1.011   6.065
  963SOL    HW220032   5.487   1.128   6.161
  964SOL     OW20033   0.470   0.080   0.253
  964SOL    HW120034   0.505   0.143   0.316
  964SOL    HW220035   0.505   0.109   0.169
  965SOL     OW20036   4.078   3.285   1.300
  965SOL    HW120037   4.119   3.238   1.227
  965SOL    HW220038   4.093   3.228   1.376
  966SOL     OW20039   1.881   2.218   6.114
  966SOL    HW120040   1.906   2.172   6.034
  966SOL    HW220041   1.950   2.196   6.176
  967SOL     OW20042   3.047   2.695   0.311
  967SOL    HW120043   3.049   2.788   0.288
  967SOL    HW220044   3.005   2.692   0.397
  968SOL     OW20045   2.566   4.231   0.576
  968SOL    HW120046   2.634   4.166   0.592
  968SOL    HW220047   2.510   4.192   0.509
  969SOL     OW20048   1.963   2.688   0.134
  969SOL    HW120049   2.000   2.724   0.214
  969SOL    HW220050   2.024   2.715   0.065
  970SOL     OW20051   3.504   5.973   1.334
  970SOL    HW120052   3.502   6.034   1.408
  970SOL    HW220053   3.469   6.023   1.261
  971SOL     OW20054   1.270   5.211   6.572
  971SOL    HW120055   1.216   5.173   6.503
  971SOL    HW220056   1.335   5.264   6.526
  972SOL     OW20057   0.303   4.530   1.898
  972SOL    HW120058   0.210   4.541   1.914
  972SOL    HW220059   0.340   4.508   1.984
  973SOL     OW20060   2.648   4.383   1.161
  973SOL    HW120061   2.683   4.309   1.112
  973SOL    HW220062   2.680   4.371   1.250
  974SOL     OW20063   2.684   1.724   7.620
  974SOL    HW120064   2.766   1.677   7.605
  974SOL    HW220065   2.645   1.733   7.533
  975SOL     OW20066   5.238   6.225   1.194
  975SOL    HW120067   5.199   6.268   1.117
  975SOL    HW220068   5.261   6.138   1.163
  976SOL     OW20069   4.329   3.752   0.297
  976SOL    HW120070   4.279   3.773   0.376
  976SOL    HW220071   4.347   3.658   0.304
  977SOL     OW20072   1.269   4.358   1.222
  977SOL    HW120073   1.189   4.348   1.171
  977SOL    HW220074   1.250   4.428   1.284
  978SOL     OW20075   0.645   1.313   6.477
  978SOL    HW120076   0.685   1.313   6.391
  978SOL    HW220077   0.628   1.220   6.496
  979SOL     OW20078   1.156   3.043   0.009
  979SOL    HW120079   1.111   3.127   0.009
  979SOL    HW220080   1.206   3.042   0.091
  980SOL     OW20081   0.717   5.092   1.325
  980SOL    HW120082   0.735   4.998   1.327
  980SOL    HW220083   0.722   5.115   1.232
  981SOL     OW20084   0.609   6.126   1.640
  981SOL    HW120085   0.616   6.211   1.684
  981SOL    HW220086   0.542   6.079   1.688
  982SOL     OW20087   2.419   0.738   0.497
  982SOL    HW120088   2.385   0.680   0.565
  982SOL    HW220089   2.376   0.709   0.417
  983SOL     OW20090   5.289   2.253   7.190
  983SOL    HW120091   5.307   2.213   7.275
  983SOL    HW220092   5.212   2.206   7.158
  984SOL     OW20093   3.693   2.717   7.537
  984SOL    HW120094   3.619   2.760   7.580
  984SOL    HW220095   3.733   2.786   7.483
  985SOL     OW20096   5.153   4.204   0.634
  985SOL    HW120097   5.203   4.256   0.571
  985SOL    HW220098   5.154   4.115   0.599
  986SOL     OW20099   5.092   6.163   5.766
  986SOL    HW120100   5.138   6.088   5.728
  986SOL    HW220101   5.159   6.210   5.816
  987SOL     OW20102   0.890   1.841   7.023
  987SOL    HW120103   0.977   1.820   7.056
  987SOL    HW220104   0.830   1.815   7.093
  988SOL     OW20105   5.344   5.897   0.721
  988SOL    HW120106   5.399   5.937   0.788
  988SOL    HW220107   5.298   5.827   0.767
  989SOL     OW20108   3.239   0.458   1.210
  989SOL    HW120109   3.203   0.445   1.122
  989SOL    HW220110   3.308   0.392   1.218
  990SOL     OW20111   5.917   0.119   6.125
  990SOL    HW120112   5.858   0.054   6.085
  990SOL    HW220113   6.005   0.088   6.102
  991SOL     OW20114   3.588   1.020   1.510
  991SOL    HW120115   3.621   0.931   1.497
  991SOL    HW220116   3.665   1.071   1.535
  992SOL     OW20117   2.507   4.602   1.237
  992SOL    HW120118   2.556   4.519   1.237
  992SOL    HW220119   2.507   4.629   1.329
  993SOL     OW20120   5.629   1.377   1.189
  993SOL    HW120121   5.689   1.435   1.234
  993SOL    HW220122   5.674   1.355   1.107
  994SOL     OW20123   5.655   6.214   0.253
  994SOL    HW120124   5.605   6.296   0.253
  994SOL    HW220125   5.703   6.216   0.170
  995SOL     OW20126   5.179   3.012   6.027
  995SOL    HW120127   5.088   2.988   6.010
  995SOL    HW220128   5.200   2.971   6.111
  996SOL     OW20129   2.074   0.573   0.612
  996SOL    HW120130   2.046   0.490   0.649
  996SOL    HW220131   2.154   0.595   0.661
  997SOL     OW20132   1.668   4.894   6.091
  997SOL    HW120133   1.588   4.947   6.092
  997SOL    HW220134   1.637   4.804   6.097
  998SOL     OW20135   3.651   3.641   1.508
  998SOL    HW120136   3.736   3.596   1.501
  998SOL    HW220137   3.630   3.664   1.417
  999SOL     OW20138   6.200   0.649   0.989
  999SOL    HW120139   6.215   0.600   1.070
  999SOL    HW220140   6.284   0.689   0.969
 1000SOL     OW20141   2.979   3.439   1.869
 1000SOL    HW120142   2.895   3.439   1.914
 1000SOL    HW220143   3.043   3.459   1.937
 1001SOL     OW20144   0.214   4.434   0.294
 1001SOL    HW120145   0.145   4.370   0.274
 1001SOL    HW220146   0.291   4.399   0.250
 1002SOL     OW20147   1.235   5.070   6.200
 1002SOL    HW120148   1.255   5.024   6.282
 1002SOL    HW220149   1.198   5.003   6.143
 1003SOL     OW20150   2.099   2.714   5.550
 1003SOL    HW120151   2.150   2.764   5.485
 1003SOL    HW220152   2.086   2.775   5.623
 1004SOL     OW20153   0.875   1.933   6.283
 1004SOL    HW120154   0.898   2.008   6.338
 1004SOL    HW220155   0.890   1.857   6.339
 1005SOL     OW20156   5.261   2.830   5.229
 1005SOL    HW120157   5.252   2.792   5.141
 1005SOL    HW220158   5.345   2.796   5.261
 1006SOL     OW20159   3.990   3.212   1.751
 1006SOL    HW120160   3.972   3.150   1.823
 1006SOL    HW220161   3.943   3.291   1.776
 1007SOL     OW20162   3.089   5.165   6.875
 1007SOL    HW120163   3.133   5.196   6.796
 1007SOL    HW220164   3.022   5.230   6.892
 1008SOL     OW20165   6.198   2.907   0.417
 1008SOL    HW120166   6.162   2.992   0.444
 1008SOL    HW220167   6.292   2.915   0.429
 1009SOL     OW20168   2.056   5.636   0.800
 1009SOL    HW120169   2.020   5.626   0.888
 1009SOL    HW220170   1.981   5.627   0.741
 1010SOL     OW20171   0.474   1.599   7.068
 1010SOL    HW120172   0.553   1.550   7.093
 1010SOL    HW220173   0.428   1.614   7.150
 1011SOL     OW20174   5.449   2.638   7.156
 1011SOL    HW120175   5.372   2.692   7.172
 1011SOL    HW220176   5.522   2.700   7.155
 1012SOL     OW20177   1.262   2.970   6.056
 1012SOL    HW120178   1.168   2.966   6.037
 1012SOL    HW220179   1.300   2.898   6.006
 1013SOL     OW20180   4.361   4.361   6.863
 1013SOL    HW120181   4.271   4.376   6.893
 1013SOL    HW220182   4.415   4.381   6.939
 1014SOL     OW20183   0.348   3.937   0.383
 1014SOL    HW120184   0.405   4.009   0.407
 1014SOL    HW220185   0.364   3.924   0.290
 1015SOL     OW20186   6.309   5.766   0.834
 1015SOL    HW120187   6.402   5.750   0.848
 1015SOL    HW220188   6.267   5.742   0.916
 1016SOL     OW20189   3.124   5.977   6.549
 1016SOL    HW120190   3.101   5.938   6.634
 1016SOL    HW220191   3.202   6.030   6.568
 1017SOL     OW20192   0.632   1.498   0.492
 1017SOL    HW120193   0.674   1.488   0.407
 1017SOL    HW220194   0.610   1.591   0.498
 1018SOL     OW20195   0.776   3.026   0.356
 1018SOL    HW120196   0.820   3.026   0.270
 1018SOL    HW220197   0.747   3.116   0.368
 1019SOL     OW20198   2.802   2.071   0.511
 1019SOL    HW120199   2.782   2.050   0.420
 1019SOL    HW220200   2.823   1.987   0.551
 1020SOL     OW20201   3.438   4.049   1.032
 1020SOL    HW120202   3.353   4.051   0.987
 1020SOL    HW220203   3.482   3.972   0.996
 1021SOL     OW20204   1.740   0.384   6.100
 1021SOL    HW120205   1.650   0.411   6.086
 1021SOL    HW220206   1.790   0.465   6.102
 1022SOL     OW20207   1.406   1.074   6.458
 1022SOL    HW120208   1.469   1.080   6.386
 1022SOL    HW220209   1.437   1.138   6.522
 1023SOL     OW20210   0.753   3.015   5.347
 1023SOL    HW120211   0.706   3.027   5.264
 1023SOL    HW220212   0.819   3.084   5.348
 1024SOL     OW20213   5.537   0.180   7.514
 1024SOL    HW120214   5.618   0.225   7.536
 1024SOL    HW220215   5.526   0.194   7.420
 1025SOL     OW20216   0.486   2.854   7.203
 1025SOL    HW120217   0.552   2.869   7.136
 1025SOL    HW220218   0.430   2.785   7.166
 1026SOL     OW20219   4.982   0.365   2.349
 1026SOL    HW120220   4.934   0.412   2.418
 1026SOL    HW220221   5.073   0.389   2.363
 1027SOL     OW20222   4.906   2.894   7.306
 1027SOL    HW120223   4.915   2.814   7.255
 1027SOL    HW220224   4.973   2.953   7.271
 1028SOL     OW20225   2.608   4.640   6.368
 1028SOL    HW120226   2.659   4.625   6.448
 1028SOL    HW220227   2.651   4.714   6.326
 1029SOL     OW20228   0.202   4.538   7.744
 1029SOL    HW120229   0.157   4.503   0.046
 1029SOL    HW220230   0.158   4.621   7.727
 1030SOL     OW20231   0.281   1.786   6.232
 1030SOL    HW120232   0.281   1.753   6.142
 1030SOL    HW220233   0.238   1.718   6.283
 1031SOL     OW20234   1.837   4.763   7.733
 1031SOL    HW120235   1.808   4.853   7.717
 1031SOL    HW220236   1.834   4.721   7.647
 1032SOL     OW20237   0.331   0.856   1.668
 1032SOL    HW120238   0.385   0.799   1.724
 1032SOL    HW220239   0.243   0.848   1.703
 1033SOL     OW20240   5.528   0.130   5.865
 1033SOL    HW120241   5.434   0.145   5.851
 1033SOL    HW220242   5.569   0.157   5.783
 1034SOL     OW20243   0.553   0.747   0.381
 1034SOL    HW120244   0.515   0.771   0.296
 1034SOL    HW220245   0.527   0.817   0.440
 1035SOL     OW20246   0.205   2.824   6.748
 1035SOL    HW120247   0.144   2.772   6.695
 1035SOL    HW220248   0.273   2.762   6.774
 1036SOL     OW20249   1.442   2.481   1.477
 1036SOL    HW120250   1.402   2.489   1.390
 1036SOL    HW220251   1.389   2.414   1.521
 1037SOL     OW20252   6.061   2.862   1.601
 1037SOL    HW120253   5.972   2.878   1.635
 1037SOL    HW220254   6.048   2.838   1.510
 1038SOL     OW20255   2.951   1.441   1.238
 1038SOL    HW120256   2.998   1.520   1.266
 1038SOL    HW220257   2.864   1.450   1.277
 1039SOL     OW20258   0.228   0.571   6.937
 1039SOL    HW120259   0.245   0.641   6.874
 1039SOL    HW220260   0.200   0.616   7.017
 1040SOL     OW20261   5.630   0.836   6.797
 1040SOL    HW120262   5.616   0.850   6.891
 1040SOL    HW220263   5.628   0.924   6.759
 1041SOL     OW20264   3.628   3.994   5.998
 1041SOL    HW120265   3.710   4.036   5.973
 1041SOL    HW220266   3.633   3.984   6.093
 1042SOL     OW20267   0.950   6.002   7.735
 1042SOL    HW120268   0.959   6.078   0.017
 1042SOL    HW220269   1.017   6.015   7.667
 1043SOL     OW20270   4.629   4.594   1.221
 1043SOL    HW120271   4.537   4.574   1.201
 1043SOL    HW220272   4.666   4.623   1.138
 1044SOL     OW20273   0.768   2.412   1.097
 1044SOL    HW120274   0.863   2.407   1.103
 1044SOL    HW220275   0.751   2.494   1.051
 1045SOL     OW20276   6.037   5.119   0.221
 1045SOL    HW120277   5.963   5.071   0.257
 1045SOL    HW220278   6.066   5.175   0.292
 1046SOL     OW20279   3.541   2.881   6.342
 1046SOL    HW120280   3.595   2.872   6.420
 1046SOL    HW220281   3.599   2.858   6.269
 1047SOL     OW20282   4.605   4.257   6.057
 1047SOL    HW120283   4.609   4.224   5.968
 1047SOL    HW220284   4.511   4.272   6.073
 1048SOL     OW20285   0.080   1.616   6.320
 1048SOL    HW120286   0.069   1.572   6.235
 1048SOL    HW220287   0.070   1.545   6.384
 1049SOL     OW20288   4.032   0.689   6.904
 1049SOL    HW120289   3.961   0.625   6.907
 1049SOL    HW220290   4.112   0.636   6.911
 1050SOL     OW20291   3.013   1.187   1.620
 1050SOL    HW120292   3.063   1.251   1.671
 1050SOL    HW220293   3.055   1.188   1.534
 1051SOL     OW20294   0.552   2.298   0.223
 1051SOL    HW120295   0.490   2.226   0.218
 1051SOL    HW220296   0.557   2.319   0.316
 1052SOL     OW20297   0.154   2.883   5.663
 1052SOL    HW120298   0.151   2.957   5.603
 1052SOL    HW220299   0.212   2.820   5.621
 1053SOL     OW20300   6.212   5.163   6.595
 1053SOL    HW120301   6.238   5.236   6.651
 1053SOL    HW220302   6.294   5.132   6.556
 1054SOL     OW20303   6.159   4.476   5.977
 1054SOL    HW120304   6.132   4.567   5.985
 1054SOL    HW220305   6.159   4.459   5.883
 1055SOL     OW20306   0.424   5.657   7.021
 1055SOL    HW120307   0.329   5.644   7.016
 1055SOL    HW220308   0.438   5.747   6.991
 1056SOL     OW20309   1.623   3.617   1.000
 1056SOL    HW120310   1.529   3.626   0.983
 1056SOL    HW220311   1.659   3.582   0.919
 1057SOL     OW20312   5.290   4.903   6.496
 1057SOL    HW120313   5.343   4.840   6.544
 1057SOL    HW220314   5.237   4.849   6.437
 1058SOL     OW20315   2.729   0.489   6.633
 1058SOL    HW120316   2.719   0.442   6.550
 1058SOL    HW220317   2.800   0.444   6.678
 1059SOL     OW20318   5.120   2.054   7.720
 1059SOL    HW120319   5.042   2.109   7.714
 1059SOL    HW220320   5.191   2.110   7.689
 1060SOL     OW20321   1.608   1.471   6.996
 1060SOL    HW120322   1.693   1.473   6.952
 1060SOL    HW220323   1.545   1.483   6.925
 1061SOL     OW20324   6.198   0.255   1.085
 1061SOL    HW120325   6.235   0.340   1.108
 1061SOL    HW220326   6.151   0.227   1.164
 1062SOL     OW20327   4.609   4.205   5.798
 1062SOL    HW120328   4.673   4.154   5.748
 1062SOL    HW220329   4.638   4.296   5.788
 1063SOL     OW20330   6.251   4.159   0.305
 1063SOL    HW120331   6.301   4.114   0.236
 1063SOL    HW220332   6.254   4.251   0.280
 1064SOL     OW20333   4.409   0.736   6.007
 1064SOL    HW120334   4.493   0.739   5.961
 1064SOL    HW220335   4.363   0.815   5.978
 1065SOL     OW20336   5.643   5.172   0.071
 1065SOL    HW120337   5.652   5.259   0.033
 1065SOL    HW220338   5.627   5.188   0.164
 1066SOL     OW20339   3.399   4.322   1.723
 1066SOL    HW120340   3.448   4.259   1.777
 1066SOL    HW220341   3.310   4.318   1.757
 1067SOL     OW20342   1.515   6.295   2.374
 1067SOL    HW120343   1.562   6.269   2.454
 1067SOL    HW220344   1.563   6.253   2.303
 1068SOL     OW20345   4.082   4.673   6.072
 1068SOL    HW120346   4.126   4.641   6.151
 1068SOL    HW220347   3.990   4.676   6.095
 1069SOL     OW20348   4.026   5.291   5.340
 1069SOL    HW120349   4.009   5.216   5.397
 1069SOL    HW220350   4.050   5.253   5.256
 1070SOL     OW20351   1.577   5.959   1.629
 1070SOL    HW120352   1.546   6.021   1.695
 1070SOL    HW220353   1.630   6.012   1.569
 1071SOL     OW20354   4.840   1.679   0.067
 1071SOL    HW120355   4.760   1.697   0.116
 1071SOL    HW220356   4.909   1.672   0.133
 1072SOL     OW20357   6.179   3.913   6.529
 1072SOL    HW120358   6.162   3.984   6.590
 1072SOL    HW220359   6.098   3.903   6.480
 1073SOL     OW20360   6.043   2.687   6.569
 1073SOL    HW120361   6.062   2.695   6.662
 1073SOL    HW220362   6.051   2.594   6.550
 1074SOL     OW20363   0.071   3.257   1.446
 1074SOL    HW120364   6.479   3.264   1.391
 1074SOL    HW220365   0.050   3.309   1.524
 1075SOL     OW20366   2.419   3.036   7.341
 1075SOL    HW120367   2.331   3.017   7.373
 1075SOL    HW220368   2.464   2.952   7.343
 1076SOL     OW20369   3.991   4.758   0.565
 1076SOL    HW120370   4.065   4.810   0.596
 1076SOL    HW220371   4.014   4.735   0.475
 1077SOL     OW20372   5.981   3.303   0.122
 1077SOL    HW120373   5.995   3.398   0.125
 1077SOL    HW220374   6.067   3.267   0.097
 1078SOL     OW20375   1.467   5.541   6.828
 1078SOL    HW120376   1.446   5.600   6.900
 1078SOL    HW220377   1.383   5.524   6.786
 1079SOL     OW20378   4.961   1.346   1.271
 1079SOL    HW120379   4.895   1.400   1.315
 1079SOL    HW220380   4.931   1.340   1.180
 1080SOL     OW20381   0.251   1.654   1.663
 1080SOL    HW120382   0.265   1.659   1.568
 1080SOL    HW220383   0.169   1.702   1.677
 1081SOL     OW20384   2.933   1.000   0.914
 1081SOL    HW120385   3.002   0.935   0.926
 1081SOL    HW220386   2.890   1.006   0.999
 1082SOL     OW20387   6.390   4.058   0.066
 1082SOL    HW120388   6.469   4.031   0.113
 1082SOL    HW220389   6.390   4.004   7.762
 1083SOL     OW20390   5.344   0.936   1.812
 1083SOL    HW120391   5.311   0.910   1.898
 1083SOL    HW220392   5.407   1.005   1.831
 1084SOL     OW20393   3.523   4.662   7.443
 1084SOL    HW120394   3.455   4.600   7.469
 1084SOL    HW220395   3.604   4.622   7.474
 1085SOL     OW20396   0.711   5.955   0.264
 1085SOL    HW120397   0.708   6.042   0.224
 1085SOL    HW220398   0.716   5.895   0.190
 1086SOL     OW20399   0.699   4.456   5.612
 1086SOL    HW120400   0.657   4.463   5.698
 1086SOL    HW220401   0.727   4.545   5.592
 1087SOL     OW20402   5.426   2.063   0.481
 1087SOL    HW120403   5.435   2.148   0.522
 1087SOL    HW220404   5.431   2.081   0.387
 1088SOL     OW20405   1.325   5.524   1.798
 1088SOL    HW120406   1.373   5.489   1.873
 1088SOL    HW220407   1.327   5.619   1.810
 1089SOL     OW20408   3.596   2.932   0.647
 1089SOL    HW120409   3.625   3.023   0.659
 1089SOL    HW220410   3.672   2.879   0.672
 1090SOL     OW20411   4.227   4.206   0.733
 1090SOL    HW120412   4.218   4.121   0.777
 1090SOL    HW220413   4.213   4.187   0.641
 1091SOL     OW20414   2.836   5.531   7.353
 1091SOL    HW120415   2.861   5.575   7.434
 1091SOL    HW220416   2.874   5.444   7.360
 1092SOL     OW20417   6.384   5.624   7.429
 1092SOL    HW120418   6.455   5.662   7.481
 1092SOL    HW220419   6.404   5.530   7.426
 1093SOL     OW20420   3.641   5.101   5.376
 1093SOL    HW120421   3.567   5.113   5.316
 1093SOL    HW220422   3.711   5.066   5.321
 1094SOL     OW20423   1.075   3.325   7.251
 1094SOL    HW120424   1.081   3.348   7.159
 1094SOL    HW220425   1.141   3.379   7.294
 1095SOL     OW20426   1.952   2.862   0.739
 1095SOL    HW120427   2.018   2.920   0.700
 1095SOL    HW220428   1.873   2.917   0.743
 1096SOL     OW20429   4.170   1.034   0.192
 1096SOL    HW120430   4.208   1.094   0.127
 1096SOL    HW220431   4.107   0.982   0.142
 1097SOL     OW20432   6.078   0.133   0.441
 1097SOL    HW120433   6.070   0.086   0.524
 1097SOL    HW220434   6.119   0.069   0.382
 1098SOL     OW20435   3.123   0.907   6.743
 1098SOL    HW120436   3.193   0.842   6.734
 1098SOL    HW220437   3.072   0.898   6.662
 1099SOL     OW20438   2.042   5.825   7.205
 1099SOL    HW120439   2.094   5.767   7.149
 1099SOL    HW220440   2.106   5.866   7.263
 1100SOL     OW20441   1.240   3.000   1.399
 1100SOL    HW120442   1.300   2.948   1.453
 1100SOL    HW220443   1.161   3.009   1.452
 1101SOL     OW20444   5.814   5.295   1.772
 1101SOL    HW120445   5.804   5.205   1.803
 1101SOL    HW220446   5.890   5.328   1.821
 1102SOL     OW20447   6.315   1.593   6.839
 1102SOL    HW120448   6.378   1.598   6.911
 1102SOL    HW220449   6.302   1.684   6.812
 1103SOL     OW20450   6.198   3.084   1.160
 1103SOL    HW120451   6.105   3.072   1.176
 1103SOL    HW220452   6.229   2.997   1.133
 1104SOL     OW20453   4.349   1.585   6.621
 1104SOL    HW120454   4.275   1.553   6.672
 1104SOL    HW220455   4.403   1.507   6.605
 1105SOL     OW20456   2.641   4.231   6.554
 1105SOL    HW120457   2.572   4.261   6.494
 1105SOL    HW220458   2.720   4.227   6.500
 1106SOL     OW20459   2.205   0.599   0.094
 1106SOL    HW120460   2.202   0.509   0.060
 1106SOL    HW220461   2.185   0.654   0.018
 1107SOL     OW20462   4.578   1.784   7.720
 1107SOL    HW120463   4.641   1.745   7.660
 1107SOL    HW220464   4.585   1.731   0.024
 1108SOL     OW20465   4.134   6.225   7.676
 1108SOL    HW120466   4.205   6.271   7.720
 1108SOL    HW220467   4.102   6.287   7.611
 1109SOL     OW20468   3.889   6.018   1.410
 1109SOL    HW120469   3.812   6.073   1.400
 1109SOL    HW220470   3.862   5.949   1.471
 1110SOL     OW20471   4.419   0.181   6.810
 1110SOL    HW120472   4.370   0.103   6.785
 1110SOL    HW220473   4.439   0.225   6.728
 1111SOL     OW20474   5.023   4.226   1.069
 1111SOL    HW120475   4.974   4.173   1.007
 1111SOL    HW220476   4.958   4.282   1.111
 1112SOL     OW20477   5.490   2.994   7.474
 1112SOL    HW120478   5.523   2.967   7.560
 1112SOL    HW220479   5.553   3.059   7.443
 1113SOL     OW20480   4.793   4.262   7.400
 1113SOL    HW120481   4.851   4.337   7.385
 1113SOL    HW220482   4.725   4.271   7.333
 1114SOL     OW20483   5.864   4.645   1.130
 1114SOL    HW120484   5.801   4.707   1.167
 1114SOL    HW220485   5.823   4.559   1.141
 1115SOL     OW20486   5.231   1.116   0.725
 1115SOL    HW120487   5.295   1.045   0.725
 1115SOL    HW220488   5.191   1.112   0.812
 1116SOL     OW20489   1.539   5.261   2.506
 1116SOL    HW120490   1.538   5.352   2.476
 1116SOL    HW220491   1.605   5.218   2.452
 1117SOL     OW20492   2.045   5.271   6.840
 1117SOL    HW120493   2.108   5.321   6.788
 1117SOL    HW220494   2.001   5.215   6.777
 1118SOL     OW20495   6.315   1.707   7.335
 1118SOL    HW120496   6.293   1.689   7.427
 1118SOL    HW220497   6.327   1.620   7.296
 1119SOL     OW20498   2.574   0.969   2.007
 1119SOL    HW120499   2.556   1.063   1.999
 1119SOL    HW220500   2.667   0.961   1.989
 1120SOL     OW20501   2.538   1.586   6.311
 1120SOL    HW120502   2.519   1.673   6.275
 1120SOL    HW220503   2.552   1.602   6.405
 1121SOL     OW20504   3.485   4.978   7.020
 1121SOL    HW120505   3.398   4.969   6.983
 1121SOL    HW220506   3.487   4.919   7.095
 1122SOL     OW20507   6.331   4.318   1.497
 1122SOL    HW120508   6.306   4.283   1.411
 1122SOL    HW220509   6.394   4.387   1.477
 1123SOL     OW20510   1.886   0.296   5.645
 1123SOL    HW120511   1.932   0.363   5.696
 1123SOL    HW220512   1.830   0.252   5.708
 1124SOL     OW20513   1.440   4.974   6.618
 1124SOL    HW120514   1.360   5.027   6.620
 1124SOL    HW220515   1.510   5.037   6.600
 1125SOL     OW20516   3.953   4.872   0.302
 1125SOL    HW120517   3.887   4.803   0.314
 1125SOL    HW220518   3.929   4.938   0.367
 1126SOL     OW20519   5.124   0.680   2.142
 1126SOL    HW120520   5.041   0.705   2.100
 1126SOL    HW220521   5.178   0.759   2.136
 1127SOL     OW20522   6.461   5.891   6.919
 1127SOL    HW120523   0.009   5.978   6.939
 1127SOL    HW220524   6.378   5.886   6.965
 1128SOL     OW20525   4.623   1.973   0.574
 1128SOL    HW120526   4.665   2.059   0.584
 1128SOL    HW220527   4.656   1.939   0.491
 1129SOL     OW20528   4.388   5.036   0.527
 1129SOL    HW120529   4.424   5.112   0.572
 1129SOL    HW220530   4.456   4.968   0.537
 1130SOL     OW20531   6.154   3.623   2.252
 1130SOL    HW120532   6.105   3.550   2.290
 1130SOL    HW220533   6.093   3.697   2.254
 1131SOL     OW20534   1.807   4.882   6.699
 1131SOL    HW120535   1.765   4.843   6.623
 1131SOL    HW220536   1.736   4.917   6.752
 1132SOL     OW20537   3.264   5.769   6.399
 1132SOL    HW120538   3.359   5.758   6.392
 1132SOL    HW220539   3.252   5.857   6.434
 1133SOL     OW20540   5.181   2.473   6.392
 1133SOL    HW120541   5.213   2.476   6.302
 1133SOL    HW220542   5.257   2.499   6.445
 1134SOL     OW20543   3.396   6.358   5.778
 1134SOL    HW120544   3.422   6.359   5.686
 1134SOL    HW220545   3.334   6.286   5.785
 1135SOL     OW20546   2.108   4.711   1.822
 1135SOL    HW120547   2.095   4.780   1.887
 1135SOL    HW220548   2.158   4.644   1.869
 1136SOL     OW20549   5.594   2.089   2.047
 1136SOL    HW120550   5.500   2.071   2.039
 1136SOL    HW220551   5.614   2.147   1.974
 1137SOL     OW20552   1.282   6.224   0.940
 1137SOL    HW120553   1.205   6.169   0.929
 1137SOL    HW220554   1.293   6.266   0.855
 1138SOL     OW20555   1.624   3.494   1.460
 1138SOL    HW120556   1.630   3.546   1.541
 1138SOL    HW220557   1.620   3.559   1.390
 1139SOL     OW20558   5.081   0.444   7.644
 1139SOL    HW120559   5.019   0.513   7.666
 1139SOL    HW220560   5.147   0.447   7.714
 1140SOL     OW20561   6.473   2.044   1.546
 1140SOL    HW120562   6.465   2.120   1.604
 1140SOL    HW220563   0.044   2.075   1.475
 1141SOL     OW20564   1.430   5.792   6.547
 1141SOL    HW120565   1.501   5.823   6.491
 1141SOL    HW220566   1.401   5.870   6.595
 1142SOL     OW20567   2.213   2.402   7.755
 1142SOL    HW120568   2.299   2.428   0.012
 1142SOL    HW220569   2.211   2.307   7.767
 1143SOL     OW20570   2.227   2.372   1.596
 1143SOL    HW120571   2.150   2.320   1.616
 1143SOL    HW220572   2.286   2.357   1.670
 1144SOL     OW20573   1.267   0.308   6.973
 1144SOL    HW120574   1.197   0.282   7.033
 1144SOL    HW220575   1.267   0.403   6.976
 1145SOL     OW20576   1.611   1.115   7.672
 1145SOL    HW120577   1.685   1.174   7.689
 1145SOL    HW220578   1.542   1.146   7.730
 1146SOL     OW20579   4.191   0.963   6.297
 1146SOL    HW120580   4.122   0.964   6.363
 1146SOL    HW220581   4.164   1.029   6.233
 1147SOL     OW20582   0.901   3.501   5.452
 1147SOL    HW120583   0.956   3.579   5.450
 1147SOL    HW220584   0.856   3.501   5.368
 1148SOL     OW20585   3.642   2.635   0.520
 1148SOL    HW120586   3.558   2.639   0.475
 1148SOL    HW220587   3.653   2.543   0.544
 1149SOL     OW20588   3.049   5.735   0.294
 1149SOL    HW120589   3.027   5.819   0.336
 1149SOL    HW220590   3.140   5.746   0.265
 1150SOL     OW20591   5.011   0.239   1.567
 1150SOL    HW120592   5.087   0.186   1.589
 1150SOL    HW220593   4.939   0.202   1.618
 1151SOL     OW20594   4.121   1.876   7.535
 1151SOL    HW120595   4.081   1.838   7.457
 1151SOL    HW220596   4.069   1.955   7.553
 1152SOL     OW20597   2.317   5.027   5.826
 1152SOL    HW120598   2.231   5.011   5.865
 1152SOL    HW220599   2.299   5.078   5.747
 1153SOL     OW20600   6.017   3.434   2.025
 1153SOL    HW120601   6.064   3.416   2.107
 1153SOL    HW220602   6.009   3.529   2.022
 1154SOL     OW20603   2.917   5.686   6.388
 1154SOL    HW120604   2.900   5.696   6.482
 1154SOL    HW220605   3.013   5.687   6.381
 1155SOL     OW20606   0.251   2.427   1.229
 1155SOL    HW120607   0.189   2.499   1.218
 1155SOL    HW220608   0.330   2.455   1.183
 1156SOL     OW20609   1.153   4.632   1.291
 1156SOL    HW120610   1.087   4.644   1.223
 1156SOL    HW220611   1.158   4.718   1.334
 1157SOL     OW20612   1.046   5.707   0.293
 1157SOL    HW120613   1.142   5.714   0.290
 1157SOL    HW220614   1.018   5.787   0.338
 1158SOL     OW20615   5.100   0.189   7.190
 1158SOL    HW120616   5.155   0.113   7.210
 1158SOL    HW220617   5.016   0.170   7.233
 1159SOL     OW20618   3.342   5.725   5.100
 1159SOL    HW120619   3.369   5.787   5.033
 1159SOL    HW220620   3.264   5.764   5.139
 1160SOL     OW20621   5.557   4.396   6.339
 1160SOL    HW120622   5.489   4.463   6.332
 1160SOL    HW220623   5.515   4.324   6.386
 1161SOL     OW20624   3.313   0.362   0.291
 1161SOL    HW120625   3.255   0.436   0.308
 1161SOL    HW220626   3.271   0.288   0.336
 1162SOL     OW20627   3.663   4.225   1.091
 1162SOL    HW120628   3.570   4.226   1.112
 1162SOL    HW220629   3.694   4.139   1.121
 1163SOL     OW20630   5.515   1.944   2.550
 1163SOL    HW120631   5.510   1.933   2.456
 1163SOL    HW220632   5.591   2.001   2.564
 1164SOL     OW20633   2.759   5.317   0.451
 1164SOL    HW120634   2.719   5.238   0.416
 1164SOL    HW220635   2.687   5.363   0.495
 1165SOL     OW20636   1.553   1.915   6.432
 1165SOL    HW120637   1.612   1.962   6.491
 1165SOL    HW220638   1.610   1.853   6.386
 1166SOL     OW20639   0.114   5.432   0.321
 1166SOL    HW120640   0.148   5.350   0.356
 1166SOL    HW220641   0.165   5.500   0.366
 1167SOL     OW20642   6.445   6.066   1.055
 1167SOL    HW120643   6.360   6.022   1.058
 1167SOL    HW220644   6.434   6.135   0.990
 1168SOL     OW20645   2.248   2.573   7.540
 1168SOL    HW120646   2.205   2.531   7.614
 1168SOL    HW220647   2.303   2.505   7.501
 1169SOL     OW20648   3.737   0.290   6.828
 1169SOL    HW120649   3.651   0.256   6.851
 1169SOL    HW220650   3.778   0.220   6.776
 1170SOL     OW20651   2.150   6.269   1.738
 1170SOL    HW120652   2.128   6.291   1.647
 1170SOL    HW220653   2.121   6.179   1.749
 1171SOL     OW20654   2.300   6.089   7.551
 1171SOL    HW120655   2.255   6.084   7.636
 1171SOL    HW220656   2.238   6.052   7.489
 1172SOL     OW20657   4.473   0.605   0.507
 1172SOL    HW120658   4.455   0.627   0.416
 1172SOL    HW220659   4.492   0.511   0.506
 1173SOL     OW20660   0.947   0.269   6.847
 1173SOL    HW120661   1.014   0.241   6.785
 1173SOL    HW220662   0.956   0.364   6.851
 1174SOL     OW20663   0.751   0.202   1.939
 1174SOL    HW120664   0.670   0.155   1.916
 1174SOL    HW220665   0.799   0.140   1.994
 1175SOL     OW20666   1.713   3.425   6.174
 1175SOL    HW120667   1.661   3.411   6.254
 1175SOL    HW220668   1.650   3.418   6.103
 1176SOL     OW20669   1.442   6.325   7.717
 1176SOL    HW120670   1.527   6.334   7.760
 1176SOL    HW220671   1.446   6.239   7.675
 1177SOL     OW20672   1.881   0.421   6.780
 1177SOL    HW120673   1.894   0.433   6.874
 1177SOL    HW220674   1.965   0.445   6.741
 1178SOL     OW20675   5.141   3.570   7.094
 1178SOL    HW120676   5.091   3.499   7.134
 1178SOL    HW220677   5.178   3.532   7.014
 1179SOL     OW20678   5.843   3.165   6.521
 1179SOL    HW120679   5.894   3.111   6.581
 1179SOL    HW220680   5.904   3.234   6.493
 1180SOL     OW20681   1.649   4.683   6.497
 1180SOL    HW120682   1.662   4.592   6.469
 1180SOL    HW220683   1.594   4.676   6.575
 1181SOL     OW20684   3.863   4.305   5.377
 1181SOL    HW120685   3.869   4.391   5.336
 1181SOL    HW220686   3.892   4.244   5.309
 1182SOL     OW20687   2.659   2.124   1.246
 1182SOL    HW120688   2.733   2.086   1.293
 1182SOL    HW220689   2.664   2.218   1.264
 1183SOL     OW20690   0.605   6.227   0.187
 1183SOL    HW120691   0.516   6.214   0.155
 1183SOL    HW220692   0.595   6.248   0.280
 1184SOL     OW20693   6.319   1.898   0.908
 1184SOL    HW120694   6.229   1.874   0.886
 1184SOL    HW220695   6.327   1.875   1.001
 1185SOL     OW20696   2.311   1.103   7.510
 1185SOL    HW120697   2.370   1.029   7.525
 1185SOL    HW220698   2.297   1.141   7.597
 1186SOL     OW20699   0.368   1.299   1.379
 1186SOL    HW120700   0.368   1.205   1.397
 1186SOL    HW220701   0.378   1.340   1.465
 1187SOL     OW20702   3.671   1.706   6.421
 1187SOL    HW120703   3.696   1.650   6.347
 1187SOL    HW220704   3.740   1.691   6.486
 1188SOL     OW20705   3.808   0.145   5.502
 1188SOL    HW120706   3.758   0.222   5.479
 1188SOL    HW220707   3.851   0.118   5.421
 1189SOL     OW20708   0.821   4.704   5.598
 1189SOL    HW120709   0.771   4.723   5.518
 1189SOL    HW220710   0.905   4.746   5.583
 1190SOL     OW20711   2.863   3.646   7.147
 1190SOL    HW120712   2.775   3.637   7.110
 1190SOL    HW220713   2.921   3.649   7.071
 1191SOL     OW20714   0.733   5.011   0.463
 1191SOL    HW120715   0.776   4.945   0.408
 1191SOL    HW220716   0.805   5.055   0.508
 1192SOL     OW20717   6.429   4.304   6.344
 1192SOL    HW120718   6.396   4.321   6.432
 1192SOL    HW220719   6.365   4.243   6.306
 1193SOL     OW20720   3.166   4.152   7.345
 1193SOL    HW120721   3.235   4.123   7.286
 1193SOL    HW220722   3.106   4.077   7.351
 1194SOL     OW20723   2.492   1.866   6.209
 1194SOL    HW120724   2.525   1.955   6.226
 1194SOL    HW220725   2.450   1.872   6.123
 1195SOL     OW20726   6.222   0.416   0.432
 1195SOL    HW120727   6.157   0.347   0.418
 1195SOL    HW220728   6.257   0.399   0.519
 1196SOL     OW20729   1.091   3.238   5.835
 1196SOL    HW120730   1.014   3.181   5.842
 1196SOL    HW220731   1.055   3.322   5.806
 1197SOL     OW20732   0.637   4.967   6.315
 1197SOL    HW120733   0.655   4.957   6.409
 1197SOL    HW220734   0.543   4.952   6.308
 1198SOL     OW20735   4.913   2.403   7.115
 1198SOL    HW120736   4.997   2.371   7.082
 1198SOL    HW220737   4.900   2.356   7.197
 1199SOL     OW20738   2.515   1.784   5.686
 1199SOL    HW120739   2.550   1.848   5.748
 1199SOL    HW220740   2.516   1.830   5.602
 1200SOL     OW20741   4.289   1.524   1.744
 1200SOL    HW120742   4.273   1.583   1.818
 1200SOL    HW220743   4.295   1.437   1.783
 1201SOL     OW20744   1.623   5.047   0.322
 1201SOL    HW120745   1.596   5.126   0.370
 1201SOL    HW220746   1.649   4.985   0.391
 1202SOL     OW20747   3.383   2.185   5.566
 1202SOL    HW120748   3.411   2.101   5.531
 1202SOL    HW220749   3.456   2.244   5.549
 1203SOL     OW20750   5.946   5.834   6.883
 1203SOL    HW120751   5.888   5.775   6.833
 1203SOL    HW220752   5.885   5.890   6.932
 1204SOL     OW20753   5.437   2.788   1.541
 1204SOL    HW120754   5.475   2.813   1.457
 1204SOL    HW220755   5.396   2.704   1.525
 1205SOL     OW20756   4.799   6.210   7.317
 1205SOL    HW120757   4.709   6.241   7.302
 1205SOL    HW220758   4.800   6.122   7.279
 1206SOL     OW20759   3.358   1.889   0.947
 1206SOL    HW120760   3.416   1.853   1.013
 1206SOL    HW220761   3.391   1.855   0.864
 1207SOL     OW20762   1.073   6.341   7.562
 1207SOL    HW120763   0.979   6.350   7.551
 1207SOL    HW220764   1.086   6.249   7.585
 1208SOL     OW20765   5.147   1.808   1.696
 1208SOL    HW120766   5.153   1.847   1.783
 1208SOL    HW220767   5.229   1.759   1.686
 1209SOL     OW20768   1.493   5.198   1.908
 1209SOL    HW120769   1.567   5.252   1.881
 1209SOL    HW220770   1.450   5.250   1.976
 1210SOL     OW20771   4.918   2.717   5.474
 1210SOL    HW120772   4.957   2.634   5.503
 1210SOL    HW220773   4.824   2.704   5.484
 1211SOL     OW20774   0.889   1.537   7.360
 1211SOL    HW120775   0.975   1.561   7.326
 1211SOL    HW220776   0.895   1.550   7.455
 1212SOL     OW20777   4.960   3.188   6.090
 1212SOL    HW120778   4.928   3.257   6.032
 1212SOL    HW220779   5.055   3.192   6.082
 1213SOL     OW20780   2.452   3.781   1.120
 1213SOL    HW120781   2.540   3.800   1.088
 1213SOL    HW220782   2.405   3.864   1.111
 1214SOL     OW20783   4.947   0.385   7.023
 1214SOL    HW120784   5.004   0.403   6.948
 1214SOL    HW220785   5.006   0.351   7.090
 1215SOL     OW20786   0.381   5.435   1.316
 1215SOL    HW120787   0.330   5.455   1.238
 1215SOL    HW220788   0.326   5.466   1.389
 1216SOL     OW20789   1.192   6.448   7.016
 1216SOL    HW120790   1.179   6.414   6.928
 1216SOL    HW220791   1.104   6.470   7.046
 1217SOL     OW20792   2.756   4.627   6.589
 1217SOL    HW120793   2.846   4.652   6.612
 1217SOL    HW220794   2.721   4.590   6.670
 1218SOL     OW20795   1.261   4.113   6.858
 1218SOL    HW120796   1.195   4.181   6.871
 1218SOL    HW220797   1.219   4.049   6.800
 1219SOL     OW20798   5.263   3.274   1.896
 1219SOL    HW120799   5.250   3.213   1.968
 1219SOL    HW220800   5.175   3.303   1.873
 1220SOL     OW20801   5.996   1.652   7.155
 1220SOL    HW120802   6.016   1.728   7.209
 1220SOL    HW220803   5.946   1.594   7.214
 1221SOL     OW20804   4.938   0.714   1.029
 1221SOL    HW120805   5.010   0.766   0.994
 1221SOL    HW220806   4.859   0.760   1.002
 1222SOL     OW20807   3.286   0.793   6.958
 1222SOL    HW120808   3.344   0.869   6.964
 1222SOL    HW220809   3.346   0.718   6.955
 1223SOL     OW20810   4.905   1.994   1.986
 1223SOL    HW120811   4.997   1.968   1.994
 1223SOL    HW220812   4.906   2.089   1.999
 1224SOL     OW20813   1.325   0.430   7.438
 1224SOL    HW120814   1.390   0.469   7.379
 1224SOL    HW220815   1.272   0.505   7.468
 1225SOL     OW20816   6.295   6.378   1.539
 1225SOL    HW120817   6.230   6.350   1.603
 1225SOL    HW220818   6.244   6.406   1.463
 1226SOL     OW20819   4.775   6.475   6.986
 1226SOL    HW120820   4.757   0.082   7.002
 1226SOL    HW220821   4.730   6.430   7.058
 1227SOL     OW20822   1.868   3.400   7.154
 1227SOL    HW120823   1.883   3.358   7.238
 1227SOL    HW220824   1.831   3.331   7.099
 1228SOL     OW20825   5.026   5.999   7.138
 1228SOL    HW120826   5.066   5.951   7.066
 1228SOL    HW220827   5.080   5.978   7.214
 1229SOL     OW20828   1.725   6.120   6.250
 1229SOL    HW120829   1.730   6.163   6.336
 1229SOL    HW220830   1.809   6.138   6.209
 1230SOL     OW20831   0.712   4.349   0.455
 1230SOL    HW120832   0.693   4.330   0.547
 1230SOL    HW220833   0.684   4.440   0.443
 1231SOL     OW20834   4.941   1.170   6.878
 1231SOL    HW120835   5.036   1.162   6.863
 1231SOL    HW220836   4.911   1.079   6.884
 1232SOL     OW20837   1.876   2.608   6.677
 1232SOL    HW120838   1.927   2.647   6.606
 1232SOL    HW220839   1.903   2.516   6.679
 1233SOL     OW20840   0.080   4.121   0.272
 1233SOL    HW120841   0.040   4.170   0.344
 1233SOL    HW220842   0.121   4.045   0.314
 1234SOL     OW20843   5.145   2.559   7.725
 1234SOL    HW120844   5.108   2.510   0.023
 1234SOL    HW220845   5.220   2.507   7.697
 1235SOL     OW20846   4.418   3.036   1.221
 1235SOL    HW120847   4.341   3.011   1.169
 1235SOL    HW220848   4.490   3.037   1.158
 1236SOL     OW20849   3.135   1.399   7.323
 1236SOL    HW120850   3.156   1.321   7.271
 1236SOL    HW220851   3.044   1.387   7.349
 1237SOL     OW20852   5.109   1.753   1.209
 1237SOL    HW120853   5.071   1.772   1.123
 1237SOL    HW220854   5.194   1.797   1.209
 1238SOL     OW20855   0.773   4.839   1.496
 1238SOL    HW120856   0.771   4.767   1.432
 1238SOL    HW220857   0.866   4.850   1.516
 1239SOL     OW20858   4.234   6.166   6.052
 1239SOL    HW120859   4.167   6.121   6.001
 1239SOL    HW220860   4.260   6.241   5.997
 1240SOL     OW20861   3.586   3.068   6.044
 1240SOL    HW120862   3.634   3.046   5.965
 1240SOL    HW220863   3.639   3.034   6.116
 1241SOL     OW20864   1.605   5.596   5.482
 1241SOL    HW120865   1.596   5.590   5.386
 1241SOL    HW220866   1.521   5.565   5.515
 1242SOL     OW20867   4.804   6.209   6.409
 1242SOL    HW120868   4.884   6.162   6.433
 1242SOL    HW220869   4.826   6.256   6.329
 1243SOL     OW20870   5.139   3.829   6.617
 1243SOL    HW120871   5.196   3.753   6.625
 1243SOL    HW220872   5.072   3.816   6.685
 1244SOL     OW20873   1.432   4.577   1.045
 1244SOL    HW120874   1.473   4.504   1.093
 1244SOL    HW220875   1.423   4.544   0.956
 1245SOL     OW20876   0.857   5.016   1.752
 1245SOL    HW120877   0.951   5.021   1.772
 1245SOL    HW220878   0.850   4.942   1.691
 1246SOL     OW20879   5.260   5.679   0.131
 1246SOL    HW120880   5.340   5.644   0.171
 1246SOL    HW220881   5.191   5.662   0.196
 1247SOL     OW20882   1.699   4.567   1.357
 1247SOL    HW120883   1.766   4.598   1.295
 1247SOL    HW220884   1.616   4.588   1.315
 1248SOL     OW20885   5.218   3.537   0.230
 1248SOL    HW120886   5.232   3.536   0.325
 1248SOL    HW220887   5.291   3.487   0.195
 1249SOL     OW20888   0.822   5.805   1.949
 1249SOL    HW120889   0.844   5.863   2.022
 1249SOL    HW220890   0.890   5.738   1.951
 1250SOL     OW20891   2.847   6.392   1.629
 1250SOL    HW120892   2.810   6.351   1.707
 1250SOL    HW220893   2.773   6.437   1.588
 1251SOL     OW20894   3.583   0.733   6.757
 1251SOL    HW120895   3.640   0.750   6.832
 1251SOL    HW220896   3.636   0.757   6.681
 1252SOL     OW20897   1.059   4.176   7.331
 1252SOL    HW120898   0.964   4.171   7.325
 1252SOL    HW220899   1.087   4.204   7.244
 1253SOL     OW20900   1.722   3.313   2.180
 1253SOL    HW120901   1.680   3.342   2.261
 1253SOL    HW220902   1.663   3.342   2.111
 1254SOL     OW20903   4.835   6.473   0.592
 1254SOL    HW120904   4.865   6.416   0.521
 1254SOL    HW220905   4.880   6.440   0.670
 1255SOL     OW20906   3.860   5.933   6.741
 1255SOL    HW120907   3.775   5.970   6.765
 1255SOL    HW220908   3.840   5.869   6.673
 1256SOL     OW20909   0.107   4.224   2.555
 1256SOL    HW120910   0.026   4.201   2.509
 1256SOL    HW220911   0.078   4.270   2.634
 1257SOL     OW20912   2.864   5.749   1.887
 1257SOL    HW120913   2.875   5.743   1.793
 1257SOL    HW220914   2.941   5.705   1.924
 1258SOL     OW20915   0.468   3.191   0.493
 1258SOL    HW120916   0.448   3.271   0.446
 1258SOL    HW220917   0.461   3.215   0.586
 1259SOL     OW20918   3.827   0.896   1.924
 1259SOL    HW120919   3.746   0.861   1.963
 1259SOL    HW220920   3.798   0.940   1.845
 1260SOL     OW20921   5.856   0.784   5.822
 1260SOL    HW120922   5.901   0.825   5.748
 1260SOL    HW220923   5.763   0.797   5.805
 1261SOL     OW20924   4.457   3.486   0.266
 1261SOL    HW120925   4.542   3.460   0.230
 1261SOL    HW220926   4.429   3.410   0.316
 1262SOL     OW20927   0.905   4.252   6.556
 1262SOL    HW120928   0.981   4.212   6.515
 1262SOL    HW220929   0.830   4.221   6.505
 1263SOL     OW20930   0.068   2.867   6.102
 1263SOL    HW120931   0.119   2.802   6.054
 1263SOL    HW220932   0.073   2.947   6.049
 1264SOL     OW20933   2.164   5.683   0.111
 1264SOL    HW120934   2.082   5.650   0.148
 1264SOL    HW220935   2.138   5.760   0.060
 1265SOL     OW20936   5.338   0.530   0.369
 1265SOL    HW120937   5.276   0.514   0.439
 1265SOL    HW220938   5.422   0.500   0.404
 1266SOL     OW20939   3.280   5.651   0.808
 1266SOL    HW120940   3.280   5.652   0.712
 1266SOL    HW220941   3.309   5.562   0.831
 1267SOL     OW20942   0.082   0.929   6.287
 1267SOL    HW120943   0.028   0.979   6.225
 1267SOL    HW220944   0.020   0.900   6.354
 1268SOL     OW20945   4.309   2.115   6.241
 1268SOL    HW120946   4.271   2.060   6.172
 1268SOL    HW220947   4.363   2.056   6.292
 1269SOL     OW20948   2.764   1.110   1.717
 1269SOL    HW120949   2.847   1.153   1.697
 1269SOL    HW220950   2.781   1.057   1.794
 1270SOL     OW20951   1.314   3.814   6.816
 1270SOL    HW120952   1.389   3.866   6.842
 1270SOL    HW220953   1.245   3.838   6.877
 1271SOL     OW20954   0.665   0.643   6.614
 1271SOL    HW120955   0.657   0.657   6.709
 1271SOL    HW220956   0.702   0.556   6.606
 1272SOL     OW20957   1.240   2.182   7.533
 1272SOL    HW120958   1.266   2.092   7.515
 1272SOL    HW220959   1.300   2.211   7.602
 1273SOL     OW20960   2.789   4.673   5.791
 1273SOL    HW120961   2.865   4.676   5.732
 1273SOL    HW220962   2.739   4.752   5.769
 1274SOL     OW20963   1.035   5.020   5.618
 1274SOL    HW120964   0.962   5.076   5.592
 1274SOL    HW220965   1.054   5.045   5.709
 1275SOL     OW20966   2.199   0.971   0.642
 1275SOL    HW120967   2.262   1.036   0.672
 1275SOL    HW220968   2.210   0.969   0.547
 1276SOL     OW20969   4.123   5.872   7.274
 1276SOL    HW120970   4.031   5.897   7.266
 1276SOL    HW220971   4.121   5.791   7.326
 1277SOL     OW20972   0.088   0.919   0.078
 1277SOL    HW120973   0.018   0.892   0.137
 1277SOL    HW220974   0.122   0.838   0.040
 1278SOL     OW20975   1.307   1.966   6.527
 1278SOL    HW120976   1.239   1.945   6.462
 1278SOL    HW220977   1.389   1.940   6.485
 1279SOL     OW20978   6.265   0.145   0.181
 1279SOL    HW120979   6.348   0.192   0.189
 1279SOL    HW220980   6.202   0.212   0.153
 1280SOL     OW20981   3.333   0.741   6.648
 1280SOL    HW120982   3.283   0.660   6.640
 1280SOL    HW220983   3.413   0.716   6.695
 1281SOL     OW20984   0.240   5.604   7.371
 1281SOL    HW120985   0.218   5.642   7.285
 1281SOL    HW220986   0.188   5.654   7.433
 1282SOL     OW20987   4.036   6.477   7.553
 1282SOL    HW120988   4.089   0.055   7.601
 1282SOL    HW220989   3.946   0.021   7.565
 1283SOL     OW20990   1.007   3.175   6.711
 1283SOL    HW120991   1.091   3.191   6.669
 1283SOL    HW220992   0.982   3.088   6.683
 1284SOL     OW20993   2.577   2.763   7.757
 1284SOL    HW120994   2.643   2.825   0.012
 1284SOL    HW220995   2.525   2.743   0.059
 1285SOL     OW20996   2.007   0.231   6.026
 1285SOL    HW120997   2.073   0.300   6.029
 1285SOL    HW220998   1.924   0.277   6.042
 1286SOL     OW20999   0.471   3.735   1.878
 1286SOL    HW121000   0.548   3.679   1.867
 1286SOL    HW221001   0.508   3.823   1.887
 1287SOL     OW21002   4.109   5.552   5.348
 1287SOL    HW121003   4.085   5.460   5.341
 1287SOL    HW221004   4.064   5.594   5.275
 1288SOL     OW21005   5.103   2.338   6.764
 1288SOL    HW121006   5.156   2.406   6.723
 1288SOL    HW221007   5.034   2.386   6.810
 1289SOL     OW21008   5.542   5.774   0.011
 1289SOL    HW121009   5.467   5.798   0.065
 1289SOL    HW221010   5.616   5.772   0.073
 1290SOL     OW21011   6.485   0.142   1.221
 1290SOL    HW121012   6.420   0.079   1.188
 1290SOL    HW221013   0.051   0.165   1.144
 1291SOL     OW21014   2.469   4.333   7.686
 1291SOL    HW121015   2.469   4.277   7.764
 1291SOL    HW221016   2.390   4.387   7.696
 1292SOL     OW21017   1.615   5.158   6.548
 1292SOL    HW121018   1.548   5.213   6.507
 1292SOL    HW221019   1.663   5.120   6.475
 1293SOL     OW21020   3.692   6.120   6.479
 1293SOL    HW121021   3.786   6.102   6.479
 1293SOL    HW221022   3.652   6.037   6.453
 1294SOL     OW21023   2.471   4.151   5.894
 1294SOL    HW121024   2.565   4.148   5.911
 1294SOL    HW221025   2.462   4.114   5.806
 1295SOL     OW21026   4.733   5.408   6.514
 1295SOL    HW121027   4.801   5.344   6.533
 1295SOL    HW221028   4.716   5.398   6.420
 1296SOL     OW21029   2.709   4.392   1.428
 1296SOL    HW121030   2.783   4.335   1.409
 1296SOL    HW221031   2.684   4.372   1.518
 1297SOL     OW21032   3.672   4.033   6.297
 1297SOL    HW121033   3.717   4.059   6.378
 1297SOL    HW221034   3.618   4.109   6.274
 1298SOL     OW21035   4.718   5.382   0.737
 1298SOL    HW121036   4.781   5.316   0.766
 1298SOL    HW221037   4.725   5.381   0.641
 1299SOL     OW21038   1.969   2.187   0.154
 1299SOL    HW121039   1.888   2.168   0.201
 1299SOL    HW221040   1.974   2.283   0.151
 1300SOL     OW21041   1.084   5.527   0.518
 1300SOL    HW121042   1.054   5.606   0.472
 1300SOL    HW221043   1.177   5.520   0.496
 1301SOL     OW21044   0.797   4.406   5.357
 1301SOL    HW121045   0.757   4.423   5.443
 1301SOL    HW221046   0.844   4.487   5.337
 1302SOL     OW21047   3.450   6.080   2.375
 1302SOL    HW121048   3.506   6.151   2.344
 1302SOL    HW221049   3.511   6.018   2.416
 1303SOL     OW21050   0.372   6.132   0.606
 1303SOL    HW121051   0.356   6.070   0.535
 1303SOL    HW221052   0.312   6.105   0.676
 1304SOL     OW21053   3.711   5.438   6.157
 1304SOL    HW121054   3.793   5.474   6.189
 1304SOL    HW221055   3.717   5.442   6.062
 1305SOL     OW21056   3.557   0.022   1.579
 1305SOL    HW121057   3.517   0.094   1.626
 1305SOL    HW221058   3.501   6.433   1.599
 1306SOL     OW21059   1.443   6.269   0.278
 1306SOL    HW121060   1.403   6.185   0.252
 1306SOL    HW221061   1.380   6.335   0.249
 1307SOL     OW21062   6.035   5.423   7.573
 1307SOL    HW121063   6.117   5.396   7.533
 1307SOL    HW221064   5.975   5.350   7.559
 1308SOL     OW21065   2.923   2.392   0.446
 1308SOL    HW121066   3.011   2.429   0.440
 1308SOL    HW221067   2.911   2.344   0.364
 1309SOL     OW21068   0.638   3.959   7.319
 1309SOL    HW121069   0.703   3.893   7.294
 1309SOL    HW221070   0.584   3.970   7.240
 1310SOL     OW21071   2.893   6.013   6.414
 1310SOL    HW121072   2.878   5.918   6.418
 1310SOL    HW221073   2.983   6.024   6.444
 1311SOL     OW21074   5.326   6.062   6.183
 1311SOL    HW121075   5.310   6.153   6.158
 1311SOL    HW221076   5.343   6.017   6.101
 1312SOL     OW21077   4.524   3.216   0.800
 1312SOL    HW121078   4.552   3.220   0.708
 1312SOL    HW221079   4.476   3.298   0.813
 1313SOL     OW21080   5.866   4.057   2.339
 1313SOL    HW121081   5.774   4.082   2.350
 1313SOL    HW221082   5.884   4.000   2.414
 1314SOL     OW21083   2.490   6.227   7.693
 1314SOL    HW121084   2.420   6.177   7.652
 1314SOL    HW221085   2.457   6.317   7.697
 1315SOL     OW21086   1.231   4.123   7.543
 1315SOL    HW121087   1.170   4.161   7.480
 1315SOL    HW221088   1.275   4.199   7.581
 1316SOL     OW21089   3.996   4.806   0.991
 1316SOL    HW121090   3.933   4.741   0.962
 1316SOL    HW221091   3.942   4.880   1.021
 1317SOL     OW21092   4.341   3.893   6.309
 1317SOL    HW121093   4.257   3.909   6.352
 1317SOL    HW221094   4.383   3.979   6.305
 1318SOL     OW21095   5.285   4.121   6.279
 1318SOL    HW121096   5.244   4.035   6.269
 1318SOL    HW221097   5.344   4.111   6.354
 1319SOL     OW21098   3.833   0.578   2.012
 1319SOL    HW121099   3.846   0.483   2.014
 1319SOL    HW221100   3.894   0.612   2.078
 1320SOL     OW21101   5.796   4.324   6.506
 1320SOL    HW121102   5.766   4.331   6.416
 1320SOL    HW221103   5.892   4.326   6.500
 1321SOL     OW21104   1.587   4.096   6.975
 1321SOL    HW121105   1.629   4.054   6.900
 1321SOL    HW221106   1.660   4.119   7.033
 1322SOL     OW21107   6.358   3.830   0.832
 1322SOL    HW121108   6.410   3.834   0.912
 1322SOL    HW221109   6.400   3.762   0.779
 1323SOL     OW21110   6.252   0.790   2.388
 1323SOL    HW121111   6.194   0.718   2.413
 1323SOL    HW221112   6.310   0.752   2.322
 1324SOL     OW21113   4.736   2.505   1.462
 1324SOL    HW121114   4.648   2.513   1.425
 1324SOL    HW221115   4.788   2.465   1.393
 1325SOL     OW21116   4.458   1.959   6.386
 1325SOL    HW121117   4.452   1.864   6.391
 1325SOL    HW221118   4.548   1.976   6.358
 1326SOL     OW21119   3.922   2.268   7.341
 1326SOL    HW121120   4.009   2.229   7.347
 1326SOL    HW221121   3.869   2.201   7.299
 1327SOL     OW21122   4.152   0.575   1.971
 1327SOL    HW121123   4.129   0.560   1.879
 1327SOL    HW221124   4.150   0.488   2.011
 1328SOL     OW21125   4.424   3.930   0.112
 1328SOL    HW121126   4.413   3.872   0.187
 1328SOL    HW221127   4.505   3.901   0.070
 1329SOL     OW21128   4.276   0.703   2.565
 1329SOL    HW121129   4.283   0.610   2.589
 1329SOL    HW221130   4.189   0.711   2.528
 1330SOL     OW21131   1.656   0.664   1.396
 1330SOL    HW121132   1.616   0.603   1.334
 1330SOL    HW221133   1.623   0.750   1.370
 1331SOL     OW21134   3.340   5.027   6.285
 1331SOL    HW121135   3.395   5.068   6.352
 1331SOL    HW221136   3.358   5.076   6.205
 1332SOL     OW21137   0.756   2.400   6.508
 1332SOL    HW121138   0.800   2.355   6.580
 1332SOL    HW221139   0.805   2.374   6.430
 1333SOL     OW21140   0.278   3.446   1.123
 1333SOL    HW121141   0.240   3.383   1.063
 1333SOL    HW221142   0.280   3.401   1.207
 1334SOL     OW21143   2.310   4.608   6.378
 1334SOL    HW121144   2.272   4.583   6.294
 1334SOL    HW221145   2.405   4.607   6.363
 1335SOL     OW21146   5.791   4.918   5.744
 1335SOL    HW121147   5.696   4.907   5.741
 1335SOL    HW221148   5.810   4.980   5.673
 1336SOL     OW21149   1.651   6.459   0.100
 1336SOL    HW121150   1.568   0.018   0.112
 1336SOL    HW221151   1.715   0.028   0.145
 1337SOL     OW21152   3.578   3.345   2.182
 1337SOL    HW121153   3.649   3.392   2.138
 1337SOL    HW221154   3.619   3.265   2.214
 1338SOL     OW21155   5.184   1.053   1.616
 1338SOL    HW121156   5.095   1.023   1.597
 1338SOL    HW221157   5.215   0.994   1.684
 1339SOL     OW21158   4.530   4.716   5.795
 1339SOL    HW121159   4.517   4.771   5.872
 1339SOL    HW221160   4.482   4.761   5.725
 1340SOL     OW21161   3.932   6.147   1.697
 1340SOL    HW121162   4.027   6.155   1.704
 1340SOL    HW221163   3.907   6.093   1.772
 1341SOL     OW21164   5.937   3.612   6.486
 1341SOL    HW121165   6.017   3.607   6.540
 1341SOL    HW221166   5.865   3.603   6.549
 1342SOL     OW21167   3.628   4.518   1.213
 1342SOL    HW121168   3.704   4.521   1.156
 1342SOL    HW221169   3.654   4.462   1.285
 1343SOL     OW21170   4.182   4.785   5.270
 1343SOL    HW121171   4.238   4.850   5.313
 1343SOL    HW221172   4.202   4.795   5.177
 1344SOL     OW21173   1.107   4.783   5.532
 1344SOL    HW121174   1.176   4.800   5.468
 1344SOL    HW221175   1.084   4.870   5.565
 1345SOL     OW21176   0.564   4.695   2.374
 1345SOL    HW121177   0.559   4.710   2.469
 1345SOL    HW221178   0.507   4.620   2.359
 1346SOL     OW21179   3.368   1.253   6.875
 1346SOL    HW121180   3.458   1.285   6.860
 1346SOL    HW221181   3.374   1.205   6.958
 1347SOL     OW21182   1.831   6.223   0.141
 1347SOL    HW121183   1.751   6.268   0.115
 1347SOL    HW221184   1.863   6.273   0.216
 1348SOL     OW21185   1.468   5.340   0.986
 1348SOL    HW121186   1.402   5.308   1.047
 1348SOL    HW221187   1.423   5.343   0.902
 1349SOL     OW21188   4.657   1.965   2.113
 1349SOL    HW121189   4.655   1.881   2.159
 1349SOL    HW221190   4.748   1.974   2.084
 1350SOL     OW21191   4.960   4.639   0.310
 1350SOL    HW121192   5.048   4.663   0.341
 1350SOL    HW221193   4.970   4.550   0.277
 1351SOL     OW21194   2.637   4.033   7.456
 1351SOL    HW121195   2.606   3.972   7.388
 1351SOL    HW221196   2.561   4.043   7.514
 1352SOL     OW21197   2.253   2.149   0.127
 1352SOL    HW121198   2.160   2.168   0.139
 1352SOL    HW221199   2.292   2.164   0.213
 1353SOL     OW21200   2.681   3.969   0.255
 1353SOL    HW121201   2.716   4.058   0.246
 1353SOL    HW221202   2.624   3.958   0.179
 1354SOL     OW21203   0.744   3.787   0.025
 1354SOL    HW121204   0.668   3.762   7.748
 1354SOL    HW221205   0.819   3.774   7.742
 1355SOL     OW21206   4.388   1.239   1.492
 1355SOL    HW121207   4.461   1.177   1.487
 1355SOL    HW221208   4.354   1.243   1.402
 1356SOL     OW21209   3.630   0.182   0.067
 1356SOL    HW121210   3.691   0.117   0.032
 1356SOL    HW221211   3.643   0.259   0.012
 1357SOL     OW21212   5.400   3.827   1.066
 1357SOL    HW121213   5.315   3.819   1.109
 1357SOL    HW221214   5.379   3.856   0.977
 1358SOL     OW21215   3.855   1.043   6.077
 1358SOL    HW121216   3.806   1.123   6.095
 1358SOL    HW221217   3.946   1.066   6.095
 1359SOL     OW21218   4.044   5.933   0.343
 1359SOL    HW121219   4.004   6.018   0.361
 1359SOL    HW221220   4.070   5.938   0.251
 1360SOL     OW21221   4.324   0.327   6.284
 1360SOL    HW121222   4.389   0.324   6.214
 1360SOL    HW221223   4.376   0.317   6.364
 1361SOL     OW21224   4.700   5.887   6.935
 1361SOL    HW121225   4.780   5.933   6.910
 1361SOL    HW221226   4.681   5.918   7.024
 1362SOL     OW21227   4.334   4.175   7.102
 1362SOL    HW121228   4.282   4.105   7.142
 1362SOL    HW221229   4.271   4.246   7.086
 1363SOL     OW21230   2.171   1.118   1.061
 1363SOL    HW121231   2.184   1.140   0.969
 1363SOL    HW221232   2.086   1.158   1.083
 1364SOL     OW21233   3.652   6.417   1.153
 1364SOL    HW121234   3.618   6.483   1.214
 1364SOL    HW221235   3.590   6.345   1.159
 1365SOL     OW21236   1.629   4.621   7.307
 1365SOL    HW121237   1.538   4.592   7.318
 1365SOL    HW221238   1.622   4.702   7.256
 1366SOL     OW21239   0.073   2.597   5.470
 1366SOL    HW121240   0.168   2.586   5.476
 1366SOL    HW221241   0.039   2.564   5.554
 1367SOL     OW21242   6.350   5.549   0.270
 1367SOL    HW121243   6.397   5.630   0.249
 1367SOL    HW221244   6.418   5.492   0.306
 1368SOL     OW21245   6.280   1.492   6.252
 1368SOL    HW121246   6.310   1.505   6.342
 1368SOL    HW221247   6.253   1.580   6.223
 1369SOL     OW21248   6.165   4.535   7.471
 1369SOL    HW121249   6.234   4.600   7.477
 1369SOL    HW221250   6.083   4.585   7.476
 1370SOL     OW21251   2.216   1.880   0.053
 1370SOL    HW121252   2.208   1.806   7.769
 1370SOL    HW221253   2.259   1.948   0.002
 1371SOL     OW21254   3.633   4.501   1.597
 1371SOL    HW121255   3.674   4.477   1.514
 1371SOL    HW221256   3.598   4.419   1.631
 1372SOL     OW21257   2.136   2.097   6.088
 1372SOL    HW121258   2.135   2.012   6.044
 1372SOL    HW221259   2.229   2.121   6.091
 1373SOL     OW21260   6.045   5.167   0.821
 1373SOL    HW121261   6.105   5.132   0.755
 1373SOL    HW221262   5.971   5.107   0.821
 1374SOL     OW21263   1.971   6.046   6.500
 1374SOL    HW121264   2.018   6.098   6.435
 1374SOL    HW221265   1.997   5.956   6.483
 1375SOL     OW21266   0.477   6.045   2.099
 1375SOL    HW121267   0.497   6.027   2.007
 1375SOL    HW221268   0.389   6.011   2.112
 1376SOL     OW21269   1.864   0.856   6.653
 1376SOL    HW121270   1.857   0.927   6.589
 1376SOL    HW221271   1.952   0.864   6.689
 1377SOL     OW21272   0.497   2.430   2.188
 1377SOL    HW121273   0.403   2.416   2.179
 1377SOL    HW221274   0.508   2.466   2.275
 1378SOL     OW21275   2.693   5.422   0.104
 1378SOL    HW121276   2.645   5.505   0.109
 1378SOL    HW221277   2.725   5.418   0.014
 1379SOL     OW21278   0.629   1.728   7.457
 1379SOL    HW121279   0.691   1.675   7.507
 1379SOL    HW221280   0.566   1.665   7.421
 1380SOL     OW21281   6.283   2.500   6.244
 1380SOL    HW121282   6.301   2.576   6.299
 1380SOL    HW221283   6.203   2.523   6.196
 1381SOL     OW21284   3.640   4.377   7.006
 1381SOL    HW121285   3.642   4.307   7.071
 1381SOL    HW221286   3.551   4.412   7.011
 1382SOL     OW21287   0.977   1.676   6.743
 1382SOL    HW121288   1.071   1.690   6.754
 1382SOL    HW221289   0.941   1.683   6.831
 1383SOL     OW21290   6.182   6.005   1.418
 1383SOL    HW121291   6.191   5.975   1.509
 1383SOL    HW221292   6.268   6.041   1.395
 1384SOL     OW21293   4.745   1.763   6.544
 1384SOL    HW121294   4.662   1.734   6.505
 1384SOL    HW221295   4.750   1.716   6.627
 1385SOL     OW21296   1.706   4.336   5.149
 1385SOL    HW121297   1.721   4.336   5.055
 1385SOL    HW221298   1.671   4.423   5.168
 1386SOL     OW21299   6.012   6.360   0.938
 1386SOL    HW121300   5.988   6.300   0.867
 1386SOL    HW221301   6.103   6.336   0.959
 1387SOL     OW21302   1.401   3.720   0.248
 1387SOL    HW121303   1.493   3.740   0.261
 1387SOL    HW221304   1.354   3.789   0.296
 1388SOL     OW21305   2.702   6.476   1.412
 1388SOL    HW121306   2.620   0.032   1.384
 1388SOL    HW221307   2.711   6.400   1.355
 1389SOL     OW21308   2.393   2.882   0.839
 1389SOL    HW121309   2.449   2.933   0.780
 1389SOL    HW221310   2.404   2.924   0.925
 1390SOL     OW21311   0.473   3.063   5.667
 1390SOL    HW121312   0.487   3.031   5.578
 1390SOL    HW221313   0.557   3.103   5.691
 1391SOL     OW21314   2.319   0.186   0.403
 1391SOL    HW121315   2.414   0.187   0.392
 1391SOL    HW221316   2.304   0.222   0.490
 1392SOL     OW21317   6.304   5.535   6.097
 1392SOL    HW121318   6.217   5.527   6.136
 1392SOL    HW221319   6.287   5.556   6.005
 1393SOL     OW21320   5.557   0.167   6.190
 1393SOL    HW121321   5.583   0.129   6.106
 1393SOL    HW221322   5.640   0.191   6.233
 1394SOL     OW21323   4.594   4.362   6.615
 1394SOL    HW121324   4.657   4.335   6.681
 1394SOL    HW221325   4.539   4.426   6.659
 1395SOL     OW21326   2.644   0.458   6.355
 1395SOL    HW121327   2.561   0.484   6.394
 1395SOL    HW221328   2.621   0.394   6.288
 1396SOL     OW21329   1.558   0.521   1.189
 1396SOL    HW121330   1.589   0.543   1.101
 1396SOL    HW221331   1.518   0.435   1.180
 1397SOL     OW21332   3.959   0.432   0.385
 1397SOL    HW121333   4.024   0.495   0.415
 1397SOL    HW221334   3.885   0.485   0.355
 1398SOL     OW21335   0.919   5.488   7.621
 1398SOL    HW121336   0.904   5.553   7.689
 1398SOL    HW221337   0.832   5.451   7.602
 1399SOL     OW21338   1.500   6.062   0.612
 1399SOL    HW121339   1.508   6.056   0.707
 1399SOL    HW221340   1.589   6.052   0.579
 1400SOL     OW21341   6.158   0.474   2.033
 1400SOL    HW121342   6.141   0.546   2.093
 1400SOL    HW221343   6.152   0.396   2.087
 1401SOL     OW21344   3.581   3.983   1.422
 1401SOL    HW121345   3.601   3.951   1.510
 1401SOL    HW221346   3.498   4.030   1.431
 1402SOL     OW21347   3.058   6.342   6.240
 1402SOL    HW121348   3.079   6.418   6.186
 1402SOL    HW221349   3.111   6.353   6.319
 1403SOL     OW21350   5.057   2.461   2.215
 1403SOL    HW121351   4.974   2.502   2.240
 1403SOL    HW221352   5.115   2.533   2.192
 1404SOL     OW21353   2.564   3.810   6.412
 1404SOL    HW121354   2.592   3.873   6.346
 1404SOL    HW221355   2.469   3.805   6.401
 1405SOL     OW21356   2.721   4.806   4.949
 1405SOL    HW121357   2.634   4.788   4.912
 1405SOL    HW221358   2.703   4.836   5.038
 1406SOL     OW21359   2.710   1.298   5.509
 1406SOL    HW121360   2.653   1.298   5.585
 1406SOL    HW221361   2.731   1.390   5.494
 1407SOL     OW21362   4.451   2.769   0.403
 1407SOL    HW121363   4.457   2.696   0.342
 1407SOL    HW221364   4.533   2.817   0.392
 1408SOL     OW21365   1.513   5.534   2.364
 1408SOL    HW121366   1.607   5.518   2.376
 1408SOL    HW221367   1.508   5.625   2.335
 1409SOL     OW21368   3.893   2.993   1.154
 1409SOL    HW121369   3.916   2.900   1.155
 1409SOL    HW221370   3.862   3.011   1.243
 1410SOL     OW21371   1.652   5.254   7.399
 1410SOL    HW121372   1.680   5.173   7.356
 1410SOL    HW221373   1.578   5.227   7.453
 1411SOL     OW21374   0.986   0.402   0.287
 1411SOL    HW121375   1.076   0.431   0.269
 1411SOL    HW221376   0.953   0.463   0.352
 1412SOL     OW21377   4.448   0.312   1.504
 1412SOL    HW121378   4.433   0.332   1.596
 1412SOL    HW221379   4.539   0.281   1.500
 1413SOL     OW21380   6.154   5.177   0.003
 1413SOL    HW121381   6.134   5.165   0.096
 1413SOL    HW221382   6.069   5.175   7.735
 1414SOL     OW21383   3.958   4.300   7.123
 1414SOL    HW121384   3.964   4.284   7.217
 1414SOL    HW221385   3.983   4.216   7.083
 1415SOL     OW21386   4.801   5.226   0.368
 1415SOL    HW121387   4.738   5.162   0.335
 1415SOL    HW221388   4.818   5.283   0.293
 1416SOL     OW21389   4.612   5.842   1.081
 1416SOL    HW121390   4.538   5.895   1.112
 1416SOL    HW221391   4.572   5.759   1.054
 1417SOL     OW21392   3.473   4.798   7.201
 1417SOL    HW121393   3.489   4.744   7.279
 1417SOL    HW221394   3.460   4.735   7.130
 1418SOL     OW21395   2.669   1.990   5.793
 1418SOL    HW121396   2.754   2.013   5.831
 1418SOL    HW221397   2.605   2.037   5.847
 1419SOL     OW21398   3.160   0.912   0.154
 1419SOL    HW121399   3.232   0.965   0.120
 1419SOL    HW221400   3.081   0.960   0.132
 1420SOL     OW21401   1.467   1.249   0.111
 1420SOL    HW121402   1.395   1.312   0.108
 1420SOL    HW221403   1.484   1.237   0.204
 1421SOL     OW21404   5.555   0.673   5.435
 1421SOL    HW121405   5.495   0.747   5.449
 1421SOL    HW221406   5.503   0.609   5.386
 1422SOL     OW21407   5.934   2.119   1.163
 1422SOL    HW121408   5.942   2.024   1.173
 1422SOL    HW221409   5.961   2.154   1.248
 1423SOL     OW21410   2.119   4.443   1.161
 1423SOL    HW121411   2.035   4.397   1.174
 1423SOL    HW221412   2.153   4.455   1.249
 1424SOL     OW21413   3.373   0.512   1.452
 1424SOL    HW121414   3.316   0.556   1.514
 1424SOL    HW221415   3.314   0.482   1.383
 1425SOL     OW21416   3.300   0.763   7.400
 1425SOL    HW121417   3.230   0.786   7.340
 1425SOL    HW221418   3.257   0.714   7.470
 1426SOL     OW21419   5.551   4.835   5.790
 1426SOL    HW121420   5.479   4.872   5.841
 1426SOL    HW221421   5.550   4.742   5.813
 1427SOL     OW21422   4.767   4.539   6.011
 1427SOL    HW121423   4.779   4.453   6.051
 1427SOL    HW221424   4.738   4.519   5.921
 1428SOL     OW21425   3.788   5.361   5.121
 1428SOL    HW121426   3.770   5.362   5.215
 1428SOL    HW221427   3.883   5.346   5.115
 1429SOL     OW21428   1.080   6.238   6.543
 1429SOL    HW121429   1.019   6.282   6.603
 1429SOL    HW221430   1.148   6.203   6.600
 1430SOL     OW21431   6.027   3.813   6.863
 1430SOL    HW121432   5.983   3.881   6.914
 1430SOL    HW221433   6.060   3.751   6.928
 1431SOL     OW21434   6.214   1.465   0.154
 1431SOL    HW121435   6.242   1.452   0.245
 1431SOL    HW221436   6.246   1.552   0.132
 1432SOL     OW21437   1.380   4.588   1.460
 1432SOL    HW121438   1.304   4.604   1.405
 1432SOL    HW221439   1.363   4.637   1.541
 1433SOL     OW21440   0.700   5.326   6.077
 1433SOL    HW121441   0.688   5.296   6.167
 1433SOL    HW221442   0.769   5.392   6.083
 1434SOL     OW21443   0.105   0.721   6.550
 1434SOL    HW121444   0.048   0.787   6.510
 1434SOL    HW221445   0.070   0.638   6.519
 1435SOL     OW21446   0.996   5.601   6.636
 1435SOL    HW121447   0.983   5.689   6.599
 1435SOL    HW221448   0.992   5.543   6.560
 1436SOL     OW21449   0.545   4.671   1.652
 1436SOL    HW121450   0.573   4.666   1.743
 1436SOL    HW221451   0.534   4.765   1.635
 1437SOL     OW21452   3.452   5.294   5.912
 1437SOL    HW121453   3.495   5.215   5.878
 1437SOL    HW221454   3.525   5.355   5.927
 1438SOL     OW21455   5.482   0.004   0.572
 1438SOL    HW121456   5.473   0.049   0.656
 1438SOL    HW221457   5.464   0.072   0.506
 1439SOL     OW21458   2.183   2.546   7.166
 1439SOL    HW121459   2.126   2.512   7.234
 1439SOL    HW221460   2.147   2.510   7.084
 1440SOL     OW21461   2.121   1.002   6.239
 1440SOL    HW121462   2.179   0.926   6.234
 1440SOL    HW221463   2.063   0.982   6.312
 1441SOL     OW21464   2.274   4.734   7.536
 1441SOL    HW121465   2.270   4.749   7.442
 1441SOL    HW221466   2.211   4.796   7.573
 1442SOL     OW21467   1.162   4.476   5.406
 1442SOL    HW121468   1.096   4.545   5.416
 1442SOL    HW221469   1.136   4.409   5.470
 1443SOL     OW21470   0.422   4.467   1.166
 1443SOL    HW121471   0.473   4.391   1.195
 1443SOL    HW221472   0.388   4.506   1.247
 1444SOL     OW21473   5.102   5.590   6.521
 1444SOL    HW121474   5.026   5.583   6.578
 1444SOL    HW221475   5.079   5.538   6.444
 1445SOL     OW21476   4.764   0.865   1.245
 1445SOL    HW121477   4.770   0.828   1.333
 1445SOL    HW221478   4.698   0.812   1.201
 1446SOL     OW21479   5.555   2.375   2.734
 1446SOL    HW121480   5.513   2.289   2.731
 1446SOL    HW221481   5.482   2.437   2.732
 1447SOL     OW21482   6.009   2.168   0.424
 1447SOL    HW121483   6.023   2.105   0.494
 1447SOL    HW221484   5.952   2.235   0.463
 1448SOL     OW21485   5.499   5.286   6.827
 1448SOL    HW121486   5.491   5.364   6.772
 1448SOL    HW221487   5.579   5.300   6.877
 1449SOL     OW21488   2.047   3.836   7.667
 1449SOL    HW121489   1.959   3.858   7.637
 1449SOL    HW221490   2.036   3.808   7.758
 1450SOL     OW21491   5.718   4.761   1.721
 1450SOL    HW121492   5.670   4.807   1.790
 1450SOL    HW221493   5.667   4.777   1.641
 1451SOL     OW21494   2.725   1.795   0.601
 1451SOL    HW121495   2.642   1.781   0.555
 1451SOL    HW221496   2.771   1.712   0.594
 1452SOL     OW21497   4.521   1.054   6.708
 1452SOL    HW121498   4.579   1.002   6.653
 1452SOL    HW221499   4.503   0.997   6.783
 1453SOL     OW21500   4.625   0.502   7.387
 1453SOL    HW121501   4.586   0.469   7.306
 1453SOL    HW221502   4.620   0.598   7.378
 1454SOL     OW21503   3.720   2.081   7.213
 1454SOL    HW121504   3.642   2.094   7.159
 1454SOL    HW221505   3.760   2.001   7.178
 1455SOL     OW21506   0.934   4.607   0.430
 1455SOL    HW121507   1.021   4.609   0.470
 1455SOL    HW221508   0.890   4.533   0.471
 1456SOL     OW21509   0.901   1.190   1.032
 1456SOL    HW121510   0.828   1.244   1.001
 1456SOL    HW221511   0.958   1.252   1.078
 1457SOL     OW21512   3.454   0.032   6.001
 1457SOL    HW121513   3.406   0.114   5.985
 1457SOL    HW221514   3.433   6.463   5.925
 1458SOL     OW21515   4.882   5.020   5.960
 1458SOL    HW121516   4.919   4.983   6.041
 1458SOL    HW221517   4.921   5.106   5.953
 1459SOL     OW21518   1.993   5.787   6.425
 1459SOL    HW121519   1.937   5.710   6.411
 1459SOL    HW221520   2.055   5.760   6.493
 1460SOL     OW21521   3.653   6.144   0.400
 1460SOL    HW121522   3.630   6.160   0.491
 1460SOL    HW221523   3.626   6.053   0.384
 1461SOL     OW21524   2.807   1.052   6.414
 1461SOL    HW121525   2.758   1.089   6.340
 1461SOL    HW221526   2.813   0.958   6.395
 1462SOL     OW21527   6.229   0.068   7.524
 1462SOL    HW121528   6.163   0.055   7.592
 1462SOL    HW221529   6.180   0.061   7.442
 1463SOL     OW21530   4.643   5.504   7.764
 1463SOL    HW121531   4.719   5.538   7.717
 1463SOL    HW221532   4.604   5.582   0.030
 1464SOL     OW21533   3.756   2.889   6.175
 1464SOL    HW121534   3.791   2.801   6.166
 1464SOL    HW221535   3.832   2.943   6.198
 1465SOL     OW21536   5.079   2.099   7.123
 1465SOL    HW121537   5.045   2.070   7.208
 1465SOL    HW221538   5.005   2.091   7.064
 1466SOL     OW21539   5.513   6.157   0.707
 1466SOL    HW121540   5.556   6.162   0.793
 1466SOL    HW221541   5.420   6.168   0.726
 1467SOL     OW21542   0.688   5.466   2.135
 1467SOL    HW121543   0.660   5.468   2.044
 1467SOL    HW221544   0.692   5.559   2.160
 1468SOL     OW21545   5.143   0.145   2.283
 1468SOL    HW121546   5.223   0.160   2.233
 1468SOL    HW221547   5.098   0.230   2.281
 1469SOL     OW21548   6.289   3.676   7.585
 1469SOL    HW121549   6.332   3.676   7.670
 1469SOL    HW221550   6.349   3.627   7.528
 1470SOL     OW21551   1.154   2.551   1.231
 1470SOL    HW121552   1.244   2.541   1.200
 1470SOL    HW221553   1.161   2.559   1.326
 1471SOL     OW21554   0.475   3.323   1.797
 1471SOL    HW121555   0.494   3.257   1.864
 1471SOL    HW221556   0.526   3.399   1.824
 1472SOL     OW21557   5.124   5.244   5.769
 1472SOL    HW121558   5.190   5.250   5.838
 1472SOL    HW221559   5.136   5.324   5.718
 1473SOL     OW21560   4.341   5.317   0.498
 1473SOL    HW121561   4.320   5.282   0.412
 1473SOL    HW221562   4.383   5.401   0.480
 1474SOL     OW21563   3.320   2.738   1.480
 1474SOL    HW121564   3.375   2.671   1.521
 1474SOL    HW221565   3.370   2.766   1.403
 1475SOL     OW21566   1.249   3.200   6.572
 1475SOL    HW121567   1.248   3.296   6.571
 1475SOL    HW221568   1.235   3.176   6.480
 1476SOL     OW21569   5.940   1.227   7.391
 1476SOL    HW121570   6.013   1.201   7.448
 1476SOL    HW221571   5.862   1.199   7.437
 1477SOL     OW21572   6.199   5.361   1.131
 1477SOL    HW121573   6.145   5.283   1.115
 1477SOL    HW221574   6.238   5.346   1.217
 1478SOL     OW21575   5.781   0.885   1.042
 1478SOL    HW121576   5.724   0.822   1.087
 1478SOL    HW221577   5.868   0.868   1.078
 1479SOL     OW21578   4.160   2.116   0.136
 1479SOL    HW121579   4.100   2.072   0.196
 1479SOL    HW221580   4.240   2.063   0.140
 1480SOL     OW21581   5.601   5.553   7.127
 1480SOL    HW121582   5.530   5.491   7.143
 1480SOL    HW221583   5.681   5.501   7.130
 1481SOL     OW21584   5.970   0.600   0.375
 1481SOL    HW121585   5.950   0.562   0.461
 1481SOL    HW221586   6.058   0.570   0.355
 1482SOL     OW21587   0.471   5.768   1.942
 1482SOL    HW121588   0.394   5.735   1.895
 1482SOL    HW221589   0.525   5.807   1.873
 1483SOL     OW21590   1.261   2.265   1.573
 1483SOL    HW121591   1.350   2.234   1.587
 1483SOL    HW221592   1.209   2.221   1.639
 1484SOL     OW21593   4.235   0.906   1.960
 1484SOL    HW121594   4.159   0.947   1.919
 1484SOL    HW221595   4.233   0.938   2.050
 1485SOL     OW21596   3.280   1.389   1.610
 1485SOL    HW121597   3.209   1.393   1.674
 1485SOL    HW221598   3.360   1.403   1.662
 1486SOL     OW21599   4.872   4.749   5.873
 1486SOL    HW121600   4.837   4.676   5.926
 1486SOL    HW221601   4.838   4.827   5.916
 1487SOL     OW21602   0.934   2.928   6.847
 1487SOL    HW121603   0.905   3.017   6.827
 1487SOL    HW221604   0.862   2.872   6.819
 1488SOL     OW21605   3.492   4.462   6.440
 1488SOL    HW121606   3.415   4.451   6.385
 1488SOL    HW221607   3.559   4.499   6.382
 1489SOL     OW21608   4.462   5.721   1.454
 1489SOL    HW121609   4.514   5.800   1.437
 1489SOL    HW221610   4.401   5.747   1.523
 1490SOL     OW21611   1.885   4.399   6.648
 1490SOL    HW121612   1.803   4.419   6.692
 1490SOL    HW221613   1.938   4.354   6.714
 1491SOL     OW21614   5.802   0.992   6.199
 1491SOL    HW121615   5.851   0.924   6.153
 1491SOL    HW221616   5.773   1.052   6.130
 1492SOL     OW21617   1.892   3.963   4.977
 1492SOL    HW121618   1.852   4.046   4.950
 1492SOL    HW221619   1.915   3.977   5.069
 1493SOL     OW21620   1.159   5.359   1.020
 1493SOL    HW121621   1.113   5.278   1.042
 1493SOL    HW221622   1.115   5.390   0.940
 1494SOL     OW21623   3.366   4.057   5.697
 1494SOL    HW121624   3.404   4.102   5.772
 1494SOL    HW221625   3.414   3.974   5.692
 1495SOL     OW21626   5.740   3.511   6.653
 1495SOL    HW121627   5.728   3.419   6.628
 1495SOL    HW221628   5.772   3.507   6.744
 1496SOL     OW21629   3.079   3.171   6.389
 1496SOL    HW121630   3.125   3.153   6.307
 1496SOL    HW221631   3.067   3.265   6.390
 1497SOL     OW21632   3.018   2.678   7.452
 1497SOL    HW121633   2.946   2.741   7.445
 1497SOL    HW221634   3.095   2.727   7.422
 1498SOL     OW21635   3.448   3.061   1.313
 1498SOL    HW121636   3.353   3.077   1.318
 1498SOL    HW221637   3.485   3.146   1.290
 1499SOL     OW21638   5.684   3.852   0.877
 1499SOL    HW121639   5.653   3.776   0.925
 1499SOL    HW221640   5.605   3.905   0.864
 1500SOL     OW21641   2.279   0.110   6.542
 1500SOL    HW121642   2.331   0.179   6.582
 1500SOL    HW221643   2.225   0.155   6.477
 1501SOL     OW21644   1.115   6.409   1.086
 1501SOL    HW121645   1.074   6.408   1.000
 1501SOL    HW221646   1.188   6.348   1.080
 1502SOL     OW21647   6.096   0.274   0.829
 1502SOL    HW121648   6.006   0.247   0.845
 1502SOL    HW221649   6.131   0.294   0.916
 1503SOL     OW21650   0.607   4.592   0.511
 1503SOL    HW121651   0.533   4.634   0.469
 1503SOL    HW221652   0.588   4.598   0.605
 1504SOL     OW21653   4.247   5.745   0.393
 1504SOL    HW121654   4.196   5.672   0.359
 1504SOL    HW221655   4.189   5.821   0.383
 1505SOL     OW21656   4.195   2.824   1.846
 1505SOL    HW121657   4.119   2.881   1.832
 1505SOL    HW221658   4.157   2.739   1.869
 1506SOL     OW21659   4.599   4.403   0.381
 1506SOL    HW121660   4.617   4.317   0.419
 1506SOL    HW221661   4.521   4.434   0.427
 1507SOL     OW21662   1.875   3.951   0.738
 1507SOL    HW121663   1.853   3.858   0.753
 1507SOL    HW221664   1.944   3.970   0.801
 1508SOL     OW21665   6.257   1.183   7.478
 1508SOL    HW121666   6.215   1.100   7.500
 1508SOL    HW221667   6.248   1.235   7.558
 1509SOL     OW21668   2.222   5.294   2.196
 1509SOL    HW121669   2.217   5.307   2.101
 1509SOL    HW221670   2.133   5.274   2.222
 1510SOL     OW21671   6.038   0.181   1.307
 1510SOL    HW121672   6.093   0.214   1.378
 1510SOL    HW221673   6.018   0.091   1.332
 1511SOL     OW21674   0.952   2.328   1.791
 1511SOL    HW121675   0.937   2.366   1.705
 1511SOL    HW221676   1.027   2.269   1.779
 1512SOL     OW21677   2.939   4.776   6.901
 1512SOL    HW121678   2.847   4.793   6.881
 1512SOL    HW221679   2.981   4.771   6.815
 1513SOL     OW21680   4.333   5.984   1.900
 1513SOL    HW121681   4.257   6.003   1.954
 1513SOL    HW221682   4.356   5.894   1.923
 1514SOL     OW21683   3.274   6.401   0.553
 1514SOL    HW121684   3.365   6.430   0.548
 1514SOL    HW221685   3.239   6.416   0.466
 1515SOL     OW21686   2.918   3.852   2.333
 1515SOL    HW121687   2.839   3.853   2.280
 1515SOL    HW221688   2.886   3.843   2.423
 1516SOL     OW21689   3.146   2.488   2.216
 1516SOL    HW121690   3.104   2.538   2.146
 1516SOL    HW221691   3.152   2.399   2.182
 1517SOL     OW21692   4.094   5.366   6.337
 1517SOL    HW121693   4.080   5.301   6.405
 1517SOL    HW221694   4.182   5.348   6.304
 1518SOL     OW21695   2.607   2.446   0.428
 1518SOL    HW121696   2.517   2.434   0.458
 1518SOL    HW221697   2.661   2.422   0.504
 1519SOL     OW21698   1.688   2.179   0.945
 1519SOL    HW121699   1.749   2.119   0.901
 1519SOL    HW221700   1.674   2.249   0.881
 1520SOL     OW21701   5.505   3.842   0.348
 1520SOL    HW121702   5.449   3.917   0.330
 1520SOL    HW221703   5.524   3.805   0.262
 1521SOL     OW21704   1.089   4.167   0.718
 1521SOL    HW121705   1.131   4.193   0.635
 1521SOL    HW221706   1.025   4.100   0.692
 1522SOL     OW21707   2.759   1.574   5.465
 1522SOL    HW121708   2.821   1.582   5.392
 1522SOL    HW221709   2.776   1.651   5.520
 1523SOL     OW21710   6.078   4.322   7.317
 1523SOL    HW121711   6.107   4.395   7.371
 1523SOL    HW221712   6.038   4.261   7.379
 1524SOL     OW21713   2.713   2.747   1.584
 1524SOL    HW121714   2.783   2.807   1.608
 1524SOL    HW221715   2.738   2.664   1.624
 1525SOL     OW21716   5.117   5.105   6.767
 1525SOL    HW121717   5.092   5.105   6.859
 1525SOL    HW221718   5.158   5.020   6.753
 1526SOL     OW21719   2.575   4.114   1.607
 1526SOL    HW121720   2.564   4.104   1.512
 1526SOL    HW221721   2.494   4.080   1.645
 1527SOL     OW21722   5.506   0.187   1.589
 1527SOL    HW121723   5.502   0.234   1.672
 1527SOL    HW221724   5.580   0.126   1.599
 1528SOL     OW21725   2.539   1.445   7.647
 1528SOL    HW121726   2.556   1.433   7.740
 1528SOL    HW221727   2.557   1.360   7.608
 1529SOL     OW21728   5.324   6.443   7.259
 1529SOL    HW121729   5.387   6.386   7.302
 1529SOL    HW221730   5.249   6.386   7.239
 1530SOL     OW21731   2.197   5.434   7.682
 1530SOL    HW121732   2.223   5.382   7.758
 1530SOL    HW221733   2.163   5.515   7.718
 1531SOL     OW21734   4.304   5.848   6.256
 1531SOL    HW121735   4.363   5.822   6.185
 1531SOL    HW221736   4.351   5.826   6.336
 1532SOL     OW21737   0.754   1.080   0.795
 1532SOL    HW121738   0.674   1.102   0.842
 1532SOL    HW221739   0.825   1.105   0.854
 1533SOL     OW21740   3.414   0.523   6.925
 1533SOL    HW121741   3.336   0.483   6.964
 1533SOL    HW221742   3.429   0.473   6.845
 1534SOL     OW21743   1.666   5.432   7.009
 1534SOL    HW121744   1.682   5.526   7.007
 1534SOL    HW221745   1.597   5.418   6.944
 1535SOL     OW21746   2.513   4.228   0.147
 1535SOL    HW121747   2.497   4.161   0.214
 1535SOL    HW221748   2.607   4.245   0.152
 1536SOL     OW21749   4.632   5.585   5.913
 1536SOL    HW121750   4.690   5.527   5.962
 1536SOL    HW221751   4.665   5.581   5.823
 1537SOL     OW21752   2.094   3.947   2.120
 1537SOL    HW121753   2.122   3.864   2.158
 1537SOL    HW221754   2.165   3.973   2.062
 1538SOL     OW21755   0.071   2.611   7.081
 1538SOL    HW121756   0.042   2.544   7.142
 1538SOL    HW221757   0.108   2.563   7.007
 1539SOL     OW21758   4.151   4.961   1.150
 1539SOL    HW121759   4.207   4.905   1.204
 1539SOL    HW221760   4.105   4.900   1.092
 1540SOL     OW21761   5.775   5.497   1.595
 1540SOL    HW121762   5.689   5.509   1.635
 1540SOL    HW221763   5.815   5.425   1.644
 1541SOL     OW21764   5.660   1.825   6.287
 1541SOL    HW121765   5.680   1.747   6.235
 1541SOL    HW221766   5.745   1.855   6.319
 1542SOL     OW21767   5.003   4.778   0.824
 1542SOL    HW121768   5.094   4.800   0.803
 1542SOL    HW221769   5.001   4.773   0.919
 1543SOL     OW21770   0.566   5.641   0.581
 1543SOL    HW121771   0.598   5.729   0.562
 1543SOL    HW221772   0.641   5.597   0.624
 1544SOL     OW21773   4.645   3.302   0.576
 1544SOL    HW121774   4.612   3.260   0.497
 1544SOL    HW221775   4.650   3.395   0.554
 1545SOL     OW21776   5.147   0.809   7.624
 1545SOL    HW121777   5.158   0.901   7.598
 1545SOL    HW221778   5.154   0.810   7.720
 1546SOL     OW21779   4.371   0.371   7.618
 1546SOL    HW121780   4.335   0.404   7.701
 1546SOL    HW221781   4.417   0.291   7.642
 1547SOL     OW21782   4.621   2.177   0.318
 1547SOL    HW121783   4.648   2.086   0.326
 1547SOL    HW221784   4.684   2.226   0.370
 1548SOL     OW21785   6.234   4.928   7.112
 1548SOL    HW121786   6.139   4.929   7.121
 1548SOL    HW221787   6.262   4.853   7.165
 1549SOL     OW21788   2.512   0.807   7.070
 1549SOL    HW121789   2.459   0.730   7.053
 1549SOL    HW221790   2.545   0.834   6.984
 1550SOL     OW21791   2.246   2.673   1.945
 1550SOL    HW121792   2.259   2.742   2.009
 1550SOL    HW221793   2.280   2.594   1.988
 1551SOL     OW21794   3.232   6.169   5.801
 1551SOL    HW121795   3.228   6.153   5.896
 1551SOL    HW221796   3.179   6.099   5.763
 1552SOL     OW21797   3.518   0.419   7.268
 1552SOL    HW121798   3.505   0.324   7.258
 1552SOL    HW221799   3.609   0.433   7.242
 1553SOL     OW21800   3.599   3.038   0.934
 1553SOL    HW121801   3.530   3.098   0.961
 1553SOL    HW221802   3.646   3.085   0.865
 1554SOL     OW21803   0.325   5.034   1.382
 1554SOL    HW121804   0.357   5.069   1.299
 1554SOL    HW221805   0.230   5.038   1.375
 1555SOL     OW21806   5.809   1.328   0.985
 1555SOL    HW121807   5.763   1.274   0.921
 1555SOL    HW221808   5.882   1.274   1.014
 1556SOL     OW21809   5.933   5.162   7.332
 1556SOL    HW121810   5.873   5.157   7.258
 1556SOL    HW221811   6.006   5.215   7.300
 1557SOL     OW21812   4.758   6.437   0.875
 1557SOL    HW121813   4.732   6.349   0.848
 1557SOL    HW221814   4.729   6.444   0.966
 1558SOL     OW21815   5.165   6.337   6.382
 1558SOL    HW121816   5.126   6.424   6.386
 1558SOL    HW221817   5.220   6.338   6.304
 1559SOL     OW21818   6.350   4.786   1.339
 1559SOL    HW121819   6.442   4.803   1.319
 1559SOL    HW221820   6.305   4.806   1.257
 1560SOL     OW21821   4.003   0.639   7.378
 1560SOL    HW121822   4.063   0.631   7.304
 1560SOL    HW221823   3.927   0.685   7.342
 1561SOL     OW21824   3.173   5.696   6.136
 1561SOL    HW121825   3.107   5.756   6.101
 1561SOL    HW221826   3.197   5.733   6.220
 1562SOL     OW21827   4.476   0.003   7.472
 1562SOL    HW121828   4.492   6.412   7.527
 1562SOL    HW221829   4.407   6.461   7.412
 1563SOL     OW21830   0.119   4.935   6.647
 1563SOL    HW121831   0.045   4.923   6.707
 1563SOL    HW221832   0.079   4.971   6.568
 1564SOL     OW21833   3.519   0.131   0.482
 1564SOL    HW121834   3.611   0.130   0.454
 1564SOL    HW221835   3.469   0.131   0.400
 1565SOL     OW21836   6.139   4.114   7.099
 1565SOL    HW121837   6.221   4.080   7.065
 1565SOL    HW221838   6.162   4.155   7.182
 1566SOL     OW21839   3.115   4.058   5.994
 1566SOL    HW121840   3.119   4.139   6.046
 1566SOL    HW221841   3.161   3.993   6.046
 1567SOL     OW21842   5.600   0.575   1.545
 1567SOL    HW121843   5.631   0.529   1.623
 1567SOL    HW221844   5.583   0.664   1.575
 1568SOL     OW21845   0.542   3.977   1.644
 1568SOL    HW121846   0.573   3.981   1.734
 1568SOL    HW221847   0.603   3.918   1.599
 1569SOL     OW21848   0.023   2.895   7.559
 1569SOL    HW121849   6.466   2.975   7.531
 1569SOL    HW221850   0.021   2.839   7.482
 1570SOL     OW21851   3.047   0.762   6.345
 1570SOL    HW121852   3.023   0.804   6.263
 1570SOL    HW221853   3.022   0.670   6.333
 1571SOL     OW21854   2.444   3.137   6.589
 1571SOL    HW121855   2.382   3.153   6.660
 1571SOL    HW221856   2.512   3.203   6.600
 1572SOL     OW21857   0.451   2.975   1.639
 1572SOL    HW121858   0.357   2.995   1.645
 1572SOL    HW221859   0.479   2.961   1.729
 1573SOL     OW21860   0.808   3.559   5.197
 1573SOL    HW121861   0.857   3.629   5.153
 1573SOL    HW221862   0.717   3.575   5.171
 1574SOL     OW21863   4.906   4.139   0.823
 1574SOL    HW121864   4.982   4.143   0.766
 1574SOL    HW221865   4.858   4.220   0.806
 1575SOL     OW21866   3.848   3.805   7.622
 1575SOL    HW121867   3.887   3.838   7.703
 1575SOL    HW221868   3.895   3.851   7.553
 1576SOL     OW21869   0.306   0.743   1.245
 1576SOL    HW121870   0.270   0.824   1.280
 1576SOL    HW221871   0.401   0.754   1.250
 1577SOL     OW21872   0.296   1.287   2.260
 1577SOL    HW121873   0.351   1.327   2.192
 1577SOL    HW221874   0.241   1.224   2.213
 1578SOL     OW21875   2.636   5.725   6.301
 1578SOL    HW121876   2.723   5.715   6.338
 1578SOL    HW221877   2.633   5.815   6.271
 1579SOL     OW21878   0.388   5.312   6.074
 1579SOL    HW121879   0.476   5.282   6.053
 1579SOL    HW221880   0.381   5.302   6.169
 1580SOL     OW21881   5.726   2.480   7.091
 1580SOL    HW121882   5.694   2.517   7.172
 1580SOL    HW221883   5.662   2.413   7.068
 1581SOL     OW21884   4.132   0.034   1.450
 1581SOL    HW121885   4.087   0.033   1.535
 1581SOL    HW221886   4.074   6.470   1.393
 1582SOL     OW21887   4.789   0.846   0.562
 1582SOL    HW121888   4.779   0.792   0.483
 1582SOL    HW221889   4.849   0.916   0.535
 1583SOL     OW21890   5.487   2.866   0.457
 1583SOL    HW121891   5.577   2.868   0.492
 1583SOL    HW221892   5.479   2.946   0.406
 1584SOL     OW21893   2.000   4.126   6.478
 1584SOL    HW121894   2.007   4.052   6.539
 1584SOL    HW221895   1.960   4.196   6.530
 1585SOL     OW21896   4.203   5.500   6.947
 1585SOL    HW121897   4.212   5.595   6.938
 1585SOL    HW221898   4.277   5.475   7.003
 1586SOL     OW21899   0.762   2.507   0.450
 1586SOL    HW121900   0.741   2.592   0.410
 1586SOL    HW221901   0.851   2.488   0.420
 1587SOL     OW21902   0.450   1.881   1.700
 1587SOL    HW121903   0.479   1.797   1.734
 1587SOL    HW221904   0.377   1.907   1.757
 1588SOL     OW21905   2.529   2.942   1.523
 1588SOL    HW121906   2.587   2.870   1.548
 1588SOL    HW221907   2.492   2.973   1.606
 1589SOL     OW21908   6.375   5.937   0.032
 1589SOL    HW121909   6.315   5.870   0.066
 1589SOL    HW221910   6.425   5.891   7.739
 1590SOL     OW21911   0.450   3.953   7.100
 1590SOL    HW121912   0.403   3.872   7.120
 1590SOL    HW221913   0.407   4.020   7.153
 1591SOL     OW21914   6.339   2.421   7.423
 1591SOL    HW121915   6.250   2.419   7.459
 1591SOL    HW221916   6.396   2.426   7.500
 1592SOL     OW21917   5.047   5.939   0.830
 1592SOL    HW121918   5.068   5.852   0.864
 1592SOL    HW221919   4.963   5.928   0.785
 1593SOL     OW21920   5.532   1.046   6.959
 1593SOL    HW121921   5.452   1.063   6.909
 1593SOL    HW221922   5.561   1.132   6.988
 1594SOL     OW21923   2.925   2.497   0.165
 1594SOL    HW121924   2.958   2.513   0.077
 1594SOL    HW221925   2.978   2.554   0.221
 1595SOL     OW21926   1.037   4.374   1.048
 1595SOL    HW121927   1.020   4.394   0.956
 1595SOL    HW221928   0.966   4.418   1.096
 1596SOL     OW21929   2.565   2.639   6.516
 1596SOL    HW121930   2.527   2.694   6.448
 1596SOL    HW221931   2.591   2.700   6.585
 1597SOL     OW21932   2.061   5.841   6.145
 1597SOL    HW121933   2.067   5.936   6.148
 1597SOL    HW221934   2.060   5.814   6.237
 1598SOL     OW21935   1.939   5.009   6.029
 1598SOL    HW121936   1.856   4.966   6.049
 1598SOL    HW221937   2.005   4.941   6.043
 1599SOL     OW21938   4.652   0.777   7.357
 1599SOL    HW121939   4.714   0.818   7.297
 1599SOL    HW221940   4.610   0.850   7.402
 1600SOL     OW21941   0.774   4.487   0.882
 1600SOL    HW121942   0.848   4.483   0.822
 1600SOL    HW221943   0.743   4.397   0.887
 1601SOL     OW21944   2.425   4.714   5.888
 1601SOL    HW121945   2.487   4.650   5.922
 1601SOL    HW221946   2.394   4.676   5.806
 1602SOL     OW21947   1.101   0.323   1.032
 1602SOL    HW121948   1.027   0.316   0.972
 1602SOL    HW221949   1.162   0.255   1.002
 1603SOL     OW21950   6.407   1.778   0.357
 1603SOL    HW121951   6.422   1.870   0.378
 1603SOL    HW221952   6.418   1.731   0.440
 1604SOL     OW21953   5.209   6.318   7.622
 1604SOL    HW121954   5.177   6.230   7.643
 1604SOL    HW221955   5.132   6.363   7.587
 1605SOL     OW21956   3.807   1.798   1.862
 1605SOL    HW121957   3.810   1.769   1.771
 1605SOL    HW221958   3.894   1.776   1.897
 1606SOL     OW21959   1.892   1.572   0.030
 1606SOL    HW121960   1.848   1.528   0.102
 1606SOL    HW221961   1.981   1.590   0.063
 1607SOL     OW21962   5.559   0.540   7.456
 1607SOL    HW121963   5.616   0.525   7.531
 1607SOL    HW221964   5.551   0.454   7.415
 1608SOL     OW21965   3.007   3.579   5.526
 1608SOL    HW121966   3.012   3.609   5.435
 1608SOL    HW221967   2.948   3.504   5.524
 1609SOL     OW21968   2.361   6.337   6.627
 1609SOL    HW121969   2.312   6.417   6.611
 1609SOL    HW221970   2.366   6.330   6.723
 1610SOL     OW21971   0.664   5.715   0.069
 1610SOL    HW121972   0.745   5.664   0.078
 1610SOL    HW221973   0.598   5.664   0.115
 1611SOL     OW21974   5.793   1.172   1.408
 1611SOL    HW121975   5.824   1.093   1.453
 1611SOL    HW221976   5.789   1.147   1.315
 1612SOL     OW21977   1.818   4.757   0.349
 1612SOL    HW121978   1.907   4.781   0.322
 1612SOL    HW221979   1.791   4.692   0.285
 1613SOL     OW21980   5.883   2.290   0.659
 1613SOL    HW121981   5.828   2.326   0.729
 1613SOL    HW221982   5.945   2.232   0.704
 1614SOL     OW21983   0.229   6.169   7.020
 1614SOL    HW121984   0.190   6.100   7.074
 1614SOL    HW221985   0.277   6.223   7.082
 1615SOL     OW21986   5.498   2.795   0.146
 1615SOL    HW121987   5.581   2.753   0.169
 1615SOL    HW221988   5.519   2.888   0.139
 1616SOL     OW21989   6.342   3.072   0.019
 1616SOL    HW121990   6.366   3.042   7.707
 1616SOL    HW221991   6.304   3.159   0.005
 1617SOL     OW21992   2.218   0.227   1.246
 1617SOL    HW121993   2.158   0.153   1.234
 1617SOL    HW221994   2.172   0.302   1.209
 1618SOL     OW21995   2.529   0.929   5.836
 1618SOL    HW121996   2.604   0.965   5.788
 1618SOL    HW221997   2.561   0.919   5.926
 1619SOL     OW21998   4.099   6.151   5.391
 1619SOL    HW121999   4.174   6.192   5.434
 1619SOL    HW222000   4.044   6.120   5.463
 1620SOL     OW22001   4.371   0.573   6.536
 1620SOL    HW122002   4.397   0.587   6.445
 1620SOL    HW222003   4.283   0.536   6.530
 1621SOL     OW22004   1.650   6.250   2.107
 1621SOL    HW122005   1.722   6.194   2.079
 1621SOL    HW222006   1.625   6.298   2.027
 1622SOL     OW22007   0.663   1.408   5.593
 1622SOL    HW122008   0.726   1.480   5.587
 1622SOL    HW222009   0.580   1.446   5.566
 1623SOL     OW22010   1.336   6.346   1.634
 1623SOL    HW122011   1.419   6.320   1.592
 1623SOL    HW222012   1.347   6.320   1.726
 1624SOL     OW22013   0.683   3.897   0.452
 1624SOL    HW122014   0.661   3.970   0.394
 1624SOL    HW222015   0.637   3.917   0.533
 1625SOL     OW22016   1.478   0.047   7.540
 1625SOL    HW122017   1.458   0.001   7.621
 1625SOL    HW222018   1.393   0.077   7.508
 1626SOL     OW22019   5.811   3.213   5.648
 1626SOL    HW122020   5.861   3.271   5.705
 1626SOL    HW222021   5.877   3.170   5.594
 1627SOL     OW22022   2.751   4.413   6.772
 1627SOL    HW122023   2.657   4.417   6.755
 1627SOL    HW222024   2.758   4.410   6.867
 1628SOL     OW22025   4.668   6.260   1.454
 1628SOL    HW122026   4.586   6.279   1.407
 1628SOL    HW222027   4.725   6.334   1.434
 1629SOL     OW22028   3.954   0.816   0.202
 1629SOL    HW122029   3.880   0.855   0.249
 1629SOL    HW222030   3.960   0.866   0.120
 1630SOL     OW22031   3.793   3.222   1.086
 1630SOL    HW122032   3.881   3.217   1.122
 1630SOL    HW222033   3.767   3.130   1.075
 1631SOL     OW22034   5.603   4.950   7.710
 1631SOL    HW122035   5.596   4.977   7.618
 1631SOL    HW222036   5.616   5.031   7.758
 1632SOL     OW22037   5.321   0.443   7.080
 1632SOL    HW122038   5.314   0.359   7.036
 1632SOL    HW222039   5.332   0.421   7.173
 1633SOL     OW22040   2.273   3.216   6.776
 1633SOL    HW122041   2.182   3.212   6.805
 1633SOL    HW222042   2.288   3.309   6.758
 1634SOL     OW22043   1.196   3.046   2.135
 1634SOL    HW122044   1.275   3.087   2.170
 1634SOL    HW222045   1.170   3.102   2.062
 1635SOL     OW22046   1.701   5.372   1.586
 1635SOL    HW122047   1.764   5.352   1.517
 1635SOL    HW222048   1.751   5.361   1.667
 1636SOL     OW22049   0.854   4.279   2.210
 1636SOL    HW122050   0.775   4.318   2.245
 1636SOL    HW222051   0.925   4.313   2.265
 1637SOL     OW22052   3.322   4.487   7.514
 1637SOL    HW122053   3.341   4.486   7.608
 1637SOL    HW222054   3.236   4.446   7.506
 1638SOL     OW22055   1.964   4.231   0.541
 1638SOL    HW122056   1.905   4.215   0.467
 1638SOL    HW222057   2.004   4.315   0.523
 1639SOL     OW22058   1.461   5.076   6.064
 1639SOL    HW122059   1.391   5.095   6.127
 1639SOL    HW222060   1.459   5.149   6.002
 1640SOL     OW22061   3.443   3.070   0.188
 1640SOL    HW122062   3.355   3.081   0.152
 1640SOL    HW222063   3.429   3.034   0.276
 1641SOL     OW22064   0.523   1.328   6.003
 1641SOL    HW122065   0.468   1.406   5.995
 1641SOL    HW222066   0.536   1.299   5.913
 1642SOL     OW22067   4.994   1.105   1.411
 1642SOL    HW122068   5.082   1.085   1.378
 1642SOL    HW222069   4.970   1.186   1.367
 1643SOL     OW22070   4.237   0.419   0.692
 1643SOL    HW122071   4.246   0.382   0.604
 1643SOL    HW222072   4.148   0.453   0.695
 1644SOL     OW22073   1.426   1.283   1.205
 1644SOL    HW122074   1.493   1.268   1.271
 1644SOL    HW222075   1.353   1.321   1.252
 1645SOL     OW22076   1.111   6.232   1.801
 1645SOL    HW122077   1.055   6.310   1.801
 1645SOL    HW222078   1.189   6.259   1.848
 1646SOL     OW22079   1.837   4.605   0.679
 1646SOL    HW122080   1.814   4.514   0.662
 1646SOL    HW222081   1.925   4.602   0.715
 1647SOL     OW22082   2.917   3.531   0.174
 1647SOL    HW122083   2.907   3.443   0.210
 1647SOL    HW222084   3.005   3.558   0.201
 1648SOL     OW22085   2.405   3.855   5.768
 1648SOL    HW122086   2.410   3.940   5.724
 1648SOL    HW222087   2.374   3.795   5.700
 1649SOL     OW22088   1.591   4.459   6.670
 1649SOL    HW122089   1.545   4.397   6.727
 1649SOL    HW222090   1.562   4.545   6.700
 1650SOL     OW22091   5.181   4.702   7.131
 1650SOL    HW122092   5.245   4.651   7.181
 1650SOL    HW222093   5.097   4.660   7.149
 1651SOL     OW22094   5.225   6.342   1.426
 1651SOL    HW122095   5.305   6.324   1.476
 1651SOL    HW222096   5.254   6.340   1.335
 1652SOL     OW22097   4.788   3.670   7.718
 1652SOL    HW122098   4.883   3.666   7.731
 1652SOL    HW222099   4.761   3.753   7.758
 1653SOL     OW22100   3.127   3.684   6.446
 1653SOL    HW122101   3.121   3.752   6.513
 1653SOL    HW222102   3.041   3.685   6.403
 1654SOL     OW22103   4.853   6.065   2.124
 1654SOL    HW122104   4.867   6.135   2.188
 1654SOL    HW222105   4.802   6.000   2.171
 1655SOL     OW22106   6.246   6.442   7.047
 1655SOL    HW122107   6.178   0.001   6.996
 1655SOL    HW222108   6.313   0.023   7.061
 1656SOL     OW22109   5.223   2.790   0.067
 1656SOL    HW122110   5.200   2.717   0.010
 1656SOL    HW222111   5.318   2.798   0.059
 1657SOL     OW22112   3.220   4.946   6.558
 1657SOL    HW122113   3.148   5.009   6.554
 1657SOL    HW222114   3.238   4.924   6.467
 1658SOL     OW22115   4.895   4.974   6.936
 1658SOL    HW122116   4.843   5.048   6.904
 1658SOL    HW222117   4.958   5.015   6.996
 1659SOL     OW22118   3.467   0.150   7.253
 1659SOL    HW122119   3.550   0.112   7.280
 1659SOL    HW222120   3.402   0.112   7.312
 1660SOL     OW22121   3.167   5.408   0.409
 1660SOL    HW122122   3.121   5.486   0.441
 1660SOL    HW222123   3.244   5.401   0.466
 1661SOL     OW22124   1.136   4.604   7.198
 1661SOL    HW122125   1.055   4.554   7.192
 1661SOL    HW222126   1.122   4.680   7.141
 1662SOL     OW22127   3.277   6.080   1.524
 1662SOL    HW122128   3.329   6.103   1.446
 1662SOL    HW222129   3.309   6.139   1.592
 1663SOL     OW22130   5.982   2.590   7.201
 1663SOL    HW122131   5.912   2.570   7.139
 1663SOL    HW222132   6.057   2.610   7.146
 1664SOL     OW22133   0.604   5.523   1.875
 1664SOL    HW122134   0.578   5.510   1.784
 1664SOL    HW222135   0.542   5.587   1.909
 1665SOL     OW22136   3.111   3.539   1.294
 1665SOL    HW122137   3.191   3.575   1.332
 1665SOL    HW222138   3.051   3.532   1.369
 1666SOL     OW22139   4.836   0.000   7.655
 1666SOL    HW122140   4.910   0.049   7.620
 1666SOL    HW222141   4.770   0.003   7.585
 1667SOL     OW22142   3.394   3.129   7.249
 1667SOL    HW122143   3.442   3.208   7.276
 1667SOL    HW222144   3.316   3.163   7.205
 1668SOL     OW22145   1.101   1.681   0.370
 1668SOL    HW122146   1.166   1.637   0.316
 1668SOL    HW222147   1.118   1.774   0.356
 1669SOL     OW22148   6.133   0.555   2.446
 1669SOL    HW122149   6.194   0.517   2.383
 1669SOL    HW222150   6.084   0.481   2.480
 1670SOL     OW22151   4.091   3.135   6.563
 1670SOL    HW122152   4.178   3.153   6.528
 1670SOL    HW222153   4.044   3.093   6.491
 1671SOL     OW22154   2.660   3.618   5.773
 1671SOL    HW122155   2.712   3.541   5.794
 1671SOL    HW222156   2.577   3.583   5.741
 1672SOL     OW22157   0.246   0.744   0.569
 1672SOL    HW122158   0.167   0.694   0.591
 1672SOL    HW222159   0.218   0.835   0.575
 1673SOL     OW22160   0.056   5.295   6.330
 1673SOL    HW122161   0.105   5.377   6.328
 1673SOL    HW222162   6.480   5.302   6.258
 1674SOL     OW22163   0.953   0.711   7.220
 1674SOL    HW122164   0.923   0.646   7.284
 1674SOL    HW222165   0.873   0.750   7.187
 1675SOL     OW22166   0.270   2.788   0.771
 1675SOL    HW122167   0.355   2.782   0.727
 1675SOL    HW222168   0.229   2.703   0.756
 1676SOL     OW22169   4.714   4.142   0.235
 1676SOL    HW122170   4.646   4.085   0.271
 1676SOL    HW222171   4.667   4.219   0.205
 1677SOL     OW22172   5.709   3.802   6.618
 1677SOL    HW122173   5.799   3.835   6.626
 1677SOL    HW222174   5.717   3.709   6.638
 1678SOL     OW22175   0.300   3.826   0.975
 1678SOL    HW122176   0.321   3.802   1.065
 1678SOL    HW222177   0.302   3.744   0.927
 1679SOL     OW22178   6.217   5.047   0.645
 1679SOL    HW122179   6.172   4.986   0.587
 1679SOL    HW222180   6.306   5.052   0.610
 1680SOL     OW22181   1.995   3.589   0.884
 1680SOL    HW122182   1.976   3.509   0.835
 1680SOL    HW222183   2.079   3.619   0.849
 1681SOL     OW22184   3.258   5.899   2.183
 1681SOL    HW122185   3.299   5.982   2.209
 1681SOL    HW222186   3.165   5.912   2.200
 1682SOL     OW22187   5.335   0.228   2.124
 1682SOL    HW122188   5.383   0.283   2.186
 1682SOL    HW222189   5.403   0.191   2.068
 1683SOL     OW22190   3.535   1.780   6.954
 1683SOL    HW122191   3.488   1.853   6.993
 1683SOL    HW222192   3.580   1.739   7.028
 1684SOL     OW22193   3.134   2.080   5.449
 1684SOL    HW122194   3.049   2.115   5.422
 1684SOL    HW222195   3.184   2.157   5.477
 1685SOL     OW22196   0.060   5.518   0.024
 1685SOL    HW122197   6.453   5.498   0.019
 1685SOL    HW222198   0.090   5.474   0.104
 1686SOL     OW22199   5.332   0.786   1.327
 1686SOL    HW122200   5.312   0.879   1.326
 1686SOL    HW222201   5.254   0.745   1.288
 1687SOL     OW22202   5.962   5.522   5.446
 1687SOL    HW122203   6.003   5.471   5.376
 1687SOL    HW222204   5.869   5.523   5.424
 1688SOL     OW22205   0.930   6.442   6.390
 1688SOL    HW122206   0.846   6.440   6.434
 1688SOL    HW222207   0.977   6.365   6.423
 1689SOL     OW22208   2.568   0.290   0.523
 1689SOL    HW122209   2.617   0.227   0.575
 1689SOL    HW222210   2.533   0.352   0.587
 1690SOL     OW22211   1.796   4.145   5.834
 1690SOL    HW122212   1.841   4.118   5.754
 1690SOL    HW222213   1.834   4.091   5.903
 1691SOL     OW22214   1.571   3.367   5.939
 1691SOL    HW122215   1.497   3.308   5.958
 1691SOL    HW222216   1.643   3.308   5.916
 1692SOL     OW22217   0.111   2.483   1.517
 1692SOL    HW122218   0.133   2.551   1.581
 1692SOL    HW222219   0.123   2.526   1.432
 1693SOL     OW22220   2.181   2.955   6.898
 1693SOL    HW122221   2.111   2.948   6.832
 1693SOL    HW222222   2.215   3.044   6.887
 1694SOL     OW22223   4.797   5.772   7.722
 1694SOL    HW122224   4.875   5.794   7.772
 1694SOL    HW222225   4.732   5.837   7.749
 1695SOL     OW22226   4.087   2.757   6.398
 1695SOL    HW122227   4.060   2.729   6.485
 1695SOL    HW222228   4.164   2.703   6.379
 1696SOL     OW22229   6.172   4.165   5.942
 1696SOL    HW122230   6.131   4.210   5.868
 1696SOL    HW222231   6.262   4.148   5.913
 1697SOL     OW22232   2.893   1.967   6.964
 1697SOL    HW122233   2.822   1.912   6.930
 1697SOL    HW222234   2.850   2.029   7.022
 1698SOL     OW22235   5.689   5.747   2.047
 1698SOL    HW122236   5.609   5.770   2.000
 1698SOL    HW222237   5.728   5.677   1.994
 1699SOL     OW22238   5.892   5.012   2.251
 1699SOL    HW122239   5.805   5.019   2.290
 1699SOL    HW222240   5.893   5.077   2.181
 1700SOL     OW22241   4.851   0.387   0.467
 1700SOL    HW122242   4.934   0.351   0.436
 1700SOL    HW222243   4.869   0.479   0.484
 1701SOL     OW22244   5.324   2.199   7.634
 1701SOL    HW122245   5.381   2.138   7.587
 1701SOL    HW222246   5.353   2.285   7.605
 1702SOL     OW22247   1.359   2.528   0.749
 1702SOL    HW122248   1.366   2.615   0.787
 1702SOL    HW222249   1.408   2.534   0.667
 1703SOL     OW22250   3.259   4.499   6.671
 1703SOL    HW122251   3.329   4.563   6.684
 1703SOL    HW222252   3.293   4.419   6.712
 1704SOL     OW22253   1.931   3.882   2.321
 1704SOL    HW122254   1.952   3.789   2.315
 1704SOL    HW222255   1.965   3.919   2.240
 1705SOL     OW22256   3.593   1.913   1.129
 1705SOL    HW122257   3.610   2.007   1.120
 1705SOL    HW222258   3.678   1.872   1.118
 1706SOL     OW22259   1.195   4.906   1.342
 1706SOL    HW122260   1.285   4.886   1.317
 1706SOL    HW222261   1.176   4.991   1.303
 1707SOL     OW22262   6.201   3.850   1.413
 1707SOL    HW122263   6.112   3.877   1.437
 1707SOL    HW222264   6.252   3.860   1.494
 1708SOL     OW22265   6.274   0.949   1.974
 1708SOL    HW122266   6.302   1.012   1.908
 1708SOL    HW222267   6.355   0.921   2.017
 1709SOL     OW22268   2.220   6.003   0.086
 1709SOL    HW122269   2.256   6.080   0.130
 1709SOL    HW222270   2.294   5.943   0.078
 1710SOL     OW22271   1.390   1.642   0.798
 1710SOL    HW122272   1.306   1.688   0.795
 1710SOL    HW222273   1.367   1.552   0.820
 1711SOL     OW22274   5.828   3.603   1.033
 1711SOL    HW122275   5.890   3.534   1.057
 1711SOL    HW222276   5.828   3.662   1.108
 1712SOL     OW22277   4.233   0.022   7.331
 1712SOL    HW122278   4.282   0.103   7.350
 1712SOL    HW222279   4.170   0.016   7.402
 1713SOL     OW22280   2.899   1.662   6.373
 1713SOL    HW122281   2.899   1.734   6.309
 1713SOL    HW222282   2.984   1.669   6.416
 1714SOL     OW22283   6.317   3.414   0.209
 1714SOL    HW122284   6.395   3.370   0.243
 1714SOL    HW222285   6.268   3.440   0.286
 1715SOL     OW22286   0.107   2.066   6.631
 1715SOL    HW122287   0.124   2.011   6.554
 1715SOL    HW222288   0.012   2.069   6.638
 1716SOL     OW22289   4.952   1.743   5.734
 1716SOL    HW122290   4.930   1.826   5.776
 1716SOL    HW222291   4.923   1.676   5.796
 1717SOL     OW22292   2.334   5.936   7.209
 1717SOL    HW122293   2.374   6.016   7.243
 1717SOL    HW222294   2.405   5.892   7.161
 1718SOL     OW22295   2.904   2.748   6.611
 1718SOL    HW122296   2.974   2.791   6.661
 1718SOL    HW222297   2.824   2.791   6.642
 1719SOL     OW22298   3.632   3.838   1.717
 1719SOL    HW122299   3.673   3.775   1.657
 1719SOL    HW222300   3.701   3.861   1.778
 1720SOL     OW22301   2.057   3.905   6.636
 1720SOL    HW122302   2.119   3.887   6.706
 1720SOL    HW222303   2.054   3.824   6.585
 1721SOL     OW22304   2.054   1.385   5.682
 1721SOL    HW122305   2.043   1.353   5.592
 1721SOL    HW222306   2.133   1.440   5.677
 1722SOL     OW22307   6.101   1.343   6.809
 1722SOL    HW122308   6.151   1.264   6.830
 1722SOL    HW222309   6.166   1.404   6.775
 1723SOL     OW22310   5.659   0.876   7.496
 1723SOL    HW122311   5.564   0.872   7.509
 1723SOL    HW222312   5.669   0.901   7.404
 1724SOL     OW22313   6.002   0.256   1.907
 1724SOL    HW122314   5.983   0.185   1.968
 1724SOL    HW222315   6.096   0.268   1.913
 1725SOL     OW22316   5.685   1.830   7.054
 1725SOL    HW122317   5.660   1.775   7.128
 1725SOL    HW222318   5.708   1.768   6.985
 1726SOL     OW22319   0.685   1.303   6.764
 1726SOL    HW122320   0.594   1.294   6.792
 1726SOL    HW222321   0.680   1.307   6.668
 1727SOL     OW22322   4.287   3.202   0.027
 1727SOL    HW122323   4.333   3.217   7.720
 1727SOL    HW222324   4.352   3.163   0.085
 1728SOL     OW22325   1.826   0.626   7.024
 1728SOL    HW122326   1.793   0.677   7.099
 1728SOL    HW222327   1.786   0.668   6.948
 1729SOL     OW22328   1.751   3.566   0.672
 1729SOL    HW122329   1.820   3.577   0.606
 1729SOL    HW222330   1.777   3.487   0.720
 1730SOL     OW22331   4.657   1.434   1.607
 1730SOL    HW122332   4.694   1.450   1.694
 1730SOL    HW222333   4.642   1.340   1.604
 1731SOL     OW22334   4.874   0.098   7.333
 1731SOL    HW122335   4.789   0.091   7.288
 1731SOL    HW222336   4.868   0.179   7.383
 1732SOL     OW22337   5.693   5.509   5.402
 1732SOL    HW122338   5.645   5.439   5.359
 1732SOL    HW222339   5.634   5.540   5.471
 1733SOL     OW22340   4.898   3.519   6.226
 1733SOL    HW122341   4.807   3.502   6.252
 1733SOL    HW222342   4.893   3.535   6.131
 1734SOL     OW22343   3.181   0.642   7.596
 1734SOL    HW122344   3.205   0.618   7.686
 1734SOL    HW222345   3.144   0.562   7.559
 1735SOL     OW22346   5.367   3.082   1.166
 1735SOL    HW122347   5.274   3.086   1.190
 1735SOL    HW222348   5.413   3.112   1.244
 1736SOL     OW22349   5.012   3.417   1.878
 1736SOL    HW122350   5.021   3.425   1.973
 1736SOL    HW222351   4.949   3.486   1.855
 1737SOL     OW22352   0.059   2.627   1.236
 1737SOL    HW122353   6.468   2.574   1.257
 1737SOL    HW222354   0.033   2.678   1.159
 1738SOL     OW22355   2.822   2.063   1.434
 1738SOL    HW122356   2.797   2.006   1.507
 1738SOL    HW222357   2.839   2.148   1.475
 1739SOL     OW22358   2.055   1.560   7.446
 1739SOL    HW122359   2.086   1.596   7.363
 1739SOL    HW222360   2.025   1.472   7.424
 1740SOL     OW22361   0.867   5.428   7.177
 1740SOL    HW122362   0.799   5.482   7.218
 1740SOL    HW222363   0.942   5.434   7.237
 1741SOL     OW22364   6.299   2.600   0.841
 1741SOL    HW122365   6.206   2.592   0.820
 1741SOL    HW222366   6.315   2.536   0.909
 1742SOL     OW22367   3.638   3.216   0.064
 1742SOL    HW122368   3.570   3.150   0.081
 1742SOL    HW222369   3.713   3.165   0.033
 1743SOL     OW22370   2.388   3.847   6.041
 1743SOL    HW122371   2.432   3.930   6.058
 1743SOL    HW222372   2.372   3.846   5.947
 1744SOL     OW22373   3.170   5.844   5.255
 1744SOL    HW122374   3.081   5.874   5.238
 1744SOL    HW222375   3.177   5.840   5.350
 1745SOL     OW22376   0.252   3.103   7.591
 1745SOL    HW122377   0.243   3.058   7.507
 1745SOL    HW222378   0.344   3.090   7.616
 1746SOL     OW22379   4.769   4.582   0.983
 1746SOL    HW122380   4.795   4.549   0.898
 1746SOL    HW222381   4.825   4.658   0.998
 1747SOL     OW22382   5.464   4.992   6.892
 1747SOL    HW122383   5.477   4.964   6.982
 1747SOL    HW222384   5.477   5.086   6.893
 1748SOL     OW22385   0.191   6.084   1.527
 1748SOL    HW122386   0.284   6.062   1.529
 1748SOL    HW222387   0.173   6.117   1.615
 1749SOL     OW22388   3.868   3.053   0.299
 1749SOL    HW122389   3.911   3.050   0.384
 1749SOL    HW222390   3.831   3.141   0.294
 1750SOL     OW22391   1.233   0.147   0.273
 1750SOL    HW122392   1.262   0.234   0.245
 1750SOL    HW222393   1.159   0.126   0.216
 1751SOL     OW22394   3.421   4.815   0.999
 1751SOL    HW122395   3.392   4.724   1.004
 1751SOL    HW222396   3.364   4.855   0.934
 1752SOL     OW22397   4.076   2.836   1.456
 1752SOL    HW122398   4.089   2.794   1.371
 1752SOL    HW222399   4.034   2.769   1.510
 1753SOL     OW22400   2.419   5.535   1.569
 1753SOL    HW122401   2.332   5.553   1.604
 1753SOL    HW222402   2.432   5.441   1.585
 1754SOL     OW22403   5.065   1.295   6.596
 1754SOL    HW122404   5.133   1.345   6.642
 1754SOL    HW222405   5.112   1.218   6.563
 1755SOL     OW22406   4.251   0.987   2.227
 1755SOL    HW122407   4.340   0.998   2.192
 1755SOL    HW222408   4.259   1.010   2.319
 1756SOL     OW22409   2.770   3.189   7.591
 1756SOL    HW122410   2.778   3.278   7.626
 1756SOL    HW222411   2.747   3.202   7.499
 1757SOL     OW22412   5.324   4.793   1.403
 1757SOL    HW122413   5.259   4.861   1.385
 1757SOL    HW222414   5.273   4.712   1.406
 1758SOL     OW22415   0.072   0.934   6.909
 1758SOL    HW122416   0.001   0.940   6.845
 1758SOL    HW222417   0.029   0.910   6.991
 1759SOL     OW22418   6.194   0.647   6.652
 1759SOL    HW122419   6.285   0.673   6.669
 1759SOL    HW222420   6.155   0.723   6.610
 1760SOL     OW22421   1.474   2.185   6.611
 1760SOL    HW122422   1.457   2.214   6.521
 1760SOL    HW222423   1.407   2.119   6.628
 1761SOL     OW22424   5.675   5.397   6.428
 1761SOL    HW122425   5.606   5.461   6.412
 1761SOL    HW222426   5.635   5.332   6.486
 1762SOL     OW22427   4.776   4.906   1.256
 1762SOL    HW122428   4.706   4.905   1.192
 1762SOL    HW222429   4.736   4.873   1.336
 1763SOL     OW22430   4.763   2.246   0.604
 1763SOL    HW122431   4.773   2.308   0.531
 1763SOL    HW222432   4.760   2.301   0.682
 1764SOL     OW22433   3.730   1.378   1.313
 1764SOL    HW122434   3.685   1.295   1.295
 1764SOL    HW222435   3.686   1.442   1.257
 1765SOL     OW22436   3.708   6.283   6.942
 1765SOL    HW122437   3.631   6.329   6.976
 1765SOL    HW222438   3.676   6.195   6.921
 1766SOL     OW22439   0.942   0.613   0.816
 1766SOL    HW122440   1.028   0.591   0.852
 1766SOL    HW222441   0.883   0.609   0.892
 1767SOL     OW22442   3.076   3.881   5.799
 1767SOL    HW122443   3.085   3.944   5.871
 1767SOL    HW222444   3.110   3.928   5.722
 1768SOL     OW22445   0.626   2.867   7.438
 1768SOL    HW122446   0.707   2.826   7.408
 1768SOL    HW222447   0.570   2.868   7.360
 1769SOL     OW22448   4.219   2.224   7.380
 1769SOL    HW122449   4.195   2.199   7.469
 1769SOL    HW222450   4.298   2.174   7.362
 1770SOL     OW22451   2.913   2.970   1.592
 1770SOL    HW122452   2.911   3.050   1.644
 1770SOL    HW222453   2.986   2.920   1.629
 1771SOL     OW22454   5.136   2.029   6.417
 1771SOL    HW122455   5.095   2.014   6.503
 1771SOL    HW222456   5.224   2.061   6.439
 1772SOL     OW22457   4.844   1.111   0.251
 1772SOL    HW122458   4.749   1.111   0.253
 1772SOL    HW222459   4.870   1.074   0.335
 1773SOL     OW22460   5.214   2.788   7.153
 1773SOL    HW122461   5.133   2.755   7.114
 1773SOL    HW222462   5.186   2.832   7.233
 1774SOL     OW22463   2.312   5.503   6.416
 1774SOL    HW122464   2.385   5.470   6.363
 1774SOL    HW222465   2.250   5.431   6.419
 1775SOL     OW22466   0.290   4.668   7.167
 1775SOL    HW122467   0.303   4.574   7.180
 1775SOL    HW222468   0.295   4.680   7.072
 1776SOL     OW22469   0.794   0.900   7.072
 1776SOL    HW122470   0.867   0.953   7.104
 1776SOL    HW222471   0.816   0.880   6.981
 1777SOL     OW22472   0.211   0.037   0.330
 1777SOL    HW122473   0.225   6.431   0.350
 1777SOL    HW222474   0.296   0.068   0.298
 1778SOL     OW22475   4.210   6.141   1.687
 1778SOL    HW122476   4.220   6.118   1.594
 1778SOL    HW222477   4.267   6.079   1.733
 1779SOL     OW22478   0.261   3.734   2.044
 1779SOL    HW122479   0.338   3.703   1.997
 1779SOL    HW222480   0.262   3.686   2.127
 1780SOL     OW22481   3.727   1.101   0.947
 1780SOL    HW122482   3.715   1.128   1.039
 1780SOL    HW222483   3.749   1.008   0.952
 1781SOL     OW22484   1.748   0.594   0.237
 1781SOL    HW122485   1.747   0.499   0.223
 1781SOL    HW222486   1.763   0.631   0.150
 1782SOL     OW22487   2.610   6.322   5.789
 1782SOL    HW122488   2.703   6.343   5.785
 1782SOL    HW222489   2.603   6.234   5.752
 1783SOL     OW22490   3.471   3.361   7.350
 1783SOL    HW122491   3.560   3.375   7.317
 1783SOL    HW222492   3.481   3.355   7.445
 1784SOL     OW22493   1.123   5.091   6.836
 1784SOL    HW122494   1.112   5.129   6.923
 1784SOL    HW222495   1.127   5.167   6.777
 1785SOL     OW22496   1.206   0.615   0.520
 1785SOL    HW122497   1.200   0.645   0.430
 1785SOL    HW222498   1.115   0.602   0.547
 1786SOL     OW22499   2.908   5.533   0.457
 1786SOL    HW122500   2.877   5.460   0.404
 1786SOL    HW222501   2.905   5.608   0.398
 1787SOL     OW22502   3.358   6.047   6.750
 1787SOL    HW122503   3.317   5.975   6.798
 1787SOL    HW222504   3.338   6.125   6.801
 1788SOL     OW22505   1.746   0.481   6.469
 1788SOL    HW122506   1.743   0.503   6.376
 1788SOL    HW222507   1.828   0.431   6.479
 1789SOL     OW22508   5.142   2.818   0.623
 1789SOL    HW122509   5.194   2.878   0.678
 1789SOL    HW222510   5.056   2.860   0.617
 1790SOL     OW22511   4.920   0.659   7.627
 1790SOL    HW122512   4.859   0.719   7.669
 1790SOL    HW222513   5.003   0.706   7.625
 1791SOL     OW22514   4.029   0.750   2.426
 1791SOL    HW122515   4.034   0.746   2.330
 1791SOL    HW222516   3.953   0.698   2.449
 1792SOL     OW22517   1.909   1.594   0.564
 1792SOL    HW122518   1.815   1.612   0.567
 1792SOL    HW222519   1.915   1.499   0.548
 1793SOL     OW22520   6.186   5.205   7.215
 1793SOL    HW122521   6.212   5.114   7.203
 1793SOL    HW222522   6.202   5.246   7.130
 1794SOL     OW22523   3.121   3.379   5.291
 1794SOL    HW122524   3.182   3.308   5.311
 1794SOL    HW222525   3.041   3.355   5.338
 1795SOL     OW22526   4.798   0.177   1.698
 1795SOL    HW122527   4.782   0.250   1.757
 1795SOL    HW222528   4.752   0.103   1.738
 1796SOL     OW22529   3.567   1.725   5.917
 1796SOL    HW122530   3.659   1.705   5.935
 1796SOL    HW222531   3.522   1.642   5.933
 1797SOL     OW22532   2.356   5.665   0.657
 1797SOL    HW122533   2.335   5.715   0.578
 1797SOL    HW222534   2.302   5.586   0.651
 1798SOL     OW22535   4.532   0.004   1.066
 1798SOL    HW122536   4.502   0.057   1.140
 1798SOL    HW222537   4.490   0.043   0.989
 1799SOL     OW22538   2.060   3.420   6.959
 1799SOL    HW122539   2.034   3.336   6.923
 1799SOL    HW222540   1.999   3.435   7.031
 1800SOL     OW22541   0.198   4.921   0.053
 1800SOL    HW122542   0.267   4.857   0.070
 1800SOL    HW222543   0.120   4.867   0.039
 1801SOL     OW22544   5.942   2.323   7.626
 1801SOL    HW122545   6.008   2.293   7.564
 1801SOL    HW222546   5.971   2.289   7.710
 1802SOL     OW22547   1.088   4.292   2.364
 1802SOL    HW122548   1.139   4.222   2.405
 1802SOL    HW222549   1.151   4.339   2.310
 1803SOL     OW22550   4.540   1.107   5.472
 1803SOL    HW122551   4.601   1.147   5.410
 1803SOL    HW222552   4.496   1.180   5.514
 1804SOL     OW22553   0.623   2.965   0.580
 1804SOL    HW122554   0.595   3.030   0.516
 1804SOL    HW222555   0.718   2.958   0.567
 1805SOL     OW22556   1.827   1.478   6.611
 1805SOL    HW122557   1.739   1.501   6.579
 1805SOL    HW222558   1.882   1.481   6.533
 1806SOL     OW22559   5.173   5.496   5.935
 1806SOL    HW122560   5.137   5.518   5.849
 1806SOL    HW222561   5.214   5.411   5.923
 1807SOL     OW22562   2.110   2.295   0.587
 1807SOL    HW122563   2.051   2.278   0.514
 1807SOL    HW222564   2.053   2.332   0.655
 1808SOL     OW22565   3.927   5.578   6.253
 1808SOL    HW122566   3.979   5.639   6.200
 1808SOL    HW222567   3.981   5.499   6.258
 1809SOL     OW22568   5.261   5.151   6.381
 1809SOL    HW122569   5.218   5.076   6.422
 1809SOL    HW222570   5.336   5.170   6.439
 1810SOL     OW22571   4.256   2.824   6.996
 1810SOL    HW122572   4.203   2.867   7.062
 1810SOL    HW222573   4.285   2.743   7.037
 1811SOL     OW22574   6.220   6.228   7.205
 1811SOL    HW122575   6.229   6.304   7.148
 1811SOL    HW222576   6.201   6.265   7.291
 1812SOL     OW22577   3.571   3.997   7.438
 1812SOL    HW122578   3.507   4.062   7.466
 1812SOL    HW222579   3.537   3.963   7.355
 1813SOL     OW22580   2.296   1.521   5.652
 1813SOL    HW122581   2.301   1.608   5.690
 1813SOL    HW222582   2.361   1.521   5.582
 1814SOL     OW22583   2.351   4.863   6.228
 1814SOL    HW122584   2.320   4.944   6.269
 1814SOL    HW222585   2.386   4.811   6.301
 1815SOL     OW22586   2.420   6.157   7.329
 1815SOL    HW122587   2.361   6.154   7.405
 1815SOL    HW222588   2.507   6.140   7.365
 1816SOL     OW22589   1.216   3.063   6.317
 1816SOL    HW122590   1.226   3.012   6.237
 1816SOL    HW222591   1.158   3.010   6.372
 1817SOL     OW22592   1.966   2.354   6.715
 1817SOL    HW122593   1.970   2.304   6.634
 1817SOL    HW222594   1.935   2.292   6.781
 1818SOL     OW22595   4.751   0.191   2.343
 1818SOL    HW122596   4.845   0.200   2.362
 1818SOL    HW222597   4.721   0.124   2.404
 1819SOL     OW22598   4.423   5.415   7.087
 1819SOL    HW122599   4.498   5.360   7.065
 1819SOL    HW222600   4.408   5.398   7.180
 1820SOL     OW22601   4.658   0.409   6.313
 1820SOL    HW122602   4.670   0.504   6.318
 1820SOL    HW222603   4.615   0.394   6.229
 1821SOL     OW22604   3.516   1.503   6.670
 1821SOL    HW122605   3.521   1.437   6.739
 1821SOL    HW222606   3.441   1.477   6.617
 1822SOL     OW22607   2.580   3.072   0.413
 1822SOL    HW122608   2.545   3.097   0.499
 1822SOL    HW222609   2.505   3.038   0.365
 1823SOL     OW22610   3.244   5.241   6.673
 1823SOL    HW122611   3.190   5.290   6.611
 1823SOL    HW222612   3.312   5.201   6.618
 1824SOL     OW22613   4.589   4.285   7.209
 1824SOL    HW122614   4.543   4.201   7.204
 1824SOL    HW222615   4.520   4.350   7.193
 1825SOL     OW22616   1.499   2.525   0.502
 1825SOL    HW122617   1.515   2.609   0.460
 1825SOL    HW222618   1.433   2.483   0.447
 1826SOL     OW22619   0.531   2.899   5.455
 1826SOL    HW122620   0.608   2.946   5.426
 1826SOL    HW222621   0.564   2.813   5.483
 1827SOL     OW22622   4.167   3.519   0.798
 1827SOL    HW122623   4.102   3.455   0.769
 1827SOL    HW222624   4.117   3.585   0.845
 1828SOL     OW22625   1.375   4.755   7.727
 1828SOL    HW122626   1.429   4.787   7.655
 1828SOL    HW222627   1.296   4.809   7.725
 1829SOL     OW22628   1.065   5.603   5.846
 1829SOL    HW122629   1.078   5.608   5.752
 1829SOL    HW222630   1.118   5.675   5.881
 1830SOL     OW22631   1.476   1.344   0.907
 1830SOL    HW122632   1.444   1.373   0.992
 1830SOL    HW222633   1.557   1.296   0.926
 1831SOL     OW22634   3.601   0.478   1.609
 1831SOL    HW122635   3.516   0.465   1.568
 1831SOL    HW222636   3.582   0.526   1.689
 1832SOL     OW22637   2.769   5.790   7.228
 1832SOL    HW122638   2.795   5.701   7.252
 1832SOL    HW222639   2.673   5.786   7.220
 1833SOL     OW22640   1.947   1.135   1.389
 1833SOL    HW122641   1.910   1.221   1.371
 1833SOL    HW222642   1.977   1.141   1.479
 1834SOL     OW22643   2.752   6.224   7.666
 1834SOL    HW122644   2.749   6.310   7.708
 1834SOL    HW222645   2.663   6.210   7.636
 1835SOL     OW22646   4.901   3.016   6.744
 1835SOL    HW122647   4.885   2.926   6.770
 1835SOL    HW222648   4.837   3.067   6.794
 1836SOL     OW22649   4.668   2.854   7.753
 1836SOL    HW122650   4.685   2.766   0.011
 1836SOL    HW222651   4.745   2.876   7.701
 1837SOL     OW22652   2.185   0.924   1.463
 1837SOL    HW122653   2.153   1.008   1.495
 1837SOL    HW222654   2.138   0.859   1.516
 1838SOL     OW22655   4.823   1.405   7.311
 1838SOL    HW122656   4.860   1.331   7.262
 1838SOL    HW222657   4.752   1.366   7.363
 1839SOL     OW22658   3.549   0.596   1.129
 1839SOL    HW122659   3.474   0.649   1.154
 1839SOL    HW222660   3.575   0.630   1.043
 1840SOL     OW22661   1.886   5.778   0.347
 1840SOL    HW122662   1.921   5.847   0.290
 1840SOL    HW222663   1.801   5.812   0.376
 1841SOL     OW22664   5.474   2.103   7.394
 1841SOL    HW122665   5.399   2.048   7.374
 1841SOL    HW222666   5.545   2.069   7.341
 1842SOL     OW22667   1.184   0.323   0.596
 1842SOL    HW122668   1.184   0.376   0.517
 1842SOL    HW222669   1.238   0.372   0.658
 1843SOL     OW22670   0.939   4.626   5.327
 1843SOL    HW122671   0.941   4.617   5.232
 1843SOL    HW222672   0.916   4.718   5.342
 1844SOL     OW22673   4.866   0.588   5.549
 1844SOL    HW122674   4.776   0.587   5.581
 1844SOL    HW222675   4.867   0.655   5.481
 1845SOL     OW22676   0.460   4.489   7.375
 1845SOL    HW122677   0.414   4.412   7.407
 1845SOL    HW222678   0.430   4.560   7.431
 1846SOL     OW22679   4.734   1.404   2.591
 1846SOL    HW122680   4.698   1.408   2.503
 1846SOL    HW222681   4.668   1.444   2.647
 1847SOL     OW22682   0.750   1.076   1.233
 1847SOL    HW122683   0.799   1.080   1.315
 1847SOL    HW222684   0.814   1.098   1.166
 1848SOL     OW22685   4.320   4.247   6.052
 1848SOL    HW122686   4.285   4.297   6.125
 1848SOL    HW222687   4.243   4.220   6.002
 1849SOL     OW22688   2.520   3.586   6.677
 1849SOL    HW122689   2.459   3.622   6.613
 1849SOL    HW222690   2.497   3.629   6.759
 1850SOL     OW22691   1.411   5.237   6.860
 1850SOL    HW122692   1.320   5.239   6.889
 1850SOL    HW222693   1.424   5.321   6.817
 1851SOL     OW22694   5.035   6.079   6.446
 1851SOL    HW122695   5.103   6.144   6.431
 1851SOL    HW222696   5.083   5.998   6.466
 1852SOL     OW22697   6.346   5.392   5.805
 1852SOL    HW122698   6.305   5.478   5.816
 1852SOL    HW222699   6.337   5.351   5.891
 1853SOL     OW22700   1.319   6.395   1.912
 1853SOL    HW122701   1.415   6.391   1.914
 1853SOL    HW222702   1.298   0.002   1.917
 1854SOL     OW22703   4.604   4.189   1.404
 1854SOL    HW122704   4.605   4.094   1.410
 1854SOL    HW222705   4.658   4.218   1.477
 1855SOL     OW22706   5.082   6.028   7.571
 1855SOL    HW122707   5.118   5.979   7.646
 1855SOL    HW222708   5.100   5.973   7.495
 1856SOL     OW22709   2.666   4.797   6.856
 1856SOL    HW122710   2.634   4.871   6.803
 1856SOL    HW222711   2.617   4.804   6.938
 1857SOL     OW22712   1.102   2.173   0.510
 1857SOL    HW122713   1.105   2.093   0.457
 1857SOL    HW222714   1.159   2.153   0.584
 1858SOL     OW22715   2.098   0.888   5.930
 1858SOL    HW122716   2.116   0.823   5.998
 1858SOL    HW222717   2.015   0.859   5.891
 1859SOL     OW22718   0.774   5.732   1.209
 1859SOL    HW122719   0.717   5.662   1.239
 1859SOL    HW222720   0.722   5.781   1.145
 1860SOL     OW22721   1.819   4.219   7.088
 1860SOL    HW122722   1.901   4.214   7.038
 1860SOL    HW222723   1.798   4.313   7.092
 1861SOL     OW22724   2.614   5.088   7.680
 1861SOL    HW122725   2.549   5.019   7.695
 1861SOL    HW222726   2.562   5.168   7.669
 1862SOL     OW22727   0.532   4.017   7.574
 1862SOL    HW122728   0.584   3.986   7.500
 1862SOL    HW222729   0.487   3.938   7.606
 1863SOL     OW22730   3.382   1.140   0.179
 1863SOL    HW122731   3.389   1.201   0.106
 1863SOL    HW222732   3.309   1.175   0.231
 1864SOL     OW22733   2.985   5.485   7.602
 1864SOL    HW122734   2.965   5.525   7.687
 1864SOL    HW222735   2.972   5.392   7.616
 1865SOL     OW22736   2.606   5.633   6.864
 1865SOL    HW122737   2.520   5.668   6.840
 1865SOL    HW222738   2.610   5.547   6.821
 1866SOL     OW22739   3.602   4.479   6.688
 1866SOL    HW122740   3.563   4.476   6.601
 1866SOL    HW222741   3.558   4.410   6.737
 1867SOL     OW22742   6.039   4.721   6.150
 1867SOL    HW122743   5.978   4.750   6.082
 1867SOL    HW222744   6.112   4.783   6.146
 1868SOL     OW22745   5.344   3.295   0.694
 1868SOL    HW122746   5.376   3.253   0.774
 1868SOL    HW222747   5.338   3.224   0.630
 1869SOL     OW22748   3.198   1.757   2.258
 1869SOL    HW122749   3.290   1.777   2.238
 1869SOL    HW222750   3.162   1.840   2.288
 1870SOL     OW22751   0.388   4.305   6.965
 1870SOL    HW122752   0.433   4.275   6.886
 1870SOL    HW222753   0.314   4.355   6.933
 1871SOL     OW22754   0.811   4.697   5.869
 1871SOL    HW122755   0.820   4.723   5.778
 1871SOL    HW222756   0.730   4.647   5.872
 1872SOL     OW22757   6.126   0.018   7.287
 1872SOL    HW122758   6.060   6.455   7.238
 1872SOL    HW222759   6.210   6.471   7.254
 1873SOL     OW22760   4.882   1.485   7.653
 1873SOL    HW122761   4.889   1.540   7.731
 1873SOL    HW222762   4.952   1.420   7.664
 1874SOL     OW22763   3.949   0.952   7.763
 1874SOL    HW122764   4.000   0.901   7.700
 1874SOL    HW222765   3.896   1.010   7.709
 1875SOL     OW22766   1.184   2.827   6.837
 1875SOL    HW122767   1.091   2.841   6.854
 1875SOL    HW222768   1.226   2.833   6.923
 1876SOL     OW22769   0.010   3.585   1.194
 1876SOL    HW122770   0.067   3.521   1.151
 1876SOL    HW222771   0.001   3.552   1.284
 1877SOL     OW22772   1.672   1.859   1.514
 1877SOL    HW122773   1.734   1.792   1.543
 1877SOL    HW222774   1.705   1.940   1.554
 1878SOL     OW22775   1.957   5.966   0.151
 1878SOL    HW122776   1.930   6.056   0.135
 1878SOL    HW222777   2.052   5.966   0.139
 1879SOL     OW22778   6.013   4.228   6.240
 1879SOL    HW122779   5.978   4.276   6.164
 1879SOL    HW222780   6.062   4.293   6.290
 1880SOL     OW22781   0.936   0.404   1.241
 1880SOL    HW122782   0.989   0.408   1.161
 1880SOL    HW222783   0.946   0.314   1.272
 1881SOL     OW22784   1.233   4.859   6.813
 1881SOL    HW122785   1.195   4.944   6.792
 1881SOL    HW222786   1.171   4.796   6.776
 1882SOL     OW22787   0.084   5.811   1.509
 1882SOL    HW122788   0.003   5.837   1.553
 1882SOL    HW222789   0.135   5.892   1.504
 1883SOL     OW22790   2.638   5.358   5.457
 1883SOL    HW122791   2.684   5.382   5.537
 1883SOL    HW222792   2.705   5.362   5.389
 1884SOL     OW22793   1.131   5.270   7.604
 1884SOL    HW122794   1.062   5.336   7.608
 1884SOL    HW222795   1.156   5.256   7.695
 1885SOL     OW22796   5.535   0.987   0.936
 1885SOL    HW122797   5.472   1.015   1.002
 1885SOL    HW222798   5.615   0.969   0.985
 1886SOL     OW22799   1.966   4.845   7.349
 1886SOL    HW122800   1.930   4.882   7.269
 1886SOL    HW222801   2.019   4.771   7.320
 1887SOL     OW22802   3.013   4.902   7.561
 1887SOL    HW122803   3.025   4.842   7.487
 1887SOL    HW222804   2.952   4.968   7.529
 1888SOL     OW22805   0.835   1.184   7.569
 1888SOL    HW122806   0.771   1.252   7.593
 1888SOL    HW222807   0.892   1.227   7.506
 1889SOL     OW22808   0.908   2.289   6.740
 1889SOL    HW122809   1.000   2.275   6.761
 1889SOL    HW222810   0.861   2.228   6.796
 1890SOL     OW22811   6.063   2.841   2.272
 1890SOL    HW122812   6.115   2.911   2.232
 1890SOL    HW222813   6.059   2.864   2.364
 1891SOL     OW22814   0.187   4.892   7.253
 1891SOL    HW122815   0.234   4.969   7.220
 1891SOL    HW222816   0.244   4.819   7.230
 1892SOL     OW22817   0.368   4.284   0.692
 1892SOL    HW122818   0.300   4.221   0.716
 1892SOL    HW222819   0.372   4.344   0.766
 1893SOL     OW22820   5.136   1.639   7.370
 1893SOL    HW122821   5.117   1.682   7.453
 1893SOL    HW222822   5.198   1.569   7.393
 1894SOL     OW22823   4.951   0.562   7.376
 1894SOL    HW122824   4.962   0.579   7.469
 1894SOL    HW222825   4.858   0.576   7.359
 1895SOL     OW22826   5.269   4.198   0.875
 1895SOL    HW122827   5.188   4.222   0.919
 1895SOL    HW222828   5.257   4.227   0.785
 1896SOL     OW22829   0.224   6.015   5.831
 1896SOL    HW122830   0.204   5.922   5.834
 1896SOL    HW222831   0.138   6.058   5.833
 1897SOL     OW22832   2.175   1.466   0.376
 1897SOL    HW122833   2.173   1.558   0.402
 1897SOL    HW222834   2.112   1.423   0.433
 1898SOL     OW22835   4.566   0.188   7.699
 1898SOL    HW122836   4.582   0.201   7.605
 1898SOL    HW222837   4.607   0.104   7.719
 1899SOL     OW22838   3.097   4.095   6.532
 1899SOL    HW122839   3.047   4.177   6.537
 1899SOL    HW222840   3.074   4.057   6.448
 1900SOL     OW22841   3.277   1.290   6.072
 1900SOL    HW122842   3.272   1.243   5.989
 1900SOL    HW222843   3.276   1.221   6.139
 1901SOL     OW22844   4.510   1.690   6.442
 1901SOL    HW122845   4.508   1.611   6.388
 1901SOL    HW222846   4.457   1.668   6.519
 1902SOL     OW22847   5.082   6.336   0.984
 1902SOL    HW122848   5.059   6.419   0.943
 1902SOL    HW222849   5.027   6.332   1.062
 1903SOL     OW22850   1.886   1.897   0.566
 1903SOL    HW122851   1.868   1.815   0.520
 1903SOL    HW222852   1.940   1.947   0.505
 1904SOL     OW22853   5.473   4.678   0.333
 1904SOL    HW122854   5.489   4.682   0.427
 1904SOL    HW222855   5.545   4.624   0.299
 1905SOL     OW22856   4.597   0.913   5.257
 1905SOL    HW122857   4.635   0.998   5.278
 1905SOL    HW222858   4.515   0.911   5.307
 1906SOL     OW22859   4.572   2.183   7.195
 1906SOL    HW122860   4.506   2.195   7.127
 1906SOL    HW222861   4.587   2.088   7.197
 1907SOL     OW22862   2.292   0.244   0.657
 1907SOL    HW122863   2.362   0.256   0.720
 1907SOL    HW222864   2.222   0.200   0.706
 1908SOL     OW22865   0.899   2.458   2.028
 1908SOL    HW122866   0.909   2.378   2.081
 1908SOL    HW222867   0.915   2.429   1.938
 1909SOL     OW22868   3.549   0.537   0.662
 1909SOL    HW122869   3.574   0.624   0.693
 1909SOL    HW222870   3.593   0.477   0.722
 1910SOL     OW22871   1.676   4.004   6.735
 1910SOL    HW122872   1.624   4.041   6.663
 1910SOL    HW222873   1.762   4.047   6.726
 1911SOL     OW22874   1.591   5.594   5.172
 1911SOL    HW122875   1.538   5.674   5.175
 1911SOL    HW222876   1.622   5.590   5.082
 1912SOL     OW22877   0.683   1.637   6.583
 1912SOL    HW122878   0.595   1.601   6.566
 1912SOL    HW222879   0.679   1.666   6.674
 1913SOL     OW22880   2.316   2.307   1.209
 1913SOL    HW122881   2.239   2.264   1.248
 1913SOL    HW222882   2.334   2.381   1.267
 1914SOL     OW22883   1.165   2.639   6.122
 1914SOL    HW122884   1.144   2.587   6.200
 1914SOL    HW222885   1.167   2.575   6.051
 1915SOL     OW22886   3.519   5.907   0.638
 1915SOL    HW122887   3.568   5.989   0.627
 1915SOL    HW222888   3.564   5.861   0.709
 1916SOL     OW22889   6.437   6.082   5.873
 1916SOL    HW122890   6.424   5.990   5.847
 1916SOL    HW222891   6.388   6.132   5.807
 1917SOL     OW22892   1.965   1.126   1.655
 1917SOL    HW122893   1.908   1.173   1.716
 1917SOL    HW222894   2.035   1.090   1.710
 1918SOL     OW22895   2.146   1.315   0.820
 1918SOL    HW122896   2.224   1.269   0.788
 1918SOL    HW222897   2.181   1.391   0.868
 1919SOL     OW22898   2.385   0.552   7.034
 1919SOL    HW122899   2.453   0.520   7.092
 1919SOL    HW222900   2.332   0.475   7.014
 1920SOL     OW22901   4.785   5.931   7.257
 1920SOL    HW122902   4.779   5.848   7.305
 1920SOL    HW222903   4.879   5.942   7.240
 1921SOL     OW22904   4.862   4.637   7.599
 1921SOL    HW122905   4.877   4.669   7.688
 1921SOL    HW222906   4.769   4.615   7.597
 1922SOL     OW22907   3.174   3.332   0.446
 1922SOL    HW122908   3.254   3.281   0.456
 1922SOL    HW222909   3.195   3.396   0.378
 1923SOL     OW22910   4.171   1.068   1.269
 1923SOL    HW122911   4.215   1.148   1.239
 1923SOL    HW222912   4.211   0.998   1.219
 1924SOL     OW22913   0.578   6.336   7.664
 1924SOL    HW122914   0.512   6.386   7.712
 1924SOL    HW222915   0.647   6.399   7.645
 1925SOL     OW22916   3.027   6.141   1.249
 1925SOL    HW122917   3.071   6.065   1.286
 1925SOL    HW222918   2.983   6.108   1.170
 1926SOL     OW22919   5.488   5.935   0.947
 1926SOL    HW122920   5.540   6.016   0.946
 1926SOL    HW222921   5.413   5.955   1.003
 1927SOL     OW22922   2.851   0.764   6.974
 1927SOL    HW122923   2.930   0.712   6.959
 1927SOL    HW222924   2.882   0.853   6.985
 1928SOL     OW22925   5.820   5.412   0.797
 1928SOL    HW122926   5.911   5.433   0.819
 1928SOL    HW222927   5.768   5.462   0.860
 1929SOL     OW22928   0.528   4.720   1.923
 1929SOL    HW122929   0.508   4.762   2.007
 1929SOL    HW222930   0.467   4.647   1.917
 1930SOL     OW22931   0.472   4.015   6.651
 1930SOL    HW122932   0.456   4.109   6.660
 1930SOL    HW222933   0.529   4.008   6.574
 1931SOL     OW22934   5.740   4.732   0.054
 1931SOL    HW122935   5.831   4.734   0.025
 1931SOL    HW222936   5.696   4.797   7.774
 1932SOL     OW22937   2.018   3.683   6.494
 1932SOL    HW122938   1.963   3.645   6.426
 1932SOL    HW222939   1.992   3.636   6.574
 1933SOL     OW22940   0.445   3.041   0.040
 1933SOL    HW122941   0.509   3.107   0.065
 1933SOL    HW222942   0.497   2.968   0.007
 1934SOL     OW22943   2.682   0.857   6.067
 1934SOL    HW122944   2.778   0.854   6.060
 1934SOL    HW222945   2.663   0.943   6.103
 1935SOL     OW22946   5.540   2.961   1.753
 1935SOL    HW122947   5.504   2.891   1.698
 1935SOL    HW222948   5.538   2.925   1.842
 1936SOL     OW22949   5.830   4.973   0.796
 1936SOL    HW122950   5.904   4.913   0.796
 1936SOL    HW222951   5.770   4.937   0.861
 1937SOL     OW22952   4.457   3.716   1.013
 1937SOL    HW122953   4.450   3.805   1.047
 1937SOL    HW222954   4.434   3.660   1.087
 1938SOL     OW22955   4.817   1.163   0.782
 1938SOL    HW122956   4.803   1.256   0.798
 1938SOL    HW222957   4.784   1.119   0.860
 1939SOL     OW22958   0.174   1.189   6.648
 1939SOL    HW122959   0.089   1.184   6.604
 1939SOL    HW222960   0.220   1.110   6.621
 1940SOL     OW22961   6.303   0.992   6.705
 1940SOL    HW122962   6.208   0.995   6.713
 1940SOL    HW222963   6.333   1.077   6.737
 1941SOL     OW22964   4.650   0.830   6.572
 1941SOL    HW122965   4.571   0.846   6.520
 1941SOL    HW222966   4.720   0.819   6.508
 1942SOL     OW22967   1.992   5.123   0.015
 1942SOL    HW122968   1.904   5.119   0.051
 1942SOL    HW222969   1.993   5.202   7.737
 1943SOL     OW22970   1.481   2.378   6.817
 1943SOL    HW122971   1.492   2.313   6.747
 1943SOL    HW222972   1.456   2.458   6.772
 1944SOL     OW22973   3.966   5.084   6.081
 1944SOL    HW122974   3.927   5.070   5.994
 1944SOL    HW222975   3.891   5.100   6.138
 1945SOL     OW22976   3.111   1.058   1.183
 1945SOL    HW122977   3.098   1.135   1.239
 1945SOL    HW222978   3.058   1.076   1.106
 1946SOL     OW22979   2.963   1.565   0.079
 1946SOL    HW122980   2.898   1.607   0.135
 1946SOL    HW222981   2.944   1.597   7.766
 1947SOL     OW22982   5.339   3.497   1.521
 1947SOL    HW122983   5.251   3.513   1.487
 1947SOL    HW222984   5.324   3.453   1.605
 1948SOL     OW22985   0.967   3.564   6.372
 1948SOL    HW122986   0.981   3.617   6.450
 1948SOL    HW222987   0.906   3.614   6.319
 1949SOL     OW22988   1.522   4.324   5.920
 1949SOL    HW122989   1.571   4.254   5.963
 1949SOL    HW222990   1.445   4.280   5.883
 1950SOL     OW22991   5.921   4.968   1.499
 1950SOL    HW122992   5.885   4.930   1.579
 1950SOL    HW222993   6.014   4.981   1.519
 1951SOL     OW22994   1.915   2.467   0.486
 1951SOL    HW122995   1.999   2.500   0.520
 1951SOL    HW222996   1.850   2.523   0.527
 1952SOL     OW22997   3.571   3.510   0.054
 1952SOL    HW122998   3.605   3.577   7.770
 1952SOL    HW222999   3.626   3.434   0.040
 1953SOL     OW23000   2.602   4.604   7.738
 1953SOL    HW123001   2.538   4.532   7.744
 1953SOL    HW223002   2.572   4.668   0.026
 1954SOL     OW23003   4.254   2.234   6.651
 1954SOL    HW123004   4.308   2.155   6.656
 1954SOL    HW223005   4.204   2.224   6.570
 1955SOL     OW23006   0.315   2.603   7.719
 1955SOL    HW123007   0.306   2.557   0.027
 1955SOL    HW223008   0.320   2.695   7.742
 1956SOL     OW23009   1.925   6.210   7.089
 1956SOL    HW123010   1.862   6.188   7.157
 1956SOL    HW223011   1.873   6.213   7.008
 1957SOL     OW23012   1.462   1.354   1.560
 1957SOL    HW123013   1.552   1.359   1.529
 1957SOL    HW223014   1.470   1.341   1.655
 1958SOL     OW23015   0.767   0.380   6.611
 1958SOL    HW123016   0.695   0.325   6.643
 1958SOL    HW223017   0.833   0.318   6.581
 1959SOL     OW23018   0.545   4.142   5.807
 1959SOL    HW123019   0.529   4.157   5.714
 1959SOL    HW223020   0.501   4.215   5.851
 1960SOL     OW23021   0.811   2.162   7.617
 1960SOL    HW123022   0.739   2.101   7.602
 1960SOL    HW223023   0.842   2.184   7.529
 1961SOL     OW23024   3.646   1.205   6.167
 1961SOL    HW123025   3.645   1.196   6.263
 1961SOL    HW223026   3.554   1.195   6.141
 1962SOL     OW23027   5.557   3.329   5.440
 1962SOL    HW123028   5.498   3.404   5.428
 1962SOL    HW223029   5.642   3.361   5.412
 1963SOL     OW23030   1.893   1.963   6.786
 1963SOL    HW123031   1.882   2.042   6.839
 1963SOL    HW223032   1.819   1.964   6.726
 1964SOL     OW23033   0.296   6.395   0.727
 1964SOL    HW123034   0.248   6.319   0.696
 1964SOL    HW223035   0.330   6.369   0.813
 1965SOL     OW23036   6.097   1.741   0.823
 1965SOL    HW123037   6.026   1.802   0.843
 1965SOL    HW223038   6.055   1.672   0.772
 1966SOL     OW23039   5.252   3.213   5.685
 1966SOL    HW123040   5.266   3.224   5.591
 1966SOL    HW223041   5.334   3.177   5.718
 1967SOL     OW23042   1.551   2.417   0.202
 1967SOL    HW123043   1.644   2.429   0.180
 1967SOL    HW223044   1.547   2.329   0.241
 1968SOL     OW23045   2.625   1.829   7.299
 1968SOL    HW123046   2.667   1.743   7.302
 1968SOL    HW223047   2.698   1.891   7.303
 1969SOL     OW23048   3.647   0.744   1.410
 1969SOL    HW123049   3.667   0.696   1.490
 1969SOL    HW223050   3.631   0.675   1.345
 1970SOL     OW23051   0.679   3.580   0.778
 1970SOL    HW123052   0.751   3.590   0.840
 1970SOL    HW223053   0.603   3.563   0.832
 1971SOL     OW23054   6.014   2.092   0.772
 1971SOL    HW123055   6.063   2.043   0.706
 1971SOL    HW223056   5.954   2.028   0.811
 1972SOL     OW23057   2.885   1.043   0.622
 1972SOL    HW123058   2.957   1.096   0.587
 1972SOL    HW223059   2.908   1.031   0.715
 1973SOL     OW23060   2.559   6.352   1.722
 1973SOL    HW123061   2.495   6.379   1.656
 1973SOL    HW223062   2.533   6.399   1.801
 1974SOL     OW23063   6.082   2.516   6.898
 1974SOL    HW123064   5.993   2.518   6.863
 1974SOL    HW223065   6.084   2.437   6.952
 1975SOL     OW23066   6.031   1.008   6.760
 1975SOL    HW123067   5.990   0.954   6.692
 1975SOL    HW223068   5.961   1.067   6.788
 1976SOL     OW23069   4.961   3.943   5.684
 1976SOL    HW123070   4.977   3.880   5.614
 1976SOL    HW223071   4.944   4.026   5.640
 1977SOL     OW23072   4.685   5.357   1.033
 1977SOL    HW123073   4.676   5.396   0.946
 1977SOL    HW223074   4.753   5.290   1.022
 1978SOL     OW23075   4.172   3.291   7.197
 1978SOL    HW123076   4.267   3.303   7.197
 1978SOL    HW223077   4.160   3.196   7.191
 1979SOL     OW23078   5.652   4.258   0.546
 1979SOL    HW123079   5.601   4.252   0.626
 1979SOL    HW223080   5.743   4.244   0.574
 1980SOL     OW23081   5.145   0.628   6.939
 1980SOL    HW123082   5.109   0.682   7.009
 1980SOL    HW223083   5.212   0.575   6.982
 1981SOL     OW23084   1.521   4.068   1.273
 1981SOL    HW123085   1.608   4.034   1.293
 1981SOL    HW223086   1.520   4.156   1.309
 1982SOL     OW23087   3.529   5.146   0.826
 1982SOL    HW123088   3.593   5.194   0.773
 1982SOL    HW223089   3.479   5.095   0.762
 1983SOL     OW23090   3.785   0.825   1.013
 1983SOL    HW123091   3.797   0.730   1.020
 1983SOL    HW223092   3.826   0.860   1.092
 1984SOL     OW23093   5.367   2.436   6.203
 1984SOL    HW123094   5.397   2.395   6.122
 1984SOL    HW223095   5.405   2.524   6.201
 1985SOL     OW23096   5.699   5.669   7.576
 1985SOL    HW123097   5.795   5.671   7.582
 1985SOL    HW223098   5.669   5.721   7.651
 1986SOL     OW23099   4.393   1.969   5.740
 1986SOL    HW123100   4.347   1.908   5.798
 1986SOL    HW223101   4.486   1.954   5.760
 1987SOL     OW23102   1.760   6.448   7.610
 1987SOL    HW123103   1.720   6.438   7.697
 1987SOL    HW223104   1.771   6.358   7.578
 1988SOL     OW23105   1.337   6.041   7.647
 1988SOL    HW123106   1.398   5.992   7.591
 1988SOL    HW223107   1.252   6.028   7.606
 1989SOL     OW23108   2.570   0.082   6.412
 1989SOL    HW123109   2.511   0.124   6.474
 1989SOL    HW223110   2.515   0.020   6.364
 1990SOL     OW23111   4.602   5.463   1.447
 1990SOL    HW123112   4.571   5.553   1.437
 1990SOL    HW223113   4.545   5.412   1.389
 1991SOL     OW23114   3.753   5.022   0.449
 1991SOL    HW123115   3.678   5.077   0.425
 1991SOL    HW223116   3.783   5.058   0.533
 1992SOL     OW23117   4.447   3.196   7.135
 1992SOL    HW123118   4.466   3.128   7.200
 1992SOL    HW223119   4.508   3.180   7.064
 1993SOL     OW23120   5.614   0.986   0.347
 1993SOL    HW123121   5.614   1.035   0.265
 1993SOL    HW223122   5.652   0.901   0.324
 1994SOL     OW23123   0.934   6.447   1.809
 1994SOL    HW123124   0.923   6.474   1.900
 1994SOL    HW223125   0.851   6.470   1.767
 1995SOL     OW23126   4.221   3.419   1.876
 1995SOL    HW123127   4.157   3.363   1.920
 1995SOL    HW223128   4.228   3.496   1.933
 1996SOL     OW23129   0.730   5.461   1.046
 1996SOL    HW123130   0.798   5.479   1.111
 1996SOL    HW223131   0.657   5.519   1.072
 1997SOL     OW23132   6.397   1.899   1.200
 1997SOL    HW123133   6.336   1.886   1.272
 1997SOL    HW223134   6.402   1.994   1.189
 1998SOL     OW23135   0.790   2.686   6.450
 1998SOL    HW123136   0.785   2.593   6.472
 1998SOL    HW223137   0.880   2.700   6.421
 1999SOL     OW23138   1.081   3.618   7.161
 1999SOL    HW123139   1.154   3.566   7.193
 1999SOL    HW223140   1.067   3.685   7.229
 2000SOL     OW23141   4.321   4.210   7.546
 2000SOL    HW123142   4.255   4.141   7.534
 2000SOL    HW223143   4.390   4.189   7.482
 2001SOL     OW23144   0.771   3.703   7.226
 2001SOL    HW123145   0.827   3.700   7.149
 2001SOL    HW223146   0.794   3.624   7.276
 2002SOL     OW23147   5.561   6.261   6.079
 2002SOL    HW123148   5.602   6.179   6.052
 2002SOL    HW223149   5.515   6.291   6.001
 2003SOL     OW23150   6.080   0.408   7.615
 2003SOL    HW123151   5.988   0.430   7.602
 2003SOL    HW223152   6.125   0.451   7.542
 2004SOL     OW23153   2.593   4.253   7.168
 2004SOL    HW123154   2.547   4.171   7.155
 2004SOL    HW223155   2.555   4.290   7.248
 2005SOL     OW23156   5.129   1.216   2.169
 2005SOL    HW123157   5.068   1.150   2.134
 2005SOL    HW223158   5.216   1.178   2.155
 2006SOL     OW23159   0.222   0.611   1.633
 2006SOL    HW123160   0.184   0.628   1.719
 2006SOL    HW223161   0.256   0.696   1.605
 2007SOL     OW23162   0.497   6.088   1.381
 2007SOL    HW123163   0.556   6.104   1.454
 2007SOL    HW223164   0.461   6.174   1.359
 2008SOL     OW23165   3.553   2.269   1.324
 2008SOL    HW123166   3.581   2.250   1.234
 2008SOL    HW223167   3.524   2.185   1.359
 2009SOL     OW23168   3.882   3.934   7.390
 2009SOL    HW123169   3.904   3.872   7.320
 2009SOL    HW223170   3.788   3.947   7.381
 2010SOL     OW23171   3.130   4.264   6.946
 2010SOL    HW123172   3.040   4.268   6.978
 2010SOL    HW223173   3.129   4.196   6.879
 2011SOL     OW23174   6.144   2.542   7.603
 2011SOL    HW123175   6.215   2.563   7.664
 2011SOL    HW223176   6.083   2.490   7.655
 2012SOL     OW23177   2.199   3.965   6.361
 2012SOL    HW123178   2.287   4.001   6.368
 2012SOL    HW223179   2.141   4.039   6.377
 2013SOL     OW23180   5.402   3.924   0.809
 2013SOL    HW123181   5.381   3.855   0.745
 2013SOL    HW223182   5.416   4.002   0.756
 2014SOL     OW23183   4.188   1.563   7.098
 2014SOL    HW123184   4.187   1.520   7.013
 2014SOL    HW223185   4.226   1.649   7.081
 2015SOL     OW23186   3.843   6.205   7.658
 2015SOL    HW123187   3.786   6.184   7.732
 2015SOL    HW223188   3.888   6.286   7.685
 2016SOL     OW23189   0.418   5.865   0.116
 2016SOL    HW123190   0.375   5.781   0.134
 2016SOL    HW223191   0.506   5.840   0.089
 2017SOL     OW23192   0.093   1.470   6.062
 2017SOL    HW123193   0.181   1.484   6.027
 2017SOL    HW223194   0.043   1.545   6.030
 2018SOL     OW23195   3.145   2.415   7.400
 2018SOL    HW123196   3.088   2.478   7.356
 2018SOL    HW223197   3.233   2.454   7.394
 2019SOL     OW23198   5.690   3.211   0.697
 2019SOL    HW123199   5.686   3.291   0.749
 2019SOL    HW223200   5.605   3.206   0.654
 2020SOL     OW23201   2.917   4.317   6.532
 2020SOL    HW123202   2.869   4.366   6.598
 2020SOL    HW223203   2.925   4.377   6.458
 2021SOL     OW23204   3.341   6.039   1.098
 2021SOL    HW123205   3.392   5.977   1.046
 2021SOL    HW223206   3.277   5.984   1.143
 2022SOL     OW23207   2.024   0.645   0.916
 2022SOL    HW123208   2.076   0.714   0.958
 2022SOL    HW223209   2.010   0.678   0.827
 2023SOL     OW23210   4.381   2.364   0.391
 2023SOL    HW123211   4.441   2.292   0.370
 2023SOL    HW223212   4.322   2.328   0.456
 2024SOL     OW23213   4.769   3.890   7.307
 2024SOL    HW123214   4.863   3.889   7.291
 2024SOL    HW223215   4.740   3.801   7.289
 2025SOL     OW23216   5.585   1.156   0.112
 2025SOL    HW123217   5.574   1.169   0.017
 2025SOL    HW223218   5.603   1.243   0.147
 2026SOL     OW23219   2.818   4.852   0.433
 2026SOL    HW123220   2.784   4.927   0.483
 2026SOL    HW223221   2.740   4.803   0.408
 2027SOL     OW23222   5.712   6.300   6.835
 2027SOL    HW123223   5.762   6.378   6.856
 2027SOL    HW223224   5.624   6.317   6.869
 2028SOL     OW23225   0.519   4.991   7.150
 2028SOL    HW123226   0.441   5.042   7.173
 2028SOL    HW223227   0.545   5.025   7.064
 2029SOL     OW23228   1.311   3.239   5.998
 2029SOL    HW123229   1.296   3.145   6.012
 2029SOL    HW223230   1.241   3.265   5.937
 2030SOL     OW23231   1.467   3.032   0.910
 2030SOL    HW123232   1.441   3.002   0.997
 2030SOL    HW223233   1.428   3.119   0.902
 2031SOL     OW23234   3.464   1.349   2.086
 2031SOL    HW123235   3.530   1.411   2.057
 2031SOL    HW223236   3.400   1.346   2.015
 2032SOL     OW23237   5.998   0.710   7.461
 2032SOL    HW123238   6.078   0.755   7.489
 2032SOL    HW223239   6.001   0.714   7.365
 2033SOL     OW23240   1.843   1.993   0.802
 2033SOL    HW123241   1.852   1.951   0.716
 2033SOL    HW223242   1.840   1.921   0.864
 2034SOL     OW23243   0.004   3.851   1.086
 2034SOL    HW123244   0.033   3.772   1.132
 2034SOL    HW223245   0.084   3.888   1.049
 2035SOL     OW23246   3.045   2.836   1.265
 2035SOL    HW123247   3.066   2.743   1.277
 2035SOL    HW223248   3.062   2.853   1.172
 2036SOL     OW23249   5.800   0.410   7.228
 2036SOL    HW123250   5.885   0.367   7.237
 2036SOL    HW223251   5.816   0.483   7.168
 2037SOL     OW23252   2.877   1.456   1.799
 2037SOL    HW123253   2.855   1.421   1.885
 2037SOL    HW223254   2.967   1.426   1.784
 2038SOL     OW23255   0.916   6.163   5.523
 2038SOL    HW123256   0.896   6.256   5.512
 2038SOL    HW223257   0.910   6.148   5.617
 2039SOL     OW23258   4.608   1.105   1.451
 2039SOL    HW123259   4.650   1.121   1.367
 2039SOL    HW223260   4.679   1.109   1.515
 2040SOL     OW23261   0.287   1.370   7.201
 2040SOL    HW123262   0.262   1.294   7.149
 2040SOL    HW223263   0.351   1.336   7.264
 2041SOL     OW23264   5.305   4.407   6.529
 2041SOL    HW123265   5.255   4.488   6.524
 2041SOL    HW223266   5.245   4.339   6.497
 2042SOL     OW23267   6.271   0.892   1.208
 2042SOL    HW123268   6.333   0.877   1.137
 2042SOL    HW223269   6.307   0.966   1.256
 2043SOL     OW23270   5.582   3.596   1.843
 2043SOL    HW123271   5.537   3.656   1.785
 2043SOL    HW223272   5.513   3.559   1.898
 2044SOL     OW23273   3.169   0.632   0.118
 2044SOL    HW123274   3.161   0.616   0.212
 2044SOL    HW223275   3.173   0.727   0.111
 2045SOL     OW23276   4.493   3.149   1.458
 2045SOL    HW123277   4.578   3.106   1.456
 2045SOL    HW223278   4.435   3.090   1.409
 2046SOL     OW23279   0.852   5.001   6.785
 2046SOL    HW123280   0.911   5.051   6.840
 2046SOL    HW223281   0.765   5.015   6.824
 2047SOL     OW23282   2.516   4.377   7.428
 2047SOL    HW123283   2.499   4.361   7.521
 2047SOL    HW223284   2.516   4.472   7.419
 2048SOL     OW23285   2.462   2.118   5.992
 2048SOL    HW123286   2.482   2.132   6.085
 2048SOL    HW223287   2.432   2.027   5.987
 2049SOL     OW23288   0.578   2.912   6.958
 2049SOL    HW123289   0.638   2.975   6.921
 2049SOL    HW223290   0.504   2.909   6.897
 2050SOL     OW23291   1.337   5.563   1.443
 2050SOL    HW123292   1.386   5.519   1.512
 2050SOL    HW223293   1.355   5.656   1.456
 2051SOL     OW23294   2.391   0.416   1.495
 2051SOL    HW123295   2.320   0.467   1.456
 2051SOL    HW223296   2.398   0.448   1.584
 2052SOL     OW23297   5.390   4.607   1.021
 2052SOL    HW123298   5.300   4.585   0.999
 2052SOL    HW223299   5.394   4.600   1.116
 2053SOL     OW23300   3.908   0.280   0.143
 2053SOL    HW123301   3.948   0.333   0.212
 2053SOL    HW223302   3.833   0.332   0.114
 2054SOL     OW23303   1.102   4.120   6.406
 2054SOL    HW123304   1.150   4.047   6.367
 2054SOL    HW223305   1.044   4.151   6.336
 2055SOL     OW23306   5.664   2.802   6.446
 2055SOL    HW123307   5.657   2.721   6.395
 2055SOL    HW223308   5.750   2.837   6.421
 2056SOL     OW23309   0.241   3.209   1.794
 2056SOL    HW123310   0.250   3.118   1.822
 2056SOL    HW223311   0.329   3.245   1.800
 2057SOL     OW23312   0.791   1.131   0.249
 2057SOL    HW123313   0.698   1.126   0.227
 2057SOL    HW223314   0.793   1.130   0.344
 2058SOL     OW23315   3.136   3.115   6.707
 2058SOL    HW123316   3.213   3.151   6.663
 2058SOL    HW223317   3.066   3.119   6.641
 2059SOL     OW23318   0.643   6.346   1.774
 2059SOL    HW123319   0.580   6.398   1.823
 2059SOL    HW223320   0.676   6.281   1.836
 2060SOL     OW23321   0.642   3.165   7.144
 2060SOL    HW123322   0.616   3.145   7.055
 2060SOL    HW223323   0.730   3.129   7.153
 2061SOL     OW23324   0.314   1.793   7.594
 2061SOL    HW123325   0.233   1.744   7.606
 2061SOL    HW223326   0.370   1.764   7.666
 2062SOL     OW23327   3.653   4.421   0.013
 2062SOL    HW123328   3.654   4.512   7.757
 2062SOL    HW223329   3.671   4.369   7.710
 2063SOL     OW23330   1.188   0.211   6.679
 2063SOL    HW123331   1.217   0.282   6.736
 2063SOL    HW223332   1.265   0.188   6.627
 2064SOL     OW23333   0.504   5.612   6.121
 2064SOL    HW123334   0.420   5.649   6.145
 2064SOL    HW223335   0.523   5.549   6.191
 2065SOL     OW23336   6.051   4.947   7.464
 2065SOL    HW123337   6.021   5.027   7.422
 2065SOL    HW223338   6.134   4.971   7.504
 2066SOL     OW23339   0.303   2.997   7.341
 2066SOL    HW123340   0.238   2.957   7.283
 2066SOL    HW223341   0.387   2.969   7.305
 2067SOL     OW23342   2.562   0.180   0.090
 2067SOL    HW123343   2.601   0.241   0.153
 2067SOL    HW223344   2.529   0.109   0.144
 2068SOL     OW23345   5.611   2.196   0.032
 2068SOL    HW123346   5.525   2.190   0.072
 2068SOL    HW223347   5.672   2.176   0.103
 2069SOL     OW23348   2.989   3.964   6.281
 2069SOL    HW123349   2.944   3.887   6.317
 2069SOL    HW223350   3.069   3.928   6.242
 2070SOL     OW23351   2.963   6.289   6.781
 2070SOL    HW123352   2.979   6.204   6.740
 2070SOL    HW223353   2.887   6.275   6.837
 2071SOL     OW23354   5.541   2.181   6.554
 2071SOL    HW123355   5.624   2.214   6.590
 2071SOL    HW223356   5.516   2.110   6.613
 2072SOL     OW23357   0.836   6.449   7.342
 2072SOL    HW123358   0.767   0.026   7.364
 2072SOL    HW223359   0.825   6.379   7.406
 2073SOL     OW23360   1.080   4.320   1.709
 2073SOL    HW123361   1.164   4.303   1.753
 2073SOL    HW223362   1.059   4.238   1.665
 2074SOL     OW23363   1.811   1.239   6.277
 2074SOL    HW123364   1.836   1.210   6.190
 2074SOL    HW223365   1.847   1.328   6.283
 2075SOL     OW23366   2.744   2.292   0.240
 2075SOL    HW123367   2.713   2.363   0.297
 2075SOL    HW223368   2.818   2.330   0.193
 2076SOL     OW23369   0.711   1.855   0.758
 2076SOL    HW123370   0.724   1.939   0.801
 2076SOL    HW223371   0.791   1.842   0.706
 2077SOL     OW23372   1.135   0.231   5.992
 2077SOL    HW123373   1.071   0.161   6.001
 2077SOL    HW223374   1.097   0.305   6.039
 2078SOL     OW23375   0.963   5.856   6.531
 2078SOL    HW123376   0.979   5.901   6.448
 2078SOL    HW223377   0.974   5.924   6.598
 2079SOL     OW23378   4.595   5.701   0.191
 2079SOL    HW123379   4.597   5.785   0.145
 2079SOL    HW223380   4.625   5.722   0.279
 2080SOL     OW23381   0.876   1.514   0.358
 2080SOL    HW123382   0.852   1.491   0.448
 2080SOL    HW223383   0.938   1.587   0.367
 2081SOL     OW23384   2.523   4.663   7.450
 2081SOL    HW123385   2.588   4.672   7.519
 2081SOL    HW223386   2.441   4.690   7.490
 2082SOL     OW23387   2.744   6.233   1.307
 2082SOL    HW123388   2.835   6.209   1.322
 2082SOL    HW223389   2.735   6.233   1.211
 2083SOL     OW23390   5.968   3.162   0.754
 2083SOL    HW123391   6.017   3.226   0.807
 2083SOL    HW223392   5.882   3.203   0.742
 2084SOL     OW23393   5.865   3.209   0.345
 2084SOL    HW123394   5.942   3.169   0.385
 2084SOL    HW223395   5.895   3.234   0.257
 2085SOL     OW23396   2.351   3.468   7.447
 2085SOL    HW123397   2.395   3.442   7.366
 2085SOL    HW223398   2.326   3.386   7.488
 2086SOL     OW23399   3.240   4.774   6.175
 2086SOL    HW123400   3.243   4.784   6.080
 2086SOL    HW223401   3.290   4.848   6.209
 2087SOL     OW23402   3.075   2.650   1.609
 2087SOL    HW123403   3.140   2.695   1.555
 2087SOL    HW223404   3.078   2.696   1.693
 2088SOL     OW23405   2.347   0.599   0.778
 2088SOL    HW123406   2.354   0.504   0.771
 2088SOL    HW223407   2.437   0.630   0.783
 2089SOL     OW23408   0.290   5.140   7.157
 2089SOL    HW123409   0.292   5.228   7.194
 2089SOL    HW223410   0.235   5.148   7.079
 2090SOL     OW23411   1.429   5.316   1.608
 2090SOL    HW123412   1.512   5.363   1.600
 2090SOL    HW223413   1.378   5.367   1.671
 2091SOL     OW23414   3.289   4.362   0.270
 2091SOL    HW123415   3.292   4.294   0.337
 2091SOL    HW223416   3.333   4.437   0.310
 2092SOL     OW23417   0.768   4.093   7.708
 2092SOL    HW123418   0.812   4.170   7.671
 2092SOL    HW223419   0.677   4.103   7.681
 2093SOL     OW23420   3.479   5.846   0.974
 2093SOL    HW123421   3.571   5.819   0.969
 2093SOL    HW223422   3.433   5.784   0.917
 2094SOL     OW23423   3.233   5.590   7.542
 2094SOL    HW123424   3.146   5.561   7.570
 2094SOL    HW223425   3.247   5.546   7.458
 2095SOL     OW23426   2.964   1.674   0.550
 2095SOL    HW123427   2.985   1.768   0.553
 2095SOL    HW223428   2.938   1.653   0.640
 2096SOL     OW23429   3.821   2.926   7.450
 2096SOL    HW123430   3.892   2.874   7.411
 2096SOL    HW223431   3.841   3.016   7.424
 2097SOL     OW23432   3.276   2.557   0.214
 2097SOL    HW123433   3.237   2.478   0.176
 2097SOL    HW223434   3.210   2.588   0.277
 2098SOL     OW23435   2.508   5.340   2.149
 2098SOL    HW123436   2.434   5.307   2.200
 2098SOL    HW223437   2.477   5.337   2.058
 2099SOL     OW23438   5.795   3.162   7.772
 2099SOL    HW123439   5.758   3.193   7.690
 2099SOL    HW223440   5.871   3.219   0.011
 2100SOL     OW23441   5.385   4.464   1.552
 2100SOL    HW123442   5.344   4.541   1.590
 2100SOL    HW223443   5.452   4.438   1.616
 2101SOL     OW23444   0.458   0.790   6.471
 2101SOL    HW123445   0.489   0.782   6.381
 2101SOL    HW223446   0.508   0.725   6.520
 2102SOL     OW23447   2.412   2.894   6.467
 2102SOL    HW123448   2.405   2.967   6.528
 2102SOL    HW223449   2.331   2.844   6.479
 2103SOL     OW23450   5.962   6.270   0.331
 2103SOL    HW123451   5.927   6.235   0.249
 2103SOL    HW223452   6.057   6.272   0.318
 2104SOL     OW23453   1.660   5.902   6.442
 2104SOL    HW123454   1.732   5.946   6.488
 2104SOL    HW223455   1.651   5.951   6.361
 2105SOL     OW23456   5.780   2.612   0.100
 2105SOL    HW123457   5.821   2.621   0.014
 2105SOL    HW223458   5.812   2.687   0.150
 2106SOL     OW23459   1.756   3.259   1.707
 2106SOL    HW123460   1.732   3.272   1.799
 2106SOL    HW223461   1.708   3.181   1.680
 2107SOL     OW23462   3.050   2.355   1.132
 2107SOL    HW123463   3.071   2.351   1.225
 2107SOL    HW223464   3.073   2.444   1.106
 2108SOL     OW23465   3.848   0.024   1.647
 2108SOL    HW123466   3.815   0.113   1.640
 2108SOL    HW223467   3.878   0.016   1.738
 2109SOL     OW23468   2.926   4.632   7.174
 2109SOL    HW123469   3.015   4.617   7.205
 2109SOL    HW223470   2.936   4.680   7.092
 2110SOL     OW23471   0.428   1.034   0.509
 2110SOL    HW123472   0.438   1.046   0.415
 2110SOL    HW223473   0.337   1.007   0.520
 2111SOL     OW23474   1.507   6.262   6.083
 2111SOL    HW123475   1.430   6.260   6.140
 2111SOL    HW223476   1.580   6.238   6.140
 2112SOL     OW23477   4.761   1.201   2.211
 2112SOL    HW123478   4.714   1.247   2.280
 2112SOL    HW223479   4.853   1.219   2.229
 2113SOL     OW23480   1.045   5.260   6.199
 2113SOL    HW123481   1.097   5.179   6.203
 2113SOL    HW223482   0.954   5.230   6.189
 2114SOL     OW23483   6.331   6.210   0.836
 2114SOL    HW123484   6.314   6.304   0.839
 2114SOL    HW223485   6.294   6.182   0.752
 2115SOL     OW23486   3.430   2.077   0.387
 2115SOL    HW123487   3.405   2.012   0.321
 2115SOL    HW223488   3.374   2.153   0.369
 2116SOL     OW23489   2.099   4.290   6.801
 2116SOL    HW123490   2.149   4.314   6.879
 2116SOL    HW223491   2.158   4.309   6.728
 2117SOL     OW23492   4.900   5.540   7.092
 2117SOL    HW123493   4.811   5.562   7.119
 2117SOL    HW223494   4.901   5.555   6.997
 2118SOL     OW23495   6.471   2.369   6.052
 2118SOL    HW123496   6.430   2.282   6.046
 2118SOL    HW223497   6.411   2.419   6.108
 2119SOL     OW23498   3.647   5.408   7.756
 2119SOL    HW123499   3.650   5.478   0.045
 2119SOL    HW223500   3.556   5.380   7.754
 2120SOL     OW23501   3.074   3.259   1.313
 2120SOL    HW123502   3.053   3.308   1.234
 2120SOL    HW223503   3.125   3.320   1.366
 2121SOL     OW23504   5.786   1.548   0.563
 2121SOL    HW123505   5.694   1.526   0.580
 2121SOL    HW223506   5.833   1.516   0.640
 2122SOL     OW23507   1.365   2.582   6.670
 2122SOL    HW123508   1.451   2.618   6.688
 2122SOL    HW223509   1.327   2.641   6.605
 2123SOL     OW23510   6.224   2.109   1.914
 2123SOL    HW123511   6.215   2.123   2.009
 2123SOL    HW223512   6.307   2.063   1.905
 2124SOL     OW23513   0.022   2.025   5.787
 2124SOL    HW123514   0.060   2.029   5.699
 2124SOL    HW223515   6.448   1.952   5.785
 2125SOL     OW23516   1.680   5.226   5.654
 2125SOL    HW123517   1.733   5.298   5.619
 2125SOL    HW223518   1.598   5.230   5.605
 2126SOL     OW23519   5.662   0.927   7.227
 2126SOL    HW123520   5.676   0.842   7.185
 2126SOL    HW223521   5.713   0.989   7.175
 2127SOL     OW23522   1.003   2.355   0.323
 2127SOL    HW123523   1.010   2.312   0.408
 2127SOL    HW223524   1.065   2.308   0.267
 2128SOL     OW23525   3.901   5.913   7.005
 2128SOL    HW123526   3.867   5.936   6.919
 2128SOL    HW223527   3.958   5.837   6.989
 2129SOL     OW23528   3.290   4.350   7.746
 2129SOL    HW123529   3.276   4.312   0.057
 2129SOL    HW223530   3.203   4.357   7.708
 2130SOL     OW23531   0.035   0.441   1.515
 2130SOL    HW123532   0.098   0.486   1.571
 2130SOL    HW223533   6.440   0.492   1.523
 2131SOL     OW23534   5.448   3.790   7.325
 2131SOL    HW123535   5.477   3.861   7.382
 2131SOL    HW223536   5.364   3.819   7.291
 2132SOL     OW23537   4.897   0.881   7.252
 2132SOL    HW123538   4.898   0.917   7.341
 2132SOL    HW223539   4.981   0.836   7.244
 2133SOL     OW23540   4.141   3.524   1.413
 2133SOL    HW123541   4.199   3.493   1.482
 2133SOL    HW223542   4.126   3.447   1.358
 2134SOL     OW23543   4.068   4.667   6.461
 2134SOL    HW123544   4.141   4.622   6.418
 2134SOL    HW223545   4.016   4.597   6.501
 2135SOL     OW23546   2.249   3.519   0.385
 2135SOL    HW123547   2.234   3.602   0.340
 2135SOL    HW223548   2.187   3.458   0.345
 2136SOL     OW23549   3.639   0.807   2.084
 2136SOL    HW123550   3.637   0.830   2.177
 2136SOL    HW223551   3.680   0.720   2.083
 2137SOL     OW23552   5.562   3.886   1.610
 2137SOL    HW123553   5.481   3.906   1.655
 2137SOL    HW223554   5.631   3.901   1.675
 2138SOL     OW23555   6.287   0.459   7.284
 2138SOL    HW123556   6.325   0.517   7.350
 2138SOL    HW223557   6.350   0.459   7.212
 2139SOL     OW23558   4.942   1.383   0.165
 2139SOL    HW123559   4.939   1.291   0.192
 2139SOL    HW223560   5.036   1.402   0.158
 2140SOL     OW23561   5.884   5.710   6.506
 2140SOL    HW123562   5.831   5.790   6.509
 2140SOL    HW223563   5.874   5.679   6.416
 2141SOL     OW23564   1.356   3.876   1.246
 2141SOL    HW123565   1.422   3.945   1.255
 2141SOL    HW223566   1.291   3.913   1.186
 2142SOL     OW23567   0.805   3.449   7.273
 2142SOL    HW123568   0.883   3.394   7.276
 2142SOL    HW223569   0.753   3.422   7.349
 2143SOL     OW23570   0.056   6.458   1.605
 2143SOL    HW123571   0.058   0.062   1.572
 2143SOL    HW223572   6.482   6.412   1.547
 2144SOL     OW23573   5.726   0.059   6.946
 2144SOL    HW123574   5.737   0.110   6.866
 2144SOL    HW223575   5.638   0.079   6.976
 2145SOL     OW23576   2.411   4.908   7.712
 2145SOL    HW123577   2.320   4.923   7.688
 2145SOL    HW223578   2.436   4.830   7.662
 2146SOL     OW23579   2.716   1.297   5.808
 2146SOL    HW123580   2.737   1.204   5.812
 2146SOL    HW223581   2.621   1.300   5.793
 2147SOL     OW23582   4.926   1.101   0.543
 2147SOL    HW123583   4.981   1.170   0.506
 2147SOL    HW223584   4.909   1.129   0.633
 2148SOL     OW23585   2.566   0.403   7.166
 2148SOL    HW123586   2.616   0.398   7.085
 2148SOL    HW223587   2.522   0.318   7.173
 2149SOL     OW23588   4.340   3.771   6.069
 2149SOL    HW123589   4.337   3.840   6.134
 2149SOL    HW223590   4.277   3.798   6.002
 2150SOL     OW23591   4.802   5.116   0.908
 2150SOL    HW123592   4.811   5.064   0.828
 2150SOL    HW223593   4.733   5.071   0.957
 2151SOL     OW23594   5.683   1.656   6.557
 2151SOL    HW123595   5.622   1.719   6.595
 2151SOL    HW223596   5.758   1.709   6.529
 2152SOL     OW23597   1.764   4.377   1.562
 2152SOL    HW123598   1.858   4.377   1.544
 2152SOL    HW223599   1.727   4.434   1.495
 2153SOL     OW23600   4.461   5.222   6.553
 2153SOL    HW123601   4.538   5.258   6.510
 2153SOL    HW223602   4.425   5.295   6.603
 2154SOL     OW23603   4.122   3.916   6.767
 2154SOL    HW123604   4.078   3.973   6.703
 2154SOL    HW223605   4.209   3.953   6.777
 2155SOL     OW23606   2.501   5.660   5.652
 2155SOL    HW123607   2.575   5.713   5.680
 2155SOL    HW223608   2.433   5.723   5.629
 2156SOL     OW23609   3.769   2.614   6.404
 2156SOL    HW123610   3.674   2.603   6.406
 2156SOL    HW223611   3.804   2.526   6.415
 2157SOL     OW23612   0.808   3.324   0.412
 2157SOL    HW123613   0.840   3.381   0.341
 2157SOL    HW223614   0.719   3.355   0.429
 2158SOL     OW23615   0.350   0.949   0.796
 2158SOL    HW123616   0.372   0.910   0.711
 2158SOL    HW223617   0.426   1.001   0.820
 2159SOL     OW23618   1.851   3.263   0.063
 2159SOL    HW123619   1.798   3.240   7.762
 2159SOL    HW223620   1.837   3.190   0.124
 2160SOL     OW23621   6.412   1.125   0.336
 2160SOL    HW123622   6.412   1.036   0.302
 2160SOL    HW223623   0.011   1.160   0.309
 2161SOL     OW23624   6.479   4.722   0.020
 2161SOL    HW123625   0.021   4.709   0.111
 2161SOL    HW223626   6.391   4.685   0.017
 2162SOL     OW23627   4.595   5.981   1.504
 2162SOL    HW123628   4.636   6.066   1.487
 2162SOL    HW223629   4.555   5.991   1.590
 2163SOL     OW23630   3.447   5.171   7.215
 2163SOL    HW123631   3.478   5.131   7.135
 2163SOL    HW223632   3.479   5.261   7.211
 2164SOL     OW23633   2.837   2.545   1.709
 2164SOL    HW123634   2.848   2.530   1.803
 2164SOL    HW223635   2.922   2.577   1.679
 2165SOL     OW23636   5.681   5.229   0.382
 2165SOL    HW123637   5.681   5.240   0.477
 2165SOL    HW223638   5.612   5.164   0.366
 2166SOL     OW23639   0.887   1.132   1.481
 2166SOL    HW123640   0.860   1.139   1.573
 2166SOL    HW223641   0.972   1.088   1.485
 2167SOL     OW23642   0.641   4.458   2.033
 2167SOL    HW123643   0.580   4.522   2.071
 2167SOL    HW223644   0.641   4.385   2.095
 2168SOL     OW23645   5.736   2.945   0.550
 2168SOL    HW123646   5.772   2.947   0.638
 2168SOL    HW223647   5.743   3.035   0.519
 2169SOL     OW23648   1.378   2.928   0.680
 2169SOL    HW123649   1.363   2.889   0.767
 2169SOL    HW223650   1.439   3.000   0.697
 2170SOL     OW23651   6.181   6.156   0.566
 2170SOL    HW123652   6.100   6.187   0.525
 2170SOL    HW223653   6.162   6.064   0.589
 2171SOL     OW23654   5.475   4.165   6.479
 2171SOL    HW123655   5.432   4.114   6.547
 2171SOL    HW223656   5.545   4.108   6.446
 2172SOL     OW23657   5.873   5.758   1.668
 2172SOL    HW123658   5.828   5.722   1.745
 2172SOL    HW223659   5.911   5.682   1.625
 2173SOL     OW23660   3.946   4.090   6.618
 2173SOL    HW123661   3.880   4.022   6.604
 2173SOL    HW223662   3.911   4.143   6.689
 2174SOL     OW23663   2.810   3.089   1.361
 2174SOL    HW123664   2.835   3.037   1.437
 2174SOL    HW223665   2.890   3.138   1.339
 2175SOL     OW23666   3.391   3.363   1.978
 2175SOL    HW123667   3.329   3.305   2.022
 2175SOL    HW223668   3.471   3.357   2.031
 2176SOL     OW23669   1.230   4.510   6.712
 2176SOL    HW123670   1.293   4.528   6.782
 2176SOL    HW223671   1.168   4.583   6.716
 2177SOL     OW23672   2.775   2.802   0.969
 2177SOL    HW123673   2.798   2.712   0.993
 2177SOL    HW223674   2.684   2.811   0.996
 2178SOL     OW23675   4.696   4.489   5.505
 2178SOL    HW123676   4.631   4.427   5.473
 2178SOL    HW223677   4.688   4.564   5.446
 2179SOL     OW23678   5.544   4.657   7.557
 2179SOL    HW123679   5.481   4.643   7.628
 2179SOL    HW223680   5.626   4.622   7.592
 2180SOL     OW23681   3.240   3.672   0.566
 2180SOL    HW123682   3.300   3.745   0.554
 2180SOL    HW223683   3.195   3.690   0.648
 2181SOL     OW23684   5.243   5.603   0.979
 2181SOL    HW123685   5.330   5.613   0.942
 2181SOL    HW223686   5.184   5.601   0.904
 2182SOL     OW23687   5.949   1.865   7.362
 2182SOL    HW123688   6.034   1.880   7.404
 2182SOL    HW223689   5.890   1.928   7.404
 2183SOL     OW23690   2.809   1.912   1.673
 2183SOL    HW123691   2.850   1.966   1.740
 2183SOL    HW223692   2.866   1.835   1.666
 2184SOL     OW23693   3.718   3.969   1.181
 2184SOL    HW123694   3.652   3.945   1.245
 2184SOL    HW223695   3.796   3.990   1.233
 2185SOL     OW23696   6.260   1.557   1.166
 2185SOL    HW123697   6.280   1.531   1.076
 2185SOL    HW223698   6.341   1.598   1.197
 2186SOL     OW23699   3.666   5.066   6.836
 2186SOL    HW123700   3.698   4.988   6.791
 2186SOL    HW223701   3.593   5.035   6.890
 2187SOL     OW23702   3.785   5.865   0.793
 2187SOL    HW123703   3.825   5.888   0.710
 2187SOL    HW223704   3.858   5.833   0.847
 2188SOL     OW23705   4.400   3.849   5.643
 2188SOL    HW123706   4.437   3.911   5.580
 2188SOL    HW223707   4.375   3.773   5.590
 2189SOL     OW23708   5.058   5.212   1.181
 2189SOL    HW123709   4.981   5.242   1.230
 2189SOL    HW223710   5.055   5.261   1.099
 2190SOL     OW23711   5.973   2.347   0.973
 2190SOL    HW123712   6.059   2.375   1.003
 2190SOL    HW223713   5.968   2.254   0.997
 2191SOL     OW23714   6.054   0.775   7.210
 2191SOL    HW123715   6.075   0.737   7.125
 2191SOL    HW223716   6.031   0.866   7.192
 2192SOL     OW23717   5.075   5.539   0.441
 2192SOL    HW123718   5.146   5.580   0.490
 2192SOL    HW223719   5.081   5.446   0.464
 2193SOL     OW23720   0.578   2.753   1.825
 2193SOL    HW123721   0.486   2.773   1.843
 2193SOL    HW223722   0.602   2.689   1.892
 2194SOL     OW23723   0.598   3.917   5.985
 2194SOL    HW123724   0.518   3.866   5.973
 2194SOL    HW223725   0.586   3.994   5.930
 2195SOL     OW23726   1.114   1.684   5.697
 2195SOL    HW123727   1.170   1.644   5.764
 2195SOL    HW223728   1.173   1.702   5.624
 2196SOL     OW23729   2.049   4.778   6.319
 2196SOL    HW123730   2.118   4.722   6.282
 2196SOL    HW223731   2.022   4.732   6.398
 2197SOL     OW23732   4.097   5.794   1.415
 2197SOL    HW123733   4.072   5.819   1.503
 2197SOL    HW223734   4.156   5.864   1.386
 2198SOL     OW23735   2.069   2.186   7.060
 2198SOL    HW123736   2.088   2.176   7.153
 2198SOL    HW223737   2.151   2.162   7.016
 2199SOL     OW23738   4.669   2.571   1.733
 2199SOL    HW123739   4.707   2.493   1.774
 2199SOL    HW223740   4.696   2.564   1.641
 2200SOL     OW23741   0.207   2.065   7.574
 2200SOL    HW123742   0.244   1.986   7.613
 2200SOL    HW223743   0.219   2.133   7.641
 2201SOL     OW23744   0.306   3.811   6.687
 2201SOL    HW123745   0.321   3.743   6.621
 2201SOL    HW223746   0.374   3.876   6.670
 2202SOL     OW23747   3.814   0.677   1.733
 2202SOL    HW123748   3.815   0.652   1.826
 2202SOL    HW223749   3.724   0.662   1.705
 2203SOL     OW23750   3.252   0.897   5.941
 2203SOL    HW123751   3.239   0.983   5.901
 2203SOL    HW223752   3.342   0.873   5.920
 2204SOL     OW23753   1.259   1.055   0.124
 2204SOL    HW123754   1.182   1.050   0.067
 2204SOL    HW223755   1.278   1.148   0.130
 2205SOL     OW23756   4.502   4.112   6.578
 2205SOL    HW123757   4.559   4.189   6.588
 2205SOL    HW223758   4.456   4.127   6.495
 2206SOL     OW23759   6.388   3.041   0.786
 2206SOL    HW123760   6.316   2.990   0.751
 2206SOL    HW223761   6.346   3.115   0.831
 2207SOL     OW23762   2.208   1.519   0.102
 2207SOL    HW123763   2.211   1.478   0.188
 2207SOL    HW223764   2.292   1.565   0.095
 2208SOL     OW23765   0.063   4.606   1.158
 2208SOL    HW123766   0.101   4.663   1.091
 2208SOL    HW223767   6.461   4.587   1.126
 2209SOL     OW23768   3.670   4.152   0.383
 2209SOL    HW123769   3.691   4.123   0.472
 2209SOL    HW223770   3.729   4.226   0.368
 2210SOL     OW23771   4.179   5.402   7.706
 2210SOL    HW123772   4.265   5.366   7.728
 2210SOL    HW223773   4.189   5.497   7.714
 2211SOL     OW23774   3.973   3.691   6.813
 2211SOL    HW123775   4.023   3.772   6.809
 2211SOL    HW223776   4.038   3.623   6.833
 2212SOL     OW23777   4.530   0.878   7.020
 2212SOL    HW123778   4.625   0.868   7.020
 2212SOL    HW223779   4.508   0.897   7.112
 2213SOL     OW23780   4.975   2.307   6.446
 2213SOL    HW123781   5.019   2.240   6.499
 2213SOL    HW223782   5.045   2.368   6.424
 2214SOL     OW23783   0.769   3.331   7.550
 2214SOL    HW123784   0.787   3.237   7.545
 2214SOL    HW223785   0.838   3.366   7.607
 2215SOL     OW23786   0.212   5.921   7.718
 2215SOL    HW123787   0.283   5.911   0.007
 2215SOL    HW223788   0.246   5.986   7.656
 2216SOL     OW23789   2.553   0.399   1.287
 2216SOL    HW123790   2.600   0.482   1.279
 2216SOL    HW223791   2.518   0.401   1.376
 2217SOL     OW23792   6.461   0.304   5.934
 2217SOL    HW123793   0.067   0.283   5.950
 2217SOL    HW223794   6.439   0.368   6.001
 2218SOL     OW23795   3.066   4.748   0.361
 2218SOL    HW123796   2.976   4.780   0.364
 2218SOL    HW223797   3.079   4.704   0.445
 2219SOL     OW23798   1.657   0.994   0.197
 2219SOL    HW123799   1.589   0.979   0.131
 2219SOL    HW223800   1.738   1.005   0.147
 2220SOL     OW23801   1.210   0.657   7.508
 2220SOL    HW123802   1.154   0.711   7.451
 2220SOL    HW223803   1.295   0.701   7.506
 2221SOL     OW23804   1.643   4.101   0.845
 2221SOL    HW123805   1.716   4.074   0.789
 2221SOL    HW223806   1.581   4.028   0.840
 2222SOL     OW23807   1.322   4.548   0.790
 2222SOL    HW123808   1.260   4.582   0.726
 2222SOL    HW223809   1.374   4.485   0.741
 2223SOL     OW23810   4.355   6.234   0.926
 2223SOL    HW123811   4.313   6.317   0.948
 2223SOL    HW223812   4.307   6.203   0.849
 2224SOL     OW23813   4.775   1.021   5.637
 2224SOL    HW123814   4.715   1.028   5.563
 2224SOL    HW223815   4.735   1.073   5.706
 2225SOL     OW23816   2.077   6.468   7.114
 2225SOL    HW123817   2.026   0.036   7.053
 2225SOL    HW223818   2.019   6.396   7.136
 2226SOL     OW23819   3.506   1.069   0.418
 2226SOL    HW123820   3.435   1.033   0.471
 2226SOL    HW223821   3.484   1.045   0.328
 2227SOL     OW23822   1.401   0.431   2.075
 2227SOL    HW123823   1.461   0.470   2.012
 2227SOL    HW223824   1.315   0.468   2.052
 2228SOL     OW23825   4.809   4.839   0.410
 2228SOL    HW123826   4.831   4.899   0.339
 2228SOL    HW223827   4.843   4.754   0.382
 2229SOL     OW23828   5.521   1.423   7.768
 2229SOL    HW123829   5.500   1.389   7.680
 2229SOL    HW223830   5.590   1.487   7.753
 2230SOL     OW23831   0.621   3.370   0.155
 2230SOL    HW123832   0.613   3.344   0.063
 2230SOL    HW223833   0.531   3.378   0.186
 2231SOL     OW23834   5.158   4.992   1.059
 2231SOL    HW123835   5.139   5.075   1.103
 2231SOL    HW223836   5.072   4.960   1.031
 2232SOL     OW23837   1.693   4.310   0.087
 2232SOL    HW123838   1.600   4.290   0.078
 2232SOL    HW223839   1.736   4.256   0.020
 2233SOL     OW23840   6.431   2.247   0.593
 2233SOL    HW123841   0.016   2.306   0.568
 2233SOL    HW223842   6.351   2.299   0.579
 2234SOL     OW23843   6.361   3.498   2.110
 2234SOL    HW123844   6.312   3.417   2.096
 2234SOL    HW223845   6.297   3.559   2.146
 2235SOL     OW23846   1.390   2.747   5.862
 2235SOL    HW123847   1.395   2.834   5.824
 2235SOL    HW223848   1.364   2.690   5.790
 2236SOL     OW23849   4.283   0.302   0.454
 2236SOL    HW123850   4.284   0.232   0.519
 2236SOL    HW223851   4.370   0.341   0.460
 2237SOL     OW23852   4.256   2.541   6.336
 2237SOL    HW123853   4.336   2.565   6.383
 2237SOL    HW223854   4.205   2.491   6.400
 2238SOL     OW23855   4.629   6.155   0.887
 2238SOL    HW123856   4.535   6.169   0.881
 2238SOL    HW223857   4.649   6.165   0.980
 2239SOL     OW23858   0.674   6.421   2.165
 2239SOL    HW123859   0.600   6.417   2.103
 2239SOL    HW223860   0.748   6.451   2.112
 2240SOL     OW23861   3.689   2.584   7.270
 2240SOL    HW123862   3.772   2.584   7.223
 2240SOL    HW223863   3.708   2.632   7.351
 2241SOL     OW23864   4.827   1.533   1.401
 2241SOL    HW123865   4.773   1.528   1.480
 2241SOL    HW223866   4.907   1.578   1.429
 2242SOL     OW23867   2.476   6.460   5.173
 2242SOL    HW123868   2.384   6.435   5.183
 2242SOL    HW223869   2.524   6.385   5.207
 2243SOL     OW23870   0.166   5.966   7.213
 2243SOL    HW123871   0.243   5.975   7.269
 2243SOL    HW223872   0.093   5.998   7.266
 2244SOL     OW23873   1.845   2.213   6.908
 2244SOL    HW123874   1.913   2.199   6.974
 2244SOL    HW223875   1.780   2.268   6.952
 2245SOL     OW23876   1.574   3.167   7.700
 2245SOL    HW123877   1.650   3.110   7.689
 2245SOL    HW223878   1.503   3.120   7.656
 2246SOL     OW23879   4.021   6.332   6.671
 2246SOL    HW123880   3.972   6.279   6.608
 2246SOL    HW223881   4.032   6.276   6.747
 2247SOL     OW23882   4.517   2.501   6.566
 2247SOL    HW123883   4.568   2.581   6.575
 2247SOL    HW223884   4.582   2.431   6.555
 2248SOL     OW23885   4.894   5.627   6.803
 2248SOL    HW123886   4.934   5.713   6.818
 2248SOL    HW223887   4.821   5.644   6.744
 2249SOL     OW23888   0.116   3.816   2.319
 2249SOL    HW123889   0.122   3.734   2.270
 2249SOL    HW223890   0.186   3.812   2.383
 2250SOL     OW23891   0.263   0.310   1.150
 2250SOL    HW123892   0.265   0.351   1.064
 2250SOL    HW223893   0.181   0.341   1.189
 2251SOL     OW23894   6.434   0.266   7.479
 2251SOL    HW123895   6.372   0.333   7.449
 2251SOL    HW223896   6.379   0.196   7.513
 2252SOL     OW23897   4.984   6.175   0.504
 2252SOL    HW123898   4.968   6.159   0.597
 2252SOL    HW223899   5.056   6.116   0.482
 2253SOL     OW23900   0.509   5.278   2.527
 2253SOL    HW123901   0.554   5.297   2.609
 2253SOL    HW223902   0.499   5.183   2.527
 2254SOL     OW23903   2.412   3.428   0.010
 2254SOL    HW123904   2.380   3.344   7.752
 2254SOL    HW223905   2.411   3.486   7.709
 2255SOL     OW23906   5.930   1.249   0.532
 2255SOL    HW123907   5.971   1.284   0.453
 2255SOL    HW223908   5.837   1.242   0.511
 2256SOL     OW23909   2.795   0.886   7.680
 2256SOL    HW123910   2.763   0.816   7.737
 2256SOL    HW223911   2.836   0.840   7.607
 2257SOL     OW23912   1.963   1.285   7.443
 2257SOL    HW123913   1.954   1.333   7.525
 2257SOL    HW223914   2.004   1.202   7.469
 2258SOL     OW23915   5.152   5.726   6.097
 2258SOL    HW123916   5.237   5.768   6.089
 2258SOL    HW223917   5.156   5.650   6.039
 2259SOL     OW23918   0.889   0.152   1.393
 2259SOL    HW123919   0.942   0.080   1.357
 2259SOL    HW223920   0.822   0.109   1.445
 2260SOL     OW23921   0.657   2.549   1.312
 2260SOL    HW123922   0.689   2.495   1.239
 2260SOL    HW223923   0.714   2.626   1.312
 2261SOL     OW23924   0.994   1.064   5.876
 2261SOL    HW123925   1.078   1.021   5.892
 2261SOL    HW223926   1.009   1.156   5.901
 2262SOL     OW23927   5.511   5.023   0.390
 2262SOL    HW123928   5.532   4.954   0.454
 2262SOL    HW223929   5.448   4.982   0.331
 2263SOL     OW23930   0.937   0.730   2.576
 2263SOL    HW123931   0.892   0.666   2.630
 2263SOL    HW223932   0.982   0.679   2.510
 2264SOL     OW23933   0.479   0.124   1.059
 2264SOL    HW123934   0.560   0.157   1.099
 2264SOL    HW223935   0.414   0.192   1.075
 2265SOL     OW23936   4.610   0.312   0.155
 2265SOL    HW123937   4.562   0.250   0.101
 2265SOL    HW223938   4.699   0.312   0.119
 2266SOL     OW23939   6.301   3.015   6.818
 2266SOL    HW123940   6.372   2.951   6.827
 2266SOL    HW223941   6.268   3.026   6.907
 2267SOL     OW23942   2.888   3.201   0.732
 2267SOL    HW123943   2.942   3.136   0.688
 2267SOL    HW223944   2.919   3.286   0.700
 2268SOL     OW23945   3.058   1.942   1.329
 2268SOL    HW123946   2.980   1.978   1.373
 2268SOL    HW223947   3.086   2.011   1.269
 2269SOL     OW23948   0.079   0.121   0.918
 2269SOL    HW123949   0.099   0.133   0.825
 2269SOL    HW223950   0.106   0.032   0.938
 2270SOL     OW23951   4.989   3.034   7.722
 2270SOL    HW123952   5.060   2.971   7.735
 2270SOL    HW223953   4.931   2.992   7.658
 2271SOL     OW23954   4.329   0.707   6.938
 2271SOL    HW123955   4.415   0.749   6.942
 2271SOL    HW223956   4.346   0.622   6.898
 2272SOL     OW23957   0.241   2.021   6.013
 2272SOL    HW123958   0.243   1.926   6.026
 2272SOL    HW223959   0.197   2.033   5.929
 2273SOL     OW23960   3.106   3.315   7.535
 2273SOL    HW123961   3.058   3.373   7.594
 2273SOL    HW223962   3.129   3.239   7.588
 2274SOL     OW23963   2.921   6.048   7.531
 2274SOL    HW123964   2.878   6.129   7.557
 2274SOL    HW223965   2.988   6.075   7.468
 2275SOL     OW23966   2.022   4.868   2.092
 2275SOL    HW123967   2.034   4.780   2.126
 2275SOL    HW223968   2.029   4.925   2.169
 2276SOL     OW23969   5.708   3.376   2.497
 2276SOL    HW123970   5.695   3.282   2.506
 2276SOL    HW223971   5.622   3.414   2.513
 2277SOL     OW23972   1.351   6.407   1.319
 2277SOL    HW123973   1.427   6.430   1.372
 2277SOL    HW223974   1.280   6.395   1.382
 2278SOL     OW23975   0.893   1.714   6.410
 2278SOL    HW123976   0.813   1.689   6.456
 2278SOL    HW223977   0.962   1.665   6.455
 2279SOL     OW23978   1.121   2.439   7.611
 2279SOL    HW123979   1.161   2.352   7.602
 2279SOL    HW223980   1.076   2.436   7.695
 2280SOL     OW23981   6.095   2.000   0.190
 2280SOL    HW123982   6.008   2.020   0.225
 2280SOL    HW223983   6.155   2.019   0.262
 2281SOL     OW23984   2.050   6.114   5.710
 2281SOL    HW123985   2.079   6.040   5.657
 2281SOL    HW223986   1.955   6.115   5.699
 2282SOL     OW23987   5.673   6.416   1.608
 2282SOL    HW123988   5.704   6.325   1.606
 2282SOL    HW223989   5.701   6.449   1.693
 2283SOL     OW23990   5.398   3.556   5.503
 2283SOL    HW123991   5.486   3.591   5.515
 2283SOL    HW223992   5.357   3.566   5.589
 2284SOL     OW23993   5.653   4.235   1.585
 2284SOL    HW123994   5.616   4.237   1.673
 2284SOL    HW223995   5.740   4.197   1.595
 2285SOL     OW23996   3.333   3.773   0.179
 2285SOL    HW123997   3.318   3.725   0.098
 2285SOL    HW223998   3.335   3.865   0.153
 2286SOL     OW23999   1.880   0.901   7.562
 2286SOL    HW124000   1.801   0.927   7.515
 2286SOL    HW224001   1.947   0.896   7.494
 2287SOL     OW24002   2.557   3.625   0.767
 2287SOL    HW124003   2.499   3.601   0.840
 2287SOL    HW224004   2.578   3.717   0.781
 2288SOL     OW24005   5.072   0.196   0.277
 2288SOL    HW124006   5.008   0.139   0.234
 2288SOL    HW224007   5.141   0.209   0.211
 2289SOL     OW24008   6.154   2.755   7.770
 2289SOL    HW124009   6.155   2.845   0.026
 2289SOL    HW224010   6.243   2.723   0.009
 2290SOL     OW24011   1.683   2.670   1.440
 2290SOL    HW124012   1.700   2.590   1.490
 2290SOL    HW224013   1.664   2.736   1.507
 2291SOL     OW24014   1.751   3.183   7.027
 2291SOL    HW124015   1.764   3.091   7.047
 2291SOL    HW224016   1.660   3.200   7.050
 2292SOL     OW24017   6.485   4.117   7.182
 2292SOL    HW124018   6.445   4.072   7.257
 2292SOL    HW224019   6.484   4.052   7.112
 2293SOL     OW24020   5.496   0.517   6.355
 2293SOL    HW124021   5.470   0.426   6.339
 2293SOL    HW224022   5.445   0.568   6.292
 2294SOL     OW24023   3.630   2.095   5.713
 2294SOL    HW124024   3.549   2.066   5.755
 2294SOL    HW224025   3.612   2.091   5.619
 2295SOL     OW24026   4.636   4.197   0.548
 2295SOL    HW124027   4.616   4.168   0.637
 2295SOL    HW224028   4.621   4.120   0.494
 2296SOL     OW24029   2.284   1.248   1.913
 2296SOL    HW124030   2.270   1.308   1.986
 2296SOL    HW224031   2.379   1.241   1.904
 2297SOL     OW24032   1.327   3.589   1.642
 2297SOL    HW124033   1.347   3.682   1.633
 2297SOL    HW224034   1.333   3.571   1.736
 2298SOL     OW24035   5.370   5.057   0.873
 2298SOL    HW124036   5.438   5.093   0.930
 2298SOL    HW224037   5.299   5.121   0.877
 2299SOL     OW24038   2.198   2.255   1.926
 2299SOL    HW124039   2.117   2.303   1.908
 2299SOL    HW224040   2.256   2.321   1.965
 2300SOL     OW24041   5.425   6.281   6.957
 2300SOL    HW124042   5.364   6.235   6.899
 2300SOL    HW224043   5.387   6.368   6.969
 2301SOL     OW24044   2.992   6.470   0.066
 2301SOL    HW124045   3.080   0.007   0.038
 2301SOL    HW224046   2.937   6.485   7.764
 2302SOL     OW24047   0.840   1.988   1.627
 2302SOL    HW124048   0.799   2.029   1.704
 2302SOL    HW224049   0.934   1.994   1.644
 2303SOL     OW24050   1.700   2.139   0.286
 2303SOL    HW124051   1.693   2.147   0.381
 2303SOL    HW224052   1.711   2.046   0.270
 2304SOL     OW24053   6.220   1.759   0.118
 2304SOL    HW124054   6.159   1.828   0.143
 2304SOL    HW224055   6.290   1.764   0.183
 2305SOL     OW24056   3.023   4.693   6.649
 2305SOL    HW124057   3.039   4.753   6.576
 2305SOL    HW224058   3.100   4.636   6.651
 2306SOL     OW24059   6.377   2.101   6.018
 2306SOL    HW124060   6.289   2.107   5.981
 2306SOL    HW224061   6.432   2.073   5.944
 2307SOL     OW24062   6.210   5.783   7.043
 2307SOL    HW124063   6.151   5.724   6.997
 2307SOL    HW224064   6.157   5.860   7.063
 2308SOL     OW24065   2.358   3.056   5.767
 2308SOL    HW124066   2.371   2.981   5.708
 2308SOL    HW224067   2.435   3.111   5.753
 2309SOL     OW24068   0.592   1.446   0.754
 2309SOL    HW124069   0.686   1.454   0.775
 2309SOL    HW224070   0.587   1.467   0.660
 2310SOL     OW24071   0.321   4.983   6.255
 2310SOL    HW124072   0.258   4.912   6.272
 2310SOL    HW224073   0.356   4.963   6.168
 2311SOL     OW24074   5.322   4.985   0.204
 2311SOL    HW124075   5.339   5.028   0.120
 2311SOL    HW224076   5.282   4.902   0.181
 2312SOL     OW24077   5.217   5.084   7.669
 2312SOL    HW124078   5.270   5.152   7.710
 2312SOL    HW224079   5.139   5.077   7.725
 2313SOL     OW24080   2.868   1.336   0.772
 2313SOL    HW124081   2.845   1.243   0.769
 2313SOL    HW224082   2.939   1.345   0.708
 2314SOL     OW24083   4.578   3.545   0.491
 2314SOL    HW124084   4.540   3.538   0.578
 2314SOL    HW224085   4.503   3.556   0.432
 2315SOL     OW24086   2.561   4.670   7.094
 2315SOL    HW124087   2.641   4.620   7.073
 2315SOL    HW224088   2.508   4.609   7.145
 2316SOL     OW24089   2.142   5.528   1.687
 2316SOL    HW124090   2.070   5.478   1.725
 2316SOL    HW224091   2.116   5.620   1.698
 2317SOL     OW24092   1.022   5.760   1.128
 2317SOL    HW124093   1.061   5.677   1.155
 2317SOL    HW224094   0.930   5.752   1.150
 2318SOL     OW24095   3.724   1.838   2.110
 2318SOL    HW124096   3.747   1.850   2.018
 2318SOL    HW224097   3.796   1.788   2.147
 2319SOL     OW24098   3.771   1.386   0.188
 2319SOL    HW124099   3.703   1.383   0.121
 2319SOL    HW224100   3.725   1.369   0.270
 2320SOL     OW24101   6.178   6.233   1.194
 2320SOL    HW124102   6.118   6.245   1.268
 2320SOL    HW224103   6.178   6.139   1.179
 2321SOL     OW24104   5.768   5.058   1.868
 2321SOL    HW124105   5.784   5.102   1.951
 2321SOL    HW224106   5.704   4.990   1.890
 2322SOL     OW24107   3.749   1.289   7.373
 2322SOL    HW124108   3.786   1.337   7.299
 2322SOL    HW224109   3.719   1.356   7.433
 2323SOL     OW24110   4.582   3.351   6.083
 2323SOL    HW124111   4.655   3.365   6.024
 2323SOL    HW224112   4.578   3.256   6.095
 2324SOL     OW24113   3.845   2.328   0.923
 2324SOL    HW124114   3.786   2.285   0.862
 2324SOL    HW224115   3.930   2.287   0.907
 2325SOL     OW24116   5.799   4.211   7.248
 2325SOL    HW124117   5.772   4.241   7.161
 2325SOL    HW224118   5.795   4.290   7.303
 2326SOL     OW24119   2.691   1.536   1.136
 2326SOL    HW124120   2.741   1.604   1.090
 2326SOL    HW224121   2.634   1.585   1.196
 2327SOL     OW24122   2.432   6.361   6.196
 2327SOL    HW124123   2.402   6.308   6.122
 2327SOL    HW224124   2.452   6.298   6.264
 2328SOL     OW24125   2.440   4.588   1.520
 2328SOL    HW124126   2.424   4.538   1.600
 2328SOL    HW224127   2.474   4.672   1.551
 2329SOL     OW24128   0.341   4.684   0.455
 2329SOL    HW124129   0.315   4.754   0.395
 2329SOL    HW224130   0.314   4.603   0.412
 2330SOL     OW24131   4.649   3.512   6.817
 2330SOL    HW124132   4.555   3.508   6.832
 2330SOL    HW224133   4.671   3.428   6.776
 2331SOL     OW24134   5.912   5.987   1.508
 2331SOL    HW124135   5.991   6.018   1.462
 2331SOL    HW224136   5.941   5.909   1.555
 2332SOL     OW24137   4.694   1.444   1.899
 2332SOL    HW124138   4.761   1.499   1.940
 2332SOL    HW224139   4.612   1.472   1.940
 2333SOL     OW24140   2.940   6.076   7.062
 2333SOL    HW124141   2.929   6.171   7.071
 2333SOL    HW224142   3.025   6.059   7.102
 2334SOL     OW24143   2.898   6.420   0.540
 2334SOL    HW124144   2.871   0.011   0.490
 2334SOL    HW224145   2.903   6.350   0.474
 2335SOL     OW24146   4.909   3.611   7.461
 2335SOL    HW124147   4.846   3.650   7.521
 2335SOL    HW224148   4.904   3.517   7.477
 2336SOL     OW24149   3.229   0.021   7.726
 2336SOL    HW124150   3.293   6.436   7.732
 2336SOL    HW224151   3.282   0.100   7.731
 2337SOL     OW24152   2.231   6.292   0.188
 2337SOL    HW124153   2.323   6.310   0.168
 2337SOL    HW224154   2.222   6.313   0.281
 2338SOL     OW24155   3.027   3.872   6.623
 2338SOL    HW124156   2.934   3.864   6.602
 2338SOL    HW224157   3.046   3.965   6.613
 2339SOL     OW24158   4.052   1.945   7.010
 2339SOL    HW124159   4.087   2.031   6.988
 2339SOL    HW224160   4.114   1.883   6.970
 2340SOL     OW24161   4.341   1.441   7.396
 2340SOL    HW124162   4.277   1.420   7.328
 2340SOL    HW224163   4.291   1.491   7.461
 2341SOL     OW24164   2.690   5.445   1.296
 2341SOL    HW124165   2.657   5.463   1.208
 2341SOL    HW224166   2.664   5.355   1.313
 2342SOL     OW24167   0.762   0.832   6.450
 2342SOL    HW124168   0.739   0.759   6.508
 2342SOL    HW224169   0.820   0.887   6.502
 2343SOL     OW24170   6.024   4.780   6.862
 2343SOL    HW124171   6.002   4.692   6.893
 2343SOL    HW224172   5.998   4.838   6.934
 2344SOL     OW24173   0.399   2.329   7.293
 2344SOL    HW124174   0.469   2.367   7.347
 2344SOL    HW224175   0.423   2.351   7.203
 2345SOL     OW24176   1.034   1.108   0.549
 2345SOL    HW124177   1.106   1.069   0.499
 2345SOL    HW224178   0.999   1.034   0.599
 2346SOL     OW24179   4.445   2.683   6.125
 2346SOL    HW124180   4.408   2.764   6.090
 2346SOL    HW224181   4.407   2.614   6.071
 2347SOL     OW24182   3.522   3.359   1.338
 2347SOL    HW124183   3.604   3.363   1.386
 2347SOL    HW224184   3.509   3.448   1.305
 2348SOL     OW24185   1.338   2.731   0.249
 2348SOL    HW124186   1.337   2.754   0.156
 2348SOL    HW224187   1.288   2.650   0.255
 2349SOL     OW24188   0.996   0.964   1.951
 2349SOL    HW124189   1.054   0.935   2.021
 2349SOL    HW224190   0.932   0.893   1.941
 2350SOL     OW24191   5.643   1.395   0.329
 2350SOL    HW124192   5.735   1.370   0.322
 2350SOL    HW224193   5.625   1.396   0.423
 2351SOL     OW24194   1.882   1.137   0.650
 2351SOL    HW124195   1.834   1.166   0.728
 2351SOL    HW224196   1.815   1.098   0.594
 2352SOL     OW24197   3.463   2.234   6.033
 2352SOL    HW124198   3.452   2.145   6.001
 2352SOL    HW224199   3.469   2.287   5.953
 2353SOL     OW24200   2.481   0.946   6.371
 2353SOL    HW124201   2.432   0.881   6.321
 2353SOL    HW224202   2.563   0.902   6.394
 2354SOL     OW24203   2.961   3.493   6.932
 2354SOL    HW124204   2.960   3.585   6.906
 2354SOL    HW224205   3.033   3.455   6.883
 2355SOL     OW24206   2.545   6.039   0.744
 2355SOL    HW124207   2.464   5.992   0.766
 2355SOL    HW224208   2.605   6.018   0.816
 2356SOL     OW24209   0.116   3.903   1.909
 2356SOL    HW124210   0.165   3.984   1.923
 2356SOL    HW224211   0.167   3.836   1.956
 2357SOL     OW24212   6.397   3.631   7.032
 2357SOL    HW124213   6.436   3.657   6.949
 2357SOL    HW224214   6.428   3.541   7.046
 2358SOL     OW24215   6.248   1.267   0.683
 2358SOL    HW124216   6.198   1.186   0.679
 2358SOL    HW224217   6.329   1.248   0.634
 2359SOL     OW24218   6.079   3.159   5.515
 2359SOL    HW124219   6.108   3.228   5.574
 2359SOL    HW224220   6.137   3.085   5.532
 2360SOL     OW24221   4.207   0.772   1.282
 2360SOL    HW124222   4.159   0.714   1.342
 2360SOL    HW224223   4.183   0.742   1.195
 2361SOL     OW24224   5.314   1.735   7.185
 2361SOL    HW124225   5.226   1.718   7.220
 2361SOL    HW224226   5.362   1.654   7.200
 2362SOL     OW24227   0.924   5.752   7.221
 2362SOL    HW124228   0.971   5.780   7.142
 2362SOL    HW224229   0.839   5.722   7.189
 2363SOL     OW24230   3.535   2.403   0.313
 2363SOL    HW124231   3.588   2.467   0.265
 2363SOL    HW224232   3.452   2.401   0.266
 2364SOL     OW24233   4.074   2.418   0.558
 2364SOL    HW124234   3.979   2.411   0.553
 2364SOL    HW224235   4.106   2.331   0.534
 2365SOL     OW24236   0.039   5.371   7.329
 2365SOL    HW124237   0.075   5.396   7.243
 2365SOL    HW224238   0.117   5.355   7.383
 2366SOL     OW24239   6.219   1.008   0.926
 2366SOL    HW124240   6.297   0.952   0.930
 2366SOL    HW224241   6.192   1.006   0.835
 2367SOL     OW24242   4.757   3.030   1.472
 2367SOL    HW124243   4.764   2.937   1.491
 2367SOL    HW224244   4.814   3.044   1.397
 2368SOL     OW24245   6.331   0.337   0.690
 2368SOL    HW124246   6.374   0.254   0.666
 2368SOL    HW224247   6.256   0.310   0.743
 2369SOL     OW24248   5.033   2.569   0.581
 2369SOL    HW124249   4.955   2.617   0.551
 2369SOL    HW224250   5.098   2.637   0.596
 2370SOL     OW24251   5.682   0.248   6.737
 2370SOL    HW124252   5.696   0.315   6.670
 2370SOL    HW224253   5.587   0.237   6.740
 2371SOL     OW24254   2.643   2.623   0.725
 2371SOL    HW124255   2.691   2.542   0.710
 2371SOL    HW224256   2.710   2.692   0.722
 2372SOL     OW24257   1.731   4.579   0.156
 2372SOL    HW124258   1.759   4.622   0.075
 2372SOL    HW224259   1.714   4.488   0.130
 2373SOL     OW24260   0.611   4.052   6.891
 2373SOL    HW124261   0.553   4.044   6.967
 2373SOL    HW224262   0.562   4.011   6.819
 2374SOL     OW24263   4.253   4.827   5.908
 2374SOL    HW124264   4.335   4.833   5.957
 2374SOL    HW224265   4.192   4.785   5.968
 2375SOL     OW24266   2.188   6.108   1.082
 2375SOL    HW124267   2.281   6.130   1.076
 2375SOL    HW224268   2.184   6.014   1.062
 2376SOL     OW24269   3.861   2.802   0.506
 2376SOL    HW124270   3.919   2.783   0.432
 2376SOL    HW224271   3.810   2.722   0.518
 2377SOL     OW24272   0.264   4.002   6.084
 2377SOL    HW124273   0.304   3.931   6.035
 2377SOL    HW224274   0.185   3.964   6.123
 2378SOL     OW24275   1.310   5.408   0.310
 2378SOL    HW124276   1.313   5.336   0.246
 2378SOL    HW224277   1.266   5.479   0.263
 2379SOL     OW24278   0.186   0.407   7.500
 2379SOL    HW124279   0.165   0.446   7.585
 2379SOL    HW224280   0.116   0.344   7.484
 2380SOL     OW24281   3.535   4.916   5.557
 2380SOL    HW124282   3.618   4.870   5.574
 2380SOL    HW224283   3.557   4.981   5.490
 2381SOL     OW24284   1.478   4.391   0.635
 2381SOL    HW124285   1.498   4.454   0.567
 2381SOL    HW224286   1.563   4.357   0.663
 2382SOL     OW24287   1.129   0.724   5.816
 2382SOL    HW124288   1.141   0.726   5.721
 2382SOL    HW224289   1.039   0.695   5.828
 2383SOL     OW24290   5.229   0.086   1.646
 2383SOL    HW124291   5.230   0.019   1.578
 2383SOL    HW224292   5.319   0.116   1.653
 2384SOL     OW24293   0.602   1.036   6.511
 2384SOL    HW124294   0.672   1.018   6.448
 2384SOL    HW224295   0.537   0.969   6.494
 2385SOL     OW24296   2.476   0.144   7.213
 2385SOL    HW124297   2.513   0.080   7.152
 2385SOL    HW224298   2.533   0.141   7.290
 2386SOL     OW24299   2.158   5.816   1.023
 2386SOL    HW124300   2.154   5.820   1.119
 2386SOL    HW224301   2.109   5.737   1.000
 2387SOL     OW24302   6.333   1.412   0.394
 2387SOL    HW124303   6.421   1.447   0.401
 2387SOL    HW224304   6.344   1.317   0.403
 2388SOL     OW24305   3.905   3.854   6.232
 2388SOL    HW124306   3.916   3.859   6.137
 2388SOL    HW224307   3.817   3.889   6.248
 2389SOL     OW24308   4.163   6.351   1.997
 2389SOL    HW124309   4.251   6.345   1.959
 2389SOL    HW224310   4.154   6.443   2.020
 2390SOL     OW24311   5.449   4.898   7.189
 2390SOL    HW124312   5.361   4.932   7.207
 2390SOL    HW224313   5.444   4.805   7.209
 2391SOL     OW24314   3.115   0.274   0.460
 2391SOL    HW124315   3.039   0.244   0.411
 2391SOL    HW224316   3.113   0.223   0.541
 2392SOL     OW24317   3.918   5.998   1.141
 2392SOL    HW124318   3.932   5.962   1.229
 2392SOL    HW224319   3.978   6.073   1.136
 2393SOL     OW24320   3.143   2.122   5.967
 2393SOL    HW124321   3.157   2.186   6.037
 2393SOL    HW224322   3.182   2.162   5.889
 2394SOL     OW24323   5.285   3.843   5.518
 2394SOL    HW124324   5.336   3.765   5.496
 2394SOL    HW224325   5.194   3.818   5.499
 2395SOL     OW24326   4.556   0.432   6.911
 2395SOL    HW124327   4.540   0.513   6.863
 2395SOL    HW224328   4.497   0.368   6.870
 2396SOL     OW24329   2.232   3.474   6.671
 2396SOL    HW124330   2.281   3.526   6.735
 2396SOL    HW224331   2.232   3.527   6.592
 2397SOL     OW24332   1.474   3.330   6.258
 2397SOL    HW124333   1.421   3.399   6.296
 2397SOL    HW224334   1.424   3.300   6.182
 2398SOL     OW24335   5.752   5.960   6.514
 2398SOL    HW124336   5.715   6.003   6.592
 2398SOL    HW224337   5.723   6.015   6.441
 2399SOL     OW24338   3.603   6.293   2.287
 2399SOL    HW124339   3.698   6.301   2.290
 2399SOL    HW224340   3.572   6.384   2.277
 2400SOL     OW24341   0.594   5.896   0.503
 2400SOL    HW124342   0.507   5.934   0.489
 2400SOL    HW224343   0.642   5.915   0.423
 2401SOL     OW24344   2.060   2.536   6.913
 2401SOL    HW124345   2.015   2.614   6.881
 2401SOL    HW224346   2.040   2.468   6.849
 2402SOL     OW24347   3.210   4.894   7.240
 2402SOL    HW124348   3.173   4.807   7.252
 2402SOL    HW224349   3.300   4.887   7.272
 2403SOL     OW24350   2.772   0.278   0.924
 2403SOL    HW124351   2.811   0.278   1.012
 2403SOL    HW224352   2.784   0.368   0.894
 2404SOL     OW24353   3.488   6.330   7.105
 2404SOL    HW124354   3.446   6.391   7.167
 2404SOL    HW224355   3.550   6.281   7.159
 2405SOL     OW24356   5.517   2.003   6.736
 2405SOL    HW124357   5.475   2.013   6.821
 2405SOL    HW224358   5.474   1.927   6.697
 2406SOL     OW24359   5.523   2.850   1.284
 2406SOL    HW124360   5.548   2.802   1.205
 2406SOL    HW224361   5.468   2.922   1.253
 2407SOL     OW24362   3.108   2.891   0.988
 2407SOL    HW124363   3.076   2.960   0.929
 2407SOL    HW224364   3.198   2.875   0.961
 2408SOL     OW24365   0.466   1.706   0.041
 2408SOL    HW124366   0.561   1.708   0.055
 2408SOL    HW224367   0.431   1.770   0.104
 2409SOL     OW24368   6.271   2.674   7.103
 2409SOL    HW124369   6.262   2.615   7.028
 2409SOL    HW224370   6.315   2.622   7.170
 2410SOL     OW24371   3.521   4.369   5.714
 2410SOL    HW124372   3.480   4.313   5.780
 2410SOL    HW224373   3.598   4.321   5.686
 2411SOL     OW24374   0.766   3.791   1.602
 2411SOL    HW124375   0.788   3.813   1.693
 2411SOL    HW224376   0.814   3.710   1.585
 2412SOL     OW24377   1.462   0.751   7.468
 2412SOL    HW124378   1.518   0.829   7.460
 2412SOL    HW224379   1.481   0.701   7.388
 2413SOL     OW24380   3.028   4.011   0.680
 2413SOL    HW124381   3.070   4.030   0.596
 2413SOL    HW224382   3.006   3.918   0.676
 2414SOL     OW24383   4.867   2.019   6.973
 2414SOL    HW124384   4.917   1.938   6.966
 2414SOL    HW224385   4.783   1.999   6.931
 2415SOL     OW24386   2.959   5.436   5.591
 2415SOL    HW124387   2.983   5.417   5.500
 2415SOL    HW224388   3.041   5.433   5.639
 2416SOL     OW24389   0.481   6.199   7.186
 2416SOL    HW124390   0.468   6.294   7.193
 2416SOL    HW224391   0.536   6.189   7.108
 2417SOL     OW24392   5.482   4.478   6.879
 2417SOL    HW124393   5.533   4.467   6.799
 2417SOL    HW224394   5.404   4.423   6.865
 2418SOL     OW24395   4.556   2.739   1.931
 2418SOL    HW124396   4.496   2.669   1.959
 2418SOL    HW224397   4.626   2.693   1.885
 2419SOL     OW24398   2.671   5.288   5.866
 2419SOL    HW124399   2.587   5.273   5.910
 2419SOL    HW224400   2.735   5.245   5.922
 2420SOL     OW24401   2.963   5.058   6.595
 2420SOL    HW124402   2.878   5.043   6.553
 2420SOL    HW224403   2.949   5.031   6.686
 2421SOL     OW24404   2.995   0.229   6.300
 2421SOL    HW124405   2.904   0.226   6.272
 2421SOL    HW224406   3.042   0.177   6.235
 2422SOL     OW24407   1.277   4.146   0.246
 2422SOL    HW124408   1.201   4.091   0.227
 2422SOL    HW224409   1.263   4.176   0.336
 2423SOL     OW24410   4.681   5.732   6.650
 2423SOL    HW124411   4.607   5.718   6.710
 2423SOL    HW224412   4.702   5.824   6.661
 2424SOL     OW24413   2.858   5.418   0.697
 2424SOL    HW124414   2.866   5.441   0.605
 2424SOL    HW224415   2.788   5.474   0.731
 2425SOL     OW24416   2.360   2.535   1.383
 2425SOL    HW124417   2.440   2.587   1.389
 2425SOL    HW224418   2.357   2.484   1.464
 2426SOL     OW24419   4.742   3.346   7.377
 2426SOL    HW124420   4.656   3.329   7.415
 2426SOL    HW224421   4.802   3.347   7.452
 2427SOL     OW24422   1.431   0.117   0.089
 2427SOL    HW124423   1.375   0.109   0.166
 2427SOL    HW224424   1.376   0.161   0.024
 2428SOL     OW24425   4.313   2.069   0.927
 2428SOL    HW124426   4.294   2.025   0.844
 2428SOL    HW224427   4.396   2.115   0.911
 2429SOL     OW24428   3.802   1.123   7.637
 2429SOL    HW124429   3.711   1.137   7.665
 2429SOL    HW224430   3.845   1.207   7.651
 2430SOL     OW24431   3.633   3.374   6.734
 2430SOL    HW124432   3.607   3.343   6.821
 2430SOL    HW224433   3.652   3.467   6.746
 2431SOL     OW24434   4.970   1.763   6.980
 2431SOL    HW124435   4.995   1.714   7.059
 2431SOL    HW224436   4.982   1.701   6.908
 2432SOL     OW24437   2.465   0.036   7.661
 2432SOL    HW124438   2.372   0.015   7.673
 2432SOL    HW224439   2.490   0.082   7.741
 2433SOL     OW24440   5.456   5.518   6.704
 2433SOL    HW124441   5.402   5.501   6.627
 2433SOL    HW224442   5.517   5.586   6.676
 2434SOL     OW24443   0.868   0.732   1.975
 2434SOL    HW124444   0.775   0.741   1.956
 2434SOL    HW224445   0.899   0.664   1.915
 2435SOL     OW24446   3.584   5.452   6.532
 2435SOL    HW124447   3.652   5.504   6.575
 2435SOL    HW224448   3.619   5.364   6.530
 2436SOL     OW24449   4.083   2.818   7.431
 2436SOL    HW124450   4.132   2.867   7.497
 2436SOL    HW224451   4.133   2.738   7.417
 2437SOL     OW24452   1.058   1.389   6.728
 2437SOL    HW124453   0.987   1.441   6.768
 2437SOL    HW224454   1.041   1.300   6.757
 2438SOL     OW24455   1.594   5.852   1.083
 2438SOL    HW124456   1.523   5.879   1.141
 2438SOL    HW224457   1.597   5.757   1.092
 2439SOL     OW24458   3.580   2.092   0.630
 2439SOL    HW124459   3.620   2.032   0.693
 2439SOL    HW224460   3.556   2.036   0.556
 2440SOL     OW24461   5.502   3.159   1.385
 2440SOL    HW124462   5.452   3.169   1.465
 2440SOL    HW224463   5.554   3.240   1.379
 2441SOL     OW24464   1.171   5.157   2.389
 2441SOL    HW124465   1.214   5.242   2.400
 2441SOL    HW224466   1.210   5.101   2.456
 2442SOL     OW24467   5.793   0.016   6.600
 2442SOL    HW124468   5.765   0.107   6.606
 2442SOL    HW224469   5.713   6.454   6.579
 2443SOL     OW24470   1.220   2.332   6.997
 2443SOL    HW124471   1.133   2.353   7.029
 2443SOL    HW224472   1.270   2.413   7.004
 2444SOL     OW24473   2.835   3.370   2.214
 2444SOL    HW124474   2.774   3.397   2.282
 2444SOL    HW224475   2.803   3.413   2.135
 2445SOL     OW24476   2.080   2.144   7.638
 2445SOL    HW124477   2.039   2.059   7.620
 2445SOL    HW224478   2.040   2.173   7.721
 2446SOL     OW24479   1.656   4.812   7.019
 2446SOL    HW124480   1.622   4.724   7.037
 2446SOL    HW224481   1.578   4.862   6.994
 2447SOL     OW24482   1.049   0.591   2.358
 2447SOL    HW124483   1.119   0.543   2.404
 2447SOL    HW224484   1.006   0.525   2.305
 2448SOL     OW24485   3.534   0.751   0.891
 2448SOL    HW124486   3.585   0.813   0.943
 2448SOL    HW224487   3.495   0.804   0.821
 2449SOL     OW24488   0.171   0.147   6.195
 2449SOL    HW124489   0.230   0.141   6.120
 2449SOL    HW224490   0.120   0.066   6.192
 2450SOL     OW24491   6.116   5.383   5.292
 2450SOL    HW124492   6.161   5.304   5.321
 2450SOL    HW224493   6.179   5.426   5.234
 2451SOL     OW24494   2.629   5.842   1.199
 2451SOL    HW124495   2.664   5.806   1.118
 2451SOL    HW224496   2.705   5.864   1.252
 2452SOL     OW24497   4.846   0.915   6.950
 2452SOL    HW124498   4.842   0.828   6.910
 2452SOL    HW224499   4.885   0.900   7.036
 2453SOL     OW24500   2.896   1.387   7.438
 2453SOL    HW124501   2.817   1.336   7.417
 2453SOL    HW224502   2.935   1.341   7.512
 2454SOL     OW24503   0.992   2.942   6.489
 2454SOL    HW124504   0.945   2.912   6.411
 2454SOL    HW224505   0.986   2.869   6.551
 2455SOL     OW24506   3.305   2.813   6.210
 2455SOL    HW124507   3.226   2.828   6.263
 2455SOL    HW224508   3.377   2.847   6.264
 2456SOL     OW24509   0.223   4.294   6.597
 2456SOL    HW124510   0.197   4.252   6.514
 2456SOL    HW224511   0.196   4.231   6.664
 2457SOL     OW24512   4.952   5.818   0.509
 2457SOL    HW124513   5.009   5.895   0.507
 2457SOL    HW224514   5.013   5.744   0.509
 2458SOL     OW24515   5.850   4.564   0.501
 2458SOL    HW124516   5.894   4.626   0.444
 2458SOL    HW224517   5.774   4.534   0.450
 2459SOL     OW24518   1.364   4.032   7.097
 2459SOL    HW124519   1.281   4.039   7.050
 2459SOL    HW224520   1.427   4.079   7.043
 2460SOL     OW24521   4.870   2.859   7.561
 2460SOL    HW124522   4.902   2.770   7.575
 2460SOL    HW224523   4.897   2.880   7.471
 2461SOL     OW24524   6.053   2.108   6.227
 2461SOL    HW124525   6.080   2.134   6.139
 2461SOL    HW224526   6.131   2.070   6.266
 2462SOL     OW24527   2.363   1.198   0.677
 2462SOL    HW124528   2.370   1.247   0.595
 2462SOL    HW224529   2.453   1.192   0.709
 2463SOL     OW24530   0.411   6.396   6.380
 2463SOL    HW124531   0.397   6.303   6.395
 2463SOL    HW224532   0.350   6.439   6.439
 2464SOL     OW24533   1.606   1.037   6.275
 2464SOL    HW124534   1.581   1.065   6.187
 2464SOL    HW224535   1.685   1.088   6.295
 2465SOL     OW24536   3.114   6.172   0.510
 2465SOL    HW124537   3.154   6.256   0.533
 2465SOL    HW224538   3.081   6.184   0.421
 2466SOL     OW24539   1.800   0.152   1.186
 2466SOL    HW124540   1.800   0.088   1.258
 2466SOL    HW224541   1.845   0.228   1.222
 2467SOL     OW24542   2.882   3.125   6.578
 2467SOL    HW124543   2.922   3.168   6.503
 2467SOL    HW224544   2.833   3.052   6.541
 2468SOL     OW24545   6.061   6.396   1.697
 2468SOL    HW124546   5.987   6.445   1.734
 2468SOL    HW224547   6.131   6.408   1.762
 2469SOL     OW24548   4.227   0.467   6.817
 2469SOL    HW124549   4.216   0.511   6.733
 2469SOL    HW224550   4.194   0.378   6.802
 2470SOL     OW24551   1.697   3.253   1.344
 2470SOL    HW124552   1.662   3.325   1.397
 2470SOL    HW224553   1.792   3.260   1.353
 2471SOL     OW24554   0.120   0.691   1.905
 2471SOL    HW124555   0.211   0.713   1.883
 2471SOL    HW224556   0.094   0.760   1.967
 2472SOL     OW24557   3.637   6.138   6.165
 2472SOL    HW124558   3.700   6.066   6.167
 2472SOL    HW224559   3.579   6.117   6.092
 2473SOL     OW24560   4.155   5.677   0.788
 2473SOL    HW124561   4.094   5.704   0.857
 2473SOL    HW224562   4.099   5.644   0.718
 2474SOL     OW24563   3.449   5.600   0.243
 2474SOL    HW124564   3.543   5.599   0.225
 2474SOL    HW224565   3.409   5.557   0.166
 2475SOL     OW24566   3.159   0.669   6.061
 2475SOL    HW124567   3.224   0.603   6.087
 2475SOL    HW224568   3.212   0.744   6.032
 2476SOL     OW24569   3.315   3.676   1.406
 2476SOL    HW124570   3.274   3.757   1.375
 2476SOL    HW224571   3.313   3.682   1.501
 2477SOL     OW24572   0.695   1.835   7.203
 2477SOL    HW124573   0.690   1.930   7.205
 2477SOL    HW224574   0.639   1.806   7.275
 2478SOL     OW24575   0.544   3.230   1.195
 2478SOL    HW124576   0.475   3.261   1.255
 2478SOL    HW224577   0.625   3.268   1.230
 2479SOL     OW24578   0.128   0.666   5.570
 2479SOL    HW124579   0.223   0.654   5.568
 2479SOL    HW224580   0.114   0.752   5.528
 2480SOL     OW24581   1.587   4.615   0.497
 2480SOL    HW124582   1.607   4.660   0.415
 2480SOL    HW224583   1.614   4.676   0.566
 2481SOL     OW24584   3.255   2.375   1.824
 2481SOL    HW124585   3.243   2.321   1.902
 2481SOL    HW224586   3.179   2.433   1.822
 2482SOL     OW24587   5.286   4.562   1.790
 2482SOL    HW124588   5.336   4.625   1.842
 2482SOL    HW224589   5.290   4.480   1.839
 2483SOL     OW24590   0.654   5.000   0.144
 2483SOL    HW124591   0.723   4.982   0.207
 2483SOL    HW224592   0.691   5.065   0.084
 2484SOL     OW24593   0.101   2.460   0.519
 2484SOL    HW124594   0.181   2.483   0.473
 2484SOL    HW224595   0.105   2.509   0.601
 2485SOL     OW24596   5.170   5.242   2.051
 2485SOL    HW124597   5.181   5.253   2.146
 2485SOL    HW224598   5.245   5.287   2.013
 2486SOL     OW24599   3.887   2.031   1.036
 2486SOL    HW124600   3.949   2.103   1.043
 2486SOL    HW224601   3.930   1.968   0.978
 2487SOL     OW24602   4.396   5.082   6.794
 2487SOL    HW124603   4.423   5.114   6.708
 2487SOL    HW224604   4.353   4.999   6.777
 2488SOL     OW24605   4.675   3.072   6.919
 2488SOL    HW124606   4.708   3.122   6.993
 2488SOL    HW224607   4.622   3.003   6.959
 2489SOL     OW24608   6.036   1.164   1.063
 2489SOL    HW124609   6.106   1.120   1.014
 2489SOL    HW224610   6.074   1.182   1.149
 2490SOL     OW24611   1.006   6.413   1.328
 2490SOL    HW124612   1.033   6.337   1.380
 2490SOL    HW224613   1.043   6.397   1.241
 2491SOL     OW24614   1.311   1.252   1.859
 2491SOL    HW124615   1.229   1.209   1.834
 2491SOL    HW224616   1.373   1.180   1.873
 2492SOL     OW24617   3.824   5.930   5.914
 2492SOL    HW124618   3.764   5.879   5.968
 2492SOL    HW224619   3.808   5.899   5.825
 2493SOL     OW24620   5.156   5.307   6.177
 2493SOL    HW124621   5.203   5.302   6.093
 2493SOL    HW224622   5.212   5.261   6.239
 2494SOL     OW24623   4.229   2.550   0.803
 2494SOL    HW124624   4.291   2.559   0.731
 2494SOL    HW224625   4.143   2.551   0.761
 2495SOL     OW24626   4.075   0.473   0.979
 2495SOL    HW124627   4.165   0.494   1.007
 2495SOL    HW224628   4.060   0.529   0.902
 2496SOL     OW24629   0.411   6.349   0.968
 2496SOL    HW124630   0.327   6.340   1.013
 2496SOL    HW224631   0.450   6.429   1.005
 2497SOL     OW24632   0.945   4.684   0.037
 2497SOL    HW124633   0.860   4.700   7.771
 2497SOL    HW224634   0.947   4.590   0.053
 2498SOL     OW24635   6.415   1.802   6.682
 2498SOL    HW124636   0.025   1.802   6.676
 2498SOL    HW224637   6.386   1.830   6.596
 2499SOL     OW24638   2.388   1.226   0.314
 2499SOL    HW124639   2.398   1.131   0.304
 2499SOL    HW224640   2.295   1.242   0.298
 2500SOL     OW24641   2.879   6.344   0.815
 2500SOL    HW124642   2.973   6.358   0.826
 2500SOL    HW224643   2.861   6.372   0.725
 2501SOL     OW24644   4.139   5.540   5.877
 2501SOL    HW124645   4.081   5.612   5.851
 2501SOL    HW224646   4.146   5.485   5.799
 2502SOL     OW24647   6.190   3.114   2.456
 2502SOL    HW124648   6.277   3.126   2.493
 2502SOL    HW224649   6.205   3.111   2.361
 2503SOL     OW24650   3.477   5.117   6.543
 2503SOL    HW124651   3.454   5.040   6.594
 2503SOL    HW224652   3.560   5.147   6.581
 2504SOL     OW24653   2.958   1.712   0.852
 2504SOL    HW124654   3.027   1.719   0.918
 2504SOL    HW224655   2.891   1.774   0.882
 2505SOL     OW24656   4.072   5.327   1.411
 2505SOL    HW124657   4.106   5.372   1.334
 2505SOL    HW224658   4.087   5.234   1.393
 2506SOL     OW24659   3.551   5.475   7.204
 2506SOL    HW124660   3.561   5.523   7.286
 2506SOL    HW224661   3.640   5.445   7.184
 2507SOL     OW24662   0.972   1.082   7.135
 2507SOL    HW124663   1.031   1.113   7.066
 2507SOL    HW224664   0.988   1.143   7.208
 2508SOL     OW24665   3.442   5.391   6.825
 2508SOL    HW124666   3.369   5.337   6.794
 2508SOL    HW224667   3.432   5.474   6.779
 2509SOL     OW24668   6.293   4.070   1.015
 2509SOL    HW124669   6.277   4.016   1.092
 2509SOL    HW224670   6.295   4.008   0.942
 2510SOL     OW24671   5.155   5.832   6.421
 2510SOL    HW124672   5.126   5.744   6.445
 2510SOL    HW224673   5.219   5.817   6.350
 2511SOL     OW24674   4.269   4.778   1.324
 2511SOL    HW124675   4.199   4.781   1.390
 2511SOL    HW224676   4.309   4.692   1.336
 2512SOL     OW24677   3.705   5.849   1.569
 2512SOL    HW124678   3.748   5.849   1.655
 2512SOL    HW224679   3.613   5.864   1.590
 2513SOL     OW24680   4.574   2.129   0.886
 2513SOL    HW124681   4.607   2.046   0.849
 2513SOL    HW224682   4.645   2.191   0.871
 2514SOL     OW24683   2.353   3.541   6.274
 2514SOL    HW124684   2.417   3.551   6.203
 2514SOL    HW224685   2.356   3.625   6.321
 2515SOL     OW24686   4.562   1.300   2.376
 2515SOL    HW124687   4.557   1.217   2.423
 2515SOL    HW224688   4.493   1.293   2.309
 2516SOL     OW24689   4.411   2.041   7.495
 2516SOL    HW124690   4.492   2.030   7.545
 2516SOL    HW224691   4.344   1.996   7.548
 2517SOL     OW24692   3.391   1.702   7.615
 2517SOL    HW124693   3.444   1.747   7.550
 2517SOL    HW224694   3.449   1.691   7.691
 2518SOL     OW24695   5.047   5.272   0.495
 2518SOL    HW124696   5.065   5.197   0.551
 2518SOL    HW224697   4.985   5.240   0.430
 2519SOL     OW24698   4.536   2.128   1.915
 2519SOL    HW124699   4.577   2.067   1.976
 2519SOL    HW224700   4.509   2.201   1.969
 2520SOL     OW24701   0.972   2.345   0.697
 2520SOL    HW124702   1.007   2.401   0.628
 2520SOL    HW224703   1.023   2.264   0.691
 2521SOL     OW24704   1.949   0.265   7.057
 2521SOL    HW124705   1.968   0.302   7.143
 2521SOL    HW224706   1.887   0.194   7.074
 2522SOL     OW24707   3.297   3.874   7.008
 2522SOL    HW124708   3.285   3.807   7.076
 2522SOL    HW224709   3.220   3.864   6.951
 2523SOL     OW24710   4.618   2.322   1.175
 2523SOL    HW124711   4.560   2.304   1.250
 2523SOL    HW224712   4.561   2.364   1.111
 2524SOL     OW24713   4.082   4.858   1.926
 2524SOL    HW124714   4.134   4.835   1.849
 2524SOL    HW224715   4.033   4.778   1.946
 2525SOL     OW24716   5.286   4.814   0.844
 2525SOL    HW124717   5.312   4.906   0.843
 2525SOL    HW224718   5.333   4.777   0.919
 2526SOL     OW24719   2.275   2.793   7.243
 2526SOL    HW124720   2.244   2.706   7.221
 2526SOL    HW224721   2.210   2.852   7.204
 2527SOL     OW24722   0.306   0.116   7.020
 2527SOL    HW124723   0.263   0.153   7.097
 2527SOL    HW224724   0.396   0.101   7.049
 2528SOL     OW24725   2.747   2.197   7.182
 2528SOL    HW124726   2.706   2.257   7.244
 2528SOL    HW224727   2.791   2.254   7.119
 2529SOL     OW24728   3.080   3.454   5.746
 2529SOL    HW124729   3.047   3.520   5.685
 2529SOL    HW224730   3.137   3.398   5.693
 2530SOL     OW24731   3.775   2.715   1.286
 2530SOL    HW124732   3.681   2.718   1.271
 2530SOL    HW224733   3.800   2.807   1.296
 2531SOL     OW24734   0.392   5.993   7.349
 2531SOL    HW124735   0.435   6.055   7.291
 2531SOL    HW224736   0.460   5.930   7.372
 2532SOL     OW24737   2.084   5.077   6.277
 2532SOL    HW124738   2.001   5.102   6.235
 2532SOL    HW224739   2.062   4.997   6.325
 2533SOL     OW24740   4.813   3.128   0.140
 2533SOL    HW124741   4.850   3.077   0.212
 2533SOL    HW224742   4.873   3.111   0.066
 2534SOL     OW24743   5.727   1.167   5.978
 2534SOL    HW124744   5.663   1.120   5.924
 2534SOL    HW224745   5.812   1.135   5.948
 2535SOL     OW24746   2.160   5.130   1.067
 2535SOL    HW124747   2.120   5.196   1.010
 2535SOL    HW224748   2.218   5.080   1.009
 2536SOL     OW24749   2.788   0.783   0.265
 2536SOL    HW124750   2.725   0.840   0.310
 2536SOL    HW224751   2.857   0.767   0.330
 2537SOL     OW24752   0.670   2.165   1.142
 2537SOL    HW124753   0.581   2.169   1.176
 2537SOL    HW224754   0.689   2.254   1.112
 2538SOL     OW24755   1.473   4.729   6.734
 2538SOL    HW124756   1.463   4.720   6.828
 2538SOL    HW224757   1.455   4.821   6.716
 2539SOL     OW24758   2.441   4.128   6.378
 2539SOL    HW124759   2.413   4.187   6.308
 2539SOL    HW224760   2.494   4.062   6.335
 2540SOL     OW24761   5.544   0.284   7.262
 2540SOL    HW124762   5.516   0.241   7.182
 2540SOL    HW224763   5.618   0.339   7.236
 2541SOL     OW24764   0.517   3.726   7.654
 2541SOL    HW124765   0.543   3.699   7.566
 2541SOL    HW224766   0.433   3.681   7.668
 2542SOL     OW24767   2.956   2.347   1.919
 2542SOL    HW124768   3.023   2.331   1.986
 2542SOL    HW224769   2.898   2.412   1.959
 2543SOL     OW24770   1.799   6.194   7.333
 2543SOL    HW124771   1.866   6.154   7.389
 2543SOL    HW224772   1.718   6.187   7.384
 2544SOL     OW24773   3.535   0.481   0.409
 2544SOL    HW124774   3.534   0.495   0.504
 2544SOL    HW224775   3.466   0.418   0.393
 2545SOL     OW24776   5.167   3.979   0.493
 2545SOL    HW124777   5.127   3.969   0.407
 2545SOL    HW224778   5.190   3.890   0.520
 2546SOL     OW24779   2.780   1.031   5.760
 2546SOL    HW124780   2.804   1.018   5.668
 2546SOL    HW224781   2.864   1.037   5.806
 2547SOL     OW24782   2.999   1.091   5.963
 2547SOL    HW124783   3.071   1.150   5.940
 2547SOL    HW224784   2.968   1.124   6.048
 2548SOL     OW24785   6.055   3.367   7.192
 2548SOL    HW124786   6.091   3.447   7.153
 2548SOL    HW224787   6.025   3.315   7.117
 2549SOL     OW24788   2.540   3.599   6.060
 2549SOL    HW124789   2.502   3.687   6.061
 2549SOL    HW224790   2.634   3.613   6.073
 2550SOL     OW24791   5.181   4.420   7.484
 2550SOL    HW124792   5.146   4.442   7.570
 2550SOL    HW224793   5.163   4.327   7.473
 2551SOL     OW24794   3.515   1.528   1.196
 2551SOL    HW124795   3.470   1.571   1.123
 2551SOL    HW224796   3.445   1.499   1.254
 2552SOL     OW24797   1.592   4.586   5.151
 2552SOL    HW124798   1.628   4.644   5.083
 2552SOL    HW224799   1.505   4.622   5.169
 2553SOL     OW24800   1.382   5.070   1.704
 2553SOL    HW124801   1.430   5.106   1.778
 2553SOL    HW224802   1.383   5.139   1.638
 2554SOL     OW24803   3.526   2.372   7.462
 2554SOL    HW124804   3.472   2.448   7.481
 2554SOL    HW224805   3.572   2.395   7.381
 2555SOL     OW24806   1.412   5.723   7.738
 2555SOL    HW124807   1.445   5.747   7.651
 2555SOL    HW224808   1.322   5.756   7.740
 2556SOL     OW24809   4.287   1.322   1.185
 2556SOL    HW124810   4.351   1.385   1.218
 2556SOL    HW224811   4.207   1.373   1.173
 2557SOL     OW24812   3.410   4.542   6.153
 2557SOL    HW124813   3.357   4.618   6.178
 2557SOL    HW224814   3.359   4.499   6.084
 2558SOL     OW24815   6.349   6.088   6.533
 2558SOL    HW124816   6.414   6.023   6.559
 2558SOL    HW224817   6.279   6.080   6.598
 2559SOL     OW24818   3.239   4.806   5.903
 2559SOL    HW124819   3.285   4.735   5.857
 2559SOL    HW224820   3.243   4.880   5.843
 2560SOL     OW24821   1.752   6.183   0.685
 2560SOL    HW124822   1.734   6.189   0.779
 2560SOL    HW224823   1.699   6.253   0.646
 2561SOL     OW24824   0.332   2.462   0.193
 2561SOL    HW124825   0.320   2.550   0.230
 2561SOL    HW224826   0.424   2.442   0.211
 2562SOL     OW24827   2.031   3.615   5.488
 2562SOL    HW124828   2.065   3.699   5.518
 2562SOL    HW224829   1.962   3.638   5.426
 2563SOL     OW24830   6.435   6.045   7.361
 2563SOL    HW124831   6.407   6.131   7.393
 2563SOL    HW224832   6.373   5.983   7.402
 2564SOL     OW24833   2.118   0.545   6.739
 2564SOL    HW124834   2.135   0.624   6.789
 2564SOL    HW224835   2.166   0.476   6.785
 2565SOL     OW24836   5.027   0.837   5.372
 2565SOL    HW124837   5.007   0.923   5.408
 2565SOL    HW224838   5.108   0.811   5.415
 2566SOL     OW24839   3.776   2.416   1.384
 2566SOL    HW124840   3.692   2.371   1.374
 2566SOL    HW224841   3.769   2.492   1.326
 2567SOL     OW24842   5.089   3.724   0.018
 2567SOL    HW124843   5.172   3.757   7.758
 2567SOL    HW224844   5.114   3.675   0.096
 2568SOL     OW24845   2.744   4.280   7.773
 2568SOL    HW124846   2.652   4.287   7.750
 2568SOL    HW224847   2.791   4.304   7.693
 2569SOL     OW24848   5.057   0.094   0.873
 2569SOL    HW124849   5.068   0.084   0.779
 2569SOL    HW224850   5.063   0.188   0.889
 2570SOL     OW24851   4.504   0.318   6.547
 2570SOL    HW124852   4.483   0.411   6.558
 2570SOL    HW224853   4.598   0.317   6.531
 2571SOL     OW24854   5.919   3.867   1.198
 2571SOL    HW124855   6.012   3.890   1.199
 2571SOL    HW224856   5.876   3.945   1.164
 2572SOL     OW24857   4.605   6.221   7.599
 2572SOL    HW124858   4.528   6.205   7.545
 2572SOL    HW224859   4.599   6.157   7.669
 2573SOL     OW24860   0.465   1.478   7.478
 2573SOL    HW124861   0.483   1.409   7.415
 2573SOL    HW224862   0.373   1.501   7.463
 2574SOL     OW24863   0.153   1.170   5.960
 2574SOL    HW124864   0.226   1.136   6.011
 2574SOL    HW224865   0.099   1.217   6.024
 2575SOL     OW24866   6.130   0.843   0.084
 2575SOL    HW124867   6.206   0.886   0.123
 2575SOL    HW224868   6.057   0.871   0.139
 2576SOL     OW24869   5.388   2.990   0.667
 2576SOL    HW124870   5.422   2.950   0.587
 2576SOL    HW224871   5.458   2.979   0.731
 2577SOL     OW24872   6.349   3.102   7.484
 2577SOL    HW124873   6.256   3.088   7.470
 2577SOL    HW224874   6.359   3.197   7.489
 2578SOL     OW24875   5.945   4.697   7.514
 2578SOL    HW124876   5.967   4.655   7.597
 2578SOL    HW224877   5.968   4.789   7.526
 2579SOL     OW24878   1.577   1.803   5.847
 2579SOL    HW124879   1.573   1.896   5.825
 2579SOL    HW224880   1.497   1.786   5.896
 2580SOL     OW24881   5.720   4.489   0.214
 2580SOL    HW124882   5.692   4.426   0.148
 2580SOL    HW224883   5.742   4.568   0.163
 2581SOL     OW24884   3.408   5.235   5.294
 2581SOL    HW124885   3.440   5.295   5.227
 2581SOL    HW224886   3.363   5.292   5.357
 2582SOL     OW24887   1.876   3.566   0.376
 2582SOL    HW124888   1.816   3.631   0.339
 2582SOL    HW224889   1.918   3.611   0.450
 2583SOL     OW24890   3.365   5.093   1.885
 2583SOL    HW124891   3.355   5.140   1.968
 2583SOL    HW224892   3.321   5.009   1.899
 2584SOL     OW24893   1.667   0.780   6.329
 2584SOL    HW124894   1.641   0.872   6.327
 2584SOL    HW224895   1.667   0.757   6.422
 2585SOL     OW24896   2.568   6.224   7.094
 2585SOL    HW124897   2.514   6.170   7.036
 2585SOL    HW224898   2.538   6.202   7.182
 2586SOL     OW24899   4.296   2.757   0.998
 2586SOL    HW124900   4.250   2.720   0.923
 2586SOL    HW224901   4.347   2.829   0.961
 2587SOL     OW24902   6.338   4.408   6.996
 2587SOL    HW124903   6.288   4.453   7.065
 2587SOL    HW224904   6.368   4.479   6.939
 2588SOL     OW24905   6.043   0.077   6.924
 2588SOL    HW124906   6.009   0.166   6.932
 2588SOL    HW224907   6.022   0.052   6.833
 2589SOL     OW24908   5.781   5.167   7.106
 2589SOL    HW124909   5.810   5.207   7.024
 2589SOL    HW224910   5.689   5.193   7.115
 2590SOL     OW24911   0.481   4.866   2.157
 2590SOL    HW124912   0.456   4.945   2.206
 2590SOL    HW224913   0.508   4.804   2.225
 2591SOL     OW24914   0.184   5.535   6.545
 2591SOL    HW124915   0.203   5.565   6.456
 2591SOL    HW224916   0.264   5.551   6.594
 2592SOL     OW24917   5.938   3.024   1.143
 2592SOL    HW124918   5.902   2.949   1.096
 2592SOL    HW224919   5.868   3.049   1.204
 2593SOL     OW24920   3.876   4.531   6.973
 2593SOL    HW124921   3.785   4.503   6.970
 2593SOL    HW224922   3.925   4.451   6.993
 2594SOL     OW24923   4.143   2.397   0.197
 2594SOL    HW124924   4.216   2.409   0.258
 2594SOL    HW224925   4.149   2.305   0.169
 2595SOL     OW24926   3.608   6.132   7.316
 2595SOL    HW124927   3.538   6.114   7.380
 2595SOL    HW224928   3.670   6.188   7.364
 2596SOL     OW24929   0.021   3.183   0.558
 2596SOL    HW124930   6.467   3.127   0.625
 2596SOL    HW224931   0.086   3.235   0.605
 2597SOL     OW24932   4.568   1.350   0.961
 2597SOL    HW124933   4.609   1.370   1.044
 2597SOL    HW224934   4.482   1.393   0.965
 2598SOL     OW24935   2.406   6.007   1.244
 2598SOL    HW124936   2.481   5.949   1.230
 2598SOL    HW224937   2.432   6.090   1.204
 2599SOL     OW24938   4.762   0.492   1.129
 2599SOL    HW124939   4.781   0.581   1.100
 2599SOL    HW224940   4.846   0.460   1.163
 2600SOL     OW24941   5.290   0.340   0.586
 2600SOL    HW124942   5.316   0.284   0.513
 2600SOL    HW224943   5.329   0.299   0.663
 2601SOL     OW24944   0.232   2.224   0.324
 2601SOL    HW124945   0.272   2.308   0.300
 2601SOL    HW224946   0.140   2.245   0.339
 2602SOL     OW24947   3.649   1.530   6.187
 2602SOL    HW124948   3.665   1.436   6.195
 2602SOL    HW224949   3.554   1.537   6.173
 2603SOL     OW24950   2.596   1.300   1.830
 2603SOL    HW124951   2.639   1.343   1.903
 2603SOL    HW224952   2.657   1.231   1.803
 2604SOL     OW24953   3.193   3.936   5.292
 2604SOL    HW124954   3.278   3.952   5.250
 2604SOL    HW224955   3.155   4.023   5.300
 2605SOL     OW24956   1.843   1.726   0.868
 2605SOL    HW124957   1.887   1.675   0.935
 2605SOL    HW224958   1.838   1.668   0.792
 2606SOL     OW24959   5.540   0.117   1.992
 2606SOL    HW124960   5.561   0.030   1.958
 2606SOL    HW224961   5.537   0.173   1.915
 2607SOL     OW24962   5.697   1.907   0.340
 2607SOL    HW124963   5.626   1.869   0.391
 2607SOL    HW224964   5.771   1.848   0.352
 2608SOL     OW24965   2.465   1.099   6.594
 2608SOL    HW124966   2.457   1.071   6.503
 2608SOL    HW224967   2.499   1.022   6.640
 2609SOL     OW24968   3.192   4.493   2.146
 2609SOL    HW124969   3.133   4.427   2.112
 2609SOL    HW224970   3.173   4.572   2.095
 2610SOL     OW24971   6.331   6.027   2.438
 2610SOL    HW124972   6.288   6.097   2.488
 2610SOL    HW224973   6.423   6.033   2.464
 2611SOL     OW24974   5.700   3.747   6.998
 2611SOL    HW124975   5.633   3.708   7.053
 2611SOL    HW224976   5.732   3.822   7.048
 2612SOL     OW24977   2.308   3.723   6.514
 2612SOL    HW124978   2.327   3.808   6.554
 2612SOL    HW224979   2.213   3.720   6.508
 2613SOL     OW24980   5.882   2.158   2.047
 2613SOL    HW124981   5.936   2.109   2.108
 2613SOL    HW224982   5.793   2.126   2.063
 2614SOL     OW24983   4.172   3.503   6.804
 2614SOL    HW124984   4.232   3.576   6.818
 2614SOL    HW224985   4.214   3.429   6.848
 2615SOL     OW24986   3.024   2.972   0.297
 2615SOL    HW124987   3.067   3.016   0.224
 2615SOL    HW224988   2.936   3.011   0.300
 2616SOL     OW24989   5.573   5.771   1.150
 2616SOL    HW124990   5.575   5.820   1.232
 2616SOL    HW224991   5.530   5.830   1.088
 2617SOL     OW24992   6.133   3.827   0.239
 2617SOL    HW124993   6.063   3.892   0.237
 2617SOL    HW224994   6.172   3.835   0.327
 2618SOL     OW24995   4.140   0.170   7.724
 2618SOL    HW124996   4.179   0.170   0.036
 2618SOL    HW224997   4.061   0.223   7.732
 2619SOL     OW24998   1.071   3.713   6.574
 2619SOL    HW124999   0.991   3.731   6.623
 2619SOL    HW225000   1.118   3.796   6.574
 2620SOL     OW25001   3.764   3.015   7.708
 2620SOL    HW125002   3.819   3.000   7.631
 2620SOL    HW225003   3.684   2.966   7.691
 2621SOL     OW25004   5.836   2.586   6.797
 2621SOL    HW125005   5.774   2.573   6.869
 2621SOL    HW225006   5.791   2.646   6.737
 2622SOL     OW25007   1.210   3.250   5.482
 2622SOL    HW125008   1.229   3.157   5.467
 2622SOL    HW225009   1.116   3.258   5.470
 2623SOL     OW25010   6.092   6.484   6.670
 2623SOL    HW125011   6.146   0.074   6.652
 2623SOL    HW225012   6.012   0.012   6.620
 2624SOL     OW25013   4.243   1.374   0.670
 2624SOL    HW125014   4.336   1.350   0.668
 2624SOL    HW225015   4.206   1.328   0.595
 2625SOL     OW25016   4.576   6.251   1.739
 2625SOL    HW125017   4.634   6.186   1.779
 2625SOL    HW225018   4.611   6.264   1.651
 2626SOL     OW25019   2.585   5.450   6.270
 2626SOL    HW125020   2.576   5.545   6.281
 2626SOL    HW225021   2.679   5.435   6.270
 2627SOL     OW25022   6.459   5.332   1.397
 2627SOL    HW125023   0.016   5.340   1.312
 2627SOL    HW225024   0.031   5.377   1.458
 2628SOL     OW25025   2.196   2.032   0.668
 2628SOL    HW125026   2.196   2.120   0.630
 2628SOL    HW225027   2.150   2.041   0.751
 2629SOL     OW25028   6.364   2.212   1.202
 2629SOL    HW125029   6.336   2.250   1.286
 2629SOL    HW225030   6.460   2.218   1.204
 2630SOL     OW25031   1.763   6.118   6.628
 2630SOL    HW125032   1.846   6.101   6.585
 2630SOL    HW225033   1.718   6.181   6.571
 2631SOL     OW25034   1.948   4.894   1.076
 2631SOL    HW125035   1.904   4.916   0.994
 2631SOL    HW225036   2.026   4.949   1.076
 2632SOL     OW25037   5.543   0.660   0.079
 2632SOL    HW125038   5.608   0.725   0.106
 2632SOL    HW225039   5.460   0.696   0.111
 2633SOL     OW25040   4.193   1.230   7.588
 2633SOL    HW125041   4.105   1.259   7.612
 2633SOL    HW225042   4.243   1.235   7.669
 2634SOL     OW25043   6.398   6.316   0.470
 2634SOL    HW125044   6.373   6.324   0.378
 2634SOL    HW225045   6.326   6.267   0.510
 2635SOL     OW25046   0.723   3.148   6.600
 2635SOL    HW125047   0.798   3.205   6.588
 2635SOL    HW225048   0.659   3.178   6.535
 2636SOL     OW25049   3.736   3.558   7.294
 2636SOL    HW125050   3.720   3.495   7.224
 2636SOL    HW225051   3.734   3.505   7.374
 2637SOL     OW25052   3.103   5.565   1.121
 2637SOL    HW125053   3.079   5.543   1.031
 2637SOL    HW225054   3.032   5.530   1.174
 2638SOL     OW25055   1.067   6.382   0.827
 2638SOL    HW125056   1.058   6.290   0.803
 2638SOL    HW225057   1.060   6.429   0.744
 2639SOL     OW25058   1.973   4.288   5.267
 2639SOL    HW125059   1.955   4.196   5.287
 2639SOL    HW225060   1.887   4.329   5.262
 2640SOL     OW25061   3.959   5.782   0.968
 2640SOL    HW125062   3.938   5.719   1.036
 2640SOL    HW225063   3.954   5.867   1.012
 2641SOL     OW25064   5.937   1.692   6.879
 2641SOL    HW125065   5.994   1.681   6.955
 2641SOL    HW225066   5.990   1.740   6.815
 2642SOL     OW25067   0.923   5.228   0.181
 2642SOL    HW125068   0.993   5.166   0.202
 2642SOL    HW225069   0.893   5.261   0.266
 2643SOL     OW25070   0.230   5.655   1.858
 2643SOL    HW125071   0.189   5.596   1.795
 2643SOL    HW225072   0.251   5.600   1.933
 2644SOL     OW25073   5.843   3.518   6.933
 2644SOL    HW125074   5.835   3.610   6.958
 2644SOL    HW225075   5.937   3.504   6.922
 2645SOL     OW25076   0.330   2.607   5.610
 2645SOL    HW125077   0.331   2.530   5.667
 2645SOL    HW225078   0.419   2.612   5.574
 2646SOL     OW25079   3.780   5.096   1.434
 2646SOL    HW125080   3.864   5.133   1.461
 2646SOL    HW225081   3.750   5.154   1.364
 2647SOL     OW25082   0.135   5.728   7.088
 2647SOL    HW125083   0.146   5.814   7.128
 2647SOL    HW225084   0.089   5.746   7.006
 2648SOL     OW25085   0.069   2.493   5.796
 2648SOL    HW125086   0.031   2.433   5.861
 2648SOL    HW225087   0.156   2.458   5.779
 2649SOL     OW25088   3.666   0.458   0.170
 2649SOL    HW125089   3.624   0.467   0.255
 2649SOL    HW225090   3.601   0.491   0.107
 2650SOL     OW25091   1.929   4.037   0.115
 2650SOL    HW125092   1.991   4.093   0.069
 2650SOL    HW225093   1.910   3.966   0.054
 2651SOL     OW25094   0.602   0.729   6.904
 2651SOL    HW125095   0.581   0.807   6.853
 2651SOL    HW225096   0.647   0.763   6.982
 2652SOL     OW25097   3.114   5.413   6.089
 2652SOL    HW125098   3.153   5.497   6.064
 2652SOL    HW225099   3.073   5.381   6.009
 2653SOL     OW25100   2.643   5.093   4.976
 2653SOL    HW125101   2.684   5.040   4.908
 2653SOL    HW225102   2.625   5.030   5.046
 2654SOL     OW25103   1.521   2.498   1.928
 2654SOL    HW125104   1.546   2.527   2.016
 2654SOL    HW225105   1.503   2.404   1.938
 2655SOL     OW25106   5.903   4.394   6.048
 2655SOL    HW125107   5.836   4.452   6.011
 2655SOL    HW225108   5.986   4.434   6.022
 2656SOL     OW25109   4.655   3.471   6.315
 2656SOL    HW125110   4.670   3.398   6.375
 2656SOL    HW225111   4.623   3.430   6.235
 2657SOL     OW25112   4.911   3.712   1.508
 2657SOL    HW125113   4.853   3.774   1.551
 2657SOL    HW225114   4.855   3.669   1.443
 2658SOL     OW25115   2.046   0.425   7.275
 2658SOL    HW125116   2.025   0.398   7.365
 2658SOL    HW225117   2.128   0.380   7.255
 2659SOL     OW25118   1.685   6.466   6.232
 2659SOL    HW125119   1.779   6.471   6.215
 2659SOL    HW225120   1.658   0.070   6.245
 2660SOL     OW25121   5.964   4.861   1.787
 2660SOL    HW125122   5.893   4.797   1.778
 2660SOL    HW225123   5.920   4.942   1.814
 2661SOL     OW25124   1.171   3.380   0.241
 2661SOL    HW125125   1.121   3.445   0.290
 2661SOL    HW225126   1.181   3.306   0.301
 2662SOL     OW25127   3.802   5.023   7.477
 2662SOL    HW125128   3.717   5.063   7.457
 2662SOL    HW225129   3.780   4.933   7.503
 2663SOL     OW25130   6.411   2.174   0.887
 2663SOL    HW125131   6.372   2.196   0.803
 2663SOL    HW225132   6.365   2.095   0.915
 2664SOL     OW25133   3.012   4.776   5.635
 2664SOL    HW125134   3.004   4.828   5.715
 2664SOL    HW225135   3.044   4.838   5.569
 2665SOL     OW25136   0.284   0.526   6.516
 2665SOL    HW125137   0.255   0.617   6.509
 2665SOL    HW225138   0.240   0.482   6.444
 2666SOL     OW25139   0.338   4.221   2.419
 2666SOL    HW125140   0.277   4.214   2.493
 2666SOL    HW225141   0.341   4.315   2.400
 2667SOL     OW25142   6.426   2.387   7.148
 2667SOL    HW125143   6.451   2.302   7.111
 2667SOL    HW225144   6.399   2.367   7.237
 2668SOL     OW25145   4.083   3.929   0.365
 2668SOL    HW125146   4.048   4.013   0.334
 2668SOL    HW225147   4.017   3.897   0.426
 2669SOL     OW25148   3.272   5.190   6.088
 2669SOL    HW125149   3.334   5.232   6.028
 2669SOL    HW225150   3.226   5.263   6.130
 2670SOL     OW25151   2.540   4.805   0.740
 2670SOL    HW125152   2.630   4.793   0.711
 2670SOL    HW225153   2.546   4.828   0.833
 2671SOL     OW25154   1.413   1.338   7.158
 2671SOL    HW125155   1.482   1.390   7.117
 2671SOL    HW225156   1.459   1.262   7.195
 2672SOL     OW25157   1.138   5.382   6.927
 2672SOL    HW125158   1.083   5.389   7.005
 2672SOL    HW225159   1.164   5.472   6.908
 2673SOL     OW25160   2.467   2.214   1.734
 2673SOL    HW125161   2.526   2.159   1.785
 2673SOL    HW225162   2.469   2.299   1.779
 2674SOL     OW25163   4.660   1.403   0.198
 2674SOL    HW125164   4.756   1.394   0.202
 2674SOL    HW225165   4.627   1.334   0.255
 2675SOL     OW25166   2.607   1.064   0.823
 2675SOL    HW125167   2.558   1.098   0.898
 2675SOL    HW225168   2.699   1.073   0.850
 2676SOL     OW25169   0.058   3.316   0.324
 2676SOL    HW125170   0.043   3.257   0.399
 2676SOL    HW225171   0.134   3.278   0.279
 2677SOL     OW25172   6.481   2.685   6.617
 2677SOL    HW125173   6.407   2.740   6.593
 2677SOL    HW225174   6.449   2.632   6.690
 2678SOL     OW25175   0.401   1.430   2.064
 2678SOL    HW125176   0.436   1.505   2.016
 2678SOL    HW225177   0.307   1.429   2.042
 2679SOL     OW25178   0.230   4.007   1.663
 2679SOL    HW125179   0.276   4.034   1.743
 2679SOL    HW225180   0.178   4.083   1.638
 2680SOL     OW25181   0.798   0.057   0.677
 2680SOL    HW125182   0.704   0.040   0.663
 2680SOL    HW225183   0.812   0.042   0.770
 2681SOL     OW25184   3.890   4.624   1.681
 2681SOL    HW125185   3.914   4.566   1.609
 2681SOL    HW225186   3.794   4.622   1.682
 2682SOL     OW25187   1.654   3.664   7.529
 2682SOL    HW125188   1.657   3.581   7.577
 2682SOL    HW225189   1.708   3.649   7.451
 2683SOL     OW25190   5.969   4.241   7.586
 2683SOL    HW125191   5.996   4.218   7.675
 2683SOL    HW225192   5.942   4.158   7.547
 2684SOL     OW25193   5.096   2.060   1.603
 2684SOL    HW125194   5.095   2.065   1.507
 2684SOL    HW225195   5.106   1.966   1.621
 2685SOL     OW25196   3.195   2.471   7.060
 2685SOL    HW125197   3.147   2.398   7.099
 2685SOL    HW225198   3.287   2.452   7.078
 2686SOL     OW25199   1.928   1.847   0.063
 2686SOL    HW125200   1.897   1.840   7.748
 2686SOL    HW225201   2.024   1.851   0.055
 2687SOL     OW25202   4.087   1.374   1.510
 2687SOL    HW125203   4.122   1.411   1.591
 2687SOL    HW225204   4.069   1.282   1.532
 2688SOL     OW25205   1.533   0.929   5.546
 2688SOL    HW125206   1.615   0.926   5.596
 2688SOL    HW225207   1.471   0.971   5.605
 2689SOL     OW25208   5.488   0.674   7.031
 2689SOL    HW125209   5.450   0.589   7.051
 2689SOL    HW225210   5.431   0.737   7.076
 2690SOL     OW25211   5.233   3.087   7.460
 2690SOL    HW125212   5.186   3.006   7.438
 2690SOL    HW225213   5.324   3.059   7.473
 2691SOL     OW25214   1.398   5.237   7.481
 2691SOL    HW125215   1.328   5.302   7.489
 2691SOL    HW225216   1.355   5.161   7.443
 2692SOL     OW25217   2.335   2.315   5.839
 2692SOL    HW125218   2.338   2.226   5.874
 2692SOL    HW225219   2.426   2.344   5.839
 2693SOL     OW25220   5.358   2.885   6.922
 2693SOL    HW125221   5.302   2.889   7.000
 2693SOL    HW225222   5.345   2.796   6.888
 2694SOL     OW25223   4.822   0.019   1.375
 2694SOL    HW125224   4.872   0.100   1.360
 2694SOL    HW225225   4.870   6.461   1.445
 2695SOL     OW25226   0.967   0.414   2.183
 2695SOL    HW125227   0.983   0.323   2.159
 2695SOL    HW225228   1.001   0.465   2.109
 2696SOL     OW25229   1.431   1.596   6.126
 2696SOL    HW125230   1.379   1.559   6.198
 2696SOL    HW225231   1.438   1.689   6.147
 2697SOL     OW25232   2.204   3.596   5.256
 2697SOL    HW125233   2.204   3.605   5.351
 2697SOL    HW225234   2.118   3.560   5.234
 2698SOL     OW25235   2.566   0.857   1.103
 2698SOL    HW125236   2.503   0.929   1.097
 2698SOL    HW225237   2.529   0.797   1.168
 2699SOL     OW25238   4.515   1.033   2.165
 2699SOL    HW125239   4.549   0.974   2.098
 2699SOL    HW225240   4.580   1.102   2.173
 2700SOL     OW25241   2.454   1.374   1.027
 2700SOL    HW125242   2.445   1.432   1.103
 2700SOL    HW225243   2.549   1.367   1.014
 2701SOL     OW25244   1.738   0.883   1.109
 2701SOL    HW125245   1.829   0.897   1.133
 2701SOL    HW225246   1.741   0.847   1.020
 2702SOL     OW25247   0.107   3.230   1.065
 2702SOL    HW125248   0.083   3.173   1.138
 2702SOL    HW225249   0.173   3.181   1.017
 2703SOL     OW25250   0.812   5.860   1.508
 2703SOL    HW125251   0.768   5.817   1.435
 2703SOL    HW225252   0.866   5.928   1.467
 2704SOL     OW25253   5.915   4.080   1.599
 2704SOL    HW125254   5.940   4.021   1.528
 2704SOL    HW225255   5.952   4.040   1.678
 2705SOL     OW25256   5.675   2.590   1.768
 2705SOL    HW125257   5.582   2.575   1.746
 2705SOL    HW225258   5.673   2.627   1.856
 2706SOL     OW25259   0.444   4.693   0.727
 2706SOL    HW125260   0.386   4.686   0.651
 2706SOL    HW225261   0.476   4.783   0.725
 2707SOL     OW25262   2.195   1.578   6.460
 2707SOL    HW125263   2.128   1.604   6.523
 2707SOL    HW225264   2.227   1.660   6.424
 2708SOL     OW25265   1.857   0.064   0.477
 2708SOL    HW125266   1.821   0.105   0.556
 2708SOL    HW225267   1.836   0.126   0.407
 2709SOL     OW25268   2.308   3.921   1.445
 2709SOL    HW125269   2.390   3.940   1.401
 2709SOL    HW225270   2.323   3.946   1.536
 2710SOL     OW25271   2.248   2.764   0.442
 2710SOL    HW125272   2.292   2.701   0.499
 2710SOL    HW225273   2.279   2.850   0.472
 2711SOL     OW25274   1.682   3.791   6.128
 2711SOL    HW125275   1.606   3.796   6.070
 2711SOL    HW225276   1.724   3.877   6.119
 2712SOL     OW25277   0.189   5.030   5.888
 2712SOL    HW125278   0.125   4.971   5.928
 2712SOL    HW225279   0.144   5.067   5.813
 2713SOL     OW25280   5.835   6.010   7.545
 2713SOL    HW125281   5.803   5.922   7.567
 2713SOL    HW225282   5.769   6.045   7.485
 2714SOL     OW25283   6.047   0.672   2.192
 2714SOL    HW125284   6.001   0.650   2.273
 2714SOL    HW225285   6.060   0.767   2.197
 2715SOL     OW25286   4.067   4.244   6.395
 2715SOL    HW125287   4.094   4.153   6.402
 2715SOL    HW225288   3.981   4.248   6.436
 2716SOL     OW25289   4.671   3.703   1.328
 2716SOL    HW125290   4.627   3.642   1.387
 2716SOL    HW225291   4.714   3.648   1.263
 2717SOL     OW25292   4.755   3.052   2.158
 2717SOL    HW125293   4.776   3.145   2.154
 2717SOL    HW225294   4.725   3.038   2.248
 2718SOL     OW25295   4.495   1.289   0.707
 2718SOL    HW125296   4.531   1.211   0.665
 2718SOL    HW225297   4.526   1.283   0.797
 2719SOL     OW25298   5.112   5.105   7.049
 2719SOL    HW125299   5.076   5.185   7.087
 2719SOL    HW225300   5.128   5.047   7.123
 2720SOL     OW25301   4.549   5.901   1.770
 2720SOL    HW125302   4.473   5.934   1.817
 2720SOL    HW225303   4.553   5.808   1.793
 2721SOL     OW25304   5.399   6.477   1.012
 2721SOL    HW125305   5.331   6.447   0.951
 2721SOL    HW225306   5.453   0.050   0.960
 2722SOL     OW25307   2.211   4.900   0.230
 2722SOL    HW125308   2.156   4.977   0.212
 2722SOL    HW225309   2.300   4.936   0.239
 2723SOL     OW25310   1.601   3.973   1.705
 2723SOL    HW125311   1.514   3.998   1.673
 2723SOL    HW225312   1.657   3.979   1.628
 2724SOL     OW25313   4.625   2.939   1.033
 2724SOL    HW125314   4.706   2.988   1.019
 2724SOL    HW225315   4.641   2.891   1.115
 2725SOL     OW25316   6.322   4.556   1.020
 2725SOL    HW125317   6.229   4.538   1.037
 2725SOL    HW225318   6.321   4.620   0.949
 2726SOL     OW25319   3.141   0.192   6.583
 2726SOL    HW125320   3.219   0.187   6.527
 2726SOL    HW225321   3.069   0.209   6.522
 2727SOL     OW25322   3.097   3.050   7.622
 2727SOL    HW125323   3.007   3.048   7.588
 2727SOL    HW225324   3.145   2.991   7.564
 2728SOL     OW25325   0.135   3.553   2.231
 2728SOL    HW125326   0.051   3.534   2.187
 2728SOL    HW225327   0.185   3.472   2.221
 2729SOL     OW25328   3.361   1.388   0.741
 2729SOL    HW125329   3.434   1.347   0.694
 2729SOL    HW225330   3.317   1.317   0.786
 2730SOL     OW25331   4.058   0.639   0.721
 2730SOL    HW125332   4.118   0.634   0.647
 2730SOL    HW225333   4.054   0.732   0.742
 2731SOL     OW25334   6.021   0.428   6.534
 2731SOL    HW125335   6.038   0.521   6.549
 2731SOL    HW225336   5.935   0.413   6.574
 2732SOL     OW25337   2.191   0.587   1.371
 2732SOL    HW125338   2.253   0.649   1.333
 2732SOL    HW225339   2.112   0.639   1.387
 2733SOL     OW25340   5.799   0.298   6.291
 2733SOL    HW125341   5.852   0.232   6.247
 2733SOL    HW225342   5.831   0.381   6.257
 2734SOL     OW25343   3.063   5.926   6.804
 2734SOL    HW125344   3.106   5.849   6.840
 2734SOL    HW225345   3.015   5.963   6.878
 2735SOL     OW25346   1.107   5.298   5.826
 2735SOL    HW125347   1.106   5.306   5.730
 2735SOL    HW225348   1.135   5.384   5.857
 2736SOL     OW25349   4.235   4.712   0.875
 2736SOL    HW125350   4.153   4.753   0.902
 2736SOL    HW225351   4.208   4.639   0.818
 2737SOL     OW25352   3.486   3.411   0.316
 2737SOL    HW125353   3.510   3.432   0.226
 2737SOL    HW225354   3.410   3.466   0.334
 2738SOL     OW25355   5.609   4.917   6.655
 2738SOL    HW125356   5.535   4.861   6.633
 2738SOL    HW225357   5.585   4.958   6.739
 2739SOL     OW25358   4.958   5.329   1.736
 2739SOL    HW125359   5.037   5.384   1.741
 2739SOL    HW225360   4.888   5.389   1.711
 2740SOL     OW25361   1.966   2.469   7.620
 2740SOL    HW125362   1.891   2.432   7.667
 2740SOL    HW225363   2.042   2.433   7.664
 2741SOL     OW25364   5.519   2.771   5.280
 2741SOL    HW125365   5.579   2.698   5.292
 2741SOL    HW225366   5.576   2.848   5.270
 2742SOL     OW25367   2.929   0.115   0.306
 2742SOL    HW125368   2.857   0.177   0.295
 2742SOL    HW225369   2.962   0.101   0.217
 2743SOL     OW25370   2.661   2.821   6.700
 2743SOL    HW125371   2.641   2.774   6.781
 2743SOL    HW225372   2.623   2.908   6.713
 2744SOL     OW25373   5.282   2.164   5.962
 2744SOL    HW125374   5.269   2.114   5.881
 2744SOL    HW225375   5.203   2.148   6.013
 2745SOL     OW25376   2.050   1.325   0.563
 2745SOL    HW125377   2.026   1.234   0.546
 2745SOL    HW225378   2.080   1.325   0.654
 2746SOL     OW25379   4.006   4.155   0.249
 2746SOL    HW125380   4.037   4.168   0.159
 2746SOL    HW225381   3.937   4.221   0.260
 2747SOL     OW25382   2.249   5.015   7.018
 2747SOL    HW125383   2.312   5.039   7.085
 2747SOL    HW225384   2.168   5.058   7.044
 2748SOL     OW25385   1.280   2.154   7.188
 2748SOL    HW125386   1.307   2.204   7.265
 2748SOL    HW225387   1.258   2.220   7.122
 2749SOL     OW25388   4.491   0.929   7.502
 2749SOL    HW125389   4.433   0.864   7.544
 2749SOL    HW225390   4.433   0.979   7.445
 2750SOL     OW25391   2.166   3.622   1.213
 2750SOL    HW125392   2.107   3.638   1.287
 2750SOL    HW225393   2.145   3.532   1.186
 2751SOL     OW25394   3.573   0.062   2.164
 2751SOL    HW125395   3.489   0.075   2.120
 2751SOL    HW225396   3.629   0.132   2.129
 2752SOL     OW25397   1.932   4.090   6.785
 2752SOL    HW125398   1.976   4.010   6.756
 2752SOL    HW225399   2.000   4.158   6.779
 2753SOL     OW25400   2.098   0.985   7.412
 2753SOL    HW125401   2.117   0.941   7.329
 2753SOL    HW225402   2.172   1.044   7.425
 2754SOL     OW25403   3.597   0.150   5.213
 2754SOL    HW125404   3.503   0.129   5.208
 2754SOL    HW225405   3.602   0.222   5.275
 2755SOL     OW25406   0.255   1.716   0.976
 2755SOL    HW125407   0.327   1.654   0.968
 2755SOL    HW225408   0.288   1.796   0.936
 2756SOL     OW25409   5.828   6.346   7.388
 2756SOL    HW125410   5.773   6.315   7.316
 2756SOL    HW225411   5.884   6.413   7.348
 2757SOL     OW25412   1.375   2.240   6.331
 2757SOL    HW125413   1.448   2.180   6.314
 2757SOL    HW225414   1.302   2.205   6.280
 2758SOL     OW25415   5.894   4.750   5.932
 2758SOL    HW125416   5.843   4.670   5.921
 2758SOL    HW225417   5.875   4.801   5.853
 2759SOL     OW25418   5.918   3.819   2.458
 2759SOL    HW125419   5.938   3.759   2.530
 2759SOL    HW225420   5.888   3.763   2.387
 2760SOL     OW25421   0.641   6.209   0.900
 2760SOL    HW125422   0.546   6.197   0.904
 2760SOL    HW225423   0.663   6.258   0.978
 2761SOL     OW25424   3.960   4.270   7.677
 2761SOL    HW125425   3.930   4.345   7.728
 2761SOL    HW225426   4.056   4.276   7.680
 2762SOL     OW25427   2.393   2.288   6.652
 2762SOL    HW125428   2.460   2.291   6.583
 2762SOL    HW225429   2.381   2.379   6.677
 2763SOL     OW25430   4.601   6.405   2.208
 2763SOL    HW125431   4.651   6.454   2.143
 2763SOL    HW225432   4.582   6.322   2.166
 2764SOL     OW25433   0.682   3.533   6.108
 2764SOL    HW125434   0.624   3.546   6.033
 2764SOL    HW225435   0.730   3.454   6.088
 2765SOL     OW25436   4.294   5.232   0.770
 2765SOL    HW125437   4.301   5.277   0.685
 2765SOL    HW225438   4.295   5.303   0.834
 2766SOL     OW25439   5.095   6.107   2.033
 2766SOL    HW125440   5.145   6.073   2.108
 2766SOL    HW225441   5.007   6.073   2.046
 2767SOL     OW25442   5.171   1.811   7.601
 2767SOL    HW125443   5.168   1.890   7.654
 2767SOL    HW225444   5.199   1.742   7.661
 2768SOL     OW25445   0.408   1.425   7.734
 2768SOL    HW125446   0.402   1.512   7.774
 2768SOL    HW225447   0.456   1.439   7.652
 2769SOL     OW25448   4.942   0.367   2.087
 2769SOL    HW125449   4.984   0.373   2.173
 2769SOL    HW225450   4.894   0.450   2.078
 2770SOL     OW25451   5.292   4.325   1.940
 2770SOL    HW125452   5.369   4.303   1.993
 2770SOL    HW225453   5.279   4.249   1.884
 2771SOL     OW25454   1.908   3.969   5.642
 2771SOL    HW125455   1.875   3.911   5.573
 2771SOL    HW225456   2.001   3.946   5.650
 2772SOL     OW25457   3.283   2.735   6.595
 2772SOL    HW125458   3.257   2.700   6.680
 2772SOL    HW225459   3.242   2.821   6.590
 2773SOL     OW25460   4.246   5.203   7.532
 2773SOL    HW125461   4.174   5.188   7.471
 2773SOL    HW225462   4.225   5.286   7.574
 2774SOL     OW25463   1.685   4.896   0.561
 2774SOL    HW125464   1.662   4.870   0.650
 2774SOL    HW225465   1.738   4.823   0.528
 2775SOL     OW25466   0.682   5.392   7.566
 2775SOL    HW125467   0.671   5.319   7.506
 2775SOL    HW225468   0.595   5.433   7.571
 2776SOL     OW25469   2.151   1.350   1.277
 2776SOL    HW125470   2.059   1.365   1.299
 2776SOL    HW225471   2.149   1.307   1.191
 2777SOL     OW25472   1.232   1.038   6.778
 2777SOL    HW125473   1.312   1.078   6.743
 2777SOL    HW225474   1.185   1.110   6.818
 2778SOL     OW25475   5.659   3.542   0.351
 2778SOL    HW125476   5.750   3.573   0.349
 2778SOL    HW225477   5.632   3.553   0.442
 2779SOL     OW25478   4.604   1.064   0.978
 2779SOL    HW125479   4.530   1.007   0.999
 2779SOL    HW225480   4.564   1.150   0.964
 2780SOL     OW25481   4.971   4.497   0.790
 2780SOL    HW125482   4.966   4.582   0.746
 2780SOL    HW225483   4.940   4.435   0.725
 2781SOL     OW25484   5.594   3.593   7.207
 2781SOL    HW125485   5.543   3.667   7.241
 2781SOL    HW225486   5.648   3.565   7.280
 2782SOL     OW25487   3.040   5.045   6.223
 2782SOL    HW125488   3.009   5.043   6.132
 2782SOL    HW225489   3.135   5.054   6.216
 2783SOL     OW25490   3.659   0.799   7.008
 2783SOL    HW125491   3.729   0.843   7.056
 2783SOL    HW225492   3.605   0.759   7.076
 2784SOL     OW25493   2.639   4.911   6.267
 2784SOL    HW125494   2.612   4.907   6.176
 2784SOL    HW225495   2.689   4.992   6.274
 2785SOL     OW25496   3.340   0.218   6.424
 2785SOL    HW125497   3.436   0.223   6.430
 2785SOL    HW225498   3.318   0.270   6.347
 2786SOL     OW25499   4.251   3.208   2.187
 2786SOL    HW125500   4.165   3.223   2.149
 2786SOL    HW225501   4.262   3.278   2.252
 2787SOL     OW25502   1.792   1.897   6.021
 2787SOL    HW125503   1.799   1.986   5.986
 2787SOL    HW225504   1.726   1.855   5.965
 2788SOL     OW25505   3.033   5.802   0.860
 2788SOL    HW125506   3.111   5.752   0.836
 2788SOL    HW225507   3.067   5.882   0.899
 2789SOL     OW25508   6.283   5.087   6.892
 2789SOL    HW125509   6.259   5.014   6.949
 2789SOL    HW225510   6.222   5.080   6.818
 2790SOL     OW25511   1.094   6.064   7.489
 2790SOL    HW125512   1.066   6.117   7.414
 2790SOL    HW225513   1.097   5.974   7.456
 2791SOL     OW25514   6.055   2.291   7.048
 2791SOL    HW125515   5.982   2.231   7.063
 2791SOL    HW225516   6.130   2.247   7.089
 2792SOL     OW25517   5.944   3.775   1.540
 2792SOL    HW125518   5.890   3.779   1.461
 2792SOL    HW225519   5.941   3.683   1.567
 2793SOL     OW25520   4.361   1.391   0.289
 2793SOL    HW125521   4.280   1.380   0.338
 2793SOL    HW225522   4.409   1.458   0.337
 2794SOL     OW25523   5.033   4.092   6.761
 2794SOL    HW125524   5.113   4.125   6.802
 2794SOL    HW225525   5.050   4.000   6.745
 2795SOL     OW25526   3.635   5.088   5.001
 2795SOL    HW125527   3.649   5.175   4.965
 2795SOL    HW225528   3.701   5.079   5.070
 2796SOL     OW25529   3.359   4.644   0.288
 2796SOL    HW125530   3.307   4.659   0.209
 2796SOL    HW225531   3.321   4.703   0.353
 2797SOL     OW25532   2.674   5.166   1.339
 2797SOL    HW125533   2.647   5.136   1.426
 2797SOL    HW225534   2.599   5.144   1.283
 2798SOL     OW25535   0.926   2.123   6.480
 2798SOL    HW125536   0.934   2.056   6.549
 2798SOL    HW225537   0.957   2.203   6.521
 2799SOL     OW25538   4.566   4.026   7.398
 2799SOL    HW125539   4.643   3.983   7.360
 2799SOL    HW225540   4.597   4.065   7.479
 2800SOL     OW25541   3.733   6.115   0.121
 2800SOL    HW125542   3.649   6.073   0.098
 2800SOL    HW225543   3.724   6.135   0.214
 2801SOL     OW25544   0.730   1.777   0.083
 2801SOL    HW125545   0.770   1.862   0.063
 2801SOL    HW225546   0.704   1.784   0.175
 2802SOL     OW25547   0.540   3.257   6.452
 2802SOL    HW125548   0.575   3.346   6.450
 2802SOL    HW225549   0.531   3.232   6.360
 2803SOL     OW25550   0.349   3.479   7.345
 2803SOL    HW125551   0.367   3.387   7.365
 2803SOL    HW225552   0.426   3.526   7.377
 2804SOL     OW25553   0.668   1.542   1.526
 2804SOL    HW125554   0.630   1.600   1.460
 2804SOL    HW225555   0.718   1.478   1.475
 2805SOL     OW25556   5.809   6.421   5.658
 2805SOL    HW125557   5.743   0.003   5.648
 2805SOL    HW225558   5.870   6.436   5.586
 2806SOL     OW25559   1.406   0.133   0.789
 2806SOL    HW125560   1.371   0.064   0.733
 2806SOL    HW225561   1.452   0.087   0.859
 2807SOL     OW25562   1.557   4.944   1.988
 2807SOL    HW125563   1.478   4.891   1.983
 2807SOL    HW225564   1.534   5.025   1.944
 2808SOL     OW25565   6.456   0.791   1.027
 2808SOL    HW125566   0.024   0.850   0.975
 2808SOL    HW225567   0.032   0.734   1.071
 2809SOL     OW25568   4.686   1.683   7.135
 2809SOL    HW125569   4.642   1.766   7.153
 2809SOL    HW225570   4.770   1.708   7.097
 2810SOL     OW25571   1.967   0.496   5.795
 2810SOL    HW125572   1.951   0.589   5.812
 2810SOL    HW225573   2.051   0.478   5.837
 2811SOL     OW25574   5.420   6.333   1.651
 2811SOL    HW125575   5.511   6.360   1.640
 2811SOL    HW225576   5.419   6.285   1.733
 2812SOL     OW25577   6.423   0.031   6.719
 2812SOL    HW125578   6.419   0.092   6.792
 2812SOL    HW225579   6.413   6.431   6.759
 2813SOL     OW25580   3.442   0.675   6.285
 2813SOL    HW125581   3.458   0.766   6.309
 2813SOL    HW225582   3.451   0.673   6.190
 2814SOL     OW25583   5.683   3.497   5.744
 2814SOL    HW125584   5.776   3.483   5.761
 2814SOL    HW225585   5.650   3.412   5.717
 2815SOL     OW25586   3.397   2.755   1.028
 2815SOL    HW125587   3.429   2.833   0.984
 2815SOL    HW225588   3.392   2.688   0.960
 2816SOL     OW25589   3.466   3.194   6.366
 2816SOL    HW125590   3.400   3.187   6.296
 2816SOL    HW225591   3.494   3.104   6.382
 2817SOL     OW25592   3.500   2.599   6.491
 2817SOL    HW125593   3.474   2.572   6.403
 2817SOL    HW225594   3.424   2.645   6.526
 2818SOL     OW25595   0.581   5.776   7.453
 2818SOL    HW125596   0.547   5.691   7.482
 2818SOL    HW225597   0.585   5.829   7.532
 2819SOL     OW25598   5.791   0.584   1.169
 2819SOL    HW125599   5.717   0.643   1.181
 2819SOL    HW225600   5.780   0.518   1.238
 2820SOL     OW25601   3.034   6.032   5.705
 2820SOL    HW125602   2.953   6.019   5.755
 2820SOL    HW225603   3.016   5.992   5.620
 2821SOL     OW25604   4.584   3.000   7.290
 2821SOL    HW125605   4.551   2.943   7.360
 2821SOL    HW225606   4.661   3.042   7.329
 2822SOL     OW25607   6.205   6.257   6.805
 2822SOL    HW125608   6.157   6.327   6.761
 2822SOL    HW225609   6.188   6.271   6.898
 2823SOL     OW25610   4.873   2.866   1.958
 2823SOL    HW125611   4.931   2.941   1.972
 2823SOL    HW225612   4.785   2.900   1.976
 2824SOL     OW25613   6.373   3.909   1.650
 2824SOL    HW125614   6.358   4.003   1.664
 2824SOL    HW225615   6.436   3.885   1.718
 2825SOL     OW25616   4.808   4.444   6.483
 2825SOL    HW125617   4.777   4.426   6.394
 2825SOL    HW225618   4.734   4.422   6.539
 2826SOL     OW25619   6.100   1.145   1.373
 2826SOL    HW125620   6.044   1.076   1.407
 2826SOL    HW225621   6.170   1.153   1.438
 2827SOL     OW25622   5.457   5.319   0.940
 2827SOL    HW125623   5.402   5.365   1.004
 2827SOL    HW225624   5.527   5.280   0.992
 2828SOL     OW25625   0.805   1.609   7.659
 2828SOL    HW125626   0.871   1.554   7.701
 2828SOL    HW225627   0.777   1.669   7.729
 2829SOL     OW25628   4.296   0.113   0.651
 2829SOL    HW125629   4.286   0.018   0.655
 2829SOL    HW225630   4.374   0.132   0.703
 2830SOL     OW25631   0.228   5.595   1.136
 2830SOL    HW125632   0.162   5.658   1.165
 2830SOL    HW225633   0.183   5.538   1.075
 2831SOL     OW25634   1.188   3.882   0.479
 2831SOL    HW125635   1.141   3.884   0.396
 2831SOL    HW225636   1.128   3.923   0.542
 2832SOL     OW25637   2.169   0.182   0.163
 2832SOL    HW125638   2.235   0.141   0.218
 2832SOL    HW225639   2.157   0.269   0.201
 2833SOL     OW25640   5.930   2.783   7.628
 2833SOL    HW125641   5.918   2.705   7.573
 2833SOL    HW225642   6.010   2.766   7.677
 2834SOL     OW25643   3.801   0.183   0.405
 2834SOL    HW125644   3.871   0.238   0.440
 2834SOL    HW225645   3.801   0.202   0.311
 2835SOL     OW25646   3.967   0.013   1.890
 2835SOL    HW125647   3.922   0.001   1.974
 2835SOL    HW225648   4.017   6.418   1.877
 2836SOL     OW25649   3.046   3.893   0.002
 2836SOL    HW125650   3.034   3.932   0.088
 2836SOL    HW225651   3.132   3.851   0.006
 2837SOL     OW25652   4.886   0.869   1.544
 2837SOL    HW125653   4.911   0.946   1.493
 2837SOL    HW225654   4.907   0.892   1.634
 2838SOL     OW25655   0.668   6.413   6.489
 2838SOL    HW125656   0.579   6.410   6.454
 2838SOL    HW225657   0.661   6.462   6.571
 2839SOL     OW25658   0.054   3.381   1.700
 2839SOL    HW125659   0.065   3.449   1.766
 2839SOL    HW225660   0.126   3.321   1.715
 2840SOL     OW25661   5.916   3.383   6.334
 2840SOL    HW125662   5.821   3.377   6.319
 2840SOL    HW225663   5.929   3.472   6.367
 2841SOL     OW25664   3.604   4.772   6.440
 2841SOL    HW125665   3.578   4.685   6.471
 2841SOL    HW225666   3.600   4.827   6.518
 2842SOL     OW25667   6.466   0.493   0.865
 2842SOL    HW125668   6.392   0.452   0.819
 2842SOL    HW225669   6.456   0.466   0.956
 2843SOL     OW25670   4.101   1.529   0.096
 2843SOL    HW125671   4.111   1.596   0.164
 2843SOL    HW225672   4.186   1.525   0.053
 2844SOL     OW25673   4.693   1.892   0.986
 2844SOL    HW125674   4.731   1.858   1.067
 2844SOL    HW225675   4.664   1.981   1.008
 2845SOL     OW25676   2.937   0.808   1.361
 2845SOL    HW125677   2.964   0.883   1.308
 2845SOL    HW225678   2.948   0.837   1.452
 2846SOL     OW25679   5.808   5.457   0.302
 2846SOL    HW125680   5.895   5.416   0.300
 2846SOL    HW225681   5.750   5.390   0.336
 2847SOL     OW25682   3.714   5.601   0.171
 2847SOL    HW125683   3.808   5.613   0.186
 2847SOL    HW225684   3.686   5.683   0.131
 2848SOL     OW25685   1.266   3.526   7.341
 2848SOL    HW125686   1.277   3.611   7.382
 2848SOL    HW225687   1.353   3.503   7.310
 2849SOL     OW25688   3.605   2.223   6.315
 2849SOL    HW125689   3.558   2.140   6.326
 2849SOL    HW225690   3.536   2.289   6.317
 2850SOL     OW25691   1.676   5.537   0.401
 2850SOL    HW125692   1.657   5.595   0.475
 2850SOL    HW225693   1.656   5.589   0.323
 2851SOL     OW25694   6.288   5.299   7.455
 2851SOL    HW125695   6.382   5.284   7.444
 2851SOL    HW225696   6.247   5.250   7.384
 2852SOL     OW25697   1.854   5.325   0.481
 2852SOL    HW125698   1.778   5.269   0.468
 2852SOL    HW225699   1.825   5.412   0.451
 2853SOL     OW25700   2.888   4.134   5.763
 2853SOL    HW125701   2.967   4.117   5.712
 2853SOL    HW225702   2.823   4.074   5.726
 2854SOL     OW25703   0.171   6.026   6.269
 2854SOL    HW125704   0.163   6.108   6.220
 2854SOL    HW225705   0.087   5.982   6.258
 2855SOL     OW25706   4.478   5.859   7.431
 2855SOL    HW125707   4.401   5.838   7.484
 2855SOL    HW225708   4.465   5.950   7.405
 2856SOL     OW25709   5.311   5.348   1.193
 2856SOL    HW125710   5.224   5.322   1.223
 2856SOL    HW225711   5.315   5.442   1.209
 2857SOL     OW25712   4.216   0.205   0.211
 2857SOL    HW125713   4.178   0.122   0.241
 2857SOL    HW225714   4.248   0.247   0.292
 2858SOL     OW25715   1.872   2.566   6.223
 2858SOL    HW125716   1.799   2.518   6.184
 2858SOL    HW225717   1.937   2.572   6.153
 2859SOL     OW25718   4.531   0.859   5.756
 2859SOL    HW125719   4.581   0.938   5.773
 2859SOL    HW225720   4.447   0.873   5.800
 2860SOL     OW25721   1.675   0.329   0.234
 2860SOL    HW125722   1.737   0.259   0.215
 2860SOL    HW225723   1.603   0.285   0.279
 2861SOL     OW25724   2.997   3.747   5.311
 2861SOL    HW125725   3.058   3.821   5.315
 2861SOL    HW225726   3.021   3.701   5.231
 2862SOL     OW25727   6.306   3.272   6.710
 2862SOL    HW125728   6.380   3.322   6.743
 2862SOL    HW225729   6.322   3.182   6.740
 2863SOL     OW25730   5.596   1.519   6.340
 2863SOL    HW125731   5.610   1.570   6.420
 2863SOL    HW225732   5.648   1.564   6.274
 2864SOL     OW25733   0.876   3.988   0.859
 2864SOL    HW125734   0.821   3.925   0.906
 2864SOL    HW225735   0.924   4.033   0.928
 2865SOL     OW25736   3.806   0.765   6.584
 2865SOL    HW125737   3.849   0.682   6.565
 2865SOL    HW225738   3.783   0.801   6.498
 2866SOL     OW25739   2.000   2.953   6.671
 2866SOL    HW125740   2.033   3.013   6.603
 2866SOL    HW225741   1.939   2.895   6.624
 2867SOL     OW25742   0.980   3.965   7.585
 2867SOL    HW125743   1.063   4.012   7.587
 2867SOL    HW225744   0.916   4.027   7.619
 2868SOL     OW25745   4.906   2.971   0.574
 2868SOL    HW125746   4.894   3.057   0.614
 2868SOL    HW225747   4.913   2.990   0.480
 2869SOL     OW25748   1.760   4.100   2.474
 2869SOL    HW125749   1.753   4.195   2.469
 2869SOL    HW225750   1.850   4.081   2.449
 2870SOL     OW25751   4.596   0.645   5.638
 2870SOL    HW125752   4.559   0.628   5.551
 2870SOL    HW225753   4.550   0.723   5.669
 2871SOL     OW25754   1.124   1.652   7.254
 2871SOL    HW125755   1.097   1.735   7.291
 2871SOL    HW225756   1.186   1.676   7.184
 2872SOL     OW25757   6.453   2.276   7.668
 2872SOL    HW125758   6.467   2.205   7.732
 2872SOL    HW225759   6.432   2.352   7.721
 2873SOL     OW25760   4.705   4.558   6.823
 2873SOL    HW125761   4.765   4.632   6.835
 2873SOL    HW225762   4.745   4.486   6.872
 2874SOL     OW25763   5.792   1.104   7.607
 2874SOL    HW125764   5.698   1.106   7.588
 2874SOL    HW225765   5.808   1.016   7.642
 2875SOL     OW25766   1.333   0.193   6.176
 2875SOL    HW125767   1.325   0.280   6.135
 2875SOL    HW225768   1.258   0.144   6.142
 2876SOL     OW25769   2.465   0.153   1.397
 2876SOL    HW125770   2.410   0.170   1.321
 2876SOL    HW225771   2.474   0.239   1.440
 2877SOL     OW25772   5.440   4.305   7.530
 2877SOL    HW125773   5.363   4.361   7.519
 2877SOL    HW225774   5.468   4.286   7.440
 2878SOL     OW25775   3.616   1.448   0.439
 2878SOL    HW125776   3.529   1.441   0.401
 2878SOL    HW225777   3.619   1.378   0.505
 2879SOL     OW25778   5.285   3.493   0.875
 2879SOL    HW125779   5.338   3.434   0.820
 2879SOL    HW225780   5.211   3.516   0.820
 2880SOL     OW25781   5.140   3.094   1.502
 2880SOL    HW125782   5.207   3.109   1.568
 2880SOL    HW225783   5.084   3.026   1.540
 2881SOL     OW25784   3.900   3.318   6.578
 2881SOL    HW125785   3.838   3.274   6.636
 2881SOL    HW225786   3.979   3.265   6.582
 2882SOL     OW25787   6.101   0.495   1.402
 2882SOL    HW125788   6.014   0.466   1.374
 2882SOL    HW225789   6.112   0.457   1.489
 2883SOL     OW25790   4.191   2.875   0.699
 2883SOL    HW125791   4.286   2.871   0.705
 2883SOL    HW225792   4.174   2.887   0.605
 2884SOL     OW25793   5.062   3.941   6.386
 2884SOL    HW125794   5.097   3.923   6.473
 2884SOL    HW225795   5.015   4.024   6.396
 2885SOL     OW25796   4.601   1.304   7.435
 2885SOL    HW125797   4.585   1.311   7.529
 2885SOL    HW225798   4.523   1.343   7.394
 2886SOL     OW25799   2.678   2.130   6.548
 2886SOL    HW125800   2.635   2.209   6.517
 2886SOL    HW225801   2.649   2.122   6.639
 2887SOL     OW25802   4.201   6.160   7.239
 2887SOL    HW125803   4.117   6.201   7.261
 2887SOL    HW225804   4.179   6.070   7.217
 2888SOL     OW25805   5.151   0.065   0.621
 2888SOL    HW125806   5.177   0.008   0.549
 2888SOL    HW225807   5.111   0.141   0.578
 2889SOL     OW25808   2.960   0.403   6.793
 2889SOL    HW125809   3.021   0.330   6.785
 2889SOL    HW225810   3.015   0.477   6.822
 2890SOL     OW25811   3.868   6.479   2.135
 2890SOL    HW125812   3.954   0.035   2.144
 2890SOL    HW225813   3.857   6.429   2.216
 2891SOL     OW25814   2.753   0.375   7.410
 2891SOL    HW125815   2.705   0.382   7.327
 2891SOL    HW225816   2.805   0.455   7.414
 2892SOL     OW25817   4.135   3.992   7.436
 2892SOL    HW125818   4.046   3.968   7.410
 2892SOL    HW225819   4.149   3.946   7.518
 2893SOL     OW25820   2.081   3.529   7.571
 2893SOL    HW125821   2.036   3.612   7.585
 2893SOL    HW225822   2.171   3.554   7.550
 2894SOL     OW25823   6.393   1.480   6.505
 2894SOL    HW125824   6.396   1.387   6.481
 2894SOL    HW225825   6.440   1.485   6.588
 2895SOL     OW25826   1.898   0.234   6.432
 2895SOL    HW125827   1.964   0.288   6.476
 2895SOL    HW225828   1.935   0.146   6.431
 2896SOL     OW25829   5.761   2.204   2.359
 2896SOL    HW125830   5.770   2.281   2.305
 2896SOL    HW225831   5.846   2.161   2.355
 2897SOL     OW25832   5.351   4.072   0.300
 2897SOL    HW125833   5.393   4.158   0.307
 2897SOL    HW225834   5.274   4.079   0.358
 2898SOL     OW25835   2.124   3.395   6.350
 2898SOL    HW125836   2.196   3.453   6.328
 2898SOL    HW225837   2.045   3.446   6.332
 2899SOL     OW25838   1.769   2.750   7.744
 2899SOL    HW125839   1.831   2.731   0.040
 2899SOL    HW225840   1.694   2.791   0.013
 2900SOL     OW25841   0.877   5.354   0.421
 2900SOL    HW125842   0.938   5.420   0.452
 2900SOL    HW225843   0.803   5.358   0.482
 2901SOL     OW25844   3.247   1.791   0.474
 2901SOL    HW125845   3.195   1.794   0.394
 2901SOL    HW225846   3.205   1.854   0.533
 2902SOL     OW25847   2.457   2.787   7.509
 2902SOL    HW125848   2.430   2.702   7.477
 2902SOL    HW225849   2.467   2.776   7.603
 2903SOL     OW25850   5.516   0.853   1.554
 2903SOL    HW125851   5.462   0.827   1.480
 2903SOL    HW225852   5.472   0.930   1.590
 2904SOL     OW25853   1.153   1.240   6.998
 2904SOL    HW125854   1.103   1.316   6.967
 2904SOL    HW225855   1.232   1.278   7.037
 2905SOL     OW25856   2.782   4.303   7.491
 2905SOL    HW125857   2.820   4.227   7.447
 2905SOL    HW225858   2.694   4.309   7.454
 2906SOL     OW25859   1.304   2.475   0.240
 2906SOL    HW125860   1.384   2.453   0.192
 2906SOL    HW225861   1.241   2.408   0.214
 2907SOL     OW25862   3.695   2.601   0.237
 2907SOL    HW125863   3.776   2.625   0.191
 2907SOL    HW225864   3.671   2.680   0.285
 2908SOL     OW25865   0.294   3.719   6.311
 2908SOL    HW125866   0.264   3.690   6.225
 2908SOL    HW225867   0.240   3.795   6.331
 2909SOL     OW25868   5.267   0.310   6.606
 2909SOL    HW125869   5.204   0.260   6.659
 2909SOL    HW225870   5.235   0.301   6.517
 2910SOL     OW25871   2.836   0.079   7.648
 2910SOL    HW125872   2.859   0.163   7.687
 2910SOL    HW225873   2.749   0.093   7.610
 2911SOL     OW25874   2.329   4.370   6.964
 2911SOL    HW125875   2.408   4.402   6.919
 2911SOL    HW225876   2.263   4.437   6.946
 2912SOL     OW25877   2.153   0.767   7.647
 2912SOL    HW125878   2.124   0.857   7.636
 2912SOL    HW225879   2.182   0.740   7.560
 2913SOL     OW25880   4.866   0.278   0.024
 2913SOL    HW125881   4.894   0.251   7.712
 2913SOL    HW225882   4.891   0.205   0.081
 2914SOL     OW25883   2.280   5.606   7.424
 2914SOL    HW125884   2.264   5.604   7.330
 2914SOL    HW225885   2.196   5.584   7.464
 2915SOL     OW25886   0.064   5.123   7.659
 2915SOL    HW125887   0.144   5.164   7.626
 2915SOL    HW225888   0.092   5.079   7.740
 2916SOL     OW25889   5.975   1.317   0.272
 2916SOL    HW125890   5.939   1.356   0.192
 2916SOL    HW225891   6.055   1.273   0.243
 2917SOL     OW25892   0.029   4.906   6.953
 2917SOL    HW125893   6.447   4.966   6.922
 2917SOL    HW225894   0.039   4.928   7.046
 2918SOL     OW25895   0.702   4.999   7.434
 2918SOL    HW125896   0.643   5.073   7.420
 2918SOL    HW225897   0.645   4.922   7.433
 2919SOL     OW25898   4.015   4.408   0.489
 2919SOL    HW125899   3.944   4.420   0.552
 2919SOL    HW225900   3.971   4.397   0.405
 2920SOL     OW25901   3.036   0.420   7.463
 2920SOL    HW125902   3.024   0.347   7.403
 2920SOL    HW225903   3.009   0.387   7.549
 2921SOL     OW25904   5.752   4.583   6.247
 2921SOL    HW125905   5.686   4.525   6.284
 2921SOL    HW225906   5.736   4.582   6.153
 2922SOL     OW25907   0.612   4.375   7.659
 2922SOL    HW125908   0.584   4.422   7.737
 2922SOL    HW225909   0.544   4.393   7.594
 2923SOL     OW25910   3.923   0.949   1.237
 2923SOL    HW125911   3.888   1.038   1.231
 2923SOL    HW225912   4.013   0.960   1.268
 2924SOL     OW25913   4.055   5.021   1.388
 2924SOL    HW125914   4.073   4.987   1.301
 2924SOL    HW225915   4.078   4.949   1.447
 2925SOL     OW25916   3.158   2.982   6.941
 2925SOL    HW125917   3.139   3.035   6.863
 2925SOL    HW225918   3.253   2.967   6.937
 2926SOL     OW25919   3.455   1.619   1.983
 2926SOL    HW125920   3.378   1.563   1.995
 2926SOL    HW225921   3.456   1.675   2.061
 2927SOL     OW25922   4.525   3.931   1.325
 2927SOL    HW125923   4.556   3.840   1.334
 2927SOL    HW225924   4.453   3.925   1.263
 2928SOL     OW25925   4.871   1.048   1.046
 2928SOL    HW125926   4.884   1.013   1.134
 2928SOL    HW225927   4.777   1.044   1.032
 2929SOL     OW25928   6.322   4.746   7.532
 2929SOL    HW125929   6.418   4.741   7.527
 2929SOL    HW225930   6.304   4.839   7.545
 2930SOL     OW25931   1.224   4.557   5.166
 2930SOL    HW125932   1.294   4.622   5.171
 2930SOL    HW225933   1.221   4.518   5.253
 2931SOL     OW25934   3.313   5.840   0.253
 2931SOL    HW125935   3.339   5.749   0.267
 2931SOL    HW225936   3.318   5.879   0.340
 2932SOL     OW25937   0.726   4.301   6.022
 2932SOL    HW125938   0.707   4.228   5.962
 2932SOL    HW225939   0.710   4.379   5.970
 2933SOL     OW25940   2.985   4.442   0.295
 2933SOL    HW125941   3.078   4.429   0.274
 2933SOL    HW225942   2.957   4.513   0.237
 2934SOL     OW25943   5.433   3.189   7.061
 2934SOL    HW125944   5.399   3.163   6.976
 2934SOL    HW225945   5.495   3.259   7.042
 2935SOL     OW25946   3.203   5.191   5.530
 2935SOL    HW125947   3.255   5.270   5.542
 2935SOL    HW225948   3.130   5.218   5.473
 2936SOL     OW25949   0.523   2.579   7.039
 2936SOL    HW125950   0.546   2.626   6.959
 2936SOL    HW225951   0.502   2.490   7.010
 2937SOL     OW25952   0.238   4.563   6.540
 2937SOL    HW125953   0.152   4.588   6.574
 2937SOL    HW225954   0.242   4.468   6.553
 2938SOL     OW25955   6.123   1.243   1.813
 2938SOL    HW125956   6.110   1.156   1.775
 2938SOL    HW225957   6.216   1.246   1.835
 2939SOL     OW25958   6.376   0.863   6.479
 2939SOL    HW125959   6.311   0.822   6.422
 2939SOL    HW225960   6.323   0.908   6.545
 2940SOL     OW25961   3.820   4.363   0.282
 2940SOL    HW125962   3.857   4.409   0.207
 2940SOL    HW225963   3.750   4.421   0.313
 2941SOL     OW25964   1.779   5.614   6.399
 2941SOL    HW125965   1.724   5.687   6.426
 2941SOL    HW225966   1.729   5.569   6.331
 2942SOL     OW25967   5.607   1.068   6.655
 2942SOL    HW125968   5.604   1.031   6.567
 2942SOL    HW225969   5.518   1.099   6.671
 2943SOL     OW25970   4.695   1.883   0.335
 2943SOL    HW125971   4.778   1.842   0.359
 2943SOL    HW225972   4.640   1.810   0.305
 2944SOL     OW25973   2.654   0.331   6.896
 2944SOL    HW125974   2.683   0.261   6.837
 2944SOL    HW225975   2.633   0.404   6.838
 2945SOL     OW25976   3.669   0.738   0.341
 2945SOL    HW125977   3.630   0.651   0.354
 2945SOL    HW225978   3.627   0.772   0.262
 2946SOL     OW25979   5.544   1.469   0.629
 2946SOL    HW125980   5.450   1.484   0.641
 2946SOL    HW225981   5.563   1.392   0.684
 2947SOL     OW25982   4.843   5.012   5.142
 2947SOL    HW125983   4.863   5.103   5.162
 2947SOL    HW225984   4.794   5.015   5.060
 2948SOL     OW25985   0.915   5.096   2.320
 2948SOL    HW125986   0.909   5.088   2.225
 2948SOL    HW225987   1.003   5.130   2.336
 2949SOL     OW25988   5.828   5.448   7.202
 2949SOL    HW125989   5.878   5.523   7.235
 2949SOL    HW225990   5.895   5.381   7.186
 2950SOL     OW25991   2.631   5.925   0.231
 2950SOL    HW125992   2.633   5.942   0.325
 2950SOL    HW225993   2.540   5.943   0.206
 2951SOL     OW25994   0.147   1.754   2.171
 2951SOL    HW125995   0.191   1.718   2.094
 2951SOL    HW225996   0.149   1.682   2.235
 2952SOL     OW25997   4.673   4.145   7.622
 2952SOL    HW125998   4.706   4.182   7.539
 2952SOL    HW225999   4.694   4.212   7.687
 2953SOL     OW26000   0.107   0.571   1.230
 2953SOL    HW126001   0.076   0.574   1.321
 2953SOL    HW226002   0.178   0.635   1.227
 2954SOL     OW26003   1.257   5.411   2.411
 2954SOL    HW126004   1.345   5.448   2.423
 2954SOL    HW226005   1.233   5.434   2.321
 2955SOL     OW26006   2.122   0.633   6.065
 2955SOL    HW126007   2.154   0.562   6.010
 2955SOL    HW226008   2.103   0.592   6.149
 2956SOL     OW26009   6.455   5.250   0.601
 2956SOL    HW126010   0.039   5.306   0.632
 2956SOL    HW226011   6.379   5.308   0.594
 2957SOL     OW26012   0.541   2.015   6.849
 2957SOL    HW126013   0.576   1.927   6.860
 2957SOL    HW226014   0.491   2.031   6.929
 2958SOL     OW26015   6.225   6.373   0.239
 2958SOL    HW126016   6.229   6.335   0.152
 2958SOL    HW226017   6.257   6.463   0.228
 2959SOL     OW26018   5.308   3.848   6.087
 2959SOL    HW126019   5.265   3.933   6.076
 2959SOL    HW226020   5.239   3.784   6.071
 2960SOL     OW26021   2.616   4.878   5.665
 2960SOL    HW126022   2.526   4.881   5.632
 2960SOL    HW226023   2.655   4.961   5.636
 2961SOL     OW26024   2.150   2.180   7.351
 2961SOL    HW126025   2.231   2.161   7.303
 2961SOL    HW226026   2.165   2.146   7.439
 2962SOL     OW26027   2.892   2.784   0.719
 2962SOL    HW126028   2.861   2.817   0.803
 2962SOL    HW226029   2.868   2.852   0.656
 2963SOL     OW26030   3.215   2.091   1.134
 2963SOL    HW126031   3.208   2.149   1.058
 2963SOL    HW226032   3.238   2.006   1.098
 2964SOL     OW26033   4.923   0.303   6.098
 2964SOL    HW126034   4.953   0.362   6.167
 2964SOL    HW226035   4.848   0.348   6.059
 2965SOL     OW26036   5.326   3.608   6.676
 2965SOL    HW126037   5.396   3.648   6.727
 2965SOL    HW226038   5.276   3.557   6.740
 2966SOL     OW26039   4.069   2.440   6.525
 2966SOL    HW126040   4.019   2.506   6.574
 2966SOL    HW226041   4.008   2.367   6.515
 2967SOL     OW26042   5.667   6.024   6.760
 2967SOL    HW126043   5.677   6.119   6.761
 2967SOL    HW226044   5.646   6.001   6.850
 2968SOL     OW26045   2.888   0.642   0.039
 2968SOL    HW126046   2.969   0.689   0.020
 2968SOL    HW226047   2.852   0.685   0.117
 2969SOL     OW26048   5.244   4.066   1.872
 2969SOL    HW126049   5.256   3.999   1.805
 2969SOL    HW226050   5.289   4.031   1.949
 2970SOL     OW26051   5.356   1.881   1.194
 2970SOL    HW126052   5.379   1.972   1.213
 2970SOL    HW226053   5.438   1.841   1.165
 2971SOL     OW26054   1.336   3.061   6.806
 2971SOL    HW126055   1.320   3.111   6.726
 2971SOL    HW226056   1.279   2.984   6.798
 2972SOL     OW26057   5.889   5.726   2.242
 2972SOL    HW126058   5.808   5.735   2.192
 2972SOL    HW226059   5.868   5.759   2.329
 2973SOL     OW26060   2.618   0.024   6.998
 2973SOL    HW126061   2.654   0.043   6.911
 2973SOL    HW226062   2.690   6.470   7.046
 2974SOL     OW26063   1.587   1.338   7.484
 2974SOL    HW126064   1.592   1.310   7.393
 2974SOL    HW226065   1.514   1.289   7.520
 2975SOL     OW26066   4.688   0.798   7.724
 2975SOL    HW126067   4.655   0.708   7.714
 2975SOL    HW226068   4.664   0.841   7.642
 2976SOL     OW26069   4.721   4.199   5.343
 2976SOL    HW126070   4.640   4.246   5.367
 2976SOL    HW226071   4.750   4.241   5.263
 2977SOL     OW26072   5.460   6.026   7.155
 2977SOL    HW126073   5.426   5.954   7.102
 2977SOL    HW226074   5.406   6.101   7.132
 2978SOL     OW26075   5.604   3.074   0.143
 2978SOL    HW126076   5.668   3.119   0.088
 2978SOL    HW226077   5.590   3.134   0.217
 2979SOL     OW26078   4.409   0.130   7.089
 2979SOL    HW126079   4.456   0.161   7.012
 2979SOL    HW226080   4.324   0.100   7.055
 2980SOL     OW26081   2.456   5.478   7.195
 2980SOL    HW126082   2.439   5.452   7.286
 2980SOL    HW226083   2.494   5.400   7.154
 2981SOL     OW26084   4.370   4.700   0.039
 2981SOL    HW126085   4.394   4.792   0.051
 2981SOL    HW226086   4.334   4.673   0.123
 2982SOL     OW26087   2.118   5.330   6.386
 2982SOL    HW126088   2.027   5.355   6.401
 2982SOL    HW226089   2.112   5.242   6.348
 2983SOL     OW26090   3.576   0.928   2.342
 2983SOL    HW126091   3.669   0.936   2.365
 2983SOL    HW226092   3.550   1.017   2.316
 2984SOL     OW26093   2.644   2.649   0.251
 2984SOL    HW126094   2.738   2.644   0.271
 2984SOL    HW226095   2.602   2.604   0.325
 2985SOL     OW26096   3.450   0.344   6.723
 2985SOL    HW126097   3.517   0.279   6.743
 2985SOL    HW226098   3.491   0.402   6.659
 2986SOL     OW26099   2.654   5.157   0.164
 2986SOL    HW126100   2.653   5.129   0.073
 2986SOL    HW226101   2.698   5.242   0.163
 2987SOL     OW26102   0.912   0.464   7.384
 2987SOL    HW126103   0.845   0.399   7.407
 2987SOL    HW226104   0.978   0.454   7.452
 2988SOL     OW26105   0.944   0.996   6.584
 2988SOL    HW126106   1.006   1.009   6.513
 2988SOL    HW226107   0.956   1.072   6.641
 2989SOL     OW26108   1.732   5.078   0.077
 2989SOL    HW126109   1.668   5.126   0.024
 2989SOL    HW226110   1.698   5.084   0.166
 2990SOL     OW26111   3.427   2.174   7.223
 2990SOL    HW126112   3.437   2.263   7.189
 2990SOL    HW226113   3.388   2.125   7.150
 2991SOL     OW26114   2.982   5.920   0.473
 2991SOL    HW126115   3.053   5.981   0.452
 2991SOL    HW226116   2.936   5.963   0.545
 2992SOL     OW26117   3.583   2.929   5.613
 2992SOL    HW126118   3.520   3.001   5.612
 2992SOL    HW226119   3.646   2.952   5.681
 2993SOL     OW26120   5.376   1.424   1.025
 2993SOL    HW126121   5.459   1.423   1.072
 2993SOL    HW226122   5.312   1.453   1.089
 2994SOL     OW26123   1.570   6.135   1.827
 2994SOL    HW126124   1.662   6.109   1.826
 2994SOL    HW226125   1.572   6.227   1.854
 2995SOL     OW26126   3.083   1.669   1.373
 2995SOL    HW126127   3.113   1.759   1.363
 2995SOL    HW226128   3.040   1.668   1.459
 2996SOL     OW26129   2.040   6.450   1.895
 2996SOL    HW126130   2.078   6.397   1.825
 2996SOL    HW226131   1.945   6.436   1.888
 2997SOL     OW26132   6.192   3.045   7.057
 2997SOL    HW126133   6.243   2.986   7.113
 2997SOL    HW226134   6.104   3.042   7.093
 2998SOL     OW26135   2.054   5.239   0.604
 2998SOL    HW126136   2.060   5.148   0.575
 2998SOL    HW226137   1.975   5.272   0.562
 2999SOL     OW26138   5.472   1.595   1.447
 2999SOL    HW126139   5.549   1.543   1.470
 2999SOL    HW226140   5.492   1.633   1.361
 3000SOL     OW26141   0.967   3.269   0.620
 3000SOL    HW126142   1.030   3.341   0.625
 3000SOL    HW226143   0.910   3.292   0.547
 3001SOL     OW26144   4.199   0.362   1.684
 3001SOL    HW126145   4.156   0.290   1.730
 3001SOL    HW226146   4.274   0.385   1.739
 3002SOL     OW26147   4.363   2.661   7.602
 3002SOL    HW126148   4.374   2.572   7.636
 3002SOL    HW226149   4.298   2.701   7.659
 3003SOL     OW26150   3.106   1.929   7.671
 3003SOL    HW126151   3.034   1.898   7.615
 3003SOL    HW226152   3.184   1.917   7.617
 3004SOL     OW26153   2.324   4.591   1.052
 3004SOL    HW126154   2.246   4.554   1.094
 3004SOL    HW226155   2.386   4.604   1.124
 3005SOL     OW26156   5.451   3.205   0.924
 3005SOL    HW126157   5.492   3.118   0.924
 3005SOL    HW226158   5.433   3.223   1.017
 3006SOL     OW26159   1.663   0.246   7.523
 3006SOL    HW126160   1.598   0.176   7.518
 3006SOL    HW226161   1.710   0.241   7.439
 3007SOL     OW26162   0.345   5.845   1.642
 3007SOL    HW126163   0.280   5.783   1.610
 3007SOL    HW226164   0.419   5.835   1.582
 3008SOL     OW26165   0.050   1.241   5.701
 3008SOL    HW126166   0.014   1.318   5.745
 3008SOL    HW226167   0.083   1.187   5.772
 3009SOL     OW26168   6.297   6.255   7.484
 3009SOL    HW126169   6.307   6.320   7.553
 3009SOL    HW226170   6.226   6.199   7.514
 3010SOL     OW26171   6.440   2.072   7.469
 3010SOL    HW126172   6.424   2.141   7.534
 3010SOL    HW226173   0.033   2.028   7.500
 3011SOL     OW26174   1.438   4.970   6.926
 3011SOL    HW126175   1.419   5.062   6.908
 3011SOL    HW226176   1.366   4.922   6.885
 3012SOL     OW26177   3.059   1.276   6.935
 3012SOL    HW126178   3.152   1.290   6.918
 3012SOL    HW226179   3.027   1.362   6.963
 3013SOL     OW26180   0.263   5.777   6.344
 3013SOL    HW126181   0.289   5.807   6.431
 3013SOL    HW226182   0.226   5.854   6.302
 3014SOL     OW26183   2.262   0.754   0.982
 3014SOL    HW126184   2.314   0.825   0.943
 3014SOL    HW226185   2.277   0.679   0.925
 3015SOL     OW26186   2.629   4.516   0.648
 3015SOL    HW126187   2.622   4.512   0.743
 3015SOL    HW226188   2.618   4.426   0.619
 3016SOL     OW26189   3.323   4.695   1.349
 3016SOL    HW126190   3.341   4.788   1.336
 3016SOL    HW226191   3.318   4.659   1.260
 3017SOL     OW26192   3.941   6.289   5.220
 3017SOL    HW126193   3.979   6.264   5.135
 3017SOL    HW226194   3.973   6.222   5.281
 3018SOL     OW26195   0.008   3.600   1.898
 3018SOL    HW126196   6.476   3.565   1.985
 3018SOL    HW226197   0.053   3.683   1.915
 3019SOL     OW26198   2.661   6.014   0.502
 3019SOL    HW126199   2.696   5.927   0.523
 3019SOL    HW226200   2.645   6.055   0.587
 3020SOL     OW26201   1.932   1.494   6.877
 3020SOL    HW126202   1.934   1.589   6.889
 3020SOL    HW226203   1.899   1.481   6.789
 3021SOL     OW26204   2.048   1.762   6.666
 3021SOL    HW126205   2.024   1.841   6.715
 3021SOL    HW226206   2.137   1.743   6.694
 3022SOL     OW26207   6.206   4.471   5.702
 3022SOL    HW126208   6.297   4.442   5.688
 3022SOL    HW226209   6.194   4.543   5.640
 3023SOL     OW26210   3.379   3.756   1.006
 3023SOL    HW126211   3.298   3.803   0.988
 3023SOL    HW226212   3.362   3.667   0.977
 3024SOL     OW26213   4.202   0.649   7.164
 3024SOL    HW126214   4.269   0.601   7.212
 3024SOL    HW226215   4.244   0.671   7.081
 3025SOL     OW26216   4.247   1.863   1.754
 3025SOL    HW126217   4.263   1.810   1.832
 3025SOL    HW226218   4.240   1.800   1.682
 3026SOL     OW26219   0.343   1.249   6.327
 3026SOL    HW126220   0.322   1.162   6.360
 3026SOL    HW226221   0.423   1.274   6.374
 3027SOL     OW26222   5.930   0.791   6.070
 3027SOL    HW126223   5.908   0.789   5.977
 3027SOL    HW226224   6.025   0.795   6.072
 3028SOL     OW26225   2.655   5.333   4.798
 3028SOL    HW126226   2.686   5.242   4.792
 3028SOL    HW226227   2.605   5.336   4.880
 3029SOL     OW26228   6.468   6.291   6.353
 3029SOL    HW126229   0.037   6.250   6.286
 3029SOL    HW226230   6.447   6.221   6.413
 3030SOL     OW26231   1.302   4.076   2.493
 3030SOL    HW126232   1.271   3.988   2.514
 3030SOL    HW226233   1.389   4.080   2.533
 3031SOL     OW26234   3.360   2.047   1.349
 3031SOL    HW126235   3.379   1.955   1.328
 3031SOL    HW226236   3.298   2.075   1.281
 3032SOL     OW26237   3.995   4.364   1.219
 3032SOL    HW126238   4.077   4.368   1.170
 3032SOL    HW226239   4.007   4.425   1.291
 3033SOL     OW26240   5.054   1.642   1.494
 3033SOL    HW126241   5.118   1.653   1.425
 3033SOL    HW226242   5.091   1.689   1.569
 3034SOL     OW26243   5.210   4.722   0.435
 3034SOL    HW126244   5.281   4.717   0.371
 3034SOL    HW226245   5.239   4.666   0.507
 3035SOL     OW26246   6.226   3.514   1.046
 3035SOL    HW126247   6.139   3.527   1.083
 3035SOL    HW226248   6.285   3.558   1.107
 3036SOL     OW26249   5.658   5.877   1.431
 3036SOL    HW126250   5.745   5.903   1.462
 3036SOL    HW226251   5.623   5.956   1.390
 3037SOL     OW26252   4.228   3.678   2.046
 3037SOL    HW126253   4.147   3.665   2.096
 3037SOL    HW226254   4.275   3.745   2.095
 3038SOL     OW26255   4.593   4.384   0.127
 3038SOL    HW126256   4.600   4.407   0.220
 3038SOL    HW226257   4.504   4.350   0.117
 3039SOL     OW26258   5.023   0.982   2.108
 3039SOL    HW126259   4.964   0.918   2.068
 3039SOL    HW226260   5.111   0.952   2.083
 3040SOL     OW26261   2.740   2.086   2.145
 3040SOL    HW126262   2.830   2.116   2.132
 3040SOL    HW226263   2.747   1.991   2.152
 3041SOL     OW26264   4.172   1.165   0.435
 3041SOL    HW126265   4.116   1.236   0.401
 3041SOL    HW226266   4.185   1.107   0.360
 3042SOL     OW26267   3.063   2.781   1.852
 3042SOL    HW126268   3.036   2.734   1.931
 3042SOL    HW226269   3.094   2.865   1.883
 3043SOL     OW26270   3.722   5.450   1.041
 3043SOL    HW126271   3.696   5.502   0.965
 3043SOL    HW226272   3.793   5.394   1.009
 3044SOL     OW26273   5.329   3.570   5.764
 3044SOL    HW126274   5.272   3.579   5.840
 3044SOL    HW226275   5.399   3.512   5.795
 3045SOL     OW26276   3.417   4.046   0.389
 3045SOL    HW126277   3.435   3.952   0.396
 3045SOL    HW226278   3.504   4.086   0.384
 3046SOL     OW26279   3.629   0.377   5.676
 3046SOL    HW126280   3.549   0.350   5.720
 3046SOL    HW226281   3.665   0.447   5.731
 3047SOL     OW26282   5.261   1.962   7.357
 3047SOL    HW126283   5.291   1.902   7.289
 3047SOL    HW226284   5.228   1.905   7.426
 3048SOL     OW26285   4.605   3.746   0.776
 3048SOL    HW126286   4.697   3.724   0.761
 3048SOL    HW226287   4.589   3.717   0.866
 3049SOL     OW26288   1.304   5.338   1.297
 3049SOL    HW126289   1.359   5.263   1.318
 3049SOL    HW226290   1.341   5.410   1.348
 3050SOL     OW26291   2.007   3.671   0.569
 3050SOL    HW126292   2.100   3.654   0.551
 3050SOL    HW226293   1.996   3.764   0.548
 3051SOL     OW26294   3.983   2.596   0.302
 3051SOL    HW126295   4.028   2.528   0.252
 3051SOL    HW226296   3.943   2.550   0.375
 3052SOL     OW26297   1.327   1.190   0.629
 3052SOL    HW126298   1.305   1.098   0.618
 3052SOL    HW226299   1.313   1.207   0.722
 3053SOL     OW26300   2.861   5.754   6.648
 3053SOL    HW126301   2.904   5.817   6.706
 3053SOL    HW226302   2.777   5.736   6.691
 3054SOL     OW26303   5.432   2.524   0.119
 3054SOL    HW126304   5.425   2.521   0.024
 3054SOL    HW226305   5.439   2.617   0.139
 3055SOL     OW26306   1.729   2.203   0.561
 3055SOL    HW126307   1.821   2.180   0.578
 3055SOL    HW226308   1.726   2.298   0.575
 3056SOL     OW26309   1.990   0.945   1.187
 3056SOL    HW126310   1.972   1.015   1.249
 3056SOL    HW226311   2.061   0.979   1.132
 3057SOL     OW26312   6.466   1.007   7.383
 3057SOL    HW126313   0.057   1.009   7.439
 3057SOL    HW226314   6.407   1.072   7.421
 3058SOL     OW26315   1.950   3.954   5.989
 3058SOL    HW126316   1.988   3.915   6.067
 3058SOL    HW226317   2.025   3.969   5.931
 3059SOL     OW26318   2.830   3.290   7.054
 3059SOL    HW126319   2.806   3.253   6.970
 3059SOL    HW226320   2.870   3.375   7.033
 3060SOL     OW26321   2.432   1.375   1.380
 3060SOL    HW126322   2.360   1.372   1.318
 3060SOL    HW226323   2.389   1.375   1.466
 3061SOL     OW26324   4.331   0.607   0.985
 3061SOL    HW126325   4.328   0.668   0.912
 3061SOL    HW226326   4.405   0.550   0.966
 3062SOL     OW26327   6.423   5.634   6.467
 3062SOL    HW126328   0.026   5.618   6.498
 3062SOL    HW226329   6.420   5.592   6.381
 3063SOL     OW26330   3.182   4.618   7.278
 3063SOL    HW126331   3.242   4.590   7.347
 3063SOL    HW226332   3.227   4.597   7.197
 3064SOL     OW26333   5.976   4.142   0.273
 3064SOL    HW126334   5.937   4.165   0.357
 3064SOL    HW226335   6.070   4.139   0.290
 3065SOL     OW26336   4.493   2.591   1.334
 3065SOL    HW126337   4.514   2.652   1.263
 3065SOL    HW226338   4.472   2.646   1.409
 3066SOL     OW26339   1.600   1.571   6.494
 3066SOL    HW126340   1.533   1.516   6.453
 3066SOL    HW226341   1.592   1.655   6.450
 3067SOL     OW26342   2.106   3.202   1.527
 3067SOL    HW126343   2.197   3.227   1.539
 3067SOL    HW226344   2.097   3.187   1.433
 3068SOL     OW26345   1.595   2.281   1.180
 3068SOL    HW126346   1.662   2.272   1.248
 3068SOL    HW226347   1.625   2.225   1.109
 3069SOL     OW26348   2.966   1.930   2.351
 3069SOL    HW126349   2.971   1.992   2.279
 3069SOL    HW226350   2.905   1.970   2.413
 3070SOL     OW26351   1.722   3.157   1.070
 3070SOL    HW126352   1.684   3.216   1.135
 3070SOL    HW226353   1.784   3.103   1.119
 3071SOL     OW26354   0.224   4.183   7.696
 3071SOL    HW126355   0.155   4.245   7.722
 3071SOL    HW226356   0.253   4.216   7.610
 3072SOL     OW26357   6.432   0.029   5.971
 3072SOL    HW126358   0.032   6.474   5.960
 3072SOL    HW226359   6.448   0.122   5.951
 3073SOL     OW26360   4.392   3.790   0.593
 3073SOL    HW126361   4.335   3.714   0.579
 3073SOL    HW226362   4.467   3.754   0.641
 3074SOL     OW26363   0.626   1.000   6.083
 3074SOL    HW126364   0.633   0.928   6.146
 3074SOL    HW226365   0.660   0.964   6.001
 3075SOL     OW26366   5.920   4.031   0.033
 3075SOL    HW126367   5.924   4.077   0.116
 3075SOL    HW226368   5.837   3.982   0.037
 3076SOL     OW26369   0.264   3.774   0.593
 3076SOL    HW126370   0.294   3.826   0.519
 3076SOL    HW226371   0.232   3.693   0.553
 3077SOL     OW26372   4.002   3.508   7.199
 3077SOL    HW126373   4.045   3.423   7.188
 3077SOL    HW226374   4.029   3.537   7.286
 3078SOL     OW26375   5.128   1.384   2.597
 3078SOL    HW126376   5.223   1.391   2.607
 3078SOL    HW226377   5.105   1.298   2.633
 3079SOL     OW26378   1.520   3.567   0.484
 3079SOL    HW126379   1.591   3.611   0.531
 3079SOL    HW226380   1.471   3.639   0.443
 3080SOL     OW26381   1.452   3.181   1.812
 3080SOL    HW126382   1.369   3.143   1.780
 3080SOL    HW226383   1.519   3.140   1.757
 3081SOL     OW26384   3.822   2.862   1.635
 3081SOL    HW126385   3.854   2.886   1.723
 3081SOL    HW226386   3.860   2.776   1.619
 3082SOL     OW26387   5.577   5.140   1.110
 3082SOL    HW126388   5.641   5.140   1.181
 3082SOL    HW226389   5.510   5.078   1.139
 3083SOL     OW26390   4.880   5.271   5.176
 3083SOL    HW126391   4.835   5.311   5.102
 3083SOL    HW226392   4.839   5.310   5.253
 3084SOL     OW26393   0.740   2.730   0.290
 3084SOL    HW126394   0.741   2.821   0.318
 3084SOL    HW226395   0.692   2.731   0.207
 3085SOL     OW26396   0.204   0.254   7.234
 3085SOL    HW126397   0.270   0.269   7.302
 3085SOL    HW226398   0.129   0.306   7.262
 3086SOL     OW26399   2.830   1.978   7.560
 3086SOL    HW126400   2.775   1.910   7.598
 3086SOL    HW226401   2.808   2.057   7.609
 3087SOL     OW26402   5.523   1.655   0.272
 3087SOL    HW126403   5.440   1.645   0.225
 3087SOL    HW226404   5.567   1.570   0.261
 3088SOL     OW26405   6.484   1.695   5.990
 3088SOL    HW126406   0.091   1.715   5.996
 3088SOL    HW226407   6.441   1.781   5.987
 3089SOL     OW26408   4.039   1.658   1.952
 3089SOL    HW126409   3.998   1.676   2.037
 3089SOL    HW226410   4.129   1.690   1.962
 3090SOL     OW26411   1.056   0.565   1.449
 3090SOL    HW126412   1.065   0.660   1.463
 3090SOL    HW226413   0.994   0.558   1.376
 3091SOL     OW26414   1.211   3.702   7.745
 3091SOL    HW126415   1.282   3.723   7.684
 3091SOL    HW226416   1.223   3.610   7.766
 3092SOL     OW26417   3.615   2.068   2.721
 3092SOL    HW126418   3.653   2.095   2.637
 3092SOL    HW226419   3.675   2.001   2.754
 3093SOL     OW26420   1.150   5.546   1.240
 3093SOL    HW126421   1.152   5.455   1.211
 3093SOL    HW226422   1.220   5.552   1.305
 3094SOL     OW26423   1.470   2.014   7.510
 3094SOL    HW126424   1.526   1.957   7.563
 3094SOL    HW226425   1.521   2.031   7.431
 3095SOL     OW26426   1.676   5.901   0.808
 3095SOL    HW126427   1.765   5.935   0.809
 3095SOL    HW226428   1.648   5.901   0.900
 3096SOL     OW26429   5.332   3.155   6.791
 3096SOL    HW126430   5.358   3.194   6.708
 3096SOL    HW226431   5.321   3.062   6.772
 3097SOL     OW26432   5.860   1.399   6.929
 3097SOL    HW126433   5.950   1.395   6.895
 3097SOL    HW226434   5.853   1.487   6.966
 3098SOL     OW26435   4.450   1.449   6.280
 3098SOL    HW126436   4.476   1.461   6.189
 3098SOL    HW226437   4.515   1.388   6.316
 3099SOL     OW26438   1.917   3.365   7.414
 3099SOL    HW126439   1.999   3.406   7.438
 3099SOL    HW226440   1.865   3.365   7.495
 3100SOL     OW26441   1.970   2.350   0.804
 3100SOL    HW126442   2.022   2.380   0.878
 3100SOL    HW226443   1.890   2.403   0.808
 3101SOL     OW26444   5.825   3.706   1.914
 3101SOL    HW126445   5.804   3.799   1.903
 3101SOL    HW226446   5.743   3.660   1.894
 3102SOL     OW26447   2.790   3.414   1.483
 3102SOL    HW126448   2.876   3.388   1.516
 3102SOL    HW226449   2.730   3.392   1.554
 3103SOL     OW26450   5.691   6.145   1.600
 3103SOL    HW126451   5.649   6.091   1.668
 3103SOL    HW226452   5.770   6.097   1.576
 3104SOL     OW26453   3.780   2.694   5.903
 3104SOL    HW126454   3.825   2.676   5.986
 3104SOL    HW226455   3.781   2.610   5.857
 3105SOL     OW26456   4.703   4.037   6.322
 3105SOL    HW126457   4.730   3.946   6.310
 3105SOL    HW226458   4.773   4.074   6.376
 3106SOL     OW26459   3.048   4.533   0.978
 3106SOL    HW126460   2.996   4.599   1.023
 3106SOL    HW226461   3.091   4.581   0.907
 3107SOL     OW26462   1.198   2.459   6.338
 3107SOL    HW126463   1.131   2.398   6.367
 3107SOL    HW226464   1.280   2.413   6.352
 3108SOL     OW26465   3.253   2.651   7.230
 3108SOL    HW126466   3.226   2.585   7.167
 3108SOL    HW226467   3.207   2.731   7.204
 3109SOL     OW26468   5.262   0.460   7.391
 3109SOL    HW126469   5.181   0.464   7.443
 3109SOL    HW226470   5.329   0.431   7.453
 3110SOL     OW26471   4.984   3.749   6.836
 3110SOL    HW126472   4.997   3.654   6.846
 3110SOL    HW226473   4.911   3.769   6.894
 3111SOL     OW26474   4.854   3.653   0.876
 3111SOL    HW126475   4.882   3.683   0.789
 3111SOL    HW226476   4.827   3.733   0.921
 3112SOL     OW26477   2.196   5.142   1.604
 3112SOL    HW126478   2.151   5.168   1.685
 3112SOL    HW226479   2.191   5.046   1.604
 3113SOL     OW26480   4.329   3.182   6.417
 3113SOL    HW126481   4.326   3.174   6.321
 3113SOL    HW226482   4.400   3.123   6.443
 3114SOL     OW26483   3.642   5.605   0.813
 3114SOL    HW126484   3.705   5.674   0.794
 3114SOL    HW226485   3.591   5.597   0.732
 3115SOL     OW26486   6.256   2.958   5.658
 3115SOL    HW126487   6.273   2.916   5.742
 3115SOL    HW226488   6.258   2.886   5.595
 3116SOL     OW26489   2.675   1.227   7.458
 3116SOL    HW126490   2.658   1.190   7.545
 3116SOL    HW226491   2.634   1.164   7.398
 3117SOL     OW26492   6.298   0.510   1.205
 3117SOL    HW126493   6.392   0.501   1.225
 3117SOL    HW226494   6.257   0.519   1.291
 3118SOL     OW26495   1.509   2.262   2.030
 3118SOL    HW126496   1.485   2.183   1.982
 3118SOL    HW226497   1.596   2.242   2.066
 3119SOL     OW26498   2.521   4.976   6.702
 3119SOL    HW126499   2.444   5.020   6.736
 3119SOL    HW226500   2.582   5.047   6.679
 3120SOL     OW26501   2.564   0.486   7.700
 3120SOL    HW126502   2.633   0.497   7.634
 3120SOL    HW226503   2.550   0.574   7.734
 3121SOL     OW26504   3.493   3.989   4.916
 3121SOL    HW126505   3.413   4.033   4.889
 3121SOL    HW226506   3.563   4.052   4.898
 3122SOL     OW26507   4.774   5.877   2.313
 3122SOL    HW126508   4.819   5.826   2.380
 3122SOL    HW226509   4.770   5.819   2.237
 3123SOL     OW26510   0.866   3.957   6.812
 3123SOL    HW126511   0.776   3.987   6.824
 3123SOL    HW226512   0.858   3.864   6.794
 3124SOL     OW26513   3.401   1.595   0.952
 3124SOL    HW126514   3.319   1.642   0.961
 3124SOL    HW226515   3.386   1.532   0.881
 3125SOL     OW26516   1.982   0.827   0.703
 3125SOL    HW126517   1.973   0.800   0.612
 3125SOL    HW226518   2.061   0.881   0.705
 3126SOL     OW26519   1.069   3.829   1.449
 3126SOL    HW126520   1.162   3.817   1.467
 3126SOL    HW226521   1.028   3.750   1.483
 3127SOL     OW26522   1.722   3.812   0.301
 3127SOL    HW126523   1.723   3.874   0.229
 3127SOL    HW226524   1.753   3.862   0.376
 3128SOL     OW26525   3.555   5.629   6.327
 3128SOL    HW126526   3.572   5.570   6.400
 3128SOL    HW226527   3.576   5.577   6.249
 3129SOL     OW26528   2.915   3.996   7.387
 3129SOL    HW126529   2.822   4.011   7.401
 3129SOL    HW226530   2.926   3.901   7.392
 3130SOL     OW26531   6.099   2.470   2.250
 3130SOL    HW126532   6.186   2.498   2.276
 3130SOL    HW226533   6.052   2.551   2.232
 3131SOL     OW26534   4.857   1.386   6.718
 3131SOL    HW126535   4.922   1.351   6.658
 3131SOL    HW226536   4.839   1.314   6.779
 3132SOL     OW26537   2.955   1.968   6.531
 3132SOL    HW126538   2.873   1.942   6.488
 3132SOL    HW226539   2.937   2.055   6.566
 3133SOL     OW26540   3.990   1.241   7.174
 3133SOL    HW126541   3.995   1.182   7.248
 3133SOL    HW226542   4.050   1.204   7.109
 3134SOL     OW26543   1.274   0.272   7.688
 3134SOL    HW126544   1.320   0.294   7.607
 3134SOL    HW226545   1.221   0.349   7.706
 3135SOL     OW26546   3.818   5.776   7.547
 3135SOL    HW126547   3.878   5.712   7.507
 3135SOL    HW226548   3.848   5.861   7.515
 3136SOL     OW26549   1.389   2.394   7.327
 3136SOL    HW126550   1.381   2.489   7.324
 3136SOL    HW226551   1.418   2.376   7.417
 3137SOL     OW26552   1.875   1.170   6.945
 3137SOL    HW126553   1.857   1.226   7.021
 3137SOL    HW226554   1.919   1.093   6.983
 3138SOL     OW26555   5.324   4.607   6.030
 3138SOL    HW126556   5.250   4.651   5.987
 3138SOL    HW226557   5.390   4.599   5.962
 3139SOL     OW26558   3.064   5.440   0.895
 3139SOL    HW126559   3.018   5.451   0.812
 3139SOL    HW226560   3.118   5.362   0.883
 3140SOL     OW26561   2.739   0.219   6.244
 3140SOL    HW126562   2.670   0.250   6.186
 3140SOL    HW226563   2.693   0.190   6.323
 3141SOL     OW26564   3.222   3.379   0.090
 3141SOL    HW126565   3.263   3.437   0.155
 3141SOL    HW226566   3.200   3.437   0.017
 3142SOL     OW26567   4.543   3.100   6.163
 3142SOL    HW126568   4.565   3.087   6.255
 3142SOL    HW226569   4.451   3.126   6.163
 3143SOL     OW26570   2.842   2.914   6.255
 3143SOL    HW126571   2.773   2.938   6.317
 3143SOL    HW226572   2.857   2.994   6.204
 3144SOL     OW26573   0.079   2.391   6.860
 3144SOL    HW126574   0.111   2.301   6.849
 3144SOL    HW226575   6.470   2.383   6.850
 3145SOL     OW26576   3.999   0.036   6.311
 3145SOL    HW126577   3.943   6.448   6.289
 3145SOL    HW226578   4.064   0.038   6.240
 3146SOL     OW26579   0.602   3.609   0.488
 3146SOL    HW126580   0.617   3.701   0.463
 3146SOL    HW226581   0.601   3.611   0.584
 3147SOL     OW26582   2.847   1.273   0.117
 3147SOL    HW126583   2.923   1.214   0.113
 3147SOL    HW226584   2.880   1.356   0.082
 3148SOL     OW26585   5.466   4.307   2.146
 3148SOL    HW126586   5.545   4.262   2.175
 3148SOL    HW226587   5.466   4.389   2.196
 3149SOL     OW26588   2.098   0.355   0.368
 3149SOL    HW126589   2.144   0.272   0.357
 3149SOL    HW226590   2.063   0.351   0.457
 3150SOL     OW26591   4.651   2.029   1.278
 3150SOL    HW126592   4.743   2.003   1.267
 3150SOL    HW226593   4.649   2.122   1.256
 3151SOL     OW26594   0.693   6.184   2.261
 3151SOL    HW126595   0.692   6.279   2.265
 3151SOL    HW226596   0.638   6.162   2.186
 3152SOL     OW26597   4.518   2.570   0.228
 3152SOL    HW126598   4.452   2.500   0.225
 3152SOL    HW226599   4.562   2.565   0.143
 3153SOL     OW26600   4.968   5.078   7.494
 3153SOL    HW126601   5.035   5.065   7.562
 3153SOL    HW226602   4.952   4.990   7.459
 3154SOL     OW26603   1.472   1.184   6.716
 3154SOL    HW126604   1.433   1.270   6.736
 3154SOL    HW226605   1.564   1.203   6.699
 3155SOL     OW26606   5.354   1.045   1.121
 3155SOL    HW126607   5.283   1.090   1.075
 3155SOL    HW226608   5.337   1.061   1.214
 3156SOL     OW26609   4.949   4.736   6.831
 3156SOL    HW126610   5.044   4.747   6.827
 3156SOL    HW226611   4.916   4.821   6.860
 3157SOL     OW26612   5.679   0.181   5.623
 3157SOL    HW126613   5.732   0.165   5.545
 3157SOL    HW226614   5.662   0.275   5.622
 3158SOL     OW26615   4.403   1.221   1.792
 3158SOL    HW126616   4.379   1.218   1.699
 3158SOL    HW226617   4.497   1.242   1.792
 3159SOL     OW26618   4.579   4.846   0.535
 3159SOL    HW126619   4.647   4.868   0.471
 3159SOL    HW226620   4.623   4.790   0.598
 3160SOL     OW26621   2.511   6.455   0.237
 3160SOL    HW126622   2.596   6.425   0.206
 3160SOL    HW226623   2.509   6.432   0.330
 3161SOL     OW26624   0.413   5.557   6.690
 3161SOL    HW126625   0.499   5.576   6.652
 3161SOL    HW226626   0.399   5.626   6.755
 3162SOL     OW26627   0.445   2.129   0.473
 3162SOL    HW126628   0.393   2.170   0.403
 3162SOL    HW226629   0.422   2.036   0.467
 3163SOL     OW26630   1.925   3.592   6.244
 3163SOL    HW126631   1.839   3.564   6.212
 3163SOL    HW226632   1.941   3.675   6.199
 3164SOL     OW26633   3.899   2.649   6.140
 3164SOL    HW126634   3.975   2.602   6.103
 3164SOL    HW226635   3.902   2.629   6.233
 3165SOL     OW26636   1.252   5.111   2.133
 3165SOL    HW126637   1.201   5.121   2.213
 3165SOL    HW226638   1.293   5.197   2.120
 3166SOL     OW26639   3.235   0.802   1.485
 3166SOL    HW126640   3.204   0.733   1.543
 3166SOL    HW226641   3.162   0.863   1.479
 3167SOL     OW26642   2.832   6.460   6.485
 3167SOL    HW126643   2.882   6.453   6.403
 3167SOL    HW226644   2.750   0.015   6.459
 3168SOL     OW26645   4.409   6.067   1.151
 3168SOL    HW126646   4.342   6.136   1.146
 3168SOL    HW226647   4.359   5.986   1.142
 3169SOL     OW26648   0.071   1.676   7.674
 3169SOL    HW126649   6.477   1.681   7.622
 3169SOL    HW226650   0.086   1.583   7.686
 3170SOL     OW26651   4.993   0.611   0.602
 3170SOL    HW126652   5.056   0.608   0.673
 3170SOL    HW226653   4.926   0.673   0.631
 3171SOL     OW26654   1.202   1.506   0.978
 3171SOL    HW126655   1.181   1.598   0.962
 3171SOL    HW226656   1.216   1.502   1.073
 3172SOL     OW26657   3.736   3.379   7.495
 3172SOL    HW126658   3.684   3.307   7.531
 3172SOL    HW226659   3.748   3.438   7.569
 3173SOL     OW26660   5.794   2.107   7.465
 3173SOL    HW126661   5.823   2.178   7.407
 3173SOL    HW226662   5.721   2.145   7.515
 3174SOL     OW26663   2.571   4.804   1.019
 3174SOL    HW126664   2.644   4.860   1.045
 3174SOL    HW226665   2.544   4.760   1.100
 3175SOL     OW26666   0.851   5.146   6.555
 3175SOL    HW126667   0.870   5.233   6.590
 3175SOL    HW226668   0.868   5.086   6.628
 3176SOL     OW26669   1.372   6.008   6.237
 3176SOL    HW126670   1.285   6.011   6.277
 3176SOL    HW226671   1.402   6.099   6.237
 3177SOL     OW26672   4.192   3.011   1.082
 3177SOL    HW126673   4.190   2.961   1.000
 3177SOL    HW226674   4.102   3.007   1.115
 3178SOL     OW26675   3.839   1.698   6.135
 3178SOL    HW126676   3.878   1.669   6.052
 3178SOL    HW226677   3.764   1.641   6.147
 3179SOL     OW26678   4.604   4.944   1.032
 3179SOL    HW126679   4.516   4.980   1.039
 3179SOL    HW226680   4.597   4.876   0.965
 3180SOL     OW26681   2.635   5.996   6.671
 3180SOL    HW126682   2.693   5.965   6.741
 3180SOL    HW226683   2.684   6.066   6.629
 3181SOL     OW26684   3.415   2.955   0.435
 3181SOL    HW126685   3.371   2.871   0.426
 3181SOL    HW226686   3.499   2.935   0.476
 3182SOL     OW26687   1.012   2.740   1.073
 3182SOL    HW126688   0.960   2.683   1.015
 3182SOL    HW226689   1.061   2.680   1.129
 3183SOL     OW26690   1.264   4.806   0.410
 3183SOL    HW126691   1.308   4.772   0.331
 3183SOL    HW226692   1.227   4.890   0.382
 3184SOL     OW26693   5.669   0.425   7.763
 3184SOL    HW126694   5.615   0.500   0.012
 3184SOL    HW226695   5.739   0.462   7.709
 3185SOL     OW26696   1.441   3.916   7.321
 3185SOL    HW126697   1.529   3.948   7.302
 3185SOL    HW226698   1.388   3.948   7.248
 3186SOL     OW26699   4.561   3.977   0.443
 3186SOL    HW126700   4.474   3.985   0.483
 3186SOL    HW226701   4.568   3.885   0.419
 3187SOL     OW26702   3.834   3.914   0.910
 3187SOL    HW126703   3.800   3.931   0.998
 3187SOL    HW226704   3.841   4.001   0.870
 3188SOL     OW26705   2.726   3.867   5.982
 3188SOL    HW126706   2.794   3.928   5.952
 3188SOL    HW226707   2.724   3.798   5.916
 3189SOL     OW26708   4.352   4.198   0.051
 3189SOL    HW126709   4.377   4.106   0.064
 3189SOL    HW226710   4.366   4.213   7.733
 3190SOL     OW26711   1.842   3.138   0.533
 3190SOL    HW126712   1.923   3.106   0.493
 3190SOL    HW226713   1.819   3.216   0.483
 3191SOL     OW26714   3.404   4.598   5.784
 3191SOL    HW126715   3.456   4.526   5.749
 3191SOL    HW226716   3.388   4.655   5.708
 3192SOL     OW26717   3.344   3.173   0.891
 3192SOL    HW126718   3.262   3.172   0.940
 3192SOL    HW226719   3.325   3.225   0.813
 3193SOL     OW26720   6.249   3.347   6.446
 3193SOL    HW126721   6.153   3.355   6.445
 3193SOL    HW226722   6.269   3.310   6.532
 3194SOL     OW26723   1.251   5.401   6.110
 3194SOL    HW126724   1.262   5.465   6.180
 3194SOL    HW226725   1.182   5.343   6.142
 3195SOL     OW26726   6.213   1.478   7.177
 3195SOL    HW126727   6.133   1.530   7.165
 3195SOL    HW226728   6.181   1.393   7.208
 3196SOL     OW26729   4.056   1.068   1.826
 3196SOL    HW126730   3.974   1.020   1.840
 3196SOL    HW226731   4.061   1.079   1.731
 3197SOL     OW26732   5.148   1.051   6.548
 3197SOL    HW126733   5.123   0.970   6.594
 3197SOL    HW226734   5.149   1.026   6.456
 3198SOL     OW26735   2.629   4.487   5.914
 3198SOL    HW126736   2.689   4.419   5.945
 3198SOL    HW226737   2.685   4.561   5.894
 3199SOL     OW26738   3.523   3.743   6.190
 3199SOL    HW126739   3.560   3.795   6.261
 3199SOL    HW226740   3.461   3.683   6.233
 3200SOL     OW26741   1.324   3.697   5.326
 3200SOL    HW126742   1.412   3.724   5.299
 3200SOL    HW226743   1.335   3.607   5.356
 3201SOL     OW26744   3.662   1.038   7.344
 3201SOL    HW126745   3.702   1.125   7.355
 3201SOL    HW226746   3.719   0.994   7.280
 3202SOL     OW26747   3.995   3.860   0.102
 3202SOL    HW126748   4.073   3.887   0.053
 3202SOL    HW226749   4.019   3.870   0.194
 3203SOL     OW26750   2.202   4.424   7.490
 3203SOL    HW126751   2.245   4.423   7.576
 3203SOL    HW226752   2.210   4.514   7.461
 3204SOL     OW26753   3.488   4.715   0.626
 3204SOL    HW126754   3.564   4.742   0.677
 3204SOL    HW226755   3.507   4.626   0.599
 3205SOL     OW26756   4.367   5.840   0.724
 3205SOL    HW126757   4.289   5.786   0.732
 3205SOL    HW226758   4.436   5.789   0.768
 3206SOL     OW26759   3.629   1.947   6.723
 3206SOL    HW126760   3.581   1.895   6.788
 3206SOL    HW226761   3.610   2.038   6.746
 3207SOL     OW26762   6.298   4.725   7.261
 3207SOL    HW126763   6.236   4.652   7.263
 3207SOL    HW226764   6.331   4.731   7.350
 3208SOL     OW26765   3.166   2.403   0.769
 3208SOL    HW126766   3.094   2.444   0.817
 3208SOL    HW226767   3.178   2.318   0.811
 3209SOL     OW26768   0.186   1.367   0.884
 3209SOL    HW126769   0.258   1.414   0.926
 3209SOL    HW226770   0.195   1.277   0.915
 3210SOL     OW26771   0.826   5.113   5.338
 3210SOL    HW126772   0.852   5.149   5.423
 3210SOL    HW226773   0.871   5.168   5.274
 3211SOL     OW26774   2.910   5.464   2.205
 3211SOL    HW126775   2.986   5.405   2.205
 3211SOL    HW226776   2.838   5.410   2.235
 3212SOL     OW26777   0.526   0.935   6.764
 3212SOL    HW126778   0.454   0.882   6.730
 3212SOL    HW226779   0.581   0.953   6.688
 3213SOL     OW26780   4.497   2.533   0.926
 3213SOL    HW126781   4.442   2.468   0.881
 3213SOL    HW226782   4.436   2.603   0.950
 3214SOL     OW26783   6.125   3.768   7.294
 3214SOL    HW126784   6.173   3.850   7.307
 3214SOL    HW226785   6.069   3.760   7.371
 3215SOL     OW26786   5.884   6.196   0.693
 3215SOL    HW126787   5.894   6.101   0.702
 3215SOL    HW226788   5.809   6.207   0.635
 3216SOL     OW26789   1.909   3.511   2.089
 3216SOL    HW126790   1.849   3.583   2.067
 3216SOL    HW226791   1.852   3.444   2.128
 3217SOL     OW26792   4.359   0.671   7.657
 3217SOL    HW126793   4.437   0.624   7.630
 3217SOL    HW226794   4.341   0.640   7.746
 3218SOL     OW26795   0.743   6.445   1.546
 3218SOL    HW126796   0.706   6.403   1.624
 3218SOL    HW226797   0.788   6.375   1.500
 3219SOL     OW26798   2.032   1.005   7.104
 3219SOL    HW126799   2.051   1.093   7.135
 3219SOL    HW226800   2.110   0.978   7.056
 3220SOL     OW26801   0.785   4.293   0.207
 3220SOL    HW126802   0.766   4.320   0.297
 3220SOL    HW226803   0.735   4.213   0.195
 3221SOL     OW26804   4.575   4.746   6.648
 3221SOL    HW126805   4.513   4.681   6.616
 3221SOL    HW226806   4.640   4.696   6.698
 3222SOL     OW26807   2.338   1.921   0.293
 3222SOL    HW126808   2.302   1.900   0.207
 3222SOL    HW226809   2.373   2.010   0.282
 3223SOL     OW26810   2.347   1.015   0.107
 3223SOL    HW126811   2.351   1.083   0.041
 3223SOL    HW226812   2.423   0.958   0.089
 3224SOL     OW26813   6.442   0.671   2.218
 3224SOL    HW126814   6.447   0.732   2.144
 3224SOL    HW226815   0.040   0.680   2.262
 3225SOL     OW26816   4.589   3.174   0.032
 3225SOL    HW126817   4.675   3.179   0.074
 3225SOL    HW226818   4.551   3.092   0.065
 3226SOL     OW26819   4.557   2.397   6.872
 3226SOL    HW126820   4.625   2.406   6.805
 3226SOL    HW226821   4.481   2.443   6.836
 3227SOL     OW26822   4.411   2.029   6.633
 3227SOL    HW126823   4.401   2.010   6.540
 3227SOL    HW226824   4.443   1.947   6.671
 3228SOL     OW26825   2.414   3.993   6.631
 3228SOL    HW126826   2.420   4.065   6.694
 3228SOL    HW226827   2.453   4.028   6.550
 3229SOL     OW26828   0.027   0.460   7.141
 3229SOL    HW126829   0.069   0.435   7.058
 3229SOL    HW226830   0.087   0.524   7.180
 3230SOL     OW26831   4.287   3.918   1.156
 3230SOL    HW126832   4.221   3.951   1.218
 3230SOL    HW226833   4.247   3.840   1.119
 3231SOL     OW26834   0.863   2.739   7.446
 3231SOL    HW126835   0.823   2.687   7.515
 3231SOL    HW226836   0.885   2.675   7.378
 3232SOL     OW26837   2.761   2.384   0.657
 3232SOL    HW126838   2.841   2.376   0.605
 3232SOL    HW226839   2.742   2.295   0.685
 3233SOL     OW26840   4.035   5.780   5.791
 3233SOL    HW126841   4.007   5.810   5.877
 3233SOL    HW226842   3.962   5.801   5.733
 3234SOL     OW26843   1.599   2.980   1.429
 3234SOL    HW126844   1.637   2.998   1.515
 3234SOL    HW226845   1.638   3.046   1.371
 3235SOL     OW26846   1.014   1.295   6.123
 3235SOL    HW126847   0.931   1.262   6.160
 3235SOL    HW226848   1.080   1.234   6.156
 3236SOL     OW26849   6.481   2.771   1.531
 3236SOL    HW126850   0.008   2.840   1.466
 3236SOL    HW226851   0.080   2.762   1.574
 3237SOL     OW26852   5.852   5.679   6.255
 3237SOL    HW126853   5.784   5.613   6.241
 3237SOL    HW226854   5.818   5.758   6.213
 3238SOL     OW26855   3.522   1.100   6.484
 3238SOL    HW126856   3.576   1.178   6.496
 3238SOL    HW226857   3.433   1.133   6.476
 3239SOL     OW26858   3.348   4.772   6.741
 3239SOL    HW126859   3.331   4.820   6.822
 3239SOL    HW226860   3.290   4.812   6.676
 3240SOL     OW26861   1.884   1.114   6.066
 3240SOL    HW126862   1.842   1.062   5.997
 3240SOL    HW226863   1.958   1.061   6.095
 3241SOL     OW26864   5.558   2.461   5.971
 3241SOL    HW126865   5.488   2.454   5.907
 3241SOL    HW226866   5.588   2.551   5.966
 3242SOL     OW26867   3.219   5.013   5.726
 3242SOL    HW126868   3.128   5.038   5.742
 3242SOL    HW226869   3.249   5.074   5.659
 3243SOL     OW26870   1.110   0.625   6.483
 3243SOL    HW126871   1.054   0.622   6.406
 3243SOL    HW226872   1.164   0.703   6.471
 3244SOL     OW26873   4.527   4.891   1.702
 3244SOL    HW126874   4.603   4.860   1.653
 3244SOL    HW226875   4.565   4.943   1.773
 3245SOL     OW26876   6.170   6.463   1.929
 3245SOL    HW126877   6.224   6.453   2.007
 3245SOL    HW226878   6.082   6.484   1.962
 3246SOL     OW26879   2.497   0.291   6.609
 3246SOL    HW126880   2.509   0.307   6.702
 3246SOL    HW226881   2.458   0.371   6.575
 3247SOL     OW26882   1.479   5.286   5.880
 3247SOL    HW126883   1.454   5.378   5.876
 3247SOL    HW226884   1.558   5.280   5.826
 3248SOL     OW26885   1.002   2.184   7.366
 3248SOL    HW126886   1.077   2.196   7.424
 3248SOL    HW226887   1.006   2.092   7.340
 3249SOL     OW26888   6.123   2.737   7.393
 3249SOL    HW126889   6.140   2.666   7.455
 3249SOL    HW226890   6.055   2.702   7.335
 3250SOL     OW26891   2.656   5.264   0.866
 3250SOL    HW126892   2.644   5.296   0.777
 3250SOL    HW226893   2.572   5.280   0.909
 3251SOL     OW26894   3.668   4.516   6.217
 3251SOL    HW126895   3.580   4.519   6.180
 3251SOL    HW226896   3.716   4.584   6.169
 3252SOL     OW26897   0.764   5.683   6.345
 3252SOL    HW126898   0.740   5.649   6.258
 3252SOL    HW226899   0.853   5.650   6.359
 3253SOL     OW26900   3.149   2.927   5.547
 3253SOL    HW126901   3.100   2.992   5.598
 3253SOL    HW226902   3.240   2.953   5.558
 3254SOL     OW26903   3.442   1.127   7.190
 3254SOL    HW126904   3.508   1.128   7.259
 3254SOL    HW226905   3.482   1.079   7.118
 3255SOL     OW26906   5.228   5.689   5.449
 3255SOL    HW126907   5.158   5.745   5.483
 3255SOL    HW226908   5.244   5.722   5.360
 3256SOL     OW26909   0.911   2.188   2.216
 3256SOL    HW126910   0.877   2.101   2.239
 3256SOL    HW226911   0.982   2.203   2.278
 3257SOL     OW26912   4.286   3.007   0.385
 3257SOL    HW126913   4.192   2.995   0.396
 3257SOL    HW226914   4.314   2.932   0.332
 3258SOL     OW26915   4.476   5.466   0.254
 3258SOL    HW126916   4.517   5.543   0.215
 3258SOL    HW226917   4.423   5.501   0.325
 3259SOL     OW26918   2.499   1.374   6.636
 3259SOL    HW126919   2.443   1.333   6.570
 3259SOL    HW226920   2.560   1.305   6.663
 3260SOL     OW26921   2.368   1.579   1.178
 3260SOL    HW126922   2.351   1.666   1.141
 3260SOL    HW226923   2.300   1.568   1.245
 3261SOL     OW26924   4.962   3.469   6.864
 3261SOL    HW126925   4.953   3.402   6.932
 3261SOL    HW226926   4.988   3.420   6.786
 3262SOL     OW26927   0.873   3.075   0.808
 3262SOL    HW126928   0.884   3.009   0.740
 3262SOL    HW226929   0.899   3.157   0.767
 3263SOL     OW26930   2.982   1.055   0.028
 3263SOL    HW126931   2.908   1.010   7.762
 3263SOL    HW226932   2.994   1.135   7.752
 3264SOL     OW26933   3.771   3.014   1.412
 3264SOL    HW126934   3.749   3.104   1.435
 3264SOL    HW226935   3.808   2.977   1.492
 3265SOL     OW26936   0.648   5.528   6.962
 3265SOL    HW126937   0.582   5.591   6.988
 3265SOL    HW226938   0.686   5.497   7.045
 3266SOL     OW26939   5.496   5.551   7.427
 3266SOL    HW126940   5.423   5.551   7.489
 3266SOL    HW226941   5.561   5.610   7.466
 3267SOL     OW26942   2.824   3.059   1.070
 3267SOL    HW126943   2.825   2.968   1.040
 3267SOL    HW226944   2.828   3.053   1.166
 3268SOL     OW26945   3.675   3.973   5.251
 3268SOL    HW126946   3.684   3.974   5.346
 3268SOL    HW226947   3.764   3.970   5.218
 3269SOL     OW26948   6.255   4.468   0.242
 3269SOL    HW126949   6.219   4.499   0.325
 3269SOL    HW226950   6.349   4.481   0.251
 3270SOL     OW26951   2.860   4.217   7.093
 3270SOL    HW126952   2.887   4.125   7.091
 3270SOL    HW226953   2.773   4.216   7.133
 3271SOL     OW26954   6.197   5.958   1.152
 3271SOL    HW126955   6.167   5.868   1.141
 3271SOL    HW226956   6.211   5.967   1.246
 3272SOL     OW26957   6.420   0.604   7.453
 3272SOL    HW126958   6.378   0.657   7.521
 3272SOL    HW226959   0.027   0.605   7.476
 3273SOL     OW26960   4.500   6.166   2.076
 3273SOL    HW126961   4.456   6.143   1.994
 3273SOL    HW226962   4.503   6.084   2.125
 3274SOL     OW26963   3.573   1.748   0.036
 3274SOL    HW126964   3.557   1.747   0.130
 3274SOL    HW226965   3.592   1.839   0.015
 3275SOL     OW26966   0.926   4.979   7.549
 3275SOL    HW126967   0.966   4.940   7.471
 3275SOL    HW226968   0.840   5.008   7.520
 3276SOL     OW26969   3.423   4.003   5.194
 3276SOL    HW126970   3.513   4.004   5.228
 3276SOL    HW226971   3.434   3.990   5.100
 3277SOL     OW26972   1.444   3.892   6.541
 3277SOL    HW126973   1.511   3.826   6.560
 3277SOL    HW226974   1.374   3.875   6.604
 3278SOL     OW26975   4.146   4.006   5.384
 3278SOL    HW126976   4.208   4.078   5.381
 3278SOL    HW226977   4.199   3.930   5.411
 3279SOL     OW26978   3.945   6.087   6.525
 3279SOL    HW126979   4.018   6.078   6.464
 3279SOL    HW226980   3.958   6.016   6.588
 3280SOL     OW26981   5.241   1.517   1.238
 3280SOL    HW126982   5.168   1.470   1.278
 3280SOL    HW226983   5.204   1.600   1.210
 3281SOL     OW26984   5.506   1.263   1.415
 3281SOL    HW126985   5.598   1.267   1.441
 3281SOL    HW226986   5.503   1.308   1.330
 3282SOL     OW26987   0.837   2.366   6.260
 3282SOL    HW126988   0.844   2.302   6.190
 3282SOL    HW226989   0.813   2.448   6.215
 3283SOL     OW26990   3.833   5.001   5.171
 3283SOL    HW126991   3.926   4.989   5.155
 3283SOL    HW226992   3.796   4.913   5.166
 3284SOL     OW26993   4.830   6.140   7.696
 3284SOL    HW126994   4.770   6.189   7.641
 3284SOL    HW226995   4.905   6.121   7.639
 3285SOL     OW26996   2.758   6.255   1.038
 3285SOL    HW126997   2.801   6.306   0.968
 3285SOL    HW226998   2.791   6.166   1.026
 3286SOL     OW26999   5.527   1.557   6.050
 3286SOL    HW127000   5.458   1.614   6.085
 3286SOL    HW227001   5.608   1.591   6.087
 3287SOL     OW27002   0.572   5.037   6.869
 3287SOL    HW127003   0.485   4.998   6.862
 3287SOL    HW227004   0.563   5.123   6.827
 3288SOL     OW27005   1.226   1.909   0.493
 3288SOL    HW127006   1.317   1.879   0.483
 3288SOL    HW227007   1.228   1.962   0.573
 3289SOL     OW27008   5.168   6.063   5.405
 3289SOL    HW127009   5.262   6.047   5.402
 3289SOL    HW227010   5.132   5.987   5.450
 3290SOL     OW27011   4.322   2.437   7.721
 3290SOL    HW127012   4.375   2.368   7.762
 3290SOL    HW227013   4.238   2.432   7.766
 3291SOL     OW27014   3.119   4.656   0.757
 3291SOL    HW127015   3.023   4.655   0.754
 3291SOL    HW227016   3.147   4.600   0.685
 3292SOL     OW27017   5.049   0.172   7.644
 3292SOL    HW127018   5.087   0.156   7.730
 3292SOL    HW227019   5.084   0.257   7.617
 3293SOL     OW27020   3.740   4.719   0.987
 3293SOL    HW127021   3.681   4.662   1.035
 3293SOL    HW227022   3.684   4.766   0.926
 3294SOL     OW27023   4.895   5.315   1.354
 3294SOL    HW127024   4.800   5.319   1.364
 3294SOL    HW227025   4.922   5.406   1.346
 3295SOL     OW27026   4.867   3.201   0.704
 3295SOL    HW127027   4.781   3.220   0.668
 3295SOL    HW227028   4.916   3.283   0.693
 3296SOL     OW27029   2.036   1.242   6.729
 3296SOL    HW127030   1.975   1.224   6.800
 3296SOL    HW227031   2.107   1.292   6.770
 3297SOL     OW27032   0.188   3.340   0.735
 3297SOL    HW127033   0.098   3.351   0.767
 3297SOL    HW227034   0.220   3.261   0.779
 3298SOL     OW27035   2.096   2.775   1.124
 3298SOL    HW127036   2.114   2.731   1.041
 3298SOL    HW227037   2.080   2.705   1.186
 3299SOL     OW27038   4.768   2.754   6.809
 3299SOL    HW127039   4.755   2.744   6.714
 3299SOL    HW227040   4.679   2.754   6.845
 3300SOL     OW27041   4.014   4.066   6.973
 3300SOL    HW127042   3.933   4.020   6.998
 3300SOL    HW227043   4.049   4.013   6.901
 3301SOL     OW27044   2.965   4.762   1.121
 3301SOL    HW127045   3.037   4.818   1.148
 3301SOL    HW227046   2.914   4.815   1.059
 3302SOL     OW27047   3.144   4.035   0.436
 3302SOL    HW127048   3.087   4.022   0.360
 3302SOL    HW227049   3.233   4.029   0.401
 3303SOL     OW27050   2.130   4.916   7.669
 3303SOL    HW127051   2.051   4.893   7.620
 3303SOL    HW227052   2.102   4.986   7.729
 3304SOL     OW27053   5.302   1.983   6.910
 3304SOL    HW127054   5.231   1.996   6.846
 3304SOL    HW227055   5.263   2.008   6.994
 3305SOL     OW27056   3.908   2.073   6.416
 3305SOL    HW127057   3.878   2.003   6.474
 3305SOL    HW227058   3.940   2.028   6.338
 3306SOL     OW27059   3.659   2.694   5.505
 3306SOL    HW127060   3.750   2.694   5.534
 3306SOL    HW227061   3.620   2.768   5.551
 3307SOL     OW27062   1.825   0.656   6.123
 3307SOL    HW127063   1.811   0.736   6.172
 3307SOL    HW227064   1.862   0.685   6.039
 3308SOL     OW27065   2.069   3.875   1.104
 3308SOL    HW127066   1.982   3.842   1.083
 3308SOL    HW227067   2.114   3.801   1.144
 3309SOL     OW27068   4.949   0.953   1.813
 3309SOL    HW127069   4.925   0.885   1.877
 3309SOL    HW227070   4.926   1.035   1.855
 3310SOL     OW27071   3.837   4.426   0.682
 3310SOL    HW127072   3.833   4.440   0.776
 3310SOL    HW227073   3.752   4.455   0.649
 3311SOL     OW27074   5.312   3.485   0.486
 3311SOL    HW127075   5.387   3.446   0.441
 3311SOL    HW227076   5.310   3.444   0.572
 3312SOL     OW27077   2.100   4.427   0.415
 3312SOL    HW127078   2.195   4.420   0.423
 3312SOL    HW227079   2.082   4.407   0.323
 3313SOL     OW27080   2.833   0.385   0.294
 3313SOL    HW127081   2.874   0.470   0.279
 3313SOL    HW227082   2.741   0.399   0.272
 3314SOL     OW27083   5.044   2.472   1.094
 3314SOL    HW127084   5.064   2.560   1.060
 3314SOL    HW227085   5.105   2.414   1.048
 3315SOL     OW27086   1.815   4.215   0.303
 3315SOL    HW127087   1.762   4.268   0.243
 3315SOL    HW227088   1.851   4.146   0.248
 3316SOL     OW27089   5.479   5.396   0.664
 3316SOL    HW127090   5.539   5.468   0.643
 3316SOL    HW227091   5.510   5.362   0.748
 3317SOL     OW27092   2.611   3.751   7.030
 3317SOL    HW127093   2.562   3.751   7.113
 3317SOL    HW227094   2.558   3.698   6.971
 3318SOL     OW27095   1.457   3.202   7.004
 3318SOL    HW127096   1.406   3.159   7.073
 3318SOL    HW227097   1.434   3.156   6.924
 3319SOL     OW27098   4.035   5.105   7.393
 3319SOL    HW127099   3.946   5.088   7.423
 3319SOL    HW227100   4.036   5.079   7.301
 3320SOL     OW27101   1.966   5.093   0.353
 3320SOL    HW127102   1.970   5.015   0.407
 3320SOL    HW227103   1.887   5.083   0.301
 3321SOL     OW27104   6.174   1.017   6.358
 3321SOL    HW127105   6.227   1.026   6.278
 3321SOL    HW227106   6.118   0.942   6.341
 3322SOL     OW27107   0.756   6.171   1.968
 3322SOL    HW127108   0.763   6.088   2.017
 3322SOL    HW227109   0.825   6.165   1.903
 3323SOL     OW27110   2.069   0.667   6.497
 3323SOL    HW127111   2.055   0.761   6.507
 3323SOL    HW227112   2.076   0.634   6.586
 3324SOL     OW27113   2.212   5.834   1.297
 3324SOL    HW127114   2.263   5.753   1.297
 3324SOL    HW227115   2.273   5.900   1.264
 3325SOL     OW27116   2.915   0.504   6.309
 3325SOL    HW127117   2.961   0.423   6.287
 3325SOL    HW227118   2.829   0.476   6.340
 3326SOL     OW27119   1.268   1.549   5.874
 3326SOL    HW127120   1.298   1.562   5.964
 3326SOL    HW227121   1.270   1.455   5.861
 3327SOL     OW27122   2.365   5.862   0.868
 3327SOL    HW127123   2.367   5.785   0.810
 3327SOL    HW227124   2.292   5.844   0.927
 3328SOL     OW27125   6.312   2.394   6.780
 3328SOL    HW127126   6.258   2.323   6.744
 3328SOL    HW227127   6.249   2.450   6.826
 3329SOL     OW27128   6.445   1.430   7.562
 3329SOL    HW127129   6.388   1.407   7.488
 3329SOL    HW227130   6.394   1.407   7.639
 3330SOL     OW27131   1.553   3.134   0.608
 3330SOL    HW127132   1.570   3.093   0.523
 3330SOL    HW227133   1.635   3.178   0.630
 3331SOL     OW27134   1.334   5.865   1.216
 3331SOL    HW127135   1.333   5.960   1.218
 3331SOL    HW227136   1.321   5.839   1.307
 3332SOL     OW27137   5.204   3.892   7.240
 3332SOL    HW127138   5.149   3.926   7.170
 3332SOL    HW227139   5.142   3.869   7.310
 3333SOL     OW27140   1.215   1.994   1.222
 3333SOL    HW127141   1.276   1.999   1.296
 3333SOL    HW227142   1.244   2.063   1.162
 3334SOL     OW27143   0.161   1.525   2.303
 3334SOL    HW127144   0.186   1.527   2.395
 3334SOL    HW227145   0.204   1.446   2.268
 3335SOL     OW27146   3.994   1.638   1.572
 3335SOL    HW127147   3.963   1.576   1.506
 3335SOL    HW227148   4.073   1.675   1.534
 3336SOL     OW27149   4.945   6.382   6.802
 3336SOL    HW127150   4.886   6.323   6.755
 3336SOL    HW227151   4.891   6.420   6.871
 3337SOL     OW27152   2.328   4.624   0.779
 3337SOL    HW127153   2.339   4.593   0.869
 3337SOL    HW227154   2.400   4.686   0.767
 3338SOL     OW27155   2.019   5.271   0.874
 3338SOL    HW127156   2.004   5.269   0.779
 3338SOL    HW227157   2.103   5.316   0.883
 3339SOL     OW27158   1.240   6.112   1.491
 3339SOL    HW127159   1.166   6.085   1.545
 3339SOL    HW227160   1.291   6.171   1.547
 3340SOL     OW27161   4.104   5.055   5.423
 3340SOL    HW127162   4.186   5.006   5.415
 3340SOL    HW227163   4.070   5.031   5.510
 3341SOL     OW27164   3.279   0.930   6.428
 3341SOL    HW127165   3.314   0.904   6.514
 3341SOL    HW227166   3.225   0.855   6.401
 3342SOL     OW27167   0.322   6.426   7.304
 3342SOL    HW127168   0.310   6.430   7.399
 3342SOL    HW227169   0.236   6.447   7.268
 3343SOL     OW27170   4.409   1.122   5.991
 3343SOL    HW127171   4.353   1.056   5.951
 3343SOL    HW227172   4.354   1.200   5.996
 3344SOL     OW27173   2.386   2.450   2.027
 3344SOL    HW127174   2.471   2.417   2.000
 3344SOL    HW227175   2.387   2.443   2.122
 3345SOL     OW27176   0.267   1.732   1.410
 3345SOL    HW127177   0.354   1.703   1.384
 3345SOL    HW227178   0.211   1.714   1.335
 3346SOL     OW27179   4.668   2.613   0.694
 3346SOL    HW127180   4.656   2.617   0.789
 3346SOL    HW227181   4.586   2.578   0.661
 3347SOL     OW27182   3.329   1.782   5.693
 3347SOL    HW127183   3.383   1.844   5.742
 3347SOL    HW227184   3.389   1.711   5.669
 3348SOL     OW27185   4.693   0.093   5.213
 3348SOL    HW127186   4.618   0.151   5.224
 3348SOL    HW227187   4.660   0.021   5.159
 3349SOL     OW27188   1.284   4.802   1.655
 3349SOL    HW127189   1.301   4.772   1.744
 3349SOL    HW227190   1.314   4.892   1.654
 3350SOL     OW27191   1.116   6.031   6.347
 3350SOL    HW127192   1.086   6.076   6.269
 3350SOL    HW227193   1.119   6.098   6.415
 3351SOL     OW27194   4.705   3.460   0.121
 3351SOL    HW127195   4.770   3.396   0.151
 3351SOL    HW227196   4.728   3.477   0.030
 3352SOL     OW27197   2.237   0.731   6.888
 3352SOL    HW127198   2.231   0.809   6.943
 3352SOL    HW227199   2.299   0.675   6.933
 3353SOL     OW27200   5.940   3.621   0.385
 3353SOL    HW127201   5.945   3.693   0.448
 3353SOL    HW227202   5.983   3.548   0.428
 3354SOL     OW27203   2.428   3.079   1.724
 3354SOL    HW127204   2.470   3.164   1.733
 3354SOL    HW227205   2.377   3.068   1.805
 3355SOL     OW27206   3.782   3.881   6.616
 3355SOL    HW127207   3.794   3.793   6.580
 3355SOL    HW227208   3.687   3.894   6.616
 3356SOL     OW27209   0.396   5.874   0.978
 3356SOL    HW127210   0.446   5.940   1.026
 3356SOL    HW227211   0.309   5.876   1.019
 3357SOL     OW27212   2.194   5.403   0.271
 3357SOL    HW127213   2.110   5.448   0.263
 3357SOL    HW227214   2.171   5.310   0.275
 3358SOL     OW27215   1.037   0.403   6.154
 3358SOL    HW127216   1.087   0.404   6.236
 3358SOL    HW227217   0.985   0.483   6.157
 3359SOL     OW27218   4.200   2.149   6.898
 3359SOL    HW127219   4.296   2.143   6.902
 3359SOL    HW227220   4.182   2.201   6.820
 3360SOL     OW27221   5.286   5.533   1.474
 3360SOL    HW127222   5.284   5.574   1.387
 3360SOL    HW227223   5.365   5.566   1.515
 3361SOL     OW27224   0.207   2.147   6.868
 3361SOL    HW127225   0.178   2.101   6.789
 3361SOL    HW227226   0.268   2.086   6.909
 3362SOL     OW27227   1.759   1.798   6.297
 3362SOL    HW127228   1.767   1.838   6.211
 3362SOL    HW227229   1.829   1.838   6.348
 3363SOL     OW27230   4.261   0.454   0.112
 3363SOL    HW127231   4.167   0.455   0.093
 3363SOL    HW227232   4.277   0.368   0.151
 3364SOL     OW27233   5.474   1.212   1.938
 3364SOL    HW127234   5.433   1.171   2.014
 3364SOL    HW227235   5.544   1.266   1.976
 3365SOL     OW27236   4.396   4.173   1.106
 3365SOL    HW127237   4.381   4.224   1.185
 3365SOL    HW227238   4.349   4.091   1.120
 3366SOL     OW27239   3.526   2.193   6.770
 3366SOL    HW127240   3.474   2.240   6.706
 3366SOL    HW227241   3.594   2.254   6.796
 3367SOL     OW27242   3.726   4.574   5.728
 3367SOL    HW127243   3.728   4.607   5.818
 3367SOL    HW227244   3.667   4.499   5.732
 3368SOL     OW27245   4.394   4.773   7.176
 3368SOL    HW127246   4.455   4.747   7.245
 3368SOL    HW227247   4.428   4.856   7.143
 3369SOL     OW27248   2.078   0.406   1.067
 3369SOL    HW127249   2.006   0.425   1.126
 3369SOL    HW227250   2.090   0.488   1.018
 3370SOL     OW27251   3.733   5.517   1.296
 3370SOL    HW127252   3.816   5.563   1.284
 3370SOL    HW227253   3.725   5.461   1.219
 3371SOL     OW27254   6.111   0.741   0.735
 3371SOL    HW127255   6.033   0.795   0.734
 3371SOL    HW227256   6.128   0.726   0.828
 3372SOL     OW27257   0.776   6.460   0.213
 3372SOL    HW127258   0.725   0.019   0.280
 3372SOL    HW227259   0.729   6.378   0.198
 3373SOL     OW27260   5.943   6.394   7.124
 3373SOL    HW127261   5.851   6.374   7.105
 3373SOL    HW227262   5.972   6.444   7.047
 3374SOL     OW27263   0.022   4.563   1.872
 3374SOL    HW127264   6.423   4.537   1.908
 3374SOL    HW227265   0.001   4.608   1.790
 3375SOL     OW27266   5.298   2.564   0.822
 3375SOL    HW127267   5.243   2.517   0.759
 3375SOL    HW227268   5.241   2.632   0.857
 3376SOL     OW27269   1.109   3.870   6.993
 3376SOL    HW127270   1.023   3.886   6.954
 3376SOL    HW227271   1.089   3.832   7.079
 3377SOL     OW27272   0.247   3.727   1.706
 3377SOL    HW127273   0.235   3.820   1.686
 3377SOL    HW227274   0.315   3.725   1.774
 3378SOL     OW27275   4.959   4.889   1.683
 3378SOL    HW127276   4.958   4.979   1.650
 3378SOL    HW227277   4.984   4.896   1.775
 3379SOL     OW27278   4.948   6.058   6.833
 3379SOL    HW127279   5.013   5.997   6.868
 3379SOL    HW227280   4.977   6.144   6.863
 3380SOL     OW27281   1.589   4.129   6.123
 3380SOL    HW127282   1.669   4.157   6.167
 3380SOL    HW227283   1.525   4.119   6.193
 3381SOL     OW27284   3.455   2.457   7.163
 3381SOL    HW127285   3.515   2.514   7.212
 3381SOL    HW227286   3.505   2.430   7.086
 3382SOL     OW27287   5.140   3.626   6.375
 3382SOL    HW127288   5.059   3.585   6.345
 3382SOL    HW227289   5.112   3.704   6.423
 3383SOL     OW27290   1.714   1.944   7.625
 3383SOL    HW127291   1.807   1.965   7.628
 3383SOL    HW227292   1.712   1.848   7.624
 3384SOL     OW27293   5.201   0.527   0.124
 3384SOL    HW127294   5.239   0.502   0.208
 3384SOL    HW227295   5.229   0.617   0.110
 3385SOL     OW27296   2.955   1.554   6.947
 3385SOL    HW127297   2.983   1.611   7.019
 3385SOL    HW227298   3.030   1.554   6.886
 3386SOL     OW27299   1.449   5.442   7.737
 3386SOL    HW127300   1.472   5.532   7.758
 3386SOL    HW227301   1.355   5.443   7.725
 3387SOL     OW27302   5.314   4.549   0.697
 3387SOL    HW127303   5.266   4.623   0.736
 3387SOL    HW227304   5.400   4.552   0.738
 3388SOL     OW27305   0.278   0.685   0.007
 3388SOL    HW127306   0.323   0.647   7.707
 3388SOL    HW227307   0.231   0.611   0.047
 3389SOL     OW27308   2.322   0.343   7.699
 3389SOL    HW127309   2.395   0.386   7.656
 3389SOL    HW227310   2.360   0.263   7.736
 3390SOL     OW27311   5.305   1.063   1.391
 3390SOL    HW127312   5.397   1.077   1.415
 3390SOL    HW227313   5.259   1.055   1.475
 3391SOL     OW27314   1.860   2.327   6.470
 3391SOL    HW127315   1.893   2.267   6.403
 3391SOL    HW227316   1.812   2.394   6.421
 3392SOL     OW27317   3.189   3.061   0.636
 3392SOL    HW127318   3.223   3.147   0.612
 3392SOL    HW227319   3.216   3.003   0.564
 3393SOL     OW27320   4.148   3.462   7.441
 3393SOL    HW127321   4.213   3.470   7.372
 3393SOL    HW227322   4.124   3.369   7.440
 3394SOL     OW27323   2.562   2.709   1.336
 3394SOL    HW127324   2.541   2.796   1.302
 3394SOL    HW227325   2.616   2.725   1.413
 3395SOL     OW27326   3.391   4.150   7.533
 3395SOL    HW127327   3.380   4.234   7.577
 3395SOL    HW227328   3.311   4.138   7.483
 3396SOL     OW27329   2.676   3.966   5.684
 3396SOL    HW127330   2.650   3.880   5.719
 3396SOL    HW227331   2.594   4.011   5.667
 3397SOL     OW27332   2.405   5.638   1.307
 3397SOL    HW127333   2.483   5.683   1.276
 3397SOL    HW227334   2.434   5.591   1.385
 3398SOL     OW27335   4.953   4.451   7.242
 3398SOL    HW127336   5.036   4.404   7.251
 3398SOL    HW227337   4.952   4.512   7.316
 3399SOL     OW27338   3.227   2.558   1.295
 3399SOL    HW127339   3.293   2.609   1.342
 3399SOL    HW227340   3.237   2.469   1.331
 3400SOL     OW27341   4.406   6.388   1.413
 3400SOL    HW127342   4.420   6.472   1.369
 3400SOL    HW227343   4.338   6.407   1.477
 3401SOL     OW27344   1.012   0.959   2.383
 3401SOL    HW127345   1.041   0.903   2.311
 3401SOL    HW227346   1.013   0.902   2.460
 3402SOL     OW27347   6.173   0.074   6.311
 3402SOL    HW127348   6.207   0.141   6.252
 3402SOL    HW227349   6.237   0.068   6.381
 3403SOL     OW27350   5.452   2.993   6.306
 3403SOL    HW127351   5.378   3.053   6.313
 3403SOL    HW227352   5.529   3.051   6.302
 3404SOL     OW27353   4.305   4.119   0.397
 3404SOL    HW127354   4.226   4.069   0.416
 3404SOL    HW227355   4.352   4.064   0.333
 3405SOL     OW27356   4.130   2.549   5.989
 3405SOL    HW127357   4.203   2.487   5.997
 3405SOL    HW227358   4.153   2.602   5.912
 3406SOL     OW27359   3.347   1.997   6.321
 3406SOL    HW127360   3.425   1.968   6.367
 3406SOL    HW227361   3.291   2.035   6.390
 3407SOL     OW27362   5.323   0.750   7.414
 3407SOL    HW127363   5.370   0.670   7.388
 3407SOL    HW227364   5.292   0.731   7.502
 3408SOL     OW27365   4.913   0.432   6.678
 3408SOL    HW127366   4.840   0.494   6.684
 3408SOL    HW227367   4.990   0.488   6.671
 3409SOL     OW27368   5.849   1.896   0.904
 3409SOL    HW127369   5.874   1.918   0.994
 3409SOL    HW227370   5.796   1.817   0.912
 3410SOL     OW27371   2.556   2.724   7.154
 3410SOL    HW127372   2.482   2.769   7.113
 3410SOL    HW227373   2.517   2.650   7.200
 3411SOL     OW27374   0.277   3.533   7.609
 3411SOL    HW127375   0.335   3.460   7.630
 3411SOL    HW227376   0.216   3.498   7.545
 3412SOL     OW27377   1.656   5.109   6.800
 3412SOL    HW127378   1.673   5.142   6.711
 3412SOL    HW227379   1.577   5.156   6.827
 3413SOL     OW27380   3.235   1.798   6.173
 3413SOL    HW127381   3.275   1.873   6.217
 3413SOL    HW227382   3.141   1.811   6.185
 3414SOL     OW27383   3.935   2.632   1.560
 3414SOL    HW127384   3.885   2.585   1.493
 3414SOL    HW227385   4.008   2.574   1.581
 3415SOL     OW27386   0.324   3.713   7.212
 3415SOL    HW127387   0.313   3.623   7.242
 3415SOL    HW227388   0.321   3.708   7.117
 3416SOL     OW27389   2.088   4.685   0.081
 3416SOL    HW127390   2.102   4.760   0.138
 3416SOL    HW227391   2.010   4.706   0.030
 3417SOL     OW27392   4.457   2.927   6.511
 3417SOL    HW127393   4.425   2.855   6.565
 3417SOL    HW227394   4.543   2.896   6.479
 3418SOL     OW27395   3.843   5.351   0.556
 3418SOL    HW127396   3.817   5.328   0.467
 3418SOL    HW227397   3.881   5.270   0.592
 3419SOL     OW27398   5.588   1.909   2.275
 3419SOL    HW127399   5.675   1.885   2.308
 3419SOL    HW227400   5.605   1.983   2.216
 3420SOL     OW27401   5.086   3.581   1.266
 3420SOL    HW127402   5.098   3.495   1.225
 3420SOL    HW227403   5.030   3.563   1.342
 3421SOL     OW27404   3.066   6.438   7.520
 3421SOL    HW127405   2.988   0.006   7.512
 3421SOL    HW227406   3.107   6.465   7.602
 3422SOL     OW27407   2.377   5.199   1.290
 3422SOL    HW127408   2.333   5.200   1.374
 3422SOL    HW227409   2.307   5.183   1.226
 3423SOL     OW27410   0.911   2.921   0.570
 3423SOL    HW127411   0.989   2.870   0.547
 3423SOL    HW227412   0.908   2.991   0.504
 3424SOL     OW27413   0.671   3.586   1.804
 3424SOL    HW127414   0.718   3.669   1.813
 3424SOL    HW227415   0.702   3.550   1.720
 3425SOL     OW27416   3.332   5.152   1.487
 3425SOL    HW127417   3.291   5.163   1.401
 3425SOL    HW227418   3.426   5.161   1.470
 3426SOL     OW27419   1.399   1.614   1.479
 3426SOL    HW127420   1.478   1.667   1.494
 3426SOL    HW227421   1.429   1.524   1.488
 3427SOL     OW27422   3.447   1.872   7.386
 3427SOL    HW127423   3.466   1.957   7.426
 3427SOL    HW227424   3.352   1.865   7.388
 3428SOL     OW27425   3.524   0.547   6.531
 3428SOL    HW127426   3.531   0.625   6.586
 3428SOL    HW227427   3.457   0.569   6.466
 3429SOL     OW27428   2.053   2.610   0.681
 3429SOL    HW127429   2.137   2.589   0.722
 3429SOL    HW227430   2.030   2.696   0.716
 3430SOL     OW27431   2.235   3.177   0.871
 3430SOL    HW127432   2.211   3.163   0.779
 3430SOL    HW227433   2.169   3.128   0.921
 3431SOL     OW27434   0.683   2.360   7.398
 3431SOL    HW127435   0.651   2.401   7.478
 3431SOL    HW227436   0.774   2.391   7.390
 3432SOL     OW27437   4.127   0.089   7.040
 3432SOL    HW127438   4.135   0.149   6.966
 3432SOL    HW227439   4.055   0.031   7.016
 3433SOL     OW27440   2.137   3.998   7.054
 3433SOL    HW127441   2.224   4.035   7.039
 3433SOL    HW227442   2.107   4.039   7.135
 3434SOL     OW27443   2.501   4.077   1.330
 3434SOL    HW127444   2.517   4.076   1.235
 3434SOL    HW227445   2.433   4.143   1.342
 3435SOL     OW27446   3.984   6.148   0.650
 3435SOL    HW127447   3.936   6.146   0.567
 3435SOL    HW227448   4.020   6.237   0.654
 3436SOL     OW27449   5.394   6.077   0.141
 3436SOL    HW127450   5.486   6.055   0.154
 3436SOL    HW227451   5.373   6.138   0.211
 3437SOL     OW27452   3.189   0.469   7.120
 3437SOL    HW127453   3.183   0.563   7.100
 3437SOL    HW227454   3.098   0.439   7.119
 3438SOL     OW27455   6.083   1.590   1.843
 3438SOL    HW127456   6.113   1.615   1.755
 3438SOL    HW227457   6.031   1.511   1.829
 3439SOL     OW27458   0.243   6.486   6.583
 3439SOL    HW127459   0.203   0.085   6.600
 3439SOL    HW227460   0.169   6.425   6.580
 3440SOL     OW27461   6.372   1.224   1.831
 3440SOL    HW127462   6.417   1.308   1.818
 3440SOL    HW227463   6.439   1.166   1.868
 3441SOL     OW27464   4.382   0.615   6.260
 3441SOL    HW127465   4.397   0.656   6.175
 3441SOL    HW227466   4.337   0.533   6.240
 3442SOL     OW27467   3.703   2.782   0.898
 3442SOL    HW127468   3.661   2.867   0.911
 3442SOL    HW227469   3.632   2.724   0.870
 3443SOL     OW27470   0.832   4.948   7.068
 3443SOL    HW127471   0.842   5.042   7.057
 3443SOL    HW227472   0.741   4.937   7.097
 3444SOL     OW27473   2.122   4.887   6.640
 3444SOL    HW127474   2.075   4.971   6.637
 3444SOL    HW227475   2.057   4.824   6.609
 3445SOL     OW27476   1.855   2.413   1.531
 3445SOL    HW127477   1.898   2.348   1.587
 3445SOL    HW227478   1.801   2.464   1.592
 3446SOL     OW27479   6.183   5.794   7.357
 3446SOL    HW127480   6.203   5.798   7.263
 3446SOL    HW227481   6.253   5.741   7.394
 3447SOL     OW27482   0.444   2.162   0.748
 3447SOL    HW127483   0.462   2.150   0.655
 3447SOL    HW227484   0.398   2.082   0.775
 3448SOL     OW27485   5.426   1.652   7.481
 3448SOL    HW127486   5.462   1.738   7.502
 3448SOL    HW227487   5.365   1.633   7.552
 3449SOL     OW27488   5.273   3.261   6.077
 3449SOL    HW127489   5.254   3.172   6.047
 3449SOL    HW227490   5.287   3.252   6.171
 3450SOL     OW27491   0.656   2.566   1.994
 3450SOL    HW127492   0.605   2.515   2.057
 3450SOL    HW227493   0.746   2.535   2.004
 3451SOL     OW27494   5.232   4.846   6.877
 3451SOL    HW127495   5.305   4.907   6.868
 3451SOL    HW227496   5.241   4.810   6.965
 3452SOL     OW27497   1.893   3.372   1.515
 3452SOL    HW127498   1.833   3.350   1.587
 3452SOL    HW227499   1.965   3.310   1.525
 3453SOL     OW27500   3.699   5.788   6.083
 3453SOL    HW127501   3.730   5.738   6.158
 3453SOL    HW227502   3.609   5.758   6.069
 3454SOL     OW27503   4.690   1.304   6.449
 3454SOL    HW127504   4.749   1.243   6.404
 3454SOL    HW227505   4.741   1.336   6.524
 3455SOL     OW27506   5.571   1.875   7.559
 3455SOL    HW127507   5.663   1.901   7.559
 3455SOL    HW227508   5.542   1.890   7.649
 3456SOL     OW27509   3.494   1.793   1.351
 3456SOL    HW127510   3.539   1.860   1.299
 3456SOL    HW227511   3.511   1.711   1.305
 3457SOL     OW27512   4.774   3.666   0.353
 3457SOL    HW127513   4.813   3.596   0.301
 3457SOL    HW227514   4.732   3.621   0.427
 3458SOL     OW27515   3.152   1.983   6.782
 3458SOL    HW127516   3.105   2.025   6.710
 3458SOL    HW227517   3.083   1.949   6.839
 3459SOL     OW27518   4.978   3.279   6.657
 3459SOL    HW127519   4.976   3.300   6.563
 3459SOL    HW227520   4.960   3.185   6.660
 3460SOL     OW27521   2.625   1.580   1.449
 3460SOL    HW127522   2.693   1.533   1.497
 3460SOL    HW227523   2.573   1.511   1.407
 3461SOL     OW27524   5.051   4.147   7.495
 3461SOL    HW127525   5.071   4.054   7.489
 3461SOL    HW227526   4.964   4.155   7.454
 3462SOL     OW27527   3.372   5.371   0.878
 3462SOL    HW127528   3.373   5.396   0.970
 3462SOL    HW227529   3.422   5.289   0.875
 3463SOL     OW27530   5.490   5.600   5.536
 3463SOL    HW127531   5.404   5.617   5.498
 3463SOL    HW227532   5.482   5.625   5.628
 3464SOL     OW27533   5.850   2.816   1.796
 3464SOL    HW127534   5.789   2.816   1.870
 3464SOL    HW227535   5.828   2.737   1.747
 3465SOL     OW27536   1.218   0.706   5.524
 3465SOL    HW127537   1.133   0.663   5.532
 3465SOL    HW227538   1.207   0.771   5.455
 3466SOL     OW27539   1.599   2.930   6.804
 3466SOL    HW127540   1.633   3.009   6.762
 3466SOL    HW227541   1.510   2.953   6.831
 3467SOL     OW27542   3.153   0.546   0.838
 3467SOL    HW127543   3.100   0.494   0.778
 3467SOL    HW227544   3.211   0.483   0.881
 3468SOL     OW27545   0.311   4.955   6.850
 3468SOL    HW127546   0.224   4.916   6.862
 3468SOL    HW227547   0.299   5.021   6.782
 3469SOL     OW27548   0.812   5.944   2.188
 3469SOL    HW127549   0.777   6.021   2.233
 3469SOL    HW227550   0.831   5.882   2.258
 3470SOL     OW27551   4.165   2.436   1.028
 3470SOL    HW127552   4.186   2.456   0.936
 3470SOL    HW227553   4.076   2.469   1.040
 3471SOL     OW27554   4.560   0.330   0.450
 3471SOL    HW127555   4.653   0.355   0.452
 3471SOL    HW227556   4.554   0.265   0.380
 3472SOL     OW27557   3.785   5.496   6.721
 3472SOL    HW127558   3.718   5.537   6.776
 3472SOL    HW227559   3.843   5.452   6.783
 3473SOL     OW27560   5.788   2.651   0.529
 3473SOL    HW127561   5.762   2.601   0.452
 3473SOL    HW227562   5.762   2.741   0.508
 3474SOL     OW27563   0.619   3.450   2.018
 3474SOL    HW127564   0.697   3.429   2.070
 3474SOL    HW227565   0.649   3.517   1.956
 3475SOL     OW27566   3.206   2.047   7.405
 3475SOL    HW127567   3.282   2.078   7.357
 3475SOL    HW227568   3.131   2.072   7.350
 3476SOL     OW27569   1.312   0.197   2.206
 3476SOL    HW127570   1.230   0.181   2.160
 3476SOL    HW227571   1.348   0.276   2.165
 3477SOL     OW27572   2.842   2.176   6.280
 3477SOL    HW127573   2.927   2.196   6.320
 3477SOL    HW227574   2.828   2.245   6.216
 3478SOL     OW27575   0.820   0.782   0.380
 3478SOL    HW127576   0.727   0.765   0.365
 3478SOL    HW227577   0.823   0.871   0.415
 3479SOL     OW27578   3.920   1.399   6.670
 3479SOL    HW127579   3.983   1.471   6.675
 3479SOL    HW227580   3.911   1.370   6.761
 3480SOL     OW27581   1.947   5.707   7.456
 3480SOL    HW127582   1.968   5.665   7.372
 3480SOL    HW227583   1.851   5.704   7.460
 3481SOL     OW27584   3.749   0.993   0.430
 3481SOL    HW127585   3.658   1.006   0.402
 3481SOL    HW227586   3.745   0.918   0.489
 3482SOL     OW27587   4.037   0.595   1.371
 3482SOL    HW127588   4.085   0.514   1.391
 3482SOL    HW227589   3.945   0.569   1.368
 3483SOL     OW27590   3.042   4.834   5.362
 3483SOL    HW127591   3.021   4.751   5.319
 3483SOL    HW227592   2.990   4.899   5.316
 3484SOL     OW27593   1.461   0.572   7.237
 3484SOL    HW127594   1.382   0.587   7.184
 3484SOL    HW227595   1.506   0.500   7.193
 3485SOL     OW27596   2.460   5.307   1.041
 3485SOL    HW127597   2.458   5.277   1.131
 3485SOL    HW227598   2.374   5.347   1.026
 3486SOL     OW27599   4.708   5.720   7.438
 3486SOL    HW127600   4.631   5.760   7.398
 3486SOL    HW227601   4.716   5.764   7.523
 3487SOL     OW27602   5.088   4.466   6.248
 3487SOL    HW127603   5.103   4.435   6.159
 3487SOL    HW227604   5.000   4.437   6.270
 3488SOL     OW27605   6.258   4.782   6.714
 3488SOL    HW127606   6.224   4.838   6.644
 3488SOL    HW227607   6.184   4.772   6.774
 3489SOL     OW27608   0.408   5.924   6.956
 3489SOL    HW127609   0.452   6.006   6.937
 3489SOL    HW227610   0.325   5.950   6.997
 3490SOL     OW27611   3.720   2.385   2.445
 3490SOL    HW127612   3.751   2.466   2.405
 3490SOL    HW227613   3.636   2.408   2.484
 3491SOL     OW27614   6.311   2.010   6.265
 3491SOL    HW127615   6.336   2.039   6.177
 3491SOL    HW227616   6.360   2.067   6.324
 3492SOL     OW27617   2.997   0.921   1.586
 3492SOL    HW127618   3.001   1.016   1.601
 3492SOL    HW227619   2.986   0.884   1.674
 3493SOL     OW27620   1.921   1.247   1.078
 3493SOL    HW127621   1.930   1.318   1.014
 3493SOL    HW227622   1.898   1.291   1.160
 3494SOL     OW27623   4.408   0.857   0.127
 3494SOL    HW127624   4.483   0.914   0.140
 3494SOL    HW227625   4.337   0.916   0.102
 3495SOL     OW27626   3.541   3.718   6.474
 3495SOL    HW127627   3.611   3.672   6.520
 3495SOL    HW227628   3.487   3.648   6.437
 3496SOL     OW27629   1.382   3.585   6.371
 3496SOL    HW127630   1.352   3.630   6.292
 3496SOL    HW227631   1.474   3.612   6.380
 3497SOL     OW27632   4.094   2.148   7.626
 3497SOL    HW127633   4.015   2.201   7.637
 3497SOL    HW227634   4.125   2.133   7.715
 3498SOL     OW27635   1.470   0.170   6.877
 3498SOL    HW127636   1.515   0.243   6.834
 3498SOL    HW227637   1.381   0.202   6.891
 3499SOL     OW27638   6.455   2.570   7.644
 3499SOL    HW127639   6.455   2.646   7.702
 3499SOL    HW227640   0.056   2.569   7.606
 3500SOL     OW27641   2.408   2.135   7.290
 3500SOL    HW127642   2.418   2.043   7.263
 3500SOL    HW227643   2.458   2.185   7.226
 3501SOL     OW27644   1.949   0.711   1.336
 3501SOL    HW127645   1.865   0.729   1.378
 3501SOL    HW227646   1.981   0.797   1.308
 3502SOL     OW27647   0.398   6.053   1.817
 3502SOL    HW127648   0.328   6.116   1.833
 3502SOL    HW227649   0.355   5.982   1.769
 3503SOL     OW27650   2.298   4.737   7.040
 3503SOL    HW127651   2.260   4.820   7.010
 3503SOL    HW227652   2.393   4.751   7.035
 3504SOL     OW27653   3.519   5.248   7.567
 3504SOL    HW127654   3.485   5.173   7.519
 3504SOL    HW227655   3.596   5.275   7.519
 3505SOL     OW27656   5.767   4.331   0.890
 3505SOL    HW127657   5.702   4.261   0.890
 3505SOL    HW227658   5.833   4.302   0.828
 3506SOL     OW27659   0.158   2.163   1.359
 3506SOL    HW127660   0.235   2.111   1.383
 3506SOL    HW227661   0.195   2.243   1.322
 3507SOL     OW27662   5.629   3.577   0.624
 3507SOL    HW127663   5.635   3.669   0.652
 3507SOL    HW227664   5.655   3.527   0.701
 3508SOL     OW27665   4.021   2.481   5.670
 3508SOL    HW127666   4.087   2.516   5.729
 3508SOL    HW227667   3.993   2.556   5.618
 3509SOL     OW27668   2.850   5.010   7.195
 3509SOL    HW127669   2.867   4.947   7.265
 3509SOL    HW227670   2.936   5.022   7.153
 3510SOL     OW27671   0.952   4.303   5.754
 3510SOL    HW127672   0.918   4.385   5.719
 3510SOL    HW227673   1.007   4.268   5.684
 3511SOL     OW27674   1.970   6.434   6.453
 3511SOL    HW127675   1.947   6.423   6.361
 3511SOL    HW227676   2.062   6.409   6.458
 3512SOL     OW27677   1.475   5.846   7.487
 3512SOL    HW127678   1.556   5.797   7.478
 3512SOL    HW227679   1.475   5.906   7.412
 3513SOL     OW27680   3.688   2.864   0.252
 3513SOL    HW127681   3.627   2.930   0.219
 3513SOL    HW227682   3.769   2.912   0.268
 3514SOL     OW27683   2.323   0.812   1.267
 3514SOL    HW127684   2.273   0.829   1.187
 3514SOL    HW227685   2.280   0.865   1.334
 3515SOL     OW27686   0.519   0.480   0.037
 3515SOL    HW127687   0.613   0.487   0.057
 3515SOL    HW227688   0.477   0.540   0.098
 3516SOL     OW27689   4.324   2.369   6.129
 3516SOL    HW127690   4.273   2.431   6.181
 3516SOL    HW227691   4.319   2.286   6.177
 3517SOL     OW27692   4.777   3.528   1.147
 3517SOL    HW127693   4.807   3.551   1.060
 3517SOL    HW227694   4.733   3.443   1.136
 3518SOL     OW27695   2.591   5.981   6.221
 3518SOL    HW127696   2.626   6.068   6.243
 3518SOL    HW227697   2.609   5.972   6.127
 3519SOL     OW27698   0.149   6.319   1.124
 3519SOL    HW127699   0.057   6.342   1.133
 3519SOL    HW227700   0.158   6.239   1.176
 3520SOL     OW27701   1.108   6.038   6.771
 3520SOL    HW127702   1.204   6.038   6.773
 3520SOL    HW227703   1.083   5.956   6.813
 3521SOL     OW27704   2.179   3.160   6.440
 3521SOL    HW127705   2.271   3.172   6.465
 3521SOL    HW227706   2.153   3.245   6.405
 3522SOL     OW27707   3.508   0.383   7.581
 3522SOL    HW127708   3.479   0.395   7.490
 3522SOL    HW227709   3.574   0.451   7.594
 3523SOL     OW27710   4.596   5.056   1.930
 3523SOL    HW127711   4.631   4.980   1.977
 3523SOL    HW227712   4.546   5.104   1.995
 3524SOL     OW27713   3.529   5.220   1.286
 3524SOL    HW127714   3.497   5.302   1.249
 3524SOL    HW227715   3.531   5.159   1.213
 3525SOL     OW27716   0.090   2.405   6.541
 3525SOL    HW127717   0.050   2.480   6.585
 3525SOL    HW227718   0.178   2.401   6.577
 3526SOL     OW27719   5.113   3.050   7.194
 3526SOL    HW127720   5.160   3.089   7.268
 3526SOL    HW227721   5.096   3.122   7.134
 3527SOL     OW27722   1.062   0.256   7.181
 3527SOL    HW127723   1.000   0.188   7.154
 3527SOL    HW227724   1.011   0.338   7.176
 3528SOL     OW27725   3.207   4.207   2.031
 3528SOL    HW127726   3.149   4.132   2.041
 3528SOL    HW227727   3.293   4.173   2.054
 3529SOL     OW27728   2.113   4.176   7.755
 3529SOL    HW127729   2.112   4.251   0.039
 3529SOL    HW227730   2.077   4.210   7.673
 3530SOL     OW27731   1.273   0.832   0.283
 3530SOL    HW127732   1.321   0.769   0.230
 3530SOL    HW227733   1.259   0.907   0.226
 3531SOL     OW27734   0.816   2.964   1.767
 3531SOL    HW127735   0.777   3.034   1.714
 3531SOL    HW227736   0.746   2.938   1.827
 3532SOL     OW27737   1.039   2.715   6.639
 3532SOL    HW127738   1.095   2.740   6.712
 3532SOL    HW227739   0.977   2.652   6.678
 3533SOL     OW27740   3.855   4.754   6.287
 3533SOL    HW127741   3.908   4.805   6.348
 3533SOL    HW227742   3.765   4.766   6.316
 3534SOL     OW27743   3.520   3.357   1.721
 3534SOL    HW127744   3.474   3.347   1.805
 3534SOL    HW227745   3.601   3.404   1.744
 3535SOL     OW27746   2.814   1.803   5.576
 3535SOL    HW127747   2.905   1.834   5.575
 3535SOL    HW227748   2.775   1.847   5.652
 3536SOL     OW27749   2.871   0.629   7.346
 3536SOL    HW127750   2.889   0.713   7.305
 3536SOL    HW227751   2.952   0.607   7.392
 3537SOL     OW27752   4.340   3.943   7.257
 3537SOL    HW127753   4.417   3.979   7.299
 3537SOL    HW227754   4.269   3.956   7.320
 3538SOL     OW27755   5.326   5.857   6.627
 3538SOL    HW127756   5.261   5.823   6.567
 3538SOL    HW227757   5.409   5.818   6.598
 3539SOL     OW27758   0.122   4.778   6.350
 3539SOL    HW127759   0.045   4.835   6.342
 3539SOL    HW227760   0.115   4.741   6.438
 3540SOL     OW27761   5.314   4.831   7.627
 3540SOL    HW127762   5.407   4.836   7.650
 3540SOL    HW227763   5.284   4.922   7.632
 3541SOL     OW27764   0.888   3.034   7.543
 3541SOL    HW127765   0.844   2.952   7.522
 3541SOL    HW227766   0.939   3.015   7.621
 3542SOL     OW27767   2.077   2.954   7.120
 3542SOL    HW127768   2.119   2.941   7.035
 3542SOL    HW227769   1.984   2.939   7.103
 3543SOL     OW27770   5.279   1.353   1.506
 3543SOL    HW127771   5.315   1.428   1.458
 3543SOL    HW227772   5.350   1.289   1.508
 3544SOL     OW27773   3.553   2.124   7.463
 3544SOL    HW127774   3.614   2.113   7.390
 3544SOL    HW227775   3.519   2.213   7.453
 3545SOL     OW27776   0.567   4.766   7.277
 3545SOL    HW127777   0.491   4.709   7.263
 3545SOL    HW227778   0.552   4.842   7.221
 3546SOL     OW27779   5.545   4.174   0.878
 3546SOL    HW127780   5.450   4.176   0.890
 3546SOL    HW227781   5.577   4.121   0.951
 3547SOL     OW27782   0.050   6.439   7.243
 3547SOL    HW127783   0.004   0.025   7.200
 3547SOL    HW227784   0.055   6.466   7.335
 3548SOL     OW27785   5.412   4.571   0.032
 3548SOL    HW127786   5.457   4.488   0.015
 3548SOL    HW227787   5.437   4.593   0.122
 3549SOL     OW27788   1.738   0.111   5.763
 3549SOL    HW127789   1.778   0.025   5.753
 3549SOL    HW227790   1.678   0.100   5.837
 3550SOL     OW27791   0.072   5.241   5.672
 3550SOL    HW127792   0.124   5.309   5.628
 3550SOL    HW227793   6.482   5.287   5.705
 3551SOL     OW27794   6.088   0.983   1.698
 3551SOL    HW127795   6.074   0.968   1.605
 3551SOL    HW227796   6.139   0.908   1.728
 3552SOL     OW27797   5.309   6.073   6.786
 3552SOL    HW127798   5.342   6.002   6.731
 3552SOL    HW227799   5.285   6.142   6.724
 3553SOL     OW27800   0.944   1.845   1.029
 3553SOL    HW127801   0.920   1.872   1.118
 3553SOL    HW227802   0.935   1.924   0.976
 3554SOL     OW27803   2.409   6.199   5.433
 3554SOL    HW127804   2.439   6.157   5.514
 3554SOL    HW227805   2.322   6.233   5.455
 3555SOL     OW27806   6.174   4.176   0.567
 3555SOL    HW127807   6.238   4.134   0.625
 3555SOL    HW227808   6.208   4.160   0.479
 3556SOL     OW27809   0.126   5.036   2.184
 3556SOL    HW127810   0.217   5.052   2.211
 3556SOL    HW227811   0.073   5.076   2.252
 3557SOL     OW27812   4.692   6.196   0.442
 3557SOL    HW127813   4.688   6.108   0.480
 3557SOL    HW227814   4.784   6.221   0.453
 3558SOL     OW27815   0.735   4.809   7.686
 3558SOL    HW127816   0.790   4.861   7.628
 3558SOL    HW227817   0.689   4.874   7.739
 3559SOL     OW27818   3.028   5.147   0.363
 3559SOL    HW127819   3.068   5.233   0.350
 3559SOL    HW227820   3.024   5.109   0.275
 3560SOL     OW27821   3.751   5.228   5.658
 3560SOL    HW127822   3.846   5.232   5.662
 3560SOL    HW227823   3.732   5.213   5.565
 3561SOL     OW27824   3.859   4.928   6.619
 3561SOL    HW127825   3.803   4.850   6.624
 3561SOL    HW227826   3.936   4.905   6.671
 3562SOL     OW27827   1.410   2.671   7.301
 3562SOL    HW127828   1.358   2.707   7.229
 3562SOL    HW227829   1.501   2.673   7.269
 3563SOL     OW27830   2.268   2.011   2.010
 3563SOL    HW127831   2.326   2.059   2.068
 3563SOL    HW227832   2.208   2.078   1.977
 3564SOL     OW27833   6.441   4.325   5.652
 3564SOL    HW127834   0.049   4.330   5.633
 3564SOL    HW227835   6.418   4.235   5.629
 3565SOL     OW27836   3.420   3.001   6.910
 3565SOL    HW127837   3.482   3.031   6.843
 3565SOL    HW227838   3.437   2.907   6.918
 3566SOL     OW27839   3.902   1.470   1.781
 3566SOL    HW127840   3.920   1.520   1.701
 3566SOL    HW227841   3.957   1.511   1.848
 3567SOL     OW27842   6.112   4.533   7.132
 3567SOL    HW127843   6.117   4.455   7.189
 3567SOL    HW227844   6.026   4.525   7.090
 3568SOL     OW27845   2.742   0.518   1.487
 3568SOL    HW127846   2.802   0.547   1.418
 3568SOL    HW227847   2.769   0.429   1.507
 3569SOL     OW27848   2.657   3.516   1.256
 3569SOL    HW127849   2.577   3.552   1.294
 3569SOL    HW227850   2.695   3.463   1.326
 3570SOL     OW27851   3.751   4.719   5.965
 3570SOL    HW127852   3.795   4.776   6.028
 3570SOL    HW227853   3.658   4.730   5.985
 3571SOL     OW27854   0.781   0.900   7.621
 3571SOL    HW127855   0.789   0.903   7.716
 3571SOL    HW227856   0.790   0.991   7.592
 3572SOL     OW27857   3.128   3.916   1.812
 3572SOL    HW127858   3.217   3.952   1.817
 3572SOL    HW227859   3.122   3.859   1.888
 3573SOL     OW27860   6.001   4.098   5.496
 3573SOL    HW127861   6.034   4.050   5.419
 3573SOL    HW227862   5.979   4.185   5.462
 3574SOL     OW27863   1.771   4.001   1.475
 3574SOL    HW127864   1.853   4.024   1.520
 3574SOL    HW227865   1.799   3.968   1.390
 3575SOL     OW27866   3.856   2.326   5.520
 3575SOL    HW127867   3.897   2.352   5.437
 3575SOL    HW227868   3.898   2.381   5.586
 3576SOL     OW27869   3.918   5.693   6.572
 3576SOL    HW127870   3.870   5.632   6.627
 3576SOL    HW227871   3.922   5.651   6.486
 3577SOL     OW27872   1.028   1.244   7.381
 3577SOL    HW127873   1.082   1.170   7.408
 3577SOL    HW227874   1.090   1.317   7.374
 3578SOL     OW27875   1.516   4.935   7.564
 3578SOL    HW127876   1.516   4.944   7.469
 3578SOL    HW227877   1.605   4.960   7.590
 3579SOL     OW27878   3.220   3.109   6.163
 3579SOL    HW127879   3.268   3.027   6.174
 3579SOL    HW227880   3.190   3.108   6.072
 3580SOL     OW27881   0.146   5.529   6.244
 3580SOL    HW127882   0.132   5.541   6.150
 3580SOL    HW227883   0.141   5.617   6.282
 3581SOL     OW27884   2.495   1.996   1.052
 3581SOL    HW127885   2.425   2.061   1.057
 3581SOL    HW227886   2.566   2.034   1.104
 3582SOL     OW27887   2.457   1.798   6.968
 3582SOL    HW127888   2.391   1.844   7.021
 3582SOL    HW227889   2.462   1.711   7.006
 3583SOL     OW27890   2.036   0.880   0.173
 3583SOL    HW127891   2.018   0.850   0.263
 3583SOL    HW227892   2.110   0.828   0.145
 3584SOL     OW27893   3.072   4.313   7.552
 3584SOL    HW127894   2.984   4.347   7.539
 3584SOL    HW227895   3.079   4.239   7.491
 3585SOL     OW27896   3.090   5.118   7.169
 3585SOL    HW127897   3.153   5.059   7.211
 3585SOL    HW227898   3.128   5.137   7.084
 3586SOL     OW27899   2.609   3.962   6.200
 3586SOL    HW127900   2.660   4.041   6.184
 3586SOL    HW227901   2.635   3.902   6.130
 3587SOL     OW27902   2.518   3.466   5.221
 3587SOL    HW127903   2.501   3.516   5.141
 3587SOL    HW227904   2.433   3.432   5.247
 3588SOL     OW27905   2.534   5.726   7.124
 3588SOL    HW127906   2.517   5.643   7.169
 3588SOL    HW227907   2.552   5.702   7.034
 3589SOL     OW27908   1.925   6.293   0.413
 3589SOL    HW127909   1.913   6.384   0.440
 3589SOL    HW227910   2.015   6.272   0.439
 3590SOL     OW27911   1.192   3.817   0.887
 3590SOL    HW127912   1.245   3.890   0.856
 3590SOL    HW227913   1.102   3.845   0.872
 3591SOL     OW27914   0.446   1.374   6.903
 3591SOL    HW127915   0.361   1.405   6.871
 3591SOL    HW227916   0.472   1.439   6.968
 3592SOL     OW27917   4.045   5.894   1.672
 3592SOL    HW127918   3.973   5.878   1.733
 3592SOL    HW227919   4.052   5.989   1.667
 3593SOL     OW27920   5.111   3.844   0.840
 3593SOL    HW127921   5.084   3.834   0.931
 3593SOL    HW227922   5.182   3.908   0.844
 3594SOL     OW27923   2.994   4.388   5.842
 3594SOL    HW127924   3.011   4.434   5.760
 3594SOL    HW227925   2.953   4.306   5.816
 3595SOL     OW27926   3.758   4.234   5.682
 3595SOL    HW127927   3.808   4.195   5.753
 3595SOL    HW227928   3.818   4.235   5.608
 3596SOL     OW27929   2.061   2.678   5.944
 3596SOL    HW127930   2.142   2.646   5.904
 3596SOL    HW227931   2.079   2.770   5.964
 3597SOL     OW27932   6.256   3.667   1.736
 3597SOL    HW127933   6.333   3.630   1.781
 3597SOL    HW227934   6.288   3.748   1.696
 3598SOL     OW27935   3.795   3.428   1.818
 3598SOL    HW127936   3.861   3.496   1.799
 3598SOL    HW227937   3.785   3.432   1.913
 3599SOL     OW27938   0.771   0.911   5.860
 3599SOL    HW127939   0.809   0.823   5.862
 3599SOL    HW227940   0.847   0.969   5.864
 3600SOL     OW27941   2.294   4.262   1.333
 3600SOL    HW127942   2.266   4.255   1.425
 3600SOL    HW227943   2.217   4.236   1.283
 3601SOL     OW27944   1.075   2.180   1.382
 3601SOL    HW127945   1.111   2.096   1.350
 3601SOL    HW227946   1.132   2.204   1.454
 3602SOL     OW27947   4.204   4.386   1.007
 3602SOL    HW127948   4.278   4.446   1.011
 3602SOL    HW227949   4.244   4.300   0.989
 3603SOL     OW27950   2.924   4.636   4.963
 3603SOL    HW127951   2.845   4.689   4.954
 3603SOL    HW227952   2.940   4.601   4.876
 3604SOL     OW27953   0.896   3.019   1.086
 3604SOL    HW127954   0.899   3.047   0.994
 3604SOL    HW227955   0.923   2.927   1.083
 3605SOL     OW27956   4.107   5.442   1.076
 3605SOL    HW127957   4.045   5.386   1.028
 3605SOL    HW227958   4.179   5.455   1.015
 3606SOL     OW27959   1.708   3.368   0.417
 3606SOL    HW127960   1.634   3.427   0.433
 3606SOL    HW227961   1.783   3.426   0.402
 3607SOL     OW27962   3.687   0.899   6.362
 3607SOL    HW127963   3.622   0.962   6.393
 3607SOL    HW227964   3.680   0.901   6.267
 3608SOL     OW27965   5.489   5.585   6.409
 3608SOL    HW127966   5.411   5.606   6.358
 3608SOL    HW227967   5.517   5.668   6.446
 3609SOL     OW27968   4.777   0.447   5.318
 3609SOL    HW127969   4.810   0.522   5.269
 3609SOL    HW227970   4.816   0.455   5.405
 3610SOL     OW27971   5.507   4.041   7.490
 3610SOL    HW127972   5.431   4.090   7.521
 3610SOL    HW227973   5.538   4.090   7.413
 3611SOL     OW27974   3.247   4.805   1.699
 3611SOL    HW127975   3.236   4.836   1.789
 3611SOL    HW227976   3.208   4.874   1.645
 3612SOL     OW27977   4.016   2.201   1.265
 3612SOL    HW127978   3.970   2.283   1.249
 3612SOL    HW227979   4.106   2.217   1.237
 3613SOL     OW27980   1.986   3.747   0.133
 3613SOL    HW127981   1.934   3.810   0.184
 3613SOL    HW227982   1.921   3.687   0.096
 3614SOL     OW27983   1.384   2.929   1.167
 3614SOL    HW127984   1.338   2.966   1.243
 3614SOL    HW227985   1.332   2.852   1.143
 3615SOL     OW27986   6.056   1.257   2.080
 3615SOL    HW127987   5.967   1.291   2.067
 3615SOL    HW227988   6.086   1.234   1.992
 3616SOL     OW27989   0.840   3.408   0.922
 3616SOL    HW127990   0.764   3.356   0.948
 3616SOL    HW227991   0.835   3.410   0.826
 3617SOL     OW27992   3.731   0.832   7.555
 3617SOL    HW127993   3.747   0.927   7.550
 3617SOL    HW227994   3.751   0.800   7.468
 3618SOL     OW27995   2.582   0.743   7.351
 3618SOL    HW127996   2.570   0.787   7.268
 3618SOL    HW227997   2.666   0.697   7.342
 3619SOL     OW27998   3.893   5.415   7.633
 3619SOL    HW127999   3.970   5.413   7.690
 3619SOL    HW228000   3.819   5.415   7.694
 3620SOL     OW28001   2.207   3.271   0.613
 3620SOL    HW128002   2.284   3.322   0.641
 3620SOL    HW228003   2.195   3.296   0.521
 3621SOL     OW28004   4.071   5.124   0.501
 3621SOL    HW128005   4.145   5.183   0.484
 3621SOL    HW228006   4.089   5.088   0.588
 3622SOL     OW28007   1.380   6.145   1.220
 3622SOL    HW128008   1.320   6.211   1.255
 3622SOL    HW228009   1.366   6.148   1.126
 3623SOL     OW28010   5.523   6.372   6.333
 3623SOL    HW128011   5.518   6.466   6.317
 3623SOL    HW228012   5.539   6.334   6.246
 3624SOL     OW28013   3.321   0.941   0.569
 3624SOL    HW128014   3.374   0.967   0.645
 3624SOL    HW228015   3.292   0.853   0.590
 3625SOL     OW28016   3.376   1.072   6.221
 3625SOL    HW128017   3.387   1.008   6.150
 3625SOL    HW228018   3.353   1.019   6.297
 3626SOL     OW28019   2.169   1.941   6.894
 3626SOL    HW128020   2.175   1.967   6.802
 3626SOL    HW228021   2.075   1.926   6.908
 3627SOL     OW28022   1.138   5.130   0.414
 3627SOL    HW128023   1.173   5.218   0.400
 3627SOL    HW228024   1.129   5.094   0.326
 3628SOL     OW28025   5.593   3.670   1.459
 3628SOL    HW128026   5.597   3.758   1.498
 3628SOL    HW228027   5.501   3.660   1.434
 3629SOL     OW28028   5.917   2.903   6.996
 3629SOL    HW128029   5.857   2.970   6.965
 3629SOL    HW228030   5.925   2.918   7.090
 3630SOL     OW28031   0.056   6.055   0.340
 3630SOL    HW128032   0.020   6.084   0.257
 3630SOL    HW228033   0.110   6.127   0.370
 3631SOL     OW28034   2.844   4.965   0.993
 3631SOL    HW128035   2.865   5.052   1.027
 3631SOL    HW228036   2.818   4.980   0.902
 3632SOL     OW28037   4.603   1.756   0.770
 3632SOL    HW128038   4.649   1.783   0.849
 3632SOL    HW228039   4.573   1.837   0.729
 3633SOL     OW28040   6.059   3.084   6.678
 3633SOL    HW128041   6.129   3.087   6.743
 3633SOL    HW228042   6.002   3.013   6.708
 3634SOL     OW28043   0.530   6.483   0.591
 3634SOL    HW128044   0.542   6.410   0.531
 3634SOL    HW228045   0.447   6.463   0.635
 3635SOL     OW28046   4.720   4.853   6.256
 3635SOL    HW128047   4.682   4.935   6.291
 3635SOL    HW228048   4.810   4.854   6.286
 3636SOL     OW28049   3.260   1.699   6.969
 3636SOL    HW128050   3.349   1.717   6.937
 3636SOL    HW228051   3.210   1.682   6.889
 3637SOL     OW28052   1.455   5.359   6.456
 3637SOL    HW128053   1.485   5.424   6.519
 3637SOL    HW228054   1.399   5.408   6.396
 3638SOL     OW28055   5.578   4.022   1.118
 3638SOL    HW128056   5.572   4.039   1.212
 3638SOL    HW228057   5.514   3.952   1.102
 3639SOL     OW28058   1.543   1.604   6.752
 3639SOL    HW128059   1.552   1.600   6.657
 3639SOL    HW228060   1.563   1.695   6.774
 3640SOL     OW28061   5.237   2.917   1.711
 3640SOL    HW128062   5.274   2.927   1.798
 3640SOL    HW228063   5.312   2.897   1.655
 3641SOL     OW28064   1.023   4.100   1.051
 3641SOL    HW128065   1.117   4.085   1.065
 3641SOL    HW228066   1.013   4.195   1.057
 3642SOL     OW28067   1.819   4.486   7.064
 3642SOL    HW128068   1.862   4.503   7.148
 3642SOL    HW228069   1.835   4.564   7.012
 3643SOL     OW28070   3.324   1.159   0.900
 3643SOL    HW128071   3.358   1.107   0.973
 3643SOL    HW228072   3.234   1.179   0.925
 3644SOL     OW28073   5.663   5.327   7.426
 3644SOL    HW128074   5.697   5.313   7.338
 3644SOL    HW228075   5.595   5.394   7.415
 3645SOL     OW28076   1.973   2.826   0.417
 3645SOL    HW128077   1.897   2.772   0.440
 3645SOL    HW228078   2.047   2.765   0.420
 3646SOL     OW28079   2.184   4.595   6.846
 3646SOL    HW128080   2.212   4.638   6.926
 3646SOL    HW228081   2.228   4.643   6.776
 3647SOL     OW28082   5.130   5.363   6.855
 3647SOL    HW128083   5.206   5.347   6.910
 3647SOL    HW228084   5.122   5.285   6.801
 3648SOL     OW28085   0.893   5.591   0.122
 3648SOL    HW128086   0.892   5.507   0.168
 3648SOL    HW228087   0.952   5.646   0.173
 3649SOL     OW28088   0.552   4.234   1.270
 3649SOL    HW128089   0.554   4.166   1.202
 3649SOL    HW228090   0.504   4.194   1.342
 3650SOL     OW28091   1.926   0.553   7.551
 3650SOL    HW128092   1.880   0.544   7.635
 3650SOL    HW228093   1.985   0.477   7.548
 3651SOL     OW28094   3.840   1.149   1.461
 3651SOL    HW128095   3.842   1.244   1.448
 3651SOL    HW228096   3.929   1.120   1.443
 3652SOL     OW28097   1.578   5.694   0.189
 3652SOL    HW128098   1.613   5.782   0.206
 3652SOL    HW228099   1.521   5.706   0.113
 3653SOL     OW28100   6.101   0.462   6.258
 3653SOL    HW128101   6.035   0.463   6.328
 3653SOL    HW228102   6.172   0.408   6.292
 3654SOL     OW28103   4.516   2.299   0.068
 3654SOL    HW128104   4.542   2.264   0.153
 3654SOL    HW228105   4.546   2.234   0.005
 3655SOL     OW28106   2.687   3.503   0.478
 3655SOL    HW128107   2.678   3.594   0.505
 3655SOL    HW228108   2.647   3.501   0.390
 3656SOL     OW28109   5.321   5.637   7.621
 3656SOL    HW128110   5.297   5.712   7.567
 3656SOL    HW228111   5.334   5.674   7.709
 3657SOL     OW28112   5.318   0.499   1.211
 3657SOL    HW128113   5.375   0.546   1.151
 3657SOL    HW228114   5.240   0.554   1.219
 3658SOL     OW28115   6.267   0.718   7.665
 3658SOL    HW128116   6.305   0.643   7.711
 3658SOL    HW228117   6.212   0.761   7.731
 3659SOL     OW28118   0.157   5.515   1.488
 3659SOL    HW128119   0.133   5.512   1.580
 3659SOL    HW228120   0.134   5.604   1.460
 3660SOL     OW28121   2.539   0.794   0.071
 3660SOL    HW128122   2.483   0.726   0.108
 3660SOL    HW228123   2.615   0.796   0.128
 3661SOL     OW28124   0.418   5.107   1.095
 3661SOL    HW128125   0.512   5.109   1.110
 3661SOL    HW228126   0.408   5.080   1.004
 3662SOL     OW28127   6.291   1.753   7.627
 3662SOL    HW128128   6.262   1.758   7.718
 3662SOL    HW228129   6.253   1.830   7.585
 3663SOL     OW28130   5.180   0.590   0.815
 3663SOL    HW128131   5.263   0.598   0.863
 3663SOL    HW228132   5.143   0.507   0.846
 3664SOL     OW28133   4.187   0.212   0.881
 3664SOL    HW128134   4.160   0.303   0.896
 3664SOL    HW228135   4.225   0.213   0.793
 3665SOL     OW28136   2.625   4.371   6.290
 3665SOL    HW128137   2.709   4.350   6.249
 3665SOL    HW228138   2.631   4.465   6.309
 3666SOL     OW28139   0.426   1.601   6.515
 3666SOL    HW128140   0.368   1.530   6.539
 3666SOL    HW228141   0.426   1.601   6.419
 3667SOL     OW28142   1.807   0.722   7.769
 3667SOL    HW128143   1.899   0.698   7.772
 3667SOL    HW228144   1.791   0.745   7.678
 3668SOL     OW28145   4.107   4.814   1.561
 3668SOL    HW128146   4.173   4.784   1.623
 3668SOL    HW228147   4.038   4.748   1.565
 3669SOL     OW28148   1.260   0.393   2.433
 3669SOL    HW128149   1.348   0.421   2.406
 3669SOL    HW228150   1.240   0.318   2.376
 3670SOL     OW28151   0.632   4.893   6.567
 3670SOL    HW128152   0.650   4.935   6.652
 3670SOL    HW228153   0.545   4.855   6.578
 3671SOL     OW28154   3.938   2.585   1.043
 3671SOL    HW128155   3.875   2.625   1.103
 3671SOL    HW228156   3.903   2.602   0.956
 3672SOL     OW28157   1.841   6.144   1.903
 3672SOL    HW128158   1.873   6.234   1.899
 3672SOL    HW228159   1.909   6.092   1.861
 3673SOL     OW28160   2.683   2.421   6.637
 3673SOL    HW128161   2.631   2.497   6.613
 3673SOL    HW228162   2.683   2.421   6.732
 3674SOL     OW28163   0.885   0.439   1.870
 3674SOL    HW128164   0.845   0.362   1.911
 3674SOL    HW228165   0.892   0.417   1.778
 3675SOL     OW28166   3.617   0.277   5.996
 3675SOL    HW128167   3.566   0.212   6.044
 3675SOL    HW228168   3.553   0.322   5.941
 3676SOL     OW28169   0.883   0.606   7.664
 3676SOL    HW128170   0.815   0.611   7.597
 3676SOL    HW228171   0.877   0.689   7.712
 3677SOL     OW28172   1.695   0.899   0.437
 3677SOL    HW128173   1.773   0.844   0.430
 3677SOL    HW228174   1.677   0.927   0.347
 3678SOL     OW28175   1.994   1.894   7.570
 3678SOL    HW128176   2.088   1.883   7.556
 3678SOL    HW228177   1.953   1.848   7.496
 3679SOL     OW28178   5.734   3.099   1.587
 3679SOL    HW128179   5.718   3.172   1.647
 3679SOL    HW228180   5.681   3.027   1.623
 3680SOL     OW28181   3.844   5.039   1.096
 3680SOL    HW128182   3.857   5.044   1.191
 3680SOL    HW228183   3.752   5.064   1.084
 3681SOL     OW28184   4.532   1.030   0.539
 3681SOL    HW128185   4.578   0.963   0.589
 3681SOL    HW228186   4.440   1.016   0.560
 3682SOL     OW28187   0.230   4.372   5.617
 3682SOL    HW128188   0.274   4.416   5.690
 3682SOL    HW228189   0.273   4.287   5.611
 3683SOL     OW28190   3.153   0.617   1.717
 3683SOL    HW128191   3.089   0.664   1.769
 3683SOL    HW228192   3.229   0.607   1.775
 3684SOL     OW28193   3.853   4.144   5.956
 3684SOL    HW128194   3.850   4.203   6.032
 3684SOL    HW228195   3.945   4.141   5.931
 3685SOL     OW28196   5.028   3.361   0.102
 3685SOL    HW128197   5.075   3.292   0.056
 3685SOL    HW228198   5.092   3.397   0.164
 3686SOL     OW28199   3.337   3.451   0.706
 3686SOL    HW128200   3.334   3.537   0.663
 3686SOL    HW228201   3.346   3.389   0.634
 3687SOL     OW28202   3.571   2.395   5.538
 3687SOL    HW128203   3.582   2.489   5.524
 3687SOL    HW228204   3.648   2.354   5.498
 3688SOL     OW28205   5.561   1.873   0.066
 3688SOL    HW128206   5.617   1.909   0.135
 3688SOL    HW228207   5.501   1.815   0.111
 3689SOL     OW28208   4.039   3.287   0.431
 3689SOL    HW128209   4.004   3.205   0.466
 3689SOL    HW228210   3.962   3.337   0.405
 3690SOL     OW28211   4.129   5.400   7.256
 3690SOL    HW128212   4.210   5.376   7.299
 3690SOL    HW228213   4.073   5.323   7.264
 3691SOL     OW28214   0.083   6.048   2.026
 3691SOL    HW128215   0.090   5.975   1.964
 3691SOL    HW228216   0.093   6.126   1.972
 3692SOL     OW28217   5.398   0.232   0.842
 3692SOL    HW128218   5.331   0.250   0.907
 3692SOL    HW228219   5.464   0.300   0.855
 3693SOL     OW28220   2.916   5.556   1.358
 3693SOL    HW128221   2.833   5.515   1.335
 3693SOL    HW228222   2.976   5.483   1.374
 3694SOL     OW28223   3.169   3.035   1.430
 3694SOL    HW128224   3.115   2.976   1.378
 3694SOL    HW228225   3.133   3.122   1.413
 3695SOL     OW28226   1.837   4.711   5.031
 3695SOL    HW128227   1.885   4.713   5.114
 3695SOL    HW228228   1.837   4.619   5.005
 3696SOL     OW28229   5.230   1.609   6.586
 3696SOL    HW128230   5.207   1.568   6.670
 3696SOL    HW228231   5.148   1.649   6.556
 3697SOL     OW28232   5.656   1.725   7.302
 3697SOL    HW128233   5.713   1.740   7.377
 3697SOL    HW228234   5.569   1.749   7.333
 3698SOL     OW28235   4.768   2.366   0.848
 3698SOL    HW128236   4.708   2.439   0.860
 3698SOL    HW228237   4.847   2.391   0.896
 3699SOL     OW28238   4.655   4.493   5.784
 3699SOL    HW128239   4.677   4.503   5.692
 3699SOL    HW228240   4.594   4.565   5.802
 3700SOL     OW28241   0.183   0.275   6.609
 3700SOL    HW128242   0.163   0.300   6.519
 3700SOL    HW228243   0.243   0.343   6.640
 3701SOL     OW28244   2.912   0.360   7.730
 3701SOL    HW128245   2.990   0.364   0.011
 3701SOL    HW228246   2.843   0.400   0.007
 3702SOL     OW28247   5.909   3.405   7.409
 3702SOL    HW128248   5.955   3.481   7.443
 3702SOL    HW228249   5.950   3.387   7.324
 3703SOL     OW28250   5.814   0.577   6.234
 3703SOL    HW128251   5.732   0.609   6.271
 3703SOL    HW228252   5.841   0.644   6.172
 3704SOL     OW28253   4.616   5.974   0.531
 3704SOL    HW128254   4.533   5.949   0.572
 3704SOL    HW228255   4.638   5.900   0.474
 3705SOL     OW28256   2.948   4.385   1.743
 3705SOL    HW128257   3.025   4.441   1.746
 3705SOL    HW228258   2.933   4.360   1.834
 3706SOL     OW28259   1.234   6.136   0.571
 3706SOL    HW128260   1.327   6.113   0.568
 3706SOL    HW228261   1.228   6.220   0.526
 3707SOL     OW28262   6.322   3.171   5.796
 3707SOL    HW128263   6.246   3.226   5.778
 3707SOL    HW228264   6.319   3.103   5.728
 3708SOL     OW28265   2.188   1.240   7.098
 3708SOL    HW128266   2.222   1.263   7.185
 3708SOL    HW228267   2.205   1.318   7.045
 3709SOL     OW28268   6.225   2.451   0.588
 3709SOL    HW128269   6.152   2.391   0.573
 3709SOL    HW228270   6.195   2.534   0.552
 3710SOL     OW28271   6.174   1.847   1.378
 3710SOL    HW128272   6.174   1.776   1.441
 3710SOL    HW228273   6.104   1.905   1.406
 3711SOL     OW28274   2.787   2.301   1.555
 3711SOL    HW128275   2.872   2.305   1.511
 3711SOL    HW228276   2.793   2.368   1.624
 3712SOL     OW28277   4.694   1.500   0.719
 3712SOL    HW128278   4.660   1.588   0.733
 3712SOL    HW228279   4.623   1.442   0.747
 3713SOL     OW28280   2.085   6.074   5.381
 3713SOL    HW128281   2.078   5.986   5.418
 3713SOL    HW228282   2.014   6.124   5.424
 3714SOL     OW28283   0.075   1.007   0.857
 3714SOL    HW128284   0.159   0.977   0.821
 3714SOL    HW228285   0.016   1.008   0.781
 3715SOL     OW28286   3.193   4.094   0.889
 3715SOL    HW128287   3.154   4.049   0.815
 3715SOL    HW228288   3.122   4.148   0.925
 3716SOL     OW28289   0.194   4.272   1.601
 3716SOL    HW128290   0.160   4.358   1.576
 3716SOL    HW228291   0.267   4.257   1.541
 3717SOL     OW28292   1.220   6.368   0.111
 3717SOL    HW128293   1.133   6.386   0.075
 3717SOL    HW228294   1.277   6.361   0.034
 3718SOL     OW28295   3.598   4.860   4.869
 3718SOL    HW128296   3.581   4.798   4.941
 3718SOL    HW228297   3.614   4.943   4.913
 3719SOL     OW28298   3.419   3.878   0.659
 3719SOL    HW128299   3.464   3.829   0.591
 3719SOL    HW228300   3.462   3.853   0.740
 3720SOL     OW28301   1.718   2.324   7.268
 3720SOL    HW128302   1.749   2.398   7.320
 3720SOL    HW228303   1.692   2.363   7.184
 3721SOL     OW28304   5.476   5.787   1.606
 3721SOL    HW128305   5.494   5.824   1.692
 3721SOL    HW228306   5.557   5.800   1.557
 3722SOL     OW28307   3.059   4.769   6.355
 3722SOL    HW128308   2.989   4.823   6.318
 3722SOL    HW228309   3.126   4.769   6.287
 3723SOL     OW28310   1.923   4.681   1.220
 3723SOL    HW128311   2.004   4.678   1.270
 3723SOL    HW228312   1.937   4.749   1.155
 3724SOL     OW28313   2.489   4.911   1.318
 3724SOL    HW128314   2.488   4.948   1.406
 3724SOL    HW228315   2.401   4.924   1.284
 3725SOL     OW28316   3.706   6.101   0.957
 3725SOL    HW128317   3.743   6.077   1.042
 3725SOL    HW228318   3.718   6.024   0.902
 3726SOL     OW28319   1.431   3.166   7.278
 3726SOL    HW128320   1.433   3.261   7.268
 3726SOL    HW228321   1.464   3.149   7.366
 3727SOL     OW28322   5.959   2.689   1.383
 3727SOL    HW128323   6.020   2.662   1.315
 3727SOL    HW228324   5.879   2.713   1.336
 3728SOL     OW28325   6.171   2.691   1.172
 3728SOL    HW128326   6.230   2.765   1.157
 3728SOL    HW228327   6.187   2.665   1.262
 3729SOL     OW28328   0.708   6.463   1.214
 3729SOL    HW128329   0.694   0.017   1.300
 3729SOL    HW228330   0.739   6.375   1.233
 3730SOL     OW28331   2.017   4.624   6.564
 3730SOL    HW128332   2.107   4.590   6.568
 3730SOL    HW228333   1.963   4.546   6.550
 3731SOL     OW28334   5.889   4.189   0.650
 3731SOL    HW128335   5.981   4.192   0.623
 3731SOL    HW228336   5.880   4.105   0.696
 3732SOL     OW28337   3.758   4.337   1.390
 3732SOL    HW128338   3.728   4.281   1.462
 3732SOL    HW228339   3.838   4.295   1.359
 3733SOL     OW28340   3.877   4.266   6.207
 3733SOL    HW128341   3.824   4.341   6.234
 3733SOL    HW228342   3.960   4.278   6.252
 3734SOL     OW28343   1.438   3.825   0.538
 3734SOL    HW128344   1.343   3.835   0.529
 3734SOL    HW228345   1.459   3.871   0.619
 3735SOL     OW28346   0.896   3.922   1.219
 3735SOL    HW128347   0.907   3.946   1.311
 3735SOL    HW228348   0.954   3.982   1.171
 3736SOL     OW28349   1.224   1.571   1.233
 3736SOL    HW128350   1.255   1.557   1.323
 3736SOL    HW228351   1.156   1.638   1.242
 3737SOL     OW28352   5.172   1.353   7.061
 3737SOL    HW128353   5.176   1.259   7.078
 3737SOL    HW228354   5.078   1.374   7.064
 3738SOL     OW28355   2.185   5.387   5.363
 3738SOL    HW128356   2.230   5.410   5.282
 3738SOL    HW228357   2.246   5.412   5.432
 3739SOL     OW28358   2.493   1.075   7.232
 3739SOL    HW128359   2.449   1.081   7.317
 3739SOL    HW228360   2.457   0.996   7.192
 3740SOL     OW28361   2.517   1.634   6.703
 3740SOL    HW128362   2.605   1.653   6.669
 3740SOL    HW228363   2.505   1.541   6.685
 3741SOL     OW28364   0.200   2.708   5.904
 3741SOL    HW128365   0.286   2.720   5.863
 3741SOL    HW228366   0.169   2.624   5.869
 3742SOL     OW28367   0.489   6.038   5.391
 3742SOL    HW128368   0.459   6.128   5.405
 3742SOL    HW228369   0.443   5.986   5.457
 3743SOL     OW28370   5.465   5.577   0.270
 3743SOL    HW128371   5.440   5.488   0.295
 3743SOL    HW228372   5.557   5.570   0.246
 3744SOL     OW28373   3.369   6.063   7.475
 3744SOL    HW128374   3.366   5.978   7.520
 3744SOL    HW228375   3.278   6.085   7.458
 3745SOL     OW28376   5.834   2.925   6.689
 3745SOL    HW128377   5.777   2.875   6.748
 3745SOL    HW228378   5.878   2.858   6.636
 3746SOL     OW28379   2.780   0.778   5.558
 3746SOL    HW128380   2.731   0.836   5.499
 3746SOL    HW228381   2.872   0.797   5.539
 3747SOL     OW28382   1.034   1.392   0.562
 3747SOL    HW128383   1.104   1.415   0.501
 3747SOL    HW228384   1.025   1.297   0.554
 3748SOL     OW28385   3.682   4.262   7.545
 3748SOL    HW128386   3.773   4.233   7.551
 3748SOL    HW228387   3.631   4.182   7.559
 3749SOL     OW28388   3.952   4.515   0.116
 3749SOL    HW128389   3.909   4.591   0.077
 3749SOL    HW228390   4.030   4.551   0.159
 3750SOL     OW28391   6.039   5.012   1.214
 3750SOL    HW128392   6.020   4.979   1.302
 3750SOL    HW228393   5.984   5.090   1.206
 3751SOL     OW28394   0.928   5.846   5.678
 3751SOL    HW128395   0.919   5.888   5.763
 3751SOL    HW228396   0.864   5.891   5.622
 3752SOL     OW28397   4.993   3.314   6.391
 3752SOL    HW128398   4.993   3.241   6.328
 3752SOL    HW228399   4.946   3.384   6.346
 3753SOL     OW28400   3.727   3.585   6.895
 3753SOL    HW128401   3.811   3.631   6.890
 3753SOL    HW228402   3.661   3.653   6.880
 3754SOL     OW28403   5.494   3.524   2.563
 3754SOL    HW128404   5.516   3.609   2.601
 3754SOL    HW228405   5.431   3.544   2.494
 3755SOL     OW28406   3.864   5.048   0.713
 3755SOL    HW128407   3.806   4.972   0.710
 3755SOL    HW228408   3.952   5.011   0.723
 3756SOL     OW28409   0.937   4.216   6.214
 3756SOL    HW128410   0.856   4.207   6.163
 3756SOL    HW228411   0.979   4.294   6.177
 3757SOL     OW28412   2.902   1.886   6.142
 3757SOL    HW128413   2.907   1.980   6.159
 3757SOL    HW228414   2.812   1.872   6.114
 3758SOL     OW28415   4.547   6.135   6.469
 3758SOL    HW128416   4.638   6.165   6.471
 3758SOL    HW228417   4.551   6.048   6.431
 3759SOL     OW28418   3.134   1.158   0.545
 3759SOL    HW128419   3.227   1.137   0.554
 3759SOL    HW228420   3.131   1.254   0.547
 3760SOL     OW28421   4.198   4.950   5.682
 3760SOL    HW128422   4.200   4.910   5.769
 3760SOL    HW228423   4.274   4.913   5.637
 3761SOL     OW28424   1.173   3.496   0.699
 3761SOL    HW128425   1.186   3.577   0.649
 3761SOL    HW228426   1.240   3.437   0.666
 3762SOL     OW28427   0.128   4.056   6.738
 3762SOL    HW128428   0.204   4.010   6.773
 3762SOL    HW228429   0.105   4.006   6.659
 3763SOL     OW28430   0.894   0.809   0.106
 3763SOL    HW128431   0.889   0.784   0.199
 3763SOL    HW228432   0.955   0.883   0.104
 3764SOL     OW28433   3.514   3.632   1.241
 3764SOL    HW128434   3.487   3.669   1.157
 3764SOL    HW228435   3.437   3.641   1.297
 3765SOL     OW28436   5.432   2.450   7.620
 3765SOL    HW128437   5.517   2.413   7.598
 3765SOL    HW228438   5.410   2.507   7.546
 3766SOL     OW28439   3.123   1.185   6.411
 3766SOL    HW128440   3.053   1.120   6.403
 3766SOL    HW228441   3.157   1.172   6.500
 3767SOL     OW28442   0.914   2.591   0.850
 3767SOL    HW128443   0.916   2.504   0.812
 3767SOL    HW228444   0.996   2.632   0.821
 3768SOL     OW28445   0.316   1.777   7.303
 3768SOL    HW128446   0.272   1.862   7.304
 3768SOL    HW228447   0.342   1.761   7.394
 3769SOL     OW28448   6.413   4.028   5.942
 3769SOL    HW128449   6.434   3.942   5.980
 3769SOL    HW228450   0.011   4.073   5.939
 3770SOL     OW28451   3.430   4.204   5.924
 3770SOL    HW128452   3.481   4.149   5.984
 3770SOL    HW228453   3.353   4.230   5.973
 3771SOL     OW28454   3.363   2.272   0.035
 3771SOL    HW128455   3.451   2.271   7.774
 3771SOL    HW228456   3.305   2.276   7.734
 3772SOL     OW28457   3.732   2.116   0.301
 3772SOL    HW128458   3.717   2.148   0.213
 3772SOL    HW228459   3.647   2.120   0.344
 3773SOL     OW28460   1.180   3.993   6.092
 3773SOL    HW128461   1.237   4.070   6.094
 3773SOL    HW228462   1.105   4.020   6.040
 3774SOL     OW28463   1.539   0.470   0.513
 3774SOL    HW128464   1.465   0.522   0.484
 3774SOL    HW228465   1.581   0.441   0.432
 3775SOL     OW28466   2.757   2.028   0.214
 3775SOL    HW128467   2.677   2.000   0.170
 3775SOL    HW228468   2.745   2.123   0.227
 3776SOL     OW28469   2.620   4.535   0.927
 3776SOL    HW128470   2.600   4.490   1.009
 3776SOL    HW228471   2.594   4.626   0.943
 3777SOL     OW28472   0.569   3.872   0.729
 3777SOL    HW128473   0.607   3.880   0.816
 3777SOL    HW228474   0.475   3.862   0.745
 3778SOL     OW28475   0.757   6.188   6.602
 3778SOL    HW128476   0.712   6.259   6.556
 3778SOL    HW228477   0.737   6.110   6.551
 3779SOL     OW28478   5.699   0.436   6.509
 3779SOL    HW128479   5.728   0.388   6.431
 3779SOL    HW228480   5.624   0.487   6.478
 3780SOL     OW28481   5.903   5.153   7.652
 3780SOL    HW128482   5.893   5.093   7.578
 3780SOL    HW228483   5.827   5.137   7.707
 3781SOL     OW28484   4.701   5.705   0.450
 3781SOL    HW128485   4.791   5.738   0.452
 3781SOL    HW228486   4.709   5.613   0.477
 3782SOL     OW28487   4.489   1.611   5.561
 3782SOL    HW128488   4.559   1.650   5.613
 3782SOL    HW228489   4.484   1.666   5.482
 3783SOL     OW28490   2.470   2.397   0.799
 3783SOL    HW128491   2.534   2.469   0.798
 3783SOL    HW228492   2.463   2.373   0.891
 3784SOL     OW28493   4.873   4.958   0.669
 3784SOL    HW128494   4.863   4.922   0.581
 3784SOL    HW228495   4.912   4.887   0.720
 3785SOL     OW28496   5.042   3.855   7.459
 3785SOL    HW128497   5.100   3.807   7.518
 3785SOL    HW228498   4.970   3.795   7.442
 3786SOL     OW28499   5.717   0.513   0.685
 3786SOL    HW128500   5.778   0.537   0.754
 3786SOL    HW228501   5.733   0.419   0.670
 3787SOL     OW28502   1.654   1.984   5.520
 3787SOL    HW128503   1.613   2.006   5.604
 3787SOL    HW228504   1.720   2.052   5.508
 3788SOL     OW28505   0.943   2.861   7.113
 3788SOL    HW128506   0.957   2.892   7.024
 3788SOL    HW228507   0.934   2.941   7.166
 3789SOL     OW28508   1.896   6.065   1.597
 3789SOL    HW128509   1.946   6.039   1.675
 3789SOL    HW228510   1.923   6.003   1.529
 3790SOL     OW28511   1.218   2.769   7.099
 3790SOL    HW128512   1.208   2.864   7.102
 3790SOL    HW228513   1.131   2.735   7.117
 3791SOL     OW28514   1.526   4.432   1.694
 3791SOL    HW128515   1.557   4.515   1.730
 3791SOL    HW228516   1.597   4.403   1.636
 3792SOL     OW28517   3.735   0.543   7.610
 3792SOL    HW128518   3.806   0.504   7.559
 3792SOL    HW228519   3.759   0.635   7.618
 3793SOL     OW28520   4.233   5.549   6.115
 3793SOL    HW128521   4.192   5.545   6.029
 3793SOL    HW228522   4.189   5.622   6.159
 3794SOL     OW28523   5.894   2.740   1.034
 3794SOL    HW128524   5.852   2.654   1.031
 3794SOL    HW228525   5.988   2.721   1.037
 3795SOL     OW28526   5.082   2.604   0.238
 3795SOL    HW128527   5.133   2.680   0.212
 3795SOL    HW228528   5.138   2.558   0.301
 3796SOL     OW28529   5.898   1.662   0.322
 3796SOL    HW128530   5.991   1.648   0.339
 3796SOL    HW228531   5.854   1.602   0.381
 3797SOL     OW28532   0.364   1.373   1.648
 3797SOL    HW128533   0.410   1.309   1.703
 3797SOL    HW228534   0.375   1.456   1.695
 3798SOL     OW28535   5.197   4.761   0.109
 3798SOL    HW128536   5.111   4.770   0.068
 3798SOL    HW228537   5.256   4.737   0.037
 3799SOL     OW28538   0.267   3.198   5.791
 3799SOL    HW128539   0.222   3.220   5.710
 3799SOL    HW228540   0.329   3.129   5.766
 3800SOL     OW28541   0.449   2.422   6.303
 3800SOL    HW128542   0.482   2.477   6.232
 3800SOL    HW228543   0.368   2.385   6.268
 3801SOL     OW28544   4.329   2.836   1.610
 3801SOL    HW128545   4.252   2.851   1.556
 3801SOL    HW228546   4.297   2.836   1.699
 3802SOL     OW28547   0.052   5.776   0.245
 3802SOL    HW128548   0.052   5.794   0.151
 3802SOL    HW228549   0.024   5.859   0.285
 3803SOL     OW28550   0.205   3.985   0.750
 3803SOL    HW128551   0.225   3.906   0.700
 3803SOL    HW228552   0.216   3.959   0.842
 3804SOL     OW28553   2.730   3.443   5.457
 3804SOL    HW128554   2.692   3.391   5.387
 3804SOL    HW228555   2.656   3.465   5.513
 3805SOL     OW28556   4.986   5.041   0.038
 3805SOL    HW128557   4.923   5.098   0.083
 3805SOL    HW228558   4.963   4.952   0.067
 3806SOL     OW28559   0.149   0.737   7.541
 3806SOL    HW128560   0.202   0.757   7.618
 3806SOL    HW228561   0.111   0.821   7.516
 3807SOL     OW28562   5.889   2.020   7.098
 3807SOL    HW128563   5.813   1.979   7.057
 3807SOL    HW228564   5.920   1.956   7.162
 3808SOL     OW28565   4.244   2.350   7.132
 3808SOL    HW128566   4.230   2.323   7.222
 3808SOL    HW228567   4.212   2.276   7.080
 3809SOL     OW28568   2.073   3.018   5.634
 3809SOL    HW128569   2.026   3.022   5.717
 3809SOL    HW228570   2.164   3.038   5.657
 3810SOL     OW28571   2.062   3.035   1.045
 3810SOL    HW128572   1.969   3.032   1.065
 3810SOL    HW228573   2.095   2.949   1.072
 3811SOL     OW28574   3.908   6.412   0.483
 3811SOL    HW128575   3.844   6.472   0.443
 3811SOL    HW228576   3.924   6.450   0.570
 3812SOL     OW28577   0.242   0.655   7.276
 3812SOL    HW128578   0.224   0.650   7.370
 3812SOL    HW228579   0.235   0.749   7.256
 3813SOL     OW28580   4.263   5.920   7.616
 3813SOL    HW128581   4.300   5.971   7.688
 3813SOL    HW228582   4.188   5.971   7.586
 3814SOL     OW28583   5.359   5.900   1.400
 3814SOL    HW128584   5.392   5.988   1.416
 3814SOL    HW228585   5.385   5.850   1.477
 3815SOL     OW28586   0.458   2.322   6.934
 3815SOL    HW128587   0.519   2.248   6.935
 3815SOL    HW228588   0.374   2.283   6.912
 3816SOL     OW28589   4.781   1.177   1.636
 3816SOL    HW128590   4.774   1.170   1.731
 3816SOL    HW228591   4.854   1.238   1.622
 3817SOL     OW28592   2.364   3.282   7.229
 3817SOL    HW128593   2.287   3.227   7.212
 3817SOL    HW228594   2.422   3.226   7.281
 3818SOL     OW28595   2.423   1.817   1.905
 3818SOL    HW128596   2.371   1.884   1.949
 3818SOL    HW228597   2.499   1.864   1.871
 3819SOL     OW28598   3.778   0.458   1.378
 3819SOL    HW128599   3.697   0.435   1.424
 3819SOL    HW228600   3.793   0.384   1.319
 3820SOL     OW28601   4.102   3.955   6.406
 3820SOL    HW128602   4.041   3.979   6.475
 3820SOL    HW228603   4.052   3.899   6.347
 3821SOL     OW28604   1.192   0.538   0.888
 3821SOL    HW128605   1.264   0.500   0.838
 3821SOL    HW228606   1.168   0.471   0.951
 3822SOL     OW28607   3.485   3.767   7.302
 3822SOL    HW128608   3.432   3.736   7.375
 3822SOL    HW228609   3.569   3.722   7.313
 3823SOL     OW28610   3.767   0.700   7.264
 3823SOL    HW128611   3.773   0.606   7.250
 3823SOL    HW228612   3.673   0.719   7.262
 3824SOL     OW28613   0.943   0.041   7.082
 3824SOL    HW128614   0.897   6.475   7.147
 3824SOL    HW228615   0.902   0.017   6.999
 3825SOL     OW28616   6.234   2.103   7.160
 3825SOL    HW128617   6.326   2.109   7.136
 3825SOL    HW228618   6.204   2.022   7.119
 3826SOL     OW28619   5.262   3.815   6.956
 3826SOL    HW128620   5.192   3.753   6.975
 3826SOL    HW228621   5.322   3.807   7.031
 3827SOL     OW28622   2.853   4.599   2.010
 3827SOL    HW128623   2.915   4.527   2.017
 3827SOL    HW228624   2.908   4.677   1.997
 3828SOL     OW28625   1.688   0.795   6.837
 3828SOL    HW128626   1.717   0.866   6.894
 3828SOL    HW228627   1.752   0.793   6.766
 3829SOL     OW28628   4.010   5.146   5.688
 3829SOL    HW128629   3.943   5.115   5.750
 3829SOL    HW228630   4.077   5.078   5.690
 3830SOL     OW28631   5.834   0.139   5.399
 3830SOL    HW128632   5.772   0.123   5.327
 3830SOL    HW228633   5.882   0.217   5.372
 3831SOL     OW28634   1.663   5.575   1.110
 3831SOL    HW128635   1.662   5.577   1.206
 3831SOL    HW228636   1.583   5.529   1.086
 3832SOL     OW28637   1.603   1.206   0.377
 3832SOL    HW128638   1.643   1.219   0.462
 3832SOL    HW228639   1.618   1.114   0.356
 3833SOL     OW28640   6.177   1.411   1.397
 3833SOL    HW128641   6.176   1.428   1.303
 3833SOL    HW228642   6.128   1.329   1.407
 3834SOL     OW28643   3.231   2.271   5.759
 3834SOL    HW128644   3.324   2.291   5.769
 3834SOL    HW228645   3.229   2.193   5.704
 3835SOL     OW28646   0.823   3.083   1.358
 3835SOL    HW128647   0.818   3.177   1.340
 3835SOL    HW228648   0.838   3.042   1.273
 3836SOL     OW28649   0.606   3.567   1.421
 3836SOL    HW128650   0.659   3.539   1.495
 3836SOL    HW228651   0.516   3.547   1.447
 3837SOL     OW28652   6.245   3.534   0.425
 3837SOL    HW128653   6.264   3.625   0.443
 3837SOL    HW228654   6.206   3.500   0.506
 3838SOL     OW28655   0.678   0.302   7.312
 3838SOL    HW128656   0.710   0.302   7.222
 3838SOL    HW228657   0.603   0.361   7.311
 3839SOL     OW28658   0.405   2.202   1.034
 3839SOL    HW128659   0.404   2.196   0.939
 3839SOL    HW228660   0.402   2.296   1.052
 3840SOL     OW28661   5.815   6.460   1.859
 3840SOL    HW128662   5.758   6.401   1.908
 3840SOL    HW228663   5.867   0.018   1.926
 3841SOL     OW28664   4.972   3.741   0.631
 3841SOL    HW128665   5.019   3.793   0.696
 3841SOL    HW228666   4.960   3.800   0.557
 3842SOL     OW28667   2.511   3.327   5.998
 3842SOL    HW128668   2.517   3.422   6.010
 3842SOL    HW228669   2.506   3.315   5.903
 3843SOL     OW28670   3.937   3.824   5.974
 3843SOL    HW128671   4.023   3.831   5.933
 3843SOL    HW228672   3.880   3.787   5.906
 3844SOL     OW28673   5.645   3.938   7.705
 3844SOL    HW128674   5.573   3.969   7.759
 3844SOL    HW228675   5.621   3.963   7.616
 3845SOL     OW28676   2.152   3.832   5.603
 3845SOL    HW128677   2.227   3.775   5.587
 3845SOL    HW228678   2.186   3.921   5.594
 3846SOL     OW28679   2.701   0.104   0.702
 3846SOL    HW128680   2.677   0.013   0.719
 3846SOL    HW228681   2.727   0.138   0.788
 3847SOL     OW28682   0.097   1.819   0.177
 3847SOL    HW128683   0.062   1.776   0.099
 3847SOL    HW228684   0.050   1.778   0.249
 3848SOL     OW28685   5.949   3.258   6.964
 3848SOL    HW128686   5.918   3.347   6.952
 3848SOL    HW228687   5.933   3.215   6.880
 3849SOL     OW28688   3.007   3.129   1.797
 3849SOL    HW128689   3.065   3.089   1.863
 3849SOL    HW228690   3.006   3.222   1.820
 3850SOL     OW28691   4.332   4.241   1.356
 3850SOL    HW128692   4.424   4.214   1.362
 3850SOL    HW228693   4.282   4.160   1.367
 3851SOL     OW28694   3.181   3.276   7.135
 3851SOL    HW128695   3.194   3.339   7.206
 3851SOL    HW228696   3.104   3.308   7.088
 3852SOL     OW28697   1.949   0.721   0.422
 3852SOL    HW128698   1.990   0.673   0.493
 3852SOL    HW228699   1.909   0.653   0.367
 3853SOL     OW28700   2.073   4.514   0.766
 3853SOL    HW128701   2.163   4.538   0.744
 3853SOL    HW228702   2.082   4.444   0.831
 3854SOL     OW28703   2.016   4.074   7.302
 3854SOL    HW128704   1.926   4.105   7.317
 3854SOL    HW228705   2.009   3.979   7.306
 3855SOL     OW28706   4.556   6.211   0.212
 3855SOL    HW128707   4.625   6.204   0.278
 3855SOL    HW228708   4.475   6.203   0.262
 3856SOL     OW28709   1.730   1.693   7.592
 3856SOL    HW128710   1.704   1.673   7.502
 3856SOL    HW228711   1.814   1.649   7.604
 3857SOL     OW28712   4.140   4.021   1.378
 3857SOL    HW128713   4.109   4.071   1.303
 3857SOL    HW228714   4.062   4.007   1.432
 3858SOL     OW28715   5.640   3.401   6.287
 3858SOL    HW128716   5.628   3.466   6.356
 3858SOL    HW228717   5.591   3.435   6.213
 3859SOL     OW28718   1.162   1.838   6.324
 3859SOL    HW128719   1.073   1.861   6.299
 3859SOL    HW228720   1.175   1.750   6.289
 3860SOL     OW28721   5.344   3.191   0.441
 3860SOL    HW128722   5.426   3.199   0.392
 3860SOL    HW228723   5.294   3.124   0.393
 3861SOL     OW28724   6.121   2.994   0.142
 3861SOL    HW128725   6.192   3.056   0.122
 3861SOL    HW228726   6.127   2.980   0.236
 3862SOL     OW28727   2.422   3.697   7.559
 3862SOL    HW128728   2.388   3.616   7.523
 3862SOL    HW228729   2.408   3.762   7.490
 3863SOL     OW28730   4.488   5.102   6.209
 3863SOL    HW128731   4.444   5.044   6.271
 3863SOL    HW228732   4.428   5.176   6.200
 3864SOL     OW28733   0.130   1.425   0.469
 3864SOL    HW128734   0.213   1.390   0.437
 3864SOL    HW228735   0.151   1.515   0.496
 3865SOL     OW28736   2.053   3.036   7.532
 3865SOL    HW128737   2.053   2.941   7.519
 3865SOL    HW228738   2.095   3.072   7.454
 3866SOL     OW28739   3.939   3.369   6.904
 3866SOL    HW128740   3.930   3.419   6.985
 3866SOL    HW228741   3.999   3.421   6.850
 3867SOL     OW28742   3.360   2.608   0.792
 3867SOL    HW128743   3.328   2.677   0.733
 3867SOL    HW228744   3.291   2.542   0.790
 3868SOL     OW28745   0.853   3.515   0.181
 3868SOL    HW128746   0.843   3.610   0.175
 3868SOL    HW228747   0.768   3.480   0.154
 3869SOL     OW28748   0.536   0.967   7.213
 3869SOL    HW128749   0.623   0.928   7.226
 3869SOL    HW228750   0.541   1.008   7.126
 3870SOL     OW28751   1.640   3.397   5.327
 3870SOL    HW128752   1.679   3.480   5.354
 3870SOL    HW228753   1.709   3.332   5.343
 3871SOL     OW28754   0.279   3.183   0.240
 3871SOL    HW128755   0.335   3.183   0.317
 3871SOL    HW228756   0.327   3.129   0.176
 3872SOL     OW28757   0.037   0.581   0.599
 3872SOL    HW128758   0.007   0.549   0.684
 3872SOL    HW228759   0.017   0.511   0.538
 3873SOL     OW28760   2.794   3.117   0.258
 3873SOL    HW128761   2.839   3.173   0.321
 3873SOL    HW228762   2.726   3.073   0.308
 3874SOL     OW28763   4.259   1.852   0.003
 3874SOL    HW128764   4.208   1.868   7.699
 3874SOL    HW228765   4.323   1.785   7.752
 3875SOL     OW28766   3.868   2.920   7.047
 3875SOL    HW128767   3.845   2.828   7.033
 3875SOL    HW228768   3.809   2.949   7.116
 3876SOL     OW28769   4.373   2.009   1.273
 3876SOL    HW128770   4.467   2.024   1.261
 3876SOL    HW228771   4.348   2.072   1.341
 3877SOL     OW28772   1.047   0.958   6.173
 3877SOL    HW128773   0.968   0.969   6.120
 3877SOL    HW228774   1.112   0.924   6.111
 3878SOL     OW28775   2.390   3.780   6.829
 3878SOL    HW128776   2.308   3.793   6.876
 3878SOL    HW228777   2.404   3.864   6.784
 3879SOL     OW28778   1.758   5.712   7.101
 3879SOL    HW128779   1.823   5.694   7.033
 3879SOL    HW228780   1.810   5.735   7.178
 3880SOL     OW28781   2.056   5.108   1.301
 3880SOL    HW128782   2.008   5.184   1.333
 3880SOL    HW228783   2.081   5.131   1.212
 3881SOL     OW28784   5.036   3.450   0.635
 3881SOL    HW128785   5.025   3.544   0.621
 3881SOL    HW228786   5.119   3.429   0.593
 3882SOL     OW28787   3.480   2.387   5.819
 3882SOL    HW128788   3.531   2.351   5.746
 3882SOL    HW228789   3.450   2.472   5.787
 3883SOL     OW28790   0.929   3.205   5.462
 3883SOL    HW128791   0.919   3.299   5.451
 3883SOL    HW228792   0.863   3.181   5.527
 3884SOL     OW28793   4.321   2.560   7.012
 3884SOL    HW128794   4.287   2.491   7.069
 3884SOL    HW228795   4.304   2.528   6.923
 3885SOL     OW28796   6.338   2.786   6.333
 3885SOL    HW128797   6.315   2.868   6.378
 3885SOL    HW228798   6.301   2.796   6.245
 3886SOL     OW28799   5.555   1.279   6.159
 3886SOL    HW128800   5.566   1.368   6.191
 3886SOL    HW228801   5.614   1.273   6.084
 3887SOL     OW28802   2.110   4.513   5.325
 3887SOL    HW128803   2.056   4.591   5.312
 3887SOL    HW228804   2.052   4.440   5.306
 3888SOL     OW28805   1.814   3.036   7.665
 3888SOL    HW128806   1.892   3.050   7.612
 3888SOL    HW228807   1.808   2.941   7.675
 3889SOL     OW28808   2.351   4.444   1.794
 3889SOL    HW128809   2.313   4.507   1.856
 3889SOL    HW228810   2.443   4.438   1.821
 3890SOL     OW28811   1.359   5.795   1.894
 3890SOL    HW128812   1.432   5.837   1.940
 3890SOL    HW228813   1.293   5.781   1.961
 3891SOL     OW28814   3.216   4.915   0.825
 3891SOL    HW128815   3.196   4.823   0.809
 3891SOL    HW228816   3.283   4.936   0.759
 3892SOL     OW28817   6.409   2.871   1.143
 3892SOL    HW128818   6.469   2.873   1.069
 3892SOL    HW228819   6.455   2.919   1.212
 3893SOL     OW28820   4.159   6.103   1.433
 3893SOL    HW128821   4.065   6.093   1.421
 3893SOL    HW228822   4.190   6.145   1.353
 3894SOL     OW28823   1.276   4.386   2.191
 3894SOL    HW128824   1.280   4.446   2.116
 3894SOL    HW228825   1.363   4.347   2.194
 3895SOL     OW28826   0.693   0.607   7.441
 3895SOL    HW128827   0.750   0.559   7.382
 3895SOL    HW228828   0.624   0.545   7.465
 3896SOL     OW28829   1.520   2.830   0.440
 3896SOL    HW128830   1.447   2.810   0.382
 3896SOL    HW228831   1.480   2.854   0.523
 3897SOL     OW28832   1.495   4.006   7.732
 3897SOL    HW128833   1.421   4.000   7.672
 3897SOL    HW228834   1.462   4.058   0.030
 3898SOL     OW28835   4.355   6.305   7.022
 3898SOL    HW128836   4.365   6.396   7.050
 3898SOL    HW228837   4.332   6.257   7.101
 3899SOL     OW28838   3.321   3.352   1.534
 3899SOL    HW128839   3.359   3.334   1.448
 3899SOL    HW228840   3.397   3.355   1.593
 3900SOL     OW28841   3.093   3.574   7.704
 3900SOL    HW128842   3.171   3.629   7.692
 3900SOL    HW228843   3.028   3.633   7.743
 3901SOL     OW28844   4.492   4.416   1.604
 3901SOL    HW128845   4.579   4.380   1.622
 3901SOL    HW228846   4.449   4.349   1.551
 3902SOL     OW28847   5.071   3.020   6.418
 3902SOL    HW128848   5.021   3.008   6.499
 3902SOL    HW228849   5.007   3.005   6.349
 3903SOL     OW28850   5.178   5.388   7.471
 3903SOL    HW128851   5.216   5.386   7.559
 3903SOL    HW228852   5.191   5.299   7.438
 3904SOL     OW28853   4.235   4.847   0.411
 3904SOL    HW128854   4.181   4.894   0.347
 3904SOL    HW228855   4.300   4.911   0.439
 3905SOL     OW28856   4.288   4.525   1.436
 3905SOL    HW128857   4.338   4.542   1.516
 3905SOL    HW228858   4.331   4.448   1.397
 3906SOL     OW28859   2.840   3.968   1.270
 3906SOL    HW128860   2.755   3.940   1.238
 3906SOL    HW228861   2.901   3.947   1.200
 3907SOL     OW28862   5.101   5.614   7.309
 3907SOL    HW128863   5.123   5.543   7.370
 3907SOL    HW228864   5.027   5.580   7.259
 3908SOL     OW28865   0.365   5.965   0.381
 3908SOL    HW128866   0.307   5.891   0.398
 3908SOL    HW228867   0.393   5.954   0.290
 3909SOL     OW28868   3.870   3.206   7.341
 3909SOL    HW128869   3.836   3.285   7.382
 3909SOL    HW228870   3.804   3.182   7.275
 3910SOL     OW28871   5.698   6.394   7.630
 3910SOL    HW128872   5.696   6.340   7.551
 3910SOL    HW228873   5.700   6.484   7.598
 3911SOL     OW28874   2.326   5.362   1.907
 3911SOL    HW128875   2.390   5.358   1.836
 3911SOL    HW228876   2.242   5.344   1.865
 3912SOL     OW28877   6.200   0.247   6.604
 3912SOL    HW128878   6.146   0.309   6.555
 3912SOL    HW228879   6.284   0.248   6.558
 3913SOL     OW28880   3.493   1.578   5.649
 3913SOL    HW128881   3.438   1.504   5.674
 3913SOL    HW228882   3.578   1.541   5.630
 3914SOL     OW28883   4.874   6.157   0.753
 3914SOL    HW128884   4.934   6.126   0.821
 3914SOL    HW228885   4.787   6.146   0.791
 3915SOL     OW28886   2.150   4.870   1.344
 3915SOL    HW128887   2.097   4.950   1.331
 3915SOL    HW228888   2.183   4.878   1.433
 3916SOL     OW28889   0.471   5.565   0.192
 3916SOL    HW128890   0.486   5.477   0.158
 3916SOL    HW228891   0.421   5.551   0.272
 3917SOL     OW28892   3.210   2.420   0.473
 3917SOL    HW128893   3.223   2.408   0.567
 3917SOL    HW228894   3.229   2.334   0.436
 3918SOL     OW28895   3.541   5.636   0.533
 3918SOL    HW128896   3.569   5.725   0.553
 3918SOL    HW228897   3.513   5.640   0.441
 3919SOL     OW28898   5.982   6.349   6.313
 3919SOL    HW128899   6.028   6.432   6.320
 3919SOL    HW228900   5.911   6.366   6.251
 3920SOL     OW28901   6.270   2.632   1.410
 3920SOL    HW128902   6.309   2.700   1.465
 3920SOL    HW228903   6.306   2.550   1.445
 3921SOL     OW28904   1.196   5.526   0.058
 3921SOL    HW128905   1.106   5.507   0.033
 3921SOL    HW228906   1.206   5.620   0.042
 3922SOL     OW28907   3.028   2.507   7.687
 3922SOL    HW128908   3.013   2.548   7.602
 3922SOL    HW228909   3.098   2.444   7.672
 3923SOL     OW28910   3.169   3.687   7.157
 3923SOL    HW128911   3.168   3.602   7.201
 3923SOL    HW228912   3.077   3.712   7.152
 3924SOL     OW28913   3.996   1.416   0.352
 3924SOL    HW128914   3.970   1.508   0.352
 3924SOL    HW228915   3.989   1.388   0.261
 3925SOL     OW28916   5.572   4.075   1.392
 3925SOL    HW128917   5.573   3.996   1.447
 3925SOL    HW228918   5.620   4.140   1.442
 3926SOL     OW28919   2.513   2.946   1.117
 3926SOL    HW128920   2.578   3.016   1.119
 3926SOL    HW228921   2.431   2.989   1.141
 3927SOL     OW28922   4.508   2.440   7.273
 3927SOL    HW128923   4.521   2.493   7.195
 3927SOL    HW228924   4.513   2.349   7.242
 3928SOL     OW28925   0.885   0.259   7.657
 3928SOL    HW128926   0.931   0.191   7.608
 3928SOL    HW228927   0.899   0.237   7.749
 3929SOL     OW28928   4.006   1.919   0.593
 3929SOL    HW128929   4.021   1.826   0.576
 3929SOL    HW228930   3.926   1.921   0.646
 3930SOL     OW28931   3.112   1.792   1.102
 3930SOL    HW128932   3.075   1.769   1.187
 3930SOL    HW228933   3.068   1.873   1.077
 3931SOL     OW28934   5.403   0.020   7.720
 3931SOL    HW128935   5.448   0.054   7.643
 3931SOL    HW228936   5.389   6.414   7.701
 3932SOL     OW28937   4.057   1.143   0.938
 3932SOL    HW128938   3.971   1.162   0.901
 3932SOL    HW228939   4.063   1.200   1.014
 3933SOL     OW28940   1.546   1.724   7.020
 3933SOL    HW128941   1.567   1.765   7.104
 3933SOL    HW228942   1.567   1.632   7.032
 3934SOL     OW28943   4.117   0.961   7.026
 3934SOL    HW128944   4.156   0.874   7.029
 3934SOL    HW228945   4.096   0.975   6.934
 3935SOL     OW28946   6.486   3.485   7.474
 3935SOL    HW128947   6.418   3.437   7.427
 3935SOL    HW228948   0.031   3.424   7.541
 3936SOL     OW28949   2.235   3.607   7.080
 3936SOL    HW128950   2.283   3.526   7.097
 3936SOL    HW228951   2.174   3.584   7.009
 3937SOL     OW28952   2.761   0.664   1.209
 3937SOL    HW128953   2.817   0.713   1.269
 3937SOL    HW228954   2.734   0.727   1.143
 3938SOL     OW28955   1.508   5.968   2.052
 3938SOL    HW128956   1.494   6.045   1.998
 3938SOL    HW228957   1.587   5.928   2.016
 3939SOL     OW28958   5.198   2.678   6.665
 3939SOL    HW128959   5.194   2.772   6.651
 3939SOL    HW228960   5.255   2.646   6.595
 3940SOL     OW28961   4.298   1.075   7.358
 3940SOL    HW128962   4.271   1.121   7.278
 3940SOL    HW228963   4.259   1.127   7.429
 3941SOL     OW28964   2.221   6.380   5.212
 3941SOL    HW128965   2.167   6.345   5.141
 3941SOL    HW228966   2.219   6.312   5.279
 3942SOL     OW28967   2.216   6.144   7.078
 3942SOL    HW128968   2.125   6.140   7.109
 3942SOL    HW228969   2.257   6.066   7.114
 3943SOL     OW28970   3.798   0.525   6.924
 3943SOL    HW128971   3.710   0.564   6.931
 3943SOL    HW228972   3.783   0.440   6.883
 3944SOL     OW28973   6.068   4.685   0.973
 3944SOL    HW128974   5.998   4.658   1.032
 3944SOL    HW228975   6.026   4.695   0.888
 3945SOL     OW28976   1.587   0.906   1.308
 3945SOL    HW128977   1.583   1.001   1.318
 3945SOL    HW228978   1.633   0.892   1.225
 3946SOL     OW28979   5.209   4.136   7.734
 3946SOL    HW128980   5.200   4.226   7.765
 3946SOL    HW228981   5.155   4.132   7.655
 3947SOL     OW28982   4.278   1.028   0.656
 3947SOL    HW128983   4.237   1.069   0.580
 3947SOL    HW228984   4.274   1.096   0.724
 3948SOL     OW28985   5.357   2.106   5.680
 3948SOL    HW128986   5.312   2.188   5.659
 3948SOL    HW228987   5.287   2.047   5.708
 3949SOL     OW28988   1.642   3.668   1.695
 3949SOL    HW128989   1.578   3.661   1.766
 3949SOL    HW228990   1.633   3.758   1.664
 3950SOL     OW28991   3.018   0.056   6.802
 3950SOL    HW128992   3.063   0.072   6.719
 3950SOL    HW228993   3.004   6.447   6.804
 3951SOL     OW28994   5.446   6.329   5.563
 3951SOL    HW128995   5.362   6.374   5.557
 3951SOL    HW228996   5.511   6.399   5.565
 3952SOL     OW28997   6.457   0.080   0.577
 3952SOL    HW128998   0.062   0.104   0.559
 3952SOL    HW228999   6.445   6.483   0.531
 3953SOL     OW29000   4.353   3.682   6.866
 3953SOL    HW129001   4.386   3.701   6.953
 3953SOL    HW229002   4.394   3.748   6.810
 3954SOL     OW29003   5.456   3.539   7.572
 3954SOL    HW129004   5.426   3.453   7.542
 3954SOL    HW229005   5.532   3.559   7.517
 3955SOL     OW29006   0.088   4.473   7.419
 3955SOL    HW129007   0.131   4.558   7.430
 3955SOL    HW229008   0.111   4.446   7.330
 3956SOL     OW29009   2.994   3.790   6.913
 3956SOL    HW129010   3.015   3.804   6.820
 3956SOL    HW229011   2.937   3.863   6.936
 3957SOL     OW29012   0.543   1.162   1.693
 3957SOL    HW129013   0.631   1.189   1.717
 3957SOL    HW229014   0.554   1.074   1.657
 3958SOL     OW29015   0.811   6.258   7.563
 3958SOL    HW129016   0.831   6.164   7.563
 3958SOL    HW229017   0.737   6.267   7.622
 3959SOL     OW29018   5.798   3.291   1.284
 3959SOL    HW129019   5.715   3.330   1.256
 3959SOL    HW229020   5.774   3.210   1.328
 3960SOL     OW29021   0.614   5.980   1.120
 3960SOL    HW129022   0.600   6.042   1.192
 3960SOL    HW229023   0.691   6.013   1.074
 3961SOL     OW29024   6.112   5.427   0.843
 3961SOL    HW129025   6.163   5.437   0.923
 3961SOL    HW229026   6.082   5.336   0.844
 3962SOL     OW29027   2.741   2.709   6.963
 3962SOL    HW129028   2.801   2.774   6.999
 3962SOL    HW229029   2.655   2.734   6.997
 3963SOL     OW29030   1.331   2.821   7.763
 3963SOL    HW129031   1.339   2.770   7.682
 3963SOL    HW229032   1.265   2.887   7.744
 3964SOL     OW29033   3.373   1.032   1.145
 3964SOL    HW129034   3.290   1.063   1.182
 3964SOL    HW229035   3.388   0.947   1.186
 3965SOL     OW29036   3.523   1.720   0.311
 3965SOL    HW129037   3.573   1.739   0.391
 3965SOL    HW229038   3.473   1.641   0.332
 3966SOL     OW29039   4.762   3.926   1.637
 3966SOL    HW129040   4.733   3.869   1.708
 3966SOL    HW229041   4.766   4.013   1.676
 3967SOL     OW29042   6.234   1.252   7.736
 3967SOL    HW129043   6.216   1.186   0.027
 3967SOL    HW229044   6.220   1.336   0.005
 3968SOL     OW29045   3.247   5.426   7.326
 3968SOL    HW129046   3.185   5.353   7.322
 3968SOL    HW229047   3.329   5.391   7.291
 3969SOL     OW29048   5.526   6.438   0.182
 3969SOL    HW129049   5.506   6.465   0.092
 3969SOL    HW229050   5.579   0.022   0.218
 3970SOL     OW29051   3.883   0.953   2.320
 3970SOL    HW129052   3.926   0.912   2.245
 3970SOL    HW229053   3.930   0.917   2.396
 3971SOL     OW29054   0.929   5.905   0.421
 3971SOL    HW129055   0.885   5.874   0.500
 3971SOL    HW229056   0.859   5.939   0.366
 3972SOL     OW29057   2.931   1.325   6.248
 3972SOL    HW129058   3.023   1.309   6.268
 3972SOL    HW229059   2.897   1.371   6.325
 3973SOL     OW29060   3.313   1.482   1.365
 3973SOL    HW129061   3.236   1.540   1.369
 3973SOL    HW229062   3.322   1.449   1.455
 3974SOL     OW29063   3.062   5.905   5.999
 3974SOL    HW129064   3.098   5.985   6.037
 3974SOL    HW229065   2.991   5.935   5.943
 3975SOL     OW29066   4.923   4.678   5.603
 3975SOL    HW129067   4.903   4.721   5.686
 3975SOL    HW229068   4.889   4.589   5.612
 3976SOL     OW29069   5.540   1.492   6.816
 3976SOL    HW129070   5.479   1.564   6.833
 3976SOL    HW229071   5.600   1.527   6.749
 3977SOL     OW29072   0.224   1.092   1.063
 3977SOL    HW129073   0.191   1.034   1.131
 3977SOL    HW229074   0.174   1.069   0.985
 3978SOL     OW29075   5.639   1.199   0.524
 3978SOL    HW129076   5.626   1.116   0.479
 3978SOL    HW229077   5.609   1.183   0.613
 3979SOL     OW29078   6.400   2.327   1.962
 3979SOL    HW129079   0.002   2.333   1.997
 3979SOL    HW229080   6.355   2.266   2.020
 3980SOL     OW29081   4.696   5.627   6.322
 3980SOL    HW129082   4.727   5.718   6.328
 3980SOL    HW229083   4.730   5.586   6.401
 3981SOL     OW29084   4.323   4.558   6.653
 3981SOL    HW129085   4.305   4.616   6.726
 3981SOL    HW229086   4.298   4.471   6.684
 3982SOL     OW29087   3.052   2.259   6.406
 3982SOL    HW129088   3.026   2.346   6.436
 3982SOL    HW229089   3.098   2.221   6.481
 3983SOL     OW29090   6.079   0.284   0.068
 3983SOL    HW129091   5.990   0.294   0.100
 3983SOL    HW229092   6.070   0.282   7.748
 3984SOL     OW29093   2.423   3.881   0.606
 3984SOL    HW129094   2.342   3.931   0.615
 3984SOL    HW229095   2.397   3.791   0.627
 3985SOL     OW29096   5.770   4.825   7.310
 3985SOL    HW129097   5.680   4.827   7.342
 3985SOL    HW229098   5.817   4.769   7.373
 3986SOL     OW29099   5.493   5.662   0.891
 3986SOL    HW129100   5.537   5.747   0.896
 3986SOL    HW229101   5.542   5.613   0.824
 3987SOL     OW29102   3.158   2.526   6.348
 3987SOL    HW129103   3.185   2.581   6.422
 3987SOL    HW229104   3.063   2.533   6.346
 3988SOL     OW29105   1.932   5.660   7.718
 3988SOL    HW129106   1.878   5.584   7.739
 3988SOL    HW229107   1.954   5.648   7.625
 3989SOL     OW29108   1.618   3.683   1.264
 3989SOL    HW129109   1.630   3.635   1.182
 3989SOL    HW229110   1.536   3.730   1.253
 3990SOL     OW29111   0.992   2.822   6.197
 3990SOL    HW129112   1.051   2.754   6.164
 3990SOL    HW229113   0.989   2.887   6.126
 3991SOL     OW29114   1.950   1.087   6.464
 3991SOL    HW129115   1.895   1.120   6.393
 3991SOL    HW229116   1.944   1.153   6.533
 3992SOL     OW29117   4.180   4.431   7.071
 3992SOL    HW129118   4.242   4.427   7.144
 3992SOL    HW229119   4.097   4.402   7.109
 3993SOL     OW29120   1.108   6.060   0.288
 3993SOL    HW129121   1.093   6.136   0.344
 3993SOL    HW229122   1.063   5.988   0.332
 3994SOL     OW29123   0.099   1.090   7.611
 3994SOL    HW129124   0.080   1.040   7.691
 3994SOL    HW229125   0.089   1.181   7.637
 3995SOL     OW29126   2.797   6.046   5.876
 3995SOL    HW129127   2.789   6.077   5.966
 3995SOL    HW229128   2.771   5.955   5.879
 3996SOL     OW29129   1.455   5.728   7.032
 3996SOL    HW129130   1.433   5.813   6.995
 3996SOL    HW229131   1.546   5.736   7.059
 3997SOL     OW29132   2.242   0.985   0.365
 3997SOL    HW129133   2.296   0.908   0.381
 3997SOL    HW229134   2.237   0.992   0.270
 3998SOL     OW29135   0.629   0.922   5.595
 3998SOL    HW129136   0.669   0.922   5.682
 3998SOL    HW229137   0.695   0.963   5.538
 3999SOL     OW29138   0.170   0.393   6.320
 3999SOL    HW129139   0.176   0.308   6.276
 3999SOL    HW229140   0.137   0.452   6.252
 4000SOL     OW29141   2.173   6.317   5.577
 4000SOL    HW129142   2.115   6.393   5.570
 4000SOL    HW229143   2.120   6.250   5.620
 4001SOL     OW29144   0.361   1.894   0.211
 4001SOL    HW129145   0.274   1.858   0.199
 4001SOL    HW229146   0.369   1.963   0.145
 4002SOL     OW29147   0.471   4.982   0.419
 4002SOL    HW129148   0.551   4.972   0.368
 4002SOL    HW229149   0.500   4.989   0.510
 4003SOL     OW29150   3.317   5.845   7.598
 4003SOL    HW129151   3.224   5.865   7.610
 4003SOL    HW229152   3.321   5.750   7.601
 4004SOL     OW29153   3.428   5.643   5.743
 4004SOL    HW129154   3.514   5.601   5.748
 4004SOL    HW229155   3.368   5.571   5.724
 4005SOL     OW29156   0.390   4.689   7.600
 4005SOL    HW129157   0.467   4.719   7.649
 4005SOL    HW229158   0.343   4.634   7.662
 4006SOL     OW29159   4.047   3.129   7.715
 4006SOL    HW129160   4.123   3.168   7.759
 4006SOL    HW229161   3.980   3.126   0.007
 4007SOL     OW29162   6.266   5.480   6.689
 4007SOL    HW129163   6.304   5.551   6.638
 4007SOL    HW229164   6.173   5.501   6.695
 4008SOL     OW29165   2.717   2.461   7.323
 4008SOL    HW129166   2.627   2.470   7.289
 4008SOL    HW229167   2.761   2.540   7.293
 4009SOL     OW29168   0.812   6.193   1.469
 4009SOL    HW129169   0.881   6.151   1.520
 4009SOL    HW229170   0.732   6.173   1.516
 4010SOL     OW29171   4.184   5.718   6.618
 4010SOL    HW129172   4.094   5.709   6.589
 4010SOL    HW229173   4.178   5.724   6.713
 4011SOL     OW29174   0.753   1.873   2.017
 4011SOL    HW129175   0.772   1.936   1.947
 4011SOL    HW229176   0.771   1.920   2.098
 4012SOL     OW29177   5.393   2.153   2.696
 4012SOL    HW129178   5.310   2.105   2.699
 4012SOL    HW229179   5.458   2.088   2.667
 4013SOL     OW29180   4.150   5.210   6.962
 4013SOL    HW129181   4.239   5.189   6.935
 4013SOL    HW229182   4.150   5.304   6.978
 4014SOL     OW29183   2.812   2.520   1.058
 4014SOL    HW129184   2.885   2.458   1.058
 4014SOL    HW229185   2.819   2.564   1.143
 4015SOL     OW29186   2.845   5.744   2.264
 4015SOL    HW129187   2.881   5.656   2.263
 4015SOL    HW229188   2.751   5.732   2.247
 4016SOL     OW29189   4.000   3.975   5.624
 4016SOL    HW129190   4.007   3.885   5.655
 4016SOL    HW229191   4.048   3.975   5.541
 4017SOL     OW29192   3.652   1.631   0.844
 4017SOL    HW129193   3.606   1.624   0.761
 4017SOL    HW229194   3.583   1.626   0.910
 4018SOL     OW29195   4.953   2.589   7.527
 4018SOL    HW129196   5.039   2.605   7.567
 4018SOL    HW229197   4.919   2.513   7.574
 4019SOL     OW29198   5.996   2.148   1.804
 4019SOL    HW129199   5.949   2.177   1.882
 4019SOL    HW229200   6.085   2.131   1.835
 4020SOL     OW29201   2.684   1.144   7.699
 4020SOL    HW129202   2.682   1.048   7.698
 4020SOL    HW229203   2.762   1.166   7.749
 4021SOL     OW29204   5.289   0.965   0.427
 4021SOL    HW129205   5.311   0.946   0.518
 4021SOL    HW229206   5.215   0.907   0.408
 4022SOL     OW29207   5.306   1.405   0.757
 4022SOL    HW129208   5.325   1.406   0.851
 4022SOL    HW229209   5.278   1.315   0.739
 4023SOL     OW29210   4.742   1.691   7.493
 4023SOL    HW129211   4.693   1.610   7.507
 4023SOL    HW229212   4.834   1.665   7.497
 4024SOL     OW29213   6.110   3.762   0.926
 4024SOL    HW129214   6.188   3.781   0.874
 4024SOL    HW229215   6.136   3.781   1.017
 4025SOL     OW29216   2.045   6.413   0.872
 4025SOL    HW129217   2.055   6.455   0.787
 4025SOL    HW229218   1.999   6.331   0.854
 4026SOL     OW29219   2.100   2.937   6.047
 4026SOL    HW129220   2.173   3.000   6.042
 4026SOL    HW229221   2.038   2.968   5.981
 4027SOL     OW29222   3.053   3.759   0.803
 4027SOL    HW129223   2.974   3.766   0.749
 4027SOL    HW229224   3.060   3.666   0.824
 4028SOL     OW29225   1.459   0.746   5.318
 4028SOL    HW129226   1.512   0.810   5.365
 4028SOL    HW229227   1.370   0.762   5.349
 4029SOL     OW29228   5.483   5.226   7.196
 4029SOL    HW129229   5.435   5.309   7.200
 4029SOL    HW229230   5.427   5.163   7.242
 4030SOL     OW29231   1.903   4.541   1.788
 4030SOL    HW129232   1.857   4.537   1.704
 4030SOL    HW229233   1.966   4.612   1.777
 4031SOL     OW29234   4.814   5.305   0.108
 4031SOL    HW129235   4.896   5.343   0.076
 4031SOL    HW229236   4.748   5.371   0.086
 4032SOL     OW29237   2.295   4.502   7.769
 4032SOL    HW129238   2.243   4.581   7.753
 4032SOL    HW229239   2.321   4.508   0.085
 4033SOL     OW29240   2.309   0.885   2.000
 4033SOL    HW129241   2.325   0.810   1.943
 4033SOL    HW229242   2.396   0.923   2.015
 4034SOL     OW29243   4.849   2.464   6.859
 4034SOL    HW129244   4.879   2.554   6.848
 4034SOL    HW229245   4.864   2.445   6.952
 4035SOL     OW29246   0.374   6.323   1.346
 4035SOL    HW129247   0.344   6.355   1.431
 4035SOL    HW229248   0.359   6.397   1.286
 4036SOL     OW29249   4.392   5.120   1.096
 4036SOL    HW129250   4.309   5.082   1.068
 4036SOL    HW229251   4.414   5.182   1.026
 4037SOL     OW29252   4.056   0.299   1.917
 4037SOL    HW129253   4.088   0.246   1.990
 4037SOL    HW229254   4.006   0.237   1.864
 4038SOL     OW29255   1.876   0.256   7.725
 4038SOL    HW129256   1.940   0.272   7.656
 4038SOL    HW229257   1.792   0.252   7.679
 4039SOL     OW29258   1.131   0.522   7.737
 4039SOL    HW129259   1.036   0.522   7.725
 4039SOL    HW229260   1.162   0.593   7.682
 4040SOL     OW29261   1.688   1.875   0.179
 4040SOL    HW129262   1.765   1.859   0.123
 4040SOL    HW229263   1.615   1.838   0.129
 4041SOL     OW29264   2.608   4.951   7.110
 4041SOL    HW129265   2.595   4.860   7.137
 4041SOL    HW229266   2.699   4.970   7.133
 4042SOL     OW29267   1.235   0.463   0.204
 4042SOL    HW129268   1.202   0.460   0.114
 4042SOL    HW229269   1.300   0.532   0.205
 4043SOL     OW29270   1.490   0.245   5.518
 4043SOL    HW129271   1.568   0.270   5.469
 4043SOL    HW229272   1.448   0.178   5.463
 4044SOL     OW29273   4.017   5.569   0.580
 4044SOL    HW129274   3.963   5.491   0.594
 4044SOL    HW229275   4.063   5.552   0.498
 4045SOL     OW29276   4.677   1.594   6.801
 4045SOL    HW129277   4.634   1.552   6.875
 4045SOL    HW229278   4.729   1.525   6.760
 4046SOL     OW29279   4.799   4.556   1.435
 4046SOL    HW129280   4.776   4.475   1.480
 4046SOL    HW229281   4.735   4.564   1.365
 4047SOL     OW29282   5.629   2.555   1.237
 4047SOL    HW129283   5.541   2.569   1.201
 4047SOL    HW229284   5.682   2.529   1.161
 4048SOL     OW29285   6.088   4.858   0.112
 4048SOL    HW129286   6.067   4.941   0.153
 4048SOL    HW229287   6.146   4.881   0.039
 4049SOL     OW29288   5.982   4.054   1.895
 4049SOL    HW129289   6.012   4.006   1.972
 4049SOL    HW229290   6.040   4.130   1.889
 4050SOL     OW29291   4.825   3.020   6.282
 4050SOL    HW129292   4.822   3.072   6.201
 4050SOL    HW229293   4.816   2.930   6.253
 4051SOL     OW29294   4.851   4.294   6.801
 4051SOL    HW129295   4.910   4.222   6.821
 4051SOL    HW229296   4.812   4.318   6.885
 4052SOL     OW29297   5.090   0.551   6.030
 4052SOL    HW129298   5.120   0.495   5.959
 4052SOL    HW229299   5.159   0.616   6.040
 4053SOL     OW29300   1.205   6.366   7.315
 4053SOL    HW129301   1.171   6.368   7.405
 4053SOL    HW229302   1.191   6.454   7.282
 4054SOL     OW29303   3.347   2.911   5.840
 4054SOL    HW129304   3.333   2.980   5.775
 4054SOL    HW229305   3.407   2.949   5.904
 4055SOL     OW29306   1.225   1.427   7.361
 4055SOL    HW129307   1.296   1.409   7.300
 4055SOL    HW229308   1.202   1.518   7.345
 4056SOL     OW29309   5.961   0.935   1.444
 4056SOL    HW129310   5.926   0.856   1.485
 4056SOL    HW229311   5.969   0.914   1.352
 4057SOL     OW29312   3.749   1.059   1.729
 4057SOL    HW129313   3.691   1.120   1.775
 4057SOL    HW229314   3.796   1.113   1.666
 4058SOL     OW29315   4.672   2.603   7.074
 4058SOL    HW129316   4.748   2.562   7.115
 4058SOL    HW229317   4.652   2.549   6.998
 4059SOL     OW29318   3.626   4.186   0.825
 4059SOL    HW129319   3.635   4.198   0.919
 4059SOL    HW229320   3.532   4.191   0.809
 4060SOL     OW29321   4.379   1.547   7.729
 4060SOL    HW129322   4.315   1.556   7.658
 4060SOL    HW229323   4.445   1.487   7.694
 4061SOL     OW29324   1.495   0.538   6.354
 4061SOL    HW129325   1.542   0.494   6.425
 4061SOL    HW229326   1.545   0.618   6.339
 4062SOL     OW29327   5.129   0.772   6.467
 4062SOL    HW129328   5.204   0.759   6.409
 4062SOL    HW229329   5.140   0.707   6.536
 4063SOL     OW29330   2.401   4.303   6.181
 4063SOL    HW129331   2.482   4.351   6.199
 4063SOL    HW229332   2.401   4.291   6.086
 4064SOL     OW29333   1.453   4.325   1.428
 4064SOL    HW129334   1.429   4.406   1.473
 4064SOL    HW229335   1.408   4.330   1.343
 4065SOL     OW29336   2.982   3.259   5.512
 4065SOL    HW129337   3.059   3.259   5.569
 4065SOL    HW229338   2.908   3.243   5.572
 4066SOL     OW29339   3.150   3.133   5.871
 4066SOL    HW129340   3.172   3.177   5.789
 4066SOL    HW229341   3.078   3.074   5.849
 4067SOL     OW29342   2.789   4.980   0.703
 4067SOL    HW129343   2.880   5.008   0.704
 4067SOL    HW229344   2.741   5.051   0.747
 4068SOL     OW29345   3.835   2.328   1.676
 4068SOL    HW129346   3.798   2.329   1.587
 4068SOL    HW229347   3.929   2.312   1.662
 4069SOL     OW29348   0.031   3.960   6.247
 4069SOL    HW129349   6.441   4.016   6.258
 4069SOL    HW229350   0.004   3.894   6.183
 4070SOL     OW29351   6.100   4.227   2.399
 4070SOL    HW129352   6.076   4.303   2.346
 4070SOL    HW229353   6.037   4.160   2.375
 4071SOL     OW29354   5.177   5.485   5.635
 4071SOL    HW129355   5.227   5.550   5.586
 4071SOL    HW229356   5.093   5.479   5.589
 4072SOL     OW29357   2.501   4.098   1.064
 4072SOL    HW129358   2.478   4.147   0.985
 4072SOL    HW229359   2.597   4.107   1.070
 4073SOL     OW29360   0.531   3.553   6.374
 4073SOL    HW129361   0.595   3.557   6.303
 4073SOL    HW229362   0.459   3.608   6.345
 4074SOL     OW29363   2.884   3.365   6.277
 4074SOL    HW129364   2.961   3.403   6.234
 4074SOL    HW229365   2.863   3.426   6.347
 4075SOL     OW29366   1.400   0.139   6.449
 4075SOL    HW129367   1.486   0.181   6.439
 4075SOL    HW229368   1.358   0.151   6.364
 4076SOL     OW29369   0.920   1.160   6.813
 4076SOL    HW129370   0.917   1.081   6.867
 4076SOL    HW229371   0.839   1.206   6.834
 4077SOL     OW29372   3.957   2.611   7.546
 4077SOL    HW129373   3.952   2.578   7.457
 4077SOL    HW229374   3.990   2.701   7.537
 4078SOL     OW29375   2.502   1.773   0.474
 4078SOL    HW129376   2.447   1.840   0.435
 4078SOL    HW229377   2.460   1.690   0.449
 4079SOL     OW29378   1.220   0.581   7.091
 4079SOL    HW129379   1.158   0.572   7.163
 4079SOL    HW229380   1.216   0.673   7.067
 4080SOL     OW29381   4.459   1.601   1.556
 4080SOL    HW129382   4.534   1.542   1.562
 4080SOL    HW229383   4.403   1.575   1.630
 4081SOL     OW29384   4.103   1.057   1.555
 4081SOL    HW129385   4.068   0.968   1.558
 4081SOL    HW229386   4.136   1.067   1.466
 4082SOL     OW29387   0.374   1.066   7.555
 4082SOL    HW129388   0.391   0.973   7.539
 4082SOL    HW229389   0.280   1.070   7.574
 4083SOL     OW29390   1.781   5.458   5.937
 4083SOL    HW129391   1.797   5.364   5.930
 4083SOL    HW229392   1.791   5.490   5.848
 4084SOL     OW29393   3.912   5.259   0.956
 4084SOL    HW129394   3.928   5.174   0.997
 4084SOL    HW229395   3.877   5.238   0.870
 4085SOL     OW29396   3.797   3.588   6.605
 4085SOL    HW129397   3.848   3.507   6.611
 4085SOL    HW229398   3.828   3.640   6.679
 4086SOL     OW29399   1.654   3.739   6.657
 4086SOL    HW129400   1.634   3.681   6.731
 4086SOL    HW229401   1.668   3.825   6.696
 4087SOL     OW29402   6.173   1.998   7.468
 4087SOL    HW129403   6.255   2.003   7.419
 4087SOL    HW229404   6.137   2.086   7.466
 4088SOL     OW29405   1.600   2.775   1.189
 4088SOL    HW129406   1.559   2.857   1.215
 4088SOL    HW229407   1.639   2.740   1.270
 4089SOL     OW29408   4.511   5.949   2.242
 4089SOL    HW129409   4.605   5.948   2.257
 4089SOL    HW229410   4.474   5.902   2.317
 4090SOL     OW29411   0.420   2.074   0.029
 4090SOL    HW129412   0.368   2.150   0.001
 4090SOL    HW229413   0.484   2.062   7.735
 4091SOL     OW29414   0.803   1.141   1.810
 4091SOL    HW129415   0.891   1.128   1.844
 4091SOL    HW229416   0.772   1.053   1.789
 4092SOL     OW29417   5.876   0.566   0.891
 4092SOL    HW129418   5.962   0.607   0.885
 4092SOL    HW229419   5.855   0.567   0.984
 4093SOL     OW29420   3.739   1.685   6.737
 4093SOL    HW129421   3.671   1.622   6.714
 4093SOL    HW229422   3.700   1.770   6.717
 4094SOL     OW29423   2.357   5.723   6.838
 4094SOL    HW129424   2.330   5.813   6.854
 4094SOL    HW229425   2.354   5.713   6.743
 4095SOL     OW29426   1.855   0.432   1.258
 4095SOL    HW129427   1.761   0.440   1.274
 4095SOL    HW229428   1.892   0.514   1.292
 4096SOL     OW29429   3.879   1.526   0.954
 4096SOL    HW129430   3.797   1.541   0.908
 4096SOL    HW229431   3.947   1.551   0.891
 4097SOL     OW29432   6.197   5.675   0.008
 4097SOL    HW129433   6.118   5.689   7.732
 4097SOL    HW229434   6.236   5.595   7.747
 4098SOL     OW29435   5.150   0.574   6.648
 4098SOL    HW129436   5.151   0.581   6.743
 4098SOL    HW229437   5.221   0.512   6.628
 4099SOL     OW29438   2.497   6.225   1.106
 4099SOL    HW129439   2.462   6.311   1.085
 4099SOL    HW229440   2.588   6.227   1.076
 4100SOL     OW29441   5.121   4.765   5.934
 4100SOL    HW129442   5.178   4.808   5.871
 4100SOL    HW229443   5.033   4.772   5.895
 4101SOL     OW29444   3.371   4.553   7.080
 4101SOL    HW129445   3.303   4.561   7.013
 4101SOL    HW229446   3.393   4.460   7.080
 4102SOL     OW29447   2.422   0.270   1.082
 4102SOL    HW129448   2.341   0.267   1.133
 4102SOL    HW229449   2.480   0.326   1.133
 4103SOL     OW29450   3.331   4.760   5.574
 4103SOL    HW129451   3.254   4.815   5.563
 4103SOL    HW229452   3.406   4.820   5.566
 4104SOL     OW29453   2.837   4.695   0.695
 4104SOL    HW129454   2.786   4.617   0.673
 4104SOL    HW229455   2.837   4.746   0.614
 4105SOL     OW29456   3.065   5.906   7.719
 4105SOL    HW129457   3.044   5.941   0.030
 4105SOL    HW229458   2.992   5.932   7.664
 4106SOL     OW29459   6.121   3.632   7.059
 4106SOL    HW129460   6.217   3.635   7.061
 4106SOL    HW229461   6.095   3.660   7.147
 4107SOL     OW29462   3.489   3.925   6.663
 4107SOL    HW129463   3.470   4.005   6.613
 4107SOL    HW229464   3.455   3.855   6.608
 4108SOL     OW29465   5.380   2.201   6.324
 4108SOL    HW129466   5.367   2.284   6.278
 4108SOL    HW229467   5.449   2.220   6.388
 4109SOL     OW29468   2.753   3.857   6.615
 4109SOL    HW129469   2.696   3.827   6.544
 4109SOL    HW229470   2.701   3.923   6.661
 4110SOL     OW29471   2.243   1.474   6.972
 4110SOL    HW129472   2.322   1.510   7.012
 4110SOL    HW229473   2.226   1.530   6.896
 4111SOL     OW29474   3.082   0.633   6.884
 4111SOL    HW129475   3.139   0.708   6.900
 4111SOL    HW229476   3.052   0.644   6.794
 4112SOL     OW29477   0.216   2.302   6.162
 4112SOL    HW129478   0.233   2.224   6.108
 4112SOL    HW229479   0.146   2.348   6.116
 4113SOL     OW29480   0.477   0.450   7.219
 4113SOL    HW129481   0.398   0.499   7.242
 4113SOL    HW229482   0.487   0.462   7.124
 4114SOL     OW29483   5.685   3.198   7.523
 4114SOL    HW129484   5.753   3.247   7.477
 4114SOL    HW229485   5.603   3.241   7.498
 4115SOL     OW29486   1.391   5.023   0.717
 4115SOL    HW129487   1.444   5.076   0.658
 4115SOL    HW229488   1.359   4.951   0.662
 4116SOL     OW29489   6.358   0.109   1.783
 4116SOL    HW129490   6.313   0.040   1.831
 4116SOL    HW229491   6.406   0.063   1.714
 4117SOL     OW29492   1.869   6.338   1.604
 4117SOL    HW129493   1.822   6.369   1.681
 4117SOL    HW229494   1.881   6.245   1.619
 4118SOL     OW29495   1.857   0.067   7.377
 4118SOL    HW129496   1.939   0.032   7.411
 4118SOL    HW229497   1.797   0.065   7.452
 4119SOL     OW29498   6.343   0.306   6.315
 4119SOL    HW129499   6.361   0.365   6.389
 4119SOL    HW229500   6.396   0.228   6.334
 4120SOL     OW29501   5.803   6.010   7.079
 4120SOL    HW129502   5.768   6.096   7.104
 4120SOL    HW229503   5.757   5.948   7.135
 4121SOL     OW29504   5.296   4.171   7.010
 4121SOL    HW129505   5.382   4.131   6.992
 4121SOL    HW229506   5.279   4.225   6.932
 4122SOL     OW29507   2.353   3.587   0.942
 4122SOL    HW129508   2.358   3.656   1.007
 4122SOL    HW229509   2.341   3.507   0.993
 4123SOL     OW29510   2.081   4.038   0.890
 4123SOL    HW129511   2.071   3.988   0.971
 4123SOL    HW229512   2.111   4.124   0.919
 4124SOL     OW29513   6.159   1.121   0.202
 4124SOL    HW129514   6.230   1.153   0.258
 4124SOL    HW229515   6.102   1.072   0.262
 4125SOL     OW29516   1.812   4.194   6.245
 4125SOL    HW129517   1.787   4.224   6.333
 4125SOL    HW229518   1.904   4.168   6.254
 4126SOL     OW29519   0.606   1.972   7.588
 4126SOL    HW129520   0.597   1.888   7.634
 4126SOL    HW229521   0.614   1.948   7.496
 4127SOL     OW29522   0.237   0.147   0.596
 4127SOL    HW129523   0.252   0.111   0.508
 4127SOL    HW229524   0.272   0.081   0.655
 4128SOL     OW29525   2.812   6.336   7.063
 4128SOL    HW129526   2.826   6.372   7.151
 4128SOL    HW229527   2.722   6.304   7.064
 4129SOL     OW29528   1.288   2.763   6.430
 4129SOL    HW129529   1.200   2.776   6.465
 4129SOL    HW229530   1.281   2.686   6.374
 4130SOL     OW29531   3.131   6.108   0.216
 4130SOL    HW129532   3.121   6.146   0.129
 4130SOL    HW229533   3.224   6.086   0.222
 4131SOL     OW29534   6.093   0.989   2.160
 4131SOL    HW129535   6.104   1.084   2.161
 4131SOL    HW229536   6.141   0.960   2.082
 4132SOL     OW29537   2.104   1.619   7.195
 4132SOL    HW129538   2.037   1.685   7.179
 4132SOL    HW229539   2.138   1.598   7.108
 4133SOL     OW29540   5.604   3.651   2.210
 4133SOL    HW129541   5.555   3.598   2.273
 4133SOL    HW229542   5.542   3.667   2.140
 4134SOL     OW29543   2.902   6.098   0.699
 4134SOL    HW129544   2.971   6.127   0.639
 4134SOL    HW229545   2.867   6.178   0.736
 4135SOL     OW29546   4.627   0.557   7.659
 4135SOL    HW129547   4.624   0.476   7.710
 4135SOL    HW229548   4.622   0.528   7.568
 4136SOL     OW29549   1.156   2.391   6.023
 4136SOL    HW129550   1.063   2.409   6.007
 4136SOL    HW229551   1.158   2.299   6.050
 4137SOL     OW29552   5.213   1.905   0.734
 4137SOL    HW129553   5.302   1.925   0.765
 4137SOL    HW229554   5.222   1.820   0.691
 4138SOL     OW29555   5.799   1.158   6.798
 4138SOL    HW129556   5.793   1.250   6.820
 4138SOL    HW229557   5.718   1.139   6.751
 4139SOL     OW29558   5.267   2.928   6.571
 4139SOL    HW129559   5.349   2.914   6.524
 4139SOL    HW229560   5.203   2.948   6.502
 4140SOL     OW29561   2.862   2.091   5.930
 4140SOL    HW129562   2.842   2.170   5.981
 4140SOL    HW229563   2.949   2.065   5.960
 4141SOL     OW29564   6.422   3.913   7.010
 4141SOL    HW129565   6.407   3.825   7.045
 4141SOL    HW229566   6.481   3.899   6.936
 4142SOL     OW29567   3.840   1.631   0.318
 4142SOL    HW129568   3.757   1.584   0.325
 4142SOL    HW229569   3.830   1.686   0.240
 4143SOL     OW29570   0.412   2.946   1.172
 4143SOL    HW129571   0.475   2.997   1.122
 4143SOL    HW229572   0.450   2.940   1.260
 4144SOL     OW29573   4.217   1.858   1.074
 4144SOL    HW129574   4.233   1.895   1.161
 4144SOL    HW229575   4.256   1.921   1.013
 4145SOL     OW29576   5.788   1.585   7.759
 4145SOL    HW129577   5.839   1.648   7.708
 4145SOL    HW229578   5.794   1.617   0.074
 4146SOL     OW29579   0.869   4.815   6.487
 4146SOL    HW129580   0.795   4.850   6.536
 4146SOL    HW229581   0.892   4.884   6.425
 4147SOL     OW29582   2.377   5.425   5.551
 4147SOL    HW129583   2.464   5.405   5.514
 4147SOL    HW229584   2.390   5.505   5.601
 4148SOL     OW29585   1.225   3.068   7.150
 4148SOL    HW129586   1.173   3.148   7.149
 4148SOL    HW229587   1.297   3.087   7.210
 4149SOL     OW29588   1.200   3.144   0.526
 4149SOL    HW129589   1.128   3.149   0.588
 4149SOL    HW229590   1.261   3.211   0.556
 4150SOL     OW29591   0.004   4.346   0.131
 4150SOL    HW129592   6.413   4.367   0.078
 4150SOL    HW229593   6.478   4.255   0.157
 4151SOL     OW29594   0.078   1.281   6.294
 4151SOL    HW129595   0.056   1.337   6.219
 4151SOL    HW229596   0.167   1.252   6.277
 4152SOL     OW29597   3.255   4.462   5.946
 4152SOL    HW129598   3.315   4.510   5.888
 4152SOL    HW229599   3.175   4.452   5.894
 4153SOL     OW29600   1.061   3.448   1.118
 4153SOL    HW129601   0.995   3.439   1.050
 4153SOL    HW229602   1.022   3.506   1.183
 4154SOL     OW29603   5.599   0.826   5.881
 4154SOL    HW129604   5.531   0.781   5.831
 4154SOL    HW229605   5.580   0.919   5.870
 4155SOL     OW29606   2.147   0.798   1.707
 4155SOL    HW129607   2.222   0.750   1.743
 4155SOL    HW229608   2.120   0.857   1.778
 4156SOL     OW29609   3.470   2.672   5.844
 4156SOL    HW129610   3.425   2.754   5.826
 4156SOL    HW229611   3.548   2.697   5.893
 4157SOL     OW29612   0.543   3.820   1.315
 4157SOL    HW129613   0.613   3.877   1.348
 4157SOL    HW229614   0.574   3.731   1.332
 4158SOL     OW29615   4.821   2.267   2.274
 4158SOL    HW129616   4.878   2.230   2.207
 4158SOL    HW229617   4.746   2.301   2.226
 4159SOL     OW29618   4.807   0.627   1.642
 4159SOL    HW129619   4.757   0.592   1.568
 4159SOL    HW229620   4.830   0.716   1.615
 4160SOL     OW29621   0.737   5.244   1.730
 4160SOL    HW129622   0.783   5.160   1.727
 4160SOL    HW229623   0.699   5.253   1.642
 4161SOL     OW29624   1.274   4.493   0.022
 4161SOL    HW129625   1.182   4.467   0.027
 4161SOL    HW229626   1.272   4.588   0.007
 4162SOL     OW29627   2.187   5.517   1.206
 4162SOL    HW129628   2.150   5.472   1.282
 4162SOL    HW229629   2.261   5.566   1.241
 4163SOL     OW29630   4.376   3.588   1.231
 4163SOL    HW129631   4.295   3.573   1.280
 4163SOL    HW229632   4.420   3.503   1.230
 4164SOL     OW29633   5.410   6.250   7.461
 4164SOL    HW129634   5.340   6.305   7.498
 4164SOL    HW229635   5.402   6.167   7.507
 4165SOL     OW29636   6.345   1.509   5.841
 4165SOL    HW129637   6.364   1.602   5.852
 4165SOL    HW229638   6.313   1.502   5.751
 4166SOL     OW29639   6.147   6.467   5.985
 4166SOL    HW129640   6.233   6.484   5.947
 4166SOL    HW229641   6.166   6.441   6.076
 4167SOL     OW29642   3.817   5.975   7.259
 4167SOL    HW129643   3.734   6.016   7.235
 4167SOL    HW229644   3.849   5.935   7.178
 4168SOL     OW29645   5.946   4.646   6.462
 4168SOL    HW129646   5.915   4.727   6.503
 4168SOL    HW229647   5.891   4.635   6.385
 4169SOL     OW29648   0.795   4.603   7.393
 4169SOL    HW129649   0.792   4.565   7.481
 4169SOL    HW229650   0.731   4.674   7.396
 4170SOL     OW29651   3.348   4.123   1.507
 4170SOL    HW129652   3.279   4.075   1.554
 4170SOL    HW229653   3.409   4.150   1.576
 4171SOL     OW29654   5.286   5.742   0.488
 4171SOL    HW129655   5.373   5.726   0.451
 4171SOL    HW229656   5.302   5.801   0.562
 4172SOL     OW29657   3.965   5.084   7.668
 4172SOL    HW129658   4.041   5.105   7.613
 4172SOL    HW229659   3.902   5.045   7.607
 4173SOL     OW29660   0.177   5.914   1.123
 4173SOL    HW129661   0.118   5.854   1.168
 4173SOL    HW229662   0.121   5.987   1.097
 4174SOL     OW29663   5.218   0.249   6.934
 4174SOL    HW129664   5.149   0.247   7.001
 4174SOL    HW229665   5.183   0.193   6.864
 4175SOL     OW29666   0.852   5.699   0.660
 4175SOL    HW129667   0.819   5.618   0.699
 4175SOL    HW229668   0.917   5.731   0.723
 4176SOL     OW29669   0.907   5.082   2.049
 4176SOL    HW129670   0.980   5.085   1.988
 4176SOL    HW229671   0.830   5.072   1.993
 4177SOL     OW29672   1.799   2.214   1.344
 4177SOL    HW129673   1.804   2.138   1.403
 4177SOL    HW229674   1.812   2.290   1.401
 4178SOL     OW29675   2.031   4.119   1.242
 4178SOL    HW129676   2.039   4.048   1.178
 4178SOL    HW229677   2.001   4.077   1.322
 4179SOL     OW29678   3.400   1.711   6.496
 4179SOL    HW129679   3.489   1.707   6.461
 4179SOL    HW229680   3.408   1.670   6.583
 4180SOL     OW29681   3.642   1.129   1.220
 4180SOL    HW129682   3.551   1.141   1.192
 4180SOL    HW229683   3.635   1.072   1.297
 4181SOL     OW29684   0.934   5.448   6.410
 4181SOL    HW129685   0.852   5.398   6.414
 4181SOL    HW229686   0.992   5.394   6.358
 4182SOL     OW29687   2.052   4.027   1.510
 4182SOL    HW129688   2.132   3.989   1.475
 4182SOL    HW229689   2.066   4.029   1.605
 4183SOL     OW29690   4.332   1.247   0.036
 4183SOL    HW129691   4.338   1.309   0.109
 4183SOL    HW229692   4.408   1.267   7.757
 4184SOL     OW29693   1.876   3.412   5.580
 4184SOL    HW129694   1.927   3.492   5.565
 4184SOL    HW229695   1.874   3.369   5.494
 4185SOL     OW29696   0.713   2.097   0.870
 4185SOL    HW129697   0.635   2.128   0.825
 4185SOL    HW229698   0.694   2.111   0.963
 4186SOL     OW29699   0.479   4.276   6.703
 4186SOL    HW129700   0.421   4.314   6.637
 4186SOL    HW229701   0.558   4.330   6.699
 4187SOL     OW29702   3.144   4.567   1.728
 4187SOL    HW129703   3.134   4.581   1.822
 4187SOL    HW229704   3.215   4.627   1.703
 4188SOL     OW29705   4.357   0.843   0.827
 4188SOL    HW129706   4.433   0.824   0.773
 4188SOL    HW229707   4.316   0.920   0.786
 4189SOL     OW29708   1.974   5.822   1.477
 4189SOL    HW129709   2.033   5.837   1.404
 4189SOL    HW229710   2.031   5.803   1.551
 4190SOL     OW29711   5.001   4.615   6.589
 4190SOL    HW129712   4.958   4.534   6.563
 4190SOL    HW229713   4.949   4.647   6.663
 4191SOL     OW29714   5.787   0.423   1.405
 4191SOL    HW129715   5.724   0.477   1.452
 4191SOL    HW229716   5.808   0.352   1.466
 4192SOL     OW29717   0.156   1.382   1.986
 4192SOL    HW129718   0.106   1.449   1.939
 4192SOL    HW229719   0.144   1.303   1.934
 4193SOL     OW29720   4.903   1.936   1.296
 4193SOL    HW129721   4.968   1.867   1.287
 4193SOL    HW229722   4.954   2.017   1.290
 4194SOL     OW29723   1.117   5.764   7.762
 4194SOL    HW129724   1.091   5.735   7.675
 4194SOL    HW229725   1.061   5.840   0.004
 4195SOL     OW29726   3.109   2.878   7.176
 4195SOL    HW129727   3.135   2.905   7.088
 4195SOL    HW229728   3.015   2.893   7.179
 4196SOL     OW29729   2.371   2.628   0.653
 4196SOL    HW129730   2.363   2.579   0.735
 4196SOL    HW229731   2.464   2.624   0.632
 4197SOL     OW29732   0.288   2.092   7.323
 4197SOL    HW129733   0.261   2.086   7.415
 4197SOL    HW229734   0.311   2.184   7.310
 4198SOL     OW29735   5.660   0.447   5.633
 4198SOL    HW129736   5.653   0.530   5.586
 4198SOL    HW229737   5.595   0.453   5.702
 4199SOL     OW29738   5.320   3.258   0.028
 4199SOL    HW129739   5.287   3.302   7.725
 4199SOL    HW229740   5.407   3.296   0.042
 4200SOL     OW29741   5.576   4.355   0.002
 4200SOL    HW129742   5.504   4.327   7.721
 4200SOL    HW229743   5.649   4.369   7.718
 4201SOL     OW29744   4.872   0.249   0.996
 4201SOL    HW129745   4.830   0.297   0.925
 4201SOL    HW229746   4.900   0.166   0.957
 4202SOL     OW29747   5.069   5.313   0.934
 4202SOL    HW129748   5.069   5.240   0.871
 4202SOL    HW229749   5.136   5.373   0.901
 4203SOL     OW29750   0.779   5.932   7.013
 4203SOL    HW129751   0.752   5.876   6.940
 4203SOL    HW229752   0.805   6.015   6.972
 4204SOL     OW29753   5.012   2.307   5.795
 4204SOL    HW129754   5.054   2.295   5.709
 4204SOL    HW229755   4.997   2.218   5.827
 4205SOL     OW29756   5.847   4.507   6.802
 4205SOL    HW129757   5.759   4.503   6.765
 4205SOL    HW229758   5.846   4.445   6.874
 4206SOL     OW29759   4.477   5.334   1.218
 4206SOL    HW129760   4.444   5.247   1.194
 4206SOL    HW229761   4.555   5.345   1.164
 4207SOL     OW29762   2.612   0.111   5.899
 4207SOL    HW129763   2.596   0.020   5.874
 4207SOL    HW229764   2.536   0.135   5.951
 4208SOL     OW29765   1.223   2.147   6.120
 4208SOL    HW129766   1.142   2.098   6.104
 4208SOL    HW229767   1.291   2.098   6.075
 4209SOL     OW29768   2.846   1.056   5.480
 4209SOL    HW129769   2.841   1.043   5.385
 4209SOL    HW229770   2.787   1.129   5.497
 4210SOL     OW29771   6.415   0.675   1.713
 4210SOL    HW129772   6.469   0.694   1.790
 4210SOL    HW229773   6.326   0.669   1.747
 4211SOL     OW29774   1.554   3.948   2.589
 4211SOL    HW129775   1.627   4.007   2.571
 4211SOL    HW229776   1.591   3.860   2.580
 4212SOL     OW29777   5.398   0.410   7.712
 4212SOL    HW129778   5.408   0.499   7.747
 4212SOL    HW229779   5.487   0.374   7.713
 4213SOL     OW29780   4.209   1.203   1.995
 4213SOL    HW129781   4.287   1.207   1.940
 4213SOL    HW229782   4.141   1.166   1.938
 4214SOL     OW29783   5.635   1.007   5.583
 4214SOL    HW129784   5.677   1.088   5.552
 4214SOL    HW229785   5.562   1.037   5.636
 4215SOL     OW29786   3.296   4.449   1.456
 4215SOL    HW129787   3.315   4.543   1.451
 4215SOL    HW229788   3.351   4.417   1.528
 4216SOL     OW29789   3.927   0.583   0.074
 4216SOL    HW129790   3.835   0.559   0.074
 4216SOL    HW229791   3.935   0.649   0.143
 4217SOL     OW29792   2.873   2.383   6.063
 4217SOL    HW129793   2.968   2.372   6.066
 4217SOL    HW229794   2.860   2.477   6.053
 4218SOL     OW29795   1.072   6.120   0.787
 4218SOL    HW129796   0.999   6.066   0.757
 4218SOL    HW229797   1.139   6.108   0.719
 4219SOL     OW29798   4.795   1.234   6.196
 4219SOL    HW129799   4.798   1.276   6.111
 4219SOL    HW229800   4.714   1.183   6.196
 4220SOL     OW29801   2.899   5.494   6.210
 4220SOL    HW129802   2.915   5.567   6.270
 4220SOL    HW229803   2.983   5.482   6.165
 4221SOL     OW29804   5.464   0.519   5.788
 4221SOL    HW129805   5.424   0.479   5.866
 4221SOL    HW229806   5.409   0.595   5.769
 4222SOL     OW29807   1.743   0.861   0.831
 4222SOL    HW129808   1.678   0.881   0.765
 4222SOL    HW229809   1.826   0.855   0.783
 4223SOL     OW29810   1.245   0.193   1.255
 4223SOL    HW129811   1.199   0.259   1.204
 4223SOL    HW229812   1.193   0.113   1.244
 4224SOL     OW29813   6.006   2.017   1.503
 4224SOL    HW129814   6.010   2.112   1.488
 4224SOL    HW229815   6.049   2.004   1.587
 4225SOL     OW29816   5.282   1.416   0.166
 4225SOL    HW129817   5.361   1.395   0.116
 4225SOL    HW229818   5.304   1.392   0.256
 4226SOL     OW29819   5.387   5.808   6.284
 4226SOL    HW129820   5.378   5.901   6.267
 4226SOL    HW229821   5.468   5.782   6.242
 4227SOL     OW29822   5.743   3.678   7.696
 4227SOL    HW129823   5.720   3.770   7.707
 4227SOL    HW229824   5.836   3.673   7.718
 4228SOL     OW29825   4.403   5.832   6.535
 4228SOL    HW129826   4.442   5.853   6.620
 4228SOL    HW229827   4.329   5.775   6.557
 4229SOL     OW29828   4.422   0.156   1.275
 4229SOL    HW129829   4.410   0.199   1.360
 4229SOL    HW229830   4.466   0.221   1.221
 4230SOL     OW29831   4.323   6.237   6.549
 4230SOL    HW129832   4.408   6.194   6.556
 4230SOL    HW229833   4.280   6.193   6.476
 4231SOL     OW29834   5.417   0.914   0.699
 4231SOL    HW129835   5.484   0.866   0.650
 4231SOL    HW229836   5.463   0.947   0.776
 4232SOL     OW29837   1.310   6.208   7.083
 4232SOL    HW129838   1.341   6.216   6.993
 4232SOL    HW229839   1.285   6.297   7.108
 4233SOL     OW29840   5.330   0.412   6.030
 4233SOL    HW129841   5.316   0.367   6.114
 4233SOL    HW229842   5.285   0.356   5.966
 4234SOL     OW29843   0.155   3.801   7.593
 4234SOL    HW129844   0.109   3.825   7.512
 4234SOL    HW229845   0.205   3.723   7.570
 4235SOL     OW29846   3.874   0.951   7.163
 4235SOL    HW129847   3.924   0.935   7.243
 4235SOL    HW229848   3.941   0.965   7.096
 4236SOL     OW29849   0.834   1.432   1.369
 4236SOL    HW129850   0.816   1.478   1.286
 4236SOL    HW229851   0.857   1.343   1.342
 4237SOL     OW29852   3.776   5.152   6.229
 4237SOL    HW129853   3.802   5.211   6.299
 4237SOL    HW229854   3.709   5.200   6.181
 4238SOL     OW29855   4.001   0.798   2.109
 4238SOL    HW129856   4.081   0.771   2.065
 4238SOL    HW229857   3.946   0.835   2.040
 4239SOL     OW29858   6.074   3.420   6.721
 4239SOL    HW129859   6.146   3.358   6.711
 4239SOL    HW229860   6.105   3.500   6.679
 4240SOL     OW29861   0.478   5.216   7.481
 4240SOL    HW129862   0.441   5.235   7.394
 4240SOL    HW229863   0.418   5.257   7.542
 4241SOL     OW29864   0.814   2.101   1.881
 4241SOL    HW129865   0.861   2.176   1.845
 4241SOL    HW229866   0.742   2.139   1.931
 4242SOL     OW29867   4.594   3.226   6.719
 4242SOL    HW129868   4.501   3.203   6.722
 4242SOL    HW229869   4.637   3.162   6.777
 4243SOL     OW29870   2.676   3.548   7.511
 4243SOL    HW129871   2.721   3.506   7.584
 4243SOL    HW229872   2.598   3.587   7.551
 4244SOL     OW29873   3.630   6.004   6.860
 4244SOL    HW129874   3.600   5.970   6.944
 4244SOL    HW229875   3.550   6.024   6.812
 4245SOL     OW29876   2.564   3.879   7.774
 4245SOL    HW129877   2.646   3.840   7.744
 4245SOL    HW229878   2.498   3.812   7.757
 4246SOL     OW29879   1.247   5.123   5.468
 4246SOL    HW129880   1.176   5.107   5.529
 4246SOL    HW229881   1.263   5.038   5.426
 4247SOL     OW29882   3.203   4.934   6.931
 4247SOL    HW129883   3.151   5.004   6.890
 4247SOL    HW229884   3.137   4.876   6.971
 4248SOL     OW29885   5.357   4.674   6.305
 4248SOL    HW129886   5.363   4.680   6.210
 4248SOL    HW229887   5.268   4.643   6.322
 4249SOL     OW29888   0.465   1.175   0.016
 4249SOL    HW129889   0.446   1.131   7.709
 4249SOL    HW229890   0.448   1.267   7.774
 4250SOL     OW29891   0.368   4.650   6.884
 4250SOL    HW129892   0.352   4.725   6.826
 4250SOL    HW229893   0.464   4.647   6.892
 4251SOL     OW29894   3.383   2.704   5.450
 4251SOL    HW129895   3.392   2.749   5.366
 4251SOL    HW229896   3.472   2.704   5.487
 4252SOL     OW29897   4.085   0.086   6.064
 4252SOL    HW129898   4.017   0.153   6.063
 4252SOL    HW229899   4.119   0.084   5.975
 4253SOL     OW29900   4.894   6.297   1.176
 4253SOL    HW129901   4.884   6.369   1.238
 4253SOL    HW229902   4.806   6.261   1.166
 4254SOL     OW29903   2.028   2.111   6.337
 4254SOL    HW129904   2.015   2.019   6.361
 4254SOL    HW229905   2.081   2.108   6.258
 4255SOL     OW29906   3.885   0.221   5.993
 4255SOL    HW129907   3.792   0.242   6.006
 4255SOL    HW229908   3.900   0.233   5.900
 4256SOL     OW29909   0.525   1.056   0.238
 4256SOL    HW129910   0.519   0.977   0.184
 4256SOL    HW229911   0.515   1.128   0.176
 4257SOL     OW29912   5.982   0.373   0.587
 4257SOL    HW129913   6.024   0.375   0.673
 4257SOL    HW229914   5.988   0.282   0.558
 4258SOL     OW29915   0.147   3.570   0.424
 4258SOL    HW129916   0.099   3.491   0.402
 4258SOL    HW229917   0.107   3.639   0.370
 4259SOL     OW29918   1.658   5.453   6.196
 4259SOL    HW129919   1.579   5.402   6.179
 4259SOL    HW229920   1.704   5.456   6.112
 4260SOL     OW29921   1.483   1.817   0.615
 4260SOL    HW129922   1.454   1.754   0.682
 4260SOL    HW229923   1.527   1.763   0.550
 4261SOL     OW29924   1.325   5.512   7.470
 4261SOL    HW129925   1.364   5.567   7.538
 4261SOL    HW229926   1.395   5.500   7.406
 4262SOL     OW29927   0.933   2.427   1.501
 4262SOL    HW129928   0.958   2.359   1.439
 4262SOL    HW229929   0.990   2.501   1.479
 4263SOL     OW29930   4.006   2.707   0.021
 4263SOL    HW129931   3.951   2.647   7.746
 4263SOL    HW229932   4.008   2.670   0.109
 4264SOL     OW29933   6.291   6.468   0.839
 4264SOL    HW129934   6.328   0.015   0.757
 4264SOL    HW229935   6.230   0.051   0.867
 4265SOL     OW29936   2.688   0.970   0.432
 4265SOL    HW129937   2.759   1.008   0.484
 4265SOL    HW229938   2.614   1.028   0.448
 4266SOL     OW29939   0.841   2.052   0.114
 4266SOL    HW129940   0.872   2.087   0.030
 4266SOL    HW229941   0.791   2.124   0.152
 4267SOL     OW29942   2.975   4.488   6.329
 4267SOL    HW129943   2.964   4.500   6.235
 4267SOL    HW229944   2.989   4.576   6.364
 4268SOL     OW29945   5.763   1.633   0.948
 4268SOL    HW129946   5.783   1.540   0.962
 4268SOL    HW229947   5.693   1.633   0.882
 4269SOL     OW29948   3.192   3.471   7.325
 4269SOL    HW129949   3.281   3.457   7.357
 4269SOL    HW229950   3.137   3.419   7.384
 4270SOL     OW29951   2.136   0.894   6.696
 4270SOL    HW129952   2.180   0.979   6.699
 4270SOL    HW229953   2.191   0.836   6.748
 4271SOL     OW29954   4.633   6.231   1.149
 4271SOL    HW129955   4.558   6.174   1.166
 4271SOL    HW229956   4.595   6.316   1.128
 4272SOL     OW29957   6.310   4.155   1.705
 4272SOL    HW129958   6.318   4.214   1.630
 4272SOL    HW229959   6.239   4.191   1.757
 4273SOL     OW29960   0.319   6.434   1.595
 4273SOL    HW129961   0.358   6.421   1.682
 4273SOL    HW229962   0.225   6.434   1.611
 4274SOL     OW29963   1.683   0.047   0.949
 4274SOL    HW129964   1.607   6.480   0.971
 4274SOL    HW229965   1.712   0.082   1.033
 4275SOL     OW29966   6.455   1.476   1.807
 4275SOL    HW129967   6.475   1.569   1.819
 4275SOL    HW229968   6.425   1.469   1.716
 4276SOL     OW29969   2.930   0.337   1.425
 4276SOL    HW129970   2.877   0.282   1.483
 4276SOL    HW229971   3.008   0.358   1.477
 4277SOL     OW29972   3.227   1.648   1.787
 4277SOL    HW129973   3.250   1.561   1.819
 4277SOL    HW229974   3.311   1.687   1.761
 4278SOL     OW29975   0.996   2.970   1.546
 4278SOL    HW129976   0.945   3.007   1.475
 4278SOL    HW229977   0.932   2.942   1.611
 4279SOL     OW29978   0.492   2.692   0.641
 4279SOL    HW129979   0.556   2.640   0.689
 4279SOL    HW229980   0.543   2.762   0.601
 4280SOL     OW29981   5.310   1.014   7.473
 4280SOL    HW129982   5.280   0.928   7.444
 4280SOL    HW229983   5.262   1.077   7.419
 4281SOL     OW29984   1.029   1.340   5.844
 4281SOL    HW129985   1.013   1.353   5.937
 4281SOL    HW229986   1.124   1.331   5.837
 4282SOL     OW29987   5.991   1.612   1.099
 4282SOL    HW129988   6.014   1.627   1.007
 4282SOL    HW229989   6.075   1.593   1.141
 4283SOL     OW29990   2.677   5.584   1.530
 4283SOL    HW129991   2.585   5.570   1.553
 4283SOL    HW229992   2.686   5.545   1.443
 4284SOL     OW29993   0.708   5.303   6.341
 4284SOL    HW129994   0.715   5.227   6.399
 4284SOL    HW229995   0.622   5.340   6.360
 4285SOL     OW29996   3.744   0.255   1.130
 4285SOL    HW129997   3.718   0.206   1.208
 4285SOL    HW229998   3.836   0.277   1.146
 4286SOL     OW29999   5.453   1.393   7.452
 4286SOL    HW130000   5.437   1.486   7.465
 4286SOL    HW230001   5.447   1.381   7.357
 4287SOL     OW30002   4.086   4.137   5.824
 4287SOL    HW130003   4.181   4.129   5.818
 4287SOL    HW230004   4.052   4.081   5.755
 4288SOL     OW30005   5.459   0.653   0.870
 4288SOL    HW130006   5.458   0.714   0.796
 4288SOL    HW230007   5.507   0.577   0.836
 4289SOL     OW30008   5.504   5.519   1.672
 4289SOL    HW130009   5.456   5.524   1.755
 4289SOL    HW230010   5.504   5.609   1.639
 4290SOL     OW30011   6.405   3.289   7.278
 4290SOL    HW130012   6.339   3.250   7.222
 4290SOL    HW230013   0.002   3.263   7.238
 4291SOL     OW30014   5.146   2.730   0.989
 4291SOL    HW130015   5.158   2.812   0.940
 4291SOL    HW230016   5.106   2.758   1.072
 4292SOL     OW30017   5.038   5.327   7.146
 4292SOL    HW130018   4.988   5.403   7.118
 4292SOL    HW230019   4.998   5.300   7.229
 4293SOL     OW30020   5.973   3.984   6.315
 4293SOL    HW130021   5.878   3.971   6.323
 4293SOL    HW230022   5.983   4.075   6.289
 4294SOL     OW30023   3.840   6.308   6.285
 4294SOL    HW130024   3.777   6.347   6.225
 4294SOL    HW230025   3.788   6.253   6.343
 4295SOL     OW30026   5.549   6.081   6.349
 4295SOL    HW130027   5.549   6.177   6.355
 4295SOL    HW230028   5.489   6.061   6.278
 4296SOL     OW30029   3.298   2.147   0.836
 4296SOL    HW130030   3.369   2.146   0.772
 4296SOL    HW230031   3.313   2.068   0.888
 4297SOL     OW30032   2.104   0.201   0.873
 4297SOL    HW130033   2.081   0.141   0.944
 4297SOL    HW230034   2.111   0.287   0.915
 4298SOL     OW30035   2.276   1.679   6.806
 4298SOL    HW130036   2.365   1.662   6.775
 4298SOL    HW230037   2.280   1.766   6.844
 4299SOL     OW30038   0.563   0.224   6.694
 4299SOL    HW130039   0.497   0.288   6.721
 4299SOL    HW230040   0.534   0.141   6.731
 4300SOL     OW30041   3.987   2.412   5.308
 4300SOL    HW130042   4.054   2.347   5.286
 4300SOL    HW230043   3.999   2.482   5.244
 4301SOL     OW30044   1.079   4.065   1.631
 4301SOL    HW130045   1.067   4.027   1.544
 4301SOL    HW230046   1.094   3.990   1.688
 4302SOL     OW30047   3.658   2.276   0.061
 4302SOL    HW130048   3.719   2.319   0.002
 4302SOL    HW230049   3.641   2.340   0.130
 4303SOL     OW30050   0.059   2.001   0.746
 4303SOL    HW130051   0.008   2.070   0.789
 4303SOL    HW230052   0.012   1.920   0.766
 4304SOL     OW30053   6.269   5.502   7.158
 4304SOL    HW130054   6.326   5.579   7.160
 4304SOL    HW230055   6.270   5.469   7.247
 4305SOL     OW30056   3.271   3.593   1.919
 4305SOL    HW130057   3.287   3.613   1.827
 4305SOL    HW230058   3.318   3.511   1.935
 4306SOL     OW30059   0.575   5.283   0.812
 4306SOL    HW130060   0.655   5.330   0.787
 4306SOL    HW230061   0.518   5.352   0.848
 4307SOL     OW30062   0.659   5.809   1.712
 4307SOL    HW130063   0.724   5.791   1.779
 4307SOL    HW230064   0.710   5.844   1.638
 4308SOL     OW30065   0.492   3.331   7.652
 4308SOL    HW130066   0.429   3.297   7.588
 4308SOL    HW230067   0.571   3.350   7.601
 4309SOL     OW30068   1.032   4.086   5.894
 4309SOL    HW130069   1.080   4.053   5.818
 4309SOL    HW230070   0.994   4.169   5.864
 4310SOL     OW30071   2.781   5.955   6.897
 4310SOL    HW130072   2.840   5.994   6.961
 4310SOL    HW230073   2.706   5.925   6.948
 4311SOL     OW30074   3.675   4.205   1.653
 4311SOL    HW130075   3.742   4.137   1.638
 4311SOL    HW230076   3.644   4.190   1.742
 4312SOL     OW30077   4.939   5.142   6.271
 4312SOL    HW130078   4.972   5.056   6.244
 4312SOL    HW230079   5.004   5.204   6.236
 4313SOL     OW30080   1.395   4.119   1.561
 4313SOL    HW130081   1.446   4.193   1.527
 4313SOL    HW230082   1.305   4.152   1.564
 4314SOL     OW30083   6.168   0.666   1.802
 4314SOL    HW130084   6.090   0.622   1.766
 4314SOL    HW230085   6.179   0.628   1.889
 4315SOL     OW30086   3.794   4.126   0.622
 4315SOL    HW130087   3.876   4.166   0.649
 4315SOL    HW230088   3.731   4.153   0.688
 4316SOL     OW30089   3.289   2.324   1.416
 4316SOL    HW130090   3.278   2.250   1.357
 4316SOL    HW230091   3.384   2.337   1.422
 4317SOL     OW30092   3.257   2.583   6.034
 4317SOL    HW130093   3.235   2.632   6.114
 4317SOL    HW230094   3.330   2.631   5.996
 4318SOL     OW30095   0.509   5.793   1.405
 4318SOL    HW130096   0.498   5.888   1.404
 4318SOL    HW230097   0.511   5.768   1.313
 4319SOL     OW30098   0.361   5.083   2.303
 4319SOL    HW130099   0.373   5.059   2.395
 4319SOL    HW230100   0.432   5.145   2.286
 4320SOL     OW30101   2.085   3.189   0.339
 4320SOL    HW130102   2.058   3.260   0.281
 4320SOL    HW230103   2.134   3.129   0.283
 4321SOL     OW30104   5.071   1.849   0.943
 4321SOL    HW130105   5.143   1.863   0.881
 4321SOL    HW230106   5.004   1.911   0.916
 4322SOL     OW30107   0.845   3.888   6.453
 4322SOL    HW130108   0.815   3.830   6.524
 4322SOL    HW230109   0.842   3.833   6.375
 4323SOL     OW30110   0.143   2.894   1.297
 4323SOL    HW130111   0.223   2.937   1.266
 4323SOL    HW230112   0.157   2.801   1.280
 4324SOL     OW30113   6.243   4.380   7.694
 4324SOL    HW130114   6.288   4.324   7.630
 4324SOL    HW230115   6.189   4.438   7.641
 4325SOL     OW30116   2.469   2.710   6.848
 4325SOL    HW130117   2.431   2.622   6.843
 4325SOL    HW230118   2.393   2.769   6.855
 4326SOL     OW30119   4.253   1.170   7.121
 4326SOL    HW130120   4.223   1.084   7.093
 4326SOL    HW230121   4.308   1.201   7.049
 4327SOL     OW30122   0.775   0.294   7.060
 4327SOL    HW130123   0.714   0.352   7.013
 4327SOL    HW230124   0.852   0.289   7.003
 4328SOL     OW30125   1.533   0.885   0.652
 4328SOL    HW130126   1.446   0.896   0.613
 4328SOL    HW230127   1.593   0.885   0.578
 4329SOL     OW30128   5.083   1.880   0.238
 4329SOL    HW130129   5.040   1.817   0.297
 4329SOL    HW230130   5.056   1.965   0.271
 4330SOL     OW30131   3.442   2.718   6.902
 4330SOL    HW130132   3.443   2.645   6.965
 4330SOL    HW230133   3.511   2.696   6.839
 4331SOL     OW30134   5.086   4.714   6.348
 4331SOL    HW130135   5.067   4.631   6.304
 4331SOL    HW230136   5.073   4.695   6.441
 4332SOL     OW30137   4.331   4.095   6.792
 4332SOL    HW130138   4.349   4.183   6.823
 4332SOL    HW230139   4.373   4.090   6.706
 4333SOL     OW30140   6.325   1.313   6.028
 4333SOL    HW130141   6.330   1.380   5.961
 4333SOL    HW230142   6.286   1.357   6.103
 4334SOL     OW30143   4.058   2.437   6.830
 4334SOL    HW130144   4.145   2.467   6.804
 4334SOL    HW230145   4.034   2.494   6.903
 4335SOL     OW30146   3.224   0.496   6.606
 4335SOL    HW130147   3.157   0.441   6.563
 4335SOL    HW230148   3.297   0.437   6.621
 4336SOL     OW30149   2.536   6.358   0.763
 4336SOL    HW130150   2.525   6.272   0.722
 4336SOL    HW230151   2.516   6.343   0.855
 4337SOL     OW30152   5.061   6.101   1.406
 4337SOL    HW130153   5.023   6.096   1.319
 4337SOL    HW230154   5.136   6.160   1.397
 4338SOL     OW30155   4.378   4.910   7.529
 4338SOL    HW130156   4.330   4.992   7.530
 4338SOL    HW230157   4.311   4.843   7.543
 4339SOL     OW30158   0.248   2.279   7.730
 4339SOL    HW130159   0.253   2.336   0.031
 4339SOL    HW230160   0.182   2.319   7.674
 4340SOL     OW30161   3.032   1.816   7.423
 4340SOL    HW130162   3.040   1.774   7.337
 4340SOL    HW230163   3.085   1.895   7.416
 4341SOL     OW30164   2.209   0.696   7.379
 4341SOL    HW130165   2.146   0.692   7.307
 4341SOL    HW230166   2.288   0.653   7.344
 4342SOL     OW30167   1.014   2.599   0.554
 4342SOL    HW130168   0.948   2.638   0.496
 4342SOL    HW230169   1.081   2.667   0.563
 4343SOL     OW30170   4.119   1.134   6.093
 4343SOL    HW130171   4.124   1.229   6.102
 4343SOL    HW230172   4.099   1.120   6.000
 4344SOL     OW30173   4.751   2.695   6.561
 4344SOL    HW130174   4.697   2.727   6.489
 4344SOL    HW230175   4.840   2.695   6.526
 4345SOL     OW30176   2.221   4.580   6.118
 4345SOL    HW130177   2.255   4.523   6.049
 4345SOL    HW230178   2.204   4.663   6.073
 4346SOL     OW30179   5.227   5.440   0.732
 4346SOL    HW130180   5.189   5.369   0.679
 4346SOL    HW230181   5.320   5.436   0.714
 4347SOL     OW30182   1.788   0.521   0.993
 4347SOL    HW130183   1.860   0.583   0.979
 4347SOL    HW230184   1.817   0.465   1.064
 4348SOL     OW30185   5.072   3.521   1.612
 4348SOL    HW130186   5.015   3.593   1.586
 4348SOL    HW230187   5.060   3.513   1.707
 4349SOL     OW30188   4.514   3.658   7.754
 4349SOL    HW130189   4.601   3.681   7.723
 4349SOL    HW230190   4.529   3.601   0.054
 4350SOL     OW30191   2.177   6.480   5.917
 4350SOL    HW130192   2.130   6.399   5.930
 4350SOL    HW230193   2.111   0.056   5.887
 4351SOL     OW30194   0.686   3.159   6.874
 4351SOL    HW130195   0.682   3.183   6.781
 4351SOL    HW230196   0.744   3.224   6.914
 4352SOL     OW30197   0.655   5.512   1.336
 4352SOL    HW130198   0.711   5.435   1.340
 4352SOL    HW230199   0.566   5.479   1.350
 4353SOL     OW30200   2.515   5.095   5.403
 4353SOL    HW130201   2.561   5.157   5.347
 4353SOL    HW230202   2.500   5.019   5.346
 4354SOL     OW30203   5.018   1.729   6.497
 4354SOL    HW130204   4.925   1.734   6.522
 4354SOL    HW230205   5.032   1.808   6.444
 4355SOL     OW30206   3.550   0.629   1.826
 4355SOL    HW130207   3.479   0.588   1.875
 4355SOL    HW230208   3.513   0.712   1.795
 4356SOL     OW30209   4.093   5.526   0.302
 4356SOL    HW130210   4.054   5.441   0.286
 4356SOL    HW230211   4.070   5.578   0.225
 4357SOL     OW30212   0.975   1.168   2.207
 4357SOL    HW130213   0.999   1.120   2.128
 4357SOL    HW230214   0.968   1.101   2.275
 4358SOL     OW30215   4.603   2.763   6.319
 4358SOL    HW130216   4.680   2.752   6.263
 4358SOL    HW230217   4.529   2.745   6.261
 4359SOL     OW30218   0.933   2.505   0.051
 4359SOL    HW130219   0.944   2.566   0.124
 4359SOL    HW230220   0.918   2.420   0.093
 4360SOL     OW30221   5.234   4.162   2.294
 4360SOL    HW130222   5.266   4.072   2.303
 4360SOL    HW230223   5.307   4.210   2.256
 4361SOL     OW30224   4.486   1.740   1.177
 4361SOL    HW130225   4.462   1.829   1.205
 4361SOL    HW230226   4.581   1.736   1.189
 4362SOL     OW30227   0.800   5.474   0.783
 4362SOL    HW130228   0.781   5.461   0.876
 4362SOL    HW230229   0.884   5.431   0.769
 4363SOL     OW30230   0.434   4.786   0.158
 4363SOL    HW130231   0.495   4.857   0.174
 4363SOL    HW230232   0.486   4.706   0.169
 4364SOL     OW30233   1.331   5.577   6.370
 4364SOL    HW130234   1.333   5.639   6.443
 4364SOL    HW230235   1.345   5.632   6.292
 4365SOL     OW30236   0.424   2.461   0.903
 4365SOL    HW130237   0.499   2.428   0.854
 4365SOL    HW230238   0.453   2.543   0.941
 4366SOL     OW30239   2.777   1.321   6.494
 4366SOL    HW130240   2.690   1.341   6.459
 4366SOL    HW230241   2.789   1.228   6.475
 4367SOL     OW30242   1.709   5.521   6.684
 4367SOL    HW130243   1.748   5.601   6.649
 4367SOL    HW230244   1.631   5.550   6.731
 4368SOL     OW30245   0.332   3.332   1.368
 4368SOL    HW130246   0.352   3.396   1.436
 4368SOL    HW230247   0.241   3.308   1.383
 4369SOL     OW30248   2.967   2.240   0.892
 4369SOL    HW130249   2.966   2.267   0.984
 4369SOL    HW230250   2.875   2.227   0.870
 4370SOL     OW30251   1.390   6.265   6.815
 4370SOL    HW130252   1.484   6.262   6.800
 4370SOL    HW230253   1.360   6.341   6.765
 4371SOL     OW30254   5.568   2.739   0.976
 4371SOL    HW130255   5.499   2.682   1.008
 4371SOL    HW230256   5.647   2.684   0.976
 4372SOL     OW30257   6.387   4.613   0.524
 4372SOL    HW130258   6.420   4.610   0.614
 4372SOL    HW230259   6.295   4.591   0.532
 4373SOL     OW30260   4.105   1.159   6.754
 4373SOL    HW130261   4.034   1.096   6.740
 4373SOL    HW230262   4.167   1.141   6.684
 4374SOL     OW30263   1.610   5.689   1.543
 4374SOL    HW130264   1.580   5.776   1.569
 4374SOL    HW230265   1.687   5.673   1.598
 4375SOL     OW30266   3.251   4.906   7.672
 4375SOL    HW130267   3.223   4.828   7.721
 4375SOL    HW230268   3.175   4.931   7.621
 4376SOL     OW30269   3.997   1.788   7.306
 4376SOL    HW130270   3.987   1.703   7.263
 4376SOL    HW230271   3.933   1.844   7.263
 4377SOL     OW30272   1.886   0.139   0.198
 4377SOL    HW130273   1.979   0.120   0.194
 4377SOL    HW230274   1.865   0.174   0.111
 4378SOL     OW30275   3.004   4.598   5.234
 4378SOL    HW130276   2.962   4.604   5.149
 4378SOL    HW230277   2.978   4.513   5.268
 4379SOL     OW30278   1.565   3.423   7.683
 4379SOL    HW130279   1.493   3.440   7.744
 4379SOL    HW230280   1.575   3.328   7.684
 4380SOL     OW30281   4.417   5.390   7.378
 4380SOL    HW130282   4.477   5.423   7.445
 4380SOL    HW230283   4.378   5.312   7.417
 4381SOL     OW30284   5.325   3.759   7.676
 4381SOL    HW130285   5.381   3.685   7.653
 4381SOL    HW230286   5.386   3.823   7.715
 4382SOL     OW30287   0.748   6.252   5.243
 4382SOL    HW130288   0.835   6.214   5.232
 4382SOL    HW230289   0.743   6.276   5.336
 4383SOL     OW30290   4.282   5.402   6.650
 4383SOL    HW130291   4.209   5.370   6.597
 4383SOL    HW230292   4.241   5.434   6.731
 4384SOL     OW30293   5.539   1.773   0.807
 4384SOL    HW130294   5.492   1.763   0.724
 4384SOL    HW230295   5.519   1.862   0.835
 4385SOL     OW30296   5.674   4.799   1.255
 4385SOL    HW130297   5.605   4.838   1.200
 4385SOL    HW230298   5.721   4.874   1.291
 4386SOL     OW30299   5.976   5.676   7.584
 4386SOL    HW130300   5.981   5.697   7.491
 4386SOL    HW230301   6.004   5.585   7.589
 4387SOL     OW30302   4.292   2.219   5.702
 4387SOL    HW130303   4.302   2.124   5.704
 4387SOL    HW230304   4.241   2.236   5.624
 4388SOL     OW30305   2.753   5.765   5.791
 4388SOL    HW130306   2.772   5.733   5.703
 4388SOL    HW230307   2.773   5.690   5.848
 4389SOL     OW30308   0.193   4.194   6.355
 4389SOL    HW130309   0.203   4.117   6.299
 4389SOL    HW230310   0.112   4.236   6.324
 4390SOL     OW30311   0.009   1.436   6.997
 4390SOL    HW130312   0.012   1.370   7.066
 4390SOL    HW230313   0.034   1.517   7.041
 4391SOL     OW30314   0.681   2.205   2.065
 4391SOL    HW130315   0.597   2.232   2.102
 4391SOL    HW230316   0.742   2.210   2.138
 4392SOL     OW30317   0.545   3.259   6.176
 4392SOL    HW130318   0.636   3.259   6.147
 4392SOL    HW230319   0.496   3.290   6.100
 4393SOL     OW30320   5.640   3.645   5.534
 4393SOL    HW130321   5.682   3.587   5.471
 4393SOL    HW230322   5.661   3.606   5.620
 4394SOL     OW30323   1.944   2.723   6.416
 4394SOL    HW130324   1.958   2.805   6.370
 4394SOL    HW230325   1.914   2.662   6.349
 4395SOL     OW30326   4.248   3.195   0.871
 4395SOL    HW130327   4.274   3.121   0.925
 4395SOL    HW230328   4.331   3.229   0.835
 4396SOL     OW30329   4.353   5.316   6.213
 4396SOL    HW130330   4.405   5.365   6.276
 4396SOL    HW230331   4.303   5.382   6.166
 4397SOL     OW30332   3.542   4.998   7.406
 4397SOL    HW130333   3.506   4.910   7.407
 4397SOL    HW230334   3.500   5.040   7.331
 4398SOL     OW30335   1.555   0.087   5.984
 4398SOL    HW130336   1.562   6.481   6.007
 4398SOL    HW230337   1.505   0.127   6.056
 4399SOL     OW30338   3.331   5.567   6.571
 4399SOL    HW130339   3.413   5.528   6.541
 4399SOL    HW230340   3.325   5.651   6.527
 4400SOL     OW30341   2.181   4.076   0.603
 4400SOL    HW130342   2.103   4.130   0.591
 4400SOL    HW230343   2.189   4.065   0.698
 4401SOL     OW30344   3.979   5.716   0.102
 4401SOL    HW130345   4.030   5.686   0.026
 4401SOL    HW230346   3.970   5.810   0.089
 4402SOL     OW30347   0.815   2.097   6.905
 4402SOL    HW130348   0.850   2.033   6.966
 4402SOL    HW230349   0.726   2.066   6.886
 4403SOL     OW30350   4.424   1.324   5.597
 4403SOL    HW130351   4.338   1.322   5.637
 4403SOL    HW230352   4.444   1.417   5.586
 4404SOL     OW30353   3.739   2.110   2.458
 4404SOL    HW130354   3.830   2.081   2.471
 4404SOL    HW230355   3.743   2.205   2.467
 4405SOL     OW30356   2.935   2.309   6.952
 4405SOL    HW130357   2.996   2.269   7.015
 4405SOL    HW230358   2.942   2.254   6.874
 4406SOL     OW30359   5.813   4.616   7.109
 4406SOL    HW130360   5.790   4.692   7.164
 4406SOL    HW230361   5.729   4.578   7.084
 4407SOL     OW30362   2.753   6.341   0.136
 4407SOL    HW130363   2.783   6.282   0.205
 4407SOL    HW230364   2.821   6.407   0.129
 4408SOL     OW30365   3.868   3.849   1.453
 4408SOL    HW130366   3.891   3.786   1.521
 4408SOL    HW230367   3.852   3.931   1.499
 4409SOL     OW30368   5.218   6.310   6.650
 4409SOL    HW130369   5.136   6.354   6.670
 4409SOL    HW230370   5.222   6.306   6.555
 4410SOL     OW30371   2.698   2.198   0.954
 4410SOL    HW130372   2.611   2.218   0.920
 4410SOL    HW230373   2.693   2.220   1.047
 4411SOL     OW30374   1.073   4.308   6.782
 4411SOL    HW130375   1.005   4.300   6.716
 4411SOL    HW230376   1.127   4.381   6.751
 4412SOL     OW30377   2.284   3.234   7.649
 4412SOL    HW130378   2.304   3.142   7.631
 4412SOL    HW230379   2.193   3.234   7.677
 4413SOL     OW30380   0.468   5.406   6.419
 4413SOL    HW130381   0.445   5.470   6.486
 4413SOL    HW230382   0.411   5.332   6.435
 4414SOL     OW30383   1.085   4.828   7.069
 4414SOL    HW130384   1.096   4.834   6.974
 4414SOL    HW230385   1.002   4.871   7.086
 4415SOL     OW30386   3.855   0.262   6.356
 4415SOL    HW130387   3.762   0.249   6.373
 4415SOL    HW230388   3.887   0.174   6.334
 4416SOL     OW30389   3.382   4.026   7.219
 4416SOL    HW130390   3.403   3.933   7.215
 4416SOL    HW230391   3.349   4.048   7.131
 4417SOL     OW30392   5.202   2.278   1.017
 4417SOL    HW130393   5.147   2.235   0.952
 4417SOL    HW230394   5.287   2.236   1.008
 4418SOL     OW30395   6.355   0.840   0.271
 4418SOL    HW130396   6.338   0.750   0.244
 4418SOL    HW230397   6.312   0.848   0.356
 4419SOL     OW30398   3.825   0.333   1.681
 4419SOL    HW130399   3.893   0.398   1.694
 4419SOL    HW230400   3.747   0.384   1.657
 4420SOL     OW30401   3.889   0.408   0.680
 4420SOL    HW130402   3.918   0.493   0.712
 4420SOL    HW230403   3.910   0.409   0.587
 4421SOL     OW30404   3.874   6.484   6.960
 4421SOL    HW130405   3.861   0.033   6.873
 4421SOL    HW230406   3.811   6.413   6.967
 4422SOL     OW30407   5.099   2.045   6.161
 4422SOL    HW130408   5.122   2.032   6.252
 4422SOL    HW230409   5.019   1.992   6.148
 4423SOL     OW30410   0.782   6.198   1.194
 4423SOL    HW130411   0.854   6.164   1.142
 4423SOL    HW230412   0.802   6.171   1.284
 4424SOL     OW30413   0.546   3.538   6.650
 4424SOL    HW130414   0.510   3.462   6.695
 4424SOL    HW230415   0.528   3.521   6.557
 4425SOL     OW30416   4.037   1.279   6.440
 4425SOL    HW130417   4.010   1.351   6.497
 4425SOL    HW230418   4.078   1.321   6.364
 4426SOL     OW30419   5.867   1.312   0.015
 4426SOL    HW130420   5.866   1.251   7.717
 4426SOL    HW230421   5.897   1.395   7.752
 4427SOL     OW30422   0.624   6.054   5.773
 4427SOL    HW130423   0.609   6.044   5.679
 4427SOL    HW230424   0.719   6.058   5.783
 4428SOL     OW30425   1.823   5.868   5.640
 4428SOL    HW130426   1.914   5.858   5.611
 4428SOL    HW230427   1.814   5.961   5.659
 4429SOL     OW30428   6.061   2.242   0.084
 4429SOL    HW130429   6.135   2.293   0.119
 4429SOL    HW230430   6.078   2.153   0.114
 4430SOL     OW30431   1.764   0.710   7.285
 4430SOL    HW130432   1.700   0.644   7.312
 4430SOL    HW230433   1.831   0.707   7.353
 4431SOL     OW30434   0.483   4.029   1.103
 4431SOL    HW130435   0.389   4.048   1.099
 4431SOL    HW230436   0.490   3.954   1.161
 4432SOL     OW30437   3.079   1.865   5.626
 4432SOL    HW130438   3.112   1.927   5.561
 4432SOL    HW230439   3.155   1.813   5.652
 4433SOL     OW30440   0.405   3.745   5.978
 4433SOL    HW130441   0.335   3.694   6.019
 4433SOL    HW230442   0.455   3.680   5.928
 4434SOL     OW30443   4.554   0.631   6.731
 4434SOL    HW130444   4.474   0.608   6.684
 4434SOL    HW230445   4.587   0.709   6.687
 4435SOL     OW30446   5.199   2.611   5.993
 4435SOL    HW130447   5.235   2.547   5.931
 4435SOL    HW230448   5.104   2.595   5.991
 4436SOL     OW30449   0.627   0.767   6.242
 4436SOL    HW130450   0.686   0.713   6.189
 4436SOL    HW230451   0.682   0.797   6.314
 4437SOL     OW30452   3.332   1.529   0.395
 4437SOL    HW130453   3.293   1.505   0.310
 4437SOL    HW230454   3.290   1.612   0.417
 4438SOL     OW30455   0.377   4.217   2.108
 4438SOL    HW130456   0.377   4.312   2.117
 4438SOL    HW230457   0.356   4.184   2.196
 4439SOL     OW30458   1.595   4.981   7.289
 4439SOL    HW130459   1.637   4.999   7.205
 4439SOL    HW230460   1.518   4.929   7.266
 4440SOL     OW30461   3.518   6.407   6.250
 4440SOL    HW130462   3.481   6.437   6.167
 4440SOL    HW230463   3.467   6.329   6.271
 4441SOL     OW30464   0.270   2.676   1.616
 4441SOL    HW130465   0.278   2.681   1.711
 4441SOL    HW230466   0.333   2.740   1.583
 4442SOL     OW30467   3.897   1.312   6.936
 4442SOL    HW130468   3.963   1.249   6.906
 4442SOL    HW230469   3.894   1.299   7.031
 4443SOL     OW30470   4.567   3.519   1.497
 4443SOL    HW130471   4.621   3.472   1.560
 4443SOL    HW230472   4.515   3.451   1.455
 4444SOL     OW30473   1.581   2.117   0.019
 4444SOL    HW130474   1.607   2.087   0.107
 4444SOL    HW230475   1.618   2.052   7.735
 4445SOL     OW30476   1.027   5.364   0.724
 4445SOL    HW130477   1.038   5.435   0.661
 4445SOL    HW230478   1.033   5.284   0.671
 4446SOL     OW30479   3.345   5.381   5.032
 4446SOL    HW130480   3.380   5.444   5.095
 4446SOL    HW230481   3.259   5.415   5.009
 4447SOL     OW30482   4.771   2.396   1.909
 4447SOL    HW130483   4.796   2.454   1.981
 4447SOL    HW230484   4.699   2.344   1.944
 4448SOL     OW30485   5.026   2.696   6.366
 4448SOL    HW130486   5.070   2.614   6.387
 4448SOL    HW230487   5.093   2.748   6.321
 4449SOL     OW30488   6.357   6.157   2.153
 4449SOL    HW130489   6.433   6.111   2.118
 4449SOL    HW230490   6.303   6.088   2.192
 4450SOL     OW30491   5.571   4.744   1.497
 4450SOL    HW130492   5.606   4.733   1.409
 4450SOL    HW230493   5.476   4.737   1.486
 4451SOL     OW30494   4.526   1.442   6.008
 4451SOL    HW130495   4.486   1.503   5.946
 4451SOL    HW230496   4.607   1.414   5.965
 4452SOL     OW30497   6.271   5.838   1.631
 4452SOL    HW130498   6.274   5.746   1.606
 4452SOL    HW230499   6.269   5.837   1.727
 4453SOL     OW30500   1.749   5.160   7.070
 4453SOL    HW130501   1.724   5.107   6.994
 4453SOL    HW230502   1.750   5.250   7.036
 4454SOL     OW30503   5.995   3.453   1.172
 4454SOL    HW130504   5.920   3.401   1.202
 4454SOL    HW230505   6.055   3.453   1.246
 4455SOL     OW30506   5.465   3.571   1.064
 4455SOL    HW130507   5.453   3.665   1.076
 4455SOL    HW230508   5.398   3.547   0.999
 4456SOL     OW30509   3.787   0.148   7.586
 4456SOL    HW130510   3.772   0.105   7.502
 4456SOL    HW230511   3.754   0.237   7.574
 4457SOL     OW30512   4.396   4.626   0.576
 4457SOL    HW130513   4.322   4.579   0.614
 4457SOL    HW230514   4.357   4.701   0.530
 4458SOL     OW30515   0.160   1.021   0.521
 4458SOL    HW130516   0.066   1.000   0.516
 4458SOL    HW230517   0.162   1.113   0.546
 4459SOL     OW30518   1.582   0.410   7.748
 4459SOL    HW130519   1.583   0.342   0.040
 4459SOL    HW230520   1.607   0.364   7.668
 4460SOL     OW30521   1.738   0.369   0.717
 4460SOL    HW130522   1.686   0.427   0.662
 4460SOL    HW230523   1.722   0.400   0.806
 4461SOL     OW30524   3.131   5.177   0.868
 4461SOL    HW130525   3.102   5.195   0.778
 4461SOL    HW230526   3.153   5.083   0.867
 4462SOL     OW30527   2.097   3.387   1.073
 4462SOL    HW130528   2.092   3.301   1.032
 4462SOL    HW230529   2.034   3.440   1.024
 4463SOL     OW30530   2.089   2.920   6.324
 4463SOL    HW130531   2.077   2.927   6.230
 4463SOL    HW230532   2.136   2.999   6.349
 4464SOL     OW30533   6.109   2.242   7.399
 4464SOL    HW130534   6.039   2.263   7.337
 4464SOL    HW230535   6.190   2.257   7.350
 4465SOL     OW30536   0.262   1.703   6.706
 4465SOL    HW130537   0.307   1.693   6.623
 4465SOL    HW230538   0.191   1.639   6.703
 4466SOL     OW30539   3.035   2.388   1.517
 4466SOL    HW130540   3.108   2.339   1.479
 4466SOL    HW230541   3.075   2.466   1.555
 4467SOL     OW30542   4.357   5.663   5.299
 4467SOL    HW130543   4.419   5.606   5.344
 4467SOL    HW230544   4.272   5.619   5.307
 4468SOL     OW30545   3.076   2.234   7.167
 4468SOL    HW130546   3.112   2.273   7.247
 4468SOL    HW230547   3.015   2.167   7.198
 4469SOL     OW30548   1.842   3.002   0.193
 4469SOL    HW130549   1.764   2.954   0.163
 4469SOL    HW230550   1.885   2.943   0.255
 4470SOL     OW30551   4.433   5.586   0.511
 4470SOL    HW130552   4.376   5.652   0.472
 4470SOL    HW230553   4.467   5.627   0.590
 4471SOL     OW30554   6.212   6.294   2.464
 4471SOL    HW130555   6.149   6.351   2.421
 4471SOL    HW230556   6.297   6.324   2.432
 4472SOL     OW30557   5.143   2.657   1.558
 4472SOL    HW130558   5.093   2.739   1.559
 4472SOL    HW230559   5.181   2.650   1.646
 4473SOL     OW30560   5.112   2.412   1.385
 4473SOL    HW130561   5.117   2.487   1.443
 4473SOL    HW230562   5.019   2.404   1.363
 4474SOL     OW30563   5.450   1.787   6.602
 4474SOL    HW130564   5.374   1.729   6.598
 4474SOL    HW230565   5.440   1.845   6.526
 4475SOL     OW30566   4.906   2.809   0.158
 4475SOL    HW130567   4.921   2.792   0.065
 4475SOL    HW230568   4.952   2.739   0.203
 4476SOL     OW30569   2.475   5.156   6.459
 4476SOL    HW130570   2.551   5.103   6.436
 4476SOL    HW230571   2.484   5.173   6.552
 4477SOL     OW30572   3.142   2.707   0.612
 4477SOL    HW130573   3.055   2.740   0.637
 4477SOL    HW230574   3.135   2.612   0.623
 4478SOL     OW30575   2.415   4.039   7.245
 4478SOL    HW130576   2.345   3.977   7.224
 4478SOL    HW230577   2.386   4.082   7.326
 4479SOL     OW30578   1.053   3.559   0.417
 4479SOL    HW130579   1.018   3.598   0.338
 4479SOL    HW230580   1.017   3.612   0.488
 4480SOL     OW30581   5.316   1.726   6.158
 4480SOL    HW130582   5.250   1.782   6.117
 4480SOL    HW230583   5.360   1.785   6.220
 4481SOL     OW30584   3.666   1.697   1.627
 4481SOL    HW130585   3.703   1.785   1.631
 4481SOL    HW230586   3.681   1.669   1.536
 4482SOL     OW30587   3.228   5.204   7.607
 4482SOL    HW130588   3.302   5.256   7.639
 4482SOL    HW230589   3.267   5.120   7.581
 4483SOL     OW30590   6.337   0.466   7.762
 4483SOL    HW130591   6.265   0.404   7.752
 4483SOL    HW230592   6.344   0.480   0.081
 4484SOL     OW30593   3.745   3.384   0.398
 4484SOL    HW130594   3.729   3.479   0.395
 4484SOL    HW230595   3.660   3.346   0.374
 4485SOL     OW30596   3.236   2.941   7.398
 4485SOL    HW130597   3.293   3.003   7.352
 4485SOL    HW230598   3.174   2.912   7.331
 4486SOL     OW30599   0.926   5.270   1.413
 4486SOL    HW130600   0.859   5.203   1.405
 4486SOL    HW230601   1.004   5.232   1.373
 4487SOL     OW30602   6.385   3.499   1.495
 4487SOL    HW130603   6.412   3.591   1.490
 4487SOL    HW230604   6.451   3.458   1.551
 4488SOL     OW30605   2.632   2.376   1.908
 4488SOL    HW130606   2.688   2.452   1.928
 4488SOL    HW230607   2.692   2.312   1.871
 4489SOL     OW30608   5.058   1.367   1.940
 4489SOL    HW130609   5.108   1.303   1.991
 4489SOL    HW230610   5.047   1.325   1.854
 4490SOL     OW30611   1.395   2.299   7.723
 4490SOL    HW130612   1.444   2.375   7.692
 4490SOL    HW230613   1.462   2.235   7.746
 4491SOL     OW30614   3.286   2.104   6.561
 4491SOL    HW130615   3.290   2.051   6.640
 4491SOL    HW230616   3.312   2.192   6.590
 4492SOL     OW30617   3.706   3.102   2.234
 4492SOL    HW130618   3.763   3.121   2.159
 4492SOL    HW230619   3.764   3.063   2.299
 4493SOL     OW30620   5.601   3.042   5.367
 4493SOL    HW130621   5.696   3.048   5.364
 4493SOL    HW230622   5.572   3.133   5.373
 4494SOL     OW30623   0.123   1.260   1.566
 4494SOL    HW130624   0.088   1.349   1.558
 4494SOL    HW230625   0.209   1.272   1.607
 4495SOL     OW30626   0.196   5.419   5.522
 4495SOL    HW130627   0.274   5.401   5.469
 4495SOL    HW230628   0.183   5.513   5.514
 4496SOL     OW30629   5.853   5.975   0.377
 4496SOL    HW130630   5.800   6.048   0.410
 4496SOL    HW230631   5.872   5.923   0.455
 4497SOL     OW30632   0.384   4.787   6.574
 4497SOL    HW130633   0.304   4.837   6.591
 4497SOL    HW230634   0.355   4.696   6.567
 4498SOL     OW30635   4.507   4.697   7.444
 4498SOL    HW130636   4.547   4.636   7.507
 4498SOL    HW230637   4.488   4.775   7.495
 4499SOL     OW30638   3.435   6.109   5.976
 4499SOL    HW130639   3.408   6.182   5.920
 4499SOL    HW230640   3.425   6.031   5.921
 4500SOL     OW30641   1.581   1.302   0.650
 4500SOL    HW130642   1.497   1.261   0.630
 4500SOL    HW230643   1.594   1.287   0.744
 4501SOL     OW30644   5.423   4.234   7.269
 4501SOL    HW130645   5.458   4.296   7.205
 4501SOL    HW230646   5.328   4.241   7.259
 4502SOL     OW30647   6.185   5.612   1.338
 4502SOL    HW130648   6.148   5.524   1.351
 4502SOL    HW230649   6.226   5.633   1.422
 4503SOL     OW30650   1.587   2.234   1.598
 4503SOL    HW130651   1.661   2.174   1.597
 4503SOL    HW230652   1.618   2.311   1.551
 4504SOL     OW30653   1.794   2.570   1.094
 4504SOL    HW130654   1.733   2.626   1.142
 4504SOL    HW230655   1.857   2.541   1.160
 4505SOL     OW30656   0.597   0.461   6.952
 4505SOL    HW130657   0.519   0.438   6.901
 4505SOL    HW230658   0.610   0.554   6.935
 4506SOL     OW30659   3.391   4.295   6.780
 4506SOL    HW130660   3.358   4.254   6.860
 4506SOL    HW230661   3.406   4.222   6.720
 4507SOL     OW30662   6.074   6.000   7.158
 4507SOL    HW130663   6.106   6.089   7.173
 4507SOL    HW230664   5.998   6.012   7.101
 4508SOL     OW30665   2.102   0.338   7.543
 4508SOL    HW130666   2.175   0.350   7.605
 4508SOL    HW230667   2.135   0.275   7.479
 4509SOL     OW30668   2.714   0.065   6.732
 4509SOL    HW130669   2.799   0.033   6.701
 4509SOL    HW230670   2.651   0.028   6.671
 4510SOL     OW30671   1.829   5.645   1.726
 4510SOL    HW130672   1.910   5.696   1.725
 4510SOL    HW230673   1.848   5.572   1.784
 4511SOL     OW30674   2.099   3.804   6.166
 4511SOL    HW130675   2.105   3.843   6.253
 4511SOL    HW230676   2.182   3.759   6.153
 4512SOL     OW30677   4.440   2.943   0.846
 4512SOL    HW130678   4.470   3.028   0.815
 4512SOL    HW230679   4.506   2.918   0.912
 4513SOL     OW30680   1.363   5.086   0.202
 4513SOL    HW130681   1.430   5.102   0.135
 4513SOL    HW230682   1.411   5.040   0.272
 4514SOL     OW30683   3.436   5.850   1.656
 4514SOL    HW130684   3.372   5.849   1.728
 4514SOL    HW230685   3.389   5.815   1.581
 4515SOL     OW30686   6.049   4.334   6.914
 4515SOL    HW130687   6.083   4.284   6.988
 4515SOL    HW230688   6.101   4.415   6.913
 4516SOL     OW30689   2.419   3.716   7.249
 4516SOL    HW130690   2.340   3.702   7.197
 4516SOL    HW230691   2.478   3.645   7.223
 4517SOL     OW30692   1.066   3.821   5.701
 4517SOL    HW130693   1.109   3.905   5.688
 4517SOL    HW230694   1.079   3.801   5.794
 4518SOL     OW30695   4.772   2.386   5.570
 4518SOL    HW130696   4.791   2.296   5.598
 4518SOL    HW230697   4.857   2.425   5.553
 4519SOL     OW30698   2.494   5.363   0.593
 4519SOL    HW130699   2.423   5.406   0.545
 4519SOL    HW230700   2.477   5.269   0.583
 4520SOL     OW30701   5.588   1.751   1.164
 4520SOL    HW130702   5.652   1.695   1.207
 4520SOL    HW230703   5.615   1.752   1.072
 4521SOL     OW30704   1.665   6.175   7.690
 4521SOL    HW130705   1.735   6.109   7.698
 4521SOL    HW230706   1.599   6.133   7.636
 4522SOL     OW30707   3.715   2.566   6.709
 4522SOL    HW130708   3.745   2.485   6.668
 4522SOL    HW230709   3.672   2.614   6.640
 4523SOL     OW30710   3.329   0.233   7.016
 4523SOL    HW130711   3.276   0.311   7.031
 4523SOL    HW230712   3.359   0.207   7.103
 4524SOL     OW30713   4.640   4.510   7.633
 4524SOL    HW130714   4.603   4.497   7.720
 4524SOL    HW230715   4.664   4.423   7.603
 4525SOL     OW30716   4.201   6.082   6.341
 4525SOL    HW130717   4.244   6.003   6.309
 4525SOL    HW230718   4.164   6.123   6.263
 4526SOL     OW30719   1.576   1.472   0.242
 4526SOL    HW130720   1.547   1.437   0.158
 4526SOL    HW230721   1.562   1.401   0.305
 4527SOL     OW30722   4.928   0.511   0.179
 4527SOL    HW130723   4.900   0.429   0.140
 4527SOL    HW230724   5.022   0.517   0.161
 4528SOL     OW30725   1.656   6.294   6.461
 4528SOL    HW130726   1.603   6.353   6.516
 4528SOL    HW230727   1.685   6.349   6.388
 4529SOL     OW30728   1.902   3.220   6.516
 4529SOL    HW130729   1.996   3.207   6.500
 4529SOL    HW230730   1.894   3.313   6.534
 4530SOL     OW30731   2.323   5.154   6.790
 4530SOL    HW130732   2.257   5.169   6.722
 4530SOL    HW230733   2.288   5.082   6.841
 4531SOL     OW30734   1.029   4.653   6.322
 4531SOL    HW130735   0.972   4.669   6.247
 4531SOL    HW230736   0.980   4.688   6.397
 4532SOL     OW30737   2.417   2.076   7.655
 4532SOL    HW130738   2.471   2.013   7.703
 4532SOL    HW230739   2.388   2.139   7.722
 4533SOL     OW30740   3.292   5.379   1.738
 4533SOL    HW130741   3.280   5.285   1.751
 4533SOL    HW230742   3.318   5.412   1.824
 4534SOL     OW30743   1.013   6.142   6.111
 4534SOL    HW130744   0.982   6.214   6.057
 4534SOL    HW230745   1.073   6.094   6.055
 4535SOL     OW30746   3.799   0.437   7.197
 4535SOL    HW130747   3.839   0.461   7.113
 4535SOL    HW230748   3.830   0.348   7.213
 4536SOL     OW30749   0.908   2.411   5.892
 4536SOL    HW130750   0.867   2.339   5.941
 4536SOL    HW230751   0.883   2.396   5.801
 4537SOL     OW30752   0.006   2.259   2.289
 4537SOL    HW130753   6.471   2.165   2.285
 4537SOL    HW230754   0.057   2.275   2.210
 4538SOL     OW30755   4.031   5.015   7.137
 4538SOL    HW130756   4.074   5.070   7.071
 4538SOL    HW230757   4.053   4.925   7.111
 4539SOL     OW30758   6.381   0.465   5.694
 4539SOL    HW130759   6.438   0.536   5.664
 4539SOL    HW230760   6.420   0.436   5.777
 4540SOL     OW30761   1.144   1.082   6.413
 4540SOL    HW130762   1.139   1.050   6.323
 4540SOL    HW230763   1.233   1.114   6.423
 4541SOL     OW30764   4.890   3.524   7.184
 4541SOL    HW130765   4.867   3.546   7.274
 4541SOL    HW230766   4.816   3.556   7.132
 4542SOL     OW30767   2.215   6.463   7.704
 4542SOL    HW130768   2.158   6.466   7.628
 4542SOL    HW230769   2.156   6.450   0.003
 4543SOL     OW30770   0.309   3.399   6.888
 4543SOL    HW130771   0.387   3.378   6.939
 4543SOL    HW230772   0.321   3.354   6.805
 4544SOL     OW30773   0.526   1.731   0.566
 4544SOL    HW130774   0.539   1.760   0.656
 4544SOL    HW230775   0.463   1.793   0.529
 4545SOL     OW30776   5.673   2.829   7.212
 4545SOL    HW130777   5.746   2.890   7.202
 4545SOL    HW230778   5.651   2.833   7.305
 4546SOL     OW30779   3.114   1.666   7.194
 4546SOL    HW130780   3.175   1.666   7.120
 4546SOL    HW230781   3.133   1.584   7.239
 4547SOL     OW30782   4.765   3.735   6.651
 4547SOL    HW130783   4.855   3.749   6.680
 4547SOL    HW230784   4.730   3.670   6.713
 4548SOL     OW30785   3.877   0.293   5.719
 4548SOL    HW130786   3.871   0.225   5.652
 4548SOL    HW230787   3.788   0.328   5.727
 4549SOL     OW30788   6.222   3.331   7.748
 4549SOL    HW130789   6.269   3.370   0.047
 4549SOL    HW230790   6.185   3.406   7.702
 4550SOL     OW30791   4.779   3.299   7.044
 4550SOL    HW130792   4.831   3.351   7.105
 4550SOL    HW230793   4.728   3.363   6.995
 4551SOL     OW30794   5.410   3.557   6.435
 4551SOL    HW130795   5.342   3.543   6.370
 4551SOL    HW230796   5.363   3.579   6.516
 4552SOL     OW30797   3.410   5.918   5.734
 4552SOL    HW130798   3.422   5.825   5.755
 4552SOL    HW230799   3.445   5.927   5.646
 4553SOL     OW30800   0.366   3.337   5.985
 4553SOL    HW130801   0.303   3.295   5.926
 4553SOL    HW230802   0.410   3.402   5.931
 4554SOL     OW30803   5.862   2.885   0.161
 4554SOL    HW130804   5.787   2.944   0.155
 4554SOL    HW230805   5.937   2.940   0.136
 4555SOL     OW30806   6.076   3.933   2.118
 4555SOL    HW130807   6.085   3.851   2.071
 4555SOL    HW230808   6.017   3.914   2.191
 4556SOL     OW30809   2.207   1.546   0.948
 4556SOL    HW130810   2.257   1.555   1.030
 4556SOL    HW230811   2.220   1.630   0.903
 4557SOL     OW30812   4.928   1.768   0.456
 4557SOL    HW130813   4.944   1.696   0.517
 4557SOL    HW230814   4.942   1.847   0.508
 4558SOL     OW30815   6.054   0.293   7.272
 4558SOL    HW130816   6.067   0.226   7.205
 4558SOL    HW230817   6.138   0.340   7.276
 4559SOL     OW30818   4.421   2.568   0.606
 4559SOL    HW130819   4.390   2.505   0.543
 4559SOL    HW230820   4.441   2.647   0.555
 4560SOL     OW30821   3.703   5.819   0.017
 4560SOL    HW130822   3.730   5.789   7.706
 4560SOL    HW230823   3.624   5.871   0.001
 4561SOL     OW30824   5.592   3.252   0.346
 4561SOL    HW130825   5.686   3.240   0.359
 4561SOL    HW230826   5.582   3.343   0.319
 4562SOL     OW30827   4.245   3.928   0.807
 4562SOL    HW130828   4.183   3.875   0.856
 4562SOL    HW230829   4.271   3.872   0.733
 4563SOL     OW30830   1.204   0.758   6.805
 4563SOL    HW130831   1.261   0.720   6.738
 4563SOL    HW230832   1.208   0.852   6.790
 4564SOL     OW30833   0.190   1.144   7.066
 4564SOL    HW130834   0.126   1.109   7.004
 4564SOL    HW230835   0.275   1.121   7.028
 4565SOL     OW30836   1.052   5.803   0.856
 4565SOL    HW130837   1.133   5.852   0.847
 4565SOL    HW230838   1.044   5.786   0.949
 4566SOL     OW30839   3.962   6.369   7.206
 4566SOL    HW130840   4.022   6.443   7.211
 4566SOL    HW230841   3.929   6.370   7.116
 4567SOL     OW30842   3.967   5.200   6.742
 4567SOL    HW130843   4.030   5.188   6.813
 4567SOL    HW230844   3.914   5.120   6.742
 4568SOL     OW30845   5.961   0.402   5.333
 4568SOL    HW130846   6.051   0.401   5.364
 4568SOL    HW230847   5.931   0.492   5.349
 4569SOL     OW30848   0.410   4.998   6.010
 4569SOL    HW130849   0.467   5.061   5.968
 4569SOL    HW230850   0.326   5.006   5.964
 4570SOL     OW30851   0.555   5.238   1.472
 4570SOL    HW130852   0.480   5.258   1.416
 4570SOL    HW230853   0.612   5.184   1.417
 4571SOL     OW30854   5.687   3.973   6.361
 4571SOL    HW130855   5.613   3.925   6.323
 4571SOL    HW230856   5.697   3.936   6.449
 4572SOL     OW30857   3.133   0.386   1.597
 4572SOL    HW130858   3.217   0.351   1.625
 4572SOL    HW230859   3.132   0.476   1.630
 4573SOL     OW30860   2.824   5.553   5.927
 4573SOL    HW130861   2.783   5.474   5.892
 4573SOL    HW230862   2.835   5.535   6.020
 4574SOL     OW30863   1.670   5.711   0.598
 4574SOL    HW130864   1.632   5.757   0.673
 4574SOL    HW230865   1.742   5.767   0.570
 4575SOL     OW30866   0.948   5.117   0.608
 4575SOL    HW130867   0.985   5.053   0.669
 4575SOL    HW230868   1.007   5.116   0.533
 4576SOL     OW30869   3.038   5.590   6.843
 4576SOL    HW130870   2.995   5.654   6.899
 4576SOL    HW230871   3.020   5.506   6.885
 4577SOL     OW30872   3.729   5.554   5.429
 4577SOL    HW130873   3.794   5.538   5.361
 4577SOL    HW230874   3.647   5.569   5.380
 4578SOL     OW30875   4.395   0.120   1.896
 4578SOL    HW130876   4.320   0.141   1.951
 4578SOL    HW230877   4.362   0.053   1.835
 4579SOL     OW30878   4.258   3.276   6.918
 4579SOL    HW130879   4.312   3.208   6.876
 4579SOL    HW230880   4.235   3.239   7.003
 4580SOL     OW30881   3.418   2.399   6.261
 4580SOL    HW130882   3.408   2.331   6.193
 4580SOL    HW230883   3.329   2.412   6.294
 4581SOL     OW30884   2.898   3.705   7.413
 4581SOL    HW130885   2.851   3.632   7.454
 4581SOL    HW230886   2.860   3.711   7.325
 4582SOL     OW30887   1.572   3.637   6.910
 4582SOL    HW130888   1.495   3.584   6.889
 4582SOL    HW230889   1.558   3.664   7.001
 4583SOL     OW30890   2.998   5.173   0.631
 4583SOL    HW130891   2.955   5.259   0.630
 4583SOL    HW230892   3.031   5.162   0.542
 4584SOL     OW30893   5.293   2.586   7.361
 4584SOL    HW130894   5.385   2.590   7.335
 4584SOL    HW230895   5.257   2.511   7.314
 4585SOL     OW30896   3.103   0.086   6.114
 4585SOL    HW130897   3.172   0.112   6.053
 4585SOL    HW230898   3.022   0.091   6.063
 4586SOL     OW30899   3.253   5.428   5.753
 4586SOL    HW130900   3.318   5.386   5.809
 4586SOL    HW230901   3.191   5.468   5.814
 4587SOL     OW30902   0.080   6.206   6.082
 4587SOL    HW130903   0.050   6.159   6.004
 4587SOL    HW230904   0.132   6.279   6.048
 4588SOL     OW30905   6.103   4.882   0.410
 4588SOL    HW130906   6.161   4.838   0.348
 4588SOL    HW230907   6.015   4.872   0.373
 4589SOL     OW30908   2.202   0.347   6.970
 4589SOL    HW130909   2.224   0.255   6.959
 4589SOL    HW230910   2.107   0.348   6.982
 4590SOL     OW30911   1.511   5.464   7.288
 4590SOL    HW130912   1.569   5.396   7.322
 4590SOL    HW230913   1.519   5.457   7.193
 4591SOL     OW30914   3.384   0.282   1.670
 4591SOL    HW130915   3.409   0.311   1.758
 4591SOL    HW230916   3.339   0.199   1.685
 4592SOL     OW30917   3.758   1.565   7.492
 4592SOL    HW130918   3.838   1.560   7.440
 4592SOL    HW230919   3.704   1.629   7.447
 4593SOL     OW30920   1.589   2.488   6.268
 4593SOL    HW130921   1.556   2.401   6.243
 4593SOL    HW230922   1.554   2.547   6.200
 4594SOL     OW30923   0.660   5.961   6.495
 4594SOL    HW130924   0.740   5.909   6.502
 4594SOL    HW230925   0.597   5.917   6.553
 4595SOL     OW30926   0.570   3.304   0.940
 4595SOL    HW130927   0.558   3.284   1.033
 4595SOL    HW230928   0.555   3.220   0.896
 4596SOL     OW30929   4.009   3.020   0.536
 4596SOL    HW130930   4.046   3.068   0.610
 4596SOL    HW230931   3.956   2.951   0.576
 4597SOL     OW30932   3.444   4.975   0.655
 4597SOL    HW130933   3.470   4.885   0.638
 4597SOL    HW230934   3.401   5.003   0.575
 4598SOL     OW30935   4.797   1.177   1.914
 4598SOL    HW130936   4.805   1.169   2.009
 4598SOL    HW230937   4.766   1.266   1.900
 4599SOL     OW30938   4.326   1.180   0.946
 4599SOL    HW130939   4.336   1.257   1.001
 4599SOL    HW230940   4.232   1.171   0.934
 4600SOL     OW30941   2.492   2.483   0.085
 4600SOL    HW130942   2.543   2.496   0.164
 4600SOL    HW230943   2.556   2.487   0.014
 4601SOL     OW30944   6.071   1.066   0.685
 4601SOL    HW130945   6.000   1.002   0.694
 4601SOL    HW230946   6.028   1.145   0.652
 4602SOL     OW30947   0.109   5.177   6.917
 4602SOL    HW130948   0.133   5.256   6.868
 4602SOL    HW230949   0.027   5.148   6.877
 4603SOL     OW30950   1.250   4.298   0.508
 4603SOL    HW130951   1.261   4.352   0.431
 4603SOL    HW230952   1.317   4.329   0.569
 4604SOL     OW30953   4.928   5.426   1.998
 4604SOL    HW130954   5.008   5.388   2.035
 4604SOL    HW230955   4.924   5.391   1.909
 4605SOL     OW30956   0.431   2.710   0.994
 4605SOL    HW130957   0.413   2.774   1.064
 4605SOL    HW230958   0.365   2.729   0.927
 4606SOL     OW30959   4.741   6.071   1.849
 4606SOL    HW130960   4.788   6.066   1.933
 4606SOL    HW230961   4.679   5.999   1.853
 4607SOL     OW30962   3.233   1.155   6.651
 4607SOL    HW130963   3.203   1.081   6.702
 4607SOL    HW230964   3.284   1.208   6.712
 4608SOL     OW30965   0.578   4.523   0.179
 4608SOL    HW130966   0.667   4.486   0.181
 4608SOL    HW230967   0.521   4.452   0.208
 4609SOL     OW30968   2.331   3.495   2.159
 4609SOL    HW130969   2.417   3.502   2.117
 4609SOL    HW230970   2.299   3.408   2.133
 4610SOL     OW30971   2.011   6.157   6.183
 4610SOL    HW130972   2.087   6.177   6.238
 4610SOL    HW230973   2.031   6.199   6.099
 4611SOL     OW30974   1.081   0.795   2.156
 4611SOL    HW130975   0.997   0.769   2.117
 4611SOL    HW230976   1.101   0.726   2.219
 4612SOL     OW30977   3.441   2.729   0.101
 4612SOL    HW130978   3.506   2.749   0.168
 4612SOL    HW230979   3.395   2.652   0.133
 4613SOL     OW30980   0.863   4.338   7.571
 4613SOL    HW130981   0.846   4.323   7.478
 4613SOL    HW230982   0.776   4.342   7.611
 4614SOL     OW30983   1.986   3.176   6.839
 4614SOL    HW130984   1.987   3.097   6.785
 4614SOL    HW230985   1.903   3.172   6.886
 4615SOL     OW30986   4.935   5.577   1.281
 4615SOL    HW130987   4.992   5.577   1.204
 4615SOL    HW230988   4.893   5.663   1.280
 4616SOL     OW30989   2.947   3.983   0.255
 4616SOL    HW130990   2.867   3.947   0.293
 4616SOL    HW230991   2.924   4.073   0.231
 4617SOL     OW30992   1.462   1.866   0.026
 4617SOL    HW130993   1.432   1.779   7.775
 4617SOL    HW230994   1.382   1.919   0.029
 4618SOL     OW30995   4.500   1.577   0.427
 4618SOL    HW130996   4.420   1.625   0.449
 4618SOL    HW230997   4.565   1.610   0.489
 4619SOL     OW30998   1.965   5.335   5.559
 4619SOL    HW130999   1.964   5.254   5.609
 4619SOL    HW231000   2.056   5.347   5.533
 4620SOL     OW31001   4.021   3.722   1.248
 4620SOL    HW131002   4.049   3.649   1.303
 4620SOL    HW231003   3.972   3.779   1.307
 4621SOL     OW31004   0.949   6.212   0.124
 4621SOL    HW131005   1.009   6.175   0.188
 4621SOL    HW231006   0.899   6.278   0.173
 4622SOL     OW31007   5.168   5.876   7.334
 4622SOL    HW131008   5.145   5.783   7.343
 4622SOL    HW231009   5.263   5.876   7.323
 4623SOL     OW31010   1.728   6.178   6.886
 4623SOL    HW131011   1.715   6.271   6.870
 4623SOL    HW231012   1.758   6.143   6.802
 4624SOL     OW31013   5.998   5.518   6.701
 4624SOL    HW131014   5.970   5.604   6.670
 4624SOL    HW231015   5.928   5.459   6.672
 4625SOL     OW31016   1.436   4.585   5.470
 4625SOL    HW131017   1.345   4.554   5.471
 4625SOL    HW231018   1.438   4.650   5.400
 4626SOL     OW31019   1.340   4.524   5.997
 4626SOL    HW131020   1.375   4.451   5.946
 4626SOL    HW231021   1.268   4.485   6.048
 4627SOL     OW31022   4.592   1.923   7.277
 4627SOL    HW131023   4.533   1.932   7.353
 4627SOL    HW231024   4.660   1.862   7.307
 4628SOL     OW31025   2.397   4.043   0.375
 4628SOL    HW131026   2.413   3.962   0.423
 4628SOL    HW231027   2.309   4.070   0.400
 4629SOL     OW31028   2.340   3.150   1.215
 4629SOL    HW131029   2.395   3.151   1.293
 4629SOL    HW231030   2.385   3.208   1.153
 4630SOL     OW31031   6.330   2.768   5.484
 4630SOL    HW131032   6.287   2.707   5.424
 4630SOL    HW231033   6.419   2.732   5.495
 4631SOL     OW31034   1.187   3.346   6.972
 4631SOL    HW131035   1.254   3.412   6.953
 4631SOL    HW231036   1.200   3.279   6.905
 4632SOL     OW31037   5.834   5.615   0.081
 4632SOL    HW131038   5.814   5.539   0.136
 4632SOL    HW231039   5.897   5.582   0.017
 4633SOL     OW31040   3.269   6.447   7.330
 4633SOL    HW131041   3.209   0.005   7.270
 4633SOL    HW231042   3.220   6.437   7.411
 4634SOL     OW31043   2.432   5.275   1.609
 4634SOL    HW131044   2.347   5.232   1.597
 4634SOL    HW231045   2.496   5.210   1.580
 4635SOL     OW31046   3.334   2.890   0.780
 4635SOL    HW131047   3.418   2.905   0.737
 4635SOL    HW231048   3.271   2.937   0.726
 4636SOL     OW31049   4.925   5.703   2.481
 4636SOL    HW131050   5.020   5.705   2.494
 4636SOL    HW231051   4.912   5.634   2.416
 4637SOL     OW31052   4.082   6.230   1.160
 4637SOL    HW131053   4.040   6.305   1.202
 4637SOL    HW231054   4.109   6.263   1.074
 4638SOL     OW31055   0.409   1.283   1.110
 4638SOL    HW131056   0.415   1.295   1.205
 4638SOL    HW231057   0.337   1.221   1.098
 4639SOL     OW31058   5.141   6.260   7.183
 4639SOL    HW131059   5.092   6.285   7.261
 4639SOL    HW231060   5.104   6.176   7.157
 4640SOL     OW31061   4.478   0.864   1.096
 4640SOL    HW131062   4.429   0.836   1.174
 4640SOL    HW231063   4.413   0.860   1.025
 4641SOL     OW31064   2.076   6.398   7.472
 4641SOL    HW131065   2.150   6.405   7.412
 4641SOL    HW231066   2.099   6.324   7.528
 4642SOL     OW31067   2.215   2.076   6.650
 4642SOL    HW131068   2.243   2.164   6.627
 4642SOL    HW231069   2.289   2.019   6.626
 4643SOL     OW31070   1.314   3.747   6.137
 4643SOL    HW131071   1.293   3.841   6.131
 4643SOL    HW231072   1.240   3.704   6.094
 4644SOL     OW31073   3.293   0.669   0.618
 4644SOL    HW131074   3.243   0.645   0.696
 4644SOL    HW231075   3.381   0.636   0.636
 4645SOL     OW31076   6.114   4.124   6.755
 4645SOL    HW131077   6.198   4.155   6.789
 4645SOL    HW231078   6.049   4.184   6.791
 4646SOL     OW31079   2.729   5.128   5.657
 4646SOL    HW131080   2.681   5.157   5.579
 4646SOL    HW231081   2.693   5.180   5.728
 4647SOL     OW31082   5.405   2.444   6.975
 4647SOL    HW131083   5.431   2.513   7.036
 4647SOL    HW231084   5.389   2.368   7.031
 4648SOL     OW31085   3.371   3.220   6.636
 4648SOL    HW131086   3.440   3.184   6.692
 4648SOL    HW231087   3.400   3.203   6.547
 4649SOL     OW31088   3.744   4.823   1.384
 4649SOL    HW131089   3.659   4.840   1.424
 4649SOL    HW231090   3.795   4.902   1.400
 4650SOL     OW31091   4.550   0.298   5.341
 4650SOL    HW131092   4.636   0.338   5.332
 4650SOL    HW231093   4.488   0.371   5.333
 4651SOL     OW31094   5.758   4.428   7.603
 4651SOL    HW131095   5.840   4.381   7.608
 4651SOL    HW231096   5.742   4.439   7.509
 4652SOL     OW31097   1.353   5.528   5.870
 4652SOL    HW131098   1.326   5.617   5.893
 4652SOL    HW231099   1.322   5.474   5.943
 4653SOL     OW31100   4.494   1.468   1.266
 4653SOL    HW131101   4.485   1.473   1.361
 4653SOL    HW231102   4.487   1.559   1.236
 4654SOL     OW31103   1.597   0.400   6.792
 4654SOL    HW131104   1.684   0.429   6.768
 4654SOL    HW231105   1.537   0.459   6.746
 4655SOL     OW31106   3.141   3.373   6.770
 4655SOL    HW131107   3.134   3.277   6.772
 4655SOL    HW231108   3.220   3.390   6.719
 4656SOL     OW31109   2.548   3.254   5.742
 4656SOL    HW131110   2.539   3.340   5.702
 4656SOL    HW231111   2.628   3.219   5.703
 4657SOL     OW31112   2.887   3.631   1.149
 4657SOL    HW131113   2.807   3.596   1.188
 4657SOL    HW231114   2.958   3.598   1.204
 4658SOL     OW31115   0.118   4.741   7.461
 4658SOL    HW131116   0.193   4.773   7.511
 4658SOL    HW231117   0.122   4.789   7.378
 4659SOL     OW31118   4.874   2.188   7.773
 4659SOL    HW131119   4.884   2.244   0.074
 4659SOL    HW231120   4.845   2.246   7.703
 4660SOL     OW31121   6.345   2.299   6.446
 4660SOL    HW131122   6.434   2.298   6.481
 4660SOL    HW231123   6.343   2.377   6.390
 4661SOL     OW31124   4.179   4.599   0.234
 4661SOL    HW131125   4.222   4.654   0.299
 4661SOL    HW231126   4.220   4.513   0.244
 4662SOL     OW31127   3.704   3.239   1.564
 4662SOL    HW131128   3.643   3.271   1.631
 4662SOL    HW231129   3.791   3.253   1.602
 4663SOL     OW31130   1.934   5.097   6.627
 4663SOL    HW131131   1.867   5.152   6.586
 4663SOL    HW231132   1.888   5.018   6.654
 4664SOL     OW31133   2.340   0.129   6.108
 4664SOL    HW131134   2.291   0.091   6.035
 4664SOL    HW231135   2.377   0.054   6.154
 4665SOL     OW31136   0.478   4.085   6.253
 4665SOL    HW131137   0.385   4.080   6.230
 4665SOL    HW231138   0.523   4.046   6.178
 4666SOL     OW31139   3.080   5.405   0.153
 4666SOL    HW131140   3.095   5.407   0.248
 4666SOL    HW231141   3.012   5.470   0.138
 4667SOL     OW31142   4.074   1.414   6.207
 4667SOL    HW131143   4.060   1.437   6.115
 4667SOL    HW231144   4.103   1.496   6.247
 4668SOL     OW31145   5.517   3.752   6.796
 4668SOL    HW131146   5.584   3.732   6.860
 4668SOL    HW231147   5.565   3.768   6.715
 4669SOL     OW31148   2.253   2.569   5.822
 4669SOL    HW131149   2.288   2.480   5.825
 4669SOL    HW231150   2.314   2.617   5.765
 4670SOL     OW31151   0.618   1.752   0.986
 4670SOL    HW131152   0.692   1.781   0.933
 4670SOL    HW231153   0.540   1.781   0.937
 4671SOL     OW31154   4.030   5.594   7.462
 4671SOL    HW131155   3.975   5.527   7.500
 4671SOL    HW231156   4.083   5.548   7.396
 4672SOL     OW31157   0.927   0.357   1.611
 4672SOL    HW131158   0.904   0.282   1.555
 4672SOL    HW231159   0.963   0.422   1.551
 4673SOL     OW31160   6.176   6.149   0.041
 4673SOL    HW131161   6.110   6.218   0.029
 4673SOL    HW231162   6.178   6.102   7.733
 4674SOL     OW31163   2.912   2.645   6.136
 4674SOL    HW131164   2.979   2.683   6.079
 4674SOL    HW231165   2.884   2.717   6.193
 4675SOL     OW31166   2.343   4.810   5.545
 4675SOL    HW131167   2.374   4.811   5.454
 4675SOL    HW231168   2.248   4.795   5.538
 4676SOL     OW31169   5.549   1.913   5.635
 4676SOL    HW131170   5.531   1.864   5.555
 4676SOL    HW231171   5.466   1.958   5.654
 4677SOL     OW31172   0.463   2.712   6.728
 4677SOL    HW131173   0.539   2.765   6.705
 4677SOL    HW231174   0.460   2.643   6.662
 4678SOL     OW31175   4.870   1.955   7.398
 4678SOL    HW131176   4.814   1.950   7.475
 4678SOL    HW231177   4.951   1.912   7.424
 4679SOL     OW31178   5.597   0.407   0.936
 4679SOL    HW131179   5.688   0.408   0.908
 4679SOL    HW231180   5.596   0.459   1.017
 4680SOL     OW31181   6.360   6.432   7.715
 4680SOL    HW131182   6.425   0.004   7.754
 4680SOL    HW231183   6.329   6.479   7.638
 4681SOL     OW31184   0.295   5.205   6.455
 4681SOL    HW131185   0.327   5.125   6.412
 4681SOL    HW231186   0.206   5.216   6.421
 4682SOL     OW31187   0.473   0.832   0.103
 4682SOL    HW131188   0.523   0.820   0.022
 4682SOL    HW231189   0.388   0.792   0.085
 4683SOL     OW31190   5.758   2.474   1.023
 4683SOL    HW131191   5.845   2.449   0.992
 4683SOL    HW231192   5.707   2.393   1.015
 4684SOL     OW31193   0.665   5.930   7.644
 4684SOL    HW131194   0.699   5.849   7.683
 4684SOL    HW231195   0.743   5.983   7.628
 4685SOL     OW31196   3.665   2.093   2.195
 4685SOL    HW131197   3.681   2.000   2.183
 4685SOL    HW231198   3.702   2.113   2.281
 4686SOL     OW31199   2.906   5.361   6.948
 4686SOL    HW131200   2.815   5.348   6.974
 4686SOL    HW231201   2.948   5.400   7.025
 4687SOL     OW31202   0.088   2.573   0.782
 4687SOL    HW131203   0.112   2.517   0.857
 4687SOL    HW231204   6.485   2.602   0.802
 4688SOL     OW31205   3.290   5.793   1.931
 4688SOL    HW131206   3.293   5.699   1.950
 4688SOL    HW231207   3.275   5.834   2.016
 4689SOL     OW31208   3.726   4.719   6.745
 4689SOL    HW131209   3.668   4.647   6.768
 4689SOL    HW231210   3.814   4.683   6.755
 4690SOL     OW31211   0.099   6.208   0.676
 4690SOL    HW131212   0.022   6.193   0.732
 4690SOL    HW231213   0.063   6.246   0.596
 4691SOL     OW31214   0.876   5.212   7.009
 4691SOL    HW131215   0.889   5.266   6.931
 4691SOL    HW231216   0.866   5.276   7.080
 4692SOL     OW31217   4.669   2.600   7.493
 4692SOL    HW131218   4.636   2.551   7.417
 4692SOL    HW231219   4.760   2.620   7.470
 4693SOL     OW31220   0.259   0.099   1.324
 4693SOL    HW131221   0.265   0.166   1.256
 4693SOL    HW231222   0.168   0.070   1.322
 4694SOL     OW31223   4.196   2.155   0.548
 4694SOL    HW131224   4.239   2.074   0.575
 4694SOL    HW231225   4.105   2.130   0.531
 4695SOL     OW31226   2.871   2.945   6.959
 4695SOL    HW131227   2.924   2.993   7.022
 4695SOL    HW231228   2.852   3.008   6.889
 4696SOL     OW31229   1.312   4.477   0.311
 4696SOL    HW131230   1.302   4.418   0.237
 4696SOL    HW231231   1.350   4.557   0.273
 4697SOL     OW31232   3.648   3.033   7.171
 4697SOL    HW131233   3.553   3.035   7.181
 4697SOL    HW231234   3.667   3.100   7.105
 4698SOL     OW31235   1.945   3.516   6.689
 4698SOL    HW131236   1.910   3.551   6.771
 4698SOL    HW231237   2.005   3.447   6.717
 4699SOL     OW31238   4.265   3.358   1.572
 4699SOL    HW131239   4.217   3.351   1.655
 4699SOL    HW231240   4.272   3.267   1.541
 4700SOL     OW31241   1.781   4.351   0.724
 4700SOL    HW131242   1.777   4.296   0.802
 4700SOL    HW231243   1.846   4.309   0.668
 4701SOL     OW31244   3.109   6.101   0.936
 4701SOL    HW131245   3.187   6.091   0.991
 4701SOL    HW231246   3.138   6.156   0.863
 4702SOL     OW31247   0.651   0.329   1.130
 4702SOL    HW131248   0.650   0.391   1.058
 4702SOL    HW231249   0.737   0.340   1.171
 4703SOL     OW31250   2.285   4.402   6.542
 4703SOL    HW131251   2.318   4.347   6.470
 4703SOL    HW231252   2.272   4.488   6.501
 4704SOL     OW31253   0.618   5.731   2.172
 4704SOL    HW131254   0.549   5.739   2.106
 4704SOL    HW231255   0.665   5.815   2.167
 4705SOL     OW31256   4.984   2.610   1.884
 4705SOL    HW131257   4.919   2.677   1.904
 4705SOL    HW231258   4.932   2.534   1.855
 4706SOL     OW31259   5.257   1.557   7.678
 4706SOL    HW131260   5.317   1.534   7.749
 4706SOL    HW231261   5.197   1.482   7.673
 4707SOL     OW31262   5.931   5.777   0.542
 4707SOL    HW131263   5.933   5.748   0.451
 4707SOL    HW231264   6.023   5.783   0.567
 4708SOL     OW31265   0.768   4.851   5.368
 4708SOL    HW131266   0.672   4.857   5.366
 4708SOL    HW231267   0.798   4.942   5.363
 4709SOL     OW31268   5.044   5.545   6.252
 4709SOL    HW131269   5.078   5.460   6.223
 4709SOL    HW231270   5.090   5.609   6.198
 4710SOL     OW31271   1.549   3.135   0.302
 4710SOL    HW131272   1.604   3.096   0.234
 4710SOL    HW231273   1.602   3.207   0.337
 4711SOL     OW31274   4.615   5.949   0.037
 4711SOL    HW131275   4.532   5.993   0.056
 4711SOL    HW231276   4.682   6.010   0.066
 4712SOL     OW31277   3.157   5.665   0.551
 4712SOL    HW131278   3.067   5.656   0.523
 4712SOL    HW231279   3.175   5.759   0.546
 4713SOL     OW31280   0.222   2.908   0.413
 4713SOL    HW131281   0.231   2.992   0.458
 4713SOL    HW231282   0.164   2.926   0.340
 4714SOL     OW31283   4.744   0.433   1.819
 4714SOL    HW131284   4.779   0.448   1.907
 4714SOL    HW231285   4.778   0.505   1.767
 4715SOL     OW31286   4.533   4.048   6.966
 4715SOL    HW131287   4.487   4.079   7.044
 4715SOL    HW231288   4.466   4.044   6.898
 4716SOL     OW31289   2.420   2.190   0.331
 4716SOL    HW131290   2.508   2.216   0.304
 4716SOL    HW231291   2.405   2.236   0.414
 4717SOL     OW31292   3.749   0.064   7.336
 4717SOL    HW131293   3.773   6.461   7.312
 4717SOL    HW231294   3.793   0.120   7.272
 4718SOL     OW31295   1.040   5.963   1.301
 4718SOL    HW131296   1.049   6.026   1.230
 4718SOL    HW231297   1.056   5.878   1.261
 4719SOL     OW31298   6.390   1.489   1.546
 4719SOL    HW131299   6.301   1.459   1.526
 4719SOL    HW231300   6.390   1.581   1.519
 4720SOL     OW31301   3.638   2.184   1.079
 4720SOL    HW131302   3.587   2.250   1.032
 4720SOL    HW231303   3.726   2.192   1.043
 4721SOL     OW31304   4.223   3.466   0.080
 4721SOL    HW131305   4.242   3.374   0.067
 4721SOL    HW231306   4.279   3.493   0.153
 4722SOL     OW31307   3.174   5.748   5.553
 4722SOL    HW131308   3.163   5.761   5.647
 4722SOL    HW231309   3.096   5.790   5.515
 4723SOL     OW31310   3.879   2.641   1.926
 4723SOL    HW131311   3.908   2.731   1.937
 4723SOL    HW231312   3.955   2.588   1.949
 4724SOL     OW31313   1.675   2.699   7.273
 4724SOL    HW131314   1.721   2.731   7.351
 4724SOL    HW231315   1.738   2.642   7.229
 4725SOL     OW31316   0.850   4.819   0.279
 4725SOL    HW131317   0.886   4.790   0.195
 4725SOL    HW231318   0.849   4.740   0.333
 4726SOL     OW31319   0.160   5.883   0.580
 4726SOL    HW131320   0.128   5.928   0.658
 4726SOL    HW231321   0.122   5.931   0.506
 4727SOL     OW31322   5.452   3.321   6.577
 4727SOL    HW131323   5.528   3.298   6.631
 4727SOL    HW231324   5.460   3.415   6.563
 4728SOL     OW31325   5.239   2.976   0.874
 4728SOL    HW131326   5.297   3.021   0.936
 4728SOL    HW231327   5.282   2.985   0.790
 4729SOL     OW31328   6.322   2.087   0.358
 4729SOL    HW131329   6.258   2.116   0.422
 4729SOL    HW231330   6.406   2.093   0.404
 4730SOL     OW31331   1.380   3.445   5.402
 4730SOL    HW131332   1.323   3.368   5.399
 4730SOL    HW231333   1.467   3.412   5.380
 4731SOL     OW31334   5.676   2.209   1.113
 4731SOL    HW131335   5.686   2.160   1.032
 4731SOL    HW231336   5.756   2.191   1.162
 4732SOL     OW31337   5.998   0.814   1.180
 4732SOL    HW131338   6.092   0.833   1.184
 4732SOL    HW231339   5.993   0.723   1.152
 4733SOL     OW31340   2.420   5.825   0.044
 4733SOL    HW131341   2.486   5.832   7.750
 4733SOL    HW231342   2.424   5.734   0.072
 4734SOL     OW31343   1.709   4.364   2.403
 4734SOL    HW131344   1.762   4.436   2.369
 4734SOL    HW231345   1.640   4.406   2.453
 4735SOL     OW31346   3.383   2.683   0.428
 4735SOL    HW131347   3.358   2.641   0.511
 4735SOL    HW231348   3.346   2.627   0.361
 4736SOL     OW31349   1.413   6.004   6.740
 4736SOL    HW131350   1.419   6.091   6.780
 4736SOL    HW231351   1.501   5.967   6.749
 4737SOL     OW31352   1.487   2.739   0.919
 4737SOL    HW131353   1.515   2.772   1.005
 4737SOL    HW231354   1.568   2.710   0.877
 4738SOL     OW31355   5.814   2.908   0.798
 4738SOL    HW131356   5.840   2.823   0.832
 4738SOL    HW231357   5.892   2.963   0.807
 4739SOL     OW31358   4.360   4.454   7.270
 4739SOL    HW131359   4.407   4.522   7.222
 4739SOL    HW231360   4.328   4.498   7.349
 4740SOL     OW31361   5.176   1.626   0.663
 4740SOL    HW131362   5.217   1.561   0.720
 4740SOL    HW231363   5.108   1.578   0.616
 4741SOL     OW31364   5.795   2.400   2.190
 4741SOL    HW131365   5.862   2.468   2.182
 4741SOL    HW231366   5.823   2.332   2.129
 4742SOL     OW31367   3.498   1.443   5.943
 4742SOL    HW131368   3.458   1.410   5.862
 4742SOL    HW231369   3.476   1.377   6.009
 4743SOL     OW31370   2.529   1.608   2.034
 4743SOL    HW131371   2.620   1.631   2.051
 4743SOL    HW231372   2.498   1.675   1.973
 4744SOL     OW31373   3.617   6.335   6.622
 4744SOL    HW131374   3.628   6.259   6.564
 4744SOL    HW231375   3.626   6.299   6.710
 4745SOL     OW31376   0.689   1.061   0.510
 4745SOL    HW131377   0.729   1.063   0.598
 4745SOL    HW231378   0.595   1.063   0.527
 4746SOL     OW31379   5.404   5.351   0.411
 4746SOL    HW131380   5.386   5.257   0.408
 4746SOL    HW231381   5.430   5.368   0.501
 4747SOL     OW31382   1.570   0.641   0.875
 4747SOL    HW131383   1.598   0.732   0.863
 4747SOL    HW231384   1.638   0.602   0.930
 4748SOL     OW31385   2.921   2.057   7.324
 4748SOL    HW131386   2.848   2.099   7.279
 4748SOL    HW231387   2.887   2.038   7.412
 4749SOL     OW31388   3.734   2.955   5.827
 4749SOL    HW131389   3.807   3.011   5.853
 4749SOL    HW231390   3.760   2.867   5.854
 4750SOL     OW31391   4.146   0.617   0.459
 4750SOL    HW131392   4.120   0.709   0.463
 4750SOL    HW231393   4.226   0.616   0.407
 4751SOL     OW31394   2.844   5.092   6.016
 4751SOL    HW131395   2.829   5.133   6.102
 4751SOL    HW231396   2.771   5.032   6.005
 4752SOL     OW31397   0.423   3.432   0.375
 4752SOL    HW131398   0.346   3.489   0.368
 4752SOL    HW231399   0.488   3.486   0.419
 4753SOL     OW31400   4.868   4.346   0.583
 4753SOL    HW131401   4.787   4.294   0.585
 4753SOL    HW231402   4.923   4.303   0.518
 4754SOL     OW31403   5.603   1.333   7.036
 4754SOL    HW131404   5.550   1.380   6.972
 4754SOL    HW231405   5.693   1.343   7.005
 4755SOL     OW31406   1.651   3.634   6.366
 4755SOL    HW131407   1.686   3.680   6.442
 4755SOL    HW231408   1.705   3.665   6.293
 4756SOL     OW31409   1.311   5.751   6.151
 4756SOL    HW131410   1.305   5.761   6.056
 4756SOL    HW231411   1.327   5.840   6.183
 4757SOL     OW31412   2.947   5.043   5.776
 4757SOL    HW131413   2.916   5.010   5.860
 4757SOL    HW231414   2.868   5.075   5.732
 4758SOL     OW31415   1.762   3.879   7.668
 4758SOL    HW131416   1.740   3.815   7.600
 4758SOL    HW231417   1.677   3.906   7.703
 4759SOL     OW31418   2.775   3.190   6.813
 4759SOL    HW131419   2.815   3.165   6.729
 4759SOL    HW231420   2.701   3.245   6.788
 4760SOL     OW31421   0.886   3.874   5.993
 4760SOL    HW131422   0.796   3.907   5.991
 4760SOL    HW231423   0.940   3.949   5.969
 4761SOL     OW31424   1.819   2.734   7.480
 4761SOL    HW131425   1.836   2.732   7.574
 4761SOL    HW231426   1.905   2.743   7.440
 4762SOL     OW31427   3.912   2.697   0.780
 4762SOL    HW131428   3.961   2.759   0.727
 4762SOL    HW231429   3.829   2.741   0.799
 4763SOL     OW31430   4.080   6.114   2.321
 4763SOL    HW131431   4.132   6.054   2.374
 4763SOL    HW231432   4.110   6.100   2.231
 4764SOL     OW31433   3.779   5.173   0.078
 4764SOL    HW131434   3.754   5.261   0.050
 4764SOL    HW231435   3.833   5.139   0.007
 4765SOL     OW31436   5.953   1.831   7.698
 4765SOL    HW131437   5.967   1.870   7.612
 4765SOL    HW231438   6.009   1.881   7.757
 4766SOL     OW31439   5.338   0.297   6.268
 4766SOL    HW131440   5.425   0.267   6.241
 4766SOL    HW231441   5.283   0.219   6.261
 4767SOL     OW31442   4.514   3.140   0.393
 4767SOL    HW131443   4.558   3.063   0.356
 4767SOL    HW231444   4.422   3.114   0.399
 4768SOL     OW31445   5.153   4.407   7.773
 4768SOL    HW131446   5.121   4.400   0.088
 4768SOL    HW231447   5.214   4.480   7.774
 4769SOL     OW31448   0.203   2.483   7.405
 4769SOL    HW131449   0.219   2.435   7.324
 4769SOL    HW231450   0.290   2.511   7.434
 4770SOL     OW31451   0.906   1.962   6.672
 4770SOL    HW131452   0.910   1.869   6.696
 4770SOL    HW231453   0.891   2.008   6.754
 4771SOL     OW31454   5.109   1.157   7.310
 4771SOL    HW131455   5.167   1.128   7.240
 4771SOL    HW231456   5.023   1.163   7.268
 4772SOL     OW31457   5.819   0.517   7.556
 4772SOL    HW131458   5.882   0.589   7.555
 4772SOL    HW231459   5.795   0.506   7.464
 4773SOL     OW31460   2.702   3.342   0.116
 4773SOL    HW131461   2.657   3.381   0.191
 4773SOL    HW231462   2.710   3.250   0.138
 4774SOL     OW31463   5.332   0.872   5.478
 4774SOL    HW131464   5.361   0.915   5.558
 4774SOL    HW231465   5.274   0.935   5.435
 4775SOL     OW31466   2.700   5.199   6.643
 4775SOL    HW131467   2.658   5.260   6.703
 4775SOL    HW231468   2.750   5.255   6.583
 4776SOL     OW31469   4.310   3.325   0.459
 4776SOL    HW131470   4.364   3.247   0.467
 4776SOL    HW231471   4.220   3.292   0.463
 4777SOL     OW31472   4.128   0.193   6.510
 4777SOL    HW131473   4.200   0.144   6.547
 4777SOL    HW231474   4.103   0.144   6.431
 4778SOL     OW31475   4.001   0.451   7.598
 4778SOL    HW131476   3.980   0.501   7.677
 4778SOL    HW231477   4.012   0.517   7.530
 4779SOL     OW31478   5.297   4.323   1.125
 4779SOL    HW131479   5.257   4.246   1.083
 4779SOL    HW231480   5.247   4.397   1.091
 4780SOL     OW31481   5.095   0.651   1.264
 4780SOL    HW131482   5.049   0.580   1.307
 4780SOL    HW231483   5.028   0.695   1.212
 4781SOL     OW31484   0.458   1.110   6.976
 4781SOL    HW131485   0.473   1.042   6.909
 4781SOL    HW231486   0.472   1.192   6.929
 4782SOL     OW31487   0.141   1.374   0.060
 4782SOL    HW131488   0.155   1.324   0.140
 4782SOL    HW231489   0.226   1.372   0.015
 4783SOL     OW31490   3.669   0.116   1.363
 4783SOL    HW131491   3.607   0.111   1.435
 4783SOL    HW231492   3.740   0.057   1.388
 4784SOL     OW31493   1.103   1.755   7.736
 4784SOL    HW131494   1.181   1.703   7.754
 4784SOL    HW231495   1.057   1.707   7.667
 4785SOL     OW31496   2.346   6.439   1.577
 4785SOL    HW131497   2.274   6.387   1.542
 4785SOL    HW231498   2.381   6.486   1.501
 4786SOL     OW31499   4.966   2.799   5.967
 4786SOL    HW131500   4.929   2.715   5.938
 4786SOL    HW231501   5.008   2.835   5.889
 4787SOL     OW31502   1.477   4.814   1.169
 4787SOL    HW131503   1.569   4.839   1.177
 4787SOL    HW231504   1.480   4.723   1.139
 4788SOL     OW31505   3.793   6.274   7.413
 4788SOL    HW131506   3.869   6.281   7.355
 4788SOL    HW231507   3.829   6.251   7.498
 4789SOL     OW31508   3.419   5.396   0.571
 4789SOL    HW131509   3.396   5.384   0.663
 4789SOL    HW231510   3.442   5.489   0.564
 4790SOL     OW31511   4.907   4.149   6.470
 4790SOL    HW131512   4.882   4.239   6.448
 4790SOL    HW231513   4.946   4.156   6.558
 4791SOL     OW31514   4.784   4.375   7.039
 4791SOL    HW131515   4.837   4.409   7.111
 4791SOL    HW231516   4.697   4.362   7.077
 4792SOL     OW31517   1.025   4.242   7.048
 4792SOL    HW131518   1.043   4.272   6.959
 4792SOL    HW231519   0.930   4.234   7.052
 4793SOL     OW31520   3.439   1.677   0.649
 4793SOL    HW131521   3.390   1.715   0.576
 4793SOL    HW231522   3.446   1.584   0.627
 4794SOL     OW31523   3.548   5.756   6.694
 4794SOL    HW131524   3.611   5.727   6.760
 4794SOL    HW231525   3.463   5.749   6.736
 4795SOL     OW31526   2.795   6.149   6.184
 4795SOL    HW131527   2.819   6.241   6.187
 4795SOL    HW231528   2.839   6.111   6.260
 4796SOL     OW31529   5.410   2.092   1.773
 4796SOL    HW131530   5.402   2.067   1.865
 4796SOL    HW231531   5.326   2.134   1.752
 4797SOL     OW31532   4.132   6.076   2.055
 4797SOL    HW131533   4.057   6.046   2.004
 4797SOL    HW231534   4.135   6.170   2.040
 4798SOL     OW31535   1.814   3.642   7.302
 4798SOL    HW131536   1.882   3.698   7.265
 4798SOL    HW231537   1.848   3.553   7.290
 4799SOL     OW31538   1.262   1.886   6.798
 4799SOL    HW131539   1.258   1.908   6.705
 4799SOL    HW231540   1.299   1.963   6.840
 4800SOL     OW31541   2.192   5.242   7.317
 4800SOL    HW131542   2.142   5.204   7.244
 4800SOL    HW231543   2.270   5.187   7.324
 4801SOL     OW31544   0.678   4.700   1.012
 4801SOL    HW131545   0.616   4.654   1.069
 4801SOL    HW231546   0.717   4.631   0.959
 4802SOL     OW31547   0.038   2.391   1.002
 4802SOL    HW131548   0.120   2.353   1.034
 4802SOL    HW231549   6.475   2.317   0.968
 4803SOL     OW31550   0.102   1.619   7.155
 4803SOL    HW131551   0.082   1.704   7.194
 4803SOL    HW231552   0.166   1.579   7.215
 4804SOL     OW31553   0.485   0.819   1.017
 4804SOL    HW131554   0.404   0.855   0.980
 4804SOL    HW231555   0.505   0.877   1.090
 4805SOL     OW31556   4.286   1.866   6.072
 4805SOL    HW131557   4.378   1.851   6.050
 4805SOL    HW231558   4.237   1.824   6.001
 4806SOL     OW31559   2.164   4.627   7.243
 4806SOL    HW131560   2.219   4.668   7.176
 4806SOL    HW231561   2.177   4.533   7.231
 4807SOL     OW31562   1.844   2.126   5.851
 4807SOL    HW131563   1.892   2.161   5.776
 4807SOL    HW231564   1.753   2.149   5.833
 4808SOL     OW31565   2.196   6.217   6.375
 4808SOL    HW131566   2.227   6.139   6.330
 4808SOL    HW231567   2.253   6.226   6.451
 4809SOL     OW31568   6.146   4.503   0.546
 4809SOL    HW131569   6.153   4.408   0.558
 4809SOL    HW231570   6.053   4.521   0.557
 4810SOL     OW31571   2.122   1.221   0.172
 4810SOL    HW131572   2.089   1.137   0.140
 4810SOL    HW231573   2.055   1.252   0.233
 4811SOL     OW31574   3.360   5.658   7.131
 4811SOL    HW131575   3.332   5.660   7.223
 4811SOL    HW231576   3.439   5.605   7.131
 4812SOL     OW31577   1.025   0.695   6.236
 4812SOL    HW131578   0.934   0.670   6.219
 4812SOL    HW231579   1.023   0.790   6.239
 4813SOL     OW31580   6.104   6.085   7.518
 4813SOL    HW131581   6.114   6.026   7.443
 4813SOL    HW231582   6.010   6.088   7.534
 4814SOL     OW31583   0.059   3.760   7.342
 4814SOL    HW131584   0.126   3.786   7.279
 4814SOL    HW231585   0.061   3.665   7.341
 4815SOL     OW31586   4.948   1.491   0.586
 4815SOL    HW131587   4.860   1.474   0.619
 4815SOL    HW231588   4.975   1.407   0.548
 4816SOL     OW31589   5.761   5.606   1.341
 4816SOL    HW131590   5.747   5.696   1.372
 4816SOL    HW231591   5.772   5.554   1.420
 4817SOL     OW31592   3.945   0.933   6.770
 4817SOL    HW131593   3.946   0.905   6.679
 4817SOL    HW231594   3.977   0.858   6.819
 4818SOL     OW31595   3.475   0.308   1.160
 4818SOL    HW131596   3.482   0.403   1.158
 4818SOL    HW231597   3.560   0.277   1.129
 4819SOL     OW31598   2.007   0.511   6.284
 4819SOL    HW131599   1.930   0.550   6.243
 4819SOL    HW231600   2.025   0.569   6.359
 4820SOL     OW31601   3.995   1.901   6.210
 4820SOL    HW131602   3.937   1.836   6.171
 4820SOL    HW231603   4.075   1.896   6.157
 4821SOL     OW31604   0.942   3.604   1.318
 4821SOL    HW131605   0.928   3.610   1.413
 4821SOL    HW231606   0.951   3.694   1.289
 4822SOL     OW31607   4.631   1.143   5.831
 4822SOL    HW131608   4.546   1.136   5.873
 4822SOL    HW231609   4.671   1.220   5.870
 4823SOL     OW31610   4.476   1.780   6.771
 4823SOL    HW131611   4.436   1.716   6.712
 4823SOL    HW231612   4.550   1.733   6.810
 4824SOL     OW31613   0.321   3.081   0.944
 4824SOL    HW131614   0.405   3.057   0.907
 4824SOL    HW231615   0.271   3.000   0.946
 4825SOL     OW31616   5.993   6.365   7.605
 4825SOL    HW131617   5.948   6.377   7.522
 4825SOL    HW231618   5.923   6.355   7.669
 4826SOL     OW31619   2.781   2.968   7.768
 4826SOL    HW131620   2.766   3.046   7.714
 4826SOL    HW231621   2.807   3.003   0.077
 4827SOL     OW31622   3.507   5.181   2.242
 4827SOL    HW131623   3.525   5.255   2.300
 4827SOL    HW231624   3.442   5.214   2.180
 4828SOL     OW31625   3.389   2.382   6.629
 4828SOL    HW131626   3.427   2.461   6.591
 4828SOL    HW231627   3.310   2.412   6.675
 4829SOL     OW31628   2.402   1.653   7.475
 4829SOL    HW131629   2.329   1.689   7.525
 4829SOL    HW231630   2.458   1.611   7.540
 4830SOL     OW31631   5.093   2.143   1.308
 4830SOL    HW131632   5.160   2.175   1.248
 4830SOL    HW231633   5.057   2.222   1.349
 4831SOL     OW31634   1.315   6.484   2.439
 4831SOL    HW131635   1.295   0.038   2.354
 4831SOL    HW231636   1.398   6.439   2.425
 4832SOL     OW31637   5.912   0.277   0.283
 4832SOL    HW131638   5.976   0.222   0.328
 4832SOL    HW231639   5.867   0.325   0.353
 4833SOL     OW31640   0.601   0.507   0.933
 4833SOL    HW131641   0.521   0.553   0.961
 4833SOL    HW231642   0.574   0.456   0.857
 4834SOL     OW31643   1.583   3.974   5.847
 4834SOL    HW131644   1.676   3.987   5.830
 4834SOL    HW231645   1.569   4.013   5.933
 4835SOL     OW31646   5.120   1.321   7.628
 4835SOL    HW131647   5.145   1.279   7.545
 4835SOL    HW231648   5.086   1.249   7.682
 4836SOL     OW31649   4.869   1.652   2.245
 4836SOL    HW131650   4.812   1.713   2.291
 4836SOL    HW231651   4.919   1.608   2.314
 4837SOL     OW31652   2.728   6.411   6.161
 4837SOL    HW131653   2.634   6.428   6.153
 4837SOL    HW231654   2.770   6.480   6.110
 4838SOL     OW31655   6.365   4.148   2.441
 4838SOL    HW131656   6.332   4.059   2.430
 4838SOL    HW231657   6.286   4.203   2.439
 4839SOL     OW31658   4.301   2.950   6.078
 4839SOL    HW131659   4.211   2.929   6.055
 4839SOL    HW231660   4.294   3.031   6.130
 4840SOL     OW31661   1.308   2.700   7.543
 4840SOL    HW131662   1.339   2.688   7.453
 4840SOL    HW231663   1.264   2.618   7.564
 4841SOL     OW31664   6.236   0.364   5.462
 4841SOL    HW131665   6.296   0.291   5.444
 4841SOL    HW231666   6.271   0.406   5.540
 4842SOL     OW31667   2.467   0.879   7.573
 4842SOL    HW131668   2.508   0.848   7.654
 4842SOL    HW231669   2.493   0.816   7.506
 4843SOL     OW31670   3.353   3.463   0.979
 4843SOL    HW131671   3.438   3.423   1.001
 4843SOL    HW231672   3.344   3.449   0.885
 4844SOL     OW31673   0.265   5.048   0.808
 4844SOL    HW131674   0.340   5.073   0.754
 4844SOL    HW231675   0.213   4.991   0.752
 4845SOL     OW31676   6.447   1.238   7.210
 4845SOL    HW131677   6.372   1.184   7.236
 4845SOL    HW231678   0.031   1.175   7.194
 4846SOL     OW31679   1.537   5.297   0.438
 4846SOL    HW131680   1.451   5.329   0.409
 4846SOL    HW231681   1.592   5.375   0.438
 4847SOL     OW31682   0.126   2.091   6.321
 4847SOL    HW131683   0.156   2.075   6.231
 4847SOL    HW231684   0.091   2.180   6.320
 4848SOL     OW31685   3.449   5.975   0.039
 4848SOL    HW131686   3.405   5.935   0.114
 4848SOL    HW231687   3.405   5.937   7.738
 4849SOL     OW31688   1.863   5.370   6.491
 4849SOL    HW131689   1.830   5.392   6.579
 4849SOL    HW231690   1.809   5.422   6.432
 4850SOL     OW31691   5.199   6.440   5.846
 4850SOL    HW131692   5.157   6.431   5.760
 4850SOL    HW231693   5.221   0.046   5.852
 4851SOL     OW31694   3.232   1.492   0.144
 4851SOL    HW131695   3.269   1.427   0.085
 4851SOL    HW231696   3.162   1.534   0.093
 4852SOL     OW31697   2.204   4.830   6.009
 4852SOL    HW131698   2.292   4.813   5.975
 4852SOL    HW231699   2.219   4.876   6.091
 4853SOL     OW31700   1.573   4.339   0.995
 4853SOL    HW131701   1.611   4.323   1.082
 4853SOL    HW231702   1.591   4.259   0.946
 4854SOL     OW31703   0.224   4.884   1.619
 4854SOL    HW131704   0.184   4.952   1.565
 4854SOL    HW231705   0.316   4.883   1.593
 4855SOL     OW31706   6.300   4.061   5.563
 4855SOL    HW131707   6.205   4.069   5.552
 4855SOL    HW231708   6.312   3.980   5.612
 4856SOL     OW31709   2.251   1.931   7.496
 4856SOL    HW131710   2.310   1.997   7.532
 4856SOL    HW231711   2.289   1.909   7.411
 4857SOL     OW31712   4.668   5.590   5.638
 4857SOL    HW131713   4.631   5.565   5.553
 4857SOL    HW231714   4.760   5.610   5.619
 4858SOL     OW31715   3.138   1.041   7.472
 4858SOL    HW131716   3.141   1.085   7.387
 4858SOL    HW231717   3.228   1.015   7.489
 4859SOL     OW31718   4.855   5.321   6.884
 4859SOL    HW131719   4.830   5.378   6.811
 4859SOL    HW231720   4.946   5.345   6.904
 4860SOL     OW31721   1.954   1.670   6.084
 4860SOL    HW131722   1.882   1.732   6.070
 4860SOL    HW231723   2.032   1.718   6.057
 4861SOL     OW31724   4.082   2.217   1.647
 4861SOL    HW131725   4.177   2.210   1.657
 4861SOL    HW231726   4.063   2.175   1.563
 4862SOL     OW31727   6.076   4.599   7.753
 4862SOL    HW131728   6.142   4.540   0.014
 4862SOL    HW231729   6.060   4.663   0.047
 4863SOL     OW31730   0.731   4.401   6.710
 4863SOL    HW131731   0.798   4.363   6.655
 4863SOL    HW231732   0.738   4.354   6.793
 4864SOL     OW31733   2.655   3.016   6.411
 4864SOL    HW131734   2.571   3.018   6.457
 4864SOL    HW231735   2.658   3.100   6.365
 4865SOL     OW31736   2.732   1.299   1.026
 4865SOL    HW131737   2.786   1.334   0.955
 4865SOL    HW231738   2.719   1.374   1.084
 4866SOL     OW31739   1.819   4.979   7.528
 4866SOL    HW131740   1.843   5.071   7.541
 4866SOL    HW231741   1.867   4.953   7.449
 4867SOL     OW31742   3.069   3.523   0.925
 4867SOL    HW131743   3.146   3.484   0.966
 4867SOL    HW231744   2.995   3.486   0.973
 4868SOL     OW31745   2.068   3.205   1.271
 4868SOL    HW131746   2.144   3.181   1.217
 4868SOL    HW231747   2.032   3.282   1.228
 4869SOL     OW31748   2.372   6.436   0.987
 4869SOL    HW131749   2.366   0.046   0.993
 4869SOL    HW231750   2.298   6.411   0.933
 4870SOL     OW31751   1.971   6.283   5.926
 4870SOL    HW131752   1.898   6.319   5.877
 4870SOL    HW231753   1.997   6.205   5.877
 4871SOL     OW31754   1.196   2.809   0.524
 4871SOL    HW131755   1.227   2.804   0.434
 4871SOL    HW231756   1.258   2.868   0.567
 4872SOL     OW31757   3.127   1.259   1.370
 4872SOL    HW131758   3.060   1.303   1.318
 4872SOL    HW231759   3.202   1.318   1.368
 4873SOL     OW31760   5.592   5.749   6.638
 4873SOL    HW131761   5.607   5.762   6.731
 4873SOL    HW231762   5.670   5.785   6.595
 4874SOL     OW31763   1.356   5.839   1.484
 4874SOL    HW131764   1.308   5.922   1.489
 4874SOL    HW231765   1.435   5.854   1.536
 4875SOL     OW31766   0.093   1.681   0.695
 4875SOL    HW131767   0.178   1.723   0.685
 4875SOL    HW231768   0.099   1.636   0.780
 4876SOL     OW31769   0.497   2.499   6.554
 4876SOL    HW131770   0.456   2.473   6.472
 4876SOL    HW231771   0.579   2.451   6.557
 4877SOL     OW31772   0.272   0.333   5.911
 4877SOL    HW131773   0.308   0.328   5.822
 4877SOL    HW231774   0.306   0.256   5.956
 4878SOL     OW31775   3.954   4.064   5.177
 4878SOL    HW131776   4.032   4.075   5.122
 4878SOL    HW231777   3.987   4.029   5.259
 4879SOL     OW31778   1.416   2.100   6.913
 4879SOL    HW131779   1.422   2.180   6.862
 4879SOL    HW231780   1.356   2.121   6.984
 4880SOL     OW31781   1.454   5.762   2.213
 4880SOL    HW131782   1.361   5.750   2.197
 4880SOL    HW231783   1.479   5.833   2.153
 4881SOL     OW31784   3.929   3.475   0.672
 4881SOL    HW131785   3.912   3.471   0.578
 4881SOL    HW231786   3.845   3.496   0.711
 4882SOL     OW31787   5.836   0.808   7.686
 4882SOL    HW131788   5.774   0.826   7.616
 4882SOL    HW231789   5.914   0.774   7.641
 4883SOL     OW31790   1.344   3.305   2.034
 4883SOL    HW131791   1.348   3.397   2.006
 4883SOL    HW231792   1.378   3.255   1.960
 4884SOL     OW31793   4.930   2.543   5.876
 4884SOL    HW131794   4.855   2.557   5.818
 4884SOL    HW231795   4.969   2.461   5.846
 4885SOL     OW31796   1.621   0.988   7.434
 4885SOL    HW131797   1.617   1.037   7.516
 4885SOL    HW231798   1.633   1.055   7.367
 4886SOL     OW31799   4.048   3.073   5.640
 4886SOL    HW131800   4.051   2.979   5.660
 4886SOL    HW231801   3.997   3.079   5.559
 4887SOL     OW31802   5.979   1.500   0.737
 4887SOL    HW131803   6.028   1.447   0.674
 4887SOL    HW231804   6.010   1.470   0.823
 4888SOL     OW31805   4.132   5.385   5.645
 4888SOL    HW131806   4.133   5.424   5.558
 4888SOL    HW231807   4.065   5.317   5.640
 4889SOL     OW31808   2.875   0.249   5.538
 4889SOL    HW131809   2.928   0.329   5.535
 4889SOL    HW231810   2.866   0.223   5.446
 4890SOL     OW31811   5.538   2.062   7.113
 4890SOL    HW131812   5.575   2.003   7.047
 4890SOL    HW231813   5.454   2.089   7.076
 4891SOL     OW31814   2.230   1.599   1.486
 4891SOL    HW131815   2.209   1.506   1.477
 4891SOL    HW231816   2.238   1.612   1.581
 4892SOL     OW31817   5.276   0.790   0.118
 4892SOL    HW131818   5.226   0.793   0.200
 4892SOL    HW231819   5.323   0.873   0.115
 4893SOL     OW31820   0.595   3.041   0.823
 4893SOL    HW131821   0.592   3.010   0.732
 4893SOL    HW231822   0.688   3.055   0.841
 4894SOL     OW31823   5.656   3.234   6.738
 4894SOL    HW131824   5.702   3.180   6.675
 4894SOL    HW231825   5.652   3.180   6.817
 4895SOL     OW31826   3.533   5.945   7.116
 4895SOL    HW131827   3.488   5.871   7.156
 4895SOL    HW231828   3.521   6.017   7.178
 4896SOL     OW31829   5.224   2.784   6.208
 4896SOL    HW131830   5.315   2.782   6.236
 4896SOL    HW231831   5.223   2.733   6.126
 4897SOL     OW31832   6.438   1.154   1.255
 4897SOL    HW131833   6.395   1.164   1.340
 4897SOL    HW231834   6.477   1.240   1.238
 4898SOL     OW31835   3.831   0.492   6.606
 4898SOL    HW131836   3.816   0.477   6.699
 4898SOL    HW231837   3.755   0.451   6.563
 4899SOL     OW31838   1.450   5.269   5.519
 4899SOL    HW131839   1.370   5.222   5.495
 4899SOL    HW231840   1.433   5.360   5.495
 4900SOL     OW31841   4.558   6.373   0.592
 4900SOL    HW131842   4.626   6.418   0.642
 4900SOL    HW231843   4.605   6.316   0.532
 4901SOL     OW31844   2.723   4.467   7.035
 4901SOL    HW131845   2.779   4.516   7.097
 4901SOL    HW231846   2.682   4.400   7.089
 4902SOL     OW31847   4.814   0.736   5.259
 4902SOL    HW131848   4.889   0.782   5.297
 4902SOL    HW231849   4.751   0.804   5.238
 4903SOL     OW31850   3.314   6.477   6.690
 4903SOL    HW131851   3.268   0.072   6.670
 4903SOL    HW231852   3.354   6.452   6.606
 4904SOL     OW31853   4.518   4.546   7.065
 4904SOL    HW131854   4.603   4.572   7.031
 4904SOL    HW231855   4.467   4.627   7.066
 4905SOL     OW31856   4.878   3.107   0.959
 4905SOL    HW131857   4.860   3.122   0.866
 4905SOL    HW231858   4.974   3.105   0.965
 4906SOL     OW31859   5.063   4.188   6.108
 4906SOL    HW131860   5.072   4.133   6.030
 4906SOL    HW231861   5.149   4.185   6.149
 4907SOL     OW31862   2.431   2.379   7.501
 4907SOL    HW131863   2.434   2.285   7.479
 4907SOL    HW231864   2.499   2.390   7.567
 4908SOL     OW31865   4.857   4.325   6.212
 4908SOL    HW131866   4.770   4.290   6.191
 4908SOL    HW231867   4.917   4.266   6.166
 4909SOL     OW31868   2.326   1.812   1.039
 4909SOL    HW131869   2.286   1.829   0.954
 4909SOL    HW231870   2.400   1.873   1.044
 4910SOL     OW31871   2.945   5.596   1.634
 4910SOL    HW131872   2.862   5.594   1.587
 4910SOL    HW231873   3.009   5.561   1.572
 4911SOL     OW31874   4.220   1.444   6.837
 4911SOL    HW131875   4.307   1.405   6.831
 4911SOL    HW231876   4.162   1.381   6.795
 4912SOL     OW31877   2.715   3.588   6.479
 4912SOL    HW131878   2.649   3.657   6.484
 4912SOL    HW231879   2.712   3.545   6.564
 4913SOL     OW31880   3.082   2.889   6.338
 4913SOL    HW131881   2.991   2.873   6.311
 4913SOL    HW231882   3.079   2.973   6.384
 4914SOL     OW31883   4.027   3.354   2.057
 4914SOL    HW131884   3.995   3.439   2.027
 4914SOL    HW231885   3.954   3.294   2.043
 4915SOL     OW31886   1.996   0.309   0.633
 4915SOL    HW131887   1.910   0.329   0.670
 4915SOL    HW231888   2.034   0.246   0.694
 4916SOL     OW31889   3.572   5.877   6.431
 4916SOL    HW131890   3.599   5.808   6.370
 4916SOL    HW231891   3.566   5.833   6.516
 4917SOL     OW31892   0.293   3.037   6.536
 4917SOL    HW131893   0.228   2.998   6.478
 4917SOL    HW231894   0.296   2.978   6.611
 4918SOL     OW31895   1.654   5.604   2.116
 4918SOL    HW131896   1.600   5.670   2.158
 4918SOL    HW231897   1.744   5.630   2.136
 4919SOL     OW31898   1.441   2.656   6.091
 4919SOL    HW131899   1.353   2.649   6.129
 4919SOL    HW231900   1.425   2.677   5.999
 4920SOL     OW31901   5.456   2.340   0.898
 4920SOL    HW131902   5.531   2.325   0.840
 4920SOL    HW231903   5.415   2.420   0.864
 4921SOL     OW31904   1.648   1.161   1.380
 4921SOL    HW131905   1.667   1.255   1.390
 4921SOL    HW231906   1.730   1.118   1.402
 4922SOL     OW31907   4.043   0.854   0.501
 4922SOL    HW131908   4.031   0.928   0.561
 4922SOL    HW231909   4.036   0.893   0.413
 4923SOL     OW31910   2.345   4.782   0.500
 4923SOL    HW131911   2.249   4.786   0.497
 4923SOL    HW231912   2.367   4.795   0.592
 4924SOL     OW31913   0.892   3.107   7.248
 4924SOL    HW131914   0.875   3.097   7.341
 4924SOL    HW231915   0.975   3.155   7.244
 4925SOL     OW31916   2.440   5.078   0.604
 4925SOL    HW131917   2.362   5.068   0.658
 4925SOL    HW231918   2.492   4.999   0.621
 4926SOL     OW31919   5.894   2.312   6.167
 4926SOL    HW131920   5.939   2.348   6.091
 4926SOL    HW231921   5.951   2.241   6.197
 4927SOL     OW31922   2.631   3.231   7.349
 4927SOL    HW131923   2.713   3.202   7.308
 4927SOL    HW231924   2.573   3.156   7.342
 4928SOL     OW31925   1.169   1.263   0.863
 4928SOL    HW131926   1.194   1.338   0.917
 4928SOL    HW231927   1.092   1.294   0.814
 4929SOL     OW31928   3.623   0.867   6.093
 4929SOL    HW131929   3.690   0.930   6.067
 4929SOL    HW231930   3.571   0.853   6.015
 4930SOL     OW31931   0.014   0.182   1.472
 4930SOL    HW131932   0.014   0.179   1.376
 4930SOL    HW231933   0.004   0.275   1.492
 4931SOL     OW31934   4.595   1.658   0.188
 4931SOL    HW131935   4.620   1.569   0.213
 4931SOL    HW231936   4.500   1.654   0.177
 4932SOL     OW31937   1.316   2.848   2.320
 4932SOL    HW131938   1.304   2.892   2.236
 4932SOL    HW231939   1.405   2.873   2.347
 4933SOL     OW31940   1.779   0.925   7.126
 4933SOL    HW131941   1.745   0.861   7.189
 4933SOL    HW231942   1.872   0.905   7.120
 4934SOL     OW31943   4.607   5.621   7.098
 4934SOL    HW131944   4.516   5.594   7.088
 4934SOL    HW231945   4.625   5.676   7.022
 4935SOL     OW31946   1.732   5.992   0.493
 4935SOL    HW131947   1.700   6.011   0.405
 4935SOL    HW231948   1.752   6.077   0.531
 4936SOL     OW31949   4.682   5.265   7.095
 4936SOL    HW131950   4.746   5.274   7.025
 4936SOL    HW231951   4.732   5.278   7.175
 4937SOL     OW31952   5.336   3.536   2.338
 4937SOL    HW131953   5.276   3.584   2.281
 4937SOL    HW231954   5.297   3.448   2.346
 4938SOL     OW31955   0.621   5.615   7.256
 4938SOL    HW131956   0.534   5.592   7.288
 4938SOL    HW231957   0.647   5.689   7.311
 4939SOL     OW31958   5.424   4.700   6.644
 4939SOL    HW131959   5.483   4.631   6.615
 4939SOL    HW231960   5.402   4.677   6.734
 4940SOL     OW31961   4.835   3.915   0.948
 4940SOL    HW131962   4.865   3.978   0.883
 4940SOL    HW231963   4.787   3.967   1.012
 4941SOL     OW31964   0.036   5.462   6.790
 4941SOL    HW131965   0.082   5.489   6.711
 4941SOL    HW231966   6.429   5.465   6.767
 4942SOL     OW31967   0.670   0.192   0.396
 4942SOL    HW131968   0.739   0.237   0.445
 4942SOL    HW231969   0.628   0.134   0.461
 4943SOL     OW31970   3.540   3.784   6.905
 4943SOL    HW131971   3.530   3.845   6.832
 4943SOL    HW231972   3.473   3.809   6.968
 4944SOL     OW31973   2.681   2.437   6.908
 4944SOL    HW131974   2.705   2.529   6.913
 4944SOL    HW231975   2.755   2.390   6.945
 4945SOL     OW31976   3.988   4.288   7.388
 4945SOL    HW131977   4.013   4.375   7.421
 4945SOL    HW231978   4.023   4.227   7.453
 4946SOL     OW31979   4.349   6.373   1.766
 4946SOL    HW131980   4.285   6.317   1.721
 4946SOL    HW231981   4.434   6.337   1.741
 4947SOL     OW31982   4.245   1.629   6.264
 4947SOL    HW131983   4.314   1.563   6.268
 4947SOL    HW231984   4.268   1.683   6.188
 4948SOL     OW31985   5.874   4.695   0.779
 4948SOL    HW131986   5.782   4.669   0.790
 4948SOL    HW231987   5.907   4.639   0.709
 4949SOL     OW31988   4.461   6.174   6.803
 4949SOL    HW131989   4.387   6.199   6.748
 4949SOL    HW231990   4.444   6.218   6.887
 4950SOL     OW31991   5.927   5.288   1.218
 4950SOL    HW131992   5.874   5.342   1.159
 4950SOL    HW231993   5.965   5.350   1.280
 4951SOL     OW31994   5.221   3.373   1.132
 4951SOL    HW131995   5.211   3.423   1.051
 4951SOL    HW231996   5.314   3.353   1.136
 4952SOL     OW31997   5.444   4.478   1.279
 4952SOL    HW131998   5.398   4.408   1.231
 4952SOL    HW231999   5.421   4.462   1.371
 4953SOL     OW32000   6.255   5.787   1.901
 4953SOL    HW132001   6.339   5.811   1.939
 4953SOL    HW232002   6.214   5.729   1.965
 4954SOL     OW32003   3.578   3.862   5.763
 4954SOL    HW132004   3.669   3.836   5.751
 4954SOL    HW232005   3.575   3.901   5.850
 4955SOL     OW32006   5.122   0.606   5.664
 4955SOL    HW132007   5.048   0.593   5.605
 4955SOL    HW232008   5.117   0.532   5.725
 4956SOL     OW32009   1.402   1.990   1.450
 4956SOL    HW132010   1.368   2.015   1.536
 4956SOL    HW232011   1.491   1.961   1.466
 4957SOL     OW32012   5.574   3.431   7.006
 4957SOL    HW132013   5.566   3.490   7.081
 4957SOL    HW232014   5.662   3.449   6.971
 4958SOL     OW32015   3.691   1.484   1.973
 4958SOL    HW132016   3.628   1.556   1.971
 4958SOL    HW232017   3.730   1.483   1.886
 4959SOL     OW32018   3.466   0.611   0.058
 4959SOL    HW132019   3.505   0.694   0.031
 4959SOL    HW232020   3.376   0.633   0.081
 4960SOL     OW32021   5.007   3.153   5.786
 4960SOL    HW132022   5.098   3.184   5.781
 4960SOL    HW232023   4.955   3.233   5.792
 4961SOL     OW32024   2.425   6.006   5.744
 4961SOL    HW132025   2.510   6.017   5.701
 4961SOL    HW232026   2.373   5.955   5.681
 4962SOL     OW32027   0.539   0.821   7.578
 4962SOL    HW132028   0.631   0.845   7.575
 4962SOL    HW232029   0.532   0.743   7.523
 4963SOL     OW32030   4.049   1.481   7.331
 4963SOL    HW132031   4.106   1.526   7.268
 4963SOL    HW232032   4.040   1.392   7.296
 4964SOL     OW32033   4.007   4.510   1.454
 4964SOL    HW132034   3.987   4.586   1.400
 4964SOL    HW232035   4.103   4.506   1.456
 4965SOL     OW32036   2.288   1.085   5.792
 4965SOL    HW132037   2.369   1.036   5.780
 4965SOL    HW232038   2.231   1.026   5.841
 4966SOL     OW32039   4.301   2.915   2.148
 4966SOL    HW132040   4.322   2.886   2.059
 4966SOL    HW232041   4.290   3.010   2.140
 4967SOL     OW32042   0.410   0.785   5.524
 4967SOL    HW132043   0.373   0.869   5.497
 4967SOL    HW232044   0.504   0.803   5.533
 4968SOL     OW32045   1.340   4.138   1.088
 4968SOL    HW132046   1.336   4.231   1.111
 4968SOL    HW232047   1.410   4.103   1.144
 4969SOL     OW32048   1.233   1.285   1.434
 4969SOL    HW132049   1.211   1.199   1.469
 4969SOL    HW232050   1.314   1.309   1.479
 4970SOL     OW32051   4.249   6.405   5.859
 4970SOL    HW132052   4.249   6.457   5.778
 4970SOL    HW232053   4.319   6.341   5.847
 4971SOL     OW32054   1.070   3.875   7.308
 4971SOL    HW132055   1.064   3.970   7.313
 4971SOL    HW232056   1.052   3.844   7.397
 4972SOL     OW32057   1.028   4.883   1.554
 4972SOL    HW132058   1.066   4.898   1.467
 4972SOL    HW232059   1.103   4.860   1.609
 4973SOL     OW32060   3.269   1.466   7.572
 4973SOL    HW132061   3.234   1.461   7.483
 4973SOL    HW232062   3.305   1.554   7.579
 4974SOL     OW32063   2.394   0.488   6.455
 4974SOL    HW132064   2.336   0.449   6.391
 4974SOL    HW232065   2.348   0.568   6.483
 4975SOL     OW32066   2.552   2.443   1.553
 4975SOL    HW132067   2.551   2.352   1.582
 4975SOL    HW232068   2.637   2.476   1.582
 4976SOL     OW32069   0.506   4.914   1.531
 4976SOL    HW132070   0.596   4.899   1.502
 4976SOL    HW232071   0.474   4.984   1.474
 4977SOL     OW32072   1.000   4.424   0.066
 4977SOL    HW132073   0.941   4.371   0.119
 4977SOL    HW232074   0.995   4.386   7.754
 4978SOL     OW32075   4.998   5.658   0.225
 4978SOL    HW132076   4.930   5.722   0.246
 4978SOL    HW232077   5.011   5.608   0.306
 4979SOL     OW32078   6.459   3.887   6.524
 4979SOL    HW132079   6.368   3.915   6.523
 4979SOL    HW232080   0.004   3.903   6.435
 4980SOL     OW32081   2.298   5.732   6.570
 4980SOL    HW132082   2.324   5.686   6.491
 4980SOL    HW232083   2.301   5.825   6.546
 4981SOL     OW32084   2.668   3.159   0.864
 4981SOL    HW132085   2.745   3.174   0.809
 4981SOL    HW232086   2.703   3.122   0.945
 4982SOL     OW32087   4.829   2.023   6.610
 4982SOL    HW132088   4.777   1.948   6.583
 4982SOL    HW232089   4.768   2.097   6.604
 4983SOL     OW32090   0.043   5.520   0.905
 4983SOL    HW132091   0.016   5.428   0.904
 4983SOL    HW232092   0.068   5.539   0.815
 4984SOL     OW32093   4.089   2.184   0.968
 4984SOL    HW132094   4.114   2.268   1.006
 4984SOL    HW232095   4.172   2.137   0.956
 4985SOL     OW32096   4.583   3.255   7.556
 4985SOL    HW132097   4.607   3.204   7.633
 4985SOL    HW232098   4.496   3.222   7.532
 4986SOL     OW32099   3.489   2.364   0.923
 4986SOL    HW132100   3.408   2.323   0.893
 4986SOL    HW232101   3.511   2.427   0.855
 4987SOL     OW32102   1.746   2.080   6.582
 4987SOL    HW132103   1.798   2.155   6.556
 4987SOL    HW232104   1.668   2.117   6.624
 4988SOL     OW32105   5.551   0.734   1.164
 4988SOL    HW132106   5.494   0.775   1.229
 4988SOL    HW232107   5.496   0.726   1.086
 4989SOL     OW32108   1.453   6.425   1.031
 4989SOL    HW132109   1.424   6.435   1.121
 4989SOL    HW232110   1.405   6.348   0.999
 4990SOL     OW32111   3.000   2.050   0.133
 4990SOL    HW132112   3.006   1.996   0.054
 4990SOL    HW232113   2.911   2.037   0.165
 4991SOL     OW32114   0.464   3.207   7.348
 4991SOL    HW132115   0.522   3.192   7.273
 4991SOL    HW232116   0.400   3.136   7.343
 4992SOL     OW32117   0.270   0.392   0.858
 4992SOL    HW132118   0.186   0.404   0.813
 4992SOL    HW232119   0.336   0.407   0.790
 4993SOL     OW32120   1.528   5.190   7.721
 4993SOL    HW132121   1.462   5.168   7.654
 4993SOL    HW232122   1.520   5.285   7.732
 4994SOL     OW32123   2.647   0.192   5.144
 4994SOL    HW132124   2.571   0.148   5.183
 4994SOL    HW232125   2.624   0.203   5.052
 4995SOL     OW32126   1.666   2.405   0.759
 4995SOL    HW132127   1.580   2.422   0.796
 4995SOL    HW232128   1.715   2.486   0.774
 4996SOL     OW32129   3.477   6.232   0.960
 4996SOL    HW132130   3.425   6.154   0.983
 4996SOL    HW232131   3.568   6.201   0.962
 4997SOL     OW32132   2.724   0.216   1.585
 4997SOL    HW132133   2.642   0.246   1.625
 4997SOL    HW232134   2.705   0.128   1.553
 4998SOL     OW32135   0.510   6.444   6.745
 4998SOL    HW132136   0.510   6.448   6.841
 4998SOL    HW232137   0.419   6.429   6.722
 4999SOL     OW32138   5.093   1.294   0.478
 4999SOL    HW132139   5.145   1.254   0.547
 4999SOL    HW232140   5.157   1.319   0.411
 5000SOL     OW32141   2.958   4.329   2.022
 5000SOL    HW132142   2.904   4.290   2.091
 5000SOL    HW232143   3.041   4.281   2.028
 5001SOL     OW32144   5.371   4.591   7.339
 5001SOL    HW132145   5.296   4.545   7.378
 5001SOL    HW232146   5.430   4.608   7.412
 5002SOL     OW32147   2.782   4.165   1.068
 5002SOL    HW132148   2.871   4.173   1.034
 5002SOL    HW232149   2.789   4.104   1.141
 5003SOL     OW32150   2.956   6.300   5.560
 5003SOL    HW132151   2.989   6.222   5.605
 5003SOL    HW232152   2.868   6.276   5.533
 5004SOL     OW32153   0.511   6.139   6.844
 5004SOL    HW132154   0.448   6.167   6.778
 5004SOL    HW232155   0.592   6.185   6.822
 5005SOL     OW32156   2.810   5.146   6.295
 5005SOL    HW132157   2.822   5.202   6.371
 5005SOL    HW232158   2.898   5.116   6.273
 5006SOL     OW32159   3.457   1.959   5.888
 5006SOL    HW132160   3.519   1.886   5.894
 5006SOL    HW232161   3.379   1.928   5.933
 5007SOL     OW32162   6.443   4.319   0.474
 5007SOL    HW132163   6.467   4.411   0.486
 5007SOL    HW232164   6.438   4.284   0.563
 5008SOL     OW32165   6.277   6.158   5.665
 5008SOL    HW132166   6.245   6.096   5.599
 5008SOL    HW232167   6.199   6.204   5.694
 5009SOL     OW32168   6.477   5.021   1.158
 5009SOL    HW132169   6.385   4.997   1.148
 5009SOL    HW232170   0.006   5.088   1.091
 5010SOL     OW32171   1.333   4.314   1.854
 5010SOL    HW132172   1.311   4.392   1.904
 5010SOL    HW232173   1.402   4.342   1.794
 5011SOL     OW32174   5.400   5.756   7.083
 5011SOL    HW132175   5.356   5.727   7.003
 5011SOL    HW232176   5.415   5.676   7.133
 5012SOL     OW32177   2.909   5.629   0.053
 5012SOL    HW132178   2.983   5.662   0.103
 5012SOL    HW232179   2.854   5.707   0.037
 5013SOL     OW32180   2.619   5.617   0.738
 5013SOL    HW132181   2.675   5.692   0.718
 5013SOL    HW232182   2.534   5.640   0.702
 5014SOL     OW32183   2.837   4.364   0.822
 5014SOL    HW132184   2.787   4.440   0.852
 5014SOL    HW232185   2.899   4.346   0.892
 5015SOL     OW32186   5.960   2.279   1.426
 5015SOL    HW132187   5.889   2.334   1.461
 5015SOL    HW232188   6.036   2.304   1.478
 5016SOL     OW32189   1.075   1.373   6.456
 5016SOL    HW132190   1.052   1.381   6.549
 5016SOL    HW232191   1.076   1.279   6.440
 5017SOL     OW32192   0.516   2.420   0.472
 5017SOL    HW132193   0.508   2.424   0.567
 5017SOL    HW232194   0.605   2.449   0.454
 5018SOL     OW32195   0.069   5.031   1.420
 5018SOL    HW132196   0.034   5.037   1.331
 5018SOL    HW232197   6.480   5.048   1.477
 5019SOL     OW32198   0.450   3.869   0.117
 5019SOL    HW132199   0.499   3.804   0.067
 5019SOL    HW232200   0.371   3.884   0.065
 5020SOL     OW32201   5.705   4.427   1.179
 5020SOL    HW132202   5.690   4.388   1.092
 5020SOL    HW232203   5.619   4.425   1.221
 5021SOL     OW32204   0.482   4.238   5.542
 5021SOL    HW132205   0.488   4.252   5.447
 5021SOL    HW232206   0.481   4.327   5.578
 5022SOL     OW32207   4.814   4.181   5.600
 5022SOL    HW132208   4.800   4.192   5.506
 5022SOL    HW232209   4.865   4.257   5.626
 5023SOL     OW32210   6.349   1.174   1.536
 5023SOL    HW132211   6.328   1.115   1.608
 5023SOL    HW232212   6.441   1.195   1.547
 5024SOL     OW32213   5.406   3.978   0.066
 5024SOL    HW132214   5.381   3.992   0.158
 5024SOL    HW232215   5.338   4.024   0.016
 5025SOL     OW32216   3.518   5.681   1.268
 5025SOL    HW132217   3.591   5.619   1.269
 5025SOL    HW232218   3.557   5.765   1.292
 5026SOL     OW32219   5.948   0.827   6.539
 5026SOL    HW132220   5.899   0.751   6.572
 5026SOL    HW232221   5.885   0.874   6.485
 5027SOL     OW32222   4.772   3.849   6.979
 5027SOL    HW132223   4.703   3.902   6.940
 5027SOL    HW232224   4.726   3.774   7.017
 5028SOL     OW32225   2.834   3.596   6.061
 5028SOL    HW132226   2.892   3.642   6.000
 5028SOL    HW232227   2.828   3.507   6.026
 5029SOL     OW32228   0.987   4.417   1.468
 5029SOL    HW132229   1.023   4.497   1.429
 5029SOL    HW232230   1.021   4.417   1.558
 5030SOL     OW32231   1.224   4.751   1.013
 5030SOL    HW132232   1.307   4.758   1.060
 5030SOL    HW232233   1.237   4.677   0.953
 5031SOL     OW32234   2.694   1.847   0.890
 5031SOL    HW132235   2.607   1.876   0.920
 5031SOL    HW232236   2.685   1.841   0.795
 5032SOL     OW32237   6.174   1.922   1.693
 5032SOL    HW132238   6.138   1.889   1.775
 5032SOL    HW232239   6.227   1.997   1.719
 5033SOL     OW32240   1.635   6.424   6.908
 5033SOL    HW132241   1.582   0.017   6.897
 5033SOL    HW232242   1.704   6.449   6.969
 5034SOL     OW32243   2.490   1.557   5.452
 5034SOL    HW132244   2.581   1.532   5.466
 5034SOL    HW232245   2.490   1.652   5.449
 5035SOL     OW32246   0.871   4.512   7.142
 5035SOL    HW132247   0.819   4.536   7.218
 5035SOL    HW232248   0.819   4.445   7.098
 5036SOL     OW32249   1.449   2.529   1.196
 5036SOL    HW132250   1.490   2.445   1.173
 5036SOL    HW232251   1.503   2.595   1.152
 5037SOL     OW32252   1.811   4.820   1.935
 5037SOL    HW132253   1.881   4.806   2.000
 5037SOL    HW232254   1.745   4.871   1.983
 5038SOL     OW32255   6.310   3.812   0.481
 5038SOL    HW132256   6.308   3.842   0.572
 5038SOL    HW232257   6.402   3.816   0.456
 5039SOL     OW32258   1.903   5.224   5.868
 5039SOL    HW132259   1.893   5.176   5.786
 5039SOL    HW232260   1.904   5.156   5.935
 5040SOL     OW32261   5.857   2.275   7.270
 5040SOL    HW132262   5.828   2.201   7.217
 5040SOL    HW232263   5.847   2.351   7.212
 5041SOL     OW32264   3.073   6.190   7.730
 5041SOL    HW132265   3.045   6.278   7.703
 5041SOL    HW232266   3.049   6.134   7.656
 5042SOL     OW32267   1.590   2.070   7.264
 5042SOL    HW132268   1.540   2.089   7.185
 5042SOL    HW232269   1.611   2.157   7.300
 5043SOL     OW32270   0.621   4.347   2.308
 5043SOL    HW132271   0.536   4.389   2.320
 5043SOL    HW232272   0.621   4.275   2.371
 5044SOL     OW32273   4.780   0.634   6.950
 5044SOL    HW132274   4.833   0.557   6.971
 5044SOL    HW232275   4.691   0.600   6.939
 5045SOL     OW32276   1.750   2.704   0.533
 5045SOL    HW132277   1.712   2.712   0.620
 5045SOL    HW232278   1.686   2.745   0.475
 5046SOL     OW32279   2.523   5.581   7.582
 5046SOL    HW132280   2.564   5.665   7.600
 5046SOL    HW232281   2.453   5.601   7.520
 5047SOL     OW32282   2.648   5.847   7.614
 5047SOL    HW132283   2.731   5.881   7.650
 5047SOL    HW232284   2.630   5.903   7.539
 5048SOL     OW32285   4.016   4.571   7.433
 5048SOL    HW132286   4.094   4.554   7.487
 5048SOL    HW232287   4.013   4.666   7.425
 5049SOL     OW32288   6.177   0.234   2.177
 5049SOL    HW132289   6.162   0.238   2.272
 5049SOL    HW232290   6.151   0.145   2.153
 5050SOL     OW32291   3.537   2.355   0.581
 5050SOL    HW132292   3.556   2.263   0.598
 5050SOL    HW232293   3.525   2.360   0.487
 5051SOL     OW32294   0.712   5.158   1.031
 5051SOL    HW132295   0.648   5.171   0.962
 5051SOL    HW232296   0.727   5.246   1.066
 5052SOL     OW32297   4.317   5.506   0.900
 5052SOL    HW132298   4.244   5.555   0.861
 5052SOL    HW232299   4.392   5.531   0.847
 5053SOL     OW32300   3.827   1.844   7.099
 5053SOL    HW132301   3.901   1.883   7.052
 5053SOL    HW232302   3.810   1.762   7.054
 5054SOL     OW32303   2.222   5.992   6.788
 5054SOL    HW132304   2.167   5.955   6.858
 5054SOL    HW232305   2.160   6.033   6.728
 5055SOL     OW32306   4.546   1.110   6.228
 5055SOL    HW132307   4.486   1.053   6.275
 5055SOL    HW232308   4.513   1.111   6.138
 5056SOL     OW32309   3.474   2.833   7.635
 5056SOL    HW132310   3.393   2.864   7.594
 5056SOL    HW232311   3.447   2.805   7.723
 5057SOL     OW32312   2.571   2.047   6.882
 5057SOL    HW132313   2.501   2.112   6.891
 5057SOL    HW232314   2.530   1.964   6.906
 5058SOL     OW32315   4.906   4.755   0.076
 5058SOL    HW132316   4.831   4.802   0.112
 5058SOL    HW232317   4.921   4.684   0.137
 5059SOL     OW32318   3.419   3.240   0.516
 5059SOL    HW132319   3.468   3.272   0.440
 5059SOL    HW232320   3.423   3.144   0.508
 5060SOL     OW32321   0.093   1.465   6.732
 5060SOL    HW132322   0.031   1.467   6.804
 5060SOL    HW232323   0.121   1.373   6.726
 5061SOL     OW32324   4.595   1.103   7.199
 5061SOL    HW132325   4.536   1.130   7.269
 5061SOL    HW232326   4.551   1.129   7.118
 5062SOL     OW32327   0.255   0.813   6.738
 5062SOL    HW132328   0.211   0.856   6.812
 5062SOL    HW232329   0.188   0.807   6.670
 5063SOL     OW32330   3.292   3.373   2.278
 5063SOL    HW132331   3.385   3.378   2.257
 5063SOL    HW232332   3.270   3.280   2.266
 5064SOL     OW32333   4.440   5.734   6.036
 5064SOL    HW132334   4.518   5.689   6.004
 5064SOL    HW232335   4.372   5.666   6.038
 5065SOL     OW32336   5.510   1.132   1.647
 5065SOL    HW132337   5.505   1.172   1.734
 5065SOL    HW232338   5.521   1.206   1.587
 5066SOL     OW32339   1.061   4.771   7.384
 5066SOL    HW132340   1.109   4.716   7.323
 5066SOL    HW232341   0.980   4.723   7.400
 5067SOL     OW32342   3.791   0.271   2.122
 5067SOL    HW132343   3.855   0.202   2.144
 5067SOL    HW232344   3.754   0.243   2.038
 5068SOL     OW32345   5.703   5.203   0.681
 5068SOL    HW132346   5.743   5.286   0.704
 5068SOL    HW232347   5.772   5.138   0.694
 5069SOL     OW32348   5.488   6.132   1.385
 5069SOL    HW132349   5.479   6.198   1.317
 5069SOL    HW232350   5.530   6.178   1.458
 5070SOL     OW32351   4.849   5.279   7.348
 5070SOL    HW132352   4.880   5.197   7.386
 5070SOL    HW232353   4.865   5.344   7.415
 5071SOL     OW32354   1.103   4.392   6.020
 5071SOL    HW132355   1.116   4.335   5.944
 5071SOL    HW232356   1.057   4.468   5.985
 5072SOL     OW32357   2.506   6.212   6.418
 5072SOL    HW132358   2.601   6.212   6.428
 5072SOL    HW232359   2.473   6.260   6.495
 5073SOL     OW32360   6.218   2.851   0.723
 5073SOL    HW132361   6.235   2.769   0.771
 5073SOL    HW232362   6.174   2.823   0.643
 5074SOL     OW32363   0.720   0.062   0.935
 5074SOL    HW132364   0.629   0.079   0.959
 5074SOL    HW232365   0.760   0.026   1.014
 5075SOL     OW32366   4.053   4.868   6.811
 5075SOL    HW132367   4.013   4.859   6.897
 5075SOL    HW232368   4.146   4.882   6.828
 5076SOL     OW32369   2.383   2.414   6.120
 5076SOL    HW132370   2.455   2.430   6.059
 5076SOL    HW232371   2.306   2.450   6.077
 5077SOL     OW32372   4.888   3.368   7.606
 5077SOL    HW132373   4.951   3.395   7.673
 5077SOL    HW232374   4.891   3.272   7.609
 5078SOL     OW32375   5.056   0.152   6.726
 5078SOL    HW132376   4.999   0.079   6.746
 5078SOL    HW232377   4.997   0.227   6.713
 5079SOL     OW32378   3.630   1.334   6.864
 5079SOL    HW132379   3.714   1.362   6.900
 5079SOL    HW232380   3.652   1.263   6.803
 5080SOL     OW32381   2.280   5.996   6.241
 5080SOL    HW132382   2.347   5.961   6.299
 5080SOL    HW232383   2.326   6.015   6.159
 5081SOL     OW32384   6.387   6.375   1.155
 5081SOL    HW132385   6.367   6.387   1.062
 5081SOL    HW232386   6.331   6.302   1.181
 5082SOL     OW32387   5.387   0.040   6.719
 5082SOL    HW132388   5.353   0.101   6.653
 5082SOL    HW232389   5.331   6.449   6.712
 5083SOL     OW32390   4.151   4.778   7.058
 5083SOL    HW132391   4.235   4.764   7.100
 5083SOL    HW232392   4.099   4.702   7.082
 5084SOL     OW32393   6.052   4.462   6.632
 5084SOL    HW132394   5.993   4.473   6.706
 5084SOL    HW232395   6.044   4.544   6.582
 5085SOL     OW32396   5.006   3.015   0.308
 5085SOL    HW132397   4.974   2.944   0.252
 5085SOL    HW232398   5.091   3.038   0.270
 5086SOL     OW32399   0.811   0.023   6.798
 5086SOL    HW132400   0.850   0.109   6.809
 5086SOL    HW232401   0.717   0.036   6.812
 5087SOL     OW32402   3.991   1.090   7.411
 5087SOL    HW132403   4.076   1.101   7.453
 5087SOL    HW232404   3.927   1.105   7.480
 5088SOL     OW32405   4.847   5.467   6.092
 5088SOL    HW132406   4.780   5.420   6.142
 5088SOL    HW232407   4.912   5.492   6.157
 5089SOL     OW32408   6.082   3.516   7.607
 5089SOL    HW132409   6.033   3.550   7.681
 5089SOL    HW232410   6.162   3.568   7.605
 5090SOL     OW32411   4.440   5.265   0.031
 5090SOL    HW132412   4.454   5.326   0.103
 5090SOL    HW232413   4.497   5.296   7.737
 5091SOL     OW32414   0.042   3.754   6.789
 5091SOL    HW132415   6.474   3.781   6.715
 5091SOL    HW232416   0.132   3.770   6.760
 5092SOL     OW32417   3.890   5.034   2.066
 5092SOL    HW132418   3.972   4.990   2.044
 5092SOL    HW232419   3.847   5.049   1.982
 5093SOL     OW32420   4.117   2.724   1.191
 5093SOL    HW132421   4.195   2.723   1.135
 5093SOL    HW232422   4.056   2.664   1.148
 5094SOL     OW32423   4.190   4.507   0.697
 5094SOL    HW132424   4.116   4.488   0.640
 5094SOL    HW232425   4.225   4.421   0.720
 5095SOL     OW32426   0.628   4.637   6.802
 5095SOL    HW132427   0.717   4.667   6.816
 5095SOL    HW232428   0.637   4.555   6.753
 5096SOL     OW32429   2.344   4.747   6.669
 5096SOL    HW132430   2.426   4.796   6.676
 5096SOL    HW232431   2.278   4.815   6.653
 5097SOL     OW32432   2.985   0.789   0.472
 5097SOL    HW132433   2.958   0.864   0.526
 5097SOL    HW232434   3.059   0.822   0.420
 5098SOL     OW32435   3.026   3.245   0.987
 5098SOL    HW132436   2.997   3.262   0.898
 5098SOL    HW232437   2.951   3.203   1.029
 5099SOL     OW32438   6.462   4.620   6.610
 5099SOL    HW132439   6.410   4.540   6.602
 5099SOL    HW232440   6.398   4.689   6.629
 5100SOL     OW32441   5.053   3.450   2.164
 5100SOL    HW132442   5.090   3.537   2.180
 5100SOL    HW232443   5.109   3.390   2.213
 5101SOL     OW32444   5.875   3.693   2.217
 5101SOL    HW132445   5.912   3.668   2.132
 5101SOL    HW232446   5.781   3.702   2.201
 5102SOL     OW32447   4.919   6.267   0.247
 5102SOL    HW132448   4.981   6.236   0.312
 5102SOL    HW232449   4.914   6.196   0.183
 5103SOL     OW32450   1.775   5.587   1.364
 5103SOL    HW132451   1.697   5.603   1.417
 5103SOL    HW232452   1.842   5.642   1.404
 5104SOL     OW32453   5.967   3.592   0.789
 5104SOL    HW132454   5.898   3.577   0.853
 5104SOL    HW232455   6.034   3.641   0.838
 5105SOL     OW32456   0.917   6.298   0.421
 5105SOL    HW132457   0.913   6.390   0.395
 5105SOL    HW232458   0.913   6.300   0.516
 5106SOL     OW32459   1.045   3.276   0.013
 5106SOL    HW132460   1.047   3.350   7.727
 5106SOL    HW232461   1.090   3.308   0.091
 5107SOL     OW32462   2.998   5.232   7.717
 5107SOL    HW132463   3.030   5.224   0.032
 5107SOL    HW232464   3.070   5.199   7.663
 5108SOL     OW32465   5.191   3.499   5.980
 5108SOL    HW132466   5.211   3.413   6.015
 5108SOL    HW232467   5.096   3.506   5.986
 5109SOL     OW32468   4.957   5.462   5.453
 5109SOL    HW132469   4.940   5.534   5.514
 5109SOL    HW232470   4.871   5.424   5.437
 5110SOL     OW32471   0.809   0.659   1.295
 5110SOL    HW132472   0.817   0.565   1.281
 5110SOL    HW232473   0.815   0.697   1.207
 5111SOL     OW32474   4.550   5.011   7.057
 5111SOL    HW132475   4.565   5.100   7.089
 5111SOL    HW232476   4.542   5.021   6.962
 5112SOL     OW32477   4.684   6.288   6.745
 5112SOL    HW132478   4.596   6.254   6.759
 5112SOL    HW232479   4.687   6.369   6.797
 5113SOL     OW32480   4.872   0.615   6.155
 5113SOL    HW132481   4.956   0.590   6.116
 5113SOL    HW232482   4.807   0.588   6.090
 5114SOL     OW32483   3.107   3.444   6.142
 5114SOL    HW132484   3.132   3.513   6.082
 5114SOL    HW232485   3.146   3.364   6.104
 5115SOL     OW32486   1.635   5.928   6.954
 5115SOL    HW132487   1.698   5.884   7.010
 5115SOL    HW232488   1.661   6.020   6.956
 5116SOL     OW32489   0.350   3.271   6.668
 5116SOL    HW132490   0.376   3.263   6.576
 5116SOL    HW232491   0.294   3.196   6.684
 5117SOL     OW32492   0.307   5.850   6.693
 5117SOL    HW132493   0.212   5.858   6.684
 5117SOL    HW232494   0.327   5.891   6.777
 5118SOL     OW32495   3.882   4.496   6.580
 5118SOL    HW132496   3.807   4.554   6.568
 5118SOL    HW232497   3.855   4.435   6.648
 5119SOL     OW32498   1.038   1.442   7.649
 5119SOL    HW132499   1.040   1.431   7.744
 5119SOL    HW232500   1.028   1.354   7.614
 5120SOL     OW32501   5.403   4.901   1.164
 5120SOL    HW132502   5.366   4.863   1.244
 5120SOL    HW232503   5.328   4.915   1.107
 5121SOL     OW32504   2.029   6.129   0.715
 5121SOL    HW132505   1.941   6.156   0.688
 5121SOL    HW232506   2.038   6.040   0.682
 5122SOL     OW32507   0.880   5.524   6.055
 5122SOL    HW132508   0.956   5.508   6.001
 5122SOL    HW232509   0.872   5.620   6.057
 5123SOL     OW32510   6.339   2.369   1.453
 5123SOL    HW132511   6.429   2.357   1.484
 5123SOL    HW232512   6.285   2.331   1.521
 5124SOL     OW32513   2.869   5.140   4.826
 5124SOL    HW132514   2.912   5.058   4.805
 5124SOL    HW232515   2.922   5.207   4.783
 5125SOL     OW32516   5.863   5.305   6.602
 5125SOL    HW132517   5.832   5.332   6.516
 5125SOL    HW232518   5.932   5.242   6.584
 5126SOL     OW32519   3.182   2.453   6.774
 5126SOL    HW132520   3.142   2.538   6.758
 5126SOL    HW232521   3.172   2.440   6.868
 5127SOL     OW32522   3.019   3.860   1.110
 5127SOL    HW132523   3.057   3.881   1.025
 5127SOL    HW232524   2.980   3.774   1.099
 5128SOL     OW32525   2.102   3.787   6.896
 5128SOL    HW132526   2.124   3.854   6.961
 5128SOL    HW232527   2.010   3.764   6.915
 5129SOL     OW32528   3.484   1.787   2.222
 5129SOL    HW132529   3.481   1.840   2.301
 5129SOL    HW232530   3.563   1.816   2.177
 5130SOL     OW32531   5.294   4.370   0.466
 5130SOL    HW132532   5.319   4.444   0.522
 5130SOL    HW232533   5.375   4.343   0.424
 5131SOL     OW32534   0.751   2.593   7.640
 5131SOL    HW132535   0.690   2.522   7.656
 5131SOL    HW232536   0.828   2.572   7.693
 5132SOL     OW32537   5.000   3.769   6.066
 5132SOL    HW132538   4.992   3.763   6.161
 5132SOL    HW232539   4.975   3.682   6.035
 5133SOL     OW32540   3.625   1.989   7.721
 5133SOL    HW132541   3.677   2.058   7.763
 5133SOL    HW232542   3.600   2.027   7.637
 5134SOL     OW32543   2.852   5.391   6.481
 5134SOL    HW132544   2.926   5.415   6.537
 5134SOL    HW232545   2.856   5.454   6.409
 5135SOL     OW32546   0.154   6.217   1.805
 5135SOL    HW132547   0.212   6.284   1.843
 5135SOL    HW232548   0.103   6.265   1.739
 5136SOL     OW32549   6.428   2.710   0.094
 5136SOL    HW132550   6.428   2.644   0.163
 5136SOL    HW232551   6.471   2.786   0.133
 5137SOL     OW32552   0.054   3.032   7.115
 5137SOL    HW132553   6.484   3.015   7.190
 5137SOL    HW232554   0.016   2.979   7.044
 5138SOL     OW32555   3.416   0.802   1.277
 5138SOL    HW132556   3.344   0.785   1.338
 5138SOL    HW232557   3.493   0.810   1.332
 5139SOL     OW32558   5.647   4.581   0.824
 5139SOL    HW132559   5.685   4.493   0.834
 5139SOL    HW232560   5.596   4.595   0.903
 5140SOL     OW32561   3.118   5.056   1.597
 5140SOL    HW132562   3.063   5.108   1.538
 5140SOL    HW232563   3.208   5.072   1.566
 5141SOL     OW32564   4.955   1.541   2.470
 5141SOL    HW132565   5.026   1.501   2.521
 5141SOL    HW232566   4.876   1.494   2.497
 5142SOL     OW32567   0.993   2.019   6.040
 5142SOL    HW132568   0.969   2.001   6.131
 5142SOL    HW232569   0.922   2.074   6.006
 5143SOL     OW32570   0.760   0.732   1.026
 5143SOL    HW132571   0.685   0.673   1.014
 5143SOL    HW232572   0.724   0.819   1.014
 5144SOL     OW32573   3.986   1.004   6.460
 5144SOL    HW132574   3.894   0.986   6.443
 5144SOL    HW232575   3.996   1.098   6.442
 5145SOL     OW32576   1.738   1.232   6.701
 5145SOL    HW132577   1.796   1.222   6.777
 5145SOL    HW232578   1.747   1.324   6.676
 5146SOL     OW32579   2.427   5.117   7.301
 5146SOL    HW132580   2.466   5.109   7.214
 5146SOL    HW232581   2.501   5.139   7.358
 5147SOL     OW32582   0.844   1.501   6.918
 5147SOL    HW132583   0.785   1.449   6.863
 5147SOL    HW232584   0.800   1.504   7.003
 5148SOL     OW32585   5.876   0.995   7.024
 5148SOL    HW132586   5.931   1.062   7.063
 5148SOL    HW232587   5.864   1.023   6.934
 5149SOL     OW32588   1.603   2.196   6.193
 5149SOL    HW132589   1.699   2.206   6.193
 5149SOL    HW232590   1.582   2.171   6.104
 5150SOL     OW32591   1.796   1.337   7.657
 5150SOL    HW132592   1.803   1.416   7.710
 5150SOL    HW232593   1.739   1.362   7.584
 5151SOL     OW32594   4.353   0.377   7.204
 5151SOL    HW132595   4.294   0.363   7.278
 5151SOL    HW232596   4.374   0.288   7.173
 5152SOL     OW32597   2.461   3.261   1.017
 5152SOL    HW132598   2.396   3.269   0.948
 5152SOL    HW232599   2.543   3.243   0.970
 5153SOL     OW32600   5.483   2.481   6.717
 5153SOL    HW132601   5.530   2.398   6.719
 5153SOL    HW232602   5.425   2.477   6.794
 5154SOL     OW32603   3.182   6.389   0.290
 5154SOL    HW132604   3.116   6.416   0.226
 5154SOL    HW232605   3.262   6.433   0.262
 5155SOL     OW32606   1.387   1.423   6.357
 5155SOL    HW132607   1.302   1.410   6.400
 5155SOL    HW232608   1.393   1.351   6.295
 5156SOL     OW32609   0.007   2.103   0.125
 5156SOL    HW132610   0.101   2.099   0.141
 5156SOL    HW232611   6.458   2.023   0.164
 5157SOL     OW32612   3.375   0.105   1.985
 5157SOL    HW132613   3.388   0.200   1.992
 5157SOL    HW232614   3.367   0.089   1.891
 5158SOL     OW32615   2.636   1.400   0.593
 5158SOL    HW132616   2.678   1.376   0.676
 5158SOL    HW232617   2.708   1.410   0.532
 5159SOL     OW32618   1.304   5.740   0.373
 5159SOL    HW132619   1.374   5.677   0.356
 5159SOL    HW232620   1.350   5.822   0.391
 5160SOL     OW32621   5.813   1.703   2.507
 5160SOL    HW132622   5.810   1.772   2.441
 5160SOL    HW232623   5.889   1.725   2.561
 5161SOL     OW32624   3.982   0.813   1.591
 5161SOL    HW132625   3.935   0.775   1.666
 5161SOL    HW232626   3.932   0.783   1.515
 5162SOL     OW32627   5.658   5.825   7.218
 5162SOL    HW132628   5.568   5.836   7.188
 5162SOL    HW232629   5.665   5.733   7.241
 5163SOL     OW32630   6.042   4.255   5.725
 5163SOL    HW132631   6.070   4.346   5.711
 5163SOL    HW232632   6.037   4.217   5.638
 5164SOL     OW32633   3.848   4.284   6.775
 5164SOL    HW132634   3.928   4.276   6.826
 5164SOL    HW232635   3.783   4.316   6.838
 5165SOL     OW32636   4.154   1.766   0.224
 5165SOL    HW132637   4.188   1.803   0.142
 5165SOL    HW232638   4.101   1.836   0.261
 5166SOL     OW32639   5.307   5.643   1.226
 5166SOL    HW132640   5.388   5.685   1.199
 5166SOL    HW232641   5.256   5.636   1.145
 5167SOL     OW32642   1.550   6.304   7.408
 5167SOL    HW132643   1.514   6.363   7.474
 5167SOL    HW232644   1.525   6.344   7.325
 5168SOL     OW32645   1.784   3.577   0.045
 5168SOL    HW132646   1.778   3.499   0.101
 5168SOL    HW232647   1.697   3.584   0.004
 5169SOL     OW32648   0.050   4.528   1.409
 5169SOL    HW132649   0.056   4.552   1.316
 5169SOL    HW232650   0.141   4.518   1.437
 5170SOL     OW32651   0.593   2.662   5.626
 5170SOL    HW132652   0.610   2.586   5.682
 5170SOL    HW232653   0.675   2.675   5.578
 5171SOL     OW32654   0.224   0.106   7.649
 5171SOL    HW132655   0.300   0.155   7.678
 5171SOL    HW232656   0.214   0.129   7.557
 5172SOL     OW32657   5.980   1.870   1.192
 5172SOL    HW132658   5.979   1.778   1.165
 5172SOL    HW232659   6.064   1.882   1.235
 5173SOL     OW32660   2.654   5.320   5.097
 5173SOL    HW132661   2.721   5.312   5.166
 5173SOL    HW232662   2.661   5.238   5.048
 5174SOL     OW32663   2.796   3.821   7.708
 5174SOL    HW132664   2.877   3.861   7.740
 5174SOL    HW232665   2.805   3.821   7.613
 5175SOL     OW32666   0.360   4.469   0.902
 5175SOL    HW132667   0.365   4.562   0.879
 5175SOL    HW232668   0.378   4.466   0.996
 5176SOL     OW32669   2.885   6.195   0.307
 5176SOL    HW132670   2.818   6.126   0.310
 5176SOL    HW232671   2.963   6.151   0.272
 5177SOL     OW32672   5.141   1.071   0.972
 5177SOL    HW132673   5.127   0.988   0.926
 5177SOL    HW232674   5.052   1.100   0.995
 5178SOL     OW32675   4.561   4.648   6.213
 5178SOL    HW132676   4.612   4.599   6.148
 5178SOL    HW232677   4.605   4.733   6.220
 5179SOL     OW32678   4.719   0.266   7.087
 5179SOL    HW132679   4.801   0.305   7.057
 5179SOL    HW232680   4.651   0.312   7.038
 5180SOL     OW32681   1.570   0.690   6.602
 5180SOL    HW132682   1.640   0.627   6.587
 5180SOL    HW232683   1.593   0.731   6.686
 5181SOL     OW32684   1.998   1.851   6.379
 5181SOL    HW132685   2.021   1.821   6.467
 5181SOL    HW232686   2.053   1.799   6.321
 5182SOL     OW32687   4.179   5.181   6.512
 5182SOL    HW132688   4.133   5.104   6.545
 5182SOL    HW232689   4.270   5.152   6.503
 5183SOL     OW32690   4.414   2.446   5.802
 5183SOL    HW132691   4.346   2.514   5.807
 5183SOL    HW232692   4.366   2.366   5.781
 5184SOL     OW32693   5.070   5.673   0.761
 5184SOL    HW132694   4.982   5.660   0.797
 5184SOL    HW232695   5.101   5.584   0.742
 5185SOL     OW32696   0.406   1.507   0.946
 5185SOL    HW132697   0.482   1.491   0.890
 5185SOL    HW232698   0.406   1.433   1.007
 5186SOL     OW32699   5.727   6.469   6.001
 5186SOL    HW132700   5.671   0.037   5.946
 5186SOL    HW232701   5.667   6.414   6.051
 5187SOL     OW32702   6.048   1.087   5.904
 5187SOL    HW132703   6.025   1.050   5.819
 5187SOL    HW232704   6.094   1.017   5.949
 5188SOL     OW32705   3.222   4.375   6.411
 5188SOL    HW132706   3.243   4.436   6.482
 5188SOL    HW232707   3.127   4.381   6.401
 5189SOL     OW32708   0.567   2.533   6.089
 5189SOL    HW132709   0.578   2.459   6.029
 5189SOL    HW232710   0.649   2.582   6.083
 5190SOL     OW32711   4.019   4.096   1.114
 5190SOL    HW132712   3.967   4.170   1.144
 5190SOL    HW232713   4.006   4.093   1.019
 5191SOL     OW32714   5.415   2.490   1.672
 5191SOL    HW132715   5.379   2.453   1.592
 5191SOL    HW232716   5.348   2.473   1.738
 5192SOL     OW32717   4.702   5.901   6.397
 5192SOL    HW132718   4.631   5.850   6.435
 5192SOL    HW232719   4.757   5.924   6.472
 5193SOL     OW32720   0.232   6.138   6.754
 5193SOL    HW132721   0.236   6.157   6.848
 5193SOL    HW232722   0.139   6.121   6.737
 5194SOL     OW32723   5.678   2.336   7.589
 5194SOL    HW132724   5.771   2.356   7.599
 5194SOL    HW232725   5.657   2.280   7.664
 5195SOL     OW32726   5.404   5.994   7.622
 5195SOL    HW132727   5.488   5.950   7.632
 5195SOL    HW232728   5.388   6.033   7.708
 5196SOL     OW32729   4.346   5.997   0.084
 5196SOL    HW132730   4.321   6.078   0.129
 5196SOL    HW232731   4.294   5.929   0.126
 5197SOL     OW32732   4.896   0.034   0.136
 5197SOL    HW132733   4.879   0.004   0.047
 5197SOL    HW232734   4.904   6.439   0.187
 5198SOL     OW32735   4.487   2.147   6.919
 5198SOL    HW132736   4.544   2.105   6.855
 5198SOL    HW232737   4.522   2.236   6.928
 5199SOL     OW32738   2.100   0.004   1.174
 5199SOL    HW132739   2.112   6.430   1.101
 5199SOL    HW232740   2.010   6.474   1.204
 5200SOL     OW32741   1.267   4.338   5.770
 5200SOL    HW132742   1.225   4.300   5.693
 5200SOL    HW232743   1.226   4.424   5.780
 5201SOL     OW32744   6.341   3.952   7.343
 5201SOL    HW132745   6.387   3.869   7.353
 5201SOL    HW232746   6.308   3.971   7.431
 5202SOL     OW32747   2.801   3.957   6.954
 5202SOL    HW132748   2.752   4.022   6.903
 5202SOL    HW232749   2.747   3.878   6.950
 5203SOL     OW32750   5.942   4.921   7.090
 5203SOL    HW132751   5.907   5.010   7.102
 5203SOL    HW232752   5.916   4.875   7.170
 5204SOL     OW32753   6.404   2.534   0.307
 5204SOL    HW132754   6.465   2.519   0.379
 5204SOL    HW232755   6.323   2.561   0.349
 5205SOL     OW32756   5.720   1.470   1.524
 5205SOL    HW132757   5.782   1.407   1.559
 5205SOL    HW232758   5.772   1.549   1.509
 5206SOL     OW32759   5.759   2.378   6.622
 5206SOL    HW132760   5.840   2.350   6.579
 5206SOL    HW232761   5.788   2.424   6.700
 5207SOL     OW32762   0.036   3.373   6.845
 5207SOL    HW132763   0.115   3.402   6.891
 5207SOL    HW232764   0.054   3.282   6.822
 5208SOL     OW32765   1.461   0.628   0.262
 5208SOL    HW132766   1.547   0.649   0.299
 5208SOL    HW232767   1.473   0.637   0.168
 5209SOL     OW32768   1.343   3.852   1.512
 5209SOL    HW132769   1.339   3.839   1.417
 5209SOL    HW232770   1.366   3.945   1.522
 5210SOL     OW32771   3.556   3.776   7.614
 5210SOL    HW132772   3.563   3.862   7.573
 5210SOL    HW232773   3.645   3.755   7.642
 5211SOL     OW32774   2.635   6.261   5.295
 5211SOL    HW132775   2.564   6.239   5.355
 5211SOL    HW232776   2.700   6.192   5.309
 5212SOL     OW32777   0.765   5.735   6.791
 5212SOL    HW132778   0.739   5.669   6.855
 5212SOL    HW232779   0.857   5.751   6.808
 5213SOL     OW32780   4.892   1.601   1.963
 5213SOL    HW132781   4.897   1.620   2.057
 5213SOL    HW232782   4.961   1.537   1.947
 5214SOL     OW32783   3.541   1.093   7.687
 5214SOL    HW132784   3.491   1.068   7.609
 5214SOL    HW232785   3.510   1.180   7.709
 5215SOL     OW32786   6.460   1.951   1.981
 5215SOL    HW132787   6.432   1.965   2.072
 5215SOL    HW232788   0.054   2.002   1.972
 5216SOL     OW32789   6.155   1.384   0.920
 5216SOL    HW132790   6.109   1.321   0.976
 5216SOL    HW232791   6.205   1.329   0.859
 5217SOL     OW32792   4.009   1.795   0.902
 5217SOL    HW132793   4.038   1.733   0.836
 5217SOL    HW232794   4.073   1.786   0.973
 5218SOL     OW32795   5.202   2.444   1.836
 5218SOL    HW132796   5.135   2.503   1.869
 5218SOL    HW232797   5.159   2.358   1.836
 5219SOL     OW32798   1.903   1.781   7.179
 5219SOL    HW132799   1.917   1.873   7.202
 5219SOL    HW232800   1.841   1.783   7.106
 5220SOL     OW32801   5.355   2.088   0.206
 5220SOL    HW132802   5.260   2.083   0.213
 5220SOL    HW232803   5.382   2.001   0.179
 5221SOL     OW32804   4.430   3.496   0.786
 5221SOL    HW132805   4.469   3.566   0.837
 5221SOL    HW232806   4.336   3.514   0.787
 5222SOL     OW32807   6.433   0.878   0.622
 5222SOL    HW132808   6.341   0.874   0.594
 5222SOL    HW232809   6.457   0.787   0.639
 5223SOL     OW32810   2.216   3.872   7.469
 5223SOL    HW132811   2.157   3.869   7.544
 5223SOL    HW232812   2.287   3.931   7.496
 5224SOL     OW32813   6.421   0.502   6.491
 5224SOL    HW132814   6.401   0.473   6.580
 5224SOL    HW232815   6.380   0.588   6.483
 5225SOL     OW32816   4.750   1.703   1.183
 5225SOL    HW132817   4.818   1.676   1.121
 5225SOL    HW232818   4.773   1.658   1.264
 5226SOL     OW32819   2.942   4.549   6.053
 5226SOL    HW132820   2.978   4.636   6.035
 5226SOL    HW232821   2.951   4.502   5.970
 5227SOL     OW32822   2.590   1.371   0.121
 5227SOL    HW132823   2.532   1.319   0.179
 5227SOL    HW232824   2.669   1.318   0.113
 5228SOL     OW32825   3.507   6.240   1.410
 5228SOL    HW132826   3.462   6.288   1.480
 5228SOL    HW232827   3.600   6.256   1.426
 5229SOL     OW32828   6.339   1.229   6.876
 5229SOL    HW132829   6.354   1.175   6.954
 5229SOL    HW232830   6.367   1.317   6.902
 5230SOL     OW32831   4.093   0.217   6.804
 5230SOL    HW132832   4.120   0.205   6.713
 5230SOL    HW232833   3.998   0.224   6.799
 5231SOL     OW32834   6.144   2.608   0.351
 5231SOL    HW132835   6.089   2.552   0.296
 5231SOL    HW232836   6.109   2.696   0.337
 5232SOL     OW32837   4.361   1.583   5.827
 5232SOL    HW132838   4.399   1.605   5.742
 5232SOL    HW232839   4.302   1.656   5.847
 5233SOL     OW32840   3.846   5.245   7.188
 5233SOL    HW132841   3.886   5.159   7.172
 5233SOL    HW232842   3.823   5.277   7.101
 5234SOL     OW32843   0.105   4.815   0.959
 5234SOL    HW132844   0.088   4.851   1.046
 5234SOL    HW232845   0.132   4.890   0.906
 5235SOL     OW32846   5.908   3.549   2.554
 5235SOL    HW132847   5.987   3.499   2.533
 5235SOL    HW232848   5.837   3.487   2.545
 5236SOL     OW32849   4.669   6.448   2.463
 5236SOL    HW132850   4.640   6.373   2.514
 5236SOL    HW232851   4.638   6.430   2.374
 5237SOL     OW32852   1.079   1.776   1.325
 5237SOL    HW132853   0.994   1.816   1.342
 5237SOL    HW232854   1.129   1.844   1.279
 5238SOL     OW32855   0.233   5.202   0.393
 5238SOL    HW132856   0.179   5.195   0.472
 5238SOL    HW232857   0.304   5.139   0.408
 5239SOL     OW32858   6.314   4.382   6.600
 5239SOL    HW132859   6.219   4.394   6.605
 5239SOL    HW232860   6.334   4.323   6.672
 5240SOL     OW32861   3.945   3.644   1.818
 5240SOL    HW132862   3.920   3.734   1.799
 5240SOL    HW232863   3.951   3.640   1.914
 5241SOL     OW32864   2.450   1.514   0.416
 5241SOL    HW132865   2.382   1.455   0.384
 5241SOL    HW232866   2.495   1.464   0.484
 5242SOL     OW32867   0.374   5.922   5.587
 5242SOL    HW132868   0.300   5.877   5.547
 5242SOL    HW232869   0.344   5.945   5.675
 5243SOL     OW32870   2.766   1.569   6.593
 5243SOL    HW132871   2.799   1.609   6.513
 5243SOL    HW232872   2.778   1.475   6.580
 5244SOL     OW32873   6.355   4.226   6.804
 5244SOL    HW132874   6.447   4.204   6.791
 5244SOL    HW232875   6.349   4.245   6.898
 5245SOL     OW32876   0.323   6.133   6.485
 5245SOL    HW132877   0.321   6.112   6.578
 5245SOL    HW232878   0.271   6.065   6.444
 5246SOL     OW32879   4.212   3.942   7.707
 5246SOL    HW132880   4.209   3.848   7.689
 5246SOL    HW232881   4.289   3.955   7.762
 5247SOL     OW32882   2.356   4.454   0.503
 5247SOL    HW132883   2.394   4.383   0.555
 5247SOL    HW232884   2.391   4.534   0.543
 5248SOL     OW32885   1.367   3.611   0.922
 5248SOL    HW132886   1.296   3.671   0.944
 5248SOL    HW232887   1.329   3.552   0.857
 5249SOL     OW32888   0.055   1.237   0.642
 5249SOL    HW132889   0.056   1.300   0.570
 5249SOL    HW232890   0.108   1.277   0.710
 5250SOL     OW32891   4.456   0.894   6.378
 5250SOL    HW132892   4.461   0.815   6.324
 5250SOL    HW232893   4.365   0.924   6.367
 5251SOL     OW32894   2.009   5.514   6.997
 5251SOL    HW132895   2.096   5.524   7.036
 5251SOL    HW232896   2.018   5.440   6.936
 5252SOL     OW32897   0.779   4.873   0.807
 5252SOL    HW132898   0.714   4.881   0.877
 5252SOL    HW232899   0.765   4.785   0.771
 5253SOL     OW32900   4.195   6.471   1.004
 5253SOL    HW132901   4.186   0.068   0.957
 5253SOL    HW232902   4.238   0.009   1.086
 5254SOL     OW32903   6.109   1.621   1.562
 5254SOL    HW132904   6.125   1.533   1.527
 5254SOL    HW232905   6.024   1.645   1.526
 5255SOL     OW32906   2.457   1.567   7.110
 5255SOL    HW132907   2.468   1.504   7.181
 5255SOL    HW232908   2.537   1.620   7.113
 5256SOL     OW32909   2.802   5.443   1.031
 5256SOL    HW132910   2.740   5.380   0.993
 5256SOL    HW232911   2.887   5.417   0.995
 5257SOL     OW32912   5.389   3.775   0.584
 5257SOL    HW132913   5.444   3.801   0.510
 5257SOL    HW232914   5.363   3.685   0.564
 5258SOL     OW32915   6.017   2.036   6.535
 5258SOL    HW132916   5.965   1.968   6.580
 5258SOL    HW232917   5.952   2.091   6.492
 5259SOL     OW32918   3.778   5.213   6.531
 5259SOL    HW132919   3.795   5.120   6.517
 5259SOL    HW232920   3.845   5.239   6.595
 5260SOL     OW32921   1.159   5.061   7.386
 5260SOL    HW132922   1.137   4.970   7.404
 5260SOL    HW232923   1.130   5.109   7.463
 5261SOL     OW32924   6.247   0.718   1.445
 5261SOL    HW132925   6.235   0.778   1.371
 5261SOL    HW232926   6.185   0.646   1.428
 5262SOL     OW32927   5.607   2.713   6.725
 5262SOL    HW132928   5.564   2.628   6.716
 5262SOL    HW232929   5.611   2.747   6.635
 5263SOL     OW32930   1.135   1.912   7.209
 5263SOL    HW132931   1.165   1.869   7.128
 5263SOL    HW232932   1.190   1.990   7.216
 5264SOL     OW32933   2.046   2.287   1.260
 5264SOL    HW132934   1.952   2.287   1.274
 5264SOL    HW232935   2.071   2.195   1.255
 5265SOL     OW32936   2.208   5.454   6.682
 5265SOL    HW132937   2.225   5.548   6.671
 5265SOL    HW232938   2.190   5.422   6.594
 5266SOL     OW32939   6.136   1.607   0.441
 5266SOL    HW132940   6.188   1.673   0.487
 5266SOL    HW232941   6.195   1.533   0.431
 5267SOL     OW32942   2.391   2.235   6.921
 5267SOL    HW132943   2.378   2.218   6.828
 5267SOL    HW232944   2.461   2.300   6.924
 5268SOL     OW32945   4.744   1.667   6.061
 5268SOL    HW132946   4.714   1.588   6.107
 5268SOL    HW232947   4.781   1.634   5.979
 5269SOL     OW32948   4.867   1.904   6.101
 5269SOL    HW132949   4.844   1.811   6.095
 5269SOL    HW232950   4.875   1.932   6.010
 5270SOL     OW32951   2.068   4.698   0.532
 5270SOL    HW132952   1.980   4.666   0.553
 5270SOL    HW232953   2.118   4.618   0.514
 5271SOL     OW32954   5.216   6.076   0.438
 5271SOL    HW132955   5.250   6.066   0.527
 5271SOL    HW232956   5.240   6.165   0.413
 5272SOL     OW32957   4.693   3.276   1.063
 5272SOL    HW132958   4.774   3.226   1.049
 5272SOL    HW232959   4.643   3.263   0.982
 5273SOL     OW32960   4.596   5.007   7.669
 5273SOL    HW132961   4.623   5.081   7.614
 5273SOL    HW232962   4.518   4.972   7.625
 5274SOL     OW32963   5.933   0.935   5.627
 5274SOL    HW132964   5.982   0.891   5.557
 5274SOL    HW232965   5.854   0.968   5.584
 5275SOL     OW32966   5.499   2.743   6.195
 5275SOL    HW132967   5.509   2.830   6.234
 5275SOL    HW232968   5.544   2.749   6.111
 5276SOL     OW32969   4.249   1.722   1.459
 5276SOL    HW132970   4.223   1.669   1.383
 5276SOL    HW232971   4.336   1.691   1.482
 5277SOL     OW32972   4.940   5.245   6.556
 5277SOL    HW132973   4.978   5.188   6.623
 5277SOL    HW232974   4.955   5.199   6.473
 5278SOL     OW32975   5.990   3.602   0.121
 5278SOL    HW132976   5.936   3.605   0.200
 5278SOL    HW232977   6.043   3.682   0.124
 5279SOL     OW32978   3.335   0.287   7.771
 5279SOL    HW132979   3.388   0.325   7.701
 5279SOL    HW232980   3.345   0.348   0.068
 5280SOL     OW32981   5.513   1.817   0.535
 5280SOL    HW132982   5.483   1.764   0.461
 5280SOL    HW232983   5.484   1.906   0.513
 5281SOL     OW32984   1.558   1.886   6.820
 5281SOL    HW132985   1.543   1.828   6.894
 5281SOL    HW232986   1.524   1.971   6.848
 5282SOL     OW32987   0.547   5.513   1.622
 5282SOL    HW132988   0.568   5.442   1.560
 5282SOL    HW232989   0.574   5.593   1.576
 5283SOL     OW32990   3.582   3.045   6.691
 5283SOL    HW132991   3.637   2.973   6.660
 5283SOL    HW232992   3.641   3.100   6.742
 5284SOL     OW32993   3.611   4.883   6.167
 5284SOL    HW132994   3.567   4.865   6.250
 5284SOL    HW232995   3.662   4.963   6.184
 5285SOL     OW32996   5.168   4.241   7.226
 5285SOL    HW132997   5.103   4.172   7.233
 5285SOL    HW232998   5.208   4.228   7.140
 5286SOL     OW32999   3.856   4.396   0.986
 5286SOL    HW133000   3.903   4.446   1.052
 5286SOL    HW233001   3.797   4.340   1.036
 5287SOL     OW33002   4.785   0.731   0.300
 5287SOL    HW133003   4.709   0.739   0.243
 5287SOL    HW233004   4.838   0.662   0.259
 5288SOL     OW33005   0.921   3.449   5.711
 5288SOL    HW133006   0.829   3.443   5.737
 5288SOL    HW233007   0.919   3.461   5.616
 5289SOL     OW33008   0.959   2.441   7.385
 5289SOL    HW133009   0.980   2.347   7.390
 5289SOL    HW233010   1.008   2.480   7.457
 5290SOL     OW33011   5.218   0.493   2.338
 5290SOL    HW133012   5.208   0.564   2.273
 5290SOL    HW233013   5.311   0.470   2.334
 5291SOL     OW33014   3.391   4.565   1.058
 5291SOL    HW133015   3.324   4.497   1.048
 5291SOL    HW233016   3.460   4.523   1.110
 5292SOL     OW33017   2.749   6.194   6.533
 5292SOL    HW133018   2.806   6.144   6.475
 5292SOL    HW233019   2.792   6.279   6.542
 5293SOL     OW33020   1.707   5.484   0.803
 5293SOL    HW133021   1.669   5.496   0.890
 5293SOL    HW233022   1.668   5.552   0.749
 5294SOL     OW33023   5.609   5.305   2.147
 5294SOL    HW133024   5.698   5.281   2.118
 5294SOL    HW233025   5.615   5.309   2.242
 5295SOL     OW33026   3.121   4.085   5.614
 5295SOL    HW133027   3.215   4.084   5.633
 5295SOL    HW233028   3.114   4.129   5.529
 5296SOL     OW33029   5.208   1.052   7.035
 5296SOL    HW133030   5.268   0.994   7.082
 5296SOL    HW233031   5.187   1.005   6.955
 5297SOL     OW33032   5.875   6.240   5.939
 5297SOL    HW133033   5.830   6.321   5.962
 5297SOL    HW233034   5.807   6.173   5.947
 5298SOL     OW33035   5.143   2.685   2.085
 5298SOL    HW133036   5.084   2.656   2.015
 5298SOL    HW233037   5.169   2.773   2.059
 5299SOL     OW33038   2.808   3.424   5.119
 5299SOL    HW133039   2.796   3.332   5.096
 5299SOL    HW233040   2.729   3.447   5.168
 5300SOL     OW33041   2.399   2.961   0.254
 5300SOL    HW133042   2.323   2.998   0.209
 5300SOL    HW233043   2.409   2.873   0.216
 5301SOL     OW33044   2.338   3.334   1.453
 5301SOL    HW133045   2.410   3.272   1.441
 5301SOL    HW233046   2.370   3.415   1.413
 5302SOL     OW33047   2.871   3.732   6.316
 5302SOL    HW133048   2.834   3.712   6.230
 5302SOL    HW233049   2.814   3.686   6.377
 5303SOL     OW33050   3.337   0.344   6.180
 5303SOL    HW133051   3.316   0.283   6.109
 5303SOL    HW233052   3.394   0.410   6.140
 5304SOL     OW33053   6.074   6.313   5.763
 5304SOL    HW133054   6.112   6.385   5.813
 5304SOL    HW233055   5.998   6.285   5.814
 5305SOL     OW33056   6.449   4.193   0.733
 5305SOL    HW133057   6.475   4.258   0.799
 5305SOL    HW233058   0.009   4.113   0.758
 5306SOL     OW33059   3.567   5.073   5.786
 5306SOL    HW133060   3.620   5.121   5.722
 5306SOL    HW233061   3.526   5.003   5.735
 5307SOL     OW33062   1.279   4.898   6.403
 5307SOL    HW133063   1.366   4.918   6.437
 5307SOL    HW233064   1.278   4.803   6.395
 5308SOL     OW33065   1.723   1.179   0.875
 5308SOL    HW133066   1.780   1.214   0.943
 5308SOL    HW233067   1.730   1.084   0.884
 5309SOL     OW33068   1.180   0.132   1.879
 5309SOL    HW133069   1.103   0.088   1.842
 5309SOL    HW233070   1.158   0.145   1.971
 5310SOL     OW33071   0.788   3.712   6.664
 5310SOL    HW133072   0.713   3.666   6.625
 5310SOL    HW233073   0.801   3.668   6.748
 5311SOL     OW33074   4.407   2.427   1.752
 5311SOL    HW133075   4.484   2.474   1.721
 5311SOL    HW233076   4.398   2.453   1.843
 5312SOL     OW33077   4.520   5.602   0.772
 5312SOL    HW133078   4.569   5.520   0.777
 5312SOL    HW233079   4.587   5.670   0.767
 5313SOL     OW33080   5.045   1.273   1.667
 5313SOL    HW133081   5.053   1.336   1.596
 5313SOL    HW233082   5.106   1.203   1.643
 5314SOL     OW33083   1.226   1.026   7.525
 5314SOL    HW133084   1.234   0.967   7.450
 5314SOL    HW233085   1.263   0.977   7.598
 5315SOL     OW33086   6.131   2.340   1.623
 5315SOL    HW133087   6.107   2.271   1.684
 5315SOL    HW233088   6.064   2.407   1.636
 5316SOL     OW33089   1.624   0.373   7.140
 5316SOL    HW133090   1.562   0.342   7.074
 5316SOL    HW233091   1.691   0.419   7.090
 5317SOL     OW33092   2.191   0.282   6.320
 5317SOL    HW133093   2.112   0.317   6.279
 5317SOL    HW233094   2.242   0.247   6.247
 5318SOL     OW33095   5.137   0.108   6.101
 5318SOL    HW133096   5.061   0.167   6.104
 5318SOL    HW233097   5.188   0.138   6.025
 5319SOL     OW33098   4.237   4.855   6.522
 5319SOL    HW133099   4.244   4.884   6.431
 5319SOL    HW233100   4.185   4.775   6.518
 5320SOL     OW33101   3.098   1.332   0.966
 5320SOL    HW133102   3.091   1.381   1.047
 5320SOL    HW233103   3.019   1.354   0.917
 5321SOL     OW33104   5.838   6.200   0.033
 5321SOL    HW133105   5.767   6.248   7.766
 5321SOL    HW233106   5.845   6.118   7.759
 5322SOL     OW33107   1.214   2.302   6.726
 5322SOL    HW133108   1.257   2.378   6.687
 5322SOL    HW233109   1.190   2.331   6.814
 5323SOL     OW33110   5.699   0.663   0.368
 5323SOL    HW133111   5.664   0.580   0.335
 5323SOL    HW233112   5.794   0.652   0.364
 5324SOL     OW33113   1.703   5.646   7.438
 5324SOL    HW133114   1.649   5.608   7.369
 5324SOL    HW233115   1.731   5.571   7.491
 5325SOL     OW33116   4.515   4.893   6.007
 5325SOL    HW133117   4.591   4.844   6.038
 5325SOL    HW233118   4.504   4.964   6.070
 5326SOL     OW33119   0.571   2.409   7.714
 5326SOL    HW133120   0.489   2.361   7.697
 5326SOL    HW233121   0.603   2.373   0.021
 5327SOL     OW33122   1.909   5.662   1.028
 5327SOL    HW133123   1.924   5.576   1.068
 5327SOL    HW233124   1.814   5.668   1.018
 5328SOL     OW33125   0.178   2.902   0.000
 5328SOL    HW133126   0.119   2.891   7.701
 5328SOL    HW233127   0.232   2.977   7.753
 5329SOL     OW33128   6.187   1.760   6.239
 5329SOL    HW133129   6.154   1.753   6.149
 5329SOL    HW233130   6.227   1.847   6.243
 5330SOL     OW33131   3.401   1.792   1.618
 5330SOL    HW133132   3.491   1.760   1.615
 5330SOL    HW233133   3.366   1.775   1.531
 5331SOL     OW33134   0.043   5.850   1.853
 5331SOL    HW133135   6.477   5.806   1.787
 5331SOL    HW233136   0.131   5.815   1.841
 5332SOL     OW33137   6.331   1.821   5.781
 5332SOL    HW133138   6.258   1.783   5.732
 5332SOL    HW233139   6.296   1.836   5.869
 5333SOL     OW33140   6.327   3.669   0.090
 5333SOL    HW133141   6.323   3.591   0.145
 5333SOL    HW233142   6.252   3.722   0.117
 5334SOL     OW33143   4.500   3.345   1.268
 5334SOL    HW133144   4.562   3.307   1.205
 5334SOL    HW233145   4.488   3.276   1.333
 5335SOL     OW33146   3.105   5.853   1.223
 5335SOL    HW133147   3.012   5.857   1.246
 5335SOL    HW233148   3.116   5.766   1.183
 5336SOL     OW33149   5.332   5.913   5.963
 5336SOL    HW133150   5.287   5.915   5.878
 5336SOL    HW233151   5.417   5.872   5.944
 5337SOL     OW33152   6.140   3.431   0.642
 5337SOL    HW133153   6.196   3.404   0.715
 5337SOL    HW233154   6.062   3.468   0.683
 5338SOL     OW33155   2.409   5.603   0.189
 5338SOL    HW133156   2.318   5.630   0.189
 5338SOL    HW233157   2.412   5.527   0.248
 5339SOL     OW33158   4.340   1.968   0.683
 5339SOL    HW133159   4.431   1.981   0.656
 5339SOL    HW233160   4.316   1.883   0.645
 5340SOL     OW33161   6.038   5.268   6.369
 5340SOL    HW133162   6.029   5.203   6.299
 5340SOL    HW233163   6.107   5.233   6.425
 5341SOL     OW33164   1.635   0.237   6.335
 5341SOL    HW133165   1.715   0.223   6.387
 5341SOL    HW233166   1.664   0.289   6.260
 5342SOL     OW33167   5.532   3.204   5.669
 5342SOL    HW133168   5.627   3.213   5.662
 5342SOL    HW233169   5.500   3.219   5.580
 5343SOL     OW33170   5.845   6.301   1.203
 5343SOL    HW133171   5.887   6.327   1.120
 5343SOL    HW233172   5.761   6.347   1.202
 5344SOL     OW33173   2.321   2.692   0.170
 5344SOL    HW133174   2.374   2.613   0.183
 5344SOL    HW233175   2.294   2.718   0.258
 5345SOL     OW33176   0.434   0.531   7.557
 5345SOL    HW133177   0.440   0.488   7.642
 5345SOL    HW233178   0.356   0.493   7.516
 5346SOL     OW33179   6.359   3.832   5.745
 5346SOL    HW133180   6.386   3.892   5.815
 5346SOL    HW233181   6.421   3.760   5.750
 5347SOL     OW33182   0.457   2.567   7.478
 5347SOL    HW133183   0.501   2.646   7.450
 5347SOL    HW233184   0.442   2.580   7.572
 5348SOL     OW33185   1.611   2.492   7.591
 5348SOL    HW133186   1.653   2.577   7.600
 5348SOL    HW233187   1.680   2.429   7.611
 5349SOL     OW33188   5.359   1.142   6.771
 5349SOL    HW133189   5.302   1.216   6.750
 5349SOL    HW233190   5.323   1.069   6.721
 5350SOL     OW33191   0.040   6.149   0.065
 5350SOL    HW133192   6.470   6.205   0.011
 5350SOL    HW233193   0.012   6.060   0.043
 5351SOL     OW33194   3.861   5.041   1.771
 5351SOL    HW133195   3.774   5.004   1.762
 5351SOL    HW233196   3.920   4.970   1.747
 5352SOL     OW33197   1.509   0.209   1.294
 5352SOL    HW133198   1.542   0.215   1.205
 5352SOL    HW233199   1.414   0.202   1.284
 5353SOL     OW33200   0.824   2.597   6.086
 5353SOL    HW133201   0.884   2.671   6.094
 5353SOL    HW233202   0.852   2.552   6.006
 5354SOL     OW33203   3.505   2.781   1.271
 5354SOL    HW133204   3.504   2.876   1.276
 5354SOL    HW233205   3.457   2.760   1.191
 5355SOL     OW33206   4.774   6.002   6.635
 5355SOL    HW133207   4.741   6.086   6.605
 5355SOL    HW233208   4.845   6.024   6.695
 5356SOL     OW33209   3.821   2.375   0.415
 5356SOL    HW133210   3.762   2.303   0.390
 5356SOL    HW233211   3.777   2.454   0.384
 5357SOL     OW33212   6.381   4.839   2.406
 5357SOL    HW133213   6.300   4.854   2.357
 5357SOL    HW233214   6.407   4.927   2.436
 5358SOL     OW33215   3.036   4.263   1.049
 5358SOL    HW133216   3.050   4.356   1.031
 5358SOL    HW233217   3.071   4.250   1.137
 5359SOL     OW33218   5.863   2.586   7.449
 5359SOL    HW133219   5.895   2.607   7.362
 5359SOL    HW233220   5.898   2.499   7.467
 5360SOL     OW33221   2.522   0.324   6.122
 5360SOL    HW133222   2.485   0.388   6.061
 5360SOL    HW233223   2.456   0.254   6.126
 5361SOL     OW33224   4.902   3.894   0.399
 5361SOL    HW133225   4.839   3.828   0.370
 5361SOL    HW233226   4.952   3.916   0.320
 5362SOL     OW33227   2.259   5.601   7.057
 5362SOL    HW133228   2.327   5.542   7.090
 5362SOL    HW233229   2.300   5.648   6.985
 5363SOL     OW33230   1.906   4.667   6.877
 5363SOL    HW133231   1.878   4.722   6.804
 5363SOL    HW233232   1.990   4.631   6.849
 5364SOL     OW33233   6.104   2.619   5.968
 5364SOL    HW133234   6.096   2.524   5.965
 5364SOL    HW233235   6.021   2.648   6.008
 5365SOL     OW33236   4.544   3.985   5.476
 5365SOL    HW133237   4.626   4.031   5.459
 5365SOL    HW233238   4.476   4.052   5.465
 5366SOL     OW33239   2.811   1.119   6.903
 5366SOL    HW133240   2.742   1.183   6.885
 5366SOL    HW233241   2.891   1.160   6.870
 5367SOL     OW33242   5.112   5.114   0.728
 5367SOL    HW133243   5.025   5.080   0.712
 5367SOL    HW233244   5.164   5.084   0.653
 5368SOL     OW33245   1.560   1.112   5.998
 5368SOL    HW133246   1.479   1.117   5.946
 5368SOL    HW233247   1.615   1.051   5.950
 5369SOL     OW33248   6.394   4.720   0.795
 5369SOL    HW133249   6.337   4.777   0.846
 5369SOL    HW233250   6.481   4.733   0.833
 5370SOL     OW33251   4.779   5.716   2.106
 5370SOL    HW133252   4.821   5.629   2.103
 5370SOL    HW233253   4.704   5.707   2.048
 5371SOL     OW33254   5.281   3.210   6.367
 5371SOL    HW133255   5.335   3.269   6.419
 5371SOL    HW233256   5.197   3.206   6.414
 5372SOL     OW33257   2.917   0.041   5.707
 5372SOL    HW133258   2.949   6.456   5.652
 5372SOL    HW233259   2.905   0.114   5.647
 5373SOL     OW33260   0.615   5.125   5.896
 5373SOL    HW133261   0.666   5.197   5.934
 5373SOL    HW233262   0.641   5.124   5.804
 5374SOL     OW33263   4.950   0.031   6.454
 5374SOL    HW133264   4.896   0.106   6.479
 5374SOL    HW233265   4.903   6.441   6.490
 5375SOL     OW33266   3.178   5.508   1.527
 5375SOL    HW133267   3.222   5.468   1.602
 5375SOL    HW233268   3.223   5.592   1.515
 5376SOL     OW33269   5.921   3.945   0.817
 5376SOL    HW133270   5.976   3.897   0.880
 5376SOL    HW233271   5.834   3.906   0.827
 5377SOL     OW33272   3.408   4.787   4.700
 5377SOL    HW133273   3.470   4.846   4.742
 5377SOL    HW233274   3.425   4.702   4.741
 5378SOL     OW33275   2.938   0.830   6.040
 5378SOL    HW133276   2.986   0.906   6.009
 5378SOL    HW233277   3.005   0.766   6.061
 5379SOL     OW33278   3.338   5.490   0.026
 5379SOL    HW133279   3.252   5.463   0.056
 5379SOL    HW233280   3.325   5.513   7.709
 5380SOL     OW33281   4.212   2.250   5.282
 5380SOL    HW133282   4.249   2.185   5.343
 5380SOL    HW233283   4.287   2.281   5.232
 5381SOL     OW33284   2.842   2.248   7.655
 5381SOL    HW133285   2.802   2.334   7.647
 5381SOL    HW233286   2.920   2.262   7.708
 5382SOL     OW33287   5.283   2.935   1.986
 5382SOL    HW133288   5.252   3.003   2.046
 5382SOL    HW233289   5.378   2.938   1.994
 5383SOL     OW33290   3.535   1.015   6.956
 5383SOL    HW133291   3.576   0.929   6.966
 5383SOL    HW233292   3.578   1.053   6.880
 5384SOL     OW33293   2.456   6.028   6.911
 5384SOL    HW133294   2.518   6.011   6.840
 5384SOL    HW233295   2.370   6.013   6.872
 5385SOL     OW33296   5.355   6.301   0.404
 5385SOL    HW133297   5.364   6.337   0.492
 5385SOL    HW233298   5.386   6.370   0.347
 5386SOL     OW33299   0.677   2.500   0.754
 5386SOL    HW133300   0.749   2.544   0.799
 5386SOL    HW233301   0.720   2.450   0.684
 5387SOL     OW33302   3.554   1.233   1.804
 5387SOL    HW133303   3.532   1.326   1.794
 5387SOL    HW233304   3.500   1.188   1.739
 5388SOL     OW33305   4.964   0.467   1.431
 5388SOL    HW133306   4.869   0.462   1.417
 5388SOL    HW233307   4.983   0.390   1.485
 5389SOL     OW33308   2.374   2.361   0.550
 5389SOL    HW133309   2.426   2.376   0.629
 5389SOL    HW233310   2.283   2.358   0.581
 5390SOL     OW33311   0.466   5.422   2.296
 5390SOL    HW133312   0.554   5.433   2.259
 5390SOL    HW233313   0.482   5.397   2.387
 5391SOL     OW33314   4.477   0.445   0.839
 5391SOL    HW133315   4.533   0.503   0.787
 5391SOL    HW233316   4.397   0.437   0.788
 5392SOL     OW33317   5.562   3.427   1.293
 5392SOL    HW133318   5.529   3.488   1.227
 5392SOL    HW233319   5.530   3.463   1.376
 5393SOL     OW33320   6.056   3.346   2.351
 5393SOL    HW133321   6.115   3.327   2.278
 5393SOL    HW233322   6.030   3.259   2.384
 5394SOL     OW33323   0.848   1.513   0.753
 5394SOL    HW133324   0.906   1.480   0.684
 5394SOL    HW233325   0.834   1.605   0.731
 5395SOL     OW33326   4.421   1.312   2.142
 5395SOL    HW133327   4.339   1.281   2.106
 5395SOL    HW233328   4.441   1.391   2.093
 5396SOL     OW33329   1.120   1.559   6.244
 5396SOL    HW133330   1.074   1.535   6.324
 5396SOL    HW233331   1.118   1.479   6.191
 5397SOL     OW33332   2.446   3.409   6.990
 5397SOL    HW133333   2.392   3.340   7.029
 5397SOL    HW233334   2.523   3.414   7.046
 5398SOL     OW33335   4.211   3.712   5.509
 5398SOL    HW133336   4.250   3.637   5.465
 5398SOL    HW233337   4.144   3.674   5.566
 5399SOL     OW33338   2.061   3.762   7.244
 5399SOL    HW133339   2.113   3.807   7.311
 5399SOL    HW233340   2.126   3.735   7.178
 5400SOL     OW33341   3.632   3.389   7.114
 5400SOL    HW133342   3.696   3.445   7.070
 5400SOL    HW233343   3.550   3.405   7.067
 5401SOL     OW33344   4.781   2.325   6.638
 5401SOL    HW133345   4.825   2.360   6.715
 5401SOL    HW233346   4.851   2.303   6.577
 5402SOL     OW33347   6.181   0.799   0.475
 5402SOL    HW133348   6.104   0.765   0.429
 5402SOL    HW233349   6.170   0.768   0.565
 5403SOL     OW33350   4.695   4.917   0.172
 5403SOL    HW133351   4.644   4.983   0.218
 5403SOL    HW233352   4.658   4.915   0.083
 5404SOL     OW33353   2.381   4.099   6.922
 5404SOL    HW133354   2.476   4.106   6.915
 5404SOL    HW233355   2.351   4.187   6.947
 5405SOL     OW33356   2.860   3.421   7.685
 5405SOL    HW133357   2.929   3.477   7.721
 5405SOL    HW233358   2.797   3.411   7.757
 5406SOL     OW33359   4.780   2.355   7.598
 5406SOL    HW133360   4.778   2.298   7.521
 5406SOL    HW233361   4.690   2.389   7.604
 5407SOL     OW33362   5.876   1.814   0.607
 5407SOL    HW133363   5.850   1.726   0.580
 5407SOL    HW233364   5.793   1.859   0.622
 5408SOL     OW33365   0.103   3.687   1.462
 5408SOL    HW133366   0.164   3.710   1.392
 5408SOL    HW233367   0.149   3.709   1.542
 5409SOL     OW33368   6.060   5.420   6.976
 5409SOL    HW133369   6.132   5.439   6.916
 5409SOL    HW233370   6.098   5.428   7.063
 5410SOL     OW33371   1.856   1.330   7.160
 5410SOL    HW133372   1.873   1.317   7.253
 5410SOL    HW233373   1.933   1.377   7.128
 5411SOL     OW33374   2.029   4.424   1.519
 5411SOL    HW133375   2.087   4.492   1.484
 5411SOL    HW233376   2.087   4.366   1.567
 5412SOL     OW33377   2.131   2.994   0.572
 5412SOL    HW133378   2.186   3.062   0.532
 5412SOL    HW233379   2.090   2.950   0.499
 5413SOL     OW33380   6.236   3.835   1.166
 5413SOL    HW133381   6.220   3.847   1.259
 5413SOL    HW233382   6.329   3.812   1.160
 5414SOL     OW33383   2.569   2.124   6.240
 5414SOL    HW133384   2.659   2.134   6.269
 5414SOL    HW233385   2.519   2.187   6.293
 5415SOL     OW33386   5.431   5.627   5.787
 5415SOL    HW133387   5.480   5.700   5.825
 5415SOL    HW233388   5.428   5.561   5.856
 5416SOL     OW33389   2.858   5.671   5.558
 5416SOL    HW133390   2.882   5.588   5.599
 5416SOL    HW233391   2.941   5.711   5.535
 5417SOL     OW33392   0.006   5.211   6.054
 5417SOL    HW133393   0.093   5.238   6.023
 5417SOL    HW233394   0.004   5.116   6.040
 5418SOL     OW33395   3.119   5.804   1.686
 5418SOL    HW133396   3.079   5.718   1.679
 5418SOL    HW233397   3.187   5.794   1.753
 5419SOL     OW33398   5.099   3.948   0.197
 5419SOL    HW133399   5.080   3.869   0.146
 5419SOL    HW233400   5.142   4.007   0.135
 5420SOL     OW33401   3.571   5.039   1.073
 5420SOL    HW133402   3.555   5.069   0.983
 5420SOL    HW233403   3.559   4.944   1.069
 5421SOL     OW33404   2.896   1.953   1.008
 5421SOL    HW133405   2.809   1.922   0.984
 5421SOL    HW233406   2.891   2.048   0.997
 5422SOL     OW33407   1.934   1.522   6.319
 5422SOL    HW133408   2.000   1.574   6.365
 5422SOL    HW233409   1.916   1.573   6.240
 5423SOL     OW33410   3.735   3.662   0.353
 5423SOL    HW133411   3.779   3.716   0.418
 5423SOL    HW233412   3.756   3.704   0.269
 5424SOL     OW33413   1.002   3.819   1.752
 5424SOL    HW133414   0.933   3.823   1.819
 5424SOL    HW233415   0.984   3.738   1.704
 5425SOL     OW33416   0.550   5.031   0.692
 5425SOL    HW133417   0.633   4.995   0.661
 5425SOL    HW233418   0.566   5.125   0.701
 5426SOL     OW33419   0.955   2.366   7.092
 5426SOL    HW133420   0.900   2.441   7.115
 5426SOL    HW233421   0.964   2.318   7.174
 5427SOL     OW33422   4.024   1.719   6.429
 5427SOL    HW133423   4.016   1.800   6.379
 5427SOL    HW233424   4.110   1.684   6.407
 5428SOL     OW33425   6.468   0.483   6.150
 5428SOL    HW133426   6.406   0.435   6.206
 5428SOL    HW233427   6.420   0.561   6.124
 5429SOL     OW33428   5.343   1.636   1.680
 5429SOL    HW133429   5.408   1.624   1.611
 5429SOL    HW233430   5.341   1.552   1.726
 5430SOL     OW33431   3.714   1.107   6.746
 5430SOL    HW133432   3.796   1.060   6.760
 5430SOL    HW233433   3.696   1.097   6.653
 5431SOL     OW33434   0.985   6.066   1.639
 5431SOL    HW133435   0.927   6.012   1.693
 5431SOL    HW233436   1.013   6.137   1.697
 5432SOL     OW33437   0.701   3.183   1.627
 5432SOL    HW133438   0.606   3.174   1.638
 5432SOL    HW233439   0.718   3.276   1.641
 5433SOL     OW33440   4.850   5.508   7.504
 5433SOL    HW133441   4.896   5.533   7.584
 5433SOL    HW233442   4.808   5.588   7.473
 5434SOL     OW33443   4.866   1.183   7.151
 5434SOL    HW133444   4.889   1.170   7.059
 5434SOL    HW233445   4.794   1.122   7.167
 5435SOL     OW33446   4.224   1.771   6.885
 5435SOL    HW133447   4.182   1.718   6.818
 5435SOL    HW233448   4.305   1.801   6.844
 5436SOL     OW33449   2.639   2.039   1.860
 5436SOL    HW133450   2.683   2.052   1.944
 5436SOL    HW233451   2.707   2.008   1.801
 5437SOL     OW33452   0.436   5.479   0.927
 5437SOL    HW133453   0.380   5.533   0.871
 5437SOL    HW233454   0.473   5.541   0.990
 5438SOL     OW33455   5.369   0.822   6.703
 5438SOL    HW133456   5.364   0.756   6.634
 5438SOL    HW233457   5.461   0.820   6.730
 5439SOL     OW33458   0.918   3.640   6.959
 5439SOL    HW133459   1.000   3.646   7.009
 5439SOL    HW233460   0.889   3.550   6.972
 5440SOL     OW33461   5.358   5.344   7.713
 5440SOL    HW133462   5.329   5.434   7.724
 5440SOL    HW233463   5.450   5.351   7.687
 5441SOL     OW33464   5.103   4.946   1.338
 5441SOL    HW133465   5.077   4.994   1.416
 5441SOL    HW233466   5.063   4.994   1.265
 5442SOL     OW33467   5.628   0.361   0.413
 5442SOL    HW133468   5.621   0.326   0.502
 5442SOL    HW233469   5.610   0.285   0.357
 5443SOL     OW33470   5.924   1.814   6.350
 5443SOL    HW133471   5.968   1.880   6.404
 5443SOL    HW233472   5.995   1.769   6.305
 5444SOL     OW33473   4.545   3.543   7.506
 5444SOL    HW133474   4.522   3.617   7.562
 5444SOL    HW233475   4.541   3.466   7.563
 5445SOL     OW33476   1.941   3.626   1.390
 5445SOL    HW133477   1.917   3.540   1.426
 5445SOL    HW233478   1.862   3.679   1.402
 5446SOL     OW33479   4.804   0.279   6.505
 5446SOL    HW133480   4.836   0.345   6.568
 5446SOL    HW233481   4.797   0.327   6.422
 5447SOL     OW33482   1.439   6.046   7.304
 5447SOL    HW133483   1.482   6.131   7.316
 5447SOL    HW233484   1.369   6.063   7.241
 5448SOL     OW33485   1.111   1.129   1.749
 5448SOL    HW133486   1.070   1.061   1.803
 5448SOL    HW233487   1.131   1.085   1.666
 5449SOL     OW33488   1.635   1.568   0.676
 5449SOL    HW133489   1.559   1.605   0.720
 5449SOL    HW233490   1.620   1.473   0.677
 5450SOL     OW33491   3.448   4.168   2.371
 5450SOL    HW133492   3.431   4.145   2.280
 5450SOL    HW233493   3.542   4.187   2.374
 5451SOL     OW33494   2.409   3.602   1.359
 5451SOL    HW133495   2.412   3.665   1.287
 5451SOL    HW233496   2.353   3.644   1.425
 5452SOL     OW33497   3.090   3.750   2.024
 5452SOL    HW133498   3.047   3.690   2.085
 5452SOL    HW233499   3.154   3.695   1.978
 5453SOL     OW33500   0.190   5.691   5.559
 5453SOL    HW133501   0.183   5.712   5.652
 5453SOL    HW233502   0.122   5.743   5.517
 5454SOL     OW33503   2.306   0.775   6.235
 5454SOL    HW133504   2.242   0.709   6.212
 5454SOL    HW233505   2.384   0.753   6.184
 5455SOL     OW33506   4.136   4.846   7.683
 5455SOL    HW133507   4.170   4.807   7.763
 5455SOL    HW233508   4.042   4.854   7.698
 5456SOL     OW33509   5.760   4.306   6.990
 5456SOL    HW133510   5.699   4.274   6.923
 5456SOL    HW233511   5.845   4.269   6.964
 5457SOL     OW33512   2.133   1.033   1.859
 5457SOL    HW133513   2.180   0.978   1.922
 5457SOL    HW233514   2.148   1.122   1.890
 5458SOL     OW33515   0.642   4.046   0.172
 5458SOL    HW133516   0.568   3.986   0.163
 5458SOL    HW233517   0.698   4.026   0.097
 5459SOL     OW33518   6.165   5.898   0.642
 5459SOL    HW133519   6.212   5.845   0.707
 5459SOL    HW233520   6.213   5.883   0.561
 5460SOL     OW33521   0.955   0.154   0.111
 5460SOL    HW133522   0.922   0.219   0.173
 5460SOL    HW233523   0.907   0.074   0.133
 5461SOL     OW33524   6.414   2.819   5.846
 5461SOL    HW133525   0.006   2.871   5.830
 5461SOL    HW233526   6.441   2.729   5.828
 5462SOL     OW33527   0.950   1.782   0.646
 5462SOL    HW133528   0.981   1.765   0.557
 5462SOL    HW233529   1.012   1.846   0.681
 5463SOL     OW33530   2.245   5.430   0.533
 5463SOL    HW133531   2.192   5.364   0.579
 5463SOL    HW233532   2.214   5.426   0.443
 5464SOL     OW33533   6.065   0.723   6.885
 5464SOL    HW133534   6.081   0.816   6.868
 5464SOL    HW233535   6.107   0.679   6.811
 5465SOL     OW33536   3.783   4.698   7.765
 5465SOL    HW133537   3.695   4.735   7.772
 5465SOL    HW233538   3.794   4.681   7.671
 5466SOL     OW33539   3.568   4.452   0.564
 5466SOL    HW133540   3.489   4.398   0.558
 5466SOL    HW233541   3.596   4.465   0.473
 5467SOL     OW33542   2.486   3.090   0.675
 5467SOL    HW133543   2.558   3.128   0.726
 5467SOL    HW233544   2.409   3.101   0.731
 5468SOL     OW33545   2.241   6.410   0.445
 5468SOL    HW133546   2.311   6.457   0.399
 5468SOL    HW233547   2.287   6.361   0.514
 5469SOL     OW33548   2.213   1.642   1.741
 5469SOL    HW133549   2.205   1.573   1.806
 5469SOL    HW233550   2.249   1.717   1.789
 5470SOL     OW33551   6.459   2.826   6.946
 5470SOL    HW133552   0.046   2.780   6.987
 5470SOL    HW233553   6.381   2.781   6.979
 5471SOL     OW33554   6.121   5.346   1.445
 5471SOL    HW133555   6.160   5.259   1.455
 5471SOL    HW233556   6.086   5.367   1.531
 5472SOL     OW33557   0.937   1.486   5.639
 5472SOL    HW133558   0.998   1.557   5.656
 5472SOL    HW233559   0.962   1.418   5.701
 5473SOL     OW33560   2.578   4.694   0.434
 5473SOL    HW133561   2.499   4.738   0.466
 5473SOL    HW233562   2.587   4.617   0.489
 5474SOL     OW33563   3.311   0.287   0.908
 5474SOL    HW133564   3.361   0.216   0.868
 5474SOL    HW233565   3.355   0.303   0.991
 5475SOL     OW33566   4.207   2.877   7.734
 5475SOL    HW133567   4.152   2.798   7.740
 5475SOL    HW233568   4.144   2.949   7.734
 5476SOL     OW33569   2.474   0.345   0.816
 5476SOL    HW133570   2.564   0.313   0.817
 5476SOL    HW233571   2.437   0.316   0.899
 5477SOL     OW33572   0.958   0.878   0.718
 5477SOL    HW133573   0.897   0.945   0.750
 5477SOL    HW233574   0.935   0.799   0.767
 5478SOL     OW33575   5.515   5.164   6.544
 5478SOL    HW133576   5.552   5.078   6.567
 5478SOL    HW233577   5.527   5.216   6.623
 5479SOL     OW33578   1.284   4.358   6.496
 5479SOL    HW133579   1.210   4.299   6.500
 5479SOL    HW233580   1.273   4.417   6.571
 5480SOL     OW33581   5.350   1.287   0.389
 5480SOL    HW133582   5.437   1.322   0.410
 5480SOL    HW233583   5.359   1.193   0.402
 5481SOL     OW33584   4.935   4.180   0.383
 5481SOL    HW133585   4.943   4.098   0.433
 5481SOL    HW233586   4.857   4.168   0.330
 5482SOL     OW33587   5.794   0.621   6.734
 5482SOL    HW133588   5.740   0.691   6.770
 5482SOL    HW233589   5.732   0.566   6.685
 5483SOL     OW33590   1.936   4.320   7.571
 5483SOL    HW133591   1.864   4.366   7.528
 5483SOL    HW233592   2.005   4.386   7.578
 5484SOL     OW33593   2.394   2.851   5.622
 5484SOL    HW133594   2.373   2.827   5.531
 5484SOL    HW233595   2.437   2.774   5.658
 5485SOL     OW33596   5.378   4.962   5.980
 5485SOL    HW133597   5.326   5.042   5.985
 5485SOL    HW233598   5.360   4.916   6.061
 5486SOL     OW33599   2.558   3.204   1.384
 5486SOL    HW133600   2.542   3.124   1.434
 5486SOL    HW233601   2.652   3.203   1.366
 5487SOL     OW33602   2.773   0.547   0.830
 5487SOL    HW133603   2.701   0.591   0.785
 5487SOL    HW233604   2.852   0.590   0.799
 5488SOL     OW33605   5.389   0.909   7.205
 5488SOL    HW133606   5.481   0.938   7.201
 5488SOL    HW233607   5.384   0.860   7.287
 5489SOL     OW33608   5.595   2.404   0.309
 5489SOL    HW133609   5.637   2.323   0.279
 5489SOL    HW233610   5.548   2.437   0.232
 5490SOL     OW33611   0.774   4.208   7.317
 5490SOL    HW133612   0.736   4.120   7.313
 5490SOL    HW233613   0.704   4.267   7.290
 5491SOL     OW33614   5.536   4.454   7.134
 5491SOL    HW133615   5.527   4.451   7.039
 5491SOL    HW233616   5.489   4.533   7.160
 5492SOL     OW33617   4.282   4.743   1.761
 5492SOL    HW133618   4.364   4.791   1.749
 5492SOL    HW233619   4.309   4.657   1.794
 5493SOL     OW33620   3.482   0.691   7.197
 5493SOL    HW133621   3.471   0.596   7.194
 5493SOL    HW233622   3.437   0.718   7.277
 5494SOL     OW33623   2.047   1.940   0.350
 5494SOL    HW133624   2.132   1.910   0.382
 5494SOL    HW233625   2.056   1.939   0.254
 5495SOL     OW33626   4.130   1.966   1.511
 5495SOL    HW133627   4.178   1.977   1.593
 5495SOL    HW233628   4.171   1.890   1.469
 5496SOL     OW33629   1.743   2.652   0.853
 5496SOL    HW133630   1.822   2.700   0.827
 5496SOL    HW233631   1.765   2.612   0.937
 5497SOL     OW33632   3.917   2.764   5.579
 5497SOL    HW133633   3.895   2.854   5.556
 5497SOL    HW233634   3.961   2.772   5.663
 5498SOL     OW33635   4.050   3.079   6.955
 5498SOL    HW133636   3.983   3.021   6.993
 5498SOL    HW233637   4.013   3.167   6.965
 5499SOL     OW33638   3.835   1.976   1.316
 5499SOL    HW133639   3.898   2.047   1.323
 5499SOL    HW233640   3.854   1.934   1.232
 5500SOL     OW33641   0.352   5.397   7.245
 5500SOL    HW133642   0.395   5.451   7.178
 5500SOL    HW233643   0.311   5.460   7.304
 5501SOL     OW33644   1.480   4.686   6.169
 5501SOL    HW133645   1.422   4.637   6.110
 5501SOL    HW233646   1.439   4.676   6.255
 5502SOL     OW33647   6.163   4.888   6.452
 5502SOL    HW133648   6.130   4.809   6.410
 5502SOL    HW233649   6.085   4.935   6.481
 5503SOL     OW33650   0.376   6.125   7.597
 5503SOL    HW133651   0.462   6.168   7.600
 5503SOL    HW233652   0.370   6.091   7.508
 5504SOL     OW33653   4.656   3.649   7.185
 5504SOL    HW133654   4.639   3.612   7.271
 5504SOL    HW233655   4.569   3.660   7.147
 5505SOL     OW33656   3.631   5.616   7.431
 5505SOL    HW133657   3.640   5.697   7.481
 5505SOL    HW233658   3.623   5.548   7.497
 5506SOL     OW33659   5.228   2.335   0.129
 5506SOL    HW133660   5.274   2.254   0.105
 5506SOL    HW233661   5.296   2.390   0.168
 5507SOL     OW33662   2.528   1.317   6.345
 5507SOL    HW133663   2.539   1.410   6.324
 5507SOL    HW233664   2.446   1.312   6.393
 5508SOL     OW33665   0.199   1.198   0.279
 5508SOL    HW133666   0.276   1.204   0.336
 5508SOL    HW233667   0.215   1.119   0.228
 5509SOL     OW33668   1.936   3.914   0.487
 5509SOL    HW133669   1.917   3.947   0.575
 5509SOL    HW233670   2.003   3.974   0.453
 5510SOL     OW33671   5.243   6.344   6.107
 5510SOL    HW133672   5.242   6.349   6.012
 5510SOL    HW233673   5.188   6.417   6.136
 5511SOL     OW33674   4.452   1.255   6.919
 5511SOL    HW133675   4.498   1.336   6.942
 5511SOL    HW233676   4.479   1.237   6.829
 5512SOL     OW33677   5.048   2.180   0.301
 5512SOL    HW133678   5.092   2.240   0.362
 5512SOL    HW233679   5.009   2.237   0.235
 5513SOL     OW33680   0.641   1.716   6.852
 5513SOL    HW133681   0.715   1.705   6.911
 5513SOL    HW233682   0.567   1.678   6.899
 5514SOL     OW33683   0.929   3.956   0.589
 5514SOL    HW133684   0.849   3.954   0.536
 5514SOL    HW233685   0.898   3.956   0.679
 5515SOL     OW33686   0.871   0.325   0.856
 5515SOL    HW133687   0.864   0.362   0.768
 5515SOL    HW233688   0.800   0.261   0.861
 5516SOL     OW33689   4.903   5.493   2.299
 5516SOL    HW133690   4.873   5.443   2.223
 5516SOL    HW233691   4.918   5.426   2.367
 5517SOL     OW33692   4.654   6.475   1.896
 5517SOL    HW133693   4.629   6.392   1.856
 5517SOL    HW233694   4.571   0.034   1.912
 5518SOL     OW33695   5.297   2.404   5.831
 5518SOL    HW133696   5.267   2.382   5.743
 5518SOL    HW233697   5.289   2.323   5.881
 5519SOL     OW33698   2.914   4.204   6.191
 5519SOL    HW133699   2.937   4.118   6.226
 5519SOL    HW233700   2.998   4.244   6.169
 5520SOL     OW33701   1.738   0.044   6.630
 5520SOL    HW133702   1.811   0.021   6.572
 5520SOL    HW233703   1.779   0.057   6.716
 5521SOL     OW33704   0.395   5.334   0.614
 5521SOL    HW133705   0.419   5.292   0.532
 5521SOL    HW233706   0.475   5.332   0.667
 5522SOL     OW33707   0.654   0.161   7.551
 5522SOL    HW133708   0.727   0.191   7.605
 5522SOL    HW233709   0.643   0.230   7.485
 5523SOL     OW33710   0.522   1.586   1.804
 5523SOL    HW133711   0.551   1.557   1.717
 5523SOL    HW233712   0.596   1.566   1.862
 5524SOL     OW33713   0.288   1.009   6.438
 5524SOL    HW133714   0.205   0.987   6.396
 5524SOL    HW233715   0.327   0.925   6.460
 5525SOL     OW33716   2.080   3.390   0.130
 5525SOL    HW133717   2.095   3.460   0.066
 5525SOL    HW233718   2.007   3.340   0.094
 5526SOL     OW33719   4.630   1.444   7.030
 5526SOL    HW133720   4.650   1.529   7.070
 5526SOL    HW233721   4.652   1.381   7.099
 5527SOL     OW33722   1.190   3.093   1.708
 5527SOL    HW133723   1.139   3.113   1.786
 5527SOL    HW233724   1.130   3.045   1.651
 5528SOL     OW33725   0.723   5.186   7.742
 5528SOL    HW133726   0.813   5.204   7.769
 5528SOL    HW233727   0.708   5.243   7.667
 5529SOL     OW33728   3.050   4.009   2.126
 5529SOL    HW133729   3.045   3.954   2.204
 5529SOL    HW233730   3.021   3.952   2.054
 5530SOL     OW33731   5.050   5.414   0.076
 5530SOL    HW133732   5.135   5.381   0.104
 5530SOL    HW233733   5.038   5.495   0.126
 5531SOL     OW33734   0.720   4.237   0.943
 5531SOL    HW133735   0.774   4.181   0.889
 5531SOL    HW233736   0.633   4.197   0.941
 5532SOL     OW33737   6.449   5.091   6.478
 5532SOL    HW133738   0.007   5.169   6.444
 5532SOL    HW233739   6.406   5.053   6.401
 5533SOL     OW33740   4.257   4.499   7.551
 5533SOL    HW133741   4.312   4.548   7.612
 5533SOL    HW233742   4.294   4.411   7.549
 5534SOL     OW33743   0.142   0.968   1.290
 5534SOL    HW133744   0.089   1.046   1.271
 5534SOL    HW233745   0.079   0.905   1.326
 5535SOL     OW33746   1.159   5.475   7.262
 5535SOL    HW133747   1.174   5.384   7.236
 5535SOL    HW233748   1.192   5.480   7.352
 5536SOL     OW33749   3.368   4.510   5.008
 5536SOL    HW133750   3.433   4.581   5.016
 5536SOL    HW233751   3.405   4.452   4.942
 5537SOL     OW33752   4.855   0.788   6.399
 5537SOL    HW133753   4.841   0.741   6.317
 5537SOL    HW233754   4.948   0.775   6.419
 5538SOL     OW33755   2.512   0.663   6.131
 5538SOL    HW133756   2.486   0.590   6.076
 5538SOL    HW233757   2.572   0.715   6.077
 5539SOL     OW33758   5.403   3.914   5.773
 5539SOL    HW133759   5.343   3.907   5.699
 5539SOL    HW233760   5.361   3.865   5.843
 5540SOL     OW33761   5.088   2.041   6.707
 5540SOL    HW133762   5.003   2.051   6.750
 5540SOL    HW233763   5.124   2.130   6.705
 5541SOL     OW33764   0.869   6.145   6.865
 5541SOL    HW133765   0.962   6.121   6.867
 5541SOL    HW233766   0.853   6.172   6.775
 5542SOL     OW33767   1.290   3.049   0.255
 5542SOL    HW133768   1.252   3.090   0.333
 5542SOL    HW233769   1.377   3.088   0.247
 5543SOL     OW33770   6.086   3.731   1.931
 5543SOL    HW133771   6.143   3.690   1.865
 5543SOL    HW233772   5.998   3.712   1.900
 5544SOL     OW33773   6.106   0.962   7.606
 5544SOL    HW133774   6.073   0.974   7.694
 5544SOL    HW233775   6.169   0.890   7.613
 5545SOL     OW33776   2.505   2.567   1.060
 5545SOL    HW133777   2.524   2.546   1.151
 5545SOL    HW233778   2.591   2.578   1.019
 5546SOL     OW33779   2.030   6.209   7.678
 5546SOL    HW133780   1.973   6.279   7.711
 5546SOL    HW233781   2.060   6.164   7.757
 5547SOL     OW33782   5.621   2.494   6.393
 5547SOL    HW133783   5.686   2.537   6.336
 5547SOL    HW233784   5.673   2.459   6.465
 5548SOL     OW33785   5.456   2.146   1.265
 5548SOL    HW133786   5.502   2.126   1.347
 5548SOL    HW233787   5.525   2.176   1.206
 5549SOL     OW33788   3.163   6.233   7.136
 5549SOL    HW133789   3.133   6.323   7.125
 5549SOL    HW233790   3.217   6.216   7.058
 5550SOL     OW33791   5.334   3.800   1.789
 5550SOL    HW133792   5.321   3.817   1.882
 5550SOL    HW233793   5.245   3.792   1.754
 5551SOL     OW33794   1.951   6.469   6.170
 5551SOL    HW133795   1.935   6.392   6.115
 5551SOL    HW233796   2.001   0.042   6.114
 5552SOL     OW33797   3.167   3.801   7.416
 5552SOL    HW133798   3.193   3.803   7.324
 5552SOL    HW233799   3.083   3.756   7.417
 5553SOL     OW33800   5.580   5.657   6.097
 5553SOL    HW133801   5.584   5.721   6.026
 5553SOL    HW233802   5.532   5.583   6.060
 5554SOL     OW33803   3.920   3.108   5.920
 5554SOL    HW133804   3.985   3.147   5.978
 5554SOL    HW233805   3.971   3.055   5.859
 5555SOL     OW33806   0.191   1.494   7.436
 5555SOL    HW133807   0.180   1.449   7.352
 5555SOL    HW233808   0.115   1.468   7.488
 5556SOL     OW33809   4.517   0.108   0.789
 5556SOL    HW133810   4.552   0.194   0.765
 5556SOL    HW233811   4.594   0.057   0.813
 5557SOL     OW33812   3.248   4.965   0.386
 5557SOL    HW133813   3.195   5.039   0.356
 5557SOL    HW233814   3.187   4.892   0.390
 5558SOL     OW33815   2.090   2.772   7.450
 5558SOL    HW133816   2.164   2.792   7.392
 5558SOL    HW233817   2.108   2.683   7.480
 5559SOL     OW33818   5.611   6.101   7.356
 5559SOL    HW133819   5.552   6.049   7.300
 5559SOL    HW233820   5.552   6.159   7.404
 5560SOL     OW33821   5.692   4.179   6.754
 5560SOL    HW133822   5.694   4.090   6.719
 5560SOL    HW233823   5.703   4.236   6.678
 5561SOL     OW33824   3.682   5.878   0.360
 5561SOL    HW133825   3.687   5.817   0.286
 5561SOL    HW233826   3.746   5.844   0.423
 5562SOL     OW33827   5.912   4.869   6.607
 5562SOL    HW133828   5.820   4.875   6.630
 5562SOL    HW233829   5.957   4.848   6.689
 5563SOL     OW33830   4.926   1.991   0.583
 5563SOL    HW133831   4.868   2.058   0.620
 5563SOL    HW233832   5.000   2.041   0.548
 5564SOL     OW33833   1.050   1.315   1.226
 5564SOL    HW133834   1.049   1.410   1.210
 5564SOL    HW233835   1.100   1.305   1.307
 5565SOL     OW33836   4.068   5.799   6.138
 5565SOL    HW133837   4.143   5.815   6.195
 5565SOL    HW233838   4.045   5.886   6.104
 5566SOL     OW33839   6.246   4.098   6.201
 5566SOL    HW133840   6.266   4.118   6.109
 5566SOL    HW233841   6.151   4.104   6.207
 5567SOL     OW33842   5.270   5.154   7.381
 5567SOL    HW133843   5.294   5.162   7.474
 5567SOL    HW233844   5.251   5.061   7.369
 5568SOL     OW33845   1.733   4.311   1.235
 5568SOL    HW133846   1.786   4.233   1.254
 5568SOL    HW233847   1.711   4.346   1.321
 5569SOL     OW33848   4.801   4.338   1.212
 5569SOL    HW133849   4.729   4.300   1.263
 5569SOL    HW233850   4.758   4.394   1.148
 5570SOL     OW33851   0.077   0.138   0.096
 5570SOL    HW133852   0.104   0.080   0.167
 5570SOL    HW233853   0.139   0.120   0.026
 5571SOL     OW33854   5.644   0.197   0.173
 5571SOL    HW133855   5.623   0.264   0.108
 5571SOL    HW233856   5.735   0.216   0.197
 5572SOL     OW33857   4.493   4.752   0.843
 5572SOL    HW133858   4.398   4.736   0.844
 5572SOL    HW233859   4.522   4.715   0.760
 5573SOL     OW33860   6.224   1.820   7.047
 5573SOL    HW133861   6.186   1.828   6.960
 5573SOL    HW233862   6.216   1.728   7.069
 5574SOL     OW33863   3.167   6.144   6.097
 5574SOL    HW133864   3.246   6.164   6.147
 5574SOL    HW233865   3.102   6.209   6.128
 5575SOL     OW33866   0.163   4.446   6.840
 5575SOL    HW133867   0.078   4.476   6.807
 5575SOL    HW233868   0.215   4.526   6.845
 5576SOL     OW33869   5.116   0.720   7.223
 5576SOL    HW133870   5.066   0.642   7.248
 5576SOL    HW233871   5.190   0.722   7.284
 5577SOL     OW33872   2.001   5.490   7.289
 5577SOL    HW133873   1.949   5.499   7.209
 5577SOL    HW233874   2.051   5.410   7.276
 5578SOL     OW33875   6.309   1.709   0.645
 5578SOL    HW133876   6.258   1.727   0.724
 5578SOL    HW233877   6.383   1.658   0.676
 5579SOL     OW33878   0.340   1.991   1.480
 5579SOL    HW133879   0.300   1.914   1.439
 5579SOL    HW233880   0.400   1.955   1.545
 5580SOL     OW33881   4.713   2.779   1.277
 5580SOL    HW133882   4.651   2.810   1.343
 5580SOL    HW233883   4.756   2.703   1.318
 5581SOL     OW33884   2.211   1.659   7.652
 5581SOL    HW133885   2.189   1.598   7.722
 5581SOL    HW233886   2.155   1.633   7.579
 5582SOL     OW33887   4.208   5.766   6.912
 5582SOL    HW133888   4.199   5.789   7.004
 5582SOL    HW233889   4.286   5.812   6.882
 5583SOL     OW33890   1.387   2.823   1.527
 5583SOL    HW133891   1.419   2.733   1.514
 5583SOL    HW233892   1.458   2.879   1.497
 5584SOL     OW33893   3.393   2.594   7.467
 5584SOL    HW133894   3.408   2.671   7.521
 5584SOL    HW233895   3.364   2.629   7.383
 5585SOL     OW33896   1.604   2.684   6.701
 5585SOL    HW133897   1.616   2.771   6.740
 5585SOL    HW233898   1.692   2.646   6.698
 5586SOL     OW33899   0.347   2.744   0.198
 5586SOL    HW133900   0.354   2.788   0.283
 5586SOL    HW233901   0.288   2.799   0.147
 5587SOL     OW33902   0.292   3.706   1.258
 5587SOL    HW133903   0.301   3.617   1.224
 5587SOL    HW233904   0.382   3.735   1.272
 5588SOL     OW33905   1.624   1.152   7.203
 5588SOL    HW133906   1.708   1.191   7.180
 5588SOL    HW233907   1.629   1.063   7.167
 5589SOL     OW33908   1.638   1.681   5.512
 5589SOL    HW133909   1.599   1.768   5.521
 5589SOL    HW233910   1.733   1.697   5.520
 5590SOL     OW33911   2.230   4.291   0.937
 5590SOL    HW133912   2.237   4.316   1.030
 5590SOL    HW233913   2.320   4.293   0.905
 5591SOL     OW33914   5.079   1.149   0.060
 5591SOL    HW133915   5.154   1.155   0.119
 5591SOL    HW233916   5.006   1.123   0.116
 5592SOL     OW33917   2.360   4.394   5.930
 5592SOL    HW133918   2.359   4.298   5.922
 5592SOL    HW233919   2.453   4.415   5.941
 5593SOL     OW33920   0.648   5.615   6.584
 5593SOL    HW133921   0.697   5.641   6.661
 5593SOL    HW233922   0.691   5.660   6.511
 5594SOL     OW33923   4.697   2.450   0.405
 5594SOL    HW133924   4.708   2.531   0.454
 5594SOL    HW233925   4.631   2.469   0.339
 5595SOL     OW33926   4.898   4.837   7.401
 5595SOL    HW133927   4.873   4.783   7.476
 5595SOL    HW233928   4.848   4.801   7.328
 5596SOL     OW33929   0.113   0.439   7.756
 5596SOL    HW133930   0.129   0.358   0.029
 5596SOL    HW233931   0.021   0.434   7.731
 5597SOL     OW33932   5.647   3.030   6.940
 5597SOL    HW133933   5.590   3.073   7.004
 5597SOL    HW233934   5.593   2.959   6.904
 5598SOL     OW33935   1.127   4.847   7.719
 5598SOL    HW133936   1.072   4.866   7.643
 5598SOL    HW233937   1.077   4.782   7.768
 5599SOL     OW33938   5.507   4.993   0.663
 5599SOL    HW133939   5.563   5.071   0.664
 5599SOL    HW233940   5.460   4.996   0.746
 5600SOL     OW33941   5.497   3.443   6.049
 5600SOL    HW133942   5.426   3.507   6.054
 5600SOL    HW233943   5.452   3.359   6.037
 5601SOL     OW33944   6.383   4.948   6.283
 5601SOL    HW133945   6.297   4.915   6.310
 5601SOL    HW233946   6.380   4.947   6.187
 5602SOL     OW33947   1.104   6.431   6.753
 5602SOL    HW133948   1.134   0.028   6.716
 5602SOL    HW233949   1.009   6.440   6.759
 5603SOL     OW33950   5.877   0.888   0.744
 5603SOL    HW133951   5.855   0.902   0.836
 5603SOL    HW233952   5.793   0.871   0.702
 5604SOL     OW33953   2.096   3.177   7.293
 5604SOL    HW133954   2.062   3.107   7.237
 5604SOL    HW233955   2.018   3.218   7.330
 5605SOL     OW33956   3.939   5.562   7.039
 5605SOL    HW133957   3.949   5.558   7.134
 5605SOL    HW233958   4.021   5.525   7.006
 5606SOL     OW33959   0.378   4.214   7.483
 5606SOL    HW133960   0.431   4.143   7.521
 5606SOL    HW233961   0.359   4.185   7.394
 5607SOL     OW33962   4.232   5.847   1.119
 5607SOL    HW133963   4.178   5.830   1.041
 5607SOL    HW233964   4.237   5.763   1.164
 5608SOL     OW33965   5.384   2.571   1.122
 5608SOL    HW133966   5.313   2.547   1.182
 5608SOL    HW233967   5.366   2.520   1.043
 5609SOL     OW33968   5.823   0.234   7.440
 5609SOL    HW133969   5.910   0.204   7.414
 5609SOL    HW233970   5.792   0.285   7.366
 5610SOL     OW33971   5.416   1.932   6.328
 5610SOL    HW133972   5.507   1.907   6.311
 5610SOL    HW233973   5.410   2.023   6.300
 5611SOL     OW33974   4.890   6.376   6.191
 5611SOL    HW133975   4.929   6.452   6.233
 5611SOL    HW233976   4.928   6.373   6.103
 5612SOL     OW33977   2.823   2.993   0.574
 5612SOL    HW133978   2.855   3.060   0.513
 5612SOL    HW233979   2.731   2.983   0.552
 5613SOL     OW33980   0.974   2.120   0.958
 5613SOL    HW133981   0.885   2.136   0.927
 5613SOL    HW233982   0.988   2.184   1.027
 5614SOL     OW33983   0.148   5.210   1.039
 5614SOL    HW133984   0.233   5.192   1.080
 5614SOL    HW233985   0.160   5.185   0.947
 5615SOL     OW33986   0.113   4.370   7.138
 5615SOL    HW133987   0.054   4.295   7.139
 5615SOL    HW233988   0.081   4.425   7.067
 5616SOL     OW33989   6.442   0.840   7.154
 5616SOL    HW133990   6.463   0.893   7.231
 5616SOL    HW233991   6.393   0.765   7.190
 5617SOL     OW33992   0.835   4.615   1.341
 5617SOL    HW133993   0.862   4.641   1.253
 5617SOL    HW233994   0.851   4.521   1.344
 5618SOL     OW33995   3.670   5.610   6.942
 5618SOL    HW133996   3.752   5.598   6.990
 5618SOL    HW233997   3.612   5.542   6.975
 5619SOL     OW33998   6.411   0.159   7.098
 5619SOL    HW133999   6.368   0.225   7.152
 5619SOL    HW234000   6.474   0.208   7.046
 5620SOL     OW34001   2.889   2.620   1.326
 5620SOL    HW134002   2.890   2.716   1.334
 5620SOL    HW234003   2.914   2.589   1.413
 5621SOL     OW34004   4.449   5.891   6.835
 5621SOL    HW134005   4.539   5.893   6.868
 5621SOL    HW234006   4.417   5.980   6.844
 5622SOL     OW34007   3.710   3.177   0.716
 5622SOL    HW134008   3.805   3.186   0.718
 5622SOL    HW234009   3.678   3.267   0.707
 5623SOL     OW34010   3.080   5.154   1.139
 5623SOL    HW134011   3.105   5.231   1.190
 5623SOL    HW234012   3.109   5.174   1.050
 5624SOL     OW34013   3.313   5.743   6.839
 5624SOL    HW134014   3.248   5.676   6.818
 5624SOL    HW234015   3.331   5.730   6.932
 5625SOL     OW34016   1.055   5.019   5.930
 5625SOL    HW134017   0.964   5.023   5.958
 5625SOL    HW234018   1.082   5.111   5.921
 5626SOL     OW34019   1.732   5.220   0.834
 5626SOL    HW134020   1.686   5.303   0.843
 5626SOL    HW234021   1.825   5.243   0.843
 5627SOL     OW34022   2.228   4.860   1.608
 5627SOL    HW134023   2.319   4.834   1.595
 5627SOL    HW234024   2.188   4.785   1.651
 5628SOL     OW34025   3.100   1.253   7.637
 5628SOL    HW134026   3.123   1.171   7.593
 5628SOL    HW234027   3.171   1.313   7.616
 5629SOL     OW34028   2.281   0.542   0.344
 5629SOL    HW134029   2.217   0.473   0.360
 5629SOL    HW234030   2.259   0.576   0.257
 5630SOL     OW34031   4.914   0.885   0.080
 5630SOL    HW134032   4.873   0.955   0.131
 5630SOL    HW234033   4.843   0.852   0.024
 5631SOL     OW34034   2.065   1.711   1.280
 5631SOL    HW134035   2.098   1.679   1.364
 5631SOL    HW234036   1.997   1.775   1.304
 5632SOL     OW34037   5.066   4.599   1.345
 5632SOL    HW134038   5.073   4.615   1.439
 5632SOL    HW234039   4.984   4.552   1.334
 5633SOL     OW34040   5.321   0.163   0.376
 5633SOL    HW134041   5.232   0.197   0.363
 5633SOL    HW234042   5.354   0.147   0.288
 5634SOL     OW34043   0.807   0.767   1.538
 5634SOL    HW134044   0.796   0.728   1.451
 5634SOL    HW234045   0.900   0.789   1.543
 5635SOL     OW34046   2.332   1.352   1.629
 5635SOL    HW134047   2.424   1.330   1.638
 5635SOL    HW234048   2.289   1.305   1.701
 5636SOL     OW34049   0.623   2.847   7.702
 5636SOL    HW134050   0.682   2.771   7.701
 5636SOL    HW234051   0.594   2.855   7.612
 5637SOL     OW34052   5.811   0.925   0.138
 5637SOL    HW134053   5.776   1.009   0.107
 5637SOL    HW234054   5.816   0.871   0.059
 5638SOL     OW34055   4.682   0.553   1.425
 5638SOL    HW134056   4.678   0.457   1.428
 5638SOL    HW234057   4.632   0.577   1.347
 5639SOL     OW34058   2.339   0.032   1.839
 5639SOL    HW134059   2.276   6.462   1.883
 5639SOL    HW234060   2.343   6.485   1.750
 5640SOL     OW34061   3.371   6.277   7.695
 5640SOL    HW134062   3.420   6.207   7.739
 5640SOL    HW234063   3.345   6.239   7.611
 5641SOL     OW34064   4.775   0.250   0.687
 5641SOL    HW134065   4.767   0.168   0.638
 5641SOL    HW234066   4.778   0.317   0.619
 5642SOL     OW34067   0.615   2.095   7.312
 5642SOL    HW134068   0.665   2.177   7.313
 5642SOL    HW234069   0.528   2.120   7.281
 5643SOL     OW34070   5.709   2.427   1.497
 5643SOL    HW134071   5.623   2.439   1.537
 5643SOL    HW234072   5.698   2.454   1.406
 5644SOL     OW34073   2.879   3.120   6.041
 5644SOL    HW134074   2.890   3.114   5.946
 5644SOL    HW234075   2.871   3.213   6.059
 5645SOL     OW34076   0.588   2.930   1.389
 5645SOL    HW134077   0.651   3.001   1.381
 5645SOL    HW234078   0.554   2.938   1.479
 5646SOL     OW34079   1.732   5.878   1.898
 5646SOL    HW134080   1.723   5.849   1.807
 5646SOL    HW234081   1.807   5.938   1.897
 5647SOL     OW34082   5.656   5.617   0.656
 5647SOL    HW134083   5.695   5.703   0.636
 5647SOL    HW234084   5.731   5.562   0.678
 5648SOL     OW34085   2.833   3.385   5.864
 5648SOL    HW134086   2.801   3.302   5.829
 5648SOL    HW234087   2.914   3.402   5.816
 5649SOL     OW34088   3.117   5.296   2.175
 5649SOL    HW134089   3.149   5.288   2.264
 5649SOL    HW234090   3.196   5.298   2.121
 5650SOL     OW34091   6.241   0.238   1.542
 5650SOL    HW134092   6.261   0.246   1.635
 5650SOL    HW234093   6.303   0.173   1.509
 5651SOL     OW34094   4.502   4.027   0.764
 5651SOL    HW134095   4.538   3.939   0.753
 5651SOL    HW234096   4.407   4.015   0.760
 5652SOL     OW34097   4.344   4.817   6.758
 5652SOL    HW134098   4.305   4.815   6.671
 5652SOL    HW234099   4.438   4.809   6.742
 5653SOL     OW34100   3.914   6.479   1.238
 5653SOL    HW134101   3.913   0.089   1.239
 5653SOL    HW234102   3.827   6.455   1.206
 5654SOL     OW34103   3.558   4.247   6.195
 5654SOL    HW134104   3.521   4.308   6.130
 5654SOL    HW234105   3.652   4.258   6.187
 5655SOL     OW34106   5.240   5.628   6.873
 5655SOL    HW134107   5.186   5.550   6.884
 5655SOL    HW234108   5.308   5.602   6.811
 5656MOL     C134109   3.110   4.937   4.329
 5656MOL     C234110   3.002   5.031   4.363
 5656MOL     N134111   3.151   4.867   4.563
 5656MOL     N234112   2.914   5.008   4.455
 5656MOL     C334113   3.032   4.888   4.628
 5656MOL     C434114   2.905   4.891   4.544
 5656MOL     H134115   2.904   4.799   4.485
 5656MOL     H234116   2.825   4.906   4.617
 5656MOL     C534117   3.277   4.768   4.394
 5656MOL     C634118   3.302   4.745   4.258
 5656MOL     C734119   3.174   4.857   4.424
 5656MOL     C834120   3.236   4.821   4.162
 5656MOL     C934121   3.139   4.917   4.194
 5656MOL     H334122   3.372   4.666   4.234
 5656MOL     H434123   3.079   4.959   4.114
 5656MOL     H534124   3.332   4.709   4.467
 5656MOL     O134125   3.041   4.923   4.745
 5656MOL    C1034126   2.998   5.164   4.300
 5656MOL    C1134127   2.884   5.246   4.296
 5656MOL     N334128   3.119   5.204   4.258
 5656MOL    C1234129   2.899   5.373   4.240
 5656MOL    C1334130   3.134   5.324   4.199
 5656MOL    C1434131   3.026   5.412   4.196
 5656MOL     H634132   2.788   5.203   4.325
 5656MOL     H734133   2.813   5.440   4.237
 5656MOL     H834134   3.233   5.346   4.160
 5656MOL     H934135   3.041   5.507   4.147
 5656MOL    H1034136   3.235   4.851   4.618
 5656MOL    BR134137   3.306   4.817   3.984
 5656MOL     EP34138   3.380   4.814   3.796
   6.48622   6.48622   7.77547
