POPC bilayer and 5FIBZ with EP hydrated t= 5230.00000 step= 115000
34138
    1PA    C116    1   2.940   1.796   3.790
    1PA    H16R    2   2.886   1.701   3.780
    1PA    H16S    3   3.020   1.796   3.716
    1PA    H16T    4   2.868   1.876   3.769
    1PA    C115    5   3.019   1.808   3.921
    1PA    H15R    6   3.068   1.712   3.936
    1PA    H15S    7   3.108   1.872   3.915
    1PA    C114    8   2.930   1.853   4.038
    1PA    H14R    9   3.000   1.879   4.118
    1PA    H14S   10   2.878   1.944   4.010
    1PA    C113   11   2.827   1.744   4.073
    1PA    H13R   12   2.760   1.743   3.987
    1PA    H13S   13   2.875   1.646   4.078
    1PA    C112   14   2.741   1.778   4.195
    1PA    H12R   15   2.805   1.790   4.282
    1PA    H12S   16   2.694   1.874   4.173
    1PA    C111   17   2.638   1.667   4.223
    1PA    H11R   18   2.582   1.648   4.131
    1PA    H11S   19   2.697   1.580   4.252
    1PA    C110   20   2.545   1.716   4.335
    1PA    H10R   21   2.605   1.761   4.415
    1PA    H10S   22   2.484   1.796   4.293
    1PA     C19   23   2.464   1.597   4.389
    1PA     H9R   24   2.398   1.556   4.312
    1PA     H9S   25   2.528   1.518   4.429
    1PA     C18   26   2.384   1.655   4.507
    1PA     H8R   27   2.459   1.691   4.578
    1PA     H8S   28   2.326   1.740   4.472
    1PA     C17   29   2.283   1.559   4.572
    1PA     H7R   30   2.202   1.525   4.507
    1PA     H7S   31   2.340   1.475   4.612
    1PA     C16   32   2.222   1.632   4.692
    1PA     H6R   33   2.179   1.728   4.662
    1PA     H6S   34   2.130   1.581   4.721
    1PA     C15   35   2.308   1.654   4.817
    1PA     H5R   36   2.348   1.557   4.846
    1PA     H5S   37   2.392   1.720   4.795
    1PA     C14   38   2.221   1.706   4.933
    1PA     H4R   39   2.178   1.804   4.907
    1PA     H4S   40   2.133   1.644   4.949
    1PA     C13   41   2.301   1.706   5.064
    1PA     H3R   42   2.334   1.604   5.087
    1PA     H3S   43   2.395   1.762   5.066
    1PA     C12   44   2.212   1.759   5.176
    1PA     H2R   45   2.163   1.848   5.136
    1PA     H2S   46   2.137   1.680   5.187
    2PC     C11   47   2.288   1.793   5.302
    2PC     O12   48   2.308   1.715   5.393
    2PC     O11   49   2.335   1.918   5.285
    2PC      C1   50   2.421   1.965   5.391
    2PC      HR   51   2.434   2.073   5.382
    2PC      HS   52   2.379   1.938   5.488
    2PC      C2   53   2.554   1.890   5.372
    2PC      HX   54   2.537   1.783   5.363
    2PC      C3   55   2.635   1.916   5.499
    2PC      HA   56   2.586   1.865   5.582
    2PC      HB   57   2.739   1.881   5.496
    2PC     O31   58   2.639   2.059   5.514
    2PC     P31   59   2.685   2.127   5.652
    2PC     O32   60   2.828   2.179   5.601
    2PC     C31   61   2.903   2.262   5.691
    2PC     H1A   62   2.866   2.365   5.689
    2PC     H1B   63   2.885   2.231   5.795
    2PC     C32   64   3.053   2.256   5.658
    2PC     H2A   65   3.078   2.268   5.553
    2PC     H2B   66   3.105   2.340   5.705
    2PC     N31   67   3.119   2.128   5.699
    2PC     C33   68   3.263   2.140   5.657
    2PC     H3A   69   3.311   2.231   5.695
    2PC     H3B   70   3.310   2.050   5.695
    2PC     H3C   71   3.276   2.133   5.549
    2PC     C34   72   3.117   2.089   5.843
    2PC     H4A   73   3.016   2.057   5.870
    2PC     H4B   74   3.196   2.014   5.839
    2PC     H4C   75   3.147   2.165   5.916
    2PC     C35   76   3.057   2.011   5.629
    2PC     H5A   77   3.103   1.919   5.666
    2PC     H5B   78   3.086   2.022   5.524
    2PC     H5C   79   2.949   2.009   5.643
    2PC     O33   80   2.582   2.225   5.694
    2PC     O34   81   2.716   2.026   5.755
    2PC     O21   82   2.617   1.950   5.257
    2PC     C21   83   2.738   1.908   5.218
    2PC     O22   84   2.813   1.838   5.283
    3OL     C12   85   2.777   1.958   5.081
    3OL     H2R   86   2.811   2.062   5.088
    3OL     H2S   87   2.690   1.949   5.016
    3OL     C13   88   2.888   1.883   5.007
    3OL     H3R   89   2.947   1.816   5.070
    3OL     H3S   90   2.957   1.958   4.968
    3OL     C14   91   2.833   1.803   4.888
    3OL     H4R   92   2.916   1.762   4.829
    3OL     H4S   93   2.773   1.858   4.815
    3OL     C15   94   2.750   1.686   4.942
    3OL     H5R   95   2.668   1.718   5.006
    3OL     H5S   96   2.818   1.631   5.008
    3OL     C16   97   2.696   1.595   4.831
    3OL     H6R   98   2.738   1.637   4.740
    3OL     H6S   99   2.587   1.603   4.834
    3OL     C17  100   2.749   1.453   4.850
    3OL     H7R  101   2.714   1.409   4.944
    3OL     H7S  102   2.859   1.456   4.850
    3OL     C18  103   2.699   1.361   4.739
    3OL     H8R  104   2.590   1.355   4.735
    3OL     H8S  105   2.737   1.267   4.780
    3OL     C19  106   2.756   1.385   4.601
    3OL     H9R  107   2.779   1.490   4.585
    3OL    C110  108   2.796   1.298   4.509
    3OL    H10R  109   2.834   1.334   4.414
    3OL    C111  110   2.775   1.149   4.523
    3OL    H11R  111   2.714   1.129   4.612
    3OL    H11S  112   2.874   1.103   4.526
    3OL    C112  113   2.710   1.093   4.397
    3OL    H12R  114   2.697   0.985   4.408
    3OL    H12S  115   2.769   1.117   4.308
    3OL    C113  116   2.565   1.138   4.376
    3OL    H13R  117   2.511   1.178   4.462
    3OL    H13S  118   2.503   1.052   4.348
    3OL    C114  119   2.560   1.233   4.256
    3OL    H14R  120   2.605   1.185   4.169
    3OL    H14S  121   2.617   1.320   4.289
    3OL    C115  122   2.420   1.280   4.212
    3OL    H15R  123   2.365   1.328   4.294
    3OL    H15S  124   2.367   1.186   4.195
    3OL    C116  125   2.422   1.375   4.092
    3OL    H16R  126   2.467   1.321   4.008
    3OL    H16S  127   2.490   1.455   4.122
    3OL    C117  128   2.282   1.432   4.065
    3OL    H17R  129   2.249   1.500   4.145
    3OL    H17S  130   2.210   1.351   4.055
    3OL    C118  131   2.291   1.511   3.934
    3OL    H18R  132   2.332   1.448   3.855
    3OL    H18S  133   2.348   1.604   3.943
    3OL    H18T  134   2.190   1.535   3.899
    1PA    C116  135   1.844   1.121   3.957
    1PA    H16R  136   1.935   1.076   3.919
    1PA    H16S  137   1.857   1.215   4.012
    1PA    H16T  138   1.780   1.153   3.874
    1PA    C115  139   1.758   1.019   4.034
    1PA    H15R  140   1.755   0.928   3.974
    1PA    H15S  141   1.810   0.990   4.126
    1PA    C114  142   1.617   1.079   4.046
    1PA    H14R  143   1.629   1.176   4.094
    1PA    H14S  144   1.574   1.086   3.946
    1PA    C113  145   1.531   0.980   4.126
    1PA    H13R  146   1.520   0.893   4.061
    1PA    H13S  147   1.577   0.945   4.219
    1PA    C112  148   1.390   1.036   4.150
    1PA    H12R  149   1.409   1.126   4.209
    1PA    H12S  150   1.362   1.069   4.050
    1PA    C111  151   1.288   0.938   4.209
    1PA    H11R  152   1.220   1.009   4.255
    1PA    H11S  153   1.232   0.878   4.136
    1PA    C110  154   1.342   0.839   4.314
    1PA    H10R  155   1.411   0.767   4.270
    1PA    H10S  156   1.390   0.889   4.399
    1PA     C19  157   1.226   0.758   4.372
    1PA     H9R  158   1.170   0.837   4.424
    1PA     H9S  159   1.171   0.707   4.293
    1PA     C18  160   1.275   0.650   4.469
    1PA     H8R  161   1.208   0.564   4.469
    1PA     H8S  162   1.357   0.593   4.425
    1PA     C17  163   1.308   0.697   4.612
    1PA     H7R  164   1.409   0.737   4.597
    1PA     H7S  165   1.228   0.762   4.648
    1PA     C16  166   1.321   0.572   4.701
    1PA     H6R  167   1.226   0.550   4.750
    1PA     H6S  168   1.356   0.494   4.633
    1PA     C15  169   1.430   0.583   4.808
    1PA     H5R  170   1.443   0.485   4.854
    1PA     H5S  171   1.524   0.600   4.755
    1PA     C14  172   1.402   0.694   4.911
    1PA     H4R  173   1.398   0.784   4.851
    1PA     H4S  174   1.308   0.652   4.948
    1PA     C13  175   1.515   0.702   5.015
    1PA     H3R  176   1.520   0.613   5.079
    1PA     H3S  177   1.615   0.712   4.971
    1PA     C12  178   1.494   0.827   5.101
    1PA     H2R  179   1.517   0.915   5.041
    1PA     H2S  180   1.389   0.835   5.130
    2PC     C11  181   1.571   0.812   5.229
    2PC     O12  182   1.691   0.791   5.223
    2PC     O11  183   1.499   0.841   5.338
    2PC      C1  184   1.554   0.840   5.471
    2PC      HR  185   1.468   0.855   5.538
    2PC      HS  186   1.590   0.739   5.491
    2PC      C2  187   1.665   0.944   5.488
    2PC      HX  188   1.730   0.953   5.400
    2PC      C3  189   1.747   0.924   5.616
    2PC      HA  190   1.825   0.849   5.600
    2PC      HB  191   1.800   1.013   5.649
    2PC     O31  192   1.662   0.890   5.728
    2PC     P31  193   1.721   0.843   5.869
    2PC     O32  194   1.844   0.752   5.821
    2PC     C31  195   1.825   0.617   5.778
    2PC     H1A  196   1.802   0.546   5.858
    2PC     H1B  197   1.737   0.614   5.712
    2PC     C32  198   1.951   0.554   5.717
    2PC     H2A  199   1.938   0.453   5.676
    2PC     H2B  200   1.978   0.613   5.630
    2PC     N31  201   2.073   0.546   5.804
    2PC     C33  202   2.048   0.458   5.922
    2PC     H3A  203   1.983   0.383   5.877
    2PC     H3B  204   2.143   0.411   5.947
    2PC     H3C  205   2.009   0.521   6.003
    2PC     C34  206   2.188   0.489   5.726
    2PC     H4A  207   2.165   0.384   5.705
    2PC     H4B  208   2.208   0.549   5.638
    2PC     H4C  209   2.268   0.499   5.800
    2PC     C35  210   2.116   0.680   5.855
    2PC     H5A  211   2.127   0.744   5.767
    2PC     H5B  212   2.213   0.671   5.903
    2PC     H5C  213   2.046   0.714   5.932
    2PC     O33  214   1.759   0.959   5.952
    2PC     O34  215   1.621   0.791   5.965
    2PC     O21  216   1.607   1.075   5.494
    2PC     C21  217   1.577   1.142   5.381
    2PC     O22  218   1.586   1.091   5.272
    3OL     C12  219   1.569   1.291   5.403
    3OL     H2R  220   1.603   1.346   5.315
    3OL     H2S  221   1.634   1.308   5.489
    3OL     C13  222   1.428   1.328   5.453
    3OL     H3R  223   1.430   1.421   5.508
    3OL     H3S  224   1.400   1.256   5.530
    3OL     C14  225   1.319   1.322   5.345
    3OL     H4R  226   1.307   1.214   5.336
    3OL     H4S  227   1.345   1.368   5.249
    3OL     C15  228   1.188   1.378   5.400
    3OL     H5R  229   1.205   1.485   5.412
    3OL     H5S  230   1.165   1.343   5.501
    3OL     C16  231   1.057   1.356   5.322
    3OL     H6R  232   1.035   1.250   5.309
    3OL     H6S  233   1.057   1.396   5.220
    3OL     C17  234   0.942   1.435   5.385
    3OL     H7R  235   0.957   1.540   5.359
    3OL     H7S  236   0.953   1.429   5.493
    3OL     C18  237   0.814   1.374   5.326
    3OL     H8R  238   0.806   1.271   5.361
    3OL     H8S  239   0.817   1.367   5.217
    3OL     C19  240   0.689   1.442   5.376
    3OL     H9R  241   0.645   1.393   5.462
    3OL    C110  242   0.634   1.551   5.323
    3OL    H10R  243   0.542   1.586   5.366
    3OL    C111  244   0.689   1.616   5.198
    3OL    H11R  245   0.785   1.583   5.159
    3OL    H11S  246   0.695   1.725   5.209
    3OL    C112  247   0.581   1.595   5.091
    3OL    H12R  248   0.485   1.630   5.131
    3OL    H12S  249   0.559   1.489   5.078
    3OL    C113  250   0.627   1.640   4.952
    3OL    H13R  251   0.723   1.594   4.928
    3OL    H13S  252   0.629   1.749   4.958
    3OL    C114  253   0.531   1.609   4.836
    3OL    H14R  254   0.438   1.664   4.846
    3OL    H14S  255   0.512   1.502   4.827
    3OL    C115  256   0.589   1.659   4.703
    3OL    H15R  257   0.679   1.599   4.690
    3OL    H15S  258   0.617   1.765   4.705
    3OL    C116  259   0.492   1.624   4.590
    3OL    H16R  260   0.392   1.667   4.597
    3OL    H16S  261   0.478   1.515   4.593
    3OL    C117  262   0.548   1.654   4.450
    3OL    H17R  263   0.482   1.608   4.377
    3OL    H17S  264   0.649   1.617   4.430
    3OL    C118  265   0.567   1.804   4.421
    3OL    H18R  266   0.658   1.815   4.362
    3OL    H18S  267   0.574   1.864   4.513
    3OL    H18T  268   0.486   1.847   4.363
    1PA    C116  269   1.861   0.845   4.683
    1PA    H16R  270   1.927   0.761   4.705
    1PA    H16S  271   1.833   0.888   4.779
    1PA    H16T  272   1.909   0.918   4.617
    1PA    C115  273   1.728   0.793   4.625
    1PA    H15R  274   1.684   0.722   4.695
    1PA    H15S  275   1.660   0.878   4.622
    1PA    C114  276   1.751   0.728   4.488
    1PA    H14R  277   1.654   0.698   4.447
    1PA    H14S  278   1.782   0.800   4.412
    1PA    C113  279   1.847   0.608   4.488
    1PA    H13R  280   1.823   0.584   4.384
    1PA    H13S  281   1.948   0.647   4.501
    1PA    C112  282   1.808   0.497   4.587
    1PA    H12R  283   1.884   0.419   4.581
    1PA    H12S  284   1.814   0.536   4.689
    1PA    C111  285   1.679   0.425   4.546
    1PA    H11R  286   1.601   0.500   4.533
    1PA    H11S  287   1.697   0.382   4.447
    1PA    C110  288   1.638   0.308   4.636
    1PA    H10R  289   1.724   0.240   4.637
    1PA    H10S  290   1.611   0.345   4.735
    1PA     C19  291   1.520   0.226   4.582
    1PA     H9R  292   1.436   0.296   4.591
    1PA     H9S  293   1.540   0.208   4.476
    1PA     C18  294   1.495   0.094   4.656
    1PA     H8R  295   1.411   0.037   4.616
    1PA     H8S  296   1.585   0.034   4.643
    1PA     C17  297   1.471   0.109   4.806
    1PA     H7R  298   1.463   0.013   4.857
    1PA     H7S  299   1.544   0.177   4.851
    1PA     C16  300   1.334   0.176   4.828
    1PA     H6R  301   1.328   0.271   4.774
    1PA     H6S  302   1.257   0.114   4.782
    1PA     C15  303   1.300   0.178   4.978
    1PA     H5R  304   1.316   0.082   5.028
    1PA     H5S  305   1.369   0.245   5.029
    1PA     C14  306   1.160   0.217   5.026
    1PA     H4R  307   1.091   0.209   4.941
    1PA     H4S  308   1.117   0.147   5.099
    1PA     C13  309   1.147   0.364   5.067
    1PA     H3R  310   1.208   0.377   5.157
    1PA     H3S  311   1.199   0.419   4.988
    1PA     C12  312   1.001   0.405   5.088
    1PA     H2R  313   0.994   0.511   5.113
    1PA     H2S  314   0.930   0.385   5.008
    2PC     C11  315   0.937   0.360   5.217
    2PC     O12  316   0.977   0.274   5.293
    2PC     O11  317   0.815   0.416   5.215
    2PC      C1  318   0.717   0.392   5.318
    2PC      HR  319   0.674   0.292   5.308
    2PC      HS  320   0.769   0.387   5.414
    2PC      C2  321   0.604   0.495   5.311
    2PC      HX  322   0.638   0.598   5.304
    2PC      C3  323   0.523   0.500   5.441
    2PC      HA  324   0.498   0.397   5.470
    2PC      HB  325   0.590   0.544   5.516
    2PC     O31  326   0.407   0.583   5.425
    2PC     P31  327   0.317   0.617   5.553
    2PC     O32  328   0.243   0.751   5.505
    2PC     C31  329   0.212   0.842   5.612
    2PC     H1A  330   0.171   0.787   5.698
    2PC     H1B  331   0.301   0.899   5.636
    2PC     C32  332   0.102   0.939   5.567
    2PC     H2A  333   0.153   0.989   5.484
    2PC     H2B  334   0.010   0.897   5.525
    2PC     N31  335   0.053   1.039   5.667
    2PC     C33  336   0.162   1.142   5.678
    2PC     H3A  337   0.117   1.241   5.686
    2PC     H3B  338   0.227   1.130   5.764
    2PC     H3C  339   0.211   1.145   5.581
    2PC     C34  340   6.418   1.106   5.614
    2PC     H4A  341   6.433   1.126   5.508
    2PC     H4B  342   6.337   1.035   5.632
    2PC     H4C  343   6.408   1.199   5.670
    2PC     C35  344   0.002   0.983   5.796
    2PC     H5A  345   0.075   0.913   5.838
    2PC     H5B  346   6.391   0.943   5.780
    2PC     H5C  347   6.479   1.071   5.859
    2PC     O33  348   0.221   0.508   5.580
    2PC     O34  349   0.405   0.647   5.668
    2PC     O21  350   0.524   0.443   5.203
    2PC     C21  351   0.544   0.503   5.085
    2PC     O22  352   0.628   0.586   5.057
    3OL     C12  353   0.465   0.448   4.969
    3OL     H2R  354   0.366   0.438   5.015
    3OL     H2S  355   0.497   0.346   4.945
    3OL     C13  356   0.448   0.536   4.844
    3OL     H3R  357   0.377   0.487   4.777
    3OL     H3S  358   0.544   0.534   4.792
    3OL     C14  359   0.404   0.681   4.870
    3OL     H4R  360   0.488   0.725   4.924
    3OL     H4S  361   0.323   0.679   4.942
    3OL     C15  362   0.369   0.753   4.739
    3OL     H5R  363   0.314   0.845   4.759
    3OL     H5S  364   0.303   0.693   4.676
    3OL     C16  365   0.502   0.787   4.670
    3OL     H6R  366   0.555   0.696   4.641
    3OL     H6S  367   0.562   0.854   4.731
    3OL     C17  368   0.476   0.851   4.533
    3OL     H7R  369   0.429   0.948   4.547
    3OL     H7S  370   0.405   0.784   4.484
    3OL     C18  371   0.615   0.873   4.470
    3OL     H8R  372   0.680   0.788   4.489
    3OL     H8S  373   0.663   0.963   4.508
    3OL     C19  374   0.602   0.902   4.322
    3OL     H9R  375   0.583   0.817   4.257
    3OL    C110  376   0.605   1.020   4.262
    3OL    H10R  377   0.594   1.026   4.154
    3OL    C111  378   0.613   1.152   4.334
    3OL    H11R  379   0.709   1.202   4.321
    3OL    H11S  380   0.597   1.136   4.441
    3OL    C112  381   0.499   1.246   4.292
    3OL    H12R  382   0.497   1.329   4.363
    3OL    H12S  383   0.403   1.194   4.297
    3OL    C113  384   0.532   1.300   4.152
    3OL    H13R  385   0.446   1.301   4.085
    3OL    H13S  386   0.597   1.226   4.105
    3OL    C114  387   0.602   1.437   4.150
    3OL    H14R  388   0.698   1.444   4.202
    3OL    H14S  389   0.529   1.499   4.202
    3OL    C115  390   0.636   1.475   4.005
    3OL    H15R  391   0.649   1.584   4.000
    3OL    H15S  392   0.544   1.461   3.947
    3OL    C116  393   0.761   1.401   3.957
    3OL    H16R  394   0.765   1.294   3.978
    3OL    H16S  395   0.849   1.426   4.017
    3OL    C117  396   0.788   1.428   3.808
    3OL    H17R  397   0.895   1.440   3.797
    3OL    H17S  398   0.759   1.527   3.772
    3OL    C118  399   0.742   1.316   3.713
    3OL    H18R  400   0.646   1.269   3.737
    3OL    H18S  401   0.813   1.234   3.724
    3OL    H18T  402   0.739   1.342   3.607
    1PA    C116  403   1.905   1.491   3.927
    1PA    H16R  404   1.817   1.433   3.898
    1PA    H16S  405   1.998   1.438   3.907
    1PA    H16T  406   1.894   1.581   3.866
    1PA    C115  407   1.897   1.524   4.076
    1PA    H15R  408   1.791   1.526   4.103
    1PA    H15S  409   1.934   1.444   4.140
    1PA    C114  410   1.968   1.657   4.106
    1PA    H14R  411   2.066   1.666   4.058
    1PA    H14S  412   1.906   1.737   4.064
    1PA    C113  413   1.978   1.681   4.257
    1PA    H13R  414   2.031   1.601   4.309
    1PA    H13S  415   2.050   1.764   4.266
    1PA    C112  416   1.852   1.713   4.339
    1PA    H12R  417   1.775   1.642   4.308
    1PA    H12S  418   1.865   1.676   4.440
    1PA    C111  419   1.803   1.859   4.332
    1PA    H11R  420   1.774   1.869   4.227
    1PA    H11S  421   1.714   1.867   4.395
    1PA    C110  422   1.907   1.961   4.380
    1PA    H10R  423   1.997   1.955   4.319
    1PA    H10S  424   1.869   2.063   4.368
    1PA     C19  425   1.939   1.951   4.530
    1PA     H9R  426   1.955   1.849   4.564
    1PA     H9S  427   2.040   1.988   4.547
    1PA     C18  428   1.845   2.022   4.628
    1PA     H8R  429   1.855   2.130   4.610
    1PA     H8S  430   1.740   1.996   4.611
    1PA     C17  431   1.888   1.994   4.773
    1PA     H7R  432   1.851   1.895   4.798
    1PA     H7S  433   1.996   1.984   4.781
    1PA     C16  434   1.837   2.095   4.877
    1PA     H6R  435   1.885   2.191   4.856
    1PA     H6S  436   1.734   2.125   4.858
    1PA     C15  437   1.867   2.056   5.023
    1PA     H5R  438   1.815   1.960   5.037
    1PA     H5S  439   1.972   2.028   5.030
    1PA     C14  440   1.816   2.157   5.127
    1PA     H4R  441   1.874   2.249   5.130
    1PA     H4S  442   1.709   2.176   5.111
    1PA     C13  443   1.831   2.086   5.262
    1PA     H3R  444   1.769   2.127   5.342
    1PA     H3S  445   1.799   1.983   5.246
    1PA     C12  446   1.975   2.093   5.314
    1PA     H2R  447   2.044   2.051   5.241
    1PA     H2S  448   2.006   2.198   5.318
    2PC     C11  449   1.990   2.034   5.452
    2PC     O12  450   1.975   2.096   5.556
    2PC     O11  451   2.025   1.905   5.451
    2PC      C1  452   2.060   1.835   5.572
    2PC      HR  453   2.105   1.741   5.540
    2PC      HS  454   2.121   1.896   5.640
    2PC      C2  455   1.934   1.817   5.658
    2PC      HX  456   1.875   1.909   5.663
    2PC      C3  457   1.969   1.768   5.799
    2PC      HA  458   1.984   1.852   5.867
    2PC      HB  459   1.888   1.712   5.847
    2PC     O31  460   2.092   1.692   5.796
    2PC     P31  461   2.128   1.587   5.911
    2PC     O32  462   2.211   1.481   5.824
    2PC     C31  463   2.135   1.389   5.744
    2PC     H1A  464   2.077   1.329   5.815
    2PC     H1B  465   2.069   1.444   5.676
    2PC     C32  466   2.242   1.307   5.670
    2PC     H2A  467   2.319   1.283   5.744
    2PC     H2B  468   2.207   1.210   5.635
    2PC     N31  469   2.314   1.372   5.556
    2PC     C33  470   2.394   1.487   5.609
    2PC     H3A  471   2.442   1.449   5.699
    2PC     H3B  472   2.467   1.523   5.536
    2PC     H3C  473   2.335   1.570   5.647
    2PC     C34  474   2.402   1.262   5.506
    2PC     H4A  475   2.476   1.235   5.581
    2PC     H4B  476   2.344   1.173   5.483
    2PC     H4C  477   2.449   1.299   5.415
    2PC     C35  478   2.222   1.412   5.444
    2PC     H5A  479   2.282   1.484   5.387
    2PC     H5B  480   2.139   1.457   5.498
    2PC     H5C  481   2.202   1.317   5.393
    2PC     O33  482   2.205   1.632   6.029
    2PC     O34  483   2.011   1.514   5.965
    2PC     O21  484   1.861   1.712   5.593
    2PC     C21  485   1.763   1.742   5.506
    2PC     O22  486   1.723   1.850   5.470
    3OL     C12  487   1.702   1.621   5.438
    3OL     H2R  488   1.613   1.582   5.487
    3OL     H2S  489   1.770   1.538   5.458
    3OL     C13  490   1.691   1.642   5.287
    3OL     H3R  491   1.624   1.724   5.259
    3OL     H3S  492   1.647   1.551   5.247
    3OL     C14  493   1.823   1.658   5.209
    3OL     H4R  494   1.882   1.566   5.220
    3OL     H4S  495   1.884   1.736   5.254
    3OL     C15  496   1.798   1.688   5.061
    3OL     H5R  497   1.877   1.754   5.025
    3OL     H5S  498   1.705   1.745   5.049
    3OL     C16  499   1.796   1.564   4.971
    3OL     H6R  500   1.708   1.502   4.990
    3OL     H6S  501   1.882   1.500   4.991
    3OL     C17  502   1.796   1.603   4.823
    3OL     H7R  503   1.838   1.520   4.766
    3OL     H7S  504   1.867   1.685   4.811
    3OL     C18  505   1.652   1.641   4.787
    3OL     H8R  506   1.621   1.715   4.861
    3OL     H8S  507   1.602   1.545   4.798
    3OL     C19  508   1.634   1.691   4.646
    3OL     H9R  509   1.697   1.778   4.627
    3OL    C110  510   1.553   1.651   4.549
    3OL    H10R  511   1.549   1.708   4.456
    3OL    C111  512   1.444   1.548   4.560
    3OL    H11R  513   1.355   1.594   4.516
    3OL    H11S  514   1.412   1.527   4.663
    3OL    C112  515   1.479   1.418   4.486
    3OL    H12R  516   1.462   1.431   4.379
    3OL    H12S  517   1.401   1.347   4.516
    3OL    C113  518   1.620   1.362   4.508
    3OL    H13R  519   1.645   1.352   4.614
    3OL    H13S  520   1.689   1.443   4.485
    3OL    C114  521   1.653   1.233   4.430
    3OL    H14R  522   1.683   1.267   4.331
    3OL    H14S  523   1.569   1.163   4.433
    3OL    C115  524   1.771   1.163   4.498
    3OL    H15R  525   1.795   1.066   4.453
    3OL    H15S  526   1.745   1.139   4.602
    3OL    C116  527   1.903   1.240   4.484
    3OL    H16R  528   1.875   1.345   4.493
    3OL    H16S  529   1.946   1.225   4.385
    3OL    C117  530   2.013   1.190   4.579
    3OL    H17R  531   2.107   1.236   4.551
    3OL    H17S  532   2.022   1.081   4.584
    3OL    C118  533   1.991   1.246   4.720
    3OL    H18R  534   1.898   1.204   4.761
    3OL    H18S  535   1.974   1.354   4.719
    3OL    H18T  536   2.083   1.231   4.776
    1PA    C116  537   1.437   5.961   3.719
    1PA    H16R  538   1.393   5.889   3.788
    1PA    H16S  539   1.540   5.937   3.692
    1PA    H16T  540   1.379   5.955   3.627
    1PA    C115  541   1.433   6.103   3.777
    1PA    H15R  542   1.446   6.173   3.694
    1PA    H15S  543   1.336   6.133   3.817
    1PA    C114  544   1.538   6.118   3.888
    1PA    H14R  545   1.516   6.054   3.974
    1PA    H14S  546   1.637   6.098   3.846
    1PA    C113  547   1.542   6.258   3.950
    1PA    H13R  548   1.551   6.337   3.875
    1PA    H13S  549   1.447   6.281   3.999
    1PA    C112  550   1.649   6.277   4.059
    1PA    H12R  551   1.636   6.200   4.135
    1PA    H12S  552   1.744   6.255   4.010
    1PA    C111  553   1.642   6.412   4.131
    1PA    H11R  554   1.661   0.004   4.059
    1PA    H11S  555   1.542   6.417   4.175
    1PA    C110  556   1.751   6.414   4.239
    1PA    H10R  557   1.726   6.339   4.314
    1PA    H10S  558   1.846   6.387   4.192
    1PA     C19  559   1.759   0.066   4.299
    1PA     H9R  560   1.754   0.144   4.223
    1PA     H9S  561   1.691   0.094   4.380
    1PA     C18  562   1.903   0.094   4.346
    1PA     H8R  563   1.968   0.050   4.271
    1PA     H8S  564   1.920   0.202   4.341
    1PA     C17  565   1.930   0.047   4.489
    1PA     H7R  566   1.862   0.106   4.551
    1PA     H7S  567   1.896   6.434   4.508
    1PA     C16  568   2.079   0.076   4.513
    1PA     H6R  569   2.143   0.041   4.432
    1PA     H6S  570   2.099   0.183   4.519
    1PA     C15  571   2.131   0.005   4.639
    1PA     H5R  572   2.115   6.386   4.631
    1PA     H5S  573   2.235   0.038   4.634
    1PA     C14  574   2.055   0.052   4.764
    1PA     H4R  575   2.059   0.157   4.792
    1PA     H4S  576   1.947   0.038   4.751
    1PA     C13  577   2.103   6.464   4.888
    1PA     H3R  578   2.212   6.464   4.890
    1PA     H3S  579   2.076   0.034   4.976
    1PA     C12  580   2.048   6.321   4.902
    1PA     H2R  581   1.962   6.305   4.837
    1PA     H2S  582   2.119   6.251   4.859
    2PC     C11  583   2.014   6.272   5.041
    2PC     O12  584   2.021   6.337   5.143
    2PC     O11  585   1.992   6.139   5.042
    2PC      C1  586   1.950   6.082   5.167
    2PC      HR  587   1.934   5.976   5.147
    2PC      HS  588   2.022   6.099   5.248
    2PC      C2  589   1.817   6.142   5.216
    2PC      HX  590   1.825   6.250   5.232
    2PC      C3  591   1.767   6.067   5.340
    2PC      HA  592   1.747   5.963   5.314
    2PC      HB  593   1.836   6.065   5.425
    2PC     O31  594   1.661   6.138   5.406
    2PC     P31  595   1.675   6.284   5.472
    2PC     O32  596   1.531   6.290   5.543
    2PC     C31  597   1.435   6.389   5.504
    2PC     H1A  598   1.493   6.479   5.482
    2PC     H1B  599   1.380   6.353   5.416
    2PC     C32  600   1.337   6.412   5.619
    2PC     H2A  601   1.240   6.438   5.575
    2PC     H2B  602   1.330   6.315   5.670
    2PC     N31  603   1.359   0.025   5.727
    2PC     C33  604   1.340   0.165   5.677
    2PC     H3A  605   1.346   0.225   5.768
    2PC     H3B  606   1.428   0.184   5.616
    2PC     H3C  607   1.247   0.180   5.623
    2PC     C34  608   1.255   0.004   5.833
    2PC     H4A  609   1.238   0.085   5.904
    2PC     H4B  610   1.162   6.456   5.790
    2PC     H4C  611   1.309   6.414   5.886
    2PC     C35  612   1.489   6.485   5.797
    2PC     H5A  613   1.487   0.054   5.890
    2PC     H5B  614   1.565   0.042   5.735
    2PC     H5C  615   1.507   6.379   5.818
    2PC     O33  616   1.795   6.309   5.555
    2PC     O34  617   1.682   6.390   5.368
    2PC     O21  618   1.718   6.120   5.114
    2PC     C21  619   1.670   6.221   5.039
    2PC     O22  620   1.719   6.332   5.033
    3OL     C12  621   1.552   6.187   4.951
    3OL     H2R  622   1.476   6.261   4.977
    3OL     H2S  623   1.503   6.090   4.962
    3OL     C13  624   1.604   6.206   4.807
    3OL     H3R  625   1.669   6.122   4.784
    3OL     H3S  626   1.667   6.296   4.802
    3OL     C14  627   1.494   6.221   4.701
    3OL     H4R  628   1.544   6.276   4.621
    3OL     H4S  629   1.405   6.279   4.724
    3OL     C15  630   1.446   6.093   4.631
    3OL     H5R  631   1.405   6.023   4.705
    3OL     H5S  632   1.535   6.051   4.585
    3OL     C16  633   1.343   6.123   4.521
    3OL     H6R  634   1.244   6.153   4.556
    3OL     H6S  635   1.318   6.031   4.468
    3OL     C17  636   1.379   6.239   4.426
    3OL     H7R  637   1.480   6.218   4.390
    3OL     H7S  638   1.392   6.337   4.472
    3OL     C18  639   1.282   6.261   4.310
    3OL     H8R  640   1.252   6.167   4.265
    3OL     H8S  641   1.335   6.308   4.227
    3OL     C19  642   1.158   6.338   4.351
    3OL     H9R  643   1.078   6.284   4.401
    3OL    C110  644   1.148   6.469   4.338
    3OL    H10R  645   1.054   0.019   4.376
    3OL    C111  646   1.248   0.074   4.274
    3OL    H11R  647   1.266   0.033   4.175
    3OL    H11S  648   1.339   0.077   4.333
    3OL    C112  649   1.198   0.218   4.258
    3OL    H12R  650   1.211   0.278   4.348
    3OL    H12S  651   1.089   0.216   4.250
    3OL    C113  652   1.252   0.300   4.140
    3OL    H13R  653   1.182   0.382   4.129
    3OL    H13S  654   1.244   0.238   4.050
    3OL    C114  655   1.394   0.354   4.166
    3OL    H14R  656   1.463   0.269   4.169
    3OL    H14S  657   1.389   0.400   4.265
    3OL    C115  658   1.438   0.456   4.060
    3OL    H15R  659   1.360   0.530   4.043
    3OL    H15S  660   1.442   0.408   3.963
    3OL    C116  661   1.571   0.520   4.104
    3OL    H16R  662   1.624   0.434   4.145
    3OL    H16S  663   1.547   0.586   4.187
    3OL    C117  664   1.653   0.599   4.001
    3OL    H17R  665   1.611   0.696   3.972
    3OL    H17S  666   1.666   0.541   3.909
    3OL    C118  667   1.791   0.620   4.065
    3OL    H18R  668   1.867   0.676   4.011
    3OL    H18S  669   1.841   0.525   4.080
    3OL    H18T  670   1.789   0.672   4.161
    1PA    C116  671   6.417   1.008   3.965
    1PA    H16R  672   6.439   0.919   3.905
    1PA    H16S  673   6.417   1.104   3.914
    1PA    H16T  674   6.312   0.994   3.992
    1PA    C115  675   0.017   0.999   4.090
    1PA    H15R  676   0.005   0.904   4.142
    1PA    H15S  677   0.121   1.005   4.061
    1PA    C114  678   6.473   1.112   4.190
    1PA    H14R  679   6.487   1.211   4.148
    1PA    H14S  680   6.368   1.099   4.217
    1PA    C113  681   0.068   1.093   4.317
    1PA    H13R  682   0.079   0.985   4.332
    1PA    H13S  683   0.165   1.136   4.291
    1PA    C112  684   0.007   1.166   4.438
    1PA    H12R  685   6.478   1.271   4.416
    1PA    H12S  686   6.395   1.126   4.455
    1PA    C111  687   0.085   1.155   4.570
    1PA    H11R  688   0.032   1.220   4.640
    1PA    H11S  689   0.087   1.055   4.612
    1PA    C110  690   0.230   1.202   4.549
    1PA    H10R  691   0.282   1.142   4.474
    1PA    H10S  692   0.243   1.301   4.504
    1PA     C19  693   0.300   1.193   4.685
    1PA     H9R  694   0.267   1.276   4.747
    1PA     H9S  695   0.261   1.101   4.729
    1PA     C18  696   0.453   1.206   4.688
    1PA     H8R  697   0.502   1.115   4.655
    1PA     H8S  698   0.484   1.294   4.630
    1PA     C17  699   0.494   1.232   4.833
    1PA     H7R  700   0.589   1.286   4.844
    1PA     H7S  701   0.421   1.285   4.894
    1PA     C16  702   0.512   1.097   4.903
    1PA     H6R  703   0.419   1.041   4.915
    1PA     H6S  704   0.579   1.041   4.838
    1PA     C15  705   0.562   1.123   5.046
    1PA     H5R  706   0.655   1.180   5.056
    1PA     H5S  707   0.495   1.189   5.101
    1PA     C14  708   0.585   0.994   5.126
    1PA     H4R  709   0.651   0.914   5.090
    1PA     H4S  710   0.625   1.028   5.222
    1PA     C13  711   0.447   0.933   5.153
    1PA     H3R  712   0.379   1.015   5.176
    1PA     H3S  713   0.406   0.887   5.062
    1PA     C12  714   0.451   0.825   5.262
    1PA     H2R  715   0.354   0.787   5.296
    1PA     H2S  716   0.506   0.737   5.228
    2PC     C11  717   0.514   0.873   5.390
    2PC     O12  718   0.464   0.948   5.472
    2PC     O11  719   0.632   0.811   5.405
    2PC      C1  720   0.710   0.846   5.521
    2PC      HR  721   0.728   0.953   5.525
    2PC      HS  722   0.668   0.814   5.617
    2PC      C2  723   0.846   0.776   5.505
    2PC      HX  724   0.829   0.672   5.476
    2PC      C3  725   0.936   0.780   5.629
    2PC      HA  726   0.882   0.723   5.705
    2PC      HB  727   1.034   0.738   5.605
    2PC     O31  728   0.961   0.911   5.683
    2PC     P31  729   1.059   0.934   5.807
    2PC     O32  730   1.205   0.946   5.741
    2PC     C31  731   1.249   1.072   5.688
    2PC     H1A  732   1.323   1.065   5.608
    2PC     H1B  733   1.156   1.115   5.648
    2PC     C32  734   1.297   1.176   5.790
    2PC     H2A  735   1.319   1.274   5.747
    2PC     H2B  736   1.220   1.195   5.865
    2PC     N31  737   1.423   1.147   5.866
    2PC     C33  738   1.456   1.228   5.987
    2PC     H3A  739   1.458   1.335   5.964
    2PC     H3B  740   1.371   1.215   6.053
    2PC     H3C  741   1.540   1.197   6.050
    2PC     C34  742   1.409   1.011   5.927
    2PC     H4A  743   1.306   0.991   5.954
    2PC     H4B  744   1.459   0.951   5.851
    2PC     H4C  745   1.474   1.008   6.015
    2PC     C35  746   1.541   1.140   5.773
    2PC     H5A  747   1.570   1.238   5.735
    2PC     H5B  748   1.509   1.072   5.695
    2PC     H5C  749   1.621   1.101   5.837
    2PC     O33  750   1.009   1.050   5.885
    2PC     O34  751   1.049   0.837   5.918
    2PC     O21  752   0.919   0.855   5.409
    2PC     C21  753   1.023   0.797   5.348
    2PC     O22  754   1.059   0.681   5.361
    3OL     C12  755   1.108   0.899   5.276
    3OL     H2R  756   1.208   0.856   5.268
    3OL     H2S  757   1.104   0.992   5.333
    3OL     C13  758   1.055   0.931   5.136
    3OL     H3R  759   1.138   0.971   5.077
    3OL     H3S  760   0.985   1.014   5.129
    3OL     C14  761   1.008   0.808   5.056
    3OL     H4R  762   0.934   0.754   5.116
    3OL     H4S  763   1.092   0.743   5.031
    3OL     C15  764   0.957   0.855   4.919
    3OL     H5R  765   1.044   0.869   4.854
    3OL     H5S  766   0.916   0.956   4.922
    3OL     C16  767   0.867   0.755   4.846
    3OL     H6R  768   0.825   0.813   4.763
    3OL     H6S  769   0.795   0.704   4.910
    3OL     C17  770   0.950   0.647   4.775
    3OL     H7R  771   1.010   0.602   4.855
    3OL     H7S  772   1.023   0.683   4.702
    3OL     C18  773   0.863   0.536   4.713
    3OL     H8R  774   0.810   0.591   4.635
    3OL     H8S  775   0.790   0.503   4.788
    3OL     C19  776   0.939   0.418   4.658
    3OL     H9R  777   0.996   0.371   4.738
    3OL    C110  778   0.954   0.379   4.533
    3OL    H10R  779   1.021   0.298   4.504
    3OL    C111  780   0.876   0.428   4.414
    3OL    H11R  781   0.786   0.481   4.448
    3OL    H11S  782   0.851   0.335   4.364
    3OL    C112  783   0.945   0.532   4.325
    3OL    H12R  784   1.043   0.494   4.293
    3OL    H12S  785   0.965   0.622   4.383
    3OL    C113  786   0.852   0.576   4.211
    3OL    H13R  787   0.756   0.602   4.255
    3OL    H13S  788   0.829   0.498   4.138
    3OL    C114  789   0.922   0.691   4.139
    3OL    H14R  790   0.989   0.649   4.063
    3OL    H14S  791   0.983   0.746   4.211
    3OL    C115  792   0.827   0.785   4.063
    3OL    H15R  793   0.773   0.841   4.140
    3OL    H15S  794   0.755   0.725   4.008
    3OL    C116  795   0.898   0.881   3.966
    3OL    H16R  796   0.994   0.916   4.005
    3OL    H16S  797   0.830   0.963   3.943
    3OL    C117  798   0.937   0.812   3.834
    3OL    H17R  799   0.859   0.737   3.819
    3OL    H17S  800   1.033   0.762   3.849
    3OL    C118  801   0.950   0.911   3.718
    3OL    H18R  802   1.002   1.003   3.744
    3OL    H18S  803   0.847   0.938   3.694
    3OL    H18T  804   1.010   0.871   3.636
    1PA    C116  805   0.733   6.124   3.691
    1PA    H16R  806   0.696   6.049   3.621
    1PA    H16S  807   0.821   6.087   3.743
    1PA    H16T  808   0.764   6.211   3.633
    1PA    C115  809   0.627   6.144   3.801
    1PA    H15R  810   0.668   6.208   3.879
    1PA    H15S  811   0.542   6.190   3.751
    1PA    C114  812   0.586   6.008   3.859
    1PA    H14R  813   0.548   5.942   3.782
    1PA    H14S  814   0.677   5.961   3.897
    1PA    C113  815   0.481   6.026   3.970
    1PA    H13R  816   0.398   6.085   3.929
    1PA    H13S  817   0.442   5.930   4.003
    1PA    C112  818   0.537   6.104   4.089
    1PA    H12R  819   0.630   6.058   4.122
    1PA    H12S  820   0.558   6.210   4.071
    1PA    C111  821   0.428   6.101   4.198
    1PA    H11R  822   0.449   6.185   4.265
    1PA    H11S  823   0.334   6.134   4.154
    1PA    C110  824   0.430   5.967   4.273
    1PA    H10R  825   0.388   5.896   4.201
    1PA    H10S  826   0.534   5.939   4.295
    1PA     C19  827   0.326   5.975   4.385
    1PA     H9R  828   0.367   6.042   4.462
    1PA     H9S  829   0.232   6.023   4.360
    1PA     C18  830   0.305   5.844   4.462
    1PA     H8R  831   0.286   5.760   4.394
    1PA     H8S  832   0.399   5.820   4.511
    1PA     C17  833   0.203   5.850   4.576
    1PA     H7R  834   0.225   5.928   4.650
    1PA     H7S  835   0.102   5.864   4.538
    1PA     C16  836   0.201   5.715   4.649
    1PA     H6R  837   0.106   5.711   4.703
    1PA     H6S  838   0.199   5.627   4.584
    1PA     C15  839   0.325   5.700   4.738
    1PA     H5R  840   0.365   5.601   4.719
    1PA     H5S  841   0.400   5.776   4.715
    1PA     C14  842   0.281   5.727   4.883
    1PA     H4R  843   0.223   5.819   4.889
    1PA     H4S  844   0.210   5.645   4.898
    1PA     C13  845   0.400   5.735   4.980
    1PA     H3R  846   0.466   5.649   4.977
    1PA     H3S  847   0.463   5.823   4.962
    1PA     C12  848   0.346   5.753   5.123
    1PA     H2R  849   0.337   5.861   5.136
    1PA     H2S  850   0.245   5.712   5.124
    2PC     C11  851   0.420   5.704   5.245
    2PC     O12  852   0.404   5.748   5.357
    2PC     O11  853   0.501   5.602   5.211
    2PC      C1  854   0.556   5.517   5.314
    2PC      HR  855   0.628   5.446   5.273
    2PC      HS  856   0.598   5.589   5.384
    2PC      C2  857   0.453   5.427   5.384
    2PC      HX  858   0.382   5.477   5.449
    2PC      C3  859   0.525   5.341   5.489
    2PC      HA  860   0.567   5.258   5.432
    2PC      HB  861   0.605   5.384   5.550
    2PC     O31  862   0.431   5.290   5.586
    2PC     P31  863   0.483   5.221   5.720
    2PC     O32  864   0.338   5.189   5.780
    2PC     C31  865   0.312   5.248   5.909
    2PC     H1A  866   0.338   5.165   5.975
    2PC     H1B  867   0.374   5.334   5.936
    2PC     C32  868   0.162   5.280   5.916
    2PC     H2A  869   0.106   5.194   5.878
    2PC     H2B  870   0.127   5.286   6.019
    2PC     N31  871   0.110   5.397   5.837
    2PC     C33  872   0.168   5.526   5.886
    2PC     H3A  873   0.266   5.543   5.842
    2PC     H3B  874   0.108   5.605   5.843
    2PC     H3C  875   0.168   5.523   5.995
    2PC     C34  876   0.139   5.381   5.690
    2PC     H4A  877   0.113   5.478   5.648
    2PC     H4B  878   0.244   5.357   5.677
    2PC     H4C  879   0.078   5.303   5.643
    2PC     C35  880   6.452   5.414   5.862
    2PC     H5A  881   6.424   5.419   5.967
    2PC     H5B  882   6.398   5.326   5.827
    2PC     H5C  883   6.416   5.498   5.802
    2PC     O33  884   0.566   5.100   5.696
    2PC     O34  885   0.559   5.323   5.795
    2PC     O21  886   0.395   5.336   5.289
    2PC     C21  887   0.289   5.373   5.214
    2PC     O22  888   0.236   5.482   5.215
    3OL     C12  889   0.228   5.260   5.135
    3OL     H2R  890   0.132   5.297   5.099
    3OL     H2S  891   0.213   5.179   5.206
    3OL     C13  892   0.310   5.199   5.020
    3OL     H3R  893   0.259   5.123   4.960
    3OL     H3S  894   0.403   5.159   5.060
    3OL     C14  895   0.325   5.309   4.915
    3OL     H4R  896   0.407   5.277   4.850
    3OL     H4S  897   0.372   5.389   4.972
    3OL     C15  898   0.202   5.338   4.829
    3OL     H5R  899   0.210   5.438   4.784
    3OL     H5S  900   0.112   5.332   4.891
    3OL     C16  901   0.185   5.236   4.716
    3OL     H6R  902   0.080   5.226   4.687
    3OL     H6S  903   0.229   5.138   4.739
    3OL     C17  904   0.268   5.277   4.594
    3OL     H7R  905   0.372   5.285   4.627
    3OL     H7S  906   0.236   5.376   4.563
    3OL     C18  907   0.259   5.180   4.475
    3OL     H8R  908   0.312   5.089   4.503
    3OL     H8S  909   0.322   5.224   4.398
    3OL     C19  910   0.115   5.162   4.434
    3OL     H9R  911   0.063   5.074   4.469
    3OL    C110  912   0.055   5.243   4.347
    3OL    H10R  913   6.441   5.217   4.323
    3OL    C111  914   0.101   5.369   4.278
    3OL    H11R  915   0.103   5.355   4.170
    3OL    H11S  916   0.200   5.392   4.317
    3OL    C112  917   0.011   5.490   4.309
    3OL    H12R  918   0.015   5.515   4.415
    3OL    H12S  919   6.393   5.471   4.301
    3OL    C113  920   0.038   5.614   4.223
    3OL    H13R  921   0.032   5.581   4.119
    3OL    H13S  922   0.138   5.658   4.227
    3OL    C114  923   6.416   5.720   4.237
    3OL    H14R  924   6.378   5.729   4.339
    3OL    H14S  925   6.334   5.673   4.183
    3OL    C115  926   6.454   5.858   4.183
    3OL    H15R  927   6.475   5.847   4.076
    3OL    H15S  928   0.056   5.900   4.227
    3OL    C116  929   6.330   5.947   4.199
    3OL    H16R  930   6.288   5.941   4.299
    3OL    H16S  931   6.258   5.907   4.127
    3OL    C117  932   6.374   6.088   4.155
    3OL    H17R  933   6.467   6.116   4.205
    3OL    H17S  934   6.311   6.169   4.192
    3OL    C118  935   6.368   6.095   4.002
    3OL    H18R  936   6.290   6.032   3.959
    3OL    H18S  937   6.458   6.045   3.968
    3OL    H18T  938   6.354   6.196   3.963
    1PA    C116  939   4.147   1.680   3.807
    1PA    H16R  940   4.235   1.635   3.854
    1PA    H16S  941   4.172   1.677   3.701
    1PA    H16T  942   4.058   1.620   3.829
    1PA    C115  943   4.135   1.829   3.844
    1PA    H15R  944   4.233   1.861   3.880
    1PA    H15S  945   4.110   1.886   3.754
    1PA    C114  946   4.033   1.856   3.955
    1PA    H14R  947   3.947   1.794   3.929
    1PA    H14S  948   4.077   1.823   4.049
    1PA    C113  949   3.990   2.003   3.973
    1PA    H13R  950   3.998   2.046   3.872
    1PA    H13S  951   3.885   2.006   4.003
    1PA    C112  952   4.070   2.091   4.069
    1PA    H12R  953   4.175   2.060   4.069
    1PA    H12S  954   4.065   2.195   4.035
    1PA    C111  955   4.018   2.088   4.213
    1PA    H11R  956   4.062   2.153   4.290
    1PA    H11S  957   3.913   2.119   4.214
    1PA    C110  958   4.013   1.953   4.284
    1PA    H10R  959   3.945   1.888   4.228
    1PA    H10S  960   4.109   1.901   4.284
    1PA     C19  961   3.971   1.954   4.432
    1PA     H9R  962   4.048   2.001   4.494
    1PA     H9S  963   3.880   2.013   4.439
    1PA     C18  964   3.944   1.815   4.491
    1PA     H8R  965   3.867   1.760   4.436
    1PA     H8S  966   4.035   1.756   4.478
    1PA     C17  967   3.904   1.832   4.638
    1PA     H7R  968   3.925   1.744   4.698
    1PA     H7S  969   3.962   1.907   4.692
    1PA     C16  970   3.755   1.869   4.652
    1PA     H6R  971   3.732   1.949   4.582
    1PA     H6S  972   3.702   1.778   4.622
    1PA     C15  973   3.729   1.900   4.800
    1PA     H5R  974   3.627   1.875   4.830
    1PA     H5S  975   3.793   1.839   4.865
    1PA     C14  976   3.752   2.050   4.821
    1PA     H4R  977   3.853   2.074   4.790
    1PA     H4S  978   3.681   2.112   4.766
    1PA     C13  979   3.734   2.078   4.971
    1PA     H3R  980   3.655   2.017   5.015
    1PA     H3S  981   3.818   2.035   5.025
    1PA     C12  982   3.724   2.228   5.004
    1PA     H2R  983   3.818   2.278   4.977
    1PA     H2S  984   3.636   2.270   4.955
    2PC     C11  985   3.706   2.241   5.153
    2PC     O12  986   3.597   2.240   5.207
    2PC     O11  987   3.819   2.263   5.222
    2PC      C1  988   3.819   2.245   5.365
    2PC      HR  989   3.907   2.295   5.407
    2PC      HS  990   3.731   2.294   5.407
    2PC      C2  991   3.819   2.095   5.397
    2PC      HX  992   3.736   2.043   5.349
    2PC      C3  993   3.810   2.072   5.548
    2PC      HA  994   3.714   2.105   5.589
    2PC      HB  995   3.808   1.965   5.574
    2PC     O31  996   3.917   2.140   5.616
    2PC     P31  997   3.954   2.134   5.772
    2PC     O32  998   3.988   2.289   5.796
    2PC     C31  999   3.893   2.384   5.742
    2PC     H1A 1000   3.899   2.393   5.633
    2PC     H1B 1001   3.795   2.340   5.759
    2PC     C32 1002   3.913   2.525   5.799
    2PC     H2A 1003   4.019   2.550   5.787
    2PC     H2B 1004   3.852   2.601   5.750
    2PC     N31 1005   3.885   2.549   5.944
    2PC     C33 1006   3.743   2.522   5.981
    2PC     H3A 1007   3.678   2.561   5.902
    2PC     H3B 1008   3.733   2.414   5.986
    2PC     H3C 1009   3.719   2.574   6.074
    2PC     C34 1010   3.979   2.472   6.032
    2PC     H4A 1011   4.079   2.504   6.003
    2PC     H4B 1012   3.958   2.505   6.134
    2PC     H4C 1013   3.968   2.364   6.030
    2PC     C35 1014   3.912   2.695   5.967
    2PC     H5A 1015   3.905   2.717   6.073
    2PC     H5B 1016   3.835   2.753   5.915
    2PC     H5C 1017   4.014   2.714   5.933
    2PC     O33 1018   3.837   2.100   5.856
    2PC     O34 1019   4.065   2.047   5.815
    2PC     O21 1020   3.940   2.041   5.341
    2PC     C21 1021   3.958   1.908   5.333
    2PC     O22 1022   3.863   1.835   5.351
    3OL     C12 1023   4.100   1.860   5.343
    3OL     H2R 1024   4.115   1.833   5.448
    3OL     H2S 1025   4.165   1.947   5.333
    3OL     C13 1026   4.127   1.746   5.244
    3OL     H3R 1027   4.119   1.775   5.139
    3OL     H3S 1028   4.058   1.667   5.271
    3OL     C14 1029   4.264   1.678   5.257
    3OL     H4R 1030   4.276   1.630   5.354
    3OL     H4S 1031   4.351   1.744   5.255
    3OL     C15 1032   4.292   1.583   5.140
    3OL     H5R 1033   4.307   1.647   5.052
    3OL     H5S 1034   4.209   1.518   5.110
    3OL     C16 1035   4.420   1.504   5.168
    3OL     H6R 1036   4.491   1.565   5.225
    3OL     H6S 1037   4.483   1.484   5.081
    3OL     C17 1038   4.384   1.377   5.247
    3OL     H7R 1039   4.304   1.391   5.320
    3OL     H7S 1040   4.465   1.358   5.318
    3OL     C18 1041   4.359   1.259   5.152
    3OL     H8R 1042   4.445   1.243   5.088
    3OL     H8S 1043   4.274   1.296   5.093
    3OL     C19 1044   4.328   1.129   5.221
    3OL     H9R 1045   4.265   1.146   5.308
    3OL    C110 1046   4.375   1.010   5.189
    3OL    H10R 1047   4.346   0.920   5.242
    3OL    C111 1048   4.458   0.988   5.065
    3OL    H11R 1049   4.565   0.995   5.088
    3OL    H11S 1050   4.454   1.069   4.992
    3OL    C112 1051   4.420   0.862   4.986
    3OL    H12R 1052   4.311   0.858   4.974
    3OL    H12S 1053   4.451   0.771   5.037
    3OL    C113 1054   4.493   0.861   4.851
    3OL    H13R 1055   4.601   0.874   4.865
    3OL    H13S 1056   4.462   0.940   4.782
    3OL    C114 1057   4.456   0.737   4.770
    3OL    H14R 1058   4.474   0.648   4.830
    3OL    H14S 1059   4.528   0.736   4.688
    3OL    C115 1060   4.309   0.730   4.726
    3OL    H15R 1061   4.285   0.822   4.672
    3OL    H15S 1062   4.245   0.723   4.815
    3OL    C116 1063   4.278   0.604   4.645
    3OL    H16R 1064   4.365   0.538   4.641
    3OL    H16S 1065   4.197   0.554   4.698
    3OL    C117 1066   4.227   0.650   4.508
    3OL    H17R 1067   4.304   0.711   4.460
    3OL    H17S 1068   4.127   0.693   4.518
    3OL    C118 1069   4.207   0.524   4.423
    3OL    H18R 1070   4.294   0.458   4.429
    3OL    H18S 1071   4.124   0.470   4.469
    3OL    H18T 1072   4.184   0.556   4.321
    1PA    C116 1073   0.036   1.992   3.699
    1PA    H16R 1074   6.441   1.927   3.726
    1PA    H16S 1075   0.092   1.959   3.610
    1PA    H16T 1076   0.000   2.092   3.675
    1PA    C115 1077   0.149   2.003   3.803
    1PA    H15R 1078   0.208   1.912   3.795
    1PA    H15S 1079   0.216   2.086   3.780
    1PA    C114 1080   0.092   2.012   3.945
    1PA    H14R 1081   0.032   2.103   3.948
    1PA    H14S 1082   0.034   1.923   3.970
    1PA    C113 1083   0.194   2.025   4.059
    1PA    H13R 1084   0.254   1.934   4.066
    1PA    H13S 1085   0.264   2.106   4.037
    1PA    C112 1086   0.136   2.046   4.200
    1PA    H12R 1087   0.095   2.146   4.215
    1PA    H12S 1088   0.050   1.979   4.203
    1PA    C111 1089   0.230   2.008   4.315
    1PA    H11R 1090   0.268   1.907   4.299
    1PA    H11S 1091   0.319   2.071   4.315
    1PA    C110 1092   0.169   2.008   4.456
    1PA    H10R 1093   0.150   2.113   4.481
    1PA    H10S 1094   0.072   1.959   4.464
    1PA     C19 1095   0.261   1.954   4.567
    1PA     H9R 1096   0.273   1.846   4.557
    1PA     H9S 1097   0.359   2.003   4.560
    1PA     C18 1098   0.199   1.975   4.705
    1PA     H8R 1099   0.167   2.079   4.713
    1PA     H8S 1100   0.109   1.913   4.711
    1PA     C17 1101   0.306   1.936   4.809
    1PA     H7R 1102   0.319   1.827   4.814
    1PA     H7S 1103   0.399   1.984   4.780
    1PA     C16 1104   0.267   1.981   4.950
    1PA     H6R 1105   0.244   2.087   4.953
    1PA     H6S 1106   0.180   1.920   4.976
    1PA     C15 1107   0.390   1.961   5.040
    1PA     H5R 1108   0.430   1.861   5.021
    1PA     H5S 1109   0.471   2.028   5.010
    1PA     C14 1110   0.365   1.982   5.190
    1PA     H4R 1111   0.352   2.090   5.201
    1PA     H4S 1112   0.270   1.937   5.219
    1PA     C13 1113   0.480   1.928   5.276
    1PA     H3R 1114   0.473   1.819   5.285
    1PA     H3S 1115   0.570   1.961   5.223
    1PA     C12 1116   0.450   1.973   5.419
    1PA     H2R 1117   0.476   2.079   5.432
    1PA     H2S 1118   0.342   1.965   5.430
    2PC     C11 1119   0.516   1.884   5.521
    2PC     O12 1120   0.476   1.771   5.540
    2PC     O11 1121   0.612   1.936   5.599
    2PC      C1 1122   0.687   1.865   5.699
    2PC      HR 1123   0.741   1.936   5.763
    2PC      HS 1124   0.607   1.814   5.754
    2PC      C2 1125   0.779   1.752   5.652
    2PC      HX 1126   0.721   1.687   5.587
    2PC      C3 1127   0.828   1.657   5.762
    2PC      HA 1128   0.741   1.608   5.807
    2PC      HB 1129   0.883   1.589   5.697
    2PC     O31 1130   0.906   1.732   5.857
    2PC     P31 1131   0.929   1.674   6.005
    2PC     O32 1132   1.026   1.786   6.067
    2PC     C31 1133   0.964   1.882   6.154
    2PC     H1A 1134   0.886   1.941   6.106
    2PC     H1B 1135   0.916   1.831   6.238
    2PC     C32 1136   1.073   1.975   6.211
    2PC     H2A 1137   1.119   2.033   6.131
    2PC     H2B 1138   1.031   2.052   6.277
    2PC     N31 1139   1.184   1.903   6.280
    2PC     C33 1140   1.257   2.004   6.364
    2PC     H3A 1141   1.184   2.068   6.415
    2PC     H3B 1142   1.313   1.951   6.440
    2PC     H3C 1143   1.322   2.063   6.299
    2PC     C34 1144   1.133   1.812   6.388
    2PC     H4A 1145   1.077   1.874   6.459
    2PC     H4B 1146   1.075   1.735   6.339
    2PC     H4C 1147   1.224   1.771   6.432
    2PC     C35 1148   1.284   1.842   6.187
    2PC     H5A 1149   1.240   1.771   6.116
    2PC     H5B 1150   1.370   1.790   6.230
    2PC     H5C 1151   1.313   1.928   6.126
    2PC     O33 1152   0.802   1.662   6.079
    2PC     O34 1153   1.005   1.547   6.001
    2PC     O21 1154   0.898   1.800   5.587
    2PC     C21 1155   0.892   1.836   5.458
    2PC     O22 1156   0.786   1.850   5.400
    3OL     C12 1157   1.028   1.854   5.395
    3OL     H2R 1158   1.094   1.779   5.438
    3OL     H2S 1159   1.065   1.954   5.418
    3OL     C13 1160   1.028   1.845   5.242
    3OL     H3R 1161   0.978   1.750   5.221
    3OL     H3S 1162   1.128   1.819   5.206
    3OL     C14 1163   0.961   1.956   5.159
    3OL     H4R 1164   0.860   1.975   5.196
    3OL     H4S 1165   0.932   1.903   5.069
    3OL     C15 1166   1.062   2.070   5.137
    3OL     H5R 1167   1.152   2.035   5.087
    3OL     H5S 1168   1.113   2.109   5.225
    3OL     C16 1169   1.001   2.170   5.037
    3OL     H6R 1170   0.904   2.206   5.070
    3OL     H6S 1171   0.992   2.113   4.944
    3OL     C17 1172   1.089   2.294   5.018
    3OL     H7R 1173   1.194   2.275   4.993
    3OL     H7S 1174   1.098   2.342   5.116
    3OL     C18 1175   1.033   2.391   4.913
    3OL     H8R 1176   0.943   2.440   4.951
    3OL     H8S 1177   1.012   2.334   4.822
    3OL     C19 1178   1.137   2.498   4.889
    3OL     H9R 1179   1.176   2.547   4.977
    3OL    C110 1180   1.177   2.536   4.768
    3OL    H10R 1181   1.251   2.614   4.759
    3OL    C111 1182   1.150   2.467   4.636
    3OL    H11R 1183   1.047   2.433   4.637
    3OL    H11S 1184   1.210   2.376   4.632
    3OL    C112 1185   1.170   2.557   4.513
    3OL    H12R 1186   1.271   2.598   4.507
    3OL    H12S 1187   1.105   2.645   4.516
    3OL    C113 1188   1.151   2.479   4.383
    3OL    H13R 1189   1.193   2.378   4.394
    3OL    H13S 1190   1.212   2.528   4.307
    3OL    C114 1191   1.012   2.448   4.326
    3OL    H14R 1192   0.941   2.414   4.402
    3OL    H14S 1193   1.017   2.361   4.259
    3OL    C115 1194   0.943   2.553   4.237
    3OL    H15R 1195   0.843   2.510   4.221
    3OL    H15S 1196   0.995   2.565   4.142
    3OL    C116 1197   0.940   2.689   4.308
    3OL    H16R 1198   1.039   2.735   4.304
    3OL    H16S 1199   0.908   2.686   4.412
    3OL    C117 1200   0.832   2.773   4.238
    3OL    H17R 1201   0.736   2.722   4.249
    3OL    H17S 1202   0.854   2.802   4.135
    3OL    C118 1203   0.814   2.899   4.325
    3OL    H18R 1204   0.732   2.878   4.394
    3OL    H18S 1205   0.783   2.984   4.264
    3OL    H18T 1206   0.899   2.926   4.387
    1PA    C116 1207   5.983   1.237   3.810
    1PA    H16R 1208   6.045   1.149   3.794
    1PA    H16S 1209   5.886   1.227   3.761
    1PA    H16T 1210   5.973   1.239   3.919
    1PA    C115 1211   6.064   1.358   3.761
    1PA    H15R 1212   6.065   1.369   3.652
    1PA    H15S 1213   6.005   1.447   3.783
    1PA    C114 1214   6.208   1.370   3.813
    1PA    H14R 1215   6.268   1.279   3.804
    1PA    H14S 1216   6.254   1.442   3.745
    1PA    C113 1217   6.216   1.428   3.955
    1PA    H13R 1218   6.310   1.482   3.967
    1PA    H13S 1219   6.131   1.492   3.979
    1PA    C112 1220   6.206   1.321   4.065
    1PA    H12R 1221   6.109   1.270   4.061
    1PA    H12S 1222   6.291   1.254   4.046
    1PA    C111 1223   6.226   1.372   4.208
    1PA    H11R 1224   6.235   1.281   4.269
    1PA    H11S 1225   6.321   1.426   4.208
    1PA    C110 1226   6.103   1.452   4.254
    1PA    H10R 1227   6.080   1.534   4.186
    1PA    H10S 1228   6.023   1.377   4.260
    1PA     C19 1229   6.124   1.503   4.397
    1PA     H9R 1230   6.118   1.426   4.474
    1PA     H9S 1231   6.225   1.538   4.420
    1PA     C18 1232   6.019   1.607   4.437
    1PA     H8R 1233   6.008   1.688   4.366
    1PA     H8S 1234   5.917   1.568   4.446
    1PA     C17 1235   6.062   1.675   4.568
    1PA     H7R 1236   6.168   1.691   4.587
    1PA     H7S 1237   6.028   1.778   4.579
    1PA     C16 1238   5.998   1.598   4.684
    1PA     H6R 1239   5.889   1.604   4.674
    1PA     H6S 1240   6.020   1.491   4.680
    1PA     C15 1241   6.053   1.653   4.816
    1PA     H5R 1242   6.161   1.637   4.821
    1PA     H5S 1243   6.042   1.761   4.829
    1PA     C14 1244   5.973   1.590   4.930
    1PA     H4R 1245   5.865   1.605   4.924
    1PA     H4S 1246   5.991   1.483   4.917
    1PA     C13 1247   6.015   1.630   5.073
    1PA     H3R 1248   6.001   1.738   5.080
    1PA     H3S 1249   5.954   1.583   5.150
    1PA     C12 1250   6.164   1.602   5.098
    1PA     H2R 1251   6.193   1.497   5.099
    1PA     H2S 1252   6.224   1.644   5.017
    2PC     C11 1253   6.209   1.667   5.226
    2PC     O12 1254   6.175   1.620   5.333
    2PC     O11 1255   6.285   1.773   5.195
    2PC      C1 1256   6.343   1.841   5.308
    2PC      HR 1257   6.376   1.942   5.281
    2PC      HS 1258   6.267   1.841   5.386
    2PC      C2 1259   6.463   1.757   5.353
    2PC      HX 1260   6.437   1.659   5.395
    2PC      C3 1261   0.068   1.830   5.451
    2PC      HA 1262   0.137   1.756   5.493
    2PC      HB 1263   0.128   1.913   5.413
    2PC     O31 1264   6.479   1.869   5.566
    2PC     P31 1265   6.436   1.770   5.685
    2PC     O32 1266   0.029   1.833   5.808
    2PC     C31 1267   0.170   1.813   5.791
    2PC     H1A 1268   0.198   1.712   5.759
    2PC     H1B 1269   0.204   1.878   5.711
    2PC     C32 1270   0.232   1.840   5.929
    2PC     H2A 1271   0.337   1.811   5.930
    2PC     H2B 1272   0.242   1.949   5.935
    2PC     N31 1273   0.184   1.765   6.049
    2PC     C33 1274   0.147   1.622   6.020
    2PC     H3A 1275   0.225   1.574   5.960
    2PC     H3B 1276   0.121   1.575   6.114
    2PC     H3C 1277   0.053   1.615   5.965
    2PC     C34 1278   0.301   1.767   6.143
    2PC     H4A 1279   0.398   1.732   6.107
    2PC     H4B 1280   0.318   1.870   6.174
    2PC     H4C 1281   0.263   1.709   6.227
    2PC     C35 1282   0.066   1.830   6.115
    2PC     H5A 1283   6.472   1.819   6.045
    2PC     H5B 1284   0.105   1.930   6.137
    2PC     H5C 1285   0.042   1.771   6.203
    2PC     O33 1286   6.292   1.780   5.716
    2PC     O34 1287   6.477   1.629   5.669
    2PC     O21 1288   0.060   1.736   5.240
    2PC     C21 1289   0.051   1.623   5.167
    2PC     O22 1290   6.467   1.527   5.186
    3OL     C12 1291   0.155   1.609   5.059
    3OL     H2R 1292   0.198   1.509   5.054
    3OL     H2S 1293   0.231   1.680   5.089
    3OL     C13 1294   0.098   1.645   4.921
    3OL     H3R 1295   0.186   1.654   4.857
    3OL     H3S 1296   0.048   1.741   4.931
    3OL     C14 1297   0.016   1.527   4.867
    3OL     H4R 1298   6.417   1.508   4.930
    3OL     H4S 1299   0.077   1.436   4.866
    3OL     C15 1300   6.440   1.554   4.730
    3OL     H5R 1301   6.390   1.651   4.736
    3OL     H5S 1302   6.373   1.472   4.705
    3OL     C16 1303   0.060   1.564   4.622
    3OL     H6R 1304   0.114   1.469   4.623
    3OL     H6S 1305   0.129   1.646   4.641
    3OL     C17 1306   6.484   1.595   4.486
    3OL     H7R 1307   6.406   1.671   4.500
    3OL     H7S 1308   6.422   1.516   4.443
    3OL     C18 1309   0.098   1.639   4.382
    3OL     H8R 1310   0.151   1.723   4.428
    3OL     H8S 1311   0.043   1.678   4.296
    3OL     C19 1312   0.191   1.524   4.351
    3OL     H9R 1313   0.224   1.470   4.439
    3OL    C110 1314   0.227   1.482   4.231
    3OL    H10R 1315   0.295   1.398   4.226
    3OL    C111 1316   0.211   1.554   4.099
    3OL    H11R 1317   0.305   1.560   4.043
    3OL    H11S 1318   0.178   1.657   4.114
    3OL    C112 1319   0.115   1.481   4.003
    3OL    H12R 1320   0.015   1.464   4.044
    3OL    H12S 1321   0.154   1.380   3.987
    3OL    C113 1322   0.101   1.552   3.868
    3OL    H13R 1323   0.075   1.656   3.887
    3OL    H13S 1324   0.023   1.507   3.807
    3OL    C114 1325   0.230   1.540   3.786
    3OL    H14R 1326   0.260   1.435   3.787
    3OL    H14S 1327   0.309   1.600   3.833
    3OL    C115 1328   0.219   1.588   3.640
    3OL    H15R 1329   0.182   1.691   3.636
    3OL    H15S 1330   0.147   1.522   3.592
    3OL    C116 1331   0.350   1.600   3.561
    3OL    H16R 1332   0.421   1.669   3.608
    3OL    H16S 1333   0.325   1.644   3.465
    3OL    C117 1334   0.419   1.463   3.550
    3OL    H17R 1335   0.341   1.399   3.507
    3OL    H17S 1336   0.450   1.428   3.648
    3OL    C118 1337   0.533   1.470   3.447
    3OL    H18R 1338   0.599   1.553   3.476
    3OL    H18S 1339   0.490   1.492   3.350
    3OL    H18T 1340   0.588   1.376   3.437
    1PA    C116 1341   6.149   0.069   3.433
    1PA    H16R 1342   6.107   0.000   3.360
    1PA    H16S 1343   6.215   0.147   3.396
    1PA    H16T 1344   6.057   0.108   3.478
    1PA    C115 1345   6.221   6.471   3.537
    1PA    H15R 1346   6.144   6.403   3.575
    1PA    H15S 1347   6.313   6.428   3.495
    1PA    C114 1348   6.256   0.065   3.662
    1PA    H14R 1349   6.328   0.143   3.639
    1PA    H14S 1350   6.163   0.115   3.689
    1PA    C113 1351   6.299   6.479   3.789
    1PA    H13R 1352   6.215   6.416   3.820
    1PA    H13S 1353   6.395   6.428   3.777
    1PA    C112 1354   6.330   0.099   3.892
    1PA    H12R 1355   6.429   0.143   3.881
    1PA    H12S 1356   6.256   0.180   3.900
    1PA    C111 1357   6.337   0.042   4.035
    1PA    H11R 1358   6.246   6.481   4.069
    1PA    H11S 1359   6.429   6.473   4.035
    1PA    C110 1360   6.369   0.151   4.138
    1PA    H10R 1361   6.466   0.199   4.119
    1PA    H10S 1362   6.291   0.227   4.130
    1PA     C19 1363   6.368   0.098   4.282
    1PA     H9R 1364   6.267   0.067   4.308
    1PA     H9S 1365   6.429   0.008   4.282
    1PA     C18 1366   6.418   0.203   4.382
    1PA     H8R 1367   0.025   0.242   4.346
    1PA     H8S 1368   6.352   0.290   4.380
    1PA     C17 1369   6.422   0.163   4.530
    1PA     H7R 1370   6.320   0.143   4.563
    1PA     H7S 1371   6.480   0.070   4.528
    1PA     C16 1372   0.009   0.271   4.609
    1PA     H6R 1373   0.112   0.263   4.573
    1PA     H6S 1374   6.457   0.365   4.572
    1PA     C15 1375   6.487   0.241   4.759
    1PA     H5R 1376   6.382   0.244   4.788
    1PA     H5S 1377   0.035   0.139   4.777
    1PA     C14 1378   0.071   0.355   4.831
    1PA     H4R 1379   0.165   0.378   4.781
    1PA     H4S 1380   0.010   0.446   4.825
    1PA     C13 1381   0.108   0.334   4.978
    1PA     H3R 1382   0.157   0.424   5.014
    1PA     H3S 1383   0.019   0.307   5.034
    1PA     C12 1384   0.213   0.222   4.989
    1PA     H2R 1385   0.174   0.123   4.964
    1PA     H2S 1386   0.295   0.249   4.923
    2PC     C11 1387   0.268   0.221   5.130
    2PC     O12 1388   0.227   0.298   5.214
    2PC     O11 1389   0.359   0.125   5.152
    2PC      C1 1390   0.403   0.109   5.288
    2PC      HR 1391   0.424   0.205   5.336
    2PC      HS 1392   0.312   0.077   5.340
    2PC      C2 1393   0.521   0.012   5.309
    2PC      HX 1394   0.485   6.399   5.292
    2PC      C3 1395   0.581   0.009   5.450
    2PC      HA 1396   0.519   6.442   5.521
    2PC      HB 1397   0.683   6.459   5.455
    2PC     O31 1398   0.586   0.145   5.497
    2PC     P31 1399   0.653   0.186   5.637
    2PC     O32 1400   0.540   0.160   5.748
    2PC     C31 1401   0.540   0.036   5.821
    2PC     H1A 1402   0.518   6.441   5.755
    2PC     H1B 1403   0.637   0.015   5.867
    2PC     C32 1404   0.426   0.049   5.923
    2PC     H2A 1405   0.343   0.106   5.880
    2PC     H2B 1406   0.395   6.434   5.937
    2PC     N31 1407   0.466   0.097   6.059
    2PC     C33 1408   0.576   0.021   6.126
    2PC     H3A 1409   0.651   6.481   6.051
    2PC     H3B 1410   0.620   0.083   6.204
    2PC     H3C 1411   0.524   6.424   6.169
    2PC     C34 1412   0.511   0.240   6.050
    2PC     H4A 1413   0.534   0.287   6.145
    2PC     H4B 1414   0.596   0.246   5.981
    2PC     H4C 1415   0.430   0.294   6.002
    2PC     C35 1416   0.342   0.098   6.144
    2PC     H5A 1417   0.367   0.114   6.249
    2PC     H5B 1418   0.278   0.011   6.134
    2PC     H5C 1419   0.283   0.183   6.110
    2PC     O33 1420   0.777   0.113   5.671
    2PC     O34 1421   0.676   0.332   5.654
    2PC     O21 1422   0.623   0.052   5.215
    2PC     C21 1423   0.719   6.451   5.185
    2PC     O22 1424   0.726   6.335   5.222
    3OL     C12 1425   0.824   0.008   5.088
    3OL     H2R 1426   0.856   6.406   5.035
    3OL     H2S 1427   0.910   0.040   5.147
    3OL     C13 1428   0.777   0.125   5.001
    3OL     H3R 1429   0.864   0.145   4.938
    3OL     H3S 1430   0.761   0.208   5.070
    3OL     C14 1431   0.656   0.095   4.911
    3OL     H4R 1432   0.564   0.117   4.966
    3OL     H4S 1433   0.649   6.474   4.909
    3OL     C15 1434   0.667   0.165   4.775
    3OL     H5R 1435   0.756   0.135   4.719
    3OL     H5S 1436   0.669   0.273   4.788
    3OL     C16 1437   0.548   0.137   4.682
    3OL     H6R 1438   0.461   0.163   4.742
    3OL     H6S 1439   0.542   0.028   4.675
    3OL     C17 1440   0.560   0.226   4.558
    3OL     H7R 1441   0.657   0.194   4.519
    3OL     H7S 1442   0.566   0.331   4.587
    3OL     C18 1443   0.445   0.220   4.457
    3OL     H8R 1444   0.358   0.262   4.509
    3OL     H8S 1445   0.421   0.115   4.439
    3OL     C19 1446   0.483   0.294   4.331
    3OL     H9R 1447   0.589   0.292   4.311
    3OL    C110 1448   0.396   0.347   4.246
    3OL    H10R 1449   0.422   0.391   4.151
    3OL    C111 1450   0.246   0.351   4.267
    3OL    H11R 1451   0.217   0.359   4.372
    3OL    H11S 1452   0.197   0.262   4.229
    3OL    C112 1453   0.180   0.472   4.199
    3OL    H12R 1454   0.208   0.567   4.244
    3OL    H12S 1455   0.072   0.462   4.212
    3OL    C113 1456   0.212   0.478   4.049
    3OL    H13R 1457   0.191   0.378   4.009
    3OL    H13S 1458   0.315   0.505   4.029
    3OL    C114 1459   0.114   0.574   3.981
    3OL    H14R 1460   0.122   0.676   4.018
    3OL    H14S 1461   0.009   0.548   3.996
    3OL    C115 1462   0.141   0.580   3.830
    3OL    H15R 1463   0.044   0.614   3.794
    3OL    H15S 1464   0.153   0.482   3.783
    3OL    C116 1465   0.254   0.678   3.795
    3OL    H16R 1466   0.347   0.661   3.850
    3OL    H16S 1467   0.222   0.781   3.813
    3OL    C117 1468   0.288   0.663   3.646
    3OL    H17R 1469   0.310   0.559   3.619
    3OL    H17S 1470   0.383   0.715   3.629
    3OL    C118 1471   0.172   0.713   3.559
    3OL    H18R 1472   0.137   0.816   3.572
    3OL    H18S 1473   0.093   0.637   3.565
    3OL    H18T 1474   0.210   0.695   3.459
    1PA    C116 1475   0.687   5.582   3.919
    1PA    H16R 1476   0.673   5.491   3.861
    1PA    H16S 1477   0.756   5.639   3.855
    1PA    H16T 1478   0.591   5.631   3.932
    1PA    C115 1479   0.749   5.568   4.058
    1PA    H15R 1480   0.698   5.484   4.105
    1PA    H15S 1481   0.854   5.538   4.048
    1PA    C114 1482   0.731   5.697   4.140
    1PA    H14R 1483   0.791   5.774   4.090
    1PA    H14S 1484   0.629   5.735   4.133
    1PA    C113 1485   0.784   5.689   4.284
    1PA    H13R 1486   0.887   5.653   4.290
    1PA    H13S 1487   0.765   5.784   4.334
    1PA    C112 1488   0.696   5.594   4.368
    1PA    H12R 1489   0.591   5.621   4.381
    1PA    H12S 1490   0.707   5.494   4.326
    1PA    C111 1491   0.761   5.593   4.507
    1PA    H11R 1492   0.860   5.549   4.499
    1PA    H11S 1493   0.782   5.697   4.533
    1PA    C110 1494   0.667   5.521   4.605
    1PA    H10R 1495   0.569   5.569   4.599
    1PA    H10S 1496   0.645   5.421   4.566
    1PA     C19 1497   0.738   5.517   4.741
    1PA     H9R 1498   0.838   5.476   4.732
    1PA     H9S 1499   0.755   5.614   4.789
    1PA     C18 1500   0.666   5.417   4.832
    1PA     H8R 1501   0.576   5.459   4.878
    1PA     H8S 1502   0.631   5.326   4.782
    1PA     C17 1503   0.758   5.393   4.953
    1PA     H7R 1504   0.856   5.365   4.916
    1PA     H7S 1505   0.772   5.491   5.000
    1PA     C16 1506   0.709   5.295   5.061
    1PA     H6R 1507   0.762   5.308   5.156
    1PA     H6S 1508   0.602   5.311   5.074
    1PA     C15 1509   0.740   5.151   5.016
    1PA     H5R 1510   0.681   5.127   4.927
    1PA     H5S 1511   0.839   5.140   4.971
    1PA     C14 1512   0.716   5.052   5.130
    1PA     H4R 1513   0.630   5.089   5.186
    1PA     H4S 1514   0.692   4.952   5.094
    1PA     C13 1515   0.851   5.039   5.202
    1PA     H3R 1516   0.915   4.972   5.144
    1PA     H3S 1517   0.911   5.130   5.212
    1PA     C12 1518   0.833   4.973   5.340
    1PA     H2R 1519   0.777   5.033   5.411
    1PA     H2S 1520   0.775   4.882   5.324
    2PC     C11 1521   0.961   4.936   5.410
    2PC     O12 1522   0.964   4.915   5.530
    2PC     O11 1523   1.069   4.917   5.334
    2PC      C1 1524   1.184   4.842   5.380
    2PC      HR 1525   1.266   4.847   5.308
    2PC      HS 1526   1.218   4.885   5.474
    2PC      C2 1527   1.145   4.696   5.404
    2PC      HX 1528   1.075   4.681   5.487
    2PC      C3 1529   1.269   4.609   5.427
    2PC      HA 1530   1.291   4.621   5.533
    2PC      HB 1531   1.244   4.505   5.406
    2PC     O31 1532   1.380   4.644   5.341
    2PC     P31 1533   1.518   4.564   5.360
    2PC     O32 1534   1.620   4.670   5.296
    2PC     C31 1535   1.736   4.704   5.374
    2PC     H1A 1536   1.703   4.761   5.461
    2PC     H1B 1537   1.786   4.614   5.408
    2PC     C32 1538   1.826   4.789   5.283
    2PC     H2A 1539   1.924   4.803   5.330
    2PC     H2B 1540   1.849   4.726   5.196
    2PC     N31 1541   1.787   4.927   5.240
    2PC     C33 1542   1.811   5.028   5.347
    2PC     H3A 1543   1.919   5.033   5.362
    2PC     H3B 1544   1.782   5.126   5.310
    2PC     H3C 1545   1.763   5.006   5.443
    2PC     C34 1546   1.878   4.961   5.126
    2PC     H4A 1547   1.974   4.912   5.138
    2PC     H4B 1548   1.839   4.933   5.027
    2PC     H4C 1549   1.898   5.068   5.122
    2PC     C35 1550   1.647   4.940   5.187
    2PC     H5A 1551   1.581   4.936   5.273
    2PC     H5B 1552   1.629   4.857   5.118
    2PC     H5C 1553   1.644   5.041   5.145
    2PC     O33 1554   1.546   4.551   5.505
    2PC     O34 1555   1.525   4.426   5.307
    2PC     O21 1556   1.069   4.662   5.286
    2PC     C21 1557   0.972   4.570   5.289
    2PC     O22 1558   0.922   4.520   5.388
    3OL     C12 1559   0.925   4.527   5.152
    3OL     H2R 1560   0.959   4.424   5.143
    3OL     H2S 1561   0.980   4.573   5.070
    3OL     C13 1562   0.772   4.541   5.141
    3OL     H3R 1563   0.760   4.647   5.118
    3OL     H3S 1564   0.722   4.506   5.232
    3OL     C14 1565   0.710   4.449   5.035
    3OL     H4R 1566   0.723   4.349   5.079
    3OL     H4S 1567   0.760   4.450   4.938
    3OL     C15 1568   0.559   4.472   5.021
    3OL     H5R 1569   0.545   4.575   4.987
    3OL     H5S 1570   0.512   4.463   5.119
    3OL     C16 1571   0.499   4.376   4.918
    3OL     H6R 1572   0.391   4.387   4.930
    3OL     H6S 1573   0.517   4.268   4.929
    3OL     C17 1574   0.535   4.402   4.771
    3OL     H7R 1575   0.642   4.393   4.751
    3OL     H7S 1576   0.508   4.505   4.747
    3OL     C18 1577   0.463   4.305   4.675
    3OL     H8R 1578   0.355   4.308   4.692
    3OL     H8S 1579   0.487   4.201   4.699
    3OL     C19 1580   0.490   4.338   4.531
    3OL     H9R 1581   0.567   4.413   4.515
    3OL    C110 1582   0.433   4.271   4.432
    3OL    H10R 1583   0.460   4.289   4.328
    3OL    C111 1584   0.316   4.175   4.442
    3OL    H11R 1585   0.250   4.208   4.362
    3OL    H11S 1586   0.266   4.201   4.536
    3OL    C112 1587   0.369   4.033   4.418
    3OL    H12R 1588   0.432   4.021   4.506
    3OL    H12S 1589   0.437   4.029   4.332
    3OL    C113 1590   0.263   3.923   4.404
    3OL    H13R 1591   0.174   3.942   4.463
    3OL    H13S 1592   0.306   3.833   4.450
    3OL    C114 1593   0.225   3.895   4.258
    3OL    H14R 1594   0.315   3.873   4.200
    3OL    H14S 1595   0.190   3.985   4.206
    3OL    C115 1596   0.118   3.785   4.250
    3OL    H15R 1597   0.028   3.823   4.298
    3OL    H15S 1598   0.154   3.702   4.311
    3OL    C116 1599   0.095   3.749   4.102
    3OL    H16R 1600   0.187   3.721   4.051
    3OL    H16S 1601   0.047   3.834   4.053
    3OL    C117 1602   6.480   3.638   4.082
    3OL    H17R 1603   6.438   3.663   3.984
    3OL    H17S 1604   6.395   3.649   4.149
    3OL    C118 1605   0.045   3.496   4.103
    3OL    H18R 1606   6.456   3.421   4.117
    3OL    H18S 1607   0.096   3.500   4.200
    3OL    H18T 1608   0.109   3.462   4.022
    1PA    C116 1609   0.077   2.478   3.778
    1PA    H16R 1610   0.024   2.566   3.816
    1PA    H16S 1611   0.024   2.383   3.788
    1PA    H16T 1612   0.093   2.500   3.672
    1PA    C115 1613   0.199   2.448   3.867
    1PA    H15R 1614   0.253   2.364   3.823
    1PA    H15S 1615   0.269   2.531   3.874
    1PA    C114 1616   0.170   2.393   4.007
    1PA    H14R 1617   0.089   2.319   3.997
    1PA    H14S 1618   0.264   2.346   4.034
    1PA    C113 1619   0.122   2.498   4.108
    1PA    H13R 1620   0.200   2.574   4.109
    1PA    H13S 1621   0.026   2.548   4.097
    1PA    C112 1622   0.104   2.435   4.247
    1PA    H12R 1623   0.018   2.368   4.243
    1PA    H12S 1624   0.194   2.382   4.278
    1PA    C111 1625   0.069   2.546   4.348
    1PA    H11R 1626   0.138   2.630   4.349
    1PA    H11S 1627   6.466   2.595   4.313
    1PA    C110 1628   0.059   2.488   4.490
    1PA    H10R 1629   0.002   2.396   4.491
    1PA    H10S 1630   0.158   2.461   4.526
    1PA     C19 1631   6.483   2.583   4.592
    1PA     H9R 1632   0.032   2.685   4.590
    1PA     H9S 1633   6.376   2.593   4.573
    1PA     C18 1634   0.001   2.529   4.736
    1PA     H8R 1635   6.395   2.559   4.783
    1PA     H8S 1636   6.475   2.421   4.741
    1PA     C17 1637   0.115   2.593   4.815
    1PA     H7R 1638   0.213   2.583   4.768
    1PA     H7S 1639   0.107   2.702   4.816
    1PA     C16 1640   0.118   2.543   4.961
    1PA     H6R 1641   0.021   2.566   5.005
    1PA     H6S 1642   0.128   2.435   4.965
    1PA     C15 1643   0.235   2.607   5.036
    1PA     H5R 1644   0.326   2.568   4.990
    1PA     H5S 1645   0.225   2.714   5.020
    1PA     C14 1646   0.231   2.573   5.186
    1PA     H4R 1647   0.126   2.582   5.217
    1PA     H4S 1648   0.271   2.474   5.207
    1PA     C13 1649   0.304   2.674   5.276
    1PA     H3R 1650   0.399   2.694   5.227
    1PA     H3S 1651   0.268   2.776   5.265
    1PA     C12 1652   0.328   2.639   5.424
    1PA     H2R 1653   0.230   2.624   5.470
    1PA     H2S 1654   0.377   2.544   5.447
    2PC     C11 1655   0.414   2.736   5.500
    2PC     O12 1656   0.401   2.750   5.620
    2PC     O11 1657   0.507   2.787   5.417
    2PC      C1 1658   0.611   2.874   5.466
    2PC      HR 1659   0.643   2.846   5.567
    2PC      HS 1660   0.703   2.865   5.408
    2PC      C2 1661   0.567   3.021   5.465
    2PC      HX 1662   0.659   3.077   5.482
    2PC      C3 1663   0.471   3.044   5.582
    2PC      HA 1664   0.368   3.014   5.561
    2PC      HB 1665   0.488   2.973   5.664
    2PC     O31 1666   0.480   3.174   5.644
    2PC     P31 1667   0.612   3.211   5.727
    2PC     O32 1668   0.548   3.316   5.830
    2PC     C31 1669   0.591   3.452   5.810
    2PC     H1A 1670   0.699   3.468   5.820
    2PC     H1B 1671   0.566   3.478   5.707
    2PC     C32 1672   0.525   3.544   5.914
    2PC     H2A 1673   0.569   3.640   5.887
    2PC     H2B 1674   0.419   3.532   5.895
    2PC     N31 1675   0.553   3.521   6.060
    2PC     C33 1676   0.503   3.389   6.108
    2PC     H3A 1677   0.411   3.367   6.054
    2PC     H3B 1678   0.576   3.310   6.086
    2PC     H3C 1679   0.474   3.393   6.213
    2PC     C34 1680   0.699   3.543   6.082
    2PC     H4A 1681   0.724   3.631   6.023
    2PC     H4B 1682   0.713   3.556   6.189
    2PC     H4C 1683   0.760   3.457   6.050
    2PC     C35 1684   0.489   3.632   6.138
    2PC     H5A 1685   0.546   3.723   6.116
    2PC     H5B 1686   0.498   3.605   6.243
    2PC     H5C 1687   0.390   3.640   6.093
    2PC     O33 1688   0.669   3.098   5.803
    2PC     O34 1689   0.707   3.279   5.637
    2PC     O21 1690   0.497   3.063   5.346
    2PC     C21 1691   0.568   3.078   5.233
    2PC     O22 1692   0.688   3.065   5.228
    3OL     C12 1693   0.476   3.109   5.117
    3OL     H2R 1694   0.480   3.218   5.105
    3OL     H2S 1695   0.373   3.082   5.141
    3OL     C13 1696   0.514   3.025   4.994
    3OL     H3R 1697   0.502   2.919   5.016
    3OL     H3S 1698   0.621   3.043   4.979
    3OL     C14 1699   0.449   3.069   4.863
    3OL     H4R 1700   0.512   3.036   4.780
    3OL     H4S 1701   0.452   3.179   4.866
    3OL     C15 1702   0.306   3.012   4.858
    3OL     H5R 1703   0.244   3.045   4.941
    3OL     H5S 1704   0.319   2.904   4.862
    3OL     C16 1705   0.235   3.061   4.730
    3OL     H6R 1706   0.153   2.991   4.712
    3OL     H6S 1707   0.300   3.041   4.645
    3OL     C17 1708   0.196   3.209   4.726
    3OL     H7R 1709   0.284   3.267   4.752
    3OL     H7S 1710   0.126   3.216   4.810
    3OL     C18 1711   0.130   3.250   4.593
    3OL     H8R 1712   0.115   3.358   4.602
    3OL     H8S 1713   0.028   3.209   4.590
    3OL     C19 1714   0.207   3.223   4.466
    3OL     H9R 1715   0.194   3.125   4.420
    3OL    C110 1716   0.292   3.302   4.403
    3OL    H10R 1717   0.343   3.271   4.312
    3OL    C111 1718   0.341   3.433   4.460
    3OL    H11R 1719   0.263   3.477   4.522
    3OL    H11S 1720   0.354   3.499   4.374
    3OL    C112 1721   0.474   3.415   4.535
    3OL    H12R 1722   0.531   3.351   4.467
    3OL    H12S 1723   0.452   3.361   4.628
    3OL    C113 1724   0.556   3.543   4.559
    3OL    H13R 1725   0.654   3.513   4.597
    3OL    H13S 1726   0.520   3.606   4.640
    3OL    C114 1727   0.580   3.623   4.430
    3OL    H14R 1728   0.489   3.671   4.393
    3OL    H14S 1729   0.619   3.561   4.349
    3OL    C115 1730   0.689   3.721   4.476
    3OL    H15R 1731   0.783   3.676   4.509
    3OL    H15S 1732   0.655   3.783   4.559
    3OL    C116 1733   0.724   3.807   4.354
    3OL    H16R 1734   0.636   3.840   4.298
    3OL    H16S 1735   0.794   3.758   4.286
    3OL    C117 1736   0.795   3.934   4.401
    3OL    H17R 1737   0.853   3.976   4.319
    3OL    H17S 1738   0.875   3.909   4.471
    3OL    C118 1739   0.711   4.052   4.452
    3OL    H18R 1740   0.640   4.090   4.377
    3OL    H18S 1741   0.770   4.141   4.473
    3OL    H18T 1742   0.656   4.022   4.541
    1PA    C116 1743   0.782   3.129   4.713
    1PA    H16R 1744   0.741   3.051   4.778
    1PA    H16S 1745   0.790   3.078   4.617
    1PA    H16T 1746   0.704   3.204   4.702
    1PA    C115 1747   0.903   3.208   4.764
    1PA    H15R 1748   0.984   3.140   4.791
    1PA    H15S 1749   0.943   3.283   4.694
    1PA    C114 1750   0.865   3.292   4.886
    1PA    H14R 1751   0.847   3.224   4.970
    1PA    H14S 1752   0.953   3.343   4.926
    1PA    C113 1753   0.748   3.390   4.870
    1PA    H13R 1754   0.751   3.448   4.778
    1PA    H13S 1755   0.651   3.341   4.877
    1PA    C112 1756   0.748   3.483   4.993
    1PA    H12R 1757   0.741   3.420   5.082
    1PA    H12S 1758   0.837   3.546   4.992
    1PA    C111 1759   0.634   3.585   4.995
    1PA    H11R 1760   0.663   3.669   5.058
    1PA    H11S 1761   0.614   3.626   4.895
    1PA    C110 1762   0.507   3.515   5.046
    1PA    H10R 1763   0.481   3.429   4.984
    1PA    H10S 1764   0.530   3.487   5.149
    1PA     C19 1765   0.373   3.590   5.044
    1PA     H9R 1766   0.309   3.516   5.092
    1PA     H9S 1767   0.357   3.663   5.124
    1PA     C18 1768   0.306   3.621   4.909
    1PA     H8R 1769   0.326   3.533   4.847
    1PA     H8S 1770   0.201   3.631   4.935
    1PA     C17 1771   0.358   3.749   4.844
    1PA     H7R 1772   0.466   3.735   4.848
    1PA     H7S 1773   0.327   3.754   4.739
    1PA     C16 1774   0.293   3.866   4.918
    1PA     H6R 1775   0.185   3.853   4.916
    1PA     H6S 1776   0.310   3.869   5.026
    1PA     C15 1777   0.322   4.009   4.871
    1PA     H5R 1778   0.429   4.023   4.887
    1PA     H5S 1779   0.295   4.024   4.766
    1PA     C14 1780   0.245   4.123   4.940
    1PA     H4R 1781   0.252   4.214   4.880
    1PA     H4S 1782   0.139   4.100   4.937
    1PA     C13 1783   0.283   4.136   5.088
    1PA     H3R 1784   0.259   4.043   5.141
    1PA     H3S 1785   0.390   4.157   5.096
    1PA     C12 1786   0.205   4.251   5.153
    1PA     H2R 1787   0.214   4.345   5.098
    1PA     H2S 1788   0.096   4.238   5.154
    2PC     C11 1789   0.255   4.253   5.295
    2PC     O12 1790   0.189   4.217   5.390
    2PC     O11 1791   0.381   4.296   5.309
    2PC      C1 1792   0.449   4.276   5.434
    2PC      HR 1793   0.546   4.326   5.436
    2PC      HS 1794   0.387   4.318   5.514
    2PC      C2 1795   0.473   4.126   5.454
    2PC      HX 1796   0.379   4.072   5.443
    2PC      C3 1797   0.521   4.078   5.592
    2PC      HA 1798   0.444   4.093   5.668
    2PC      HB 1799   0.541   3.971   5.584
    2PC     O31 1800   0.644   4.145   5.623
    2PC     P31 1801   0.711   4.095   5.761
    2PC     O32 1802   0.818   3.979   5.734
    2PC     C31 1803   0.945   4.018   5.676
    2PC     H1A 1804   0.998   4.086   5.742
    2PC     H1B 1805   1.007   3.928   5.675
    2PC     C32 1806   0.914   4.067   5.534
    2PC     H2A 1807   0.862   3.992   5.473
    2PC     H2B 1808   0.853   4.158   5.531
    2PC     N31 1809   1.028   4.118   5.451
    2PC     C33 1810   1.076   4.240   5.524
    2PC     H3A 1811   1.146   4.290   5.456
    2PC     H3B 1812   0.995   4.296   5.569
    2PC     H3C 1813   1.129   4.196   5.608
    2PC     C34 1814   1.126   4.005   5.437
    2PC     H4A 1815   1.071   3.917   5.405
    2PC     H4B 1816   1.209   4.020   5.369
    2PC     H4C 1817   1.169   3.999   5.537
    2PC     C35 1818   0.978   4.172   5.321
    2PC     H5A 1819   1.069   4.207   5.273
    2PC     H5B 1820   0.908   4.255   5.337
    2PC     H5C 1821   0.940   4.088   5.263
    2PC     O33 1822   0.776   4.210   5.827
    2PC     O34 1823   0.619   4.042   5.864
    2PC     O21 1824   0.568   4.080   5.356
    2PC     C21 1825   0.566   3.955   5.306
    2PC     O22 1826   0.506   3.862   5.356
    3OL     C12 1827   0.659   3.941   5.189
    3OL     H2R 1828   0.615   3.868   5.121
    3OL     H2S 1829   0.756   3.904   5.224
    3OL     C13 1830   0.689   4.068   5.107
    3OL     H3R 1831   0.724   4.156   5.161
    3OL     H3S 1832   0.599   4.106   5.057
    3OL     C14 1833   0.793   4.037   4.999
    3OL     H4R 1834   0.874   3.973   5.033
    3OL     H4S 1835   0.846   4.129   4.975
    3OL     C15 1836   0.730   3.977   4.872
    3OL     H5R 1837   0.673   4.057   4.825
    3OL     H5S 1838   0.674   3.889   4.903
    3OL     C16 1839   0.834   3.936   4.766
    3OL     H6R 1840   0.904   4.019   4.760
    3OL     H6S 1841   0.780   3.923   4.672
    3OL     C17 1842   0.912   3.806   4.791
    3OL     H7R 1843   0.848   3.717   4.788
    3OL     H7S 1844   0.964   3.809   4.887
    3OL     C18 1845   1.035   3.782   4.703
    3OL     H8R 1846   1.097   3.871   4.718
    3OL     H8S 1847   1.005   3.792   4.598
    3OL     C19 1848   1.106   3.653   4.734
    3OL     H9R 1849   1.170   3.661   4.821
    3OL    C110 1850   1.089   3.537   4.673
    3OL    H10R 1851   1.142   3.448   4.708
    3OL    C111 1852   0.996   3.504   4.559
    3OL    H11R 1853   0.979   3.593   4.498
    3OL    H11S 1854   0.898   3.462   4.587
    3OL    C112 1855   1.064   3.406   4.462
    3OL    H12R 1856   1.097   3.312   4.506
    3OL    H12S 1857   1.149   3.460   4.419
    3OL    C113 1858   0.969   3.373   4.346
    3OL    H13R 1859   0.950   3.468   4.296
    3OL    H13S 1860   0.870   3.342   4.380
    3OL    C114 1861   1.033   3.268   4.254
    3OL    H14R 1862   1.048   3.173   4.305
    3OL    H14S 1863   1.134   3.301   4.229
    3OL    C115 1864   0.949   3.244   4.128
    3OL    H15R 1865   0.933   3.333   4.066
    3OL    H15S 1866   0.855   3.197   4.159
    3OL    C116 1867   1.017   3.151   4.027
    3OL    H16R 1868   1.051   3.055   4.066
    3OL    H16S 1869   1.109   3.197   3.990
    3OL    C117 1870   0.912   3.122   3.919
    3OL    H17R 1871   0.879   3.221   3.888
    3OL    H17S 1872   0.838   3.055   3.962
    3OL    C118 1873   0.979   3.055   3.798
    3OL    H18R 1874   0.977   2.946   3.804
    3OL    H18S 1875   1.082   3.090   3.789
    3OL    H18T 1876   0.911   3.077   3.715
    1PA    C116 1877   3.645   5.663   4.059
    1PA    H16R 1878   3.552   5.607   4.052
    1PA    H16S 1879   3.725   5.590   4.074
    1PA    H16T 1880   3.669   5.716   3.967
    1PA    C115 1881   3.629   5.758   4.179
    1PA    H15R 1882   3.524   5.789   4.175
    1PA    H15S 1883   3.646   5.712   4.276
    1PA    C114 1884   3.727   5.875   4.166
    1PA    H14R 1885   3.823   5.829   4.138
    1PA    H14S 1886   3.701   5.936   4.080
    1PA    C113 1887   3.740   5.953   4.297
    1PA    H13R 1888   3.642   5.992   4.323
    1PA    H13S 1889   3.768   5.894   4.385
    1PA    C112 1890   3.834   6.073   4.285
    1PA    H12R 1891   3.927   6.032   4.246
    1PA    H12S 1892   3.798   6.152   4.219
    1PA    C111 1893   3.846   6.136   4.425
    1PA    H11R 1894   3.752   6.187   4.444
    1PA    H11S 1895   3.870   6.068   4.507
    1PA    C110 1896   3.940   6.257   4.413
    1PA    H10R 1897   4.032   6.225   4.363
    1PA    H10S 1898   3.883   6.322   4.345
    1PA     C19 1899   3.969   6.324   4.548
    1PA     H9R 1900   4.001   6.426   4.526
    1PA     H9S 1901   3.879   6.333   4.609
    1PA     C18 1902   4.072   6.247   4.631
    1PA     H8R 1903   4.044   6.142   4.629
    1PA     H8S 1904   4.166   6.253   4.576
    1PA     C17 1905   4.067   6.307   4.772
    1PA     H7R 1906   4.164   6.316   4.823
    1PA     H7S 1907   4.033   6.410   4.770
    1PA     C16 1908   3.966   6.238   4.865
    1PA     H6R 1909   3.866   6.272   4.838
    1PA     H6S 1910   3.975   6.129   4.859
    1PA     C15 1911   3.993   6.257   5.015
    1PA     H5R 1912   4.090   6.217   5.044
    1PA     H5S 1913   4.009   6.362   5.041
    1PA     C14 1914   3.875   6.206   5.099
    1PA     H4R 1915   3.788   6.269   5.082
    1PA     H4S 1916   3.850   6.104   5.067
    1PA     C13 1917   3.915   6.200   5.247
    1PA     H3R 1918   3.887   6.105   5.294
    1PA     H3S 1919   4.023   6.200   5.265
    1PA     C12 1920   3.855   6.314   5.329
    1PA     H2R 1921   3.897   6.307   5.429
    1PA     H2S 1922   3.893   6.407   5.285
    2PC     C11 1923   3.704   6.302   5.338
    2PC     O12 1924   3.648   6.203   5.297
    2PC     O11 1925   3.644   6.413   5.385
    2PC      C1 1926   3.500   6.421   5.387
    2PC      HR 1927   3.466   6.429   5.284
    2PC      HS 1928   3.461   6.328   5.431
    2PC      C2 1929   3.455   0.059   5.462
    2PC      HX 1930   3.526   0.083   5.542
    2PC      C3 1931   3.314   0.031   5.515
    2PC      HA 1932   3.249   0.036   5.427
    2PC      HB 1933   3.301   6.418   5.553
    2PC     O31 1934   3.286   0.130   5.616
    2PC     P31 1935   3.145   0.129   5.691
    2PC     O32 1936   3.184   0.112   5.846
    2PC     C31 1937   3.262   6.488   5.889
    2PC     H1A 1938   3.217   6.394   5.854
    2PC     H1B 1939   3.357   6.481   5.834
    2PC     C32 1940   3.280   0.013   6.041
    2PC     H2A 1941   3.355   6.429   6.073
    2PC     H2B 1942   3.313   0.116   6.049
    2PC     N31 1943   3.172   6.478   6.142
    2PC     C33 1944   3.227   0.039   6.273
    2PC     H3A 1945   3.136   0.058   6.330
    2PC     H3B 1946   3.295   6.457   6.321
    2PC     H3C 1947   3.282   0.131   6.255
    2PC     C34 1948   3.056   0.080   6.112
    2PC     H4A 1949   2.992   0.052   6.029
    2PC     H4B 1950   2.997   0.104   6.201
    2PC     H4C 1951   3.109   0.172   6.088
    2PC     C35 1952   3.130   6.334   6.143
    2PC     H5A 1953   3.215   6.283   6.187
    2PC     H5B 1954   3.116   6.307   6.038
    2PC     H5C 1955   3.049   6.316   6.213
    2PC     O33 1956   3.068   0.256   5.682
    2PC     O34 1957   3.061   0.016   5.644
    2PC     O21 1958   3.427   0.159   5.362
    2PC     C21 1959   3.425   0.290   5.392
    2PC     O22 1960   3.453   0.334   5.501
    3OL     C12 1961   3.399   0.373   5.268
    3OL     H2R 1962   3.299   0.357   5.225
    3OL     H2S 1963   3.463   0.324   5.195
    3OL     C13 1964   3.452   0.516   5.281
    3OL     H3R 1965   3.560   0.512   5.300
    3OL     H3S 1966   3.412   0.578   5.361
    3OL     C14 1967   3.434   0.587   5.146
    3OL     H4R 1968   3.419   0.692   5.170
    3OL     H4S 1969   3.338   0.555   5.106
    3OL     C15 1970   3.539   0.571   5.034
    3OL     H5R 1971   3.550   0.466   5.005
    3OL     H5S 1972   3.637   0.605   5.066
    3OL     C16 1973   3.492   0.654   4.914
    3OL     H6R 1974   3.384   0.650   4.896
    3OL     H6S 1975   3.538   0.624   4.820
    3OL     C17 1976   3.534   0.800   4.934
    3OL     H7R 1977   3.642   0.802   4.952
    3OL     H7S 1978   3.482   0.845   5.019
    3OL     C18 1979   3.506   0.875   4.804
    3OL     H8R 1980   3.397   0.868   4.813
    3OL     H8S 1981   3.531   0.820   4.713
    3OL     C19 1982   3.559   1.017   4.799
    3OL     H9R 1983   3.553   1.074   4.891
    3OL    C110 1984   3.626   1.060   4.694
    3OL    H10R 1985   3.657   1.164   4.683
    3OL    C111 1986   3.640   0.987   4.562
    3OL    H11R 1987   3.554   0.928   4.530
    3OL    H11S 1988   3.724   0.918   4.570
    3OL    C112 1989   3.660   1.084   4.444
    3OL    H12R 1990   3.745   1.150   4.463
    3OL    H12S 1991   3.570   1.146   4.443
    3OL    C113 1992   3.661   1.001   4.315
    3OL    H13R 1993   3.626   1.065   4.235
    3OL    H13S 1994   3.587   0.920   4.319
    3OL    C114 1995   3.802   0.941   4.300
    3OL    H14R 1996   3.834   0.887   4.389
    3OL    H14S 1997   3.872   1.025   4.298
    3OL    C115 1998   3.814   0.853   4.174
    3OL    H15R 1999   3.731   0.782   4.167
    3OL    H15S 2000   3.909   0.802   4.185
    3OL    C116 2001   3.794   0.936   4.046
    3OL    H16R 2002   3.868   1.015   4.035
    3OL    H16S 2003   3.701   0.994   4.051
    3OL    C117 2004   3.804   0.851   3.919
    3OL    H17R 2005   3.736   0.766   3.927
    3OL    H17S 2006   3.904   0.807   3.910
    3OL    C118 2007   3.752   0.935   3.802
    3OL    H18R 2008   3.645   0.953   3.814
    3OL    H18S 2009   3.773   0.888   3.706
    3OL    H18T 2010   3.799   1.033   3.809
    1PA    C116 2011   2.632   2.201   4.088
    1PA    H16R 2012   2.692   2.127   4.143
    1PA    H16S 2013   2.683   2.297   4.079
    1PA    H16T 2014   2.611   2.174   3.985
    1PA    C115 2015   2.503   2.217   4.169
    1PA    H15R 2016   2.470   2.320   4.154
    1PA    H15S 2017   2.436   2.136   4.144
    1PA    C114 2018   2.528   2.226   4.320
    1PA    H14R 2019   2.431   2.228   4.372
    1PA    H14S 2020   2.575   2.131   4.348
    1PA    C113 2021   2.618   2.344   4.360
    1PA    H13R 2022   2.602   2.441   4.314
    1PA    H13S 2023   2.591   2.377   4.460
    1PA    C112 2024   2.767   2.309   4.363
    1PA    H12R 2025   2.791   2.208   4.397
    1PA    H12S 2026   2.802   2.303   4.259
    1PA    C111 2027   2.851   2.426   4.416
    1PA    H11R 2028   2.832   2.525   4.375
    1PA    H11S 2029   2.831   2.417   4.523
    1PA    C110 2030   3.001   2.409   4.389
    1PA    H10R 2031   3.035   2.306   4.381
    1PA    H10S 2032   3.024   2.464   4.297
    1PA     C19 2033   3.090   2.466   4.500
    1PA     H9R 2034   3.086   2.403   4.589
    1PA     H9S 2035   3.189   2.471   4.454
    1PA     C18 2036   3.052   2.611   4.531
    1PA     H8R 2037   3.046   2.665   4.436
    1PA     H8S 2038   2.955   2.615   4.582
    1PA     C17 2039   3.163   2.678   4.614
    1PA     H7R 2040   3.258   2.702   4.567
    1PA     H7S 2041   3.125   2.780   4.620
    1PA     C16 2042   3.177   2.603   4.747
    1PA     H6R 2043   3.092   2.606   4.816
    1PA     H6S 2044   3.209   2.502   4.723
    1PA     C15 2045   3.277   2.676   4.838
    1PA     H5R 2046   3.372   2.693   4.788
    1PA     H5S 2047   3.234   2.771   4.869
    1PA     C14 2048   3.303   2.596   4.966
    1PA     H4R 2049   3.212   2.575   5.023
    1PA     H4S 2050   3.343   2.498   4.938
    1PA     C13 2051   3.393   2.678   5.060
    1PA     H3R 2052   3.486   2.692   5.005
    1PA     H3S 2053   3.349   2.772   5.094
    1PA     C12 2054   3.424   2.582   5.176
    1PA     H2R 2055   3.340   2.520   5.208
    1PA     H2S 2056   3.510   2.522   5.145
    2PC     C11 2057   3.470   2.660   5.297
    2PC     O12 2058   3.575   2.642   5.353
    2PC     O11 2059   3.371   2.740   5.340
    2PC      C1 2060   3.388   2.828   5.453
    2PC      HR 2061   3.292   2.878   5.467
    2PC      HS 2062   3.423   2.763   5.534
    2PC      C2 2063   3.486   2.943   5.427
    2PC      HX 2064   3.578   2.905   5.381
    2PC      C3 2065   3.535   3.013   5.555
    2PC      HA 2066   3.571   2.929   5.616
    2PC      HB 2067   3.626   3.072   5.540
    2PC     O31 2068   3.426   3.087   5.613
    2PC     P31 2069   3.443   3.169   5.749
    2PC     O32 2070   3.541   3.284   5.695
    2PC     C31 2071   3.478   3.397   5.633
    2PC     H1A 2072   3.437   3.361   5.539
    2PC     H1B 2073   3.398   3.429   5.700
    2PC     C32 2074   3.578   3.513   5.614
    2PC     H2A 2075   3.530   3.597   5.564
    2PC     H2B 2076   3.622   3.551   5.706
    2PC     N31 2077   3.703   3.502   5.532
    2PC     C33 2078   3.664   3.468   5.391
    2PC     H3A 2079   3.593   3.544   5.359
    2PC     H3B 2080   3.744   3.461   5.317
    2PC     H3C 2081   3.607   3.375   5.396
    2PC     C34 2082   3.782   3.629   5.532
    2PC     H4A 2083   3.827   3.642   5.630
    2PC     H4B 2084   3.863   3.616   5.460
    2PC     H4C 2085   3.719   3.715   5.506
    2PC     C35 2086   3.794   3.398   5.590
    2PC     H5A 2087   3.741   3.303   5.581
    2PC     H5B 2088   3.812   3.428   5.694
    2PC     H5C 2089   3.878   3.399   5.520
    2PC     O33 2090   3.318   3.193   5.825
    2PC     O34 2091   3.518   3.081   5.842
    2PC     O21 2092   3.430   3.050   5.348
    2PC     C21 2093   3.506   3.148   5.296
    2PC     O22 2094   3.627   3.148   5.304
    3OL     C12 2095   3.436   3.261   5.225
    3OL     H2R 2096   3.518   3.314   5.176
    3OL     H2S 2097   3.371   3.325   5.285
    3OL     C13 2098   3.356   3.200   5.109
    3OL     H3R 2099   3.278   3.133   5.145
    3OL     H3S 2100   3.414   3.139   5.040
    3OL     C14 2101   3.292   3.307   5.019
    3OL     H4R 2102   3.237   3.373   5.086
    3OL     H4S 2103   3.222   3.255   4.954
    3OL     C15 2104   3.390   3.377   4.924
    3OL     H5R 2105   3.441   3.307   4.858
    3OL     H5S 2106   3.474   3.416   4.983
    3OL     C16 2107   3.313   3.472   4.831
    3OL     H6R 2108   3.261   3.543   4.895
    3OL     H6S 2109   3.239   3.422   4.769
    3OL     C17 2110   3.398   3.551   4.731
    3OL     H7R 2111   3.433   3.629   4.799
    3OL     H7S 2112   3.330   3.603   4.663
    3OL     C18 2113   3.512   3.475   4.662
    3OL     H8R 2114   3.460   3.400   4.601
    3OL     H8S 2115   3.566   3.421   4.740
    3OL     C19 2116   3.604   3.566   4.586
    3OL     H9R 2117   3.628   3.660   4.634
    3OL    C110 2118   3.657   3.539   4.467
    3OL    H10R 2119   3.721   3.616   4.425
    3OL    C111 2120   3.633   3.425   4.371
    3OL    H11R 2121   3.578   3.346   4.424
    3OL    H11S 2122   3.730   3.382   4.346
    3OL    C112 2123   3.571   3.468   4.238
    3OL    H12R 2124   3.565   3.375   4.181
    3OL    H12S 2125   3.634   3.540   4.186
    3OL    C113 2126   3.434   3.535   4.257
    3OL    H13R 2127   3.409   3.566   4.155
    3OL    H13S 2128   3.444   3.622   4.321
    3OL    C114 2129   3.315   3.449   4.302
    3OL    H14R 2130   3.343   3.395   4.393
    3OL    H14S 2131   3.286   3.375   4.227
    3OL    C115 2132   3.189   3.534   4.329
    3OL    H15R 2133   3.150   3.591   4.245
    3OL    H15S 2134   3.212   3.611   4.402
    3OL    C116 2135   3.077   3.441   4.377
    3OL    H16R 2136   3.060   3.350   4.319
    3OL    H16S 2137   2.988   3.504   4.375
    3OL    C117 2138   3.086   3.396   4.524
    3OL    H17R 2139   3.097   3.483   4.589
    3OL    H17S 2140   3.171   3.329   4.540
    3OL    C118 2141   2.960   3.321   4.569
    3OL    H18R 2142   2.868   3.376   4.549
    3OL    H18S 2143   2.969   3.286   4.672
    3OL    H18T 2144   2.963   3.227   4.513
    1PA    C116 2145   4.885   2.413   3.692
    1PA    H16R 2146   4.931   2.512   3.684
    1PA    H16S 2147   4.835   2.399   3.596
    1PA    H16T 2148   4.963   2.337   3.707
    1PA    C115 2149   4.782   2.402   3.805
    1PA    H15R 2150   4.696   2.467   3.788
    1PA    H15S 2151   4.745   2.299   3.804
    1PA    C114 2152   4.842   2.432   3.943
    1PA    H14R 2153   4.938   2.381   3.954
    1PA    H14S 2154   4.875   2.536   3.949
    1PA    C113 2155   4.739   2.396   4.052
    1PA    H13R 2156   4.646   2.449   4.032
    1PA    H13S 2157   4.718   2.289   4.043
    1PA    C112 2158   4.802   2.423   4.189
    1PA    H12R 2159   4.907   2.392   4.193
    1PA    H12S 2160   4.806   2.530   4.210
    1PA    C111 2161   4.709   2.365   4.296
    1PA    H11R 2162   4.610   2.408   4.281
    1PA    H11S 2163   4.701   2.256   4.295
    1PA    C110 2164   4.766   2.397   4.436
    1PA    H10R 2165   4.868   2.357   4.438
    1PA    H10S 2166   4.772   2.501   4.468
    1PA     C19 2167   4.681   2.317   4.536
    1PA     H9R 2168   4.587   2.371   4.546
    1PA     H9S 2169   4.661   2.212   4.514
    1PA     C18 2170   4.752   2.320   4.672
    1PA     H8R 2171   4.853   2.282   4.657
    1PA     H8S 2172   4.767   2.418   4.717
    1PA     C17 2173   4.673   2.237   4.775
    1PA     H7R 2174   4.566   2.257   4.768
    1PA     H7S 2175   4.673   2.131   4.749
    1PA     C16 2176   4.710   2.261   4.922
    1PA     H6R 2177   4.809   2.218   4.943
    1PA     H6S 2178   4.709   2.368   4.939
    1PA     C15 2179   4.614   2.191   5.019
    1PA     H5R 2180   4.530   2.259   5.034
    1PA     H5S 2181   4.591   2.093   4.974
    1PA     C14 2182   4.684   2.160   5.152
    1PA     H4R 2183   4.776   2.102   5.137
    1PA     H4S 2184   4.708   2.258   5.193
    1PA     C13 2185   4.602   2.100   5.267
    1PA     H3R 2186   4.504   2.145   5.252
    1PA     H3S 2187   4.596   1.991   5.266
    1PA     C12 2188   4.647   2.138   5.409
    1PA     H2R 2189   4.749   2.102   5.425
    1PA     H2S 2190   4.645   2.247   5.403
    2PC     C11 2191   4.550   2.073   5.504
    2PC     O12 2192   4.429   2.085   5.499
    2PC     O11 2193   4.628   2.024   5.602
    2PC      C1 2194   4.565   1.969   5.719
    2PC      HR 2195   4.504   2.045   5.770
    2PC      HS 2196   4.485   1.898   5.696
    2PC      C2 2197   4.674   1.908   5.807
    2PC      HX 2198   4.631   1.845   5.886
    2PC      C3 2199   4.759   2.014   5.877
    2PC      HA 2200   4.828   2.063   5.807
    2PC      HB 2201   4.690   2.091   5.911
    2PC     O31 2202   4.833   1.965   5.991
    2PC     P31 2203   4.958   2.053   6.038
    2PC     O32 2204   5.016   1.954   6.149
    2PC     C31 2205   4.963   1.956   6.282
    2PC     H1A 2206   5.021   2.023   6.347
    2PC     H1B 2207   4.864   2.003   6.287
    2PC     C32 2208   4.958   1.819   6.351
    2PC     H2A 2209   5.061   1.783   6.362
    2PC     H2B 2210   4.901   1.823   6.444
    2PC     N31 2211   4.884   1.711   6.277
    2PC     C33 2212   4.941   1.679   6.142
    2PC     H3A 2213   4.877   1.596   6.111
    2PC     H3B 2214   4.939   1.771   6.084
    2PC     H3C 2215   5.047   1.661   6.158
    2PC     C34 2216   4.894   1.587   6.360
    2PC     H4A 2217   5.000   1.559   6.363
    2PC     H4B 2218   4.851   1.620   6.454
    2PC     H4C 2219   4.838   1.505   6.315
    2PC     C35 2220   4.740   1.750   6.260
    2PC     H5A 2221   4.747   1.845   6.207
    2PC     H5B 2222   4.695   1.781   6.354
    2PC     H5C 2223   4.694   1.664   6.211
    2PC     O33 2224   5.055   2.090   5.932
    2PC     O34 2225   4.922   2.184   6.098
    2PC     O21 2226   4.763   1.830   5.725
    2PC     C21 2227   4.716   1.720   5.662
    2PC     O22 2228   4.611   1.667   5.692
    3OL     C12 2229   4.807   1.664   5.556
    3OL     H2R 2230   4.789   1.557   5.541
    3OL     H2S 2231   4.912   1.678   5.583
    3OL     C13 2232   4.784   1.737   5.423
    3OL     H3R 2233   4.770   1.844   5.435
    3OL     H3S 2234   4.690   1.702   5.380
    3OL     C14 2235   4.898   1.710   5.323
    3OL     H4R 2236   4.896   1.607   5.286
    3OL     H4S 2237   5.000   1.729   5.357
    3OL     C15 2238   4.887   1.793   5.194
    3OL     H5R 2239   4.969   1.773   5.125
    3OL     H5S 2240   4.896   1.900   5.215
    3OL     C16 2241   4.749   1.762   5.133
    3OL     H6R 2242   4.680   1.812   5.202
    3OL     H6S 2243   4.725   1.656   5.133
    3OL     C17 2244   4.729   1.819   4.992
    3OL     H7R 2245   4.817   1.789   4.936
    3OL     H7S 2246   4.732   1.928   4.992
    3OL     C18 2247   4.600   1.766   4.927
    3OL     H8R 2248   4.513   1.797   4.986
    3OL     H8S 2249   4.611   1.658   4.914
    3OL     C19 2250   4.597   1.807   4.782
    3OL     H9R 2251   4.669   1.886   4.761
    3OL    C110 2252   4.535   1.742   4.684
    3OL    H10R 2253   4.552   1.759   4.578
    3OL    C111 2254   4.434   1.632   4.700
    3OL    H11R 2255   4.346   1.636   4.635
    3OL    H11S 2256   4.397   1.640   4.803
    3OL    C112 2257   4.501   1.494   4.689
    3OL    H12R 2258   4.603   1.499   4.727
    3OL    H12S 2259   4.521   1.475   4.583
    3OL    C113 2260   4.438   1.389   4.781
    3OL    H13R 2261   4.405   1.435   4.875
    3OL    H13S 2262   4.500   1.299   4.795
    3OL    C114 2263   4.310   1.341   4.712
    3OL    H14R 2264   4.335   1.336   4.606
    3OL    H14S 2265   4.229   1.414   4.725
    3OL    C115 2266   4.262   1.201   4.753
    3OL    H15R 2267   4.249   1.192   4.861
    3OL    H15S 2268   4.347   1.136   4.731
    3OL    C116 2269   4.138   1.157   4.674
    3OL    H16R 2270   4.169   1.129   4.573
    3OL    H16S 2271   4.057   1.230   4.674
    3OL    C117 2272   4.087   1.028   4.740
    3OL    H17R 2273   4.069   1.047   4.846
    3OL    H17S 2274   4.161   0.948   4.738
    3OL    C118 2275   3.958   0.973   4.676
    3OL    H18R 2276   3.930   0.880   4.727
    3OL    H18S 2277   3.973   0.964   4.568
    3OL    H18T 2278   3.874   1.038   4.699
    1PA    C116 2279   6.145   2.422   4.100
    1PA    H16R 2280   6.148   2.322   4.055
    1PA    H16S 2281   6.191   2.426   4.199
    1PA    H16T 2282   6.207   2.489   4.040
    1PA    C115 2283   6.000   2.465   4.121
    1PA    H15R 2284   6.003   2.559   4.177
    1PA    H15S 2285   5.964   2.487   4.020
    1PA    C114 2286   5.907   2.366   4.193
    1PA    H14R 2287   5.807   2.407   4.174
    1PA    H14S 2288   5.918   2.277   4.130
    1PA    C113 2289   5.927   2.347   4.343
    1PA    H13R 2290   5.897   2.245   4.368
    1PA    H13S 2291   6.031   2.351   4.377
    1PA    C112 2292   5.851   2.459   4.415
    1PA    H12R 2293   5.884   2.557   4.381
    1PA    H12S 2294   5.746   2.470   4.387
    1PA    C111 2295   5.851   2.459   4.569
    1PA    H11R 2296   5.776   2.532   4.600
    1PA    H11S 2297   5.796   2.373   4.608
    1PA    C110 2298   5.985   2.494   4.635
    1PA    H10R 2299   6.064   2.440   4.582
    1PA    H10S 2300   6.004   2.601   4.624
    1PA     C19 2301   5.978   2.472   4.786
    1PA     H9R 2302   5.887   2.524   4.817
    1PA     H9S 2303   5.967   2.367   4.813
    1PA     C18 2304   6.101   2.539   4.849
    1PA     H8R 2305   6.189   2.482   4.820
    1PA     H8S 2306   6.104   2.642   4.812
    1PA     C17 2307   6.102   2.534   5.002
    1PA     H7R 2308   6.003   2.558   5.040
    1PA     H7S 2309   6.101   2.427   5.024
    1PA     C16 2310   6.209   2.610   5.081
    1PA     H6R 2311   6.307   2.566   5.062
    1PA     H6S 2312   6.200   2.717   5.058
    1PA     C15 2313   6.196   2.601   5.234
    1PA     H5R 2314   6.095   2.634   5.260
    1PA     H5S 2315   6.215   2.497   5.262
    1PA     C14 2316   6.288   2.701   5.305
    1PA     H4R 2317   6.387   2.681   5.263
    1PA     H4S 2318   6.258   2.804   5.284
    1PA     C13 2319   6.291   2.679   5.456
    1PA     H3R 2320   6.194   2.711   5.494
    1PA     H3S 2321   6.299   2.575   5.487
    1PA     C12 2322   6.406   2.754   5.526
    1PA     H2R 2323   0.016   2.717   5.495
    1PA     H2S 2324   6.401   2.862   5.512
    2PC     C11 2325   6.397   2.732   5.675
    2PC     O12 2326   6.396   2.826   5.751
    2PC     O11 2327   6.392   2.602   5.709
    2PC      C1 2328   6.385   2.569   5.848
    2PC      HR 2329   6.395   2.460   5.858
    2PC      HS 2330   6.474   2.615   5.891
    2PC      C2 2331   6.244   2.599   5.900
    2PC      HX 2332   6.229   2.708   5.902
    2PC      C3 2333   6.247   2.556   6.047
    2PC      HA 2334   6.252   2.448   6.064
    2PC      HB 2335   6.333   2.595   6.102
    2PC     O31 2336   6.123   2.603   6.103
    2PC     P31 2337   6.074   2.582   6.254
    2PC     O32 2338   6.014   2.433   6.256
    2PC     C31 2339   5.917   2.407   6.153
    2PC     H1A 2340   5.845   2.486   6.135
    2PC     H1B 2341   5.968   2.382   6.059
    2PC     C32 2342   5.846   2.274   6.185
    2PC     H2A 2343   5.762   2.273   6.115
    2PC     H2B 2344   5.916   2.194   6.160
    2PC     N31 2345   5.783   2.259   6.320
    2PC     C33 2346   5.693   2.140   6.303
    2PC     H3A 2347   5.754   2.061   6.258
    2PC     H3B 2348   5.657   2.113   6.402
    2PC     H3C 2349   5.610   2.172   6.240
    2PC     C34 2350   5.886   2.236   6.427
    2PC     H4A 2351   5.828   2.174   6.495
    2PC     H4B 2352   5.966   2.179   6.380
    2PC     H4C 2353   5.912   2.328   6.481
    2PC     C35 2354   5.707   2.379   6.367
    2PC     H5A 2355   5.667   2.349   6.464
    2PC     H5B 2356   5.629   2.404   6.295
    2PC     H5C 2357   5.771   2.467   6.376
    2PC     O33 2358   6.192   2.595   6.342
    2PC     O34 2359   5.974   2.680   6.299
    2PC     O21 2360   6.136   2.533   5.832
    2PC     C21 2361   6.073   2.598   5.733
    2PC     O22 2362   6.091   2.717   5.716
    3OL     C12 2363   6.013   2.502   5.633
    3OL     H2R 2364   5.957   2.427   5.689
    3OL     H2S 2365   6.096   2.456   5.580
    3OL     C13 2366   5.918   2.567   5.531
    3OL     H3R 2367   5.968   2.636   5.463
    3OL     H3S 2368   5.845   2.630   5.583
    3OL     C14 2369   5.848   2.465   5.440
    3OL     H4R 2370   5.780   2.399   5.495
    3OL     H4S 2371   5.921   2.395   5.399
    3OL     C15 2372   5.771   2.546   5.335
    3OL     H5R 2373   5.841   2.613   5.284
    3OL     H5S 2374   5.685   2.602   5.372
    3OL     C16 2375   5.712   2.458   5.224
    3OL     H6R 2376   5.665   2.368   5.264
    3OL     H6S 2377   5.798   2.437   5.160
    3OL     C17 2378   5.611   2.536   5.139
    3OL     H7R 2379   5.663   2.611   5.079
    3OL     H7S 2380   5.548   2.588   5.211
    3OL     C18 2381   5.518   2.438   5.067
    3OL     H8R 2382   5.435   2.493   5.021
    3OL     H8S 2383   5.475   2.370   5.140
    3OL     C19 2384   5.584   2.351   4.963
    3OL     H9R 2385   5.646   2.270   4.998
    3OL    C110 2386   5.585   2.385   4.834
    3OL    H10R 2387   5.632   2.317   4.764
    3OL    C111 2388   5.502   2.493   4.770
    3OL    H11R 2389   5.577   2.550   4.716
    3OL    H11S 2390   5.459   2.560   4.845
    3OL    C112 2391   5.398   2.453   4.664
    3OL    H12R 2392   5.355   2.542   4.618
    3OL    H12S 2393   5.323   2.389   4.712
    3OL    C113 2394   5.457   2.371   4.548
    3OL    H13R 2395   5.515   2.286   4.583
    3OL    H13S 2396   5.531   2.428   4.493
    3OL    C114 2397   5.348   2.315   4.455
    3OL    H14R 2398   5.395   2.262   4.372
    3OL    H14S 2399   5.283   2.392   4.414
    3OL    C115 2400   5.254   2.210   4.517
    3OL    H15R 2401   5.220   2.247   4.614
    3OL    H15S 2402   5.312   2.120   4.539
    3OL    C116 2403   5.142   2.188   4.414
    3OL    H16R 2404   5.174   2.176   4.311
    3OL    H16S 2405   5.080   2.277   4.402
    3OL    C117 2406   5.052   2.070   4.454
    3OL    H17R 2407   5.023   2.098   4.555
    3OL    H17S 2408   5.096   1.970   4.449
    3OL    C118 2409   4.929   2.046   4.364
    3OL    H18R 2410   4.960   1.984   4.280
    3OL    H18S 2411   4.893   2.141   4.325
    3OL    H18T 2412   4.846   2.004   4.421
    1PA    C116 2413   5.107   1.578   3.821
    1PA    H16R 2414   5.027   1.581   3.747
    1PA    H16S 2415   5.169   1.668   3.818
    1PA    H16T 2416   5.054   1.590   3.915
    1PA    C115 2417   5.200   1.456   3.826
    1PA    H15R 2418   5.243   1.429   3.730
    1PA    H15S 2419   5.288   1.484   3.884
    1PA    C114 2420   5.133   1.336   3.895
    1PA    H14R 2421   5.027   1.333   3.869
    1PA    H14S 2422   5.171   1.242   3.855
    1PA    C113 2423   5.150   1.344   4.047
    1PA    H13R 2424   5.255   1.366   4.069
    1PA    H13S 2425   5.093   1.429   4.085
    1PA    C112 2426   5.105   1.212   4.113
    1PA    H12R 2427   5.001   1.199   4.084
    1PA    H12S 2428   5.159   1.123   4.079
    1PA    C111 2429   5.118   1.226   4.265
    1PA    H11R 2430   5.074   1.322   4.292
    1PA    H11S 2431   5.058   1.147   4.311
    1PA    C110 2432   5.259   1.201   4.320
    1PA    H10R 2433   5.294   1.106   4.278
    1PA    H10S 2434   5.325   1.280   4.284
    1PA     C19 2435   5.261   1.186   4.473
    1PA     H9R 2436   5.197   1.098   4.488
    1PA     H9S 2437   5.362   1.153   4.498
    1PA     C18 2438   5.236   1.316   4.551
    1PA     H8R 2439   5.308   1.393   4.526
    1PA     H8S 2440   5.139   1.355   4.518
    1PA     C17 2441   5.235   1.292   4.702
    1PA     H7R 2442   5.173   1.206   4.730
    1PA     H7S 2443   5.341   1.276   4.723
    1PA     C16 2444   5.188   1.413   4.786
    1PA     H6R 2445   5.252   1.499   4.765
    1PA     H6S 2446   5.089   1.441   4.751
    1PA     C15 2447   5.189   1.377   4.935
    1PA     H5R 2448   5.117   1.295   4.948
    1PA     H5S 2449   5.290   1.351   4.966
    1PA     C14 2450   5.144   1.489   5.030
    1PA     H4R 2451   5.220   1.566   5.021
    1PA     H4S 2452   5.053   1.543   5.000
    1PA     C13 2453   5.123   1.439   5.174
    1PA     H3R 2454   5.056   1.513   5.218
    1PA     H3S 2455   5.078   1.340   5.174
    1PA     C12 2456   5.245   1.435   5.267
    1PA     H2R 2457   5.287   1.335   5.281
    1PA     H2S 2458   5.315   1.511   5.231
    2PC     C11 2459   5.219   1.482   5.407
    2PC     O12 2460   5.221   1.601   5.431
    2PC     O11 2461   5.209   1.379   5.493
    2PC      C1 2462   5.202   1.396   5.636
    2PC      HR 2463   5.297   1.446   5.658
    2PC      HS 2464   5.119   1.460   5.665
    2PC      C2 2465   5.198   1.258   5.702
    2PC      HX 2466   5.207   1.259   5.811
    2PC      C3 2467   5.322   1.179   5.657
    2PC      HA 2468   5.303   1.150   5.554
    2PC      HB 2469   5.413   1.239   5.659
    2PC     O31 2470   5.329   1.048   5.717
    2PC     P31 2471   5.463   0.966   5.744
    2PC     O32 2472   5.409   0.815   5.734
    2PC     C31 2473   5.428   0.747   5.608
    2PC     H1A 2474   5.349   0.782   5.542
    2PC     H1B 2475   5.527   0.769   5.568
    2PC     C32 2476   5.421   0.596   5.634
    2PC     H2A 2477   5.332   0.572   5.692
    2PC     H2B 2478   5.413   0.550   5.535
    2PC     N31 2479   5.534   0.528   5.705
    2PC     C33 2480   5.524   0.550   5.852
    2PC     H3A 2481   5.423   0.518   5.881
    2PC     H3B 2482   5.598   0.485   5.898
    2PC     H3C 2483   5.539   0.653   5.887
    2PC     C34 2484   5.515   0.380   5.690
    2PC     H4A 2485   5.596   0.313   5.722
    2PC     H4B 2486   5.425   0.359   5.748
    2PC     H4C 2487   5.501   0.366   5.583
    2PC     C35 2488   5.671   0.565   5.656
    2PC     H5A 2489   5.688   0.671   5.674
    2PC     H5B 2490   5.680   0.537   5.550
    2PC     H5C 2491   5.754   0.513   5.704
    2PC     O33 2492   5.581   0.977   5.655
    2PC     O34 2493   5.503   1.000   5.883
    2PC     O21 2494   5.077   1.191   5.660
    2PC     C21 2495   4.972   1.210   5.742
    2PC     O22 2496   4.979   1.250   5.857
    3OL     C12 2497   4.843   1.186   5.669
    3OL     H2R 2498   4.762   1.205   5.740
    3OL     H2S 2499   4.838   1.087   5.623
    3OL     C13 2500   4.802   1.289   5.563
    3OL     H3R 2501   4.875   1.370   5.571
    3OL     H3S 2502   4.700   1.321   5.585
    3OL     C14 2503   4.821   1.230   5.423
    3OL     H4R 2504   4.749   1.149   5.410
    3OL     H4S 2505   4.921   1.186   5.418
    3OL     C15 2506   4.789   1.324   5.306
    3OL     H5R 2507   4.856   1.410   5.314
    3OL     H5S 2508   4.690   1.368   5.314
    3OL     C16 2509   4.792   1.244   5.175
    3OL     H6R 2510   4.733   1.153   5.167
    3OL     H6S 2511   4.894   1.209   5.159
    3OL     C17 2512   4.748   1.323   5.051
    3OL     H7R 2513   4.809   1.413   5.041
    3OL     H7S 2514   4.641   1.338   5.037
    3OL     C18 2515   4.777   1.239   4.926
    3OL     H8R 2516   4.685   1.207   4.875
    3OL     H8S 2517   4.830   1.145   4.946
    3OL     C19 2518   4.852   1.313   4.818
    3OL     H9R 2519   4.925   1.386   4.851
    3OL    C110 2520   4.828   1.306   4.688
    3OL    H10R 2521   4.878   1.376   4.622
    3OL    C111 2522   4.738   1.209   4.616
    3OL    H11R 2523   4.637   1.248   4.606
    3OL    H11S 2524   4.727   1.113   4.668
    3OL    C112 2525   4.798   1.183   4.477
    3OL    H12R 2526   4.890   1.127   4.492
    3OL    H12S 2527   4.819   1.283   4.438
    3OL    C113 2528   4.695   1.115   4.386
    3OL    H13R 2529   4.740   1.110   4.287
    3OL    H13S 2530   4.605   1.176   4.378
    3OL    C114 2531   4.668   0.969   4.426
    3OL    H14R 2532   4.636   0.950   4.529
    3OL    H14S 2533   4.762   0.916   4.415
    3OL    C115 2534   4.559   0.911   4.335
    3OL    H15R 2535   4.555   0.803   4.353
    3OL    H15S 2536   4.596   0.930   4.234
    3OL    C116 2537   4.421   0.971   4.364
    3OL    H16R 2538   4.415   1.080   4.359
    3OL    H16S 2539   4.391   0.946   4.466
    3OL    C117 2540   4.327   0.919   4.255
    3OL    H17R 2541   4.326   0.811   4.238
    3OL    H17S 2542   4.357   0.981   4.170
    3OL    C118 2543   4.183   0.962   4.288
    3OL    H18R 2544   4.142   0.894   4.363
    3OL    H18S 2545   4.128   0.945   4.196
    3OL    H18T 2546   4.189   1.063   4.329
    1PA    C116 2547   5.934   4.686   3.683
    1PA    H16R 2548   5.936   4.765   3.608
    1PA    H16S 2549   5.834   4.645   3.666
    1PA    H16T 2550   6.004   4.612   3.644
    1PA    C115 2551   5.962   4.721   3.830
    1PA    H15R 2552   5.966   4.624   3.881
    1PA    H15S 2553   6.061   4.766   3.832
    1PA    C114 2554   5.849   4.816   3.871
    1PA    H14R 2555   5.824   4.889   3.793
    1PA    H14S 2556   5.759   4.754   3.881
    1PA    C113 2557   5.866   4.890   4.005
    1PA    H13R 2558   5.880   4.822   4.090
    1PA    H13S 2559   5.956   4.950   3.995
    1PA    C112 2560   5.748   4.983   4.035
    1PA    H12R 2561   5.756   5.061   3.959
    1PA    H12S 2562   5.651   4.933   4.022
    1PA    C111 2563   5.749   5.062   4.166
    1PA    H11R 2564   5.853   5.087   4.190
    1PA    H11S 2565   5.694   5.154   4.145
    1PA    C110 2566   5.673   4.987   4.276
    1PA    H10R 2567   5.568   4.985   4.243
    1PA    H10S 2568   5.700   4.881   4.267
    1PA     C19 2569   5.682   5.046   4.417
    1PA     H9R 2570   5.787   5.066   4.440
    1PA     H9S 2571   5.625   5.138   4.424
    1PA     C18 2572   5.640   4.948   4.527
    1PA     H8R 2573   5.535   4.919   4.539
    1PA     H8S 2574   5.688   4.852   4.507
    1PA     C17 2575   5.691   5.001   4.662
    1PA     H7R 2576   5.799   5.007   4.673
    1PA     H7S 2577   5.649   5.101   4.677
    1PA     C16 2578   5.634   4.906   4.768
    1PA     H6R 2579   5.527   4.888   4.755
    1PA     H6S 2580   5.684   4.809   4.761
    1PA     C15 2581   5.672   4.955   4.909
    1PA     H5R 2582   5.781   4.954   4.916
    1PA     H5S 2583   5.633   5.056   4.923
    1PA     C14 2584   5.604   4.866   5.014
    1PA     H4R 2585   5.496   4.882   5.003
    1PA     H4S 2586   5.614   4.758   5.002
    1PA     C13 2587   5.650   4.902   5.156
    1PA     H3R 2588   5.751   4.863   5.169
    1PA     H3S 2589   5.654   5.011   5.163
    1PA     C12 2590   5.558   4.831   5.256
    1PA     H2R 2591   5.457   4.871   5.245
    1PA     H2S 2592   5.568   4.724   5.236
    2PC     C11 2593   5.609   4.849   5.397
    2PC     O12 2594   5.560   4.934   5.469
    2PC     O11 2595   5.707   4.767   5.438
    2PC      C1 2596   5.748   4.779   5.576
    2PC      HR 2597   5.771   4.883   5.601
    2PC      HS 2598   5.659   4.754   5.634
    2PC      C2 2599   5.866   4.688   5.613
    2PC      HX 2600   5.831   4.585   5.609
    2PC      C3 2601   5.918   4.710   5.756
    2PC      HA 2602   5.846   4.669   5.827
    2PC      HB 2603   6.019   4.675   5.780
    2PC     O31 2604   5.917   4.852   5.781
    2PC     P31 2605   5.925   4.893   5.935
    2PC     O32 2606   6.049   4.800   5.975
    2PC     C31 2607   6.116   4.832   6.099
    2PC     H1A 2608   6.159   4.932   6.086
    2PC     H1B 2609   6.045   4.841   6.182
    2PC     C32 2610   6.230   4.734   6.130
    2PC     H2A 2611   6.291   4.732   6.039
    2PC     H2B 2612   6.283   4.773   6.218
    2PC     N31 2613   6.192   4.592   6.157
    2PC     C33 2614   6.153   4.533   6.025
    2PC     H3A 2615   6.234   4.567   5.960
    2PC     H3B 2616   6.138   4.425   6.030
    2PC     H3C 2617   6.057   4.577   5.997
    2PC     C34 2618   6.309   4.519   6.216
    2PC     H4A 2619   6.306   4.418   6.175
    2PC     H4B 2620   6.403   4.573   6.199
    2PC     H4C 2621   6.290   4.509   6.323
    2PC     C35 2622   6.079   4.592   6.256
    2PC     H5A 2623   6.060   4.485   6.270
    2PC     H5B 2624   5.987   4.632   6.213
    2PC     H5C 2625   6.105   4.655   6.340
    2PC     O33 2626   5.958   5.037   5.934
    2PC     O34 2627   5.802   4.872   6.016
    2PC     O21 2628   5.970   4.725   5.521
    2PC     C21 2629   6.061   4.629   5.497
    2PC     O22 2630   6.063   4.519   5.547
    3OL     C12 2631   6.163   4.665   5.391
    3OL     H2R 2632   6.253   4.701   5.443
    3OL     H2S 2633   6.130   4.752   5.334
    3OL     C13 2634   6.196   4.543   5.303
    3OL     H3R 2635   6.104   4.495   5.270
    3OL     H3S 2636   6.258   4.472   5.356
    3OL     C14 2637   6.262   4.589   5.172
    3OL     H4R 2638   6.353   4.646   5.190
    3OL     H4S 2639   6.191   4.652   5.118
    3OL     C15 2640   6.297   4.461   5.094
    3OL     H5R 2641   6.205   4.402   5.092
    3OL     H5S 2642   6.374   4.405   5.146
    3OL     C16 2643   6.340   4.487   4.949
    3OL     H6R 2644   6.425   4.556   4.954
    3OL     H6S 2645   6.266   4.537   4.886
    3OL     C17 2646   6.387   4.356   4.883
    3OL     H7R 2647   6.304   4.285   4.879
    3OL     H7S 2648   6.467   4.322   4.949
    3OL     C18 2649   6.428   4.375   4.737
    3OL     H8R 2650   0.006   4.461   4.738
    3OL     H8S 2651   6.335   4.385   4.680
    3OL     C19 2652   0.012   4.252   4.687
    3OL     H9R 2653   0.086   4.206   4.751
    3OL    C110 2654   6.485   4.193   4.569
    3OL    H10R 2655   0.041   4.095   4.561
    3OL    C111 2656   6.403   4.249   4.455
    3OL    H11R 2657   6.455   4.328   4.400
    3OL    H11S 2658   6.305   4.283   4.489
    3OL    C112 2659   6.371   4.130   4.364
    3OL    H12R 2660   6.329   4.054   4.429
    3OL    H12S 2661   6.467   4.089   4.330
    3OL    C113 2662   6.286   4.145   4.237
    3OL    H13R 2663   6.332   4.220   4.173
    3OL    H13S 2664   6.187   4.180   4.267
    3OL    C114 2665   6.287   4.006   4.172
    3OL    H14R 2666   6.238   3.932   4.236
    3OL    H14S 2667   6.391   3.972   4.162
    3OL    C115 2668   6.222   4.012   4.033
    3OL    H15R 2669   6.277   4.078   3.966
    3OL    H15S 2670   6.124   4.059   4.037
    3OL    C116 2671   6.239   3.877   3.961
    3OL    H16R 2672   6.238   3.796   4.035
    3OL    H16S 2673   6.339   3.882   3.918
    3OL    C117 2674   6.132   3.864   3.852
    3OL    H17R 2675   6.035   3.864   3.901
    3OL    H17S 2676   6.140   3.767   3.802
    3OL    C118 2677   6.137   3.971   3.742
    3OL    H18R 2678   6.140   4.069   3.789
    3OL    H18S 2679   6.056   3.963   3.668
    3OL    H18T 2680   6.231   3.976   3.686
    1PA    C116 2681   1.013   1.727   3.876
    1PA    H16R 2682   0.914   1.770   3.894
    1PA    H16S 2683   1.003   1.623   3.845
    1PA    H16T 2684   1.047   1.790   3.794
    1PA    C115 2685   1.101   1.751   4.000
    1PA    H15R 2686   1.200   1.705   3.992
    1PA    H15S 2687   1.120   1.859   4.005
    1PA    C114 2688   1.038   1.691   4.126
    1PA    H14R 2689   1.066   1.748   4.216
    1PA    H14S 2690   0.929   1.693   4.118
    1PA    C113 2691   1.094   1.551   4.150
    1PA    H13R 2692   1.088   1.481   4.066
    1PA    H13S 2693   1.199   1.566   4.175
    1PA    C112 2694   1.029   1.493   4.277
    1PA    H12R 2695   1.057   1.560   4.358
    1PA    H12S 2696   0.923   1.476   4.256
    1PA    C111 2697   1.079   1.348   4.288
    1PA    H11R 2698   1.057   1.281   4.204
    1PA    H11S 2699   1.187   1.354   4.300
    1PA    C110 2700   1.015   1.274   4.406
    1PA    H10R 2701   0.908   1.254   4.393
    1PA    H10S 2702   1.070   1.180   4.418
    1PA     C19 2703   1.024   1.350   4.539
    1PA     H9R 2704   1.108   1.420   4.539
    1PA     H9S 2705   0.929   1.402   4.546
    1PA     C18 2706   1.023   1.257   4.662
    1PA     H8R 2707   0.965   1.298   4.744
    1PA     H8S 2708   0.971   1.164   4.639
    1PA     C17 2709   1.170   1.241   4.704
    1PA     H7R 2710   1.243   1.194   4.637
    1PA     H7S 2711   1.193   1.347   4.715
    1PA     C16 2712   1.163   1.161   4.835
    1PA     H6R 2713   1.099   1.214   4.906
    1PA     H6S 2714   1.111   1.067   4.815
    1PA     C15 2715   1.304   1.142   4.891
    1PA     H5R 2716   1.302   1.098   4.991
    1PA     H5S 2717   1.352   1.063   4.832
    1PA     C14 2718   1.395   1.265   4.893
    1PA     H4R 2719   1.413   1.289   4.788
    1PA     H4S 2720   1.335   1.347   4.932
    1PA     C13 2721   1.513   1.262   4.991
    1PA     H3R 2722   1.538   1.364   5.021
    1PA     H3S 2723   1.482   1.211   5.083
    1PA     C12 2724   1.627   1.189   4.918
    1PA     H2R 2725   1.602   1.085   4.896
    1PA     H2S 2726   1.658   1.223   4.819
    2PC     C11 2727   1.754   1.179   4.998
    2PC     O12 2728   1.794   1.271   5.066
    2PC     O11 2729   1.815   1.060   4.987
    2PC      C1 2730   1.926   1.019   5.069
    2PC      HR 2731   2.003   1.096   5.057
    2PC      HS 2732   1.904   1.006   5.175
    2PC      C2 2733   1.988   0.887   5.021
    2PC      HX 2734   1.903   0.827   4.988
    2PC      C3 2735   2.065   0.812   5.130
    2PC      HA 2736   2.098   0.874   5.214
    2PC      HB 2737   2.002   0.732   5.170
    2PC     O31 2738   2.177   0.743   5.071
    2PC     P31 2739   2.287   0.700   5.180
    2PC     O32 2740   2.346   0.563   5.123
    2PC     C31 2741   2.489   0.550   5.134
    2PC     H1A 2742   2.534   0.635   5.082
    2PC     H1B 2743   2.513   0.552   5.240
    2PC     C32 2744   2.533   0.421   5.063
    2PC     H2A 2745   2.472   0.404   4.975
    2PC     H2B 2746   2.633   0.440   5.024
    2PC     N31 2747   2.533   0.288   5.132
    2PC     C33 2748   2.597   0.185   5.044
    2PC     H3A 2749   2.590   0.213   4.939
    2PC     H3B 2750   2.701   0.172   5.074
    2PC     H3C 2751   2.553   0.086   5.059
    2PC     C34 2752   2.605   0.305   5.262
    2PC     H4A 2753   2.538   0.352   5.334
    2PC     H4B 2754   2.625   0.202   5.292
    2PC     H4C 2755   2.697   0.362   5.251
    2PC     C35 2756   2.390   0.248   5.152
    2PC     H5A 2757   2.341   0.343   5.170
    2PC     H5B 2758   2.389   0.169   5.227
    2PC     H5C 2759   2.346   0.203   5.063
    2PC     O33 2760   2.384   0.804   5.221
    2PC     O34 2761   2.231   0.690   5.317
    2PC     O21 2762   2.074   0.904   4.907
    2PC     C21 2763   2.186   0.979   4.908
    2PC     O22 2764   2.216   1.068   4.986
    3OL     C12 2765   2.278   0.952   4.792
    3OL     H2R 2766   2.365   1.014   4.818
    3OL     H2S 2767   2.246   0.994   4.697
    3OL     C13 2768   2.321   0.805   4.790
    3OL     H3R 2769   2.238   0.736   4.800
    3OL     H3S 2770   2.384   0.779   4.876
    3OL     C14 2771   2.403   0.776   4.663
    3OL     H4R 2772   2.504   0.806   4.691
    3OL     H4S 2773   2.371   0.834   4.576
    3OL     C15 2774   2.409   0.626   4.634
    3OL     H5R 2775   2.306   0.591   4.621
    3OL     H5S 2776   2.445   0.579   4.726
    3OL     C16 2777   2.493   0.579   4.514
    3OL     H6R 2778   2.600   0.591   4.532
    3OL     H6S 2779   2.466   0.641   4.428
    3OL     C17 2780   2.459   0.432   4.489
    3OL     H7R 2781   2.354   0.406   4.503
    3OL     H7S 2782   2.506   0.370   4.566
    3OL     C18 2783   2.512   0.382   4.354
    3OL     H8R 2784   2.471   0.447   4.276
    3OL     H8S 2785   2.481   0.278   4.349
    3OL     C19 2786   2.663   0.375   4.351
    3OL     H9R 2787   2.707   0.375   4.450
    3OL    C110 2788   2.736   0.367   4.241
    3OL    H10R 2789   2.845   0.366   4.245
    3OL    C111 2790   2.674   0.354   4.104
    3OL    H11R 2791   2.646   0.453   4.066
    3OL    H11S 2792   2.580   0.300   4.117
    3OL    C112 2793   2.762   0.281   4.002
    3OL    H12R 2794   2.712   0.257   3.909
    3OL    H12S 2795   2.781   0.179   4.037
    3OL    C113 2796   2.887   0.361   3.965
    3OL    H13R 2797   2.955   0.286   3.923
    3OL    H13S 2798   2.946   0.397   4.050
    3OL    C114 2799   2.845   0.471   3.866
    3OL    H14R 2800   2.754   0.519   3.903
    3OL    H14S 2801   2.815   0.424   3.771
    3OL    C115 2802   2.959   0.570   3.839
    3OL    H15R 2803   3.047   0.508   3.819
    3OL    H15S 2804   2.982   0.627   3.929
    3OL    C116 2805   2.934   0.663   3.720
    3OL    H16R 2806   2.859   0.610   3.660
    3OL    H16S 2807   3.023   0.679   3.660
    3OL    C117 2808   2.869   0.795   3.764
    3OL    H17R 2809   2.945   0.858   3.812
    3OL    H17S 2810   2.792   0.780   3.839
    3OL    C118 2811   2.806   0.860   3.640
    3OL    H18R 2812   2.705   0.822   3.621
    3OL    H18S 2813   2.865   0.865   3.548
    3OL    H18T 2814   2.808   0.970   3.646
    1PA    C116 2815   0.493   2.272   4.182
    1PA    H16R 2816   0.519   2.333   4.096
    1PA    H16S 2817   0.405   2.324   4.220
    1PA    H16T 2818   0.487   2.165   4.159
    1PA    C115 2819   0.608   2.270   4.284
    1PA    H15R 2820   0.682   2.200   4.245
    1PA    H15S 2821   0.654   2.369   4.288
    1PA    C114 2822   0.559   2.230   4.424
    1PA    H14R 2823   0.538   2.123   4.421
    1PA    H14S 2824   0.638   2.240   4.499
    1PA    C113 2825   0.438   2.313   4.468
    1PA    H13R 2826   0.449   2.420   4.447
    1PA    H13S 2827   0.351   2.267   4.420
    1PA    C112 2828   0.415   2.293   4.619
    1PA    H12R 2829   0.310   2.306   4.644
    1PA    H12S 2830   0.428   2.185   4.627
    1PA    C111 2831   0.519   2.358   4.710
    1PA    H11R 2832   0.618   2.324   4.677
    1PA    H11S 2833   0.519   2.467   4.708
    1PA    C110 2834   0.491   2.320   4.856
    1PA    H10R 2835   0.392   2.352   4.888
    1PA    H10S 2836   0.510   2.213   4.842
    1PA     C19 2837   0.599   2.384   4.944
    1PA     H9R 2838   0.702   2.362   4.913
    1PA     H9S 2839   0.604   2.492   4.924
    1PA     C18 2840   0.578   2.334   5.087
    1PA     H8R 2841   0.477   2.368   5.110
    1PA     H8S 2842   0.599   2.229   5.106
    1PA     C17 2843   0.679   2.402   5.182
    1PA     H7R 2844   0.769   2.343   5.163
    1PA     H7S 2845   0.684   2.508   5.156
    1PA     C16 2846   0.634   2.378   5.326
    1PA     H6R 2847   0.580   2.470   5.350
    1PA     H6S 2848   0.564   2.294   5.329
    1PA     C15 2849   0.749   2.353   5.425
    1PA     H5R 2850   0.815   2.287   5.368
    1PA     H5S 2851   0.792   2.453   5.437
    1PA     C14 2852   0.700   2.298   5.560
    1PA     H4R 2853   0.619   2.358   5.602
    1PA     H4S 2854   0.655   2.199   5.554
    1PA     C13 2855   0.810   2.273   5.664
    1PA     H3R 2856   0.843   2.371   5.701
    1PA     H3S 2857   0.766   2.217   5.747
    1PA     C12 2858   0.926   2.190   5.610
    1PA     H2R 2859   0.876   2.100   5.574
    1PA     H2S 2860   0.985   2.232   5.528
    2PC     C11 2861   1.024   2.153   5.719
    2PC     O12 2862   1.038   2.222   5.818
    2PC     O11 2863   1.096   2.041   5.705
    2PC      C1 2864   1.199   2.002   5.798
    2PC      HR 2865   1.268   2.086   5.806
    2PC      HS 2866   1.163   1.972   5.897
    2PC      C2 2867   1.278   1.893   5.723
    2PC      HX 2868   1.207   1.820   5.682
    2PC      C3 2869   1.375   1.828   5.822
    2PC      HA 2870   1.328   1.762   5.895
    2PC      HB 2871   1.448   1.768   5.766
    2PC     O31 2872   1.454   1.923   5.896
    2PC     P31 2873   1.578   1.877   5.985
    2PC     O32 2874   1.709   1.931   5.909
    2PC     C31 2875   1.723   2.074   5.899
    2PC     H1A 2876   1.658   2.121   5.824
    2PC     H1B 2877   1.704   2.118   5.997
    2PC     C32 2878   1.871   2.109   5.882
    2PC     H2A 2879   1.914   2.084   5.979
    2PC     H2B 2880   1.920   2.047   5.806
    2PC     N31 2881   1.897   2.256   5.869
    2PC     C33 2882   1.848   2.319   5.742
    2PC     H3A 2883   1.890   2.419   5.753
    2PC     H3B 2884   1.894   2.266   5.658
    2PC     H3C 2885   1.740   2.317   5.725
    2PC     C34 2886   1.842   2.335   5.984
    2PC     H4A 2887   1.868   2.282   6.075
    2PC     H4B 2888   1.891   2.433   5.978
    2PC     H4C 2889   1.735   2.352   5.972
    2PC     C35 2890   2.045   2.278   5.869
    2PC     H5A 2891   2.066   2.384   5.856
    2PC     H5B 2892   2.080   2.204   5.796
    2PC     H5C 2893   2.079   2.251   5.969
    2PC     O33 2894   1.575   1.936   6.121
    2PC     O34 2895   1.586   1.729   5.999
    2PC     O21 2896   1.347   1.964   5.619
    2PC     C21 2897   1.408   1.899   5.519
    2PC     O22 2898   1.419   1.778   5.520
    3OL     C12 2899   1.451   1.989   5.406
    3OL     H2R 2900   1.559   1.997   5.400
    3OL     H2S 2901   1.422   2.092   5.427
    3OL     C13 2902   1.407   1.927   5.272
    3OL     H3R 2903   1.298   1.926   5.267
    3OL     H3S 2904   1.437   1.822   5.267
    3OL     C14 2905   1.452   2.008   5.149
    3OL     H4R 2906   1.556   2.037   5.160
    3OL     H4S 2907   1.387   2.096   5.146
    3OL     C15 2908   1.426   1.917   5.028
    3OL     H5R 2909   1.319   1.895   5.030
    3OL     H5S 2910   1.479   1.823   5.039
    3OL     C16 2911   1.473   1.988   4.900
    3OL     H6R 2912   1.578   1.962   4.892
    3OL     H6S 2913   1.472   2.095   4.921
    3OL     C17 2914   1.396   1.960   4.769
    3OL     H7R 2915   1.352   1.861   4.777
    3OL     H7S 2916   1.459   1.972   4.681
    3OL     C18 2917   1.274   2.052   4.751
    3OL     H8R 2918   1.290   2.148   4.801
    3OL     H8S 2919   1.203   2.005   4.819
    3OL     C19 2920   1.230   2.053   4.607
    3OL     H9R 2921   1.316   2.039   4.542
    3OL    C110 2922   1.107   2.049   4.558
    3OL    H10R 2923   1.083   2.037   4.452
    3OL    C111 2924   0.978   2.053   4.635
    3OL    H11R 2925   0.937   2.152   4.610
    3OL    H11S 2926   1.004   2.060   4.740
    3OL    C112 2927   0.881   1.941   4.596
    3OL    H12R 2928   0.855   1.966   4.493
    3OL    H12S 2929   0.792   1.946   4.659
    3OL    C113 2930   0.936   1.797   4.593
    3OL    H13R 2931   1.038   1.789   4.555
    3OL    H13S 2932   0.863   1.734   4.542
    3OL    C114 2933   0.953   1.743   4.736
    3OL    H14R 2934   0.856   1.742   4.787
    3OL    H14S 2935   1.012   1.821   4.785
    3OL    C115 2936   1.023   1.607   4.751
    3OL    H15R 2937   1.115   1.603   4.692
    3OL    H15S 2938   0.958   1.539   4.695
    3OL    C116 2939   1.055   1.562   4.894
    3OL    H16R 2940   1.061   1.454   4.898
    3OL    H16S 2941   0.974   1.589   4.963
    3OL    C117 2942   1.186   1.620   4.948
    3OL    H17R 2943   1.191   1.729   4.947
    3OL    H17S 2944   1.267   1.610   4.874
    3OL    C118 2945   1.218   1.569   5.089
    3OL    H18R 2946   1.311   1.615   5.122
    3OL    H18S 2947   1.226   1.460   5.088
    3OL    H18T 2948   1.137   1.590   5.158
    1PA    C116 2949   4.691   2.785   4.046
    1PA    H16R 2950   4.624   2.799   3.961
    1PA    H16S 2951   4.688   2.683   4.084
    1PA    H16T 2952   4.790   2.819   4.014
    1PA    C115 2953   4.632   2.868   4.161
    1PA    H15R 2954   4.633   2.975   4.135
    1PA    H15S 2955   4.532   2.836   4.189
    1PA    C114 2956   4.711   2.848   4.291
    1PA    H14R 2957   4.702   2.740   4.306
    1PA    H14S 2958   4.819   2.860   4.281
    1PA    C113 2959   4.652   2.925   4.410
    1PA    H13R 2960   4.653   3.034   4.400
    1PA    H13S 2961   4.551   2.890   4.433
    1PA    C112 2962   4.742   2.893   4.530
    1PA    H12R 2963   4.753   2.784   4.538
    1PA    H12S 2964   4.846   2.917   4.505
    1PA    C111 2965   4.697   2.952   4.664
    1PA    H11R 2966   4.695   3.061   4.650
    1PA    H11S 2967   4.595   2.921   4.685
    1PA    C110 2968   4.791   2.912   4.778
    1PA    H10R 2969   4.812   2.806   4.771
    1PA    H10S 2970   4.887   2.959   4.756
    1PA     C19 2971   4.754   2.956   4.921
    1PA     H9R 2972   4.756   3.065   4.918
    1PA     H9S 2973   4.657   2.912   4.948
    1PA     C18 2974   4.863   2.916   5.021
    1PA     H8R 2975   4.873   2.808   5.030
    1PA     H8S 2976   4.957   2.946   4.974
    1PA     C17 2977   4.822   2.984   5.152
    1PA     H7R 2978   4.833   3.092   5.137
    1PA     H7S 2979   4.723   2.951   5.184
    1PA     C16 2980   4.922   2.939   5.259
    1PA     H6R 2981   4.914   2.833   5.283
    1PA     H6S 2982   5.022   2.966   5.225
    1PA     C15 2983   4.894   3.021   5.386
    1PA     H5R 2984   4.986   3.050   5.436
    1PA     H5S 2985   4.840   3.112   5.357
    1PA     C14 2986   4.821   2.931   5.487
    1PA     H4R 2987   4.730   2.885   5.448
    1PA     H4S 2988   4.896   2.855   5.508
    1PA     C13 2989   4.774   3.001   5.615
    1PA     H3R 2990   4.746   2.921   5.684
    1PA     H3S 2991   4.864   3.049   5.653
    1PA     C12 2992   4.662   3.103   5.591
    1PA     H2R 2993   4.706   3.188   5.539
    1PA     H2S 2994   4.583   3.053   5.533
    2PC     C11 2995   4.591   3.159   5.713
    2PC     O12 2996   4.504   3.244   5.709
    2PC     O11 2997   4.630   3.095   5.824
    2PC      C1 2998   4.586   3.144   5.952
    2PC      HR 2999   4.653   3.107   6.030
    2PC      HS 3000   4.606   3.252   5.959
    2PC      C2 3001   4.440   3.108   5.979
    2PC      HX 3002   4.369   3.174   5.929
    2PC      C3 3003   4.399   3.127   6.126
    2PC      HA 3004   4.389   3.235   6.141
    2PC      HB 3005   4.303   3.078   6.146
    2PC     O31 3006   4.492   3.090   6.229
    2PC     P31 3007   4.471   3.121   6.385
    2PC     O32 3008   4.420   2.976   6.429
    2PC     C31 3009   4.380   2.948   6.564
    2PC     H1A 3010   4.454   2.986   6.635
    2PC     H1B 3011   4.292   3.013   6.577
    2PC     C32 3012   4.349   2.801   6.597
    2PC     H2A 3013   4.263   2.773   6.537
    2PC     H2B 3014   4.430   2.734   6.567
    2PC     N31 3015   4.313   2.762   6.737
    2PC     C33 3016   4.288   2.614   6.734
    2PC     H3A 3017   4.383   2.567   6.708
    2PC     H3B 3018   4.251   2.591   6.834
    2PC     H3C 3019   4.206   2.599   6.663
    2PC     C34 3020   4.419   2.790   6.839
    2PC     H4A 3021   4.422   2.895   6.867
    2PC     H4B 3022   4.376   2.749   6.930
    2PC     H4C 3023   4.513   2.740   6.813
    2PC     C35 3024   4.184   2.826   6.779
    2PC     H5A 3025   4.096   2.808   6.716
    2PC     H5B 3026   4.205   2.933   6.783
    2PC     H5C 3027   4.167   2.793   6.882
    2PC     O33 3028   4.603   3.152   6.446
    2PC     O34 3029   4.371   3.225   6.415
    2PC     O21 3030   4.413   2.974   5.935
    2PC     C21 3031   4.285   2.935   5.924
    2PC     O22 3032   4.188   2.979   5.983
    3OL     C12 3033   4.279   2.830   5.815
    3OL     H2R 3034   4.176   2.811   5.783
    3OL     H2S 3035   4.325   2.735   5.844
    3OL     C13 3036   4.355   2.873   5.689
    3OL     H3R 3037   4.462   2.856   5.705
    3OL     H3S 3038   4.347   2.982   5.686
    3OL     C14 3039   4.317   2.791   5.565
    3OL     H4R 3040   4.210   2.797   5.542
    3OL     H4S 3041   4.343   2.688   5.589
    3OL     C15 3042   4.405   2.833   5.446
    3OL     H5R 3043   4.510   2.826   5.476
    3OL     H5S 3044   4.381   2.928   5.399
    3OL     C16 3045   4.386   2.725   5.339
    3OL     H6R 3046   4.282   2.727   5.304
    3OL     H6S 3047   4.406   2.624   5.378
    3OL     C17 3048   4.495   2.736   5.233
    3OL     H7R 3049   4.593   2.735   5.281
    3OL     H7S 3050   4.487   2.831   5.181
    3OL     C18 3051   4.492   2.627   5.124
    3OL     H8R 3052   4.394   2.621   5.076
    3OL     H8S 3053   4.512   2.528   5.166
    3OL     C19 3054   4.596   2.657   5.019
    3OL     H9R 3055   4.699   2.661   5.056
    3OL    C110 3056   4.573   2.679   4.891
    3OL    H10R 3057   4.651   2.701   4.819
    3OL    C111 3058   4.443   2.691   4.814
    3OL    H11R 3059   4.452   2.786   4.762
    3OL    H11S 3060   4.350   2.694   4.871
    3OL    C112 3061   4.442   2.580   4.708
    3OL    H12R 3062   4.390   2.491   4.746
    3OL    H12S 3063   4.547   2.561   4.689
    3OL    C113 3064   4.367   2.617   4.579
    3OL    H13R 3065   4.432   2.684   4.521
    3OL    H13S 3066   4.284   2.677   4.617
    3OL    C114 3067   4.318   2.503   4.490
    3OL    H14R 3068   4.265   2.437   4.559
    3OL    H14S 3069   4.393   2.441   4.440
    3OL    C115 3070   4.227   2.568   4.385
    3OL    H15R 3071   4.277   2.638   4.318
    3OL    H15S 3072   4.138   2.618   4.425
    3OL    C116 3073   4.180   2.457   4.291
    3OL    H16R 3074   4.118   2.398   4.359
    3OL    H16S 3075   4.267   2.399   4.261
    3OL    C117 3076   4.096   2.514   4.175
    3OL    H17R 3077   4.089   2.435   4.100
    3OL    H17S 3078   4.140   2.597   4.121
    3OL    C118 3079   3.958   2.575   4.202
    3OL    H18R 3080   3.962   2.655   4.276
    3OL    H18S 3081   3.892   2.500   4.247
    3OL    H18T 3082   3.904   2.615   4.115
    1PA    C116 3083   5.500   2.401   3.958
    1PA    H16R 3084   5.507   2.481   4.031
    1PA    H16S 3085   5.423   2.429   3.886
    1PA    H16T 3086   5.591   2.392   3.897
    1PA    C115 3087   5.468   2.269   4.030
    1PA    H15R 3088   5.391   2.286   4.106
    1PA    H15S 3089   5.428   2.200   3.956
    1PA    C114 3090   5.595   2.216   4.099
    1PA    H14R 3091   5.669   2.219   4.019
    1PA    H14S 3092   5.620   2.290   4.175
    1PA    C113 3093   5.580   2.074   4.154
    1PA    H13R 3094   5.484   2.069   4.207
    1PA    H13S 3095   5.573   1.999   4.074
    1PA    C112 3096   5.698   2.021   4.237
    1PA    H12R 3097   5.696   1.913   4.247
    1PA    H12S 3098   5.796   2.058   4.205
    1PA    C111 3099   5.674   2.078   4.378
    1PA    H11R 3100   5.680   2.187   4.377
    1PA    H11S 3101   5.567   2.068   4.398
    1PA    C110 3102   5.770   2.018   4.482
    1PA    H10R 3103   5.772   1.909   4.475
    1PA    H10S 3104   5.873   2.050   4.468
    1PA     C19 3105   5.728   2.076   4.618
    1PA     H9R 3106   5.732   2.184   4.606
    1PA     H9S 3107   5.620   2.063   4.627
    1PA     C18 3108   5.820   2.011   4.723
    1PA     H8R 3109   5.801   1.905   4.739
    1PA     H8S 3110   5.923   2.024   4.688
    1PA     C17 3111   5.815   2.079   4.860
    1PA     H7R 3112   5.865   2.176   4.854
    1PA     H7S 3113   5.710   2.084   4.891
    1PA     C16 3114   5.898   1.998   4.961
    1PA     H6R 3115   5.860   1.896   4.964
    1PA     H6S 3116   6.002   2.012   4.930
    1PA     C15 3117   5.886   2.048   5.105
    1PA     H5R 3118   5.933   2.146   5.108
    1PA     H5S 3119   5.780   2.061   5.129
    1PA     C14 3120   5.952   1.958   5.211
    1PA     H4R 3121   5.897   1.864   5.212
    1PA     H4S 3122   6.051   1.932   5.174
    1PA     C13 3123   5.955   2.010   5.356
    1PA     H3R 3124   5.852   2.034   5.381
    1PA     H3S 3125   5.968   1.930   5.429
    1PA     C12 3126   6.047   2.129   5.388
    1PA     H2R 3127   6.149   2.104   5.358
    1PA     H2S 3128   6.018   2.217   5.330
    2PC     C11 3129   6.044   2.148   5.538
    2PC     O12 3130   5.942   2.149   5.604
    2PC     O11 3131   6.171   2.144   5.582
    2PC      C1 3132   6.192   2.160   5.723
    2PC      HR 3133   6.171   2.264   5.751
    2PC      HS 3134   6.130   2.091   5.780
    2PC      C2 3135   6.340   2.134   5.753
    2PC      HX 3136   6.364   2.035   5.713
    2PC      C3 3137   6.385   2.136   5.900
    2PC      HA 3138   6.326   2.069   5.963
    2PC      HB 3139   6.483   2.089   5.896
    2PC     O31 3140   6.380   2.263   5.967
    2PC     P31 3141   6.452   2.267   6.110
    2PC     O32 3142   6.313   2.229   6.180
    2PC     C31 3143   6.310   2.105   6.253
    2PC     H1A 3144   6.260   2.036   6.185
    2PC     H1B 3145   6.407   2.062   6.282
    2PC     C32 3146   6.227   2.118   6.382
    2PC     H2A 3147   6.141   2.173   6.343
    2PC     H2B 3148   6.206   2.016   6.415
    2PC     N31 3149   6.287   2.188   6.500
    2PC     C33 3150   6.179   2.214   6.601
    2PC     H3A 3151   6.146   2.114   6.628
    2PC     H3B 3152   6.221   2.276   6.680
    2PC     H3C 3153   6.091   2.263   6.558
    2PC     C34 3154   6.387   2.097   6.564
    2PC     H4A 3155   6.482   2.097   6.509
    2PC     H4B 3156   6.398   2.129   6.668
    2PC     H4C 3157   6.338   2.000   6.572
    2PC     C35 3158   6.341   2.322   6.460
    2PC     H5A 3159   6.401   2.347   6.548
    2PC     H5B 3160   6.249   2.378   6.444
    2PC     H5C 3161   6.409   2.316   6.375
    2PC     O33 3162   0.069   2.167   6.137
    2PC     O34 3163   0.011   2.401   6.153
    2PC     O21 3164   6.421   2.229   5.680
    2PC     C21 3165   0.064   2.209   5.663
    2PC     O22 3166   0.128   2.115   5.705
    3OL     C12 3167   0.125   2.324   5.587
    3OL     H2R 3168   0.230   2.328   5.614
    3OL     H2S 3169   0.068   2.413   5.614
    3OL     C13 3170   0.116   2.296   5.436
    3OL     H3R 3171   0.173   2.205   5.419
    3OL     H3S 3172   0.162   2.385   5.391
    3OL     C14 3173   6.467   2.272   5.374
    3OL     H4R 3174   6.399   2.355   5.396
    3OL     H4S 3175   6.417   2.179   5.405
    3OL     C15 3176   6.483   2.260   5.222
    3OL     H5R 3177   0.065   2.177   5.207
    3OL     H5S 3178   0.053   2.344   5.186
    3OL     C16 3179   6.350   2.238   5.150
    3OL     H6R 3180   6.290   2.325   5.177
    3OL     H6S 3181   6.295   2.154   5.194
    3OL     C17 3182   6.357   2.248   4.997
    3OL     H7R 3183   6.405   2.341   4.964
    3OL     H7S 3184   6.256   2.258   4.958
    3OL     C18 3185   6.422   2.127   4.928
    3OL     H8R 3186   0.020   2.098   4.986
    3OL     H8S 3187   6.461   2.158   4.830
    3OL     C19 3188   6.324   2.017   4.893
    3OL     H9R 3189   6.330   1.931   4.959
    3OL    C110 3190   6.242   2.016   4.790
    3OL    H10R 3191   6.178   1.933   4.759
    3OL    C111 3192   6.228   2.140   4.705
    3OL    H11R 3193   6.266   2.231   4.752
    3OL    H11S 3194   6.124   2.166   4.685
    3OL    C112 3195   6.303   2.120   4.572
    3OL    H12R 3196   6.391   2.058   4.592
    3OL    H12S 3197   6.339   2.215   4.532
    3OL    C113 3198   6.205   2.048   4.479
    3OL    H13R 3199   6.119   2.113   4.457
    3OL    H13S 3200   6.174   1.962   4.539
    3OL    C114 3201   6.264   2.013   4.343
    3OL    H14R 3202   6.352   1.948   4.354
    3OL    H14S 3203   6.306   2.109   4.311
    3OL    C115 3204   6.157   1.954   4.250
    3OL    H15R 3205   6.074   2.025   4.238
    3OL    H15S 3206   6.119   1.860   4.290
    3OL    C116 3207   6.211   1.917   4.112
    3OL    H16R 3208   6.279   1.834   4.131
    3OL    H16S 3209   6.274   1.999   4.073
    3OL    C117 3210   6.101   1.871   4.015
    3OL    H17R 3211   6.021   1.944   4.007
    3OL    H17S 3212   6.056   1.781   4.056
    3OL    C118 3213   6.163   1.830   3.880
    3OL    H18R 3214   6.088   1.775   3.824
    3OL    H18S 3215   6.255   1.772   3.883
    3OL    H18T 3216   6.189   1.918   3.821
    1PA    C116 3217   2.571   6.468   4.514
    1PA    H16R 3218   2.513   6.421   4.435
    1PA    H16S 3219   2.665   0.029   4.490
    1PA    H16T 3220   2.502   0.056   4.551
    1PA    C115 3221   2.593   6.367   4.628
    1PA    H15R 3222   2.663   6.289   4.596
    1PA    H15S 3223   2.636   6.414   4.716
    1PA    C114 3224   2.459   6.297   4.654
    1PA    H14R 3225   2.453   6.246   4.750
    1PA    H14S 3226   2.384   6.375   4.673
    1PA    C113 3227   2.405   6.207   4.542
    1PA    H13R 3228   2.297   6.204   4.553
    1PA    H13S 3229   2.434   6.235   4.441
    1PA    C112 3230   2.466   6.066   4.551
    1PA    H12R 3231   2.573   6.072   4.529
    1PA    H12S 3232   2.449   6.013   4.645
    1PA    C111 3233   2.399   5.980   4.442
    1PA    H11R 3234   2.291   5.978   4.456
    1PA    H11S 3235   2.407   6.022   4.342
    1PA    C110 3236   2.451   5.836   4.430
    1PA    H10R 3237   2.430   5.798   4.329
    1PA    H10S 3238   2.560   5.839   4.433
    1PA     C19 3239   2.393   5.745   4.539
    1PA     H9R 3240   2.445   5.649   4.534
    1PA     H9S 3241   2.409   5.787   4.638
    1PA     C18 3242   2.244   5.712   4.521
    1PA     H8R 3243   2.179   5.799   4.519
    1PA     H8S 3244   2.224   5.652   4.431
    1PA     C17 3245   2.190   5.641   4.646
    1PA     H7R 3246   2.225   5.700   4.731
    1PA     H7S 3247   2.082   5.652   4.643
    1PA     C16 3248   2.239   5.496   4.644
    1PA     H6R 3249   2.226   5.449   4.546
    1PA     H6S 3250   2.348   5.491   4.650
    1PA     C15 3251   2.195   5.408   4.762
    1PA     H5R 3252   2.208   5.454   4.860
    1PA     H5S 3253   2.087   5.395   4.752
    1PA     C14 3254   2.262   5.271   4.746
    1PA     H4R 3255   2.215   5.228   4.657
    1PA     H4S 3256   2.362   5.292   4.708
    1PA     C13 3257   2.259   5.173   4.864
    1PA     H3R 3258   2.162   5.186   4.912
    1PA     H3S 3259   2.265   5.072   4.822
    1PA     C12 3260   2.377   5.205   4.957
    1PA     H2R 3261   2.464   5.166   4.904
    1PA     H2S 3262   2.387   5.313   4.970
    2PC     C11 3263   2.357   5.135   5.089
    2PC     O12 3264   2.297   5.186   5.180
    2PC     O11 3265   2.412   5.012   5.094
    2PC      C1 3266   2.407   4.931   5.212
    2PC      HR 3267   2.466   4.841   5.195
    2PC      HS 3268   2.460   4.976   5.296
    2PC      C2 3269   2.261   4.887   5.233
    2PC      HX 3270   2.192   4.971   5.220
    2PC      C3 3271   2.237   4.838   5.376
    2PC      HA 3272   2.262   4.732   5.374
    2PC      HB 3273   2.309   4.892   5.439
    2PC     O31 3274   2.103   4.864   5.422
    2PC     P31 3275   2.079   4.863   5.580
    2PC     O32 3276   1.920   4.881   5.563
    2PC     C31 3277   1.855   4.931   5.681
    2PC     H1A 3278   1.927   4.989   5.740
    2PC     H1B 3279   1.769   4.994   5.656
    2PC     C32 3280   1.805   4.808   5.758
    2PC     H2A 3281   1.712   4.779   5.710
    2PC     H2B 3282   1.865   4.716   5.759
    2PC     N31 3283   1.766   4.828   5.902
    2PC     C33 3284   1.886   4.856   5.987
    2PC     H3A 3285   1.950   4.928   5.936
    2PC     H3B 3286   1.846   4.908   6.075
    2PC     H3C 3287   1.932   4.758   5.996
    2PC     C34 3288   1.664   4.935   5.923
    2PC     H4A 3289   1.591   4.939   5.841
    2PC     H4B 3290   1.624   4.932   6.024
    2PC     H4C 3291   1.711   5.033   5.922
    2PC     C35 3292   1.694   4.712   5.963
    2PC     H5A 3293   1.699   4.716   6.072
    2PC     H5B 3294   1.743   4.618   5.935
    2PC     H5C 3295   1.588   4.703   5.939
    2PC     O33 3296   2.115   4.733   5.640
    2PC     O34 3297   2.163   4.965   5.647
    2PC     O21 3298   2.226   4.778   5.146
    2PC     C21 3299   2.191   4.807   5.020
    2PC     O22 3300   2.153   4.918   4.987
    3OL     C12 3301   2.186   4.682   4.936
    3OL     H2R 3302   2.145   4.614   5.011
    3OL     H2S 3303   2.291   4.656   4.919
    3OL     C13 3304   2.111   4.681   4.802
    3OL     H3R 3305   2.100   4.577   4.772
    3OL     H3S 3306   2.162   4.738   4.724
    3OL     C14 3307   1.966   4.731   4.804
    3OL     H4R 3308   1.925   4.741   4.703
    3OL     H4S 3309   1.956   4.822   4.864
    3OL     C15 3310   1.870   4.628   4.865
    3OL     H5R 3311   1.780   4.681   4.895
    3OL     H5S 3312   1.914   4.579   4.952
    3OL     C16 3313   1.830   4.515   4.769
    3OL     H6R 3314   1.911   4.485   4.701
    3OL     H6S 3315   1.750   4.553   4.704
    3OL     C17 3316   1.771   4.400   4.850
    3OL     H7R 3317   1.692   4.449   4.906
    3OL     H7S 3318   1.857   4.380   4.915
    3OL     C18 3319   1.726   4.284   4.761
    3OL     H8R 3320   1.729   4.192   4.820
    3OL     H8S 3321   1.789   4.274   4.672
    3OL     C19 3322   1.581   4.313   4.732
    3OL     H9R 3323   1.512   4.272   4.805
    3OL    C110 3324   1.533   4.373   4.624
    3OL    H10R 3325   1.426   4.386   4.613
    3OL    C111 3326   1.619   4.418   4.508
    3OL    H11R 3327   1.727   4.415   4.526
    3OL    H11S 3328   1.596   4.520   4.477
    3OL    C112 3329   1.589   4.320   4.394
    3OL    H12R 3330   1.481   4.313   4.387
    3OL    H12S 3331   1.624   4.219   4.418
    3OL    C113 3332   1.635   4.361   4.253
    3OL    H13R 3333   1.633   4.273   4.189
    3OL    H13S 3334   1.734   4.406   4.251
    3OL    C114 3335   1.540   4.464   4.192
    3OL    H14R 3336   1.518   4.551   4.255
    3OL    H14S 3337   1.440   4.420   4.181
    3OL    C115 3338   1.593   4.524   4.061
    3OL    H15R 3339   1.620   4.453   3.982
    3OL    H15S 3340   1.674   4.592   4.088
    3OL    C116 3341   1.490   4.614   3.991
    3OL    H16R 3342   1.467   4.702   4.052
    3OL    H16S 3343   1.394   4.564   3.975
    3OL    C117 3344   1.553   4.660   3.859
    3OL    H17R 3345   1.590   4.576   3.799
    3OL    H17S 3346   1.643   4.717   3.881
    3OL    C118 3347   1.444   4.731   3.778
    3OL    H18R 3348   1.358   4.665   3.766
    3OL    H18S 3349   1.486   4.758   3.681
    3OL    H18T 3350   1.409   4.827   3.817
    1PA    C116 3351   1.584   3.368   4.122
    1PA    H16R 3352   1.566   3.318   4.217
    1PA    H16S 3353   1.691   3.393   4.121
    1PA    H16T 3354   1.558   3.289   4.051
    1PA    C115 3355   1.492   3.490   4.115
    1PA    H15R 3356   1.516   3.548   4.025
    1PA    H15S 3357   1.387   3.464   4.126
    1PA    C114 3358   1.503   3.575   4.242
    1PA    H14R 3359   1.501   3.515   4.334
    1PA    H14S 3360   1.600   3.625   4.250
    1PA    C113 3361   1.393   3.682   4.245
    1PA    H13R 3362   1.397   3.749   4.158
    1PA    H13S 3363   1.295   3.633   4.249
    1PA    C112 3364   1.392   3.776   4.366
    1PA    H12R 3365   1.483   3.834   4.351
    1PA    H12S 3366   1.311   3.850   4.369
    1PA    C111 3367   1.401   3.705   4.502
    1PA    H11R 3368   1.318   3.636   4.516
    1PA    H11S 3369   1.496   3.651   4.505
    1PA    C110 3370   1.404   3.804   4.620
    1PA    H10R 3371   1.319   3.873   4.612
    1PA    H10S 3372   1.392   3.738   4.706
    1PA     C19 3373   1.539   3.873   4.640
    1PA     H9R 3374   1.581   3.898   4.543
    1PA     H9S 3375   1.524   3.960   4.704
    1PA     C18 3376   1.634   3.778   4.715
    1PA     H8R 3377   1.575   3.745   4.801
    1PA     H8S 3378   1.654   3.688   4.656
    1PA     C17 3379   1.767   3.848   4.750
    1PA     H7R 3380   1.796   3.893   4.655
    1PA     H7S 3381   1.742   3.927   4.820
    1PA     C16 3382   1.876   3.751   4.798
    1PA     H6R 3383   1.948   3.805   4.860
    1PA     H6S 3384   1.837   3.666   4.854
    1PA     C15 3385   1.950   3.686   4.680
    1PA     H5R 3386   1.877   3.631   4.620
    1PA     H5S 3387   1.986   3.767   4.615
    1PA     C14 3388   2.070   3.601   4.720
    1PA     H4R 3389   2.053   3.542   4.810
    1PA     H4S 3390   2.092   3.529   4.641
    1PA     C13 3391   2.195   3.687   4.746
    1PA     H3R 3392   2.258   3.655   4.663
    1PA     H3S 3393   2.178   3.794   4.730
    1PA     C12 3394   2.266   3.653   4.878
    1PA     H2R 3395   2.291   3.549   4.898
    1PA     H2S 3396   2.363   3.703   4.885
    2PC     C11 3397   2.185   3.691   4.999
    2PC     O12 3398   2.153   3.618   5.091
    2PC     O11 3399   2.172   3.825   5.006
    2PC      C1 3400   2.107   3.903   5.107
    2PC      HR 3401   2.087   4.008   5.084
    2PC      HS 3402   2.012   3.852   5.124
    2PC      C2 3403   2.193   3.898   5.234
    2PC      HX 3404   2.220   3.796   5.265
    2PC      C3 3405   2.131   3.977   5.350
    2PC      HA 3406   2.108   4.078   5.315
    2PC      HB 3407   2.034   3.933   5.376
    2PC     O31 3408   2.228   3.979   5.456
    2PC     P31 3409   2.181   3.951   5.606
    2PC     O32 3410   2.330   3.963   5.664
    2PC     C31 3411   2.361   3.879   5.776
    2PC     H1A 3412   2.299   3.903   5.863
    2PC     H1B 3413   2.348   3.774   5.748
    2PC     C32 3414   2.510   3.899   5.807
    2PC     H2A 3415   2.553   3.821   5.744
    2PC     H2B 3416   2.541   3.990   5.756
    2PC     N31 3417   2.570   3.885   5.944
    2PC     C33 3418   2.501   3.976   6.042
    2PC     H3A 3419   2.539   3.973   6.144
    2PC     H3B 3420   2.498   4.078   6.004
    2PC     H3C 3421   2.399   3.935   6.041
    2PC     C34 3422   2.552   3.743   5.989
    2PC     H4A 3423   2.446   3.724   6.006
    2PC     H4B 3424   2.593   3.680   5.910
    2PC     H4C 3425   2.611   3.734   6.080
    2PC     C35 3426   2.712   3.930   5.935
    2PC     H5A 3427   2.774   3.857   5.882
    2PC     H5B 3428   2.751   3.955   6.034
    2PC     H5C 3429   2.708   4.027   5.885
    2PC     O33 3430   2.082   4.047   5.660
    2PC     O34 3431   2.131   3.812   5.618
    2PC     O21 3432   2.316   3.963   5.201
    2PC     C21 3433   2.422   3.887   5.170
    2PC     O22 3434   2.433   3.767   5.181
    3OL     C12 3435   2.537   3.961   5.106
    3OL     H2R 3436   2.616   3.967   5.182
    3OL     H2S 3437   2.515   4.061   5.069
    3OL     C13 3438   2.600   3.883   4.989
    3OL     H3R 3439   2.594   3.776   5.008
    3OL     H3S 3440   2.707   3.905   4.996
    3OL     C14 3441   2.548   3.926   4.851
    3OL     H4R 3442   2.582   4.028   4.832
    3OL     H4S 3443   2.439   3.930   4.845
    3OL     C15 3444   2.599   3.836   4.738
    3OL     H5R 3445   2.543   3.875   4.652
    3OL     H5S 3446   2.564   3.734   4.754
    3OL     C16 3447   2.749   3.838   4.705
    3OL     H6R 3448   2.789   3.747   4.661
    3OL     H6S 3449   2.796   3.837   4.803
    3OL     C17 3450   2.779   3.966   4.627
    3OL     H7R 3451   2.689   4.028   4.627
    3OL     H7S 3452   2.807   3.943   4.523
    3OL     C18 3453   2.894   4.037   4.700
    3OL     H8R 3454   2.988   3.982   4.711
    3OL     H8S 3455   2.865   4.055   4.803
    3OL     C19 3456   2.923   4.170   4.634
    3OL     H9R 3457   3.006   4.167   4.565
    3OL    C110 3458   2.883   4.289   4.674
    3OL    H10R 3459   2.903   4.373   4.608
    3OL    C111 3460   2.781   4.308   4.784
    3OL    H11R 3461   2.833   4.346   4.873
    3OL    H11S 3462   2.727   4.215   4.800
    3OL    C112 3463   2.670   4.410   4.756
    3OL    H12R 3464   2.705   4.508   4.726
    3OL    H12S 3465   2.605   4.422   4.843
    3OL    C113 3466   2.571   4.379   4.643
    3OL    H13R 3467   2.524   4.286   4.677
    3OL    H13S 3468   2.635   4.363   4.556
    3OL    C114 3469   2.474   4.491   4.603
    3OL    H14R 3470   2.531   4.561   4.541
    3OL    H14S 3471   2.423   4.543   4.684
    3OL    C115 3472   2.368   4.430   4.511
    3OL    H15R 3473   2.313   4.344   4.550
    3OL    H15S 3474   2.425   4.413   4.419
    3OL    C116 3475   2.257   4.530   4.474
    3OL    H16R 3476   2.300   4.618   4.426
    3OL    H16S 3477   2.210   4.571   4.564
    3OL    C117 3478   2.154   4.480   4.372
    3OL    H17R 3479   2.186   4.387   4.324
    3OL    H17S 3480   2.131   4.559   4.299
    3OL    C118 3481   2.021   4.440   4.435
    3OL    H18R 3482   1.958   4.526   4.459
    3OL    H18S 3483   2.045   4.385   4.526
    3OL    H18T 3484   1.958   4.373   4.375
    1PA    C116 3485   0.046   3.069   4.174
    1PA    H16R 3486   0.041   3.034   4.277
    1PA    H16S 3487   0.077   2.977   4.124
    1PA    H16T 3488   0.113   3.154   4.156
    1PA    C115 3489   6.390   3.108   4.141
    1PA    H15R 3490   6.374   3.207   4.185
    1PA    H15S 3491   6.380   3.118   4.032
    1PA    C114 3492   6.299   2.994   4.187
    1PA    H14R 3493   6.323   2.905   4.130
    1PA    H14S 3494   6.319   2.966   4.291
    1PA    C113 3495   6.153   3.042   4.173
    1PA    H13R 3496   6.131   3.134   4.226
    1PA    H13S 3497   6.125   3.063   4.070
    1PA    C112 3498   6.059   2.926   4.207
    1PA    H12R 3499   5.960   2.951   4.170
    1PA    H12S 3500   6.090   2.832   4.161
    1PA    C111 3501   6.059   2.894   4.358
    1PA    H11R 3502   6.013   2.798   4.378
    1PA    H11S 3503   6.163   2.878   4.387
    1PA    C110 3504   6.007   3.012   4.442
    1PA    H10R 3505   6.066   3.102   4.424
    1PA    H10S 3506   5.908   3.040   4.407
    1PA     C19 3507   5.988   2.969   4.588
    1PA     H9R 3508   5.901   3.015   4.635
    1PA     H9S 3509   5.958   2.864   4.583
    1PA     C18 3510   6.110   3.004   4.675
    1PA     H8R 3511   6.153   3.099   4.644
    1PA     H8S 3512   6.077   3.017   4.778
    1PA     C17 3513   6.222   2.899   4.680
    1PA     H7R 3514   6.181   2.812   4.733
    1PA     H7S 3515   6.241   2.880   4.575
    1PA     C16 3516   6.349   2.937   4.757
    1PA     H6R 3517   6.422   2.859   4.736
    1PA     H6S 3518   6.384   3.029   4.709
    1PA     C15 3519   6.339   2.934   4.910
    1PA     H5R 3520   6.257   2.995   4.949
    1PA     H5S 3521   6.331   2.834   4.952
    1PA     C14 3522   6.469   2.991   4.968
    1PA     H4R 3523   0.073   2.943   4.933
    1PA     H4S 3524   6.475   3.095   4.936
    1PA     C13 3525   6.473   2.994   5.121
    1PA     H3R 3526   6.409   3.076   5.153
    1PA     H3S 3527   6.444   2.899   5.168
    1PA     C12 3528   0.122   3.035   5.176
    1PA     H2R 3529   0.192   2.957   5.144
    1PA     H2S 3530   0.147   3.132   5.134
    2PC     C11 3531   0.118   3.044   5.327
    2PC     O12 3532   0.117   2.945   5.397
    2PC     O11 3533   0.090   3.169   5.366
    2PC      C1 3534   0.099   3.195   5.508
    2PC      HR 3535   0.006   3.188   5.565
    2PC      HS 3536   0.177   3.129   5.546
    2PC      C2 3537   0.143   3.341   5.526
    2PC      HX 3538   0.229   3.359   5.461
    2PC      C3 3539   0.193   3.362   5.670
    2PC      HA 3540   0.292   3.316   5.679
    2PC      HB 3541   0.205   3.469   5.689
    2PC     O31 3542   0.096   3.311   5.763
    2PC     P31 3543   0.112   3.371   5.911
    2PC     O32 3544   0.182   3.238   5.967
    2PC     C31 3545   0.149   3.191   6.100
    2PC     H1A 3546   0.168   3.272   6.171
    2PC     H1B 3547   0.041   3.178   6.095
    2PC     C32 3548   0.213   3.055   6.128
    2PC     H2A 3549   0.320   3.073   6.137
    2PC     H2B 3550   0.179   3.018   6.225
    2PC     N31 3551   0.192   2.941   6.033
    2PC     C33 3552   0.273   2.963   5.909
    2PC     H3A 3553   0.261   2.892   5.827
    2PC     H3B 3554   0.246   3.065   5.880
    2PC     H3C 3555   0.379   2.960   5.935
    2PC     C34 3556   0.237   2.813   6.098
    2PC     H4A 3557   0.172   2.802   6.184
    2PC     H4B 3558   0.225   2.743   6.015
    2PC     H4C 3559   0.343   2.829   6.119
    2PC     C35 3560   0.044   2.928   6.012
    2PC     H5A 3561   6.487   2.912   6.110
    2PC     H5B 3562   0.026   2.842   5.947
    2PC     H5C 3563   0.010   3.017   5.957
    2PC     O33 3564   0.196   3.493   5.910
    2PC     O34 3565   6.464   3.385   5.966
    2PC     O21 3566   0.030   3.424   5.494
    2PC     C21 3567   0.051   3.544   5.438
    2PC     O22 3568   0.161   3.594   5.431
    3OL     C12 3569   6.411   3.599   5.383
    3OL     H2R 3570   6.347   3.514   5.359
    3OL     H2S 3571   6.437   3.660   5.296
    3OL     C13 3572   6.344   3.687   5.490
    3OL     H3R 3573   6.412   3.772   5.497
    3OL     H3S 3574   6.344   3.644   5.590
    3OL     C14 3575   6.204   3.743   5.457
    3OL     H4R 3576   6.144   3.695   5.534
    3OL     H4S 3577   6.169   3.723   5.355
    3OL     C15 3578   6.206   3.895   5.473
    3OL     H5R 3579   6.267   3.939   5.394
    3OL     H5S 3580   6.252   3.921   5.568
    3OL     C16 3581   6.065   3.955   5.462
    3OL     H6R 3582   6.011   3.891   5.532
    3OL     H6S 3583   6.011   3.949   5.367
    3OL     C17 3584   6.066   4.101   5.512
    3OL     H7R 3585   6.142   4.122   5.588
    3OL     H7S 3586   5.973   4.127   5.563
    3OL     C18 3587   6.098   4.208   5.408
    3OL     H8R 3588   6.204   4.194   5.386
    3OL     H8S 3589   6.084   4.311   5.443
    3OL     C19 3590   6.013   4.202   5.283
    3OL     H9R 3591   5.909   4.233   5.276
    3OL    C110 3592   6.045   4.155   5.164
    3OL    H10R 3593   5.968   4.156   5.087
    3OL    C111 3594   6.176   4.099   5.116
    3OL    H11R 3595   6.273   4.136   5.150
    3OL    H11S 3596   6.180   4.124   5.010
    3OL    C112 3597   6.185   3.945   5.110
    3OL    H12R 3598   6.092   3.901   5.075
    3OL    H12S 3599   6.205   3.908   5.211
    3OL    C113 3600   6.299   3.889   5.025
    3OL    H13R 3601   6.322   3.788   5.060
    3OL    H13S 3602   6.390   3.947   5.045
    3OL    C114 3603   6.262   3.888   4.876
    3OL    H14R 3604   6.243   3.987   4.833
    3OL    H14S 3605   6.171   3.828   4.862
    3OL    C115 3606   6.365   3.819   4.786
    3OL    H15R 3607   6.463   3.863   4.802
    3OL    H15S 3608   6.340   3.852   4.685
    3OL    C116 3609   6.372   3.666   4.796
    3OL    H16R 3610   6.277   3.616   4.776
    3OL    H16S 3611   6.406   3.638   4.896
    3OL    C117 3612   6.467   3.608   4.689
    3OL    H17R 3613   0.027   3.517   4.725
    3OL    H17S 3614   0.064   3.675   4.676
    3OL    C118 3615   6.404   3.592   4.550
    3OL    H18R 3616   6.300   3.557   4.556
    3OL    H18S 3617   6.461   3.518   4.494
    3OL    H18T 3618   6.404   3.693   4.508
    1PA    C116 3619   1.042   0.343   3.853
    1PA    H16R 3620   0.988   0.426   3.808
    1PA    H16S 3621   1.049   0.267   3.774
    1PA    H16T 3622   1.142   0.373   3.883
    1PA    C115 3623   0.968   0.272   3.967
    1PA    H15R 3624   1.015   0.176   3.987
    1PA    H15S 3625   0.965   0.332   4.059
    1PA    C114 3626   0.826   0.232   3.923
    1PA    H14R 3627   0.783   0.325   3.885
    1PA    H14S 3628   0.820   0.162   3.839
    1PA    C113 3629   0.737   0.174   4.033
    1PA    H13R 3630   0.719   0.247   4.112
    1PA    H13S 3631   0.640   0.164   3.985
    1PA    C112 3632   0.783   0.039   4.091
    1PA    H12R 3633   0.766   6.456   4.011
    1PA    H12S 3634   0.888   0.027   4.118
    1PA    C111 3635   0.685   0.007   4.205
    1PA    H11R 3636   0.652   0.095   4.259
    1PA    H11S 3637   0.596   6.446   4.164
    1PA    C110 3638   0.742   6.388   4.299
    1PA    H10R 3639   0.761   6.297   4.241
    1PA    H10S 3640   0.842   6.421   4.330
    1PA     C19 3641   0.653   6.360   4.420
    1PA     H9R 3642   0.631   6.449   4.480
    1PA     H9S 3643   0.555   6.327   4.386
    1PA     C18 3644   0.717   6.243   4.497
    1PA     H8R 3645   0.632   6.178   4.518
    1PA     H8S 3646   0.789   6.188   4.435
    1PA     C17 3647   0.781   6.299   4.625
    1PA     H7R 3648   0.855   6.377   4.609
    1PA     H7S 3649   0.706   6.343   4.691
    1PA     C16 3650   0.836   6.174   4.694
    1PA     H6R 3651   0.763   6.094   4.693
    1PA     H6S 3652   0.921   6.129   4.642
    1PA     C15 3653   0.898   6.207   4.831
    1PA     H5R 3654   0.983   6.273   4.816
    1PA     H5S 3655   0.820   6.257   4.889
    1PA     C14 3656   0.944   6.079   4.904
    1PA     H4R 3657   0.855   6.018   4.918
    1PA     H4S 3658   1.016   6.026   4.841
    1PA     C13 3659   0.998   6.088   5.047
    1PA     H3R 3660   0.929   6.153   5.101
    1PA     H3S 3661   0.983   5.989   5.090
    1PA     C12 3662   1.144   6.135   5.060
    1PA     H2R 3663   1.214   6.088   4.991
    1PA     H2S 3664   1.153   6.239   5.028
    2PC     C11 3665   1.191   6.122   5.203
    2PC     O12 3666   1.134   6.169   5.299
    2PC     O11 3667   1.310   6.060   5.208
    2PC      C1 3668   1.376   6.035   5.333
    2PC      HR 3669   1.477   5.999   5.310
    2PC      HS 3670   1.372   6.133   5.381
    2PC      C2 3671   1.294   5.940   5.421
    2PC      HX 3672   1.191   5.968   5.446
    2PC      C3 3673   1.348   5.930   5.565
    2PC      HA 3674   1.450   5.891   5.570
    2PC      HB 3675   1.360   6.031   5.606
    2PC     O31 3676   1.261   5.841   5.637
    2PC     P31 3677   1.307   5.807   5.787
    2PC     O32 3678   1.170   5.769   5.859
    2PC     C31 3679   1.149   5.813   5.995
    2PC     H1A 3680   1.220   5.768   6.065
    2PC     H1B 3681   1.151   5.922   6.003
    2PC     C32 3682   1.007   5.779   6.042
    2PC     H2A 3683   0.933   5.799   5.964
    2PC     H2B 3684   1.008   5.673   6.068
    2PC     N31 3685   0.963   5.848   6.168
    2PC     C33 3686   0.942   5.992   6.132
    2PC     H3A 3687   1.029   6.036   6.082
    2PC     H3B 3688   0.858   6.001   6.063
    2PC     H3C 3689   0.935   6.053   6.223
    2PC     C34 3690   0.835   5.783   6.211
    2PC     H4A 3691   0.860   5.681   6.237
    2PC     H4B 3692   0.788   5.833   6.296
    2PC     H4C 3693   0.764   5.788   6.128
    2PC     C35 3694   1.062   5.843   6.279
    2PC     H5A 3695   1.019   5.866   6.377
    2PC     H5B 3696   1.133   5.919   6.246
    2PC     H5C 3697   1.118   5.749   6.281
    2PC     O33 3698   1.396   5.688   5.791
    2PC     O34 3699   1.370   5.923   5.854
    2PC     O21 3700   1.314   5.807   5.371
    2PC     C21 3701   1.245   5.759   5.266
    2PC     O22 3702   1.146   5.816   5.225
    3OL     C12 3703   1.288   5.626   5.211
    3OL     H2R 3704   1.213   5.587   5.141
    3OL     H2S 3705   1.296   5.549   5.288
    3OL     C13 3706   1.422   5.651   5.141
    3OL     H3R 3707   1.441   5.562   5.079
    3OL     H3S 3708   1.495   5.667   5.220
    3OL     C14 3709   1.430   5.766   5.041
    3OL     H4R 3710   1.438   5.865   5.087
    3OL     H4S 3711   1.346   5.771   4.971
    3OL     C15 3712   1.556   5.746   4.955
    3OL     H5R 3713   1.641   5.696   5.002
    3OL     H5S 3714   1.586   5.844   4.916
    3OL     C16 3715   1.515   5.661   4.834
    3OL     H6R 3716   1.423   5.699   4.788
    3OL     H6S 3717   1.496   5.561   4.874
    3OL     C17 3718   1.635   5.645   4.739
    3OL     H7R 3719   1.716   5.599   4.797
    3OL     H7S 3720   1.659   5.740   4.692
    3OL     C18 3721   1.617   5.549   4.621
    3OL     H8R 3722   1.714   5.542   4.570
    3OL     H8S 3723   1.551   5.587   4.543
    3OL     C19 3724   1.575   5.413   4.670
    3OL     H9R 3725   1.582   5.401   4.778
    3OL    C110 3726   1.511   5.315   4.608
    3OL    H10R 3727   1.477   5.226   4.661
    3OL    C111 3728   1.484   5.309   4.460
    3OL    H11R 3729   1.511   5.211   4.421
    3OL    H11S 3730   1.549   5.377   4.405
    3OL    C112 3731   1.337   5.345   4.432
    3OL    H12R 3732   1.317   5.334   4.326
    3OL    H12S 3733   1.317   5.449   4.460
    3OL    C113 3734   1.238   5.256   4.508
    3OL    H13R 3735   1.248   5.274   4.615
    3OL    H13S 3736   1.258   5.149   4.507
    3OL    C114 3737   1.095   5.290   4.465
    3OL    H14R 3738   1.091   5.268   4.358
    3OL    H14S 3739   1.067   5.391   4.496
    3OL    C115 3740   0.994   5.185   4.515
    3OL    H15R 3741   0.977   5.187   4.623
    3OL    H15S 3742   1.041   5.089   4.492
    3OL    C116 3743   0.854   5.200   4.455
    3OL    H16R 3744   0.802   5.282   4.504
    3OL    H16S 3745   0.795   5.113   4.487
    3OL    C117 3746   0.842   5.218   4.303
    3OL    H17R 3747   0.905   5.142   4.255
    3OL    H17S 3748   0.860   5.320   4.269
    3OL    C118 3749   0.699   5.182   4.261
    3OL    H18R 3750   0.703   5.174   4.152
    3OL    H18S 3751   0.642   5.272   4.286
    3OL    H18T 3752   0.672   5.085   4.303
    1PA    C116 3753   4.451   0.013   3.763
    1PA    H16R 3754   4.360   6.450   3.733
    1PA    H16S 3755   4.472   0.005   3.870
    1PA    H16T 3756   4.539   6.462   3.713
    1PA    C115 3757   4.436   0.165   3.747
    1PA    H15R 3758   4.503   0.210   3.820
    1PA    H15S 3759   4.466   0.181   3.643
    1PA    C114 3760   4.296   0.227   3.765
    1PA    H14R 3761   4.311   0.333   3.746
    1PA    H14S 3762   4.229   0.192   3.686
    1PA    C113 3763   4.251   0.210   3.911
    1PA    H13R 3764   4.241   0.106   3.940
    1PA    H13S 3765   4.331   0.244   3.977
    1PA    C112 3766   4.122   0.288   3.940
    1PA    H12R 3767   4.145   0.392   3.917
    1PA    H12S 3768   4.046   0.239   3.878
    1PA    C111 3769   4.078   0.288   4.087
    1PA    H11R 3770   4.078   0.188   4.129
    1PA    H11S 3771   4.133   0.364   4.143
    1PA    C110 3772   3.934   0.343   4.080
    1PA    H10R 3773   3.940   0.448   4.049
    1PA    H10S 3774   3.868   0.277   4.024
    1PA     C19 3775   3.875   0.350   4.221
    1PA     H9R 3776   3.842   0.249   4.245
    1PA     H9S 3777   3.957   0.351   4.293
    1PA     C18 3778   3.763   0.453   4.242
    1PA     H8R 3779   3.753   0.525   4.161
    1PA     H8S 3780   3.670   0.401   4.266
    1PA     C17 3781   3.798   0.549   4.357
    1PA     H7R 3782   3.897   0.589   4.333
    1PA     H7S 3783   3.731   0.633   4.376
    1PA     C16 3784   3.798   0.476   4.492
    1PA     H6R 3785   3.706   0.420   4.512
    1PA     H6S 3786   3.883   0.407   4.491
    1PA     C15 3787   3.825   0.567   4.612
    1PA     H5R 3788   3.912   0.628   4.587
    1PA     H5S 3789   3.743   0.636   4.631
    1PA     C14 3790   3.856   0.491   4.741
    1PA     H4R 3791   3.770   0.434   4.779
    1PA     H4S 3792   3.928   0.410   4.725
    1PA     C13 3793   3.906   0.588   4.849
    1PA     H3R 3794   4.001   0.623   4.809
    1PA     H3S 3795   3.836   0.670   4.867
    1PA     C12 3796   3.916   0.507   4.979
    1PA     H2R 3797   3.821   0.501   5.033
    1PA     H2S 3798   3.968   0.412   4.965
    2PC     C11 3799   3.992   0.579   5.088
    2PC     O12 3800   4.113   0.582   5.096
    2PC     O11 3801   3.909   0.644   5.170
    2PC      C1 3802   3.964   0.719   5.281
    2PC      HR 3803   4.012   0.656   5.356
    2PC      HS 3804   4.041   0.791   5.256
    2PC      C2 3805   3.855   0.793   5.360
    2PC      HX 3806   3.893   0.829   5.456
    2PC      C3 3807   3.718   0.727   5.385
    2PC      HA 3808   3.659   0.727   5.294
    2PC      HB 3809   3.740   0.625   5.416
    2PC     O31 3810   3.642   0.802   5.482
    2PC     P31 3811   3.664   0.774   5.639
    2PC     O32 3812   3.673   0.918   5.708
    2PC     C31 3813   3.795   0.993   5.697
    2PC     H1A 3814   3.878   0.928   5.724
    2PC     H1B 3815   3.821   1.023   5.595
    2PC     C32 3816   3.791   1.117   5.789
    2PC     H2A 3817   3.886   1.170   5.787
    2PC     H2B 3818   3.718   1.184   5.743
    2PC     N31 3819   3.761   1.101   5.935
    2PC     C33 3820   3.859   1.003   5.992
    2PC     H3A 3821   3.953   1.048   6.023
    2PC     H3B 3822   3.808   0.951   6.074
    2PC     H3C 3823   3.874   0.929   5.914
    2PC     C34 3824   3.786   1.230   6.006
    2PC     H4A 3825   3.703   1.298   5.985
    2PC     H4B 3826   3.799   1.200   6.109
    2PC     H4C 3827   3.877   1.268   5.958
    2PC     C35 3828   3.617   1.067   5.954
    2PC     H5A 3829   3.603   0.966   5.915
    2PC     H5B 3830   3.550   1.137   5.903
    2PC     H5C 3831   3.599   1.070   6.062
    2PC     O33 3832   3.549   0.698   5.692
    2PC     O34 3833   3.788   0.695   5.654
    2PC     O21 3834   3.827   0.907   5.277
    2PC     C21 3835   3.904   1.015   5.294
    2PC     O22 3836   3.987   1.029   5.382
    3OL     C12 3837   3.874   1.114   5.184
    3OL     H2R 3838   3.768   1.106   5.159
    3OL     H2S 3839   3.921   1.069   5.097
    3OL     C13 3840   3.928   1.254   5.214
    3OL     H3R 3841   4.037   1.255   5.225
    3OL     H3S 3842   3.891   1.286   5.312
    3OL     C14 3843   3.893   1.369   5.119
    3OL     H4R 3844   3.906   1.468   5.165
    3OL     H4S 3845   3.786   1.349   5.109
    3OL     C15 3846   3.959   1.362   4.981
    3OL     H5R 3847   3.915   1.278   4.926
    3OL     H5S 3848   4.065   1.350   5.003
    3OL     C16 3849   3.948   1.483   4.887
    3OL     H6R 3850   4.010   1.476   4.797
    3OL     H6S 3851   3.982   1.571   4.941
    3OL     C17 3852   3.805   1.491   4.831
    3OL     H7R 3853   3.802   1.584   4.774
    3OL     H7S 3854   3.730   1.504   4.909
    3OL     C18 3855   3.776   1.382   4.726
    3OL     H8R 3856   3.667   1.379   4.718
    3OL     H8S 3857   3.814   1.284   4.756
    3OL     C19 3858   3.841   1.406   4.592
    3OL     H9R 3859   3.950   1.400   4.593
    3OL    C110 3860   3.787   1.439   4.476
    3OL    H10R 3861   3.850   1.455   4.389
    3OL    C111 3862   3.639   1.467   4.460
    3OL    H11R 3863   3.609   1.551   4.524
    3OL    H11S 3864   3.587   1.377   4.493
    3OL    C112 3865   3.599   1.500   4.316
    3OL    H12R 3866   3.657   1.590   4.293
    3OL    H12S 3867   3.493   1.522   4.308
    3OL    C113 3868   3.630   1.382   4.222
    3OL    H13R 3869   3.569   1.306   4.271
    3OL    H13S 3870   3.732   1.347   4.234
    3OL    C114 3871   3.586   1.417   4.079
    3OL    H14R 3872   3.636   1.509   4.050
    3OL    H14S 3873   3.479   1.439   4.084
    3OL    C115 3874   3.613   1.302   3.980
    3OL    H15R 3875   3.552   1.218   4.014
    3OL    H15S 3876   3.718   1.282   4.001
    3OL    C116 3877   3.585   1.334   3.833
    3OL    H16R 3878   3.500   1.402   3.824
    3OL    H16S 3879   3.545   1.241   3.791
    3OL    C117 3880   3.709   1.377   3.753
    3OL    H17R 3881   3.783   1.300   3.774
    3OL    H17S 3882   3.745   1.468   3.801
    3OL    C118 3883   3.691   1.391   3.601
    3OL    H18R 3884   3.657   1.294   3.565
    3OL    H18S 3885   3.789   1.410   3.556
    3OL    H18T 3886   3.615   1.466   3.581
    1PA    C116 3887   1.537   2.408   3.867
    1PA    H16R 3888   1.616   2.378   3.936
    1PA    H16S 3889   1.530   2.514   3.892
    1PA    H16T 3890   1.566   2.396   3.763
    1PA    C115 3891   1.405   2.333   3.894
    1PA    H15R 3892   1.332   2.404   3.855
    1PA    H15S 3893   1.405   2.237   3.842
    1PA    C114 3894   1.371   2.334   4.044
    1PA    H14R 3895   1.400   2.435   4.075
    1PA    H14S 3896   1.265   2.313   4.058
    1PA    C113 3897   1.442   2.213   4.105
    1PA    H13R 3898   1.393   2.128   4.056
    1PA    H13S 3899   1.545   2.213   4.067
    1PA    C112 3900   1.431   2.202   4.258
    1PA    H12R 3901   1.329   2.209   4.294
    1PA    H12S 3902   1.450   2.098   4.287
    1PA    C111 3903   1.529   2.303   4.320
    1PA    H11R 3904   1.626   2.290   4.272
    1PA    H11S 3905   1.492   2.401   4.289
    1PA    C110 3906   1.538   2.287   4.472
    1PA    H10R 3907   1.441   2.301   4.522
    1PA    H10S 3908   1.574   2.187   4.497
    1PA     C19 3909   1.628   2.398   4.529
    1PA     H9R 3910   1.720   2.406   4.470
    1PA     H9S 3911   1.575   2.491   4.508
    1PA     C18 3912   1.662   2.386   4.678
    1PA     H8R 3913   1.681   2.280   4.697
    1PA     H8S 3914   1.748   2.450   4.694
    1PA     C17 3915   1.554   2.438   4.775
    1PA     H7R 3916   1.541   2.542   4.745
    1PA     H7S 3917   1.458   2.389   4.761
    1PA     C16 3918   1.594   2.427   4.923
    1PA     H6R 3919   1.653   2.337   4.939
    1PA     H6S 3920   1.651   2.512   4.960
    1PA     C15 3921   1.466   2.423   5.008
    1PA     H5R 3922   1.378   2.473   4.966
    1PA     H5S 3923   1.443   2.319   5.030
    1PA     C14 3924   1.499   2.511   5.129
    1PA     H4R 3925   1.588   2.472   5.180
    1PA     H4S 3926   1.522   2.613   5.099
    1PA     C13 3927   1.386   2.513   5.233
    1PA     H3R 3928   1.429   2.570   5.316
    1PA     H3S 3929   1.305   2.572   5.190
    1PA     C12 3930   1.356   2.375   5.294
    1PA     H2R 3931   1.306   2.328   5.209
    1PA     H2S 3932   1.451   2.326   5.316
    2PC     C11 3933   1.263   2.363   5.412
    2PC     O12 3934   1.208   2.258   5.438
    2PC     O11 3935   1.255   2.470   5.492
    2PC      C1 3936   1.189   2.467   5.620
    2PC      HR 3937   1.082   2.442   5.616
    2PC      HS 3938   1.241   2.391   5.679
    2PC      C2 3939   1.199   2.598   5.699
    2PC      HX 3940   1.300   2.616   5.736
    2PC      C3 3941   1.114   2.593   5.827
    2PC      HA 3942   1.010   2.587   5.797
    2PC      HB 3943   1.137   2.503   5.886
    2PC     O31 3944   1.128   2.712   5.907
    2PC     P31 3945   1.010   2.763   6.002
    2PC     O32 3946   0.993   2.637   6.101
    2PC     C31 3947   0.865   2.574   6.117
    2PC     H1A 3948   0.786   2.650   6.117
    2PC     H1B 3949   0.859   2.510   6.028
    2PC     C32 3950   0.880   2.494   6.247
    2PC     H2A 3951   0.814   2.408   6.243
    2PC     H2B 3952   0.983   2.459   6.254
    2PC     N31 3953   0.868   2.569   6.376
    2PC     C33 3954   0.889   2.478   6.494
    2PC     H3A 3955   0.811   2.402   6.499
    2PC     H3B 3956   0.987   2.431   6.494
    2PC     H3C 3957   0.887   2.541   6.583
    2PC     C34 3958   0.984   2.664   6.382
    2PC     H4A 3959   1.065   2.593   6.368
    2PC     H4B 3960   0.961   2.732   6.299
    2PC     H4C 3961   0.992   2.718   6.477
    2PC     C35 3962   0.740   2.645   6.385
    2PC     H5A 3963   0.717   2.712   6.301
    2PC     H5B 3964   0.719   2.698   6.478
    2PC     H5C 3965   0.658   2.574   6.374
    2PC     O33 3966   1.011   2.890   6.077
    2PC     O34 3967   0.893   2.794   5.918
    2PC     O21 3968   1.164   2.704   5.609
    2PC     C21 3969   1.047   2.704   5.542
    2PC     O22 3970   0.945   2.649   5.576
    3OL     C12 3971   1.035   2.809   5.435
    3OL     H2R 3972   1.120   2.878   5.441
    3OL     H2S 3973   0.936   2.854   5.446
    3OL     C13 3974   1.022   2.742   5.297
    3OL     H3R 3975   0.981   2.642   5.312
    3OL     H3S 3976   1.124   2.742   5.257
    3OL     C14 3977   0.938   2.821   5.196
    3OL     H4R 3978   0.973   2.923   5.183
    3OL     H4S 3979   0.833   2.824   5.226
    3OL     C15 3980   0.957   2.754   5.059
    3OL     H5R 3981   0.973   2.646   5.067
    3OL     H5S 3982   1.041   2.799   5.005
    3OL     C16 3983   0.822   2.775   4.990
    3OL     H6R 3984   0.811   2.877   4.952
    3OL     H6S 3985   0.736   2.733   5.043
    3OL     C17 3986   0.824   2.700   4.856
    3OL     H7R 3987   0.831   2.591   4.865
    3OL     H7S 3988   0.907   2.733   4.794
    3OL     C18 3989   0.697   2.745   4.783
    3OL     H8R 3990   0.689   2.854   4.777
    3OL     H8S 3991   0.612   2.703   4.836
    3OL     C19 3992   0.693   2.698   4.639
    3OL     H9R 3993   0.792   2.679   4.598
    3OL    C110 3994   0.589   2.656   4.568
    3OL    H10R 3995   0.609   2.615   4.469
    3OL    C111 3996   0.451   2.712   4.590
    3OL    H11R 3997   0.461   2.806   4.645
    3OL    H11S 3998   0.388   2.640   4.644
    3OL    C112 3999   0.363   2.736   4.467
    3OL    H12R 4000   0.263   2.760   4.505
    3OL    H12S 4001   0.352   2.638   4.420
    3OL    C113 4002   0.424   2.837   4.369
    3OL    H13R 4003   0.524   2.802   4.343
    3OL    H13S 4004   0.420   2.932   4.422
    3OL    C114 4005   0.347   2.856   4.237
    3OL    H14R 4006   0.248   2.893   4.266
    3OL    H14S 4007   0.340   2.756   4.195
    3OL    C115 4008   0.422   2.940   4.132
    3OL    H15R 4009   0.347   2.957   4.055
    3OL    H15S 4010   0.508   2.883   4.096
    3OL    C116 4011   0.479   3.075   4.178
    3OL    H16R 4012   0.532   3.069   4.274
    3OL    H16S 4013   0.396   3.145   4.175
    3OL    C117 4014   0.581   3.136   4.081
    3OL    H17R 4015   0.536   3.125   3.982
    3OL    H17S 4016   0.677   3.084   4.088
    3OL    C118 4017   0.607   3.284   4.111
    3OL    H18R 4018   0.630   3.300   4.216
    3OL    H18S 4019   0.521   3.343   4.078
    3OL    H18T 4020   0.690   3.313   4.046
    1PA    C116 4021   2.560   5.973   3.690
    1PA    H16R 4022   2.452   5.970   3.703
    1PA    H16S 4023   2.601   5.871   3.686
    1PA    H16T 4024   2.583   6.025   3.597
    1PA    C115 4025   2.628   6.051   3.804
    1PA    H15R 4026   2.729   6.059   3.762
    1PA    H15S 4027   2.597   6.156   3.811
    1PA    C114 4028   2.650   5.975   3.935
    1PA    H14R 4029   2.556   5.928   3.966
    1PA    H14S 4030   2.729   5.902   3.915
    1PA    C113 4031   2.702   6.077   4.036
    1PA    H13R 4032   2.778   6.145   3.997
    1PA    H13S 4033   2.618   6.147   4.045
    1PA    C112 4034   2.743   6.003   4.164
    1PA    H12R 4035   2.664   5.934   4.196
    1PA    H12S 4036   2.825   5.935   4.140
    1PA    C111 4037   2.794   6.099   4.272
    1PA    H11R 4038   2.715   6.174   4.281
    1PA    H11S 4039   2.804   6.052   4.370
    1PA    C110 4040   2.926   6.173   4.247
    1PA    H10R 4041   2.916   6.235   4.158
    1PA    H10S 4042   2.952   6.237   4.331
    1PA     C19 4043   3.049   6.082   4.233
    1PA     H9R 4044   3.045   6.007   4.312
    1PA     H9S 4045   3.046   6.029   4.138
    1PA     C18 4046   3.180   6.161   4.248
    1PA     H8R 4047   3.199   6.219   4.157
    1PA     H8S 4048   3.182   6.238   4.325
    1PA     C17 4049   3.298   6.064   4.261
    1PA     H7R 4050   3.300   5.981   4.190
    1PA     H7S 4051   3.383   6.125   4.230
    1PA     C16 4052   3.336   6.020   4.403
    1PA     H6R 4053   3.242   5.999   4.455
    1PA     H6S 4054   3.408   5.938   4.403
    1PA     C15 4055   3.395   6.136   4.485
    1PA     H5R 4056   3.463   6.191   4.420
    1PA     H5S 4057   3.315   6.205   4.514
    1PA     C14 4058   3.474   6.083   4.605
    1PA     H4R 4059   3.401   6.031   4.668
    1PA     H4S 4060   3.548   6.014   4.564
    1PA     C13 4061   3.543   6.191   4.691
    1PA     H3R 4062   3.632   6.223   4.637
    1PA     H3S 4063   3.471   6.272   4.697
    1PA     C12 4064   3.595   6.145   4.828
    1PA     H2R 4065   3.669   6.067   4.815
    1PA     H2S 4066   3.635   6.233   4.877
    2PC     C11 4067   3.491   6.082   4.917
    2PC     O12 4068   3.504   5.988   4.992
    2PC     O11 4069   3.380   6.159   4.921
    2PC      C1 4070   3.281   6.133   5.022
    2PC      HR 4071   3.189   6.150   4.965
    2PC      HS 4072   3.281   6.034   5.067
    2PC      C2 4073   3.298   6.243   5.128
    2PC      HX 4074   3.395   6.258   5.177
    2PC      C3 4075   3.192   6.211   5.233
    2PC      HA 4076   3.209   6.111   5.274
    2PC      HB 4077   3.190   6.284   5.315
    2PC     O31 4078   3.063   6.206   5.169
    2PC     P31 4079   2.928   6.205   5.254
    2PC     O32 4080   2.905   6.049   5.283
    2PC     C31 4081   2.915   5.958   5.171
    2PC     H1A 4082   2.859   5.997   5.086
    2PC     H1B 4083   3.021   5.940   5.150
    2PC     C32 4084   2.855   5.822   5.212
    2PC     H2A 4085   2.867   5.754   5.128
    2PC     H2B 4086   2.900   5.788   5.304
    2PC     N31 4087   2.708   5.821   5.240
    2PC     C33 4088   2.666   5.680   5.268
    2PC     H3A 4089   2.558   5.679   5.284
    2PC     H3B 4090   2.700   5.612   5.190
    2PC     H3C 4091   2.721   5.643   5.354
    2PC     C34 4092   2.686   5.901   5.365
    2PC     H4A 4093   2.692   6.005   5.332
    2PC     H4B 4094   2.595   5.873   5.419
    2PC     H4C 4095   2.775   5.890   5.426
    2PC     C35 4096   2.624   5.873   5.128
    2PC     H5A 4097   2.636   5.981   5.131
    2PC     H5B 4098   2.527   5.823   5.138
    2PC     H5C 4099   2.664   5.847   5.030
    2PC     O33 4100   2.940   6.290   5.375
    2PC     O34 4101   2.811   6.262   5.183
    2PC     O21 4102   3.248   6.370   5.084
    2PC     C21 4103   3.319   6.437   4.992
    2PC     O22 4104   3.439   6.432   4.974
    3OL     C12 4105   3.242   0.048   4.909
    3OL     H2R 4106   3.135   0.029   4.906
    3OL     H2S 4107   3.285   0.051   4.808
    3OL     C13 4108   3.275   0.188   4.962
    3OL     H3R 4109   3.383   0.202   4.977
    3OL     H3S 4110   3.226   0.208   5.058
    3OL     C14 4111   3.226   0.305   4.875
    3OL     H4R 4112   3.235   0.400   4.928
    3OL     H4S 4113   3.120   0.291   4.851
    3OL     C15 4114   3.314   0.328   4.752
    3OL     H5R 4115   3.328   0.235   4.696
    3OL     H5S 4116   3.412   0.351   4.795
    3OL     C16 4117   3.264   0.443   4.664
    3OL     H6R 4118   3.246   0.529   4.729
    3OL     H6S 4119   3.163   0.425   4.626
    3OL     C17 4120   3.367   0.476   4.555
    3OL     H7R 4121   3.398   0.384   4.505
    3OL     H7S 4122   3.454   0.520   4.603
    3OL     C18 4123   3.308   0.569   4.448
    3OL     H8R 4124   3.258   0.651   4.500
    3OL     H8S 4125   3.229   0.521   4.388
    3OL     C19 4126   3.405   0.632   4.351
    3OL     H9R 4127   3.465   0.714   4.389
    3OL    C110 4128   3.431   0.590   4.228
    3OL    H10R 4129   3.513   0.644   4.182
    3OL    C111 4130   3.379   0.469   4.155
    3OL    H11R 4131   3.295   0.419   4.204
    3OL    H11S 4132   3.465   0.402   4.155
    3OL    C112 4133   3.331   0.495   4.011
    3OL    H12R 4134   3.236   0.549   4.016
    3OL    H12S 4135   3.299   0.399   3.971
    3OL    C113 4136   3.435   0.555   3.917
    3OL    H13R 4137   3.464   0.651   3.960
    3OL    H13S 4138   3.387   0.579   3.822
    3OL    C114 4139   3.563   0.474   3.895
    3OL    H14R 4140   3.541   0.369   3.875
    3OL    H14S 4141   3.621   0.477   3.988
    3OL    C115 4142   3.641   0.530   3.775
    3OL    H15R 4143   3.653   0.638   3.788
    3OL    H15S 4144   3.578   0.517   3.686
    3OL    C116 4145   3.778   0.462   3.763
    3OL    H16R 4146   3.772   0.354   3.750
    3OL    H16S 4147   3.836   0.480   3.854
    3OL    C117 4148   3.859   0.526   3.650
    3OL    H17R 4149   3.869   0.634   3.662
    3OL    H17S 4150   3.806   0.503   3.558
    3OL    C118 4151   3.999   0.461   3.648
    3OL    H18R 4152   4.051   0.505   3.562
    3OL    H18S 4153   3.994   0.353   3.633
    3OL    H18T 4154   4.055   0.473   3.741
    1PA    C116 4155   5.753   3.137   3.809
    1PA    H16R 4156   5.743   3.243   3.783
    1PA    H16S 4157   5.817   3.084   3.738
    1PA    H16T 4158   5.798   3.129   3.908
    1PA    C115 4159   5.619   3.065   3.791
    1PA    H15R 4160   5.591   3.054   3.686
    1PA    H15S 4161   5.626   2.962   3.828
    1PA    C114 4162   5.504   3.144   3.855
    1PA    H14R 4163   5.539   3.155   3.958
    1PA    H14S 4164   5.499   3.239   3.802
    1PA    C113 4165   5.372   3.066   3.866
    1PA    H13R 4166   5.342   3.040   3.765
    1PA    H13S 4167   5.377   2.969   3.916
    1PA    C112 4168   5.266   3.150   3.939
    1PA    H12R 4169   5.310   3.150   4.039
    1PA    H12S 4170   5.258   3.256   3.912
    1PA    C111 4171   5.123   3.095   3.942
    1PA    H11R 4172   5.092   3.120   3.840
    1PA    H11S 4173   5.129   2.987   3.956
    1PA    C110 4174   5.038   3.155   4.055
    1PA    H10R 4175   5.060   3.261   4.071
    1PA    H10S 4176   4.933   3.140   4.028
    1PA     C19 4177   5.071   3.084   4.187
    1PA     H9R 4178   5.037   2.981   4.193
    1PA     H9S 4179   5.179   3.077   4.197
    1PA     C18 4180   5.003   3.141   4.312
    1PA     H8R 4181   4.986   3.249   4.310
    1PA     H8S 4182   4.901   3.105   4.321
    1PA     C17 4183   5.081   3.098   4.438
    1PA     H7R 4184   5.068   2.990   4.447
    1PA     H7S 4185   5.188   3.111   4.422
    1PA     C16 4186   5.025   3.183   4.553
    1PA     H6R 4187   5.022   3.291   4.537
    1PA     H6S 4188   4.924   3.144   4.559
    1PA     C15 4189   5.104   3.157   4.682
    1PA     H5R 4190   5.109   3.048   4.690
    1PA     H5S 4191   5.206   3.194   4.672
    1PA     C14 4192   5.040   3.220   4.807
    1PA     H4R 4193   5.029   3.325   4.780
    1PA     H4S 4194   4.944   3.172   4.822
    1PA     C13 4195   5.128   3.212   4.933
    1PA     H3R 4196   5.138   3.107   4.963
    1PA     H3S 4197   5.229   3.246   4.910
    1PA     C12 4198   5.064   3.302   5.039
    1PA     H2R 4199   5.080   3.403   5.003
    1PA     H2S 4200   4.959   3.275   5.052
    2PC     C11 4201   5.110   3.282   5.181
    2PC     O12 4202   5.189   3.200   5.223
    2PC     O11 4203   5.070   3.388   5.253
    2PC      C1 4204   5.082   3.377   5.396
    2PC      HR 4205   5.038   3.279   5.416
    2PC      HS 4206   5.184   3.378   5.434
    2PC      C2 4207   4.998   3.489   5.458
    2PC      HX 4208   5.041   3.582   5.422
    2PC      C3 4209   4.997   3.483   5.612
    2PC      HA 4210   4.964   3.385   5.645
    2PC      HB 4211   5.099   3.496   5.650
    2PC     O31 4212   4.925   3.596   5.664
    2PC     P31 4213   4.951   3.636   5.817
    2PC     O32 4214   4.796   3.663   5.849
    2PC     C31 4215   4.745   3.777   5.778
    2PC     H1A 4216   4.769   3.868   5.834
    2PC     H1B 4217   4.781   3.789   5.676
    2PC     C32 4218   4.592   3.764   5.779
    2PC     H2A 4219   4.545   3.845   5.723
    2PC     H2B 4220   4.569   3.670   5.730
    2PC     N31 4221   4.517   3.771   5.908
    2PC     C33 4222   4.370   3.781   5.882
    2PC     H3A 4223   4.332   3.682   5.858
    2PC     H3B 4224   4.325   3.810   5.977
    2PC     H3C 4225   4.342   3.846   5.798
    2PC     C34 4226   4.527   3.649   5.994
    2PC     H4A 4227   4.484   3.561   5.945
    2PC     H4B 4228   4.632   3.637   6.021
    2PC     H4C 4229   4.466   3.666   6.083
    2PC     C35 4230   4.562   3.891   5.987
    2PC     H5A 4231   4.499   3.891   6.076
    2PC     H5B 4232   4.540   3.981   5.929
    2PC     H5C 4233   4.667   3.885   6.016
    2PC     O33 4234   5.003   3.542   5.920
    2PC     O34 4235   5.040   3.753   5.836
    2PC     O21 4236   4.859   3.478   5.421
    2PC     C21 4237   4.792   3.593   5.402
    2PC     O22 4238   4.834   3.706   5.390
    3OL     C12 4239   4.644   3.567   5.419
    3OL     H2R 4240   4.597   3.651   5.368
    3OL     H2S 4241   4.618   3.583   5.524
    3OL     C13 4242   4.595   3.432   5.364
    3OL     H3R 4243   4.494   3.418   5.402
    3OL     H3S 4244   4.658   3.348   5.394
    3OL     C14 4245   4.595   3.432   5.210
    3OL     H4R 4246   4.693   3.445   5.164
    3OL     H4S 4247   4.534   3.514   5.173
    3OL     C15 4248   4.535   3.298   5.164
    3OL     H5R 4249   4.434   3.298   5.205
    3OL     H5S 4250   4.599   3.220   5.206
    3OL     C16 4251   4.514   3.278   5.013
    3OL     H6R 4252   4.609   3.291   4.962
    3OL     H6S 4253   4.439   3.351   4.980
    3OL     C17 4254   4.461   3.136   4.988
    3OL     H7R 4255   4.534   3.077   5.043
    3OL     H7S 4256   4.478   3.099   4.887
    3OL     C18 4257   4.313   3.120   5.025
    3OL     H8R 4258   4.254   3.197   4.975
    3OL     H8S 4259   4.307   3.131   5.134
    3OL     C19 4260   4.264   2.981   4.995
    3OL     H9R 4261   4.243   2.918   5.082
    3OL    C110 4262   4.214   2.945   4.878
    3OL    H10R 4263   4.179   2.842   4.883
    3OL    C111 4264   4.194   3.033   4.757
    3OL    H11R 4265   4.271   3.110   4.742
    3OL    H11S 4266   4.105   3.095   4.766
    3OL    C112 4267   4.186   2.955   4.625
    3OL    H12R 4268   4.283   2.911   4.602
    3OL    H12S 4269   4.178   3.032   4.548
    3OL    C113 4270   4.072   2.852   4.622
    3OL    H13R 4271   4.061   2.799   4.716
    3OL    H13S 4272   4.093   2.772   4.550
    3OL    C114 4273   3.939   2.919   4.584
    3OL    H14R 4274   3.933   3.019   4.627
    3OL    H14S 4275   3.857   2.866   4.633
    3OL    C115 4276   3.919   2.911   4.432
    3OL    H15R 4277   3.911   2.802   4.425
    3OL    H15S 4278   4.011   2.941   4.382
    3OL    C116 4279   3.809   3.001   4.375
    3OL    H16R 4280   3.843   3.105   4.375
    3OL    H16S 4281   3.709   3.014   4.416
    3OL    C117 4282   3.806   2.976   4.223
    3OL    H17R 4283   3.770   2.874   4.206
    3OL    H17S 4284   3.909   2.965   4.188
    3OL    C118 4285   3.723   3.069   4.134
    3OL    H18R 4286   3.621   3.064   4.172
    3OL    H18S 4287   3.735   3.053   4.026
    3OL    H18T 4288   3.747   3.175   4.139
    1PA    C116 4289   3.033   2.869   3.321
    1PA    H16R 4290   3.084   2.893   3.228
    1PA    H16S 4291   2.974   2.957   3.347
    1PA    H16T 4292   2.981   2.774   3.311
    1PA    C115 4293   3.137   2.851   3.433
    1PA    H15R 4294   3.202   2.765   3.416
    1PA    H15S 4295   3.202   2.939   3.438
    1PA    C114 4296   3.061   2.832   3.564
    1PA    H14R 4297   2.996   2.918   3.581
    1PA    H14S 4298   3.002   2.740   3.556
    1PA    C113 4299   3.157   2.807   3.682
    1PA    H13R 4300   3.205   2.714   3.649
    1PA    H13S 4301   3.221   2.892   3.703
    1PA    C112 4302   3.077   2.773   3.808
    1PA    H12R 4303   2.973   2.750   3.782
    1PA    H12S 4304   3.117   2.684   3.857
    1PA    C111 4305   3.059   2.891   3.904
    1PA    H11R 4306   3.153   2.911   3.957
    1PA    H11S 4307   3.034   2.990   3.864
    1PA    C110 4308   2.947   2.852   4.001
    1PA    H10R 4309   2.850   2.840   3.950
    1PA    H10S 4310   2.953   2.755   4.051
    1PA     C19 4311   2.926   2.958   4.110
    1PA     H9R 4312   3.020   2.962   4.166
    1PA     H9S 4313   2.900   3.057   4.073
    1PA     C18 4314   2.824   2.915   4.216
    1PA     H8R 4315   2.728   2.924   4.164
    1PA     H8S 4316   2.830   2.808   4.237
    1PA     C17 4317   2.819   3.009   4.337
    1PA     H7R 4318   2.911   3.006   4.395
    1PA     H7S 4319   2.796   3.113   4.311
    1PA     C16 4320   2.704   2.959   4.425
    1PA     H6R 4321   2.609   2.982   4.376
    1PA     H6S 4322   2.710   2.851   4.440
    1PA     C15 4323   2.717   3.021   4.565
    1PA     H5R 4324   2.762   3.121   4.561
    1PA     H5S 4325   2.622   3.012   4.618
    1PA     C14 4326   2.813   2.930   4.643
    1PA     H4R 4327   2.766   2.833   4.661
    1PA     H4S 4328   2.907   2.899   4.597
    1PA     C13 4329   2.851   2.984   4.782
    1PA     H3R 4330   2.912   3.075   4.781
    1PA     H3S 4331   2.764   3.019   4.838
    1PA     C12 4332   2.916   2.879   4.872
    1PA     H2R 4333   2.837   2.807   4.894
    1PA     H2S 4334   2.996   2.840   4.809
    2PC     C11 4335   2.962   2.926   5.008
    2PC     O12 4336   2.965   3.042   5.044
    2PC     O11 4337   2.995   2.823   5.086
    2PC      C1 4338   3.006   2.829   5.230
    2PC      HR 4339   3.061   2.742   5.265
    2PC      HS 4340   3.055   2.922   5.260
    2PC      C2 4341   2.867   2.818   5.293
    2PC      HX 4342   2.804   2.895   5.248
    2PC      C3 4343   2.871   2.831   5.446
    2PC      HA 4344   2.927   2.923   5.464
    2PC      HB 4345   2.770   2.846   5.484
    2PC     O31 4346   2.942   2.721   5.507
    2PC     P31 4347   3.003   2.728   5.655
    2PC     O32 4348   2.871   2.754   5.743
    2PC     C31 4349   2.830   2.884   5.787
    2PC     H1A 4350   2.909   2.925   5.851
    2PC     H1B 4351   2.824   2.961   5.709
    2PC     C32 4352   2.703   2.884   5.873
    2PC     H2A 4353   2.690   2.983   5.916
    2PC     H2B 4354   2.617   2.874   5.807
    2PC     N31 4355   2.686   2.784   5.984
    2PC     C33 4356   2.570   2.829   6.068
    2PC     H3A 4357   2.494   2.861   5.997
    2PC     H3B 4358   2.545   2.756   6.145
    2PC     H3C 4359   2.608   2.916   6.121
    2PC     C34 4360   2.649   2.646   5.939
    2PC     H4A 4361   2.549   2.637   5.895
    2PC     H4B 4362   2.723   2.597   5.877
    2PC     H4C 4363   2.651   2.584   6.028
    2PC     C35 4364   2.808   2.775   6.070
    2PC     H5A 4365   2.842   2.877   6.092
    2PC     H5B 4366   2.878   2.721   6.006
    2PC     H5C 4367   2.794   2.720   6.164
    2PC     O33 4368   3.074   2.608   5.705
    2PC     O34 4369   3.105   2.833   5.678
    2PC     O21 4370   2.816   2.686   5.268
    2PC     C21 4371   2.687   2.659   5.294
    2PC     O22 4372   2.606   2.747   5.318
    3OL     C12 4373   2.658   2.511   5.293
    3OL     H2R 4374   2.674   2.465   5.391
    3OL     H2S 4375   2.735   2.466   5.230
    3OL     C13 4376   2.523   2.473   5.230
    3OL     H3R 4377   2.512   2.527   5.136
    3OL     H3S 4378   2.439   2.502   5.295
    3OL     C14 4379   2.506   2.321   5.217
    3OL     H4R 4380   2.518   2.284   5.319
    3OL     H4S 4381   2.588   2.282   5.157
    3OL     C15 4382   2.372   2.271   5.163
    3OL     H5R 4383   2.297   2.317   5.228
    3OL     H5S 4384   2.364   2.162   5.156
    3OL     C16 4385   2.342   2.321   5.021
    3OL     H6R 4386   2.426   2.296   4.956
    3OL     H6S 4387   2.333   2.429   5.032
    3OL     C17 4388   2.210   2.256   4.977
    3OL     H7R 4389   2.133   2.285   5.049
    3OL     H7S 4390   2.209   2.147   4.982
    3OL     C18 4391   2.164   2.307   4.839
    3OL     H8R 4392   2.063   2.268   4.821
    3OL     H8S 4393   2.230   2.256   4.769
    3OL     C19 4394   2.160   2.457   4.825
    3OL     H9R 4395   2.199   2.510   4.911
    3OL    C110 4396   2.105   2.526   4.725
    3OL    H10R 4397   2.089   2.632   4.741
    3OL    C111 4398   2.048   2.466   4.599
    3OL    H11R 4399   1.959   2.523   4.573
    3OL    H11S 4400   2.002   2.367   4.609
    3OL    C112 4401   2.142   2.468   4.478
    3OL    H12R 4402   2.245   2.448   4.509
    3OL    H12S 4403   2.148   2.575   4.456
    3OL    C113 4404   2.091   2.381   4.362
    3OL    H13R 4405   1.984   2.392   4.343
    3OL    H13S 4406   2.096   2.278   4.399
    3OL    C114 4407   2.161   2.381   4.226
    3OL    H14R 4408   2.264   2.348   4.238
    3OL    H14S 4409   2.172   2.478   4.178
    3OL    C115 4410   2.098   2.277   4.132
    3OL    H15R 4411   2.094   2.178   4.177
    3OL    H15S 4412   2.172   2.264   4.053
    3OL    C116 4413   1.957   2.312   4.081
    3OL    H16R 4414   1.962   2.416   4.048
    3OL    H16S 4415   1.896   2.306   4.171
    3OL    C117 4416   1.901   2.218   3.973
    3OL    H17R 4417   1.797   2.249   3.962
    3OL    H17S 4418   1.893   2.120   4.022
    3OL    C118 4419   1.980   2.219   3.841
    3OL    H18R 4420   1.941   2.294   3.772
    3OL    H18S 4421   1.959   2.125   3.789
    3OL    H18T 4422   2.086   2.226   3.864
    1PA    C116 4423   3.796   3.444   3.630
    1PA    H16R 4424   3.785   3.366   3.706
    1PA    H16S 4425   3.897   3.463   3.594
    1PA    H16T 4426   3.746   3.401   3.543
    1PA    C115 4427   3.740   3.578   3.679
    1PA    H15R 4428   3.798   3.618   3.763
    1PA    H15S 4429   3.749   3.654   3.601
    1PA    C114 4430   3.594   3.553   3.721
    1PA    H14R 4431   3.567   3.448   3.731
    1PA    H14S 4432   3.572   3.595   3.820
    1PA    C113 4433   3.499   3.604   3.612
    1PA    H13R 4434   3.527   3.706   3.586
    1PA    H13S 4435   3.521   3.551   3.519
    1PA    C112 4436   3.350   3.599   3.650
    1PA    H12R 4437   3.296   3.593   3.556
    1PA    H12S 4438   3.327   3.520   3.722
    1PA    C111 4439   3.307   3.737   3.701
    1PA    H11R 4440   3.362   3.755   3.794
    1PA    H11S 4441   3.333   3.819   3.635
    1PA    C110 4442   3.159   3.745   3.742
    1PA    H10R 4443   3.111   3.820   3.679
    1PA    H10S 4444   3.100   3.654   3.736
    1PA     C19 4445   3.143   3.782   3.890
    1PA     H9R 4446   3.038   3.771   3.916
    1PA     H9S 4447   3.188   3.700   3.947
    1PA     C18 4448   3.197   3.919   3.932
    1PA     H8R 4449   3.305   3.933   3.920
    1PA     H8S 4450   3.161   3.995   3.862
    1PA     C17 4451   3.149   3.961   4.072
    1PA     H7R 4452   3.134   4.069   4.074
    1PA     H7S 4453   3.049   3.917   4.085
    1PA     C16 4454   3.254   3.920   4.176
    1PA     H6R 4455   3.272   3.813   4.168
    1PA     H6S 4456   3.351   3.971   4.163
    1PA     C15 4457   3.211   3.937   4.323
    1PA     H5R 4458   3.164   4.034   4.333
    1PA     H5S 4459   3.124   3.871   4.334
    1PA     C14 4460   3.323   3.927   4.427
    1PA     H4R 4461   3.392   3.844   4.411
    1PA     H4S 4462   3.388   4.012   4.406
    1PA     C13 4463   3.274   3.941   4.572
    1PA     H3R 4464   3.214   4.029   4.596
    1PA     H3S 4465   3.204   3.859   4.588
    1PA     C12 4466   3.400   3.923   4.658
    1PA     H2R 4467   3.445   3.832   4.619
    1PA     H2S 4468   3.467   4.009   4.653
    2PC     C11 4469   3.374   3.902   4.805
    2PC     O12 4470   3.284   3.842   4.860
    2PC     O11 4471   3.473   3.961   4.875
    2PC      C1 4472   3.480   3.958   5.018
    2PC      HR 4473   3.567   4.011   5.058
    2PC      HS 4474   3.390   4.009   5.056
    2PC      C2 4475   3.497   3.813   5.064
    2PC      HX 4476   3.410   3.755   5.034
    2PC      C3 4477   3.496   3.814   5.218
    2PC      HA 4478   3.392   3.838   5.243
    2PC      HB 4479   3.517   3.714   5.258
    2PC     O31 4480   3.593   3.906   5.270
    2PC     P31 4481   3.568   3.976   5.411
    2PC     O32 4482   3.420   4.037   5.395
    2PC     C31 4483   3.346   4.070   5.514
    2PC     H1A 4484   3.250   4.102   5.473
    2PC     H1B 4485   3.319   3.982   5.572
    2PC     C32 4486   3.405   4.188   5.593
    2PC     H2A 4487   3.509   4.164   5.617
    2PC     H2B 4488   3.404   4.271   5.523
    2PC     N31 4489   3.325   4.233   5.710
    2PC     C33 4490   3.183   4.260   5.671
    2PC     H3A 4491   3.131   4.164   5.681
    2PC     H3B 4492   3.135   4.335   5.734
    2PC     H3C 4493   3.179   4.301   5.570
    2PC     C34 4494   3.324   4.132   5.821
    2PC     H4A 4495   3.258   4.152   5.905
    2PC     H4B 4496   3.296   4.038   5.773
    2PC     H4C 4497   3.429   4.124   5.851
    2PC     C35 4498   3.377   4.366   5.758
    2PC     H5A 4499   3.332   4.378   5.857
    2PC     H5B 4500   3.339   4.436   5.684
    2PC     H5C 4501   3.485   4.364   5.750
    2PC     O33 4502   3.571   3.876   5.520
    2PC     O34 4503   3.671   4.081   5.427
    2PC     O21 4504   3.622   3.758   5.018
    2PC     C21 4505   3.671   3.639   5.056
    2PC     O22 4506   3.614   3.552   5.120
    3OL     C12 4507   3.807   3.602   5.005
    3OL     H2R 4508   3.855   3.532   5.074
    3OL     H2S 4509   3.871   3.690   5.015
    3OL     C13 4510   3.801   3.542   4.863
    3OL     H3R 4511   3.757   3.612   4.793
    3OL     H3S 4512   3.741   3.451   4.867
    3OL     C14 4513   3.942   3.509   4.812
    3OL     H4R 4514   3.986   3.432   4.876
    3OL     H4S 4515   4.004   3.598   4.818
    3OL     C15 4516   3.933   3.463   4.666
    3OL     H5R 4517   3.874   3.525   4.598
    3OL     H5S 4518   3.878   3.368   4.668
    3OL     C16 4519   4.070   3.437   4.603
    3OL     H6R 4520   4.134   3.387   4.676
    3OL     H6S 4521   4.114   3.533   4.574
    3OL     C17 4522   4.052   3.344   4.482
    3OL     H7R 4523   3.975   3.381   4.414
    3OL     H7S 4524   4.026   3.244   4.516
    3OL     C18 4525   4.183   3.341   4.401
    3OL     H8R 4526   4.204   3.447   4.380
    3OL     H8S 4527   4.183   3.288   4.306
    3OL     C19 4528   4.299   3.275   4.471
    3OL     H9R 4529   4.280   3.170   4.490
    3OL    C110 4530   4.418   3.326   4.499
    3OL    H10R 4531   4.488   3.265   4.555
    3OL    C111 4532   4.464   3.468   4.473
    3OL    H11R 4533   4.467   3.509   4.574
    3OL    H11S 4534   4.387   3.528   4.425
    3OL    C112 4535   4.606   3.471   4.416
    3OL    H12R 4536   4.647   3.572   4.410
    3OL    H12S 4537   4.598   3.436   4.313
    3OL    C113 4538   4.711   3.384   4.488
    3OL    H13R 4539   4.807   3.393   4.437
    3OL    H13S 4540   4.693   3.278   4.465
    3OL    C114 4541   4.726   3.408   4.639
    3OL    H14R 4542   4.779   3.322   4.680
    3OL    H14S 4543   4.639   3.410   4.706
    3OL    C115 4544   4.798   3.539   4.674
    3OL    H15R 4545   4.740   3.613   4.620
    3OL    H15S 4546   4.902   3.532   4.640
    3OL    C116 4547   4.800   3.559   4.826
    3OL    H16R 4548   4.859   3.482   4.875
    3OL    H16S 4549   4.703   3.554   4.875
    3OL    C117 4550   4.867   3.691   4.866
    3OL    H17R 4551   4.816   3.777   4.822
    3OL    H17S 4552   4.971   3.693   4.831
    3OL    C118 4553   4.873   3.706   5.019
    3OL    H18R 4554   4.776   3.708   5.070
    3OL    H18S 4555   4.939   3.783   5.058
    3OL    H18T 4556   4.925   3.620   5.063
    1PA    C116 4557   4.479   2.205   3.881
    1PA    H16R 4558   4.432   2.124   3.824
    1PA    H16S 4559   4.586   2.191   3.892
    1PA    H16T 4560   4.471   2.296   3.821
    1PA    C115 4561   4.422   2.238   4.020
    1PA    H15R 4562   4.462   2.330   4.062
    1PA    H15S 4563   4.314   2.247   4.008
    1PA    C114 4564   4.448   2.127   4.123
    1PA    H14R 4565   4.402   2.032   4.096
    1PA    H14S 4566   4.557   2.113   4.129
    1PA    C113 4567   4.386   2.166   4.258
    1PA    H13R 4568   4.444   2.247   4.303
    1PA    H13S 4569   4.282   2.195   4.239
    1PA    C112 4570   4.387   2.055   4.364
    1PA    H12R 4571   4.298   1.993   4.350
    1PA    H12S 4572   4.479   1.997   4.360
    1PA    C111 4573   4.357   2.110   4.504
    1PA    H11R 4574   4.440   2.178   4.523
    1PA    H11S 4575   4.262   2.164   4.500
    1PA    C110 4576   4.359   2.000   4.611
    1PA    H10R 4577   4.318   1.906   4.575
    1PA    H10S 4578   4.461   1.984   4.646
    1PA     C19 4579   4.272   2.049   4.728
    1PA     H9R 4580   4.298   2.154   4.739
    1PA     H9S 4581   4.168   2.043   4.696
    1PA     C18 4582   4.286   1.963   4.854
    1PA     H8R 4583   4.255   1.859   4.844
    1PA     H8S 4584   4.390   1.960   4.887
    1PA     C17 4585   4.198   2.022   4.966
    1PA     H7R 4586   4.094   2.001   4.941
    1PA     H7S 4587   4.230   1.966   5.054
    1PA     C16 4588   4.225   2.170   4.996
    1PA     H6R 4589   4.332   2.192   5.005
    1PA     H6S 4590   4.177   2.222   4.913
    1PA     C15 4591   4.156   2.220   5.123
    1PA     H5R 4592   4.048   2.223   5.111
    1PA     H5S 4593   4.184   2.170   5.216
    1PA     C14 4594   4.208   2.360   5.161
    1PA     H4R 4595   4.316   2.363   5.146
    1PA     H4S 4596   4.166   2.412   5.075
    1PA     C13 4597   4.164   2.431   5.290
    1PA     H3R 4598   4.230   2.518   5.296
    1PA     H3S 4599   4.062   2.471   5.284
    1PA     C12 4600   4.198   2.342   5.411
    1PA     H2R 4601   4.133   2.255   5.399
    1PA     H2S 4602   4.299   2.301   5.408
    2PC     C11 4603   4.190   2.416   5.542
    2PC     O12 4604   4.126   2.516   5.569
    2PC     O11 4605   4.281   2.361   5.624
    2PC      C1 4606   4.297   2.419   5.754
    2PC      HR 4607   4.314   2.526   5.742
    2PC      HS 4608   4.214   2.392   5.819
    2PC      C2 4609   4.434   2.379   5.812
    2PC      HX 4610   4.452   2.272   5.804
    2PC      C3 4611   4.440   2.416   5.961
    2PC      HA 4612   4.431   2.330   6.028
    2PC      HB 4613   4.538   2.460   5.978
    2PC     O31 4614   4.337   2.514   5.983
    2PC     P31 4615   4.344   2.595   6.121
    2PC     O32 4616   4.464   2.693   6.079
    2PC     C31 4617   4.534   2.776   6.174
    2PC     H1A 4618   4.466   2.840   6.232
    2PC     H1B 4619   4.581   2.716   6.252
    2PC     C32 4620   4.643   2.871   6.124
    2PC     H2A 4621   4.601   2.948   6.059
    2PC     H2B 4622   4.691   2.930   6.203
    2PC     N31 4623   4.751   2.806   6.044
    2PC     C33 4624   4.863   2.900   6.008
    2PC     H3A 4625   4.827   2.988   5.955
    2PC     H3B 4626   4.910   2.926   6.103
    2PC     H3C 4627   4.939   2.851   5.946
    2PC     C34 4628   4.819   2.697   6.123
    2PC     H4A 4629   4.749   2.621   6.158
    2PC     H4B 4630   4.897   2.639   6.074
    2PC     H4C 4631   4.861   2.748   6.210
    2PC     C35 4632   4.690   2.744   5.922
    2PC     H5A 4633   4.771   2.713   5.855
    2PC     H5B 4634   4.633   2.820   5.870
    2PC     H5C 4635   4.627   2.658   5.946
    2PC     O33 4636   4.214   2.649   6.167
    2PC     O34 4637   4.386   2.516   6.239
    2PC     O21 4638   4.539   2.441   5.737
    2PC     C21 4639   4.662   2.387   5.727
    2PC     O22 4640   4.697   2.292   5.793
    3OL     C12 4641   4.740   2.443   5.610
    3OL     H2R 4642   4.761   2.547   5.633
    3OL     H2S 4643   4.680   2.429   5.520
    3OL     C13 4644   4.872   2.367   5.593
    3OL     H3R 4645   4.846   2.265   5.565
    3OL     H3S 4646   4.933   2.366   5.684
    3OL     C14 4647   4.967   2.432   5.491
    3OL     H4R 4648   5.070   2.397   5.486
    3OL     H4S 4649   4.986   2.535   5.523
    3OL     C15 4650   4.905   2.414   5.352
    3OL     H5R 4651   4.803   2.454   5.352
    3OL     H5S 4652   4.909   2.309   5.321
    3OL     C16 4653   4.993   2.486   5.248
    3OL     H6R 4654   5.096   2.452   5.265
    3OL     H6S 4655   4.993   2.593   5.269
    3OL     C17 4656   4.946   2.465   5.104
    3OL     H7R 4657   4.854   2.522   5.087
    3OL     H7S 4658   4.921   2.360   5.084
    3OL     C18 4659   5.046   2.512   4.998
    3OL     H8R 4660   5.146   2.471   5.015
    3OL     H8S 4661   5.052   2.621   5.007
    3OL     C19 4662   4.999   2.468   4.862
    3OL     H9R 4663   4.953   2.369   4.863
    3OL    C110 4664   5.018   2.541   4.753
    3OL    H10R 4665   4.973   2.505   4.660
    3OL    C111 4666   5.086   2.675   4.743
    3OL    H11R 4667   5.192   2.654   4.758
    3OL    H11S 4668   5.066   2.741   4.827
    3OL    C112 4669   5.082   2.753   4.611
    3OL    H12R 4670   5.129   2.850   4.628
    3OL    H12S 4671   4.977   2.773   4.588
    3OL    C113 4672   5.158   2.681   4.499
    3OL    H13R 4673   5.133   2.575   4.496
    3OL    H13S 4674   5.264   2.698   4.521
    3OL    C114 4675   5.118   2.736   4.362
    3OL    H14R 4676   5.169   2.832   4.353
    3OL    H14S 4677   5.010   2.753   4.362
    3OL    C115 4678   5.167   2.646   4.248
    3OL    H15R 4679   5.131   2.545   4.232
    3OL    H15S 4680   5.276   2.634   4.255
    3OL    C116 4681   5.134   2.721   4.118
    3OL    H16R 4682   5.189   2.815   4.109
    3OL    H16S 4683   5.027   2.740   4.119
    3OL    C117 4684   5.165   2.629   3.998
    3OL    H17R 4685   5.132   2.525   4.003
    3OL    H17S 4686   5.272   2.626   3.979
    3OL    C118 4687   5.100   2.685   3.871
    3OL    H18R 4688   5.128   2.788   3.844
    3OL    H18S 4689   4.991   2.683   3.880
    3OL    H18T 4690   5.141   2.627   3.788
    1PA    C116 4691   1.826   4.021   4.335
    1PA    H16R 4692   1.862   4.073   4.246
    1PA    H16S 4693   1.839   4.077   4.428
    1PA    H16T 4694   1.719   4.008   4.317
    1PA    C115 4695   1.880   3.877   4.335
    1PA    H15R 4696   1.986   3.885   4.361
    1PA    H15S 4697   1.837   3.824   4.420
    1PA    C114 4698   1.864   3.801   4.204
    1PA    H14R 4699   1.759   3.798   4.174
    1PA    H14S 4700   1.917   3.848   4.121
    1PA    C113 4701   1.924   3.660   4.212
    1PA    H13R 4702   1.890   3.598   4.295
    1PA    H13S 4703   1.900   3.604   4.121
    1PA    C112 4704   2.078   3.666   4.208
    1PA    H12R 4705   2.091   3.736   4.125
    1PA    H12S 4706   2.125   3.715   4.294
    1PA    C111 4707   2.139   3.530   4.173
    1PA    H11R 4708   2.113   3.494   4.073
    1PA    H11S 4709   2.247   3.542   4.181
    1PA    C110 4710   2.097   3.422   4.274
    1PA    H10R 4711   2.185   3.358   4.283
    1PA    H10S 4712   2.073   3.474   4.367
    1PA     C19 4713   1.987   3.334   4.213
    1PA     H9R 4714   1.923   3.389   4.144
    1PA     H9S 4715   2.025   3.257   4.146
    1PA     C18 4716   1.898   3.258   4.313
    1PA     H8R 4717   1.811   3.208   4.271
    1PA     H8S 4718   1.943   3.170   4.360
    1PA     C17 4719   1.834   3.350   4.418
    1PA     H7R 4720   1.915   3.406   4.466
    1PA     H7S 4721   1.775   3.422   4.360
    1PA     C16 4722   1.752   3.271   4.521
    1PA     H6R 4723   1.685   3.207   4.463
    1PA     H6S 4724   1.825   3.208   4.573
    1PA     C15 4725   1.683   3.353   4.630
    1PA     H5R 4726   1.749   3.425   4.678
    1PA     H5S 4727   1.605   3.413   4.582
    1PA     C14 4728   1.635   3.252   4.736
    1PA     H4R 4729   1.560   3.182   4.699
    1PA     H4S 4730   1.723   3.205   4.780
    1PA     C13 4731   1.556   3.321   4.848
    1PA     H3R 4732   1.544   3.247   4.927
    1PA     H3S 4733   1.616   3.399   4.897
    1PA     C12 4734   1.428   3.389   4.798
    1PA     H2R 4735   1.463   3.476   4.742
    1PA     H2S 4736   1.362   3.329   4.735
    2PC     C11 4737   1.356   3.452   4.915
    2PC     O12 4738   1.257   3.402   4.964
    2PC     O11 4739   1.412   3.569   4.951
    2PC      C1 4740   1.362   3.625   5.073
    2PC      HR 4741   1.254   3.629   5.058
    2PC      HS 4742   1.370   3.560   5.160
    2PC      C2 4743   1.424   3.763   5.098
    2PC      HX 4744   1.513   3.774   5.035
    2PC      C3 4745   1.464   3.784   5.245
    2PC      HA 4746   1.546   3.715   5.268
    2PC      HB 4747   1.505   3.885   5.246
    2PC     O31 4748   1.364   3.772   5.347
    2PC     P31 4749   1.416   3.750   5.497
    2PC     O32 4750   1.515   3.876   5.499
    2PC     C31 4751   1.498   3.967   5.609
    2PC     H1A 4752   1.391   3.977   5.627
    2PC     H1B 4753   1.542   3.922   5.698
    2PC     C32 4754   1.559   4.098   5.558
    2PC     H2A 4755   1.518   4.119   5.459
    2PC     H2B 4756   1.537   4.187   5.618
    2PC     N31 4757   1.709   4.104   5.557
    2PC     C33 4758   1.776   4.020   5.452
    2PC     H3A 4759   1.878   4.054   5.431
    2PC     H3B 4760   1.773   3.916   5.485
    2PC     H3C 4761   1.711   4.023   5.365
    2PC     C34 4762   1.755   4.241   5.515
    2PC     H4A 4763   1.748   4.312   5.597
    2PC     H4B 4764   1.861   4.230   5.492
    2PC     H4C 4765   1.705   4.279   5.426
    2PC     C35 4766   1.759   4.084   5.696
    2PC     H5A 4767   1.864   4.113   5.697
    2PC     H5B 4768   1.736   3.981   5.724
    2PC     H5C 4769   1.702   4.153   5.758
    2PC     O33 4770   1.303   3.747   5.593
    2PC     O34 4771   1.494   3.626   5.522
    2PC     O21 4772   1.330   3.856   5.043
    2PC     C21 4773   1.366   3.985   5.045
    2PC     O22 4774   1.478   4.031   5.052
    3OL     C12 4775   1.246   4.075   5.024
    3OL     H2R 4776   1.210   4.103   5.124
    3OL     H2S 4777   1.172   4.013   4.974
    3OL     C13 4778   1.278   4.207   4.952
    3OL     H3R 4779   1.311   4.194   4.849
    3OL     H3S 4780   1.346   4.268   5.012
    3OL     C14 4781   1.152   4.292   4.933
    3OL     H4R 4782   1.101   4.324   5.024
    3OL     H4S 4783   1.087   4.228   4.874
    3OL     C15 4784   1.197   4.420   4.861
    3OL     H5R 4785   1.116   4.467   4.803
    3OL     H5S 4786   1.264   4.393   4.779
    3OL     C16 4787   1.260   4.522   4.957
    3OL     H6R 4788   1.344   4.479   5.012
    3OL     H6S 4789   1.186   4.545   5.034
    3OL     C17 4790   1.313   4.652   4.896
    3OL     H7R 4791   1.230   4.708   4.852
    3OL     H7S 4792   1.387   4.627   4.819
    3OL     C18 4793   1.381   4.740   5.002
    3OL     H8R 4794   1.465   4.689   5.051
    3OL     H8S 4795   1.309   4.753   5.083
    3OL     C19 4796   1.425   4.870   4.939
    3OL     H9R 4797   1.516   4.878   4.880
    3OL    C110 4798   1.380   4.992   4.965
    3OL    H10R 4799   1.417   5.076   4.908
    3OL    C111 4800   1.242   5.010   5.024
    3OL    H11R 4801   1.245   4.961   5.121
    3OL    H11S 4802   1.165   4.965   4.961
    3OL    C112 4803   1.204   5.159   5.035
    3OL    H12R 4804   1.279   5.208   5.096
    3OL    H12S 4805   1.114   5.162   5.097
    3OL    C113 4806   1.192   5.229   4.898
    3OL    H13R 4807   1.129   5.177   4.826
    3OL    H13S 4808   1.293   5.233   4.855
    3OL    C114 4809   1.153   5.375   4.922
    3OL    H14R 4810   1.217   5.433   4.988
    3OL    H14S 4811   1.055   5.379   4.972
    3OL    C115 4812   1.145   5.448   4.787
    3OL    H15R 4813   1.071   5.393   4.728
    3OL    H15S 4814   1.243   5.454   4.739
    3OL    C116 4815   1.110   5.597   4.801
    3OL    H16R 4816   1.168   5.651   4.876
    3OL    H16S 4817   1.007   5.611   4.835
    3OL    C117 4818   1.119   5.660   4.661
    3OL    H17R 4819   1.064   5.595   4.592
    3OL    H17S 4820   1.224   5.654   4.634
    3OL    C118 4821   1.060   5.802   4.652
    3OL    H18R 4822   1.116   5.860   4.726
    3OL    H18S 4823   0.955   5.800   4.684
    3OL    H18T 4824   1.056   5.846   4.552
    1PA    C116 4825   3.607   2.214   3.976
    1PA    H16R 4826   3.685   2.229   3.901
    1PA    H16S 4827   3.516   2.205   3.917
    1PA    H16T 4828   3.643   2.122   4.024
    1PA    C115 4829   3.601   2.324   4.082
    1PA    H15R 4830   3.696   2.317   4.135
    1PA    H15S 4831   3.587   2.420   4.031
    1PA    C114 4832   3.496   2.283   4.185
    1PA    H14R 4833   3.395   2.272   4.145
    1PA    H14S 4834   3.520   2.181   4.215
    1PA    C113 4835   3.484   2.372   4.310
    1PA    H13R 4836   3.459   2.473   4.277
    1PA    H13S 4837   3.403   2.331   4.369
    1PA    C112 4838   3.607   2.366   4.401
    1PA    H12R 4839   3.610   2.264   4.440
    1PA    H12S 4840   3.693   2.384   4.335
    1PA    C111 4841   3.598   2.470   4.513
    1PA    H11R 4842   3.572   2.567   4.470
    1PA    H11S 4843   3.514   2.453   4.580
    1PA    C110 4844   3.727   2.498   4.591
    1PA    H10R 4845   3.768   2.407   4.635
    1PA    H10S 4846   3.806   2.546   4.532
    1PA     C19 4847   3.689   2.597   4.702
    1PA     H9R 4848   3.667   2.692   4.652
    1PA     H9S 4849   3.612   2.558   4.768
    1PA     C18 4850   3.811   2.596   4.794
    1PA     H8R 4851   3.835   2.497   4.834
    1PA     H8S 4852   3.898   2.615   4.731
    1PA     C17 4853   3.792   2.697   4.908
    1PA     H7R 4854   3.791   2.798   4.866
    1PA     H7S 4855   3.699   2.681   4.963
    1PA     C16 4856   3.908   2.685   5.007
    1PA     H6R 4857   3.923   2.582   5.040
    1PA     H6S 4858   3.993   2.731   4.957
    1PA     C15 4859   3.870   2.759   5.136
    1PA     H5R 4860   3.847   2.862   5.109
    1PA     H5S 4861   3.787   2.701   5.175
    1PA     C14 4862   3.984   2.765   5.239
    1PA     H4R 4863   4.019   2.669   5.277
    1PA     H4S 4864   4.069   2.804   5.182
    1PA     C13 4865   3.953   2.861   5.354
    1PA     H3R 4866   4.045   2.908   5.389
    1PA     H3S 4867   3.889   2.944   5.325
    1PA     C12 4868   3.884   2.787   5.470
    1PA     H2R 4869   3.779   2.775   5.444
    1PA     H2S 4870   3.919   2.685   5.484
    2PC     C11 4871   3.890   2.855   5.604
    2PC     O12 4872   3.948   2.803   5.697
    2PC     O11 4873   3.835   2.978   5.609
    2PC      C1 4874   3.833   3.041   5.738
    2PC      HR 4875   3.760   3.122   5.741
    2PC      HS 4876   3.802   2.963   5.807
    2PC      C2 4877   3.970   3.102   5.773
    2PC      HX 4878   4.036   3.016   5.787
    2PC      C3 4879   3.961   3.181   5.904
    2PC      HA 4880   3.932   3.134   5.999
    2PC      HB 4881   4.063   3.214   5.926
    2PC     O31 4882   3.881   3.298   5.878
    2PC     P31 4883   3.878   3.427   5.972
    2PC     O32 4884   3.754   3.380   6.062
    2PC     C31 4885   3.622   3.390   6.005
    2PC     H1A 4886   3.613   3.478   5.942
    2PC     H1B 4887   3.588   3.309   5.940
    2PC     C32 4888   3.532   3.425   6.125
    2PC     H2A 4889   3.596   3.493   6.182
    2PC     H2B 4890   3.438   3.473   6.096
    2PC     N31 4891   3.496   3.306   6.209
    2PC     C33 4892   3.459   3.189   6.123
    2PC     H3A 4893   3.426   3.102   6.180
    2PC     H3B 4894   3.387   3.221   6.048
    2PC     H3C 4895   3.547   3.158   6.065
    2PC     C34 4896   3.613   3.261   6.291
    2PC     H4A 4897   3.689   3.214   6.229
    2PC     H4B 4898   3.667   3.337   6.348
    2PC     H4C 4899   3.569   3.185   6.356
    2PC     C35 4900   3.382   3.333   6.301
    2PC     H5A 4901   3.348   3.246   6.357
    2PC     H5B 4902   3.295   3.378   6.252
    2PC     H5C 4903   3.428   3.399   6.375
    2PC     O33 4904   4.000   3.424   6.056
    2PC     O34 4905   3.869   3.561   5.908
    2PC     O21 4906   4.010   3.189   5.665
    2PC     C21 4907   4.136   3.232   5.652
    2PC     O22 4908   4.225   3.196   5.726
    3OL     C12 4909   4.159   3.325   5.535
    3OL     H2R 4910   4.257   3.372   5.543
    3OL     H2S 4911   4.080   3.401   5.533
    3OL     C13 4912   4.146   3.260   5.396
    3OL     H3R 4913   4.196   3.164   5.389
    3OL     H3S 4914   4.200   3.322   5.325
    3OL     C14 4915   4.008   3.240   5.332
    3OL     H4R 4916   3.972   3.343   5.320
    3OL     H4S 4917   3.939   3.182   5.393
    3OL     C15 4918   4.027   3.194   5.187
    3OL     H5R 4919   4.075   3.097   5.191
    3OL     H5S 4920   4.087   3.267   5.132
    3OL     C16 4921   3.891   3.180   5.117
    3OL     H6R 4922   3.847   3.279   5.107
    3OL     H6S 4923   3.829   3.121   5.185
    3OL     C17 4924   3.897   3.113   4.978
    3OL     H7R 4925   3.919   3.007   4.986
    3OL     H7S 4926   3.978   3.168   4.931
    3OL     C18 4927   3.765   3.145   4.906
    3OL     H8R 4928   3.786   3.137   4.799
    3OL     H8S 4929   3.735   3.247   4.930
    3OL     C19 4930   3.655   3.049   4.945
    3OL     H9R 4931   3.649   3.023   5.050
    3OL    C110 4932   3.581   2.991   4.852
    3OL    H10R 4933   3.503   2.921   4.881
    3OL    C111 4934   3.582   3.020   4.704
    3OL    H11R 4935   3.652   2.960   4.647
    3OL    H11S 4936   3.611   3.125   4.692
    3OL    C112 4937   3.443   2.991   4.646
    3OL    H12R 4938   3.369   3.065   4.680
    3OL    H12S 4939   3.411   2.888   4.664
    3OL    C113 4940   3.442   2.997   4.492
    3OL    H13R 4941   3.510   2.924   4.448
    3OL    H13S 4942   3.472   3.100   4.473
    3OL    C114 4943   3.297   2.982   4.443
    3OL    H14R 4944   3.225   3.042   4.499
    3OL    H14S 4945   3.256   2.882   4.458
    3OL    C115 4946   3.293   3.019   4.294
    3OL    H15R 4947   3.343   3.114   4.272
    3OL    H15S 4948   3.190   3.014   4.257
    3OL    C116 4949   3.356   2.914   4.202
    3OL    H16R 4950   3.465   2.908   4.207
    3OL    H16S 4951   3.340   2.940   4.097
    3OL    C117 4952   3.290   2.776   4.218
    3OL    H17R 4953   3.182   2.789   4.216
    3OL    H17S 4954   3.324   2.733   4.312
    3OL    C118 4955   3.342   2.677   4.113
    3OL    H18R 4956   3.300   2.576   4.118
    3OL    H18S 4957   3.449   2.659   4.128
    3OL    H18T 4958   3.317   2.722   4.017
    1PA    C116 4959   1.503   2.783   3.699
    1PA    H16R 4960   1.498   2.892   3.706
    1PA    H16S 4961   1.499   2.755   3.594
    1PA    H16T 4962   1.597   2.740   3.734
    1PA    C115 4963   1.374   2.727   3.760
    1PA    H15R 4964   1.286   2.771   3.712
    1PA    H15S 4965   1.371   2.619   3.750
    1PA    C114 4966   1.384   2.755   3.911
    1PA    H14R 4967   1.318   2.696   3.974
    1PA    H14S 4968   1.486   2.732   3.942
    1PA    C113 4969   1.361   2.903   3.943
    1PA    H13R 4970   1.453   2.957   3.917
    1PA    H13S 4971   1.282   2.934   3.875
    1PA    C112 4972   1.336   2.932   4.092
    1PA    H12R 4973   1.301   3.032   4.116
    1PA    H12S 4974   1.267   2.856   4.129
    1PA    C111 4975   1.471   2.924   4.165
    1PA    H11R 4976   1.520   2.826   4.160
    1PA    H11S 4977   1.541   2.985   4.107
    1PA    C110 4978   1.469   2.987   4.305
    1PA    H10R 4979   1.567   3.028   4.329
    1PA    H10S 4980   1.395   3.066   4.296
    1PA     C19 4981   1.427   2.883   4.409
    1PA     H9R 4982   1.324   2.852   4.393
    1PA     H9S 4983   1.492   2.796   4.398
    1PA     C18 4984   1.429   2.943   4.550
    1PA     H8R 4985   1.532   2.972   4.571
    1PA     H8S 4986   1.366   3.032   4.560
    1PA     C17 4987   1.381   2.845   4.658
    1PA     H7R 4988   1.288   2.807   4.615
    1PA     H7S 4989   1.443   2.755   4.659
    1PA     C16 4990   1.363   2.906   4.798
    1PA     H6R 4991   1.331   2.830   4.870
    1PA     H6S 4992   1.460   2.942   4.835
    1PA     C15 4993   1.263   3.021   4.797
    1PA     H5R 4994   1.302   3.112   4.751
    1PA     H5S 4995   1.172   2.990   4.745
    1PA     C14 4996   1.222   3.058   4.941
    1PA     H4R 4997   1.162   3.149   4.938
    1PA     H4S 4998   1.153   2.980   4.974
    1PA     C13 4999   1.326   3.061   5.054
    1PA     H3R 5000   1.428   3.089   5.025
    1PA     H3S 5001   1.291   3.140   5.120
    1PA     C12 5002   1.319   2.938   5.145
    1PA     H2R 5003   1.212   2.918   5.162
    1PA     H2S 5004   1.370   2.850   5.105
    2PC     C11 5005   1.378   2.962   5.282
    2PC     O12 5006   1.416   3.069   5.324
    2PC     O11 5007   1.395   2.846   5.347
    2PC      C1 5008   1.455   2.856   5.477
    2PC      HR 5009   1.540   2.923   5.464
    2PC      HS 5010   1.383   2.903   5.545
    2PC      C2 5011   1.493   2.717   5.531
    2PC      HX 5012   1.412   2.644   5.521
    2PC      C3 5013   1.532   2.732   5.678
    2PC      HA 5014   1.622   2.794   5.675
    2PC      HB 5015   1.448   2.780   5.730
    2PC     O31 5016   1.553   2.604   5.741
    2PC     P31 5017   1.585   2.600   5.898
    2PC     O32 5018   1.481   2.705   5.959
    2PC     C31 5019   1.442   2.690   6.097
    2PC     H1A 5020   1.392   2.594   6.109
    2PC     H1B 5021   1.534   2.685   6.156
    2PC     C32 5022   1.357   2.812   6.134
    2PC     H2A 5023   1.275   2.812   6.062
    2PC     H2B 5024   1.318   2.799   6.235
    2PC     N31 5025   1.418   2.949   6.123
    2PC     C33 5026   1.437   2.996   5.983
    2PC     H3A 5027   1.489   3.092   5.992
    2PC     H3B 5028   1.500   2.921   5.935
    2PC     H3C 5029   1.339   2.985   5.938
    2PC     C34 5030   1.316   3.037   6.189
    2PC     H4A 5031   1.239   3.066   6.117
    2PC     H4B 5032   1.274   2.983   6.273
    2PC     H4C 5033   1.377   3.124   6.212
    2PC     C35 5034   1.548   2.955   6.198
    2PC     H5A 5035   1.528   2.924   6.300
    2PC     H5B 5036   1.590   3.056   6.188
    2PC     H5C 5037   1.619   2.886   6.151
    2PC     O33 5038   1.557   2.468   5.960
    2PC     O34 5039   1.725   2.641   5.925
    2PC     O21 5040   1.611   2.687   5.454
    2PC     C21 5041   1.676   2.571   5.472
    2PC     O22 5042   1.623   2.472   5.518
    3OL     C12 5043   1.817   2.580   5.417
    3OL     H2R 5044   1.877   2.513   5.479
    3OL     H2S 5045   1.855   2.682   5.425
    3OL     C13 5046   1.831   2.532   5.272
    3OL     H3R 5047   1.773   2.595   5.204
    3OL     H3S 5048   1.788   2.434   5.252
    3OL     C14 5049   1.978   2.526   5.230
    3OL     H4R 5050   1.985   2.460   5.143
    3OL     H4S 5051   2.044   2.492   5.311
    3OL     C15 5052   2.036   2.662   5.188
    3OL     H5R 5053   2.019   2.744   5.257
    3OL     H5S 5054   1.988   2.687   5.093
    3OL     C16 5055   2.187   2.635   5.175
    3OL     H6R 5056   2.195   2.563   5.093
    3OL     H6S 5057   2.217   2.589   5.270
    3OL     C17 5058   2.272   2.761   5.159
    3OL     H7R 5059   2.378   2.749   5.180
    3OL     H7S 5060   2.231   2.846   5.216
    3OL     C18 5061   2.257   2.816   5.017
    3OL     H8R 5062   2.167   2.878   5.019
    3OL     H8S 5063   2.254   2.729   4.951
    3OL     C19 5064   2.375   2.904   4.982
    3OL     H9R 5065   2.405   2.967   5.066
    3OL    C110 5066   2.435   2.916   4.865
    3OL    H10R 5067   2.520   2.983   4.865
    3OL    C111 5068   2.436   2.810   4.758
    3OL    H11R 5069   2.486   2.850   4.670
    3OL    H11S 5070   2.332   2.793   4.728
    3OL    C112 5071   2.497   2.677   4.804
    3OL    H12R 5072   2.442   2.633   4.887
    3OL    H12S 5073   2.591   2.706   4.851
    3OL    C113 5074   2.534   2.577   4.694
    3OL    H13R 5075   2.599   2.623   4.619
    3OL    H13S 5076   2.440   2.544   4.648
    3OL    C114 5077   2.598   2.449   4.751
    3OL    H14R 5078   2.610   2.370   4.676
    3OL    H14S 5079   2.532   2.418   4.831
    3OL    C115 5080   2.732   2.485   4.817
    3OL    H15R 5081   2.717   2.544   4.908
    3OL    H15S 5082   2.792   2.541   4.744
    3OL    C116 5083   2.807   2.357   4.856
    3OL    H16R 5084   2.834   2.314   4.760
    3OL    H16S 5085   2.743   2.291   4.915
    3OL    C117 5086   2.941   2.389   4.923
    3OL    H17R 5087   2.946   2.489   4.967
    3OL    H17S 5088   3.016   2.393   4.844
    3OL    C118 5089   2.988   2.286   5.027
    3OL    H18R 5090   3.089   2.309   5.063
    3OL    H18S 5091   3.007   2.187   4.985
    3OL    H18T 5092   2.911   2.292   5.104
    1PA    C116 5093   5.433   5.467   4.463
    1PA    H16R 5094   5.512   5.470   4.538
    1PA    H16S 5095   5.467   5.442   4.362
    1PA    H16T 5096   5.372   5.377   4.471
    1PA    C115 5097   5.336   5.586   4.460
    1PA    H15R 5098   5.253   5.563   4.393
    1PA    H15S 5099   5.287   5.600   4.556
    1PA    C114 5100   5.411   5.708   4.403
    1PA    H14R 5101   5.492   5.726   4.474
    1PA    H14S 5102   5.456   5.681   4.308
    1PA    C113 5103   5.313   5.825   4.396
    1PA    H13R 5104   5.328   5.891   4.310
    1PA    H13S 5105   5.212   5.783   4.396
    1PA    C112 5106   5.312   5.907   4.526
    1PA    H12R 5107   5.234   5.982   4.518
    1PA    H12S 5108   5.293   5.845   4.614
    1PA    C111 5109   5.445   5.984   4.526
    1PA    H11R 5110   5.533   5.919   4.534
    1PA    H11S 5111   5.448   6.035   4.429
    1PA    C110 5112   5.468   6.081   4.643
    1PA    H10R 5113   5.382   6.146   4.657
    1PA    H10S 5114   5.486   6.025   4.735
    1PA     C19 5115   5.592   6.167   4.616
    1PA     H9R 5116   5.680   6.106   4.595
    1PA     H9S 5117   5.572   6.235   4.533
    1PA     C18 5118   5.623   6.248   4.743
    1PA     H8R 5119   5.538   6.308   4.775
    1PA     H8S 5120   5.655   6.186   4.828
    1PA     C17 5121   5.744   6.338   4.715
    1PA     H7R 5122   5.819   6.282   4.658
    1PA     H7S 5123   5.703   6.416   4.651
    1PA     C16 5124   5.812   6.404   4.836
    1PA     H6R 5125   5.865   0.004   4.801
    1PA     H6S 5126   5.734   6.438   4.905
    1PA     C15 5127   5.919   6.316   4.902
    1PA     H5R 5128   5.880   6.257   4.984
    1PA     H5S 5129   5.960   6.238   4.837
    1PA     C14 5130   6.034   6.403   4.955
    1PA     H4R 5131   6.090   6.441   4.869
    1PA     H4S 5132   5.990   6.488   5.006
    1PA     C13 5133   6.129   6.326   5.048
    1PA     H3R 5134   6.070   6.307   5.137
    1PA     H3S 5135   6.170   6.230   5.014
    1PA     C12 5136   6.240   6.427   5.080
    1PA     H2R 5137   6.308   6.448   4.996
    1PA     H2S 5138   6.205   0.039   5.105
    2PC     C11 5139   6.337   6.369   5.179
    2PC     O12 5140   6.306   6.268   5.239
    2PC     O11 5141   6.456   6.431   5.179
    2PC      C1 5142   0.057   6.377   5.278
    2PC      HR 5143   0.132   6.457   5.286
    2PC      HS 5144   0.009   6.356   5.374
    2PC      C2 5145   0.136   6.256   5.227
    2PC      HX 5146   0.070   6.185   5.176
    2PC      C3 5147   0.194   6.181   5.348
    2PC      HA 5148   0.120   6.125   5.404
    2PC      HB 5149   0.275   6.119   5.308
    2PC     O31 5150   0.256   6.280   5.433
    2PC     P31 5151   0.344   6.218   5.552
    2PC     O32 5152   0.472   6.158   5.478
    2PC     C31 5153   0.538   6.052   5.550
    2PC     H1A 5154   0.522   6.073   5.656
    2PC     H1B 5155   0.506   5.952   5.518
    2PC     C32 5156   0.688   6.065   5.521
    2PC     H2A 5157   0.695   6.161   5.471
    2PC     H2B 5158   0.739   6.067   5.617
    2PC     N31 5159   0.744   5.979   5.411
    2PC     C33 5160   0.883   6.029   5.385
    2PC     H3A 5161   0.940   5.957   5.326
    2PC     H3B 5162   0.863   6.118   5.326
    2PC     H3C 5163   0.930   6.054   5.480
    2PC     C34 5164   0.754   5.837   5.460
    2PC     H4A 5165   0.773   5.780   5.369
    2PC     H4B 5166   0.833   5.837   5.535
    2PC     H4C 5167   0.661   5.800   5.504
    2PC     C35 5168   0.666   5.972   5.284
    2PC     H5A 5169   0.623   6.071   5.269
    2PC     H5B 5170   0.576   5.910   5.294
    2PC     H5C 5171   0.718   5.933   5.196
    2PC     O33 5172   0.376   6.313   5.661
    2PC     O34 5173   0.281   6.106   5.625
    2PC     O21 5174   0.239   6.303   5.138
    2PC     C21 5175   0.291   6.225   5.042
    2PC     O22 5176   0.263   6.107   5.034
    3OL     C12 5177   0.374   6.291   4.936
    3OL     H2R 5178   0.480   6.271   4.956
    3OL     H2S 5179   0.362   6.399   4.948
    3OL     C13 5180   0.354   6.255   4.788
    3OL     H3R 5181   0.365   6.148   4.768
    3OL     H3S 5182   0.431   6.314   4.736
    3OL     C14 5183   0.213   6.296   4.744
    3OL     H4R 5184   0.201   6.403   4.763
    3OL     H4S 5185   0.143   6.244   4.809
    3OL     C15 5186   0.188   6.257   4.597
    3OL     H5R 5187   0.083   6.231   4.583
    3OL     H5S 5188   0.239   6.161   4.583
    3OL     C16 5189   0.237   6.365   4.500
    3OL     H6R 5190   0.346   6.369   4.498
    3OL     H6S 5191   0.200   6.465   4.524
    3OL     C17 5192   0.187   6.323   4.361
    3OL     H7R 5193   0.079   6.337   4.348
    3OL     H7S 5194   0.209   6.219   4.334
    3OL     C18 5195   0.240   6.423   4.258
    3OL     H8R 5196   0.349   6.417   4.262
    3OL     H8S 5197   0.210   0.033   4.296
    3OL     C19 5198   0.189   6.382   4.123
    3OL     H9R 5199   0.102   6.318   4.135
    3OL    C110 5200   0.241   6.426   4.009
    3OL    H10R 5201   0.205   6.386   3.915
    3OL    C111 5202   0.339   0.052   4.005
    3OL    H11R 5203   0.441   0.014   3.993
    3OL    H11S 5204   0.344   0.100   4.103
    3OL    C112 5205   0.319   0.144   3.884
    3OL    H12R 5206   0.384   0.231   3.893
    3OL    H12S 5207   0.216   0.178   3.873
    3OL    C113 5208   0.365   0.075   3.754
    3OL    H13R 5209   0.304   6.475   3.737
    3OL    H13S 5210   0.465   0.041   3.783
    3OL    C114 5211   0.370   0.165   3.630
    3OL    H14R 5212   0.422   0.120   3.545
    3OL    H14S 5213   0.420   0.258   3.659
    3OL    C115 5214   0.229   0.196   3.579
    3OL    H15R 5215   0.181   0.275   3.637
    3OL    H15S 5216   0.176   0.102   3.590
    3OL    C116 5217   0.234   0.228   3.429
    3OL    H16R 5218   0.269   0.138   3.379
    3OL    H16S 5219   0.293   0.319   3.417
    3OL    C117 5220   0.093   0.257   3.376
    3OL    H17R 5221   0.035   0.332   3.429
    3OL    H17S 5222   0.035   0.165   3.388
    3OL    C118 5223   0.092   0.288   3.225
    3OL    H18R 5224   0.119   0.201   3.166
    3OL    H18S 5225   0.162   0.371   3.212
    3OL    H18T 5226   6.480   0.321   3.196
    1PA    C116 5227   4.237   2.864   4.141
    1PA    H16R 5228   4.208   2.781   4.076
    1PA    H16S 5229   4.168   2.883   4.224
    1PA    H16T 5230   4.329   2.826   4.186
    1PA    C115 5231   4.260   2.983   4.047
    1PA    H15R 5232   4.345   3.047   4.073
    1PA    H15S 5233   4.275   2.941   3.948
    1PA    C114 5234   4.136   3.075   4.052
    1PA    H14R 5235   4.044   3.020   4.031
    1PA    H14S 5236   4.122   3.108   4.155
    1PA    C113 5237   4.141   3.209   3.978
    1PA    H13R 5238   4.223   3.275   4.006
    1PA    H13S 5239   4.158   3.179   3.874
    1PA    C112 5240   4.004   3.278   3.982
    1PA    H12R 5241   3.940   3.218   3.917
    1PA    H12S 5242   3.968   3.279   4.085
    1PA    C111 5243   3.998   3.423   3.932
    1PA    H11R 5244   4.036   3.435   3.830
    1PA    H11S 5245   3.893   3.452   3.929
    1PA    C110 5246   4.067   3.526   4.023
    1PA    H10R 5247   4.166   3.492   4.054
    1PA    H10S 5248   4.090   3.612   3.960
    1PA     C19 5249   3.986   3.572   4.145
    1PA     H9R 5250   3.883   3.602   4.125
    1PA     H9S 5251   3.969   3.484   4.207
    1PA     C18 5252   4.064   3.675   4.228
    1PA     H8R 5253   4.163   3.629   4.236
    1PA     H8S 5254   4.079   3.764   4.167
    1PA     C17 5255   3.991   3.701   4.361
    1PA     H7R 5256   3.896   3.749   4.336
    1PA     H7S 5257   3.978   3.609   4.417
    1PA     C16 5258   4.068   3.797   4.453
    1PA     H6R 5259   4.159   3.745   4.485
    1PA     H6S 5260   4.087   3.884   4.390
    1PA     C15 5261   3.988   3.832   4.579
    1PA     H5R 5262   3.911   3.756   4.592
    1PA     H5S 5263   4.057   3.811   4.661
    1PA     C14 5264   3.938   3.977   4.587
    1PA     H4R 5265   3.990   4.034   4.509
    1PA     H4S 5266   3.831   3.975   4.566
    1PA     C13 5267   3.948   4.027   4.732
    1PA     H3R 5268   4.052   4.032   4.766
    1PA     H3S 5269   3.896   4.123   4.732
    1PA     C12 5270   3.863   3.951   4.834
    1PA     H2R 5271   3.761   3.935   4.798
    1PA     H2S 5272   3.896   3.848   4.845
    2PC     C11 5273   3.875   4.022   4.966
    2PC     O12 5274   3.843   4.138   4.986
    2PC     O11 5275   3.913   3.943   5.068
    2PC      C1 5276   3.929   4.002   5.197
    2PC      HR 5277   3.995   4.090   5.198
    2PC      HS 5278   3.828   4.022   5.232
    2PC      C2 5279   3.999   3.899   5.287
    2PC      HX 5280   3.930   3.816   5.303
    2PC      C3 5281   4.032   3.959   5.425
    2PC      HA 5282   3.938   3.976   5.478
    2PC      HB 5283   4.090   3.890   5.487
    2PC     O31 5284   4.108   4.080   5.414
    2PC     P31 5285   4.130   4.191   5.528
    2PC     O32 5286   4.271   4.255   5.487
    2PC     C31 5287   4.392   4.187   5.527
    2PC     H1A 5288   4.368   4.132   5.618
    2PC     H1B 5289   4.418   4.116   5.449
    2PC     C32 5290   4.511   4.281   5.548
    2PC     H2A 5291   4.592   4.211   5.572
    2PC     H2B 5292   4.530   4.334   5.454
    2PC     N31 5293   4.516   4.386   5.655
    2PC     C33 5294   4.527   4.324   5.791
    2PC     H3A 5295   4.533   4.405   5.864
    2PC     H3B 5296   4.442   4.258   5.808
    2PC     H3C 5297   4.626   4.277   5.787
    2PC     C34 5298   4.634   4.477   5.640
    2PC     H4A 5299   4.724   4.421   5.667
    2PC     H4B 5300   4.642   4.516   5.539
    2PC     H4C 5301   4.619   4.555   5.715
    2PC     C35 5302   4.393   4.471   5.644
    2PC     H5A 5303   4.407   4.547   5.722
    2PC     H5B 5304   4.304   4.414   5.670
    2PC     H5C 5305   4.399   4.526   5.550
    2PC     O33 5306   4.019   4.289   5.532
    2PC     O34 5307   4.122   4.138   5.666
    2PC     O21 5308   4.122   3.846   5.235
    2PC     C21 5309   4.141   3.713   5.241
    2PC     O22 5310   4.057   3.637   5.283
    3OL     C12 5311   4.267   3.670   5.170
    3OL     H2R 5312   4.277   3.565   5.197
    3OL     H2S 5313   4.351   3.730   5.206
    3OL     C13 5314   4.243   3.693   5.021
    3OL     H3R 5315   4.197   3.791   5.001
    3OL     H3S 5316   4.164   3.629   4.982
    3OL     C14 5317   4.372   3.682   4.938
    3OL     H4R 5318   4.416   3.583   4.949
    3OL     H4S 5319   4.443   3.749   4.987
    3OL     C15 5320   4.352   3.710   4.788
    3OL     H5R 5321   4.252   3.683   4.755
    3OL     H5S 5322   4.423   3.649   4.732
    3OL     C16 5323   4.368   3.860   4.760
    3OL     H6R 5324   4.313   3.921   4.831
    3OL     H6S 5325   4.331   3.881   4.659
    3OL     C17 5326   4.513   3.913   4.759
    3OL     H7R 5327   4.563   3.866   4.674
    3OL     H7S 5328   4.554   3.882   4.855
    3OL     C18 5329   4.521   4.061   4.720
    3OL     H8R 5330   4.488   4.128   4.800
    3OL     H8S 5331   4.455   4.075   4.634
    3OL     C19 5332   4.662   4.095   4.679
    3OL     H9R 5333   4.683   4.096   4.572
    3OL    C110 5334   4.764   4.130   4.756
    3OL    H10R 5335   4.861   4.155   4.716
    3OL    C111 5336   4.747   4.153   4.904
    3OL    H11R 5337   4.722   4.059   4.954
    3OL    H11S 5338   4.673   4.232   4.921
    3OL    C112 5339   4.874   4.211   4.967
    3OL    H12R 5340   4.943   4.128   4.984
    3OL    H12S 5341   4.848   4.237   5.070
    3OL    C113 5342   4.934   4.331   4.892
    3OL    H13R 5343   4.979   4.293   4.799
    3OL    H13S 5344   5.016   4.378   4.947
    3OL    C114 5345   4.842   4.450   4.866
    3OL    H14R 5346   4.787   4.475   4.957
    3OL    H14S 5347   4.772   4.420   4.787
    3OL    C115 5348   4.913   4.583   4.838
    3OL    H15R 5349   4.976   4.619   4.919
    3OL    H15S 5350   4.846   4.668   4.823
    3OL    C116 5351   4.995   4.580   4.708
    3OL    H16R 5352   4.924   4.559   4.628
    3OL    H16S 5353   5.064   4.496   4.715
    3OL    C117 5354   5.062   4.714   4.675
    3OL    H17R 5355   4.991   4.797   4.689
    3OL    H17S 5356   5.098   4.722   4.572
    3OL    C118 5357   5.187   4.733   4.763
    3OL    H18R 5358   5.155   4.730   4.867
    3OL    H18S 5359   5.242   4.827   4.759
    3OL    H18T 5360   5.254   4.647   4.753
    1PA    C116 5361   5.531   5.532   4.058
    1PA    H16R 5362   5.569   5.594   4.140
    1PA    H16S 5363   5.564   5.572   3.962
    1PA    H16T 5364   5.571   5.432   4.072
    1PA    C115 5365   5.381   5.510   4.082
    1PA    H15R 5366   5.345   5.425   4.023
    1PA    H15S 5367   5.362   5.486   4.187
    1PA    C114 5368   5.300   5.635   4.046
    1PA    H14R 5369   5.337   5.722   4.100
    1PA    H14S 5370   5.313   5.654   3.939
    1PA    C113 5371   5.149   5.621   4.069
    1PA    H13R 5372   5.125   5.523   4.028
    1PA    H13S 5373   5.143   5.611   4.178
    1PA    C112 5374   5.059   5.728   4.006
    1PA    H12R 5375   5.066   5.827   4.052
    1PA    H12S 5376   5.079   5.737   3.899
    1PA    C111 5377   4.915   5.676   4.019
    1PA    H11R 5378   4.917   5.575   3.979
    1PA    H11S 5379   4.890   5.668   4.125
    1PA    C110 5380   4.816   5.763   3.940
    1PA    H10R 5381   4.807   5.861   3.986
    1PA    H10S 5382   4.854   5.777   3.838
    1PA     C19 5383   4.675   5.702   3.936
    1PA     H9R 5384   4.623   5.731   3.844
    1PA     H9S 5385   4.682   5.594   3.923
    1PA     C18 5386   4.605   5.732   4.069
    1PA     H8R 5387   4.521   5.667   4.094
    1PA     H8S 5388   4.679   5.725   4.148
    1PA     C17 5389   4.553   5.875   4.088
    1PA     H7R 5390   4.642   5.939   4.096
    1PA     H7S 5391   4.495   5.905   4.000
    1PA     C16 5392   4.479   5.895   4.221
    1PA     H6R 5393   4.516   5.832   4.301
    1PA     H6S 5394   4.483   5.998   4.258
    1PA     C15 5395   4.335   5.843   4.220
    1PA     H5R 5396   4.299   5.866   4.119
    1PA     H5S 5397   4.338   5.735   4.234
    1PA     C14 5398   4.253   5.897   4.338
    1PA     H4R 5399   4.242   6.004   4.321
    1PA     H4S 5400   4.152   5.856   4.334
    1PA     C13 5401   4.324   5.871   4.472
    1PA     H3R 5402   4.337   5.763   4.485
    1PA     H3S 5403   4.425   5.912   4.470
    1PA     C12 5404   4.250   5.928   4.593
    1PA     H2R 5405   4.214   6.030   4.579
    1PA     H2S 5406   4.159   5.868   4.586
    2PC     C11 5407   4.314   5.897   4.726
    2PC     O12 5408   4.425   5.853   4.746
    2PC     O11 5409   4.230   5.920   4.829
    2PC      C1 5410   4.277   5.874   4.957
    2PC      HR 5411   4.278   5.765   4.959
    2PC      HS 5412   4.376   5.913   4.981
    2PC      C2 5413   4.176   5.929   5.059
    2PC      HX 5414   4.197   6.035   5.072
    2PC      C3 5415   4.175   5.845   5.188
    2PC      HA 5416   4.150   5.739   5.186
    2PC      HB 5417   4.279   5.853   5.223
    2PC     O31 5418   4.084   5.911   5.277
    2PC     P31 5419   4.022   5.825   5.398
    2PC     O32 5420   3.925   5.732   5.311
    2PC     C31 5421   3.795   5.779   5.270
    2PC     H1A 5422   3.808   5.883   5.240
    2PC     H1B 5423   3.771   5.722   5.180
    2PC     C32 5424   3.704   5.754   5.391
    2PC     H2A 5425   3.772   5.753   5.476
    2PC     H2B 5426   3.623   5.827   5.393
    2PC     N31 5427   3.645   5.617   5.396
    2PC     C33 5428   3.759   5.519   5.392
    2PC     H3A 5429   3.716   5.420   5.411
    2PC     H3B 5430   3.823   5.531   5.304
    2PC     H3C 5431   3.819   5.541   5.480
    2PC     C34 5432   3.569   5.612   5.526
    2PC     H4A 5433   3.473   5.660   5.507
    2PC     H4B 5434   3.568   5.505   5.549
    2PC     H4C 5435   3.622   5.665   5.605
    2PC     C35 5436   3.550   5.614   5.281
    2PC     H5A 5437   3.498   5.518   5.273
    2PC     H5B 5438   3.600   5.614   5.184
    2PC     H5C 5439   3.476   5.695   5.280
    2PC     O33 5440   4.134   5.751   5.460
    2PC     O34 5441   3.962   5.902   5.509
    2PC     O21 5442   4.049   5.923   4.992
    2PC     C21 5443   3.997   5.806   4.952
    2PC     O22 5444   4.032   5.694   4.985
    3OL     C12 5445   3.870   5.837   4.876
    3OL     H2R 5446   3.842   5.936   4.911
    3OL     H2S 5447   3.785   5.770   4.893
    3OL     C13 5448   3.889   5.853   4.724
    3OL     H3R 5449   3.954   5.937   4.695
    3OL     H3S 5450   3.792   5.888   4.688
    3OL     C14 5451   3.923   5.723   4.651
    3OL     H4R 5452   4.023   5.684   4.667
    3OL     H4S 5453   3.918   5.747   4.544
    3OL     C15 5454   3.820   5.609   4.663
    3OL     H5R 5455   3.713   5.633   4.659
    3OL     H5S 5456   3.826   5.570   4.765
    3OL     C16 5457   3.854   5.494   4.568
    3OL     H6R 5458   3.952   5.452   4.593
    3OL     H6S 5459   3.860   5.529   4.464
    3OL     C17 5460   3.751   5.381   4.574
    3OL     H7R 5461   3.666   5.408   4.512
    3OL     H7S 5462   3.712   5.381   4.676
    3OL     C18 5463   3.812   5.246   4.534
    3OL     H8R 5464   3.887   5.229   4.612
    3OL     H8S 5465   3.865   5.255   4.440
    3OL     C19 5466   3.720   5.126   4.534
    3OL     H9R 5467   3.670   5.106   4.629
    3OL    C110 5468   3.684   5.055   4.429
    3OL    H10R 5469   3.615   4.972   4.440
    3OL    C111 5470   3.744   5.072   4.291
    3OL    H11R 5471   3.822   5.148   4.285
    3OL    H11S 5472   3.664   5.113   4.228
    3OL    C112 5473   3.792   4.944   4.222
    3OL    H12R 5474   3.899   4.940   4.246
    3OL    H12S 5475   3.785   4.944   4.113
    3OL    C113 5476   3.720   4.818   4.273
    3OL    H13R 5477   3.614   4.825   4.249
    3OL    H13S 5478   3.733   4.812   4.381
    3OL    C114 5479   3.782   4.685   4.228
    3OL    H14R 5480   3.768   4.604   4.301
    3OL    H14S 5481   3.888   4.711   4.226
    3OL    C115 5482   3.735   4.637   4.090
    3OL    H15R 5483   3.745   4.719   4.019
    3OL    H15S 5484   3.628   4.620   4.101
    3OL    C116 5485   3.811   4.510   4.048
    3OL    H16R 5486   3.755   4.478   3.960
    3OL    H16S 5487   3.811   4.429   4.121
    3OL    C117 5488   3.956   4.551   4.016
    3OL    H17R 5489   4.016   4.562   4.106
    3OL    H17S 5490   3.955   4.644   3.959
    3OL    C118 5491   4.015   4.442   3.925
    3OL    H18R 5492   4.037   4.350   3.979
    3OL    H18S 5493   4.115   4.463   3.888
    3OL    H18T 5494   3.952   4.423   3.838
    1PA    C116 5495   0.918   4.815   4.867
    1PA    H16R 5496   0.855   4.891   4.914
    1PA    H16S 5497   0.998   4.803   4.941
    1PA    H16T 5498   0.858   4.725   4.856
    1PA    C115 5499   0.964   4.867   4.731
    1PA    H15R 5500   0.863   4.876   4.691
    1PA    H15S 5501   1.015   4.964   4.742
    1PA    C114 5502   1.049   4.767   4.651
    1PA    H14R 5503   1.149   4.771   4.694
    1PA    H14S 5504   1.000   4.669   4.653
    1PA    C113 5505   1.058   4.804   4.503
    1PA    H13R 5506   0.957   4.811   4.461
    1PA    H13S 5507   1.099   4.903   4.480
    1PA    C112 5508   1.130   4.696   4.421
    1PA    H12R 5509   1.058   4.614   4.414
    1PA    H12S 5510   1.132   4.739   4.320
    1PA    C111 5511   1.270   4.644   4.457
    1PA    H11R 5512   1.254   4.574   4.539
    1PA    H11S 5513   1.323   4.577   4.389
    1PA    C110 5514   1.376   4.753   4.478
    1PA    H10R 5515   1.326   4.827   4.540
    1PA    H10S 5516   1.456   4.716   4.542
    1PA     C19 5517   1.438   4.816   4.352
    1PA     H9R 5518   1.493   4.738   4.299
    1PA     H9S 5519   1.355   4.847   4.288
    1PA     C18 5520   1.529   4.937   4.377
    1PA     H8R 5521   1.535   5.007   4.294
    1PA     H8S 5522   1.488   4.996   4.460
    1PA     C17 5523   1.677   4.898   4.389
    1PA     H7R 5524   1.705   4.832   4.306
    1PA     H7S 5525   1.733   4.991   4.383
    1PA     C16 5526   1.714   4.823   4.518
    1PA     H6R 5527   1.659   4.729   4.516
    1PA     H6S 5528   1.819   4.792   4.509
    1PA     C15 5529   1.687   4.902   4.646
    1PA     H5R 5530   1.580   4.926   4.643
    1PA     H5S 5531   1.697   4.841   4.737
    1PA     C14 5532   1.773   5.029   4.655
    1PA     H4R 5533   1.878   5.007   4.634
    1PA     H4S 5534   1.724   5.101   4.590
    1PA     C13 5535   1.745   5.100   4.788
    1PA     H3R 5536   1.638   5.120   4.790
    1PA     H3S 5537   1.758   5.037   4.877
    1PA     C12 5538   1.828   5.226   4.816
    1PA     H2R 5539   1.935   5.208   4.835
    1PA     H2S 5540   1.822   5.290   4.728
    2PC     C11 5541   1.789   5.307   4.937
    2PC     O12 5542   1.694   5.282   5.009
    2PC     O11 5543   1.866   5.414   4.959
    2PC      C1 5544   1.857   5.491   5.081
    2PC      HR 5545   1.762   5.545   5.076
    2PC      HS 5546   1.848   5.412   5.156
    2PC      C2 5547   1.972   5.593   5.085
    2PC      HX 5548   2.059   5.534   5.055
    2PC      C3 5549   1.999   5.629   5.232
    2PC      HA 5550   2.025   5.537   5.284
    2PC      HB 5551   2.087   5.694   5.232
    2PC     O31 5552   1.885   5.691   5.295
    2PC     P31 5553   1.879   5.682   5.454
    2PC     O32 5554   1.797   5.810   5.505
    2PC     C31 5555   1.808   5.827   5.647
    2PC     H1A 5556   1.762   5.739   5.692
    2PC     H1B 5557   1.914   5.836   5.674
    2PC     C32 5558   1.720   5.947   5.685
    2PC     H2A 5559   1.730   6.017   5.602
    2PC     H2B 5560   1.616   5.917   5.701
    2PC     N31 5561   1.749   6.017   5.814
    2PC     C33 5562   1.706   5.920   5.920
    2PC     H3A 5563   1.602   5.896   5.899
    2PC     H3B 5564   1.758   5.825   5.910
    2PC     H3C 5565   1.719   5.967   6.018
    2PC     C34 5566   1.889   6.064   5.842
    2PC     H4A 5567   1.909   6.145   5.772
    2PC     H4B 5568   1.907   6.096   5.945
    2PC     H4C 5569   1.960   5.987   5.812
    2PC     C35 5570   1.642   6.121   5.828
    2PC     H5A 5571   1.660   6.203   5.758
    2PC     H5B 5572   1.648   6.164   5.928
    2PC     H5C 5573   1.545   6.075   5.809
    2PC     O33 5574   1.817   5.557   5.505
    2PC     O34 5575   2.013   5.692   5.516
    2PC     O21 5576   1.933   5.697   4.994
    2PC     C21 5577   2.029   5.777   4.944
    2PC     O22 5578   2.145   5.784   4.981
    3OL     C12 5579   1.983   5.858   4.825
    3OL     H2R 5580   1.894   5.912   4.857
    3OL     H2S 5581   1.964   5.796   4.737
    3OL     C13 5582   2.081   5.967   4.781
    3OL     H3R 5583   2.165   5.920   4.728
    3OL     H3S 5584   2.110   6.022   4.871
    3OL     C14 5585   2.020   6.067   4.682
    3OL     H4R 5586   2.095   6.141   4.651
    3OL     H4S 5587   1.938   6.126   4.724
    3OL     C15 5588   1.973   5.998   4.553
    3OL     H5R 5589   1.909   5.915   4.582
    3OL     H5S 5590   2.066   5.972   4.501
    3OL     C16 5591   1.878   6.095   4.482
    3OL     H6R 5592   1.925   6.193   4.474
    3OL     H6S 5593   1.780   6.086   4.529
    3OL     C17 5594   1.860   6.055   4.335
    3OL     H7R 5595   1.783   6.115   4.285
    3OL     H7S 5596   1.810   5.958   4.335
    3OL     C18 5597   1.986   6.046   4.248
    3OL     H8R 5598   1.966   6.005   4.149
    3OL     H8S 5599   2.059   5.980   4.296
    3OL     C19 5600   2.054   6.180   4.238
    3OL     H9R 5601   2.060   6.223   4.338
    3OL    C110 5602   2.096   6.244   4.130
    3OL    H10R 5603   2.141   6.338   4.157
    3OL    C111 5604   2.066   6.216   3.984
    3OL    H11R 5605   1.995   6.135   3.971
    3OL    H11S 5606   2.165   6.187   3.948
    3OL    C112 5607   2.019   6.336   3.901
    3OL    H12R 5608   1.923   6.367   3.944
    3OL    H12S 5609   2.013   6.289   3.803
    3OL    C113 5610   2.113   6.457   3.885
    3OL    H13R 5611   2.109   0.003   3.782
    3OL    H13S 5612   2.215   6.444   3.919
    3OL    C114 5613   2.064   0.090   3.965
    3OL    H14R 5614   2.079   0.075   4.072
    3OL    H14S 5615   1.956   0.101   3.954
    3OL    C115 5616   2.143   0.215   3.925
    3OL    H15R 5617   2.103   0.247   3.829
    3OL    H15S 5618   2.246   0.180   3.910
    3OL    C116 5619   2.123   0.326   4.030
    3OL    H16R 5620   2.018   0.357   4.034
    3OL    H16S 5621   2.168   0.416   3.988
    3OL    C117 5622   2.175   0.303   4.173
    3OL    H17R 5623   2.279   0.273   4.158
    3OL    H17S 5624   2.112   0.231   4.227
    3OL    C118 5625   2.169   0.433   4.255
    3OL    H18R 5626   2.204   0.426   4.358
    3OL    H18S 5627   2.064   0.464   4.256
    3OL    H18T 5628   2.219   0.519   4.210
    1PA    C116 5629   1.727   3.207   3.353
    1PA    H16R 5630   1.798   3.124   3.350
    1PA    H16S 5631   1.727   3.251   3.253
    1PA    H16T 5632   1.633   3.153   3.368
    1PA    C115 5633   1.752   3.307   3.467
    1PA    H15R 5634   1.850   3.354   3.465
    1PA    H15S 5635   1.676   3.384   3.453
    1PA    C114 5636   1.722   3.247   3.605
    1PA    H14R 5637   1.710   3.316   3.689
    1PA    H14S 5638   1.621   3.208   3.588
    1PA    C113 5639   1.817   3.135   3.648
    1PA    H13R 5640   1.817   3.054   3.575
    1PA    H13S 5641   1.914   3.185   3.652
    1PA    C112 5642   1.787   3.064   3.781
    1PA    H12R 5643   1.827   3.122   3.865
    1PA    H12S 5644   1.680   3.047   3.790
    1PA    C111 5645   1.858   2.928   3.774
    1PA    H11R 5646   1.817   2.876   3.687
    1PA    H11S 5647   1.962   2.954   3.754
    1PA    C110 5648   1.842   2.839   3.898
    1PA    H10R 5649   1.742   2.797   3.909
    1PA    H10S 5650   1.915   2.761   3.874
    1PA     C19 5651   1.870   2.913   4.029
    1PA     H9R 5652   1.966   2.965   4.026
    1PA     H9S 5653   1.793   2.989   4.047
    1PA     C18 5654   1.855   2.816   4.147
    1PA     H8R 5655   1.764   2.755   4.139
    1PA     H8S 5656   1.941   2.748   4.147
    1PA     C17 5657   1.857   2.889   4.282
    1PA     H7R 5658   1.946   2.951   4.298
    1PA     H7S 5659   1.769   2.953   4.288
    1PA     C16 5660   1.849   2.803   4.408
    1PA     H6R 5661   1.766   2.732   4.401
    1PA     H6S 5662   1.942   2.746   4.414
    1PA     C15 5663   1.836   2.887   4.536
    1PA     H5R 5664   1.925   2.948   4.548
    1PA     H5S 5665   1.754   2.956   4.517
    1PA     C14 5666   1.808   2.804   4.662
    1PA     H4R 5667   1.707   2.764   4.669
    1PA     H4S 5668   1.869   2.717   4.689
    1PA     C13 5669   1.801   2.896   4.784
    1PA     H3R 5670   1.896   2.945   4.809
    1PA     H3S 5671   1.725   2.969   4.756
    1PA     C12 5672   1.746   2.820   4.906
    1PA     H2R 5673   1.655   2.764   4.884
    1PA     H2S 5674   1.816   2.746   4.944
    2PC     C11 5675   1.725   2.918   5.019
    2PC     O12 5676   1.653   3.016   5.014
    2PC     O11 5677   1.771   2.869   5.135
    2PC      C1 5678   1.740   2.941   5.255
    2PC      HR 5679   1.651   3.004   5.247
    2PC      HS 5680   1.719   2.865   5.331
    2PC      C2 5681   1.864   3.018   5.302
    2PC      HX 5682   1.954   2.956   5.296
    2PC      C3 5683   1.862   3.040   5.454
    2PC      HA 5684   1.843   2.953   5.517
    2PC      HB 5685   1.957   3.086   5.483
    2PC     O31 5686   1.747   3.119   5.490
    2PC     P31 5687   1.734   3.180   5.638
    2PC     O32 5688   1.595   3.104   5.664
    2PC     C31 5689   1.475   3.183   5.673
    2PC     H1A 5690   1.391   3.114   5.686
    2PC     H1B 5691   1.486   3.242   5.764
    2PC     C32 5692   1.451   3.267   5.547
    2PC     H2A 5693   1.525   3.347   5.546
    2PC     H2B 5694   1.482   3.199   5.467
    2PC     N31 5695   1.319   3.336   5.528
    2PC     C33 5696   1.206   3.239   5.509
    2PC     H3A 5697   1.206   3.186   5.604
    2PC     H3B 5698   1.116   3.300   5.499
    2PC     H3C 5699   1.237   3.187   5.418
    2PC     C34 5700   1.288   3.422   5.647
    2PC     H4A 5701   1.272   3.362   5.736
    2PC     H4B 5702   1.361   3.501   5.666
    2PC     H4C 5703   1.192   3.464   5.615
    2PC     C35 5704   1.324   3.421   5.405
    2PC     H5A 5705   1.323   3.354   5.319
    2PC     H5B 5706   1.415   3.482   5.402
    2PC     H5C 5707   1.239   3.488   5.393
    2PC     O33 5708   1.851   3.151   5.724
    2PC     O34 5709   1.742   3.326   5.655
    2PC     O21 5710   1.878   3.140   5.228
    2PC     C21 5711   2.003   3.189   5.220
    2PC     O22 5712   2.102   3.135   5.265
    3OL     C12 5713   1.998   3.319   5.144
    3OL     H2R 5714   2.094   3.370   5.148
    3OL     H2S 5715   1.919   3.380   5.189
    3OL     C13 5716   1.975   3.298   4.993
    3OL     H3R 5717   1.951   3.394   4.948
    3OL     H3S 5718   1.896   3.227   4.969
    3OL     C14 5719   2.100   3.250   4.919
    3OL     H4R 5720   2.126   3.153   4.964
    3OL     H4S 5721   2.189   3.312   4.932
    3OL     C15 5722   2.081   3.229   4.768
    3OL     H5R 5723   2.080   3.329   4.723
    3OL     H5S 5724   1.981   3.191   4.747
    3OL     C16 5725   2.187   3.142   4.699
    3OL     H6R 5726   2.195   3.042   4.743
    3OL     H6S 5727   2.283   3.193   4.700
    3OL     C17 5728   2.182   3.126   4.546
    3OL     H7R 5729   2.179   3.221   4.492
    3OL     H7S 5730   2.094   3.071   4.511
    3OL     C18 5731   2.301   3.037   4.509
    3OL     H8R 5732   2.281   2.939   4.553
    3OL     H8S 5733   2.395   3.080   4.545
    3OL     C19 5734   2.306   3.031   4.359
    3OL     H9R 5735   2.285   3.125   4.309
    3OL    C110 5736   2.328   2.924   4.283
    3OL    H10R 5737   2.323   2.928   4.175
    3OL    C111 5738   2.335   2.779   4.325
    3OL    H11R 5739   2.245   2.729   4.289
    3OL    H11S 5740   2.341   2.763   4.432
    3OL    C112 5741   2.454   2.709   4.259
    3OL    H12R 5742   2.463   2.610   4.305
    3OL    H12S 5743   2.544   2.761   4.293
    3OL    C113 5744   2.455   2.697   4.106
    3OL    H13R 5745   2.444   2.796   4.062
    3OL    H13S 5746   2.377   2.644   4.051
    3OL    C114 5747   2.580   2.618   4.064
    3OL    H14R 5748   2.566   2.512   4.084
    3OL    H14S 5749   2.671   2.658   4.109
    3OL    C115 5750   2.611   2.651   3.917
    3OL    H15R 5751   2.643   2.755   3.910
    3OL    H15S 5752   2.517   2.641   3.864
    3OL    C116 5753   2.726   2.569   3.857
    3OL    H16R 5754   2.724   2.462   3.882
    3OL    H16S 5755   2.821   2.609   3.891
    3OL    C117 5756   2.712   2.583   3.705
    3OL    H17R 5757   2.685   2.687   3.688
    3OL    H17S 5758   2.631   2.520   3.665
    3OL    C118 5759   2.836   2.542   3.625
    3OL    H18R 5760   2.923   2.596   3.663
    3OL    H18S 5761   2.823   2.569   3.520
    3OL    H18T 5762   2.842   2.433   3.634
    1PA    C116 5763   5.844   3.307   4.278
    1PA    H16R 5764   5.889   3.406   4.286
    1PA    H16S 5765   5.798   3.293   4.180
    1PA    H16T 5766   5.916   3.225   4.280
    1PA    C115 5767   5.728   3.298   4.378
    1PA    H15R 5768   5.648   3.370   4.359
    1PA    H15S 5769   5.687   3.199   4.360
    1PA    C114 5770   5.776   3.301   4.524
    1PA    H14R 5771   5.695   3.255   4.581
    1PA    H14S 5772   5.865   3.243   4.548
    1PA    C113 5773   5.803   3.444   4.574
    1PA    H13R 5774   5.887   3.490   4.521
    1PA    H13S 5775   5.711   3.496   4.547
    1PA    C112 5776   5.818   3.445   4.727
    1PA    H12R 5777   5.725   3.414   4.776
    1PA    H12S 5778   5.904   3.380   4.749
    1PA    C111 5779   5.841   3.590   4.771
    1PA    H11R 5780   5.877   3.578   4.873
    1PA    H11S 5781   5.927   3.634   4.722
    1PA    C110 5782   5.715   3.679   4.769
    1PA    H10R 5783   5.687   3.691   4.664
    1PA    H10S 5784   5.632   3.628   4.818
    1PA     C19 5785   5.733   3.815   4.836
    1PA     H9R 5786   5.835   3.848   4.815
    1PA     H9S 5787   5.658   3.885   4.800
    1PA     C18 5788   5.713   3.808   4.988
    1PA     H8R 5789   5.634   3.744   5.029
    1PA     H8S 5790   5.802   3.756   5.024
    1PA     C17 5791   5.688   3.948   5.045
    1PA     H7R 5792   5.781   4.001   5.022
    1PA     H7S 5793   5.601   3.997   5.002
    1PA     C16 5794   5.669   3.931   5.197
    1PA     H6R 5795   5.601   3.849   5.221
    1PA     H6S 5796   5.765   3.905   5.243
    1PA     C15 5797   5.614   4.063   5.251
    1PA     H5R 5798   5.691   4.141   5.253
    1PA     H5S 5799   5.534   4.089   5.181
    1PA     C14 5800   5.549   4.040   5.388
    1PA     H4R 5801   5.499   4.134   5.412
    1PA     H4S 5802   5.470   3.964   5.387
    1PA     C13 5803   5.649   4.018   5.501
    1PA     H3R 5804   5.694   3.921   5.480
    1PA     H3S 5805   5.726   4.096   5.502
    1PA     C12 5806   5.581   4.019   5.639
    1PA     H2R 5807   5.542   4.120   5.659
    1PA     H2S 5808   5.496   3.950   5.638
    2PC     C11 5809   5.677   3.989   5.750
    2PC     O12 5810   5.636   3.978   5.864
    2PC     O11 5811   5.806   3.983   5.713
    2PC      C1 5812   5.902   3.941   5.811
    2PC      HR 5813   6.002   3.945   5.767
    2PC      HS 5814   5.881   4.004   5.898
    2PC      C2 5815   5.865   3.795   5.840
    2PC      HX 5816   5.761   3.770   5.863
    2PC      C3 5817   5.943   3.751   5.965
    2PC      HA 5818   5.929   3.832   6.038
    2PC      HB 5819   5.897   3.665   6.013
    2PC     O31 5820   6.085   3.739   5.948
    2PC     P31 5821   6.188   3.738   6.071
    2PC     O32 5822   6.322   3.744   5.985
    2PC     C31 5823   6.344   3.836   5.877
    2PC     H1A 5824   6.436   3.808   5.825
    2PC     H1B 5825   6.256   3.829   5.814
    2PC     C32 5826   6.363   3.979   5.931
    2PC     H2A 5827   6.364   4.051   5.849
    2PC     H2B 5828   6.280   4.004   5.997
    2PC     N31 5829   6.478   4.012   6.022
    2PC     C33 5830   6.470   4.159   6.049
    2PC     H3A 5831   0.064   4.180   6.117
    2PC     H3B 5832   6.474   4.219   5.958
    2PC     H3C 5833   6.370   4.172   6.091
    2PC     C34 5834   6.462   3.949   6.157
    2PC     H4A 5835   6.366   3.981   6.197
    2PC     H4B 5836   6.461   3.841   6.142
    2PC     H4C 5837   0.063   3.968   6.216
    2PC     C35 5838   0.122   3.985   5.958
    2PC     H5A 5839   0.121   3.880   5.928
    2PC     H5B 5840   0.206   4.014   6.022
    2PC     H5C 5841   0.123   4.044   5.865
    2PC     O33 5842   6.178   3.852   6.166
    2PC     O34 5843   6.190   3.623   6.165
    2PC     O21 5844   5.908   3.722   5.723
    2PC     C21 5845   5.855   3.605   5.684
    2PC     O22 5846   5.792   3.533   5.760
    3OL     C12 5847   5.869   3.579   5.537
    3OL     H2R 5848   5.965   3.528   5.522
    3OL     H2S 5849   5.892   3.674   5.489
    3OL     C13 5850   5.753   3.501   5.473
    3OL     H3R 5851   5.656   3.540   5.504
    3OL     H3S 5852   5.755   3.397   5.505
    3OL     C14 5853   5.744   3.510   5.320
    3OL     H4R 5854   5.832   3.476   5.266
    3OL     H4S 5855   5.724   3.614   5.293
    3OL     C15 5856   5.630   3.421   5.269
    3OL     H5R 5857   5.595   3.468   5.177
    3OL     H5S 5858   5.540   3.433   5.330
    3OL     C16 5859   5.660   3.271   5.254
    3OL     H6R 5860   5.657   3.226   5.354
    3OL     H6S 5861   5.763   3.267   5.218
    3OL     C17 5862   5.572   3.205   5.148
    3OL     H7R 5863   5.550   3.269   5.061
    3OL     H7S 5864   5.478   3.182   5.198
    3OL     C18 5865   5.631   3.070   5.108
    3OL     H8R 5866   5.720   3.077   5.045
    3OL     H8S 5867   5.564   3.020   5.038
    3OL     C19 5868   5.655   2.975   5.223
    3OL     H9R 5869   5.578   2.977   5.299
    3OL    C110 5870   5.751   2.886   5.243
    3OL    H10R 5871   5.740   2.826   5.333
    3OL    C111 5872   5.876   2.880   5.159
    3OL    H11R 5873   5.857   2.918   5.058
    3OL    H11S 5874   5.893   2.772   5.151
    3OL    C112 5875   6.003   2.939   5.220
    3OL    H12R 5876   6.086   2.917   5.153
    3OL    H12S 5877   6.032   2.902   5.319
    3OL    C113 5878   5.997   3.092   5.230
    3OL    H13R 5879   5.922   3.122   5.303
    3OL    H13S 5880   5.966   3.133   5.133
    3OL    C114 5881   6.131   3.157   5.269
    3OL    H14R 5882   6.210   3.107   5.214
    3OL    H14S 5883   6.158   3.124   5.370
    3OL    C115 5884   6.150   3.306   5.241
    3OL    H15R 5885   6.252   3.333   5.269
    3OL    H15S 5886   6.082   3.368   5.302
    3OL    C116 5887   6.123   3.334   5.093
    3OL    H16R 5888   6.016   3.326   5.072
    3OL    H16S 5889   6.183   3.263   5.036
    3OL    C117 5890   6.176   3.475   5.062
    3OL    H17R 5891   6.201   3.479   4.956
    3OL    H17S 5892   6.269   3.494   5.115
    3OL    C118 5893   6.068   3.581   5.092
    3OL    H18R 5894   6.083   3.615   5.194
    3OL    H18S 5895   5.968   3.541   5.076
    3OL    H18T 5896   6.084   3.665   5.024
    1PA    C116 5897   2.895   6.216   3.287
    1PA    H16R 5898   2.891   6.114   3.324
    1PA    H16S 5899   2.960   6.212   3.199
    1PA    H16T 5900   2.794   6.251   3.268
    1PA    C115 5901   2.954   6.300   3.402
    1PA    H15R 5902   3.056   6.262   3.409
    1PA    H15S 5903   2.962   6.403   3.368
    1PA    C114 5904   2.875   6.300   3.533
    1PA    H14R 5905   2.769   6.319   3.516
    1PA    H14S 5906   2.876   6.200   3.575
    1PA    C113 5907   2.936   6.396   3.637
    1PA    H13R 5908   3.045   6.391   3.638
    1PA    H13S 5909   2.919   0.010   3.607
    1PA    C112 5910   2.878   6.366   3.776
    1PA    H12R 5911   2.770   6.367   3.762
    1PA    H12S 5912   2.902   6.265   3.810
    1PA    C111 5913   2.922   6.464   3.887
    1PA    H11R 5914   2.933   0.067   3.829
    1PA    H11S 5915   2.837   6.471   3.954
    1PA    C110 5916   3.057   6.421   3.947
    1PA    H10R 5917   3.032   6.334   4.009
    1PA    H10S 5918   3.123   6.384   3.868
    1PA     C19 5919   3.118   0.045   4.032
    1PA     H9R 5920   3.221   0.019   4.056
    1PA     H9S 5921   3.127   0.137   3.973
    1PA     C18 5922   3.049   0.058   4.168
    1PA     H8R 5923   2.943   0.080   4.151
    1PA     H8S 5924   3.052   6.450   4.220
    1PA     C17 5925   3.100   0.169   4.261
    1PA     H7R 5926   3.206   0.148   4.277
    1PA     H7S 5927   3.097   0.267   4.214
    1PA     C16 5928   3.019   0.175   4.391
    1PA     H6R 5929   3.065   0.258   4.446
    1PA     H6S 5930   2.918   0.205   4.364
    1PA     C15 5931   2.999   0.043   4.466
    1PA     H5R 5932   2.924   0.060   4.543
    1PA     H5S 5933   2.955   6.449   4.409
    1PA     C14 5934   3.123   6.480   4.540
    1PA     H4R 5935   3.196   6.444   4.467
    1PA     H4S 5936   3.183   0.072   4.583
    1PA     C13 5937   3.099   6.381   4.655
    1PA     H3R 5938   3.190   6.344   4.704
    1PA     H3S 5939   3.056   6.430   4.743
    1PA     C12 5940   3.009   6.263   4.619
    1PA     H2R 5941   2.906   6.291   4.593
    1PA     H2S 5942   3.049   6.213   4.530
    2PC     C11 5943   3.002   6.163   4.731
    2PC     O12 5944   2.918   6.162   4.819
    2PC     O11 5945   3.099   6.071   4.719
    2PC      C1 5946   3.103   5.948   4.794
    2PC      HR 5947   3.206   5.915   4.803
    2PC      HS 5948   3.057   5.960   4.893
    2PC      C2 5949   3.024   5.847   4.710
    2PC      HX 5950   2.938   5.901   4.669
    2PC      C3 5951   2.958   5.743   4.800
    2PC      HA 5952   2.876   5.792   4.853
    2PC      HB 5953   2.920   5.658   4.742
    2PC     O31 5954   3.041   5.674   4.895
    2PC     P31 5955   2.969   5.569   4.993
    2PC     O32 5956   3.021   5.431   4.930
    2PC     C31 5957   3.161   5.411   4.903
    2PC     H1A 5958   3.171   5.336   4.824
    2PC     H1B 5959   3.214   5.494   4.855
    2PC     C32 5960   3.232   5.359   5.028
    2PC     H2A 5961   3.333   5.338   4.994
    2PC     H2B 5962   3.239   5.442   5.099
    2PC     N31 5963   3.178   5.235   5.094
    2PC     C33 5964   3.181   5.124   4.994
    2PC     H3A 5965   3.277   5.124   4.943
    2PC     H3B 5966   3.153   5.034   5.049
    2PC     H3C 5967   3.101   5.135   4.920
    2PC     C34 5968   3.269   5.214   5.212
    2PC     H4A 5969   3.240   5.120   5.257
    2PC     H4B 5970   3.372   5.220   5.176
    2PC     H4C 5971   3.252   5.290   5.288
    2PC     C35 5972   3.043   5.246   5.158
    2PC     H5A 5973   3.061   5.319   5.238
    2PC     H5B 5974   3.034   5.149   5.206
    2PC     H5C 5975   2.963   5.264   5.086
    2PC     O33 5976   3.022   5.563   5.131
    2PC     O34 5977   2.822   5.567   5.012
    2PC     O21 5978   3.101   5.794   4.600
    2PC     C21 5979   3.040   5.758   4.487
    2PC     O22 5980   2.919   5.762   4.476
    3OL     C12 5981   3.130   5.710   4.375
    3OL     H2R 5982   3.165   5.608   4.394
    3OL     H2S 5983   3.214   5.779   4.368
    3OL     C13 5984   3.055   5.713   4.241
    3OL     H3R 5985   3.051   5.817   4.208
    3OL     H3S 5986   2.952   5.676   4.249
    3OL     C14 5987   3.118   5.639   4.122
    3OL     H4R 5988   3.150   5.543   4.162
    3OL     H4S 5989   3.212   5.690   4.100
    3OL     C15 5990   3.027   5.634   3.998
    3OL     H5R 5991   2.997   5.735   3.971
    3OL     H5S 5992   2.936   5.576   4.014
    3OL     C16 5993   3.104   5.576   3.879
    3OL     H6R 5994   3.036   5.557   3.796
    3OL     H6S 5995   3.144   5.479   3.911
    3OL     C17 5996   3.220   5.662   3.827
    3OL     H7R 5997   3.297   5.682   3.902
    3OL     H7S 5998   3.166   5.750   3.791
    3OL     C18 5999   3.282   5.594   3.704
    3OL     H8R 6000   3.211   5.583   3.622
    3OL     H8S 6001   3.320   5.498   3.740
    3OL     C19 6002   3.386   5.687   3.648
    3OL     H9R 6003   3.351   5.790   3.641
    3OL    C110 6004   3.516   5.668   3.628
    3OL    H10R 6005   3.579   5.750   3.595
    3OL    C111 6006   3.573   5.530   3.605
    3OL    H11R 6007   3.652   5.548   3.531
    3OL    H11S 6008   3.507   5.461   3.552
    3OL    C112 6009   3.636   5.474   3.733
    3OL    H12R 6010   3.556   5.458   3.805
    3OL    H12S 6011   3.706   5.551   3.765
    3OL    C113 6012   3.706   5.340   3.705
    3OL    H13R 6013   3.786   5.350   3.632
    3OL    H13S 6014   3.639   5.261   3.670
    3OL    C114 6015   3.764   5.295   3.839
    3OL    H14R 6016   3.691   5.264   3.915
    3OL    H14S 6017   3.807   5.380   3.892
    3OL    C115 6018   3.875   5.191   3.817
    3OL    H15R 6019   3.930   5.179   3.911
    3OL    H15S 6020   3.948   5.229   3.745
    3OL    C116 6021   3.815   5.059   3.769
    3OL    H16R 6022   3.770   5.079   3.671
    3OL    H16S 6023   3.729   5.029   3.829
    3OL    C117 6024   3.919   4.946   3.775
    3OL    H17R 6025   3.867   4.853   3.797
    3OL    H17S 6026   3.976   4.966   3.866
    3OL    C118 6027   4.004   4.932   3.647
    3OL    H18R 6028   4.058   4.839   3.666
    3OL    H18S 6029   4.070   5.019   3.639
    3OL    H18T 6030   3.949   4.931   3.553
    1PA    C116 6031   2.131   0.816   4.123
    1PA    H16R 6032   2.183   0.818   4.219
    1PA    H16S 6033   2.066   0.729   4.128
    1PA    H16T 6034   2.064   0.902   4.117
    1PA    C115 6035   2.236   0.810   4.011
    1PA    H15R 6036   2.273   0.708   4.024
    1PA    H15S 6037   2.176   0.812   3.920
    1PA    C114 6038   2.341   0.921   4.022
    1PA    H14R 6039   2.357   0.958   3.920
    1PA    H14S 6040   2.301   1.015   4.059
    1PA    C113 6041   2.469   0.886   4.100
    1PA    H13R 6042   2.532   0.975   4.106
    1PA    H13S 6043   2.443   0.862   4.204
    1PA    C112 6044   2.547   0.771   4.036
    1PA    H12R 6045   2.498   0.674   4.048
    1PA    H12S 6046   2.548   0.787   3.928
    1PA    C111 6047   2.694   0.768   4.079
    1PA    H11R 6048   2.741   0.687   4.024
    1PA    H11S 6049   2.755   0.853   4.048
    1PA    C110 6050   2.725   0.727   4.224
    1PA    H10R 6051   2.684   0.806   4.287
    1PA    H10S 6052   2.669   0.640   4.256
    1PA     C19 6053   2.877   0.727   4.243
    1PA     H9R 6054   2.922   0.677   4.157
    1PA     H9S 6055   2.902   0.833   4.235
    1PA     C18 6056   2.919   0.652   4.371
    1PA     H8R 6057   2.865   0.558   4.380
    1PA     H8S 6058   3.026   0.641   4.357
    1PA     C17 6059   2.903   0.739   4.496
    1PA     H7R 6060   2.954   0.833   4.476
    1PA     H7S 6061   2.797   0.758   4.518
    1PA     C16 6062   2.965   0.670   4.618
    1PA     H6R 6063   2.933   0.566   4.613
    1PA     H6S 6064   3.074   0.671   4.607
    1PA     C15 6065   2.939   0.740   4.752
    1PA     H5R 6066   3.009   0.824   4.763
    1PA     H5S 6067   2.836   0.775   4.761
    1PA     C14 6068   2.972   0.641   4.865
    1PA     H4R 6069   2.893   0.566   4.863
    1PA     H4S 6070   3.068   0.595   4.839
    1PA     C13 6071   2.969   0.708   5.004
    1PA     H3R 6072   3.006   0.810   4.990
    1PA     H3S 6073   2.863   0.712   5.033
    1PA     C12 6074   3.048   0.633   5.112
    1PA     H2R 6075   3.013   0.530   5.116
    1PA     H2S 6076   3.150   0.643   5.074
    2PC     C11 6077   3.046   0.698   5.248
    2PC     O12 6078   2.960   0.681   5.332
    2PC     O11 6079   3.159   0.767   5.270
    2PC      C1 6080   3.174   0.842   5.392
    2PC      HR 6081   3.090   0.909   5.412
    2PC      HS 6082   3.173   0.775   5.478
    2PC      C2 6083   3.303   0.922   5.373
    2PC      HX 6084   3.373   0.848   5.335
    2PC      C3 6085   3.360   0.966   5.508
    2PC      HA 6086   3.359   0.890   5.586
    2PC      HB 6087   3.461   1.007   5.505
    2PC     O31 6088   3.272   1.072   5.551
    2PC     P31 6089   3.300   1.139   5.693
    2PC     O32 6090   3.157   1.197   5.735
    2PC     C31 6091   3.145   1.237   5.873
    2PC     H1A 6092   3.041   1.240   5.905
    2PC     H1B 6093   3.188   1.163   5.941
    2PC     C32 6094   3.212   1.373   5.902
    2PC     H2A 6095   3.238   1.391   6.007
    2PC     H2B 6096   3.307   1.375   5.849
    2PC     N31 6097   3.161   1.503   5.848
    2PC     C33 6098   3.188   1.506   5.700
    2PC     H3A 6099   3.292   1.481   5.678
    2PC     H3B 6100   3.118   1.433   5.660
    2PC     H3C 6101   3.170   1.606   5.660
    2PC     C34 6102   3.020   1.530   5.893
    2PC     H4A 6103   2.994   1.636   5.887
    2PC     H4B 6104   2.964   1.461   5.829
    2PC     H4C 6105   3.011   1.478   5.988
    2PC     C35 6106   3.249   1.607   5.910
    2PC     H5A 6107   3.354   1.579   5.913
    2PC     H5B 6108   3.212   1.624   6.011
    2PC     H5C 6109   3.236   1.698   5.851
    2PC     O33 6110   3.355   1.058   5.804
    2PC     O34 6111   3.386   1.259   5.684
    2PC     O21 6112   3.300   1.018   5.265
    2PC     C21 6113   3.405   1.079   5.206
    2PC     O22 6114   3.521   1.047   5.223
    3OL     C12 6115   3.355   1.171   5.098
    3OL     H2R 6116   3.254   1.198   5.130
    3OL     H2S 6117   3.352   1.120   5.001
    3OL     C13 6118   3.435   1.301   5.088
    3OL     H3R 6119   3.538   1.294   5.053
    3OL     H3S 6120   3.469   1.330   5.188
    3OL     C14 6121   3.371   1.418   5.011
    3OL     H4R 6122   3.399   1.513   5.058
    3OL     H4S 6123   3.263   1.408   5.025
    3OL     C15 6124   3.389   1.409   4.859
    3OL     H5R 6125   3.364   1.310   4.822
    3OL     H5S 6126   3.497   1.419   4.846
    3OL     C16 6127   3.332   1.527   4.779
    3OL     H6R 6128   3.409   1.565   4.711
    3OL     H6S 6129   3.323   1.610   4.850
    3OL     C17 6130   3.200   1.495   4.709
    3OL     H7R 6131   3.127   1.459   4.781
    3OL     H7S 6132   3.223   1.423   4.629
    3OL     C18 6133   3.135   1.618   4.643
    3OL     H8R 6134   3.145   1.696   4.720
    3OL     H8S 6135   3.029   1.607   4.620
    3OL     C19 6136   3.211   1.673   4.525
    3OL     H9R 6137   3.285   1.748   4.549
    3OL    C110 6138   3.199   1.642   4.397
    3OL    H10R 6139   3.261   1.678   4.315
    3OL    C111 6140   3.094   1.548   4.343
    3OL    H11R 6141   2.997   1.597   4.347
    3OL    H11S 6142   3.082   1.454   4.396
    3OL    C112 6143   3.111   1.520   4.193
    3OL    H12R 6144   3.218   1.500   4.182
    3OL    H12S 6145   3.093   1.609   4.132
    3OL    C113 6146   3.033   1.398   4.143
    3OL    H13R 6147   2.927   1.425   4.147
    3OL    H13S 6148   3.048   1.310   4.206
    3OL    C114 6149   3.055   1.362   3.996
    3OL    H14R 6150   3.157   1.329   3.976
    3OL    H14S 6151   3.048   1.456   3.940
    3OL    C115 6152   2.951   1.262   3.944
    3OL    H15R 6153   2.940   1.172   4.005
    3OL    H15S 6154   2.989   1.230   3.846
    3OL    C116 6155   2.814   1.330   3.933
    3OL    H16R 6156   2.824   1.432   3.893
    3OL    H16S 6157   2.768   1.335   4.032
    3OL    C117 6158   2.718   1.251   3.843
    3OL    H17R 6159   2.764   1.258   3.744
    3OL    H17S 6160   2.620   1.298   3.835
    3OL    C118 6161   2.698   1.103   3.876
    3OL    H18R 6162   2.791   1.045   3.870
    3OL    H18S 6163   2.629   1.049   3.810
    3OL    H18T 6164   2.658   1.101   3.978
    1PA    C116 6165   5.880   3.709   4.135
    1PA    H16R 6166   5.967   3.774   4.130
    1PA    H16S 6167   5.881   3.648   4.044
    1PA    H16T 6168   5.882   3.647   4.225
    1PA    C115 6169   5.748   3.787   4.144
    1PA    H15R 6170   5.770   3.878   4.087
    1PA    H15S 6171   5.671   3.729   4.093
    1PA    C114 6172   5.706   3.837   4.283
    1PA    H14R 6173   5.599   3.861   4.275
    1PA    H14S 6174   5.724   3.758   4.357
    1PA    C113 6175   5.779   3.964   4.327
    1PA    H13R 6176   5.882   3.932   4.346
    1PA    H13S 6177   5.782   4.037   4.246
    1PA    C112 6178   5.710   4.007   4.457
    1PA    H12R 6179   5.603   4.012   4.440
    1PA    H12S 6180   5.716   3.930   4.534
    1PA    C111 6181   5.770   4.134   4.520
    1PA    H11R 6182   5.815   4.205   4.451
    1PA    H11S 6183   5.694   4.196   4.569
    1PA    C110 6184   5.882   4.101   4.621
    1PA    H10R 6185   5.835   4.048   4.704
    1PA    H10S 6186   5.954   4.032   4.579
    1PA     C19 6187   5.974   4.213   4.671
    1PA     H9R 6188   6.063   4.177   4.723
    1PA     H9S 6189   6.000   4.266   4.579
    1PA     C18 6190   5.900   4.306   4.769
    1PA     H8R 6191   5.805   4.346   4.732
    1PA     H8S 6192   5.885   4.247   4.859
    1PA     C17 6193   5.993   4.424   4.796
    1PA     H7R 6194   6.090   4.391   4.834
    1PA     H7S 6195   6.012   4.474   4.700
    1PA     C16 6196   5.928   4.517   4.899
    1PA     H6R 6197   6.000   4.599   4.909
    1PA     H6S 6198   5.840   4.566   4.858
    1PA     C15 6199   5.896   4.446   5.031
    1PA     H5R 6200   5.828   4.362   5.020
    1PA     H5S 6201   5.991   4.413   5.073
    1PA     C14 6202   5.851   4.557   5.128
    1PA     H4R 6203   5.934   4.628   5.132
    1PA     H4S 6204   5.768   4.613   5.084
    1PA     C13 6205   5.823   4.506   5.270
    1PA     H3R 6206   5.888   4.428   5.310
    1PA     H3S 6207   5.832   4.584   5.346
    1PA     C12 6208   5.679   4.454   5.269
    1PA     H2R 6209   5.608   4.523   5.223
    1PA     H2S 6210   5.668   4.355   5.223
    2PC     C11 6211   5.631   4.446   5.412
    2PC     O12 6212   5.692   4.381   5.494
    2PC     O11 6213   5.510   4.502   5.430
    2PC      C1 6214   5.452   4.487   5.561
    2PC      HR 6215   5.457   4.386   5.603
    2PC      HS 6216   5.508   4.540   5.638
    2PC      C2 6217   5.309   4.543   5.556
    2PC      HX 6218   5.328   4.644   5.518
    2PC      C3 6219   5.243   4.548   5.695
    2PC      HA 6220   5.241   4.651   5.731
    2PC      HB 6221   5.138   4.523   5.679
    2PC     O31 6222   5.323   4.469   5.784
    2PC     P31 6223   5.259   4.426   5.925
    2PC     O32 6224   5.385   4.348   5.986
    2PC     C31 6225   5.422   4.364   6.124
    2PC     H1A 6226   5.458   4.467   6.126
    2PC     H1B 6227   5.339   4.344   6.193
    2PC     C32 6228   5.536   4.264   6.148
    2PC     H2A 6229   5.611   4.260   6.069
    2PC     H2B 6230   5.585   4.303   6.238
    2PC     N31 6231   5.495   4.122   6.171
    2PC     C33 6232   5.423   4.112   6.302
    2PC     H3A 6233   5.336   4.178   6.298
    2PC     H3B 6234   5.397   4.010   6.331
    2PC     H3C 6235   5.495   4.140   6.379
    2PC     C34 6236   5.399   4.073   6.067
    2PC     H4A 6237   5.305   4.128   6.073
    2PC     H4B 6238   5.440   4.081   5.966
    2PC     H4C 6239   5.390   3.965   6.080
    2PC     C35 6240   5.621   4.041   6.184
    2PC     H5A 6241   5.673   4.091   6.265
    2PC     H5B 6242   5.676   4.048   6.090
    2PC     H5C 6243   5.596   3.937   6.204
    2PC     O33 6244   5.228   4.547   6.003
    2PC     O34 6245   5.136   4.345   5.911
    2PC     O21 6246   5.230   4.471   5.459
    2PC     C21 6247   5.200   4.341   5.470
    2PC     O22 6248   5.210   4.272   5.570
    3OL     C12 6249   5.147   4.279   5.343
    3OL     H2R 6250   5.198   4.321   5.256
    3OL     H2S 6251   5.039   4.301   5.340
    3OL     C13 6252   5.167   4.127   5.342
    3OL     H3R 6253   5.118   4.075   5.423
    3OL     H3S 6254   5.275   4.111   5.344
    3OL     C14 6255   5.120   4.070   5.207
    3OL     H4R 6256   5.120   4.152   5.136
    3OL     H4S 6257   5.014   4.047   5.220
    3OL     C15 6258   5.206   3.956   5.150
    3OL     H5R 6259   5.307   3.993   5.135
    3OL     H5S 6260   5.164   3.933   5.052
    3OL     C16 6261   5.217   3.832   5.240
    3OL     H6R 6262   5.122   3.780   5.230
    3OL     H6S 6263   5.243   3.867   5.340
    3OL     C17 6264   5.319   3.735   5.180
    3OL     H7R 6265   5.356   3.677   5.264
    3OL     H7S 6266   5.406   3.780   5.132
    3OL     C18 6267   5.257   3.641   5.076
    3OL     H8R 6268   5.222   3.695   4.988
    3OL     H8S 6269   5.171   3.597   5.127
    3OL     C19 6270   5.351   3.527   5.045
    3OL     H9R 6271   5.404   3.501   5.136
    3OL    C110 6272   5.376   3.478   4.925
    3OL    H10R 6273   5.454   3.402   4.918
    3OL    C111 6274   5.303   3.501   4.795
    3OL    H11R 6275   5.269   3.603   4.777
    3OL    H11S 6276   5.216   3.437   4.783
    3OL    C112 6277   5.388   3.461   4.673
    3OL    H12R 6278   5.418   3.357   4.680
    3OL    H12S 6279   5.484   3.513   4.665
    3OL    C113 6280   5.305   3.486   4.547
    3OL    H13R 6281   5.276   3.591   4.554
    3OL    H13S 6282   5.221   3.416   4.549
    3OL    C114 6283   5.389   3.452   4.423
    3OL    H14R 6284   5.426   3.349   4.420
    3OL    H14S 6285   5.477   3.516   4.415
    3OL    C115 6286   5.308   3.481   4.296
    3OL    H15R 6287   5.265   3.581   4.289
    3OL    H15S 6288   5.217   3.420   4.302
    3OL    C116 6289   5.374   3.441   4.163
    3OL    H16R 6290   5.293   3.423   4.093
    3OL    H16S 6291   5.440   3.354   4.165
    3OL    C117 6292   5.454   3.564   4.118
    3OL    H17R 6293   5.537   3.574   4.188
    3OL    H17S 6294   5.387   3.650   4.113
    3OL    C118 6295   5.512   3.545   3.977
    3OL    H18R 6296   5.581   3.460   3.985
    3OL    H18S 6297   5.559   3.637   3.943
    3OL    H18T 6298   5.429   3.517   3.912
    1PA    C116 6299   6.456   4.616   4.046
    1PA    H16R 6300   6.348   4.632   4.037
    1PA    H16S 6301   6.470   4.525   3.987
    1PA    H16T 6302   0.012   4.703   3.999
    1PA    C115 6303   0.013   4.602   4.192
    1PA    H15R 6304   6.446   4.668   4.259
    1PA    H15S 6305   6.477   4.503   4.231
    1PA    C114 6306   0.160   4.638   4.215
    1PA    H14R 6307   0.209   4.590   4.131
    1PA    H14S 6308   0.170   4.747   4.211
    1PA    C113 6309   0.213   4.585   4.349
    1PA    H13R 6310   0.238   4.478   4.346
    1PA    H13S 6311   0.309   4.630   4.375
    1PA    C112 6312   0.120   4.593   4.472
    1PA    H12R 6313   0.027   4.538   4.456
    1PA    H12S 6314   0.164   4.537   4.555
    1PA    C111 6315   0.104   4.739   4.514
    1PA    H11R 6316   0.203   4.782   4.533
    1PA    H11S 6317   0.049   4.786   4.432
    1PA    C110 6318   0.016   4.751   4.639
    1PA    H10R 6319   6.400   4.722   4.625
    1PA    H10S 6320   0.051   4.686   4.720
    1PA     C19 6321   0.003   4.892   4.698
    1PA     H9R 6322   0.097   4.947   4.701
    1PA     H9S 6323   6.429   4.939   4.622
    1PA     C18 6324   6.415   4.879   4.831
    1PA     H8R 6325   6.313   4.846   4.809
    1PA     H8S 6326   6.466   4.806   4.894
    1PA     C17 6327   6.402   5.020   4.890
    1PA     H7R 6328   0.014   5.044   4.925
    1PA     H7S 6329   6.370   5.086   4.809
    1PA     C16 6330   6.307   5.020   5.010
    1PA     H6R 6331   6.322   4.931   5.070
    1PA     H6S 6332   6.335   5.100   5.079
    1PA     C15 6333   6.156   5.016   4.981
    1PA     H5R 6334   6.133   5.115   4.940
    1PA     H5S 6335   6.121   4.939   4.912
    1PA     C14 6336   6.078   4.974   5.106
    1PA     H4R 6337   5.973   4.993   5.084
    1PA     H4S 6338   6.093   4.868   5.127
    1PA     C13 6339   6.108   5.046   5.239
    1PA     H3R 6340   6.211   5.031   5.271
    1PA     H3S 6341   6.086   5.153   5.231
    1PA     C12 6342   6.001   5.005   5.341
    1PA     H2R 6343   5.909   5.057   5.315
    1PA     H2S 6344   5.970   4.901   5.339
    2PC     C11 6345   6.051   5.039   5.479
    2PC     O12 6346   6.012   5.141   5.533
    2PC     O11 6347   6.145   4.958   5.529
    2PC      C1 6348   6.205   4.997   5.654
    2PC      HR 6349   6.254   5.093   5.637
    2PC      HS 6350   6.126   5.012   5.728
    2PC      C2 6351   6.306   4.890   5.698
    2PC      HX 6352   6.248   4.800   5.720
    2PC      C3 6353   6.380   4.928   5.827
    2PC      HA 6354   6.464   4.989   5.794
    2PC      HB 6355   6.303   4.970   5.893
    2PC     O31 6356   6.433   4.810   5.890
    2PC     P31 6357   0.037   4.842   6.017
    2PC     O32 6358   0.177   4.872   5.946
    2PC     C31 6359   0.219   4.817   5.819
    2PC     H1A 6360   0.175   4.718   5.807
    2PC     H1B 6361   0.187   4.889   5.744
    2PC     C32 6362   0.372   4.816   5.835
    2PC     H2A 6363   0.414   4.788   5.739
    2PC     H2B 6364   0.396   4.919   5.862
    2PC     N31 6365   0.438   4.714   5.924
    2PC     C33 6366   0.586   4.735   5.936
    2PC     H3A 6367   0.607   4.832   5.982
    2PC     H3B 6368   0.645   4.658   5.986
    2PC     H3C 6369   0.616   4.745   5.832
    2PC     C34 6370   0.393   4.728   6.066
    2PC     H4A 6371   0.413   4.833   6.087
    2PC     H4B 6372   0.286   4.705   6.068
    2PC     H4C 6373   0.444   4.663   6.136
    2PC     C35 6374   0.408   4.575   5.876
    2PC     H5A 6375   0.463   4.506   5.941
    2PC     H5B 6376   0.417   4.567   5.768
    2PC     H5C 6377   0.305   4.571   5.911
    2PC     O33 6378   0.004   4.956   6.105
    2PC     O34 6379   0.063   4.717   6.093
    2PC     O21 6380   6.393   4.864   5.587
    2PC     C21 6381   6.459   4.967   5.530
    2PC     O22 6382   6.470   5.076   5.583
    3OL     C12 6383   0.029   4.935   5.395
    3OL     H2R 6384   6.488   5.013   5.325
    3OL     H2S 6385   6.477   4.840   5.358
    3OL     C13 6386   0.180   4.908   5.394
    3OL     H3R 6387   0.204   4.822   5.457
    3OL     H3S 6388   0.219   5.001   5.437
    3OL     C14 6389   0.256   4.894   5.262
    3OL     H4R 6390   0.362   4.897   5.288
    3OL     H4S 6391   0.234   4.976   5.193
    3OL     C15 6392   0.224   4.761   5.192
    3OL     H5R 6393   0.122   4.767   5.155
    3OL     H5S 6394   0.226   4.675   5.259
    3OL     C16 6395   0.318   4.728   5.075
    3OL     H6R 6396   0.308   4.621   5.055
    3OL     H6S 6397   0.421   4.742   5.111
    3OL     C17 6398   0.292   4.825   4.959
    3OL     H7R 6399   0.330   4.920   4.998
    3OL     H7S 6400   0.183   4.830   4.945
    3OL     C18 6401   0.373   4.793   4.833
    3OL     H8R 6402   0.336   4.849   4.747
    3OL     H8S 6403   0.376   4.684   4.822
    3OL     C19 6404   0.514   4.844   4.843
    3OL     H9R 6405   0.543   4.871   4.944
    3OL    C110 6406   0.595   4.879   4.744
    3OL    H10R 6407   0.689   4.923   4.779
    3OL    C111 6408   0.568   4.865   4.597
    3OL    H11R 6409   0.616   4.955   4.556
    3OL    H11S 6410   0.460   4.853   4.583
    3OL    C112 6411   0.633   4.739   4.538
    3OL    H12R 6412   0.571   4.650   4.553
    3OL    H12S 6413   0.737   4.721   4.567
    3OL    C113 6414   0.648   4.762   4.387
    3OL    H13R 6415   0.689   4.862   4.375
    3OL    H13S 6416   0.549   4.765   4.341
    3OL    C114 6417   0.734   4.656   4.317
    3OL    H14R 6418   0.666   4.577   4.284
    3OL    H14S 6419   0.813   4.610   4.378
    3OL    C115 6420   0.799   4.718   4.192
    3OL    H15R 6421   0.862   4.802   4.221
    3OL    H15S 6422   0.718   4.758   4.130
    3OL    C116 6423   0.873   4.610   4.112
    3OL    H16R 6424   0.796   4.544   4.073
    3OL    H16S 6425   0.938   4.547   4.172
    3OL    C117 6426   0.956   4.663   3.994
    3OL    H17R 6427   0.902   4.740   3.939
    3OL    H17S 6428   0.974   4.576   3.931
    3OL    C118 6429   1.097   4.709   4.034
    3OL    H18R 6430   1.081   4.765   4.127
    3OL    H18S 6431   1.159   4.761   3.961
    3OL    H18T 6432   1.160   4.624   4.064
    1PA    C116 6433   4.002   5.616   3.496
    1PA    H16R 6434   3.911   5.628   3.437
    1PA    H16S 6435   4.028   5.510   3.507
    1PA    H16T 6436   4.073   5.670   3.433
    1PA    C115 6437   3.994   5.693   3.628
    1PA    H15R 6438   3.957   5.794   3.608
    1PA    H15S 6439   3.920   5.644   3.692
    1PA    C114 6440   4.134   5.683   3.689
    1PA    H14R 6441   4.172   5.580   3.690
    1PA    H14S 6442   4.198   5.749   3.630
    1PA    C113 6443   4.140   5.738   3.832
    1PA    H13R 6444   4.246   5.747   3.860
    1PA    H13S 6445   4.102   5.840   3.836
    1PA    C112 6446   4.072   5.651   3.939
    1PA    H12R 6447   4.075   5.703   4.034
    1PA    H12S 6448   3.966   5.627   3.929
    1PA    C111 6449   4.131   5.510   3.954
    1PA    H11R 6450   4.104   5.456   3.863
    1PA    H11S 6451   4.240   5.521   3.957
    1PA    C110 6452   4.077   5.433   4.076
    1PA    H10R 6453   3.970   5.445   4.093
    1PA    H10S 6454   4.099   5.328   4.058
    1PA     C19 6455   4.145   5.483   4.205
    1PA     H9R 6456   4.137   5.592   4.213
    1PA     H9S 6457   4.097   5.435   4.290
    1PA     C18 6458   4.291   5.439   4.216
    1PA     H8R 6459   4.303   5.333   4.191
    1PA     H8S 6460   4.352   5.488   4.140
    1PA     C17 6461   4.347   5.470   4.355
    1PA     H7R 6462   4.455   5.482   4.355
    1PA     H7S 6463   4.306   5.566   4.388
    1PA     C16 6464   4.312   5.366   4.464
    1PA     H6R 6465   4.244   5.289   4.428
    1PA     H6S 6466   4.404   5.320   4.501
    1PA     C15 6467   4.243   5.435   4.582
    1PA     H5R 6468   4.175   5.514   4.548
    1PA     H5S 6469   4.184   5.367   4.644
    1PA     C14 6470   4.330   5.507   4.685
    1PA     H4R 6471   4.409   5.558   4.628
    1PA     H4S 6472   4.275   5.585   4.739
    1PA     C13 6473   4.393   5.410   4.786
    1PA     H3R 6474   4.324   5.332   4.821
    1PA     H3S 6475   4.468   5.347   4.737
    1PA     C12 6476   4.447   5.491   4.904
    1PA     H2R 6477   4.501   5.578   4.864
    1PA     H2S 6478   4.364   5.525   4.967
    2PC     C11 6479   4.542   5.418   4.995
    2PC     O12 6480   4.559   5.298   5.000
    2PC     O11 6481   4.618   5.505   5.063
    2PC      C1 6482   4.686   5.465   5.183
    2PC      HR 6483   4.622   5.390   5.231
    2PC      HS 6484   4.781   5.418   5.157
    2PC      C2 6485   4.711   5.581   5.280
    2PC      HX 6486   4.773   5.543   5.362
    2PC      C3 6487   4.574   5.635   5.323
    2PC      HA 6488   4.524   5.666   5.231
    2PC      HB 6489   4.510   5.562   5.373
    2PC     O31 6490   4.597   5.747   5.411
    2PC     P31 6491   4.672   5.725   5.551
    2PC     O32 6492   4.825   5.756   5.515
    2PC     C31 6493   4.892   5.877   5.555
    2PC     H1A 6494   4.846   5.965   5.510
    2PC     H1B 6495   4.892   5.884   5.664
    2PC     C32 6496   5.042   5.863   5.522
    2PC     H2A 6497   5.036   5.849   5.414
    2PC     H2B 6498   5.097   5.956   5.536
    2PC     N31 6499   5.118   5.753   5.590
    2PC     C33 6500   5.101   5.768   5.738
    2PC     H3A 6501   5.120   5.868   5.776
    2PC     H3B 6502   4.998   5.737   5.760
    2PC     H3C 6503   5.169   5.699   5.788
    2PC     C34 6504   5.075   5.617   5.544
    2PC     H4A 6505   5.142   5.538   5.579
    2PC     H4B 6506   4.973   5.603   5.579
    2PC     H4C 6507   5.092   5.613   5.437
    2PC     C35 6508   5.262   5.744   5.549
    2PC     H5A 6509   5.300   5.655   5.599
    2PC     H5B 6510   5.311   5.838   5.576
    2PC     H5C 6511   5.260   5.728   5.441
    2PC     O33 6512   4.625   5.825   5.650
    2PC     O34 6513   4.652   5.591   5.612
    2PC     O21 6514   4.771   5.693   5.212
    2PC     C21 6515   4.899   5.677   5.174
    2PC     O22 6516   4.967   5.580   5.202
    3OL     C12 6517   4.942   5.801   5.099
    3OL     H2R 6518   4.955   5.882   5.171
    3OL     H2S 6519   4.855   5.835   5.043
    3OL     C13 6520   5.072   5.770   5.022
    3OL     H3R 6521   5.056   5.684   4.956
    3OL     H3S 6522   5.156   5.740   5.085
    3OL     C14 6523   5.108   5.885   4.928
    3OL     H4R 6524   5.026   5.900   4.858
    3OL     H4S 6525   5.200   5.866   4.871
    3OL     C15 6526   5.127   6.015   5.007
    3OL     H5R 6527   5.201   6.007   5.086
    3OL     H5S 6528   5.029   6.038   5.050
    3OL     C16 6529   5.177   6.127   4.914
    3OL     H6R 6530   5.274   6.110   4.867
    3OL     H6S 6531   5.177   6.212   4.983
    3OL     C17 6532   5.070   6.170   4.813
    3OL     H7R 6533   4.982   6.196   4.873
    3OL     H7S 6534   5.048   6.091   4.742
    3OL     C18 6535   5.117   6.285   4.723
    3OL     H8R 6536   5.216   6.260   4.684
    3OL     H8S 6537   5.126   6.381   4.774
    3OL     C19 6538   5.013   6.307   4.616
    3OL     H9R 6539   4.975   6.217   4.569
    3OL    C110 6540   4.950   6.417   4.577
    3OL    H10R 6541   4.884   6.414   4.491
    3OL    C111 6542   4.980   0.064   4.637
    3OL    H11R 6543   5.030   0.052   4.733
    3OL    H11S 6544   4.894   0.130   4.649
    3OL    C112 6545   5.079   0.143   4.551
    3OL    H12R 6546   5.175   0.092   4.543
    3OL    H12S 6547   5.092   0.240   4.599
    3OL    C113 6548   5.025   0.178   4.411
    3OL    H13R 6549   4.943   0.247   4.429
    3OL    H13S 6550   4.990   0.095   4.350
    3OL    C114 6551   5.121   0.262   4.326
    3OL    H14R 6552   5.218   0.218   4.299
    3OL    H14S 6553   5.145   0.354   4.379
    3OL    C115 6554   5.045   0.301   4.199
    3OL    H15R 6555   5.112   0.368   4.146
    3OL    H15S 6556   4.957   0.356   4.232
    3OL    C116 6557   5.021   0.192   4.093
    3OL    H16R 6558   4.982   0.105   4.146
    3OL    H16S 6559   5.110   0.171   4.034
    3OL    C117 6560   4.910   0.226   3.993
    3OL    H17R 6561   4.941   0.326   3.961
    3OL    H17S 6562   4.814   0.247   4.040
    3OL    C118 6563   4.901   0.123   3.879
    3OL    H18R 6564   4.987   0.140   3.815
    3OL    H18S 6565   4.819   0.144   3.810
    3OL    H18T 6566   4.888   0.023   3.921
    1PA    C116 6567   5.730   2.697   3.877
    1PA    H16R 6568   5.705   2.592   3.890
    1PA    H16S 6569   5.798   2.700   3.791
    1PA    H16T 6570   5.641   2.752   3.846
    1PA    C115 6571   5.792   2.747   4.008
    1PA    H15R 6572   5.889   2.704   4.032
    1PA    H15S 6573   5.807   2.853   3.985
    1PA    C114 6574   5.701   2.731   4.131
    1PA    H14R 6575   5.692   2.625   4.154
    1PA    H14S 6576   5.755   2.771   4.218
    1PA    C113 6577   5.562   2.794   4.112
    1PA    H13R 6578   5.571   2.871   4.036
    1PA    H13S 6579   5.511   2.718   4.053
    1PA    C112 6580   5.484   2.839   4.236
    1PA    H12R 6581   5.376   2.839   4.221
    1PA    H12S 6582   5.493   2.766   4.317
    1PA    C111 6583   5.541   2.970   4.293
    1PA    H11R 6584   5.646   2.952   4.319
    1PA    H11S 6585   5.534   3.054   4.224
    1PA    C110 6586   5.460   3.016   4.416
    1PA    H10R 6587   5.459   3.125   4.421
    1PA    H10S 6588   5.358   2.982   4.398
    1PA     C19 6589   5.522   2.974   4.550
    1PA     H9R 6590   5.524   2.864   4.552
    1PA     H9S 6591   5.623   3.016   4.548
    1PA     C18 6592   5.430   3.032   4.657
    1PA     H8R 6593   5.451   3.139   4.662
    1PA     H8S 6594   5.324   3.025   4.631
    1PA     C17 6595   5.451   2.976   4.798
    1PA     H7R 6596   5.558   2.969   4.820
    1PA     H7S 6597   5.399   3.038   4.871
    1PA     C16 6598   5.373   2.846   4.825
    1PA     H6R 6599   5.267   2.869   4.819
    1PA     H6S 6600   5.402   2.774   4.749
    1PA     C15 6601   5.394   2.797   4.969
    1PA     H5R 6602   5.362   2.695   4.949
    1PA     H5S 6603   5.499   2.797   5.000
    1PA     C14 6604   5.297   2.854   5.073
    1PA     H4R 6605   5.308   2.962   5.083
    1PA     H4S 6606   5.195   2.833   5.042
    1PA     C13 6607   5.340   2.789   5.206
    1PA     H3R 6608   5.355   2.682   5.191
    1PA     H3S 6609   5.438   2.829   5.233
    1PA     C12 6610   5.236   2.816   5.315
    1PA     H2R 6611   5.219   2.923   5.327
    1PA     H2S 6612   5.141   2.767   5.295
    2PC     C11 6613   5.281   2.765   5.450
    2PC     O12 6614   5.203   2.761   5.543
    2PC     O11 6615   5.411   2.733   5.451
    2PC      C1 6616   5.471   2.715   5.581
    2PC      HR 6617   5.579   2.702   5.576
    2PC      HS 6618   5.446   2.803   5.641
    2PC      C2 6619   5.403   2.594   5.647
    2PC      HX 6620   5.298   2.611   5.673
    2PC      C3 6621   5.471   2.557   5.779
    2PC      HA 6622   5.482   2.649   5.838
    2PC      HB 6623   5.425   2.480   5.842
    2PC     O31 6624   5.604   2.506   5.759
    2PC     P31 6625   5.697   2.471   5.884
    2PC     O32 6626   5.816   2.579   5.881
    2PC     C31 6627   5.796   2.721   5.871
    2PC     H1A 6628   5.810   2.759   5.769
    2PC     H1B 6629   5.698   2.752   5.908
    2PC     C32 6630   5.903   2.780   5.964
    2PC     H2A 6631   5.883   2.739   6.062
    2PC     H2B 6632   6.005   2.752   5.937
    2PC     N31 6633   5.909   2.930   5.975
    2PC     C33 6634   5.774   2.993   5.955
    2PC     H3A 6635   5.780   3.101   5.961
    2PC     H3B 6636   5.737   2.965   5.856
    2PC     H3C 6637   5.710   2.966   6.039
    2PC     C34 6638   5.961   2.966   6.111
    2PC     H4A 6639   5.962   3.074   6.122
    2PC     H4B 6640   5.896   2.918   6.184
    2PC     H4C 6641   6.065   2.936   6.130
    2PC     C35 6642   6.001   2.977   5.866
    2PC     H5A 6643   6.035   3.079   5.885
    2PC     H5B 6644   5.946   2.971   5.772
    2PC     H5C 6645   6.083   2.907   5.849
    2PC     O33 6646   5.624   2.493   6.011
    2PC     O34 6647   5.730   2.329   5.905
    2PC     O21 6648   5.409   2.481   5.558
    2PC     C21 6649   5.353   2.362   5.581
    2PC     O22 6650   5.303   2.330   5.687
    3OL     C12 6651   5.339   2.266   5.465
    3OL     H2R 6652   5.441   2.232   5.447
    3OL     H2S 6653   5.307   2.322   5.378
    3OL     C13 6654   5.237   2.154   5.492
    3OL     H3R 6655   5.137   2.197   5.499
    3OL     H3S 6656   5.247   2.102   5.587
    3OL     C14 6657   5.225   2.055   5.375
    3OL     H4R 6658   5.172   1.970   5.418
    3OL     H4S 6659   5.329   2.029   5.353
    3OL     C15 6660   5.143   2.116   5.261
    3OL     H5R 6661   5.183   2.216   5.241
    3OL     H5S 6662   5.036   2.116   5.280
    3OL     C16 6663   5.165   2.046   5.127
    3OL     H6R 6664   5.167   1.937   5.131
    3OL     H6S 6665   5.254   2.085   5.078
    3OL     C17 6666   5.051   2.070   5.026
    3OL     H7R 6667   5.044   2.178   5.013
    3OL     H7S 6668   4.957   2.036   5.071
    3OL     C18 6669   5.080   2.008   4.889
    3OL     H8R 6670   5.170   2.060   4.854
    3OL     H8S 6671   4.997   2.033   4.822
    3OL     C19 6672   5.102   1.859   4.890
    3OL     H9R 6673   5.162   1.817   4.970
    3OL    C110 6674   5.052   1.773   4.803
    3OL    H10R 6675   5.089   1.671   4.815
    3OL    C111 6676   4.979   1.808   4.676
    3OL    H11R 6677   5.054   1.830   4.599
    3OL    H11S 6678   4.911   1.891   4.696
    3OL    C112 6679   4.904   1.685   4.623
    3OL    H12R 6680   4.805   1.685   4.669
    3OL    H12S 6681   4.959   1.592   4.639
    3OL    C113 6682   4.878   1.696   4.473
    3OL    H13R 6683   4.967   1.724   4.416
    3OL    H13S 6684   4.823   1.789   4.458
    3OL    C114 6685   4.813   1.569   4.415
    3OL    H14R 6686   4.733   1.529   4.478
    3OL    H14S 6687   4.888   1.491   4.402
    3OL    C115 6688   4.756   1.588   4.274
    3OL    H15R 6689   4.659   1.639   4.276
    3OL    H15S 6690   4.739   1.489   4.232
    3OL    C116 6691   4.845   1.664   4.175
    3OL    H16R 6692   4.938   1.609   4.159
    3OL    H16S 6693   4.870   1.763   4.213
    3OL    C117 6694   4.779   1.683   4.037
    3OL    H17R 6695   4.720   1.598   4.004
    3OL    H17S 6696   4.851   1.709   3.958
    3OL    C118 6697   4.686   1.803   4.060
    3OL    H18R 6698   4.739   1.889   4.102
    3OL    H18S 6699   4.595   1.784   4.117
    3OL    H18T 6700   4.638   1.822   3.963
    1PA    C116 6701   3.368   0.597   3.310
    1PA    H16R 6702   3.427   0.541   3.238
    1PA    H16S 6703   3.289   0.648   3.254
    1PA    H16T 6704   3.336   0.522   3.381
    1PA    C115 6705   3.464   0.701   3.371
    1PA    H15R 6706   3.554   0.661   3.418
    1PA    H15S 6707   3.493   0.761   3.285
    1PA    C114 6708   3.381   0.793   3.462
    1PA    H14R 6709   3.293   0.823   3.404
    1PA    H14S 6710   3.341   0.730   3.541
    1PA    C113 6711   3.476   0.895   3.526
    1PA    H13R 6712   3.550   0.839   3.586
    1PA    H13S 6713   3.532   0.950   3.450
    1PA    C112 6714   3.402   0.988   3.623
    1PA    H12R 6715   3.468   1.061   3.670
    1PA    H12S 6716   3.321   1.035   3.567
    1PA    C111 6717   3.349   0.900   3.738
    1PA    H11R 6718   3.267   0.839   3.699
    1PA    H11S 6719   3.427   0.831   3.771
    1PA    C110 6720   3.308   0.986   3.858
    1PA    H10R 6721   3.397   1.045   3.881
    1PA    H10S 6722   3.222   1.049   3.834
    1PA     C19 6723   3.275   0.899   3.979
    1PA     H9R 6724   3.181   0.852   3.949
    1PA     H9S 6725   3.345   0.822   4.013
    1PA     C18 6726   3.229   0.974   4.105
    1PA     H8R 6727   3.163   1.055   4.072
    1PA     H8S 6728   3.161   0.914   4.165
    1PA     C17 6729   3.342   1.032   4.192
    1PA     H7R 6730   3.392   0.941   4.226
    1PA     H7S 6731   3.414   1.084   4.128
    1PA     C16 6732   3.291   1.117   4.308
    1PA     H6R 6733   3.376   1.174   4.345
    1PA     H6S 6734   3.216   1.185   4.266
    1PA     C15 6735   3.233   1.033   4.422
    1PA     H5R 6736   3.148   0.974   4.387
    1PA     H5S 6737   3.306   0.962   4.463
    1PA     C14 6738   3.188   1.123   4.538
    1PA     H4R 6739   3.268   1.192   4.567
    1PA     H4S 6740   3.107   1.188   4.504
    1PA     C13 6741   3.132   1.050   4.661
    1PA     H3R 6742   3.038   1.004   4.628
    1PA     H3S 6743   3.199   0.967   4.686
    1PA     C12 6744   3.117   1.150   4.776
    1PA     H2R 6745   3.209   1.167   4.831
    1PA     H2S 6746   3.092   1.249   4.737
    2PC     C11 6747   3.015   1.106   4.879
    2PC     O12 6748   2.921   1.034   4.853
    2PC     O11 6749   3.034   1.161   5.000
    2PC      C1 6750   2.936   1.140   5.102
    2PC      HR 6751   2.839   1.184   5.077
    2PC      HS 6752   2.921   1.032   5.116
    2PC      C2 6753   2.982   1.203   5.235
    2PC      HX 6754   3.069   1.141   5.260
    2PC      C3 6755   2.870   1.198   5.339
    2PC      HA 6756   2.902   1.260   5.424
    2PC      HB 6757   2.775   1.241   5.308
    2PC     O31 6758   2.863   1.060   5.380
    2PC     P31 6759   2.752   0.994   5.474
    2PC     O32 6760   2.850   0.904   5.563
    2PC     C31 6761   2.925   0.978   5.661
    2PC     H1A 6762   2.997   1.042   5.610
    2PC     H1B 6763   2.859   1.025   5.735
    2PC     C32 6764   3.006   0.872   5.737
    2PC     H2A 6765   3.094   0.847   5.678
    2PC     H2B 6766   3.045   0.921   5.827
    2PC     N31 6767   2.945   0.740   5.773
    2PC     C33 6768   2.809   0.769   5.830
    2PC     H3A 6769   2.762   0.672   5.849
    2PC     H3B 6770   2.812   0.828   5.922
    2PC     H3C 6771   2.763   0.826   5.749
    2PC     C34 6772   2.936   0.648   5.655
    2PC     H4A 6773   2.870   0.699   5.585
    2PC     H4B 6774   3.030   0.616   5.610
    2PC     H4C 6775   2.886   0.559   5.693
    2PC     C35 6776   3.024   0.673   5.881
    2PC     H5A 6777   3.115   0.635   5.834
    2PC     H5B 6778   2.966   0.588   5.916
    2PC     H5C 6779   3.052   0.747   5.956
    2PC     O33 6780   2.689   1.095   5.563
    2PC     O34 6781   2.650   0.916   5.401
    2PC     O21 6782   3.017   1.338   5.200
    2PC     C21 6783   3.082   1.413   5.290
    2PC     O22 6784   3.129   1.372   5.394
    3OL     C12 6785   3.086   1.557   5.246
    3OL     H2R 6786   2.987   1.599   5.269
    3OL     H2S 6787   3.075   1.563   5.137
    3OL     C13 6788   3.192   1.645   5.313
    3OL     H3R 6789   3.286   1.601   5.280
    3OL     H3S 6790   3.184   1.658   5.421
    3OL     C14 6791   3.190   1.789   5.258
    3OL     H4R 6792   3.226   1.859   5.333
    3OL     H4S 6793   3.090   1.821   5.228
    3OL     C15 6794   3.263   1.793   5.123
    3OL     H5R 6795   3.216   1.731   5.047
    3OL     H5S 6796   3.366   1.759   5.136
    3OL     C16 6797   3.274   1.942   5.085
    3OL     H6R 6798   3.335   1.987   5.164
    3OL     H6S 6799   3.170   1.975   5.085
    3OL     C17 6800   3.340   1.964   4.949
    3OL     H7R 6801   3.288   1.907   4.872
    3OL     H7S 6802   3.446   1.940   4.951
    3OL     C18 6803   3.342   2.115   4.918
    3OL     H8R 6804   3.408   2.163   4.989
    3OL     H8S 6805   3.241   2.148   4.943
    3OL     C19 6806   3.372   2.145   4.773
    3OL     H9R 6807   3.469   2.191   4.752
    3OL    C110 6808   3.281   2.147   4.677
    3OL    H10R 6809   3.309   2.197   4.585
    3OL    C111 6810   3.138   2.098   4.681
    3OL    H11R 6811   3.085   2.193   4.670
    3OL    H11S 6812   3.113   2.048   4.775
    3OL    C112 6813   3.099   2.021   4.555
    3OL    H12R 6814   3.172   1.941   4.542
    3OL    H12S 6815   3.104   2.088   4.469
    3OL    C113 6816   2.959   1.957   4.562
    3OL    H13R 6817   2.962   1.862   4.617
    3OL    H13S 6818   2.943   1.936   4.456
    3OL    C114 6819   2.852   2.048   4.623
    3OL    H14R 6820   2.865   2.153   4.596
    3OL    H14S 6821   2.851   2.041   4.732
    3OL    C115 6822   2.720   1.984   4.579
    3OL    H15R 6823   2.719   1.875   4.586
    3OL    H15S 6824   2.711   2.001   4.472
    3OL    C116 6825   2.608   2.054   4.658
    3OL    H16R 6826   2.604   2.161   4.636
    3OL    H16S 6827   2.615   2.043   4.766
    3OL    C117 6828   2.481   1.985   4.606
    3OL    H17R 6829   2.475   1.878   4.629
    3OL    H17S 6830   2.480   2.000   4.498
    3OL    C118 6831   2.354   2.051   4.662
    3OL    H18R 6832   2.353   2.057   4.771
    3OL    H18S 6833   2.262   2.004   4.628
    3OL    H18T 6834   2.359   2.155   4.630
    1PA    C116 6835   2.491   5.374   4.316
    1PA    H16R 6836   2.454   5.407   4.414
    1PA    H16S 6837   2.401   5.344   4.261
    1PA    H16T 6838   2.533   5.462   4.268
    1PA    C115 6839   2.585   5.254   4.312
    1PA    H15R 6840   2.660   5.273   4.389
    1PA    H15S 6841   2.522   5.166   4.327
    1PA    C114 6842   2.657   5.229   4.178
    1PA    H14R 6843   2.593   5.180   4.104
    1PA    H14S 6844   2.677   5.329   4.139
    1PA    C113 6845   2.790   5.155   4.197
    1PA    H13R 6846   2.832   5.166   4.097
    1PA    H13S 6847   2.854   5.212   4.265
    1PA    C112 6848   2.767   5.007   4.227
    1PA    H12R 6849   2.723   4.989   4.325
    1PA    H12S 6850   2.711   4.954   4.150
    1PA    C111 6851   2.902   4.935   4.242
    1PA    H11R 6852   2.943   4.937   4.140
    1PA    H11S 6853   2.967   4.997   4.302
    1PA    C110 6854   2.883   4.797   4.306
    1PA    H10R 6855   2.794   4.744   4.269
    1PA    H10S 6856   2.962   4.729   4.274
    1PA     C19 6857   2.889   4.798   4.459
    1PA     H9R 6858   2.835   4.878   4.511
    1PA     H9S 6859   2.841   4.713   4.507
    1PA     C18 6860   3.037   4.800   4.503
    1PA     H8R 6861   3.078   4.719   4.443
    1PA     H8S 6862   3.089   4.890   4.470
    1PA     C17 6863   3.059   4.777   4.653
    1PA     H7R 6864   3.154   4.829   4.671
    1PA     H7S 6865   2.994   4.834   4.719
    1PA     C16 6866   3.061   4.629   4.696
    1PA     H6R 6867   3.035   4.612   4.800
    1PA     H6S 6868   2.987   4.576   4.636
    1PA     C15 6869   3.194   4.557   4.668
    1PA     H5R 6870   3.211   4.560   4.560
    1PA     H5S 6871   3.262   4.620   4.726
    1PA     C14 6872   3.204   4.412   4.716
    1PA     H4R 6873   3.125   4.353   4.669
    1PA     H4S 6874   3.297   4.365   4.682
    1PA     C13 6875   3.197   4.381   4.866
    1PA     H3R 6876   3.277   4.438   4.912
    1PA     H3S 6877   3.104   4.415   4.913
    1PA     C12 6878   3.210   4.230   4.891
    1PA     H2R 6879   3.121   4.181   4.852
    1PA     H2S 6880   3.294   4.186   4.836
    2PC     C11 6881   3.206   4.184   5.034
    2PC     O12 6882   3.285   4.228   5.115
    2PC     O11 6883   3.101   4.105   5.062
    2PC      C1 6884   3.097   4.049   5.194
    2PC      HR 6885   3.180   3.981   5.219
    2PC      HS 6886   3.094   4.130   5.268
    2PC      C2 6887   2.961   3.979   5.195
    2PC      HX 6888   2.895   4.057   5.157
    2PC      C3 6889   2.907   3.951   5.336
    2PC      HA 6890   2.980   3.914   5.408
    2PC      HB 6891   2.885   4.049   5.378
    2PC     O31 6892   2.799   3.857   5.343
    2PC     P31 6893   2.740   3.849   5.492
    2PC     O32 6894   2.587   3.802   5.480
    2PC     C31 6895   2.555   3.662   5.468
    2PC     H1A 6896   2.590   3.623   5.373
    2PC     H1B 6897   2.599   3.596   5.543
    2PC     C32 6898   2.402   3.648   5.476
    2PC     H2A 6899   2.371   3.663   5.580
    2PC     H2B 6900   2.358   3.734   5.426
    2PC     N31 6901   2.335   3.525   5.425
    2PC     C33 6902   2.358   3.409   5.517
    2PC     H3A 6903   2.324   3.441   5.615
    2PC     H3B 6904   2.303   3.323   5.478
    2PC     H3C 6905   2.464   3.392   5.498
    2PC     C34 6906   2.189   3.559   5.430
    2PC     H4A 6907   2.138   3.466   5.402
    2PC     H4B 6908   2.167   3.587   5.533
    2PC     H4C 6909   2.171   3.634   5.353
    2PC     C35 6910   2.375   3.488   5.285
    2PC     H5A 6911   2.359   3.573   5.218
    2PC     H5B 6912   2.320   3.400   5.252
    2PC     H5C 6913   2.481   3.466   5.295
    2PC     O33 6914   2.814   3.760   5.585
    2PC     O34 6915   2.734   3.974   5.571
    2PC     O21 6916   2.961   3.863   5.111
    2PC     C21 6917   3.013   3.745   5.150
    2PC     O22 6918   3.074   3.731   5.254
    3OL     C12 6919   2.987   3.642   5.043
    3OL     H2R 6920   3.073   3.576   5.034
    3OL     H2S 6921   2.977   3.681   4.941
    3OL     C13 6922   2.848   3.588   5.080
    3OL     H3R 6923   2.779   3.670   5.061
    3OL     H3S 6924   2.846   3.546   5.180
    3OL     C14 6925   2.816   3.473   4.983
    3OL     H4R 6926   2.891   3.397   5.007
    3OL     H4S 6927   2.851   3.515   4.889
    3OL     C15 6928   2.673   3.421   4.998
    3OL     H5R 6929   2.599   3.499   5.016
    3OL     H5S 6930   2.666   3.358   5.087
    3OL     C16 6931   2.629   3.330   4.882
    3OL     H6R 6932   2.565   3.252   4.925
    3OL     H6S 6933   2.719   3.281   4.843
    3OL     C17 6934   2.561   3.415   4.774
    3OL     H7R 6935   2.605   3.515   4.765
    3OL     H7S 6936   2.456   3.421   4.802
    3OL     C18 6937   2.567   3.353   4.634
    3OL     H8R 6938   2.550   3.245   4.637
    3OL     H8S 6939   2.653   3.388   4.577
    3OL     C19 6940   2.447   3.405   4.558
    3OL     H9R 6941   2.358   3.427   4.615
    3OL    C110 6942   2.455   3.421   4.427
    3OL    H10R 6943   2.368   3.469   4.384
    3OL    C111 6944   2.558   3.351   4.343
    3OL    H11R 6945   2.579   3.258   4.396
    3OL    H11S 6946   2.646   3.415   4.334
    3OL    C112 6947   2.510   3.320   4.200
    3OL    H12R 6948   2.520   3.411   4.141
    3OL    H12S 6949   2.403   3.298   4.204
    3OL    C113 6950   2.580   3.201   4.133
    3OL    H13R 6951   2.548   3.109   4.182
    3OL    H13S 6952   2.686   3.207   4.158
    3OL    C114 6953   2.563   3.201   3.980
    3OL    H14R 6954   2.596   3.297   3.939
    3OL    H14S 6955   2.459   3.194   3.948
    3OL    C115 6956   2.636   3.086   3.910
    3OL    H15R 6957   2.590   2.997   3.955
    3OL    H15S 6958   2.742   3.098   3.930
    3OL    C116 6959   2.618   3.096   3.758
    3OL    H16R 6960   2.658   3.192   3.724
    3OL    H16S 6961   2.510   3.095   3.738
    3OL    C117 6962   2.703   2.984   3.697
    3OL    H17R 6963   2.667   2.889   3.739
    3OL    H17S 6964   2.808   3.007   3.717
    3OL    C118 6965   2.682   2.985   3.545
    3OL    H18R 6966   2.734   2.894   3.511
    3OL    H18S 6967   2.733   3.071   3.503
    3OL    H18T 6968   2.574   2.994   3.534
    1PA    C116 6969   3.743   0.079   3.698
    1PA    H16R 6970   3.689   0.157   3.643
    1PA    H16S 6971   3.781   0.010   3.623
    1PA    H16T 6972   3.822   0.131   3.752
    1PA    C115 6973   3.661   0.013   3.810
    1PA    H15R 6974   3.614   0.087   3.875
    1PA    H15S 6975   3.581   6.452   3.755
    1PA    C114 6976   3.738   6.397   3.891
    1PA    H14R 6977   3.773   6.318   3.824
    1PA    H14S 6978   3.828   6.431   3.944
    1PA    C113 6979   3.640   6.341   3.995
    1PA    H13R 6980   3.549   6.313   3.941
    1PA    H13S 6981   3.687   6.251   4.035
    1PA    C112 6982   3.617   6.447   4.103
    1PA    H12R 6983   3.704   6.480   4.160
    1PA    H12S 6984   3.575   0.048   4.056
    1PA    C111 6985   3.516   6.405   4.210
    1PA    H11R 6986   3.417   6.374   4.176
    1PA    H11S 6987   3.551   6.311   4.254
    1PA    C110 6988   3.507   0.029   4.314
    1PA    H10R 6989   3.544   0.120   4.267
    1PA    H10S 6990   3.403   0.049   4.340
    1PA     C19 6991   3.598   6.484   4.434
    1PA     H9R 6992   3.589   6.384   4.475
    1PA     H9S 6993   3.703   0.005   4.406
    1PA     C18 6994   3.566   0.095   4.547
    1PA     H8R 6995   3.574   0.197   4.509
    1PA     H8S 6996   3.468   0.068   4.587
    1PA     C17 6997   3.666   0.065   4.659
    1PA     H7R 6998   3.650   6.448   4.683
    1PA     H7S 6999   3.768   0.077   4.621
    1PA     C16 7000   3.632   0.147   4.783
    1PA     H6R 7001   3.642   0.254   4.761
    1PA     H6S 7002   3.535   0.115   4.824
    1PA     C15 7003   3.744   0.118   4.883
    1PA     H5R 7004   3.751   0.011   4.902
    1PA     H5S 7005   3.839   0.150   4.840
    1PA     C14 7006   3.711   0.191   5.014
    1PA     H4R 7007   3.690   0.295   4.990
    1PA     H4S 7008   3.616   0.160   5.058
    1PA     C13 7009   3.827   0.175   5.113
    1PA     H3R 7010   3.834   0.067   5.131
    1PA     H3S 7011   3.917   0.222   5.073
    1PA     C12 7012   3.780   0.244   5.242
    1PA     H2R 7013   3.761   0.348   5.214
    1PA     H2S 7014   3.681   0.206   5.269
    2PC     C11 7015   3.873   0.227   5.359
    2PC     O12 7016   3.850   0.147   5.447
    2PC     O11 7017   3.970   0.319   5.356
    2PC      C1 7018   4.081   0.319   5.448
    2PC      HR 7019   4.141   0.410   5.447
    2PC      HS 7020   4.043   0.316   5.551
    2PC      C2 7021   4.166   0.193   5.428
    2PC      HX 7022   4.098   0.107   5.435
    2PC      C3 7023   4.284   0.187   5.526
    2PC      HA 7024   4.348   0.105   5.492
    2PC      HB 7025   4.341   0.279   5.512
    2PC     O31 7026   4.219   0.158   5.652
    2PC     P31 7027   4.300   0.157   5.790
    2PC     O32 7028   4.372   0.299   5.809
    2PC     C31 7029   4.300   0.424   5.816
    2PC     H1A 7030   4.262   0.451   5.717
    2PC     H1B 7031   4.213   0.422   5.881
    2PC     C32 7032   4.389   0.536   5.872
    2PC     H2A 7033   4.474   0.564   5.810
    2PC     H2B 7034   4.321   0.621   5.868
    2PC     N31 7035   4.440   0.522   6.012
    2PC     C33 7036   4.469   0.659   6.064
    2PC     H3A 7037   4.377   0.717   6.060
    2PC     H3B 7038   4.497   0.647   6.169
    2PC     H3C 7039   4.548   0.698   5.998
    2PC     C34 7040   4.333   0.466   6.101
    2PC     H4A 7041   4.359   0.491   6.204
    2PC     H4B 7042   4.241   0.513   6.067
    2PC     H4C 7043   4.323   0.359   6.083
    2PC     C35 7044   4.569   0.446   6.027
    2PC     H5A 7045   4.554   0.348   5.980
    2PC     H5B 7046   4.602   0.450   6.131
    2PC     H5C 7047   4.641   0.489   5.957
    2PC     O33 7048   4.214   0.117   5.903
    2PC     O34 7049   4.402   0.049   5.802
    2PC     O21 7050   4.239   0.219   5.307
    2PC     C21 7051   4.208   0.143   5.200
    2PC     O22 7052   4.139   0.043   5.208
    3OL     C12 7053   4.284   0.185   5.077
    3OL     H2R 7054   4.385   0.152   5.102
    3OL     H2S 7055   4.294   0.293   5.070
    3OL     C13 7056   4.245   0.108   4.949
    3OL     H3R 7057   4.136   0.105   4.942
    3OL     H3S 7058   4.281   0.006   4.962
    3OL     C14 7059   4.319   0.162   4.826
    3OL     H4R 7060   4.421   0.123   4.821
    3OL     H4S 7061   4.321   0.271   4.826
    3OL     C15 7062   4.248   0.125   4.695
    3OL     H5R 7063   4.145   0.162   4.688
    3OL     H5S 7064   4.245   0.016   4.703
    3OL     C16 7065   4.327   0.174   4.573
    3OL     H6R 7066   4.435   0.166   4.585
    3OL     H6S 7067   4.304   0.280   4.567
    3OL     C17 7068   4.272   0.098   4.451
    3OL     H7R 7069   4.286   0.158   4.361
    3OL     H7S 7070   4.166   0.074   4.464
    3OL     C18 7071   4.343   6.451   4.442
    3OL     H8R 7072   4.318   6.382   4.524
    3OL     H8S 7073   4.449   6.458   4.467
    3OL     C19 7074   4.303   6.384   4.313
    3OL     H9R 7075   4.196   6.371   4.299
    3OL    C110 7076   4.380   6.363   4.208
    3OL    H10R 7077   4.340   6.314   4.119
    3OL    C111 7078   4.522   6.409   4.187
    3OL    H11R 7079   4.558   0.002   4.251
    3OL    H11S 7080   4.541   6.444   4.086
    3OL    C112 7081   4.611   6.284   4.191
    3OL    H12R 7082   4.582   6.216   4.110
    3OL    H12S 7083   4.576   6.224   4.276
    3OL    C113 7084   4.756   6.333   4.190
    3OL    H13R 7085   4.770   6.393   4.281
    3OL    H13S 7086   4.779   6.395   4.103
    3OL    C114 7087   4.859   6.220   4.199
    3OL    H14R 7088   4.844   6.157   4.111
    3OL    H14S 7089   4.830   6.156   4.283
    3OL    C115 7090   5.003   6.273   4.205
    3OL    H15R 7091   5.011   6.349   4.283
    3OL    H15S 7092   5.038   6.324   4.116
    3OL    C116 7093   5.108   6.164   4.234
    3OL    H16R 7094   5.099   6.100   4.146
    3OL    H16S 7095   5.082   6.108   4.325
    3OL    C117 7096   5.254   6.211   4.229
    3OL    H17R 7097   5.263   6.283   4.147
    3OL    H17S 7098   5.318   6.129   4.196
    3OL    C118 7099   5.300   6.294   4.349
    3OL    H18R 7100   5.397   6.343   4.331
    3OL    H18S 7101   5.323   6.231   4.435
    3OL    H18T 7102   5.229   6.375   4.364
    1PA    C116 7103   4.505   3.716   4.210
    1PA    H16R 7104   4.610   3.686   4.222
    1PA    H16S 7105   4.486   3.769   4.117
    1PA    H16T 7106   4.439   3.629   4.209
    1PA    C115 7107   4.463   3.811   4.323
    1PA    H15R 7108   4.359   3.841   4.307
    1PA    H15S 7109   4.478   3.748   4.411
    1PA    C114 7110   4.537   3.944   4.338
    1PA    H14R 7111   4.496   4.002   4.422
    1PA    H14S 7112   4.644   3.926   4.352
    1PA    C113 7113   4.519   4.031   4.213
    1PA    H13R 7114   4.574   4.124   4.227
    1PA    H13S 7115   4.575   3.977   4.136
    1PA    C112 7116   4.380   4.060   4.153
    1PA    H12R 7117   4.391   4.103   4.054
    1PA    H12S 7118   4.322   3.968   4.144
    1PA    C111 7119   4.300   4.152   4.246
    1PA    H11R 7120   4.269   4.092   4.332
    1PA    H11S 7121   4.371   4.219   4.295
    1PA    C110 7122   4.181   4.221   4.177
    1PA    H10R 7123   4.207   4.270   4.083
    1PA    H10S 7124   4.101   4.148   4.163
    1PA     C19 7125   4.113   4.326   4.265
    1PA     H9R 7126   4.027   4.357   4.206
    1PA     H9S 7127   4.075   4.281   4.357
    1PA     C18 7128   4.205   4.447   4.288
    1PA     H8R 7129   4.305   4.424   4.327
    1PA     H8S 7130   4.220   4.497   4.192
    1PA     C17 7131   4.141   4.552   4.380
    1PA     H7R 7132   4.210   4.631   4.410
    1PA     H7S 7133   4.052   4.583   4.325
    1PA     C16 7134   4.072   4.503   4.508
    1PA     H6R 7135   3.985   4.440   4.486
    1PA     H6S 7136   4.146   4.440   4.557
    1PA     C15 7137   4.033   4.622   4.596
    1PA     H5R 7138   4.128   4.672   4.616
    1PA     H5S 7139   3.969   4.697   4.550
    1PA     C14 7140   3.972   4.567   4.726
    1PA     H4R 7141   3.934   4.643   4.793
    1PA     H4S 7142   3.898   4.488   4.713
    1PA     C13 7143   4.074   4.496   4.816
    1PA     H3R 7144   4.140   4.434   4.754
    1PA     H3S 7145   4.142   4.560   4.872
    1PA     C12 7146   3.997   4.418   4.924
    1PA     H2R 7147   3.946   4.489   4.989
    1PA     H2S 7148   3.924   4.349   4.883
    2PC     C11 7149   4.094   4.353   5.019
    2PC     O12 7150   4.121   4.234   5.010
    2PC     O11 7151   4.140   4.442   5.108
    2PC      C1 7152   4.242   4.400   5.200
    2PC      HR 7153   4.196   4.321   5.260
    2PC      HS 7154   4.325   4.347   5.153
    2PC      C2 7155   4.285   4.521   5.285
    2PC      HX 7156   4.349   4.475   5.362
    2PC      C3 7157   4.167   4.588   5.356
    2PC      HA 7158   4.116   4.641   5.275
    2PC      HB 7159   4.102   4.514   5.403
    2PC     O31 7160   4.218   4.678   5.455
    2PC     P31 7161   4.127   4.794   5.518
    2PC     O32 7162   4.132   4.905   5.403
    2PC     C31 7163   4.209   5.023   5.431
    2PC     H1A 7164   4.171   5.104   5.367
    2PC     H1B 7165   4.211   5.046   5.538
    2PC     C32 7166   4.360   5.018   5.401
    2PC     H2A 7167   4.413   4.943   5.459
    2PC     H2B 7168   4.368   4.975   5.302
    2PC     N31 7169   4.442   5.144   5.399
    2PC     C33 7170   4.392   5.244   5.299
    2PC     H3A 7171   4.288   5.268   5.320
    2PC     H3B 7172   4.459   5.329   5.309
    2PC     H3C 7173   4.406   5.203   5.199
    2PC     C34 7174   4.436   5.202   5.537
    2PC     H4A 7175   4.440   5.124   5.613
    2PC     H4B 7176   4.501   5.288   5.554
    2PC     H4C 7177   4.336   5.246   5.538
    2PC     C35 7178   4.582   5.108   5.360
    2PC     H5A 7179   4.568   5.067   5.260
    2PC     H5B 7180   4.619   5.033   5.429
    2PC     H5C 7181   4.644   5.197   5.348
    2PC     O33 7182   3.992   4.741   5.550
    2PC     O34 7183   4.172   4.837   5.653
    2PC     O21 7184   4.352   4.614   5.199
    2PC     C21 7185   4.477   4.584   5.160
    2PC     O22 7186   4.541   4.490   5.204
    3OL     C12 7187   4.518   4.658   5.035
    3OL     H2R 7188   4.625   4.669   5.019
    3OL     H2S 7189   4.490   4.763   5.047
    3OL     C13 7190   4.452   4.593   4.913
    3OL     H3R 7191   4.346   4.573   4.929
    3OL     H3S 7192   4.512   4.503   4.897
    3OL     C14 7193   4.462   4.699   4.802
    3OL     H4R 7194   4.561   4.744   4.811
    3OL     H4S 7195   4.392   4.778   4.829
    3OL     C15 7196   4.436   4.652   4.658
    3OL     H5R 7197   4.407   4.728   4.585
    3OL     H5S 7198   4.352   4.583   4.664
    3OL     C16 7199   4.568   4.590   4.610
    3OL     H6R 7200   4.593   4.510   4.680
    3OL     H6S 7201   4.644   4.668   4.607
    3OL     C17 7202   4.565   4.524   4.471
    3OL     H7R 7203   4.557   4.608   4.402
    3OL     H7S 7204   4.481   4.457   4.452
    3OL     C18 7205   4.694   4.446   4.441
    3OL     H8R 7206   4.715   4.368   4.514
    3OL     H8S 7207   4.779   4.514   4.436
    3OL     C19 7208   4.678   4.375   4.308
    3OL     H9R 7209   4.590   4.395   4.247
    3OL    C110 7210   4.767   4.284   4.274
    3OL    H10R 7211   4.750   4.232   4.180
    3OL    C111 7212   4.898   4.260   4.345
    3OL    H11R 7213   4.927   4.158   4.319
    3OL    H11S 7214   4.893   4.245   4.453
    3OL    C112 7215   5.015   4.350   4.305
    3OL    H12R 7216   4.979   4.453   4.305
    3OL    H12S 7217   5.044   4.338   4.200
    3OL    C113 7218   5.134   4.335   4.401
    3OL    H13R 7219   5.176   4.236   4.419
    3OL    H13S 7220   5.103   4.381   4.495
    3OL    C114 7221   5.247   4.420   4.342
    3OL    H14R 7222   5.206   4.511   4.299
    3OL    H14S 7223   5.283   4.361   4.257
    3OL    C115 7224   5.353   4.450   4.448
    3OL    H15R 7225   5.401   4.356   4.476
    3OL    H15S 7226   5.309   4.497   4.536
    3OL    C116 7227   5.460   4.550   4.401
    3OL    H16R 7228   5.515   4.571   4.493
    3OL    H16S 7229   5.421   4.639   4.353
    3OL    C117 7230   5.553   4.473   4.305
    3OL    H17R 7231   5.506   4.437   4.213
    3OL    H17S 7232   5.580   4.376   4.350
    3OL    C118 7233   5.676   4.560   4.276
    3OL    H18R 7234   5.642   4.635   4.205
    3OL    H18S 7235   5.761   4.505   4.235
    3OL    H18T 7236   5.712   4.629   4.353
    1PA    C116 7237   3.154   4.464   4.247
    1PA    H16R 7238   3.230   4.499   4.316
    1PA    H16S 7239   3.097   4.555   4.225
    1PA    H16T 7240   3.202   4.436   4.153
    1PA    C115 7241   3.080   4.348   4.313
    1PA    H15R 7242   3.141   4.262   4.341
    1PA    H15S 7243   3.024   4.388   4.398
    1PA    C114 7244   2.968   4.300   4.219
    1PA    H14R 7245   2.906   4.387   4.196
    1PA    H14S 7246   3.016   4.259   4.130
    1PA    C113 7247   2.883   4.191   4.285
    1PA    H13R 7248   2.949   4.126   4.343
    1PA    H13S 7249   2.812   4.245   4.348
    1PA    C112 7250   2.803   4.120   4.175
    1PA    H12R 7251   2.746   4.186   4.110
    1PA    H12S 7252   2.862   4.059   4.106
    1PA    C111 7253   2.698   4.027   4.238
    1PA    H11R 7254   2.651   3.971   4.156
    1PA    H11S 7255   2.753   3.969   4.313
    1PA    C110 7256   2.592   4.107   4.314
    1PA    H10R 7257   2.625   4.147   4.410
    1PA    H10S 7258   2.568   4.191   4.249
    1PA     C19 7259   2.477   4.013   4.354
    1PA     H9R 7260   2.440   3.968   4.262
    1PA     H9S 7261   2.522   3.947   4.429
    1PA     C18 7262   2.378   4.093   4.440
    1PA     H8R 7263   2.430   4.121   4.533
    1PA     H8S 7264   2.350   4.180   4.381
    1PA     C17 7265   2.251   4.016   4.479
    1PA     H7R 7266   2.205   3.991   4.383
    1PA     H7S 7267   2.289   3.930   4.535
    1PA     C16 7268   2.154   4.100   4.562
    1PA     H6R 7269   2.136   4.198   4.519
    1PA     H6S 7270   2.056   4.051   4.566
    1PA     C15 7271   2.193   4.115   4.710
    1PA     H5R 7272   2.146   4.031   4.760
    1PA     H5S 7273   2.302   4.108   4.721
    1PA     C14 7274   2.140   4.246   4.771
    1PA     H4R 7275   2.185   4.331   4.720
    1PA     H4S 7276   2.034   4.252   4.743
    1PA     C13 7277   2.163   4.258   4.922
    1PA     H3R 7278   2.097   4.342   4.943
    1PA     H3S 7279   2.114   4.175   4.974
    1PA     C12 7280   2.312   4.284   4.949
    1PA     H2R 7281   2.361   4.187   4.953
    1PA     H2S 7282   2.364   4.332   4.865
    2PC     C11 7283   2.338   4.347   5.084
    2PC     O12 7284   2.268   4.332   5.182
    2PC     O11 7285   2.442   4.431   5.079
    2PC      C1 7286   2.481   4.509   5.193
    2PC      HR 7287   2.419   4.598   5.207
    2PC      HS 7288   2.488   4.443   5.280
    2PC      C2 7289   2.624   4.557   5.167
    2PC      HX 7290   2.683   4.470   5.135
    2PC      C3 7291   2.689   4.615   5.293
    2PC      HA 7292   2.702   4.530   5.360
    2PC      HB 7293   2.771   4.685   5.274
    2PC     O31 7294   2.592   4.697   5.360
    2PC     P31 7295   2.617   4.754   5.507
    2PC     O32 7296   2.544   4.633   5.582
    2PC     C31 7297   2.400   4.623   5.580
    2PC     H1A 7298   2.359   4.719   5.611
    2PC     H1B 7299   2.369   4.600   5.477
    2PC     C32 7300   2.367   4.508   5.676
    2PC     H2A 7301   2.426   4.531   5.765
    2PC     H2B 7302   2.262   4.510   5.706
    2PC     N31 7303   2.401   4.365   5.646
    2PC     C33 7304   2.547   4.349   5.616
    2PC     H3A 7305   2.566   4.387   5.516
    2PC     H3B 7306   2.602   4.403   5.693
    2PC     H3C 7307   2.582   4.247   5.631
    2PC     C34 7308   2.351   4.282   5.761
    2PC     H4A 7309   2.409   4.299   5.851
    2PC     H4B 7310   2.247   4.316   5.765
    2PC     H4C 7311   2.370   4.178   5.735
    2PC     C35 7312   2.326   4.320   5.525
    2PC     H5A 7313   2.362   4.379   5.440
    2PC     H5B 7314   2.219   4.342   5.530
    2PC     H5C 7315   2.352   4.218   5.499
    2PC     O33 7316   2.762   4.769   5.534
    2PC     O34 7317   2.545   4.880   5.536
    2PC     O21 7318   2.626   4.656   5.063
    2PC     C21 7319   2.721   4.656   4.968
    2PC     O22 7320   2.810   4.573   4.960
    3OL     C12 7321   2.725   4.784   4.889
    3OL     H2R 7322   2.819   4.797   4.834
    3OL     H2S 7323   2.721   4.871   4.954
    3OL     C13 7324   2.601   4.774   4.799
    3OL     H3R 7325   2.512   4.757   4.860
    3OL     H3S 7326   2.603   4.681   4.741
    3OL     C14 7327   2.575   4.894   4.708
    3OL     H4R 7328   2.662   4.896   4.642
    3OL     H4S 7329   2.583   4.985   4.768
    3OL     C15 7330   2.437   4.874   4.644
    3OL     H5R 7331   2.360   4.867   4.721
    3OL     H5S 7332   2.426   4.786   4.581
    3OL     C16 7333   2.407   4.997   4.558
    3OL     H6R 7334   2.477   5.003   4.474
    3OL     H6S 7335   2.399   5.090   4.615
    3OL     C17 7336   2.271   4.965   4.493
    3OL     H7R 7337   2.194   4.962   4.570
    3OL     H7S 7338   2.267   4.874   4.433
    3OL     C18 7339   2.225   5.073   4.394
    3OL     H8R 7340   2.283   5.068   4.301
    3OL     H8S 7341   2.250   5.171   4.435
    3OL     C19 7342   2.081   5.058   4.352
    3OL     H9R 7343   2.062   4.956   4.318
    3OL    C110 7344   1.986   5.148   4.331
    3OL    H10R 7345   1.898   5.121   4.273
    3OL    C111 7346   2.006   5.295   4.357
    3OL    H11R 7347   2.109   5.319   4.328
    3OL    H11S 7348   1.989   5.322   4.462
    3OL    C112 7349   1.904   5.375   4.275
    3OL    H12R 7350   1.799   5.360   4.302
    3OL    H12S 7351   1.898   5.340   4.171
    3OL    C113 7352   1.955   5.519   4.263
    3OL    H13R 7353   2.053   5.510   4.216
    3OL    H13S 7354   1.984   5.562   4.359
    3OL    C114 7355   1.869   5.598   4.164
    3OL    H14R 7356   1.855   5.534   4.077
    3OL    H14S 7357   1.923   5.687   4.130
    3OL    C115 7358   1.734   5.642   4.222
    3OL    H15R 7359   1.758   5.692   4.316
    3OL    H15S 7360   1.674   5.554   4.245
    3OL    C116 7361   1.653   5.731   4.127
    3OL    H16R 7362   1.634   5.691   4.027
    3OL    H16S 7363   1.715   5.819   4.107
    3OL    C117 7364   1.522   5.772   4.195
    3OL    H17R 7365   1.468   5.680   4.217
    3OL    H17S 7366   1.460   5.824   4.122
    3OL    C118 7367   1.546   5.853   4.324
    3OL    H18R 7368   1.562   5.957   4.296
    3OL    H18S 7369   1.616   5.815   4.398
    3OL    H18T 7370   1.455   5.871   4.382
    1PA    C116 7371   4.898   3.653   4.212
    1PA    H16R 7372   4.986   3.648   4.148
    1PA    H16S 7373   4.808   3.679   4.156
    1PA    H16T 7374   4.896   3.559   4.267
    1PA    C115 7375   4.903   3.770   4.312
    1PA    H15R 7376   4.911   3.864   4.257
    1PA    H15S 7377   4.806   3.789   4.358
    1PA    C114 7378   5.003   3.758   4.427
    1PA    H14R 7379   5.005   3.661   4.478
    1PA    H14S 7380   5.091   3.759   4.362
    1PA    C113 7381   4.998   3.876   4.526
    1PA    H13R 7382   5.020   3.963   4.465
    1PA    H13S 7383   4.896   3.897   4.559
    1PA    C112 7384   5.092   3.870   4.647
    1PA    H12R 7385   5.055   3.945   4.717
    1PA    H12S 7386   5.074   3.771   4.690
    1PA    C111 7387   5.235   3.905   4.603
    1PA    H11R 7388   5.279   3.829   4.538
    1PA    H11S 7389   5.247   3.995   4.543
    1PA    C110 7390   5.335   3.906   4.719
    1PA    H10R 7391   5.324   3.811   4.772
    1PA    H10S 7392   5.434   3.914   4.673
    1PA     C19 7393   5.314   4.012   4.828
    1PA     H9R 7394   5.208   4.013   4.853
    1PA     H9S 7395   5.365   3.985   4.920
    1PA     C18 7396   5.368   4.148   4.779
    1PA     H8R 7397   5.472   4.137   4.749
    1PA     H8S 7398   5.307   4.175   4.692
    1PA     C17 7399   5.351   4.248   4.894
    1PA     H7R 7400   5.249   4.267   4.928
    1PA     H7S 7401   5.389   4.206   4.987
    1PA     C16 7402   5.426   4.377   4.860
    1PA     H6R 7403   5.528   4.361   4.826
    1PA     H6S 7404   5.366   4.437   4.791
    1PA     C15 7405   5.438   4.467   4.984
    1PA     H5R 7406   5.494   4.427   5.069
    1PA     H5S 7407   5.496   4.555   4.956
    1PA     C14 7408   5.300   4.508   5.038
    1PA     H4R 7409   5.249   4.550   4.951
    1PA     H4S 7410   5.238   4.429   5.080
    1PA     C13 7411   5.311   4.621   5.141
    1PA     H3R 7412   5.365   4.588   5.230
    1PA     H3S 7413   5.345   4.712   5.091
    1PA     C12 7414   5.166   4.649   5.183
    1PA     H2R 7415   5.108   4.697   5.104
    1PA     H2S 7416   5.114   4.556   5.204
    2PC     C11 7417   5.156   4.742   5.302
    2PC     O12 7418   5.252   4.790   5.359
    2PC     O11 7419   5.028   4.754   5.343
    2PC      C1 7420   4.994   4.851   5.443
    2PC      HR 7421   4.892   4.825   5.474
    2PC      HS 7422   5.045   4.839   5.539
    2PC      C2 7423   5.001   4.999   5.404
    2PC      HX 7424   5.098   5.017   5.357
    2PC      C3 7425   4.958   5.094   5.516
    2PC      HA 7426   5.046   5.147   5.553
    2PC      HB 7427   4.883   5.166   5.481
    2PC     O31 7428   4.894   5.016   5.619
    2PC     P31 7429   4.859   5.111   5.743
    2PC     O32 7430   5.003   5.088   5.808
    2PC     C31 7431   5.002   5.069   5.950
    2PC     H1A 7432   4.951   5.150   6.002
    2PC     H1B 7433   4.951   4.972   5.958
    2PC     C32 7434   5.142   5.041   6.006
    2PC     H2A 7435   5.130   5.006   6.109
    2PC     H2B 7436   5.167   4.955   5.943
    2PC     N31 7437   5.248   5.147   6.004
    2PC     C33 7438   5.354   5.113   6.104
    2PC     H3A 7439   5.437   5.182   6.090
    2PC     H3B 7440   5.318   5.114   6.207
    2PC     H3C 7441   5.391   5.014   6.076
    2PC     C34 7442   5.295   5.173   5.864
    2PC     H4A 7443   5.204   5.195   5.809
    2PC     H4B 7444   5.368   5.254   5.856
    2PC     H4C 7445   5.339   5.076   5.844
    2PC     C35 7446   5.194   5.273   6.063
    2PC     H5A 7447   5.111   5.310   6.003
    2PC     H5B 7448   5.283   5.332   6.041
    2PC     H5C 7449   5.173   5.261   6.170
    2PC     O33 7450   4.814   5.249   5.712
    2PC     O34 7451   4.751   5.044   5.820
    2PC     O21 7452   4.894   5.005   5.308
    2PC     C21 7453   4.920   4.989   5.177
    2PC     O22 7454   5.030   4.958   5.136
    3OL     C12 7455   4.800   5.004   5.086
    3OL     H2R 7456   4.787   5.113   5.086
    3OL     H2S 7457   4.708   4.959   5.123
    3OL     C13 7458   4.829   4.967   4.940
    3OL     H3R 7459   4.837   4.859   4.932
    3OL     H3S 7460   4.920   5.017   4.904
    3OL     C14 7461   4.709   5.012   4.856
    3OL     H4R 7462   4.688   5.117   4.880
    3OL     H4S 7463   4.617   4.954   4.872
    3OL     C15 7464   4.740   4.998   4.707
    3OL     H5R 7465   4.788   4.903   4.685
    3OL     H5S 7466   4.808   5.080   4.681
    3OL     C16 7467   4.611   5.015   4.625
    3OL     H6R 7468   4.565   5.114   4.626
    3OL     H6S 7469   4.531   4.946   4.655
    3OL     C17 7470   4.635   4.968   4.481
    3OL     H7R 7471   4.546   4.985   4.419
    3OL     H7S 7472   4.670   4.865   4.484
    3OL     C18 7473   4.744   5.042   4.403
    3OL     H8R 7474   4.744   4.998   4.303
    3OL     H8S 7475   4.839   5.005   4.444
    3OL     C19 7476   4.731   5.192   4.412
    3OL     H9R 7477   4.725   5.225   4.515
    3OL    C110 7478   4.700   5.272   4.311
    3OL    H10R 7479   4.680   5.378   4.321
    3OL    C111 7480   4.696   5.229   4.166
    3OL    H11R 7481   4.608   5.166   4.149
    3OL    H11S 7482   4.793   5.181   4.154
    3OL    C112 7483   4.692   5.351   4.072
    3OL    H12R 7484   4.783   5.411   4.081
    3OL    H12S 7485   4.608   5.411   4.106
    3OL    C113 7486   4.662   5.307   3.929
    3OL    H13R 7487   4.650   5.399   3.873
    3OL    H13S 7488   4.565   5.257   3.932
    3OL    C114 7489   4.768   5.215   3.865
    3OL    H14R 7490   4.782   5.115   3.907
    3OL    H14S 7491   4.859   5.275   3.874
    3OL    C115 7492   4.743   5.196   3.715
    3OL    H15R 7493   4.835   5.178   3.658
    3OL    H15S 7494   4.707   5.289   3.671
    3OL    C116 7495   4.650   5.078   3.684
    3OL    H16R 7496   4.547   5.099   3.712
    3OL    H16S 7497   4.685   4.991   3.741
    3OL    C117 7498   4.649   5.062   3.531
    3OL    H17R 7499   4.749   5.072   3.489
    3OL    H17S 7500   4.587   5.140   3.486
    3OL    C118 7501   4.589   4.923   3.504
    3OL    H18R 7502   4.622   4.896   3.404
    3OL    H18S 7503   4.481   4.942   3.506
    3OL    H18T 7504   4.620   4.846   3.575
    1PA    C116 7505   5.715   0.663   3.468
    1PA    H16R 7506   5.658   0.757   3.469
    1PA    H16S 7507   5.651   0.580   3.438
    1PA    H16T 7508   5.798   0.676   3.398
    1PA    C115 7509   5.769   0.653   3.611
    1PA    H15R 7510   5.681   0.630   3.672
    1PA    H15S 7511   5.833   0.565   3.621
    1PA    C114 7512   5.845   0.778   3.658
    1PA    H14R 7513   5.939   0.792   3.603
    1PA    H14S 7514   5.787   0.870   3.652
    1PA    C113 7515   5.890   0.747   3.801
    1PA    H13R 7516   5.807   0.717   3.864
    1PA    H13S 7517   5.960   0.663   3.800
    1PA    C112 7518   5.958   0.872   3.860
    1PA    H12R 7519   6.044   0.894   3.797
    1PA    H12S 7520   5.883   0.951   3.870
    1PA    C111 7521   6.007   0.840   4.002
    1PA    H11R 7522   5.932   0.783   4.057
    1PA    H11S 7523   6.098   0.779   4.001
    1PA    C110 7524   6.032   0.960   4.096
    1PA    H10R 7525   6.105   1.030   4.055
    1PA    H10S 7526   5.941   1.018   4.113
    1PA     C19 7527   6.079   0.911   4.233
    1PA     H9R 7528   6.028   0.818   4.261
    1PA     H9S 7529   6.187   0.893   4.223
    1PA     C18 7530   6.058   1.023   4.335
    1PA     H8R 7531   6.104   1.118   4.307
    1PA     H8S 7532   5.949   1.024   4.330
    1PA     C17 7533   6.103   0.988   4.478
    1PA     H7R 7534   6.033   0.913   4.516
    1PA     H7S 7535   6.208   0.959   4.473
    1PA     C16 7536   6.108   1.112   4.568
    1PA     H6R 7537   6.174   1.187   4.524
    1PA     H6S 7538   6.006   1.152   4.567
    1PA     C15 7539   6.132   1.086   4.717
    1PA     H5R 7540   6.040   1.048   4.761
    1PA     H5S 7541   6.198   1.000   4.730
    1PA     C14 7542   6.184   1.210   4.791
    1PA     H4R 7543   6.281   1.250   4.760
    1PA     H4S 7544   6.111   1.291   4.782
    1PA     C13 7545   6.211   1.175   4.938
    1PA     H3R 7546   6.262   1.078   4.938
    1PA     H3S 7547   6.288   1.246   4.970
    1PA     C12 7548   6.086   1.183   5.026
    1PA     H2R 7549   6.115   1.212   5.127
    1PA     H2S 7550   6.012   1.251   4.984
    2PC     C11 7551   6.029   1.046   5.058
    2PC     O12 7552   5.931   1.004   5.000
    2PC     O11 7553   6.104   0.974   5.142
    2PC      C1 7554   6.062   0.842   5.182
    2PC      HR 7555   5.980   0.848   5.254
    2PC      HS 7556   6.032   0.780   5.097
    2PC      C2 7557   6.180   0.770   5.250
    2PC      HX 7558   6.147   0.676   5.296
    2PC      C3 7559   6.241   0.876   5.342
    2PC      HA 7560   6.311   0.940   5.287
    2PC      HB 7561   6.158   0.926   5.391
    2PC     O31 7562   6.321   0.814   5.444
    2PC     P31 7563   6.259   0.723   5.560
    2PC     O32 7564   6.270   0.582   5.485
    2PC     C31 7565   6.212   0.467   5.550
    2PC     H1A 7566   6.263   0.451   5.645
    2PC     H1B 7567   6.109   0.499   5.566
    2PC     C32 7568   6.207   0.348   5.453
    2PC     H2A 7569   6.135   0.371   5.374
    2PC     H2B 7570   6.305   0.321   5.414
    2PC     N31 7571   6.162   0.216   5.507
    2PC     C33 7572   6.133   0.117   5.398
    2PC     H3A 7573   6.215   0.115   5.327
    2PC     H3B 7574   6.122   0.019   5.445
    2PC     H3C 7575   6.051   0.149   5.333
    2PC     C34 7576   6.273   0.162   5.592
    2PC     H4A 7577   6.236   0.090   5.665
    2PC     H4B 7578   6.348   0.108   5.533
    2PC     H4C 7579   6.331   0.243   5.636
    2PC     C35 7580   6.038   0.226   5.590
    2PC     H5A 7581   6.042   0.295   5.675
    2PC     H5B 7582   6.006   0.130   5.631
    2PC     H5C 7583   5.957   0.267   5.529
    2PC     O33 7584   6.317   0.734   5.696
    2PC     O34 7585   6.117   0.760   5.579
    2PC     O21 7586   6.286   0.738   5.158
    2PC     C21 7587   6.263   0.647   5.062
    2PC     O22 7588   6.166   0.574   5.067
    3OL     C12 7589   6.369   0.651   4.955
    3OL     H2R 7590   6.341   0.573   4.884
    3OL     H2S 7591   6.464   0.625   5.002
    3OL     C13 7592   6.390   0.788   4.887
    3OL     H3R 7593   6.436   0.854   4.961
    3OL     H3S 7594   6.297   0.832   4.850
    3OL     C14 7595   0.000   0.768   4.772
    3OL     H4R 7596   0.073   0.691   4.797
    3OL     H4S 7597   0.049   0.864   4.753
    3OL     C15 7598   6.414   0.732   4.643
    3OL     H5R 7599   6.364   0.825   4.616
    3OL     H5S 7600   6.328   0.666   4.657
    3OL     C16 7601   0.017   0.710   4.521
    3OL     H6R 7602   0.069   0.614   4.516
    3OL     H6S 7603   0.097   0.784   4.530
    3OL     C17 7604   6.436   0.725   4.385
    3OL     H7R 7605   0.016   0.714   4.302
    3OL     H7S 7606   6.399   0.828   4.377
    3OL     C18 7607   6.322   0.625   4.361
    3OL     H8R 7608   6.235   0.642   4.424
    3OL     H8S 7609   6.357   0.522   4.374
    3OL     C19 7610   6.285   0.620   4.215
    3OL     H9R 7611   6.355   0.676   4.153
    3OL    C110 7612   6.168   0.580   4.167
    3OL    H10R 7613   6.140   0.592   4.063
    3OL    C111 7614   6.064   0.515   4.255
    3OL    H11R 7615   5.992   0.591   4.286
    3OL    H11S 7616   6.106   0.471   4.346
    3OL    C112 7617   5.988   0.398   4.191
    3OL    H12R 7618   5.927   0.353   4.270
    3OL    H12S 7619   6.055   0.325   4.147
    3OL    C113 7620   5.891   0.451   4.084
    3OL    H13R 7621   5.943   0.510   4.008
    3OL    H13S 7622   5.812   0.501   4.139
    3OL    C114 7623   5.828   0.333   4.008
    3OL    H14R 7624   5.736   0.365   3.958
    3OL    H14S 7625   5.816   0.250   4.078
    3OL    C115 7626   5.919   0.276   3.898
    3OL    H15R 7627   6.018   0.260   3.940
    3OL    H15S 7628   5.920   0.348   3.816
    3OL    C116 7629   5.862   0.141   3.851
    3OL    H16R 7630   5.888   0.120   3.747
    3OL    H16S 7631   5.753   0.142   3.854
    3OL    C117 7632   5.910   0.015   3.923
    3OL    H17R 7633   5.872   0.017   4.025
    3OL    H17S 7634   6.019   0.005   3.923
    3OL    C118 7635   5.855   6.383   3.846
    3OL    H18R 7636   5.746   6.392   3.841
    3OL    H18S 7637   5.894   6.294   3.896
    3OL    H18T 7638   5.893   6.378   3.743
    1PA    C116 7639   6.080   4.523   4.240
    1PA    H16R 7640   6.082   4.584   4.149
    1PA    H16S 7641   5.980   4.486   4.263
    1PA    H16T 7642   6.155   4.447   4.218
    1PA    C115 7643   6.131   4.610   4.356
    1PA    H15R 7644   6.122   4.561   4.453
    1PA    H15S 7645   6.236   4.625   4.328
    1PA    C114 7646   6.070   4.750   4.365
    1PA    H14R 7647   6.061   4.798   4.267
    1PA    H14S 7648   5.968   4.746   4.404
    1PA    C113 7649   6.151   4.846   4.453
    1PA    H13R 7650   6.156   4.806   4.555
    1PA    H13S 7651   6.254   4.863   4.421
    1PA    C112 7652   6.094   4.989   4.455
    1PA    H12R 7653   6.067   5.010   4.352
    1PA    H12S 7654   6.000   4.995   4.511
    1PA    C111 7655   6.190   5.090   4.520
    1PA    H11R 7656   6.209   5.066   4.624
    1PA    H11S 7657   6.285   5.090   4.465
    1PA    C110 7658   6.147   5.237   4.515
    1PA    H10R 7659   6.123   5.269   4.413
    1PA    H10S 7660   6.062   5.258   4.581
    1PA     C19 7661   6.252   5.338   4.563
    1PA     H9R 7662   6.302   5.297   4.651
    1PA     H9S 7663   6.332   5.344   4.488
    1PA     C18 7664   6.190   5.475   4.590
    1PA     H8R 7665   6.144   5.513   4.498
    1PA     H8S 7666   6.107   5.468   4.661
    1PA     C17 7667   6.295   5.575   4.639
    1PA     H7R 7668   6.377   5.583   4.567
    1PA     H7S 7669   6.254   5.676   4.637
    1PA     C16 7670   6.347   5.533   4.777
    1PA     H6R 7671   6.401   5.438   4.768
    1PA     H6S 7672   6.415   5.607   4.818
    1PA     C15 7673   6.247   5.531   4.894
    1PA     H5R 7674   6.222   5.636   4.913
    1PA     H5S 7675   6.156   5.475   4.868
    1PA     C14 7676   6.309   5.464   5.016
    1PA     H4R 7677   6.307   5.357   4.991
    1PA     H4S 7678   6.412   5.499   5.031
    1PA     C13 7679   6.231   5.504   5.142
    1PA     H3R 7680   6.228   5.612   5.156
    1PA     H3S 7681   6.129   5.474   5.117
    1PA     C12 7682   6.286   5.433   5.267
    1PA     H2R 7683   6.274   5.325   5.256
    1PA     H2S 7684   6.393   5.453   5.278
    2PC     C11 7685   6.211   5.466   5.393
    2PC     O12 7686   6.215   5.389   5.486
    2PC     O11 7687   6.153   5.587   5.393
    2PC      C1 7688   6.108   5.636   5.521
    2PC      HR 7689   6.022   5.703   5.513
    2PC      HS 7690   6.062   5.556   5.579
    2PC      C2 7691   6.216   5.707   5.605
    2PC      HX 7692   6.280   5.628   5.646
    2PC      C3 7693   6.152   5.780   5.724
    2PC      HA 7694   6.108   5.875   5.692
    2PC      HB 7695   6.072   5.716   5.761
    2PC     O31 7696   6.259   5.806   5.818
    2PC     P31 7697   6.228   5.875   5.959
    2PC     O32 7698   6.333   5.995   5.947
    2PC     C31 7699   6.294   6.103   5.861
    2PC     H1A 7700   6.388   6.152   5.837
    2PC     H1B 7701   6.249   6.072   5.766
    2PC     C32 7702   6.191   6.201   5.919
    2PC     H2A 7703   6.193   6.288   5.854
    2PC     H2B 7704   6.088   6.165   5.915
    2PC     N31 7705   6.211   6.265   6.053
    2PC     C33 7706   6.223   6.162   6.162
    2PC     H3A 7707   6.239   6.216   6.256
    2PC     H3B 7708   6.135   6.099   6.168
    2PC     H3C 7709   6.308   6.096   6.143
    2PC     C34 7710   6.339   6.341   6.069
    2PC     H4A 7711   6.427   6.280   6.044
    2PC     H4B 7712   6.338   6.432   6.010
    2PC     H4C 7713   6.337   6.367   6.175
    2PC     C35 7714   6.100   6.362   6.081
    2PC     H5A 7715   5.998   6.324   6.071
    2PC     H5B 7716   6.113   6.445   6.011
    2PC     H5C 7717   6.107   6.393   6.185
    2PC     O33 7718   6.089   5.927   5.968
    2PC     O34 7719   6.258   5.783   6.071
    2PC     O21 7720   6.291   5.799   5.523
    2PC     C21 7721   6.410   5.761   5.472
    2PC     O22 7722   6.469   5.668   5.521
    3OL     C12 7723   6.472   5.854   5.370
    3OL     H2R 7724   0.088   5.823   5.368
    3OL     H2S 7725   6.445   5.951   5.411
    3OL     C13 7726   6.408   5.836   5.232
    3OL     H3R 7727   6.299   5.839   5.237
    3OL     H3S 7728   6.429   5.738   5.190
    3OL     C14 7729   6.455   5.937   5.127
    3OL     H4R 7730   0.072   5.915   5.107
    3OL     H4S 7731   6.439   6.037   5.169
    3OL     C15 7732   6.371   5.929   4.999
    3OL     H5R 7733   6.274   5.962   5.037
    3OL     H5S 7734   6.358   5.826   4.966
    3OL     C16 7735   6.428   6.016   4.886
    3OL     H6R 7736   0.046   5.994   4.874
    3OL     H6S 7737   6.436   6.123   4.907
    3OL     C17 7738   6.358   5.994   4.751
    3OL     H7R 7739   6.325   5.891   4.743
    3OL     H7S 7740   6.428   6.018   4.670
    3OL     C18 7741   6.238   6.090   4.743
    3OL     H8R 7742   6.164   6.060   4.818
    3OL     H8S 7743   6.185   6.078   4.648
    3OL     C19 7744   6.284   6.233   4.757
    3OL     H9R 7745   6.311   6.257   4.859
    3OL    C110 7746   6.294   6.327   4.664
    3OL    H10R 7747   6.325   6.427   4.691
    3OL    C111 7748   6.274   6.301   4.517
    3OL    H11R 7749   6.285   6.196   4.486
    3OL    H11S 7750   6.337   6.370   4.462
    3OL    C112 7751   6.127   6.326   4.479
    3OL    H12R 7752   6.093   6.427   4.503
    3OL    H12S 7753   6.068   6.259   4.541
    3OL    C113 7754   6.104   6.293   4.331
    3OL    H13R 7755   6.144   6.195   4.303
    3OL    H13S 7756   6.153   6.368   4.269
    3OL    C114 7757   5.954   6.289   4.295
    3OL    H14R 7758   5.911   6.205   4.350
    3OL    H14S 7759   5.953   6.266   4.189
    3OL    C115 7760   5.864   6.412   4.312
    3OL    H15R 7761   5.916   0.012   4.275
    3OL    H15S 7762   5.850   6.429   4.419
    3OL    C116 7763   5.727   6.386   4.248
    3OL    H16R 7764   5.681   6.296   4.289
    3OL    H16S 7765   5.736   6.361   4.141
    3OL    C117 7766   5.625   0.012   4.248
    3OL    H17R 7767   5.538   6.467   4.191
    3OL    H17S 7768   5.674   0.095   4.197
    3OL    C118 7769   5.571   0.060   4.383
    3OL    H18R 7770   5.640   0.135   4.424
    3OL    H18S 7771   5.561   6.464   4.451
    3OL    H18T 7772   5.482   0.123   4.378
    1PA    C116 7773   5.390   1.678   3.565
    1PA    H16R 7774   5.461   1.665   3.483
    1PA    H16S 7775   5.326   1.763   3.542
    1PA    H16T 7776   5.327   1.590   3.579
    1PA    C115 7777   5.468   1.712   3.693
    1PA    H15R 7778   5.519   1.809   3.689
    1PA    H15S 7779   5.389   1.716   3.768
    1PA    C114 7780   5.569   1.605   3.737
    1PA    H14R 7781   5.522   1.507   3.746
    1PA    H14S 7782   5.650   1.588   3.666
    1PA    C113 7783   5.622   1.634   3.878
    1PA    H13R 7784   5.666   1.733   3.864
    1PA    H13S 7785   5.539   1.646   3.949
    1PA    C112 7786   5.725   1.529   3.921
    1PA    H12R 7787   5.673   1.433   3.921
    1PA    H12S 7788   5.811   1.536   3.854
    1PA    C111 7789   5.788   1.562   4.058
    1PA    H11R 7790   5.880   1.510   4.083
    1PA    H11S 7791   5.807   1.669   4.053
    1PA    C110 7792   5.689   1.540   4.173
    1PA    H10R 7793   5.743   1.567   4.264
    1PA    H10S 7794   5.601   1.600   4.151
    1PA     C19 7795   5.656   1.392   4.199
    1PA     H9R 7796   5.576   1.363   4.130
    1PA     H9S 7797   5.737   1.325   4.171
    1PA     C18 7798   5.595   1.364   4.337
    1PA     H8R 7799   5.524   1.438   4.376
    1PA     H8S 7800   5.542   1.269   4.324
    1PA     C17 7801   5.694   1.340   4.452
    1PA     H7R 7802   5.766   1.261   4.429
    1PA     H7S 7803   5.754   1.430   4.470
    1PA     C16 7804   5.612   1.317   4.579
    1PA     H6R 7805   5.534   1.392   4.598
    1PA     H6S 7806   5.557   1.223   4.567
    1PA     C15 7807   5.696   1.309   4.708
    1PA     H5R 7808   5.774   1.233   4.707
    1PA     H5S 7809   5.734   1.407   4.736
    1PA     C14 7810   5.614   1.256   4.826
    1PA     H4R 7811   5.517   1.305   4.837
    1PA     H4S 7812   5.603   1.150   4.802
    1PA     C13 7813   5.683   1.270   4.962
    1PA     H3R 7814   5.785   1.230   4.957
    1PA     H3S 7815   5.687   1.375   4.991
    1PA     C12 7816   5.608   1.189   5.069
    1PA     H2R 7817   5.500   1.202   5.059
    1PA     H2S 7818   5.641   1.086   5.055
    2PC     C11 7819   5.649   1.244   5.204
    2PC     O12 7820   5.765   1.248   5.239
    2PC     O11 7821   5.544   1.294   5.271
    2PC      C1 7822   5.564   1.327   5.410
    2PC      HR 7823   5.463   1.345   5.448
    2PC      HS 7824   5.609   1.240   5.458
    2PC      C2 7825   5.649   1.451   5.439
    2PC      HX 7826   5.742   1.438   5.383
    2PC      C3 7827   5.678   1.456   5.589
    2PC      HA 7828   5.743   1.373   5.618
    2PC      HB 7829   5.726   1.551   5.615
    2PC     O31 7830   5.553   1.450   5.660
    2PC     P31 7831   5.566   1.450   5.820
    2PC     O32 7832   5.602   1.600   5.861
    2PC     C31 7833   5.497   1.698   5.847
    2PC     H1A 7834   5.457   1.706   5.745
    2PC     H1B 7835   5.416   1.665   5.913
    2PC     C32 7836   5.548   1.827   5.913
    2PC     H2A 7837   5.565   1.819   6.021
    2PC     H2B 7838   5.645   1.845   5.866
    2PC     N31 7839   5.463   1.950   5.910
    2PC     C33 7840   5.547   2.058   5.971
    2PC     H3A 7841   5.601   2.108   5.891
    2PC     H3B 7842   5.473   2.131   6.007
    2PC     H3C 7843   5.608   2.017   6.051
    2PC     C34 7844   5.420   1.992   5.773
    2PC     H4A 7845   5.496   2.053   5.723
    2PC     H4B 7846   5.398   1.901   5.718
    2PC     H4C 7847   5.329   2.051   5.778
    2PC     C35 7848   5.339   1.921   5.989
    2PC     H5A 7849   5.373   1.884   6.085
    2PC     H5B 7850   5.281   1.840   5.942
    2PC     H5C 7851   5.274   2.008   5.993
    2PC     O33 7852   5.439   1.426   5.891
    2PC     O34 7853   5.653   1.345   5.878
    2PC     O21 7854   5.588   1.575   5.397
    2PC     C21 7855   5.664   1.684   5.385
    2PC     O22 7856   5.784   1.674   5.397
    3OL     C12 7857   5.581   1.807   5.358
    3OL     H2R 7858   5.642   1.882   5.409
    3OL     H2S 7859   5.485   1.803   5.410
    3OL     C13 7860   5.574   1.862   5.215
    3OL     H3R 7861   5.677   1.880   5.184
    3OL     H3S 7862   5.523   1.959   5.220
    3OL     C14 7863   5.501   1.764   5.123
    3OL     H4R 7864   5.394   1.770   5.146
    3OL     H4S 7865   5.538   1.672   5.168
    3OL     C15 7866   5.537   1.797   4.977
    3OL     H5R 7867   5.645   1.808   4.967
    3OL     H5S 7868   5.490   1.890   4.946
    3OL     C16 7869   5.486   1.702   4.868
    3OL     H6R 7870   5.377   1.713   4.864
    3OL     H6S 7871   5.500   1.597   4.895
    3OL     C17 7872   5.534   1.747   4.729
    3OL     H7R 7873   5.636   1.710   4.719
    3OL     H7S 7874   5.517   1.854   4.714
    3OL     C18 7875   5.450   1.662   4.632
    3OL     H8R 7876   5.344   1.685   4.644
    3OL     H8S 7877   5.456   1.559   4.665
    3OL     C19 7878   5.516   1.675   4.497
    3OL     H9R 7879   5.607   1.618   4.478
    3OL    C110 7880   5.471   1.751   4.398
    3OL    H10R 7881   5.527   1.749   4.305
    3OL    C111 7882   5.337   1.819   4.404
    3OL    H11R 7883   5.347   1.909   4.343
    3OL    H11S 7884   5.309   1.850   4.505
    3OL    C112 7885   5.226   1.730   4.345
    3OL    H12R 7886   5.136   1.792   4.341
    3OL    H12S 7887   5.200   1.642   4.405
    3OL    C113 7888   5.256   1.669   4.207
    3OL    H13R 7889   5.157   1.628   4.183
    3OL    H13S 7890   5.330   1.589   4.215
    3OL    C114 7891   5.303   1.767   4.099
    3OL    H14R 7892   5.307   1.714   4.003
    3OL    H14S 7893   5.398   1.808   4.132
    3OL    C115 7894   5.200   1.880   4.092
    3OL    H15R 7895   5.207   1.930   4.189
    3OL    H15S 7896   5.099   1.839   4.081
    3OL    C116 7897   5.216   1.988   3.984
    3OL    H16R 7898   5.202   1.940   3.887
    3OL    H16S 7899   5.320   2.020   3.989
    3OL    C117 7900   5.134   2.117   3.996
    3OL    H17R 7901   5.157   2.193   3.922
    3OL    H17S 7902   5.168   2.156   4.092
    3OL    C118 7903   4.985   2.079   3.998
    3OL    H18R 7904   4.919   2.164   4.013
    3OL    H18S 7905   4.972   2.023   4.091
    3OL    H18T 7906   4.949   2.009   3.922
    1PA    C116 7907   4.256   0.855   3.771
    1PA    H16R 7908   4.303   0.823   3.678
    1PA    H16S 7909   4.302   0.947   3.808
    1PA    H16T 7910   4.148   0.869   3.759
    1PA    C115 7911   4.293   0.745   3.872
    1PA    H15R 7912   4.257   0.768   3.973
    1PA    H15S 7913   4.238   0.655   3.843
    1PA    C114 7914   4.442   0.711   3.885
    1PA    H14R 7915   4.466   0.667   3.788
    1PA    H14S 7916   4.511   0.794   3.901
    1PA    C113 7917   4.460   0.608   3.997
    1PA    H13R 7918   4.416   0.653   4.087
    1PA    H13S 7919   4.407   0.515   3.974
    1PA    C112 7920   4.610   0.583   4.012
    1PA    H12R 7921   4.659   0.567   3.915
    1PA    H12S 7922   4.652   0.672   4.059
    1PA    C111 7923   4.642   0.474   4.115
    1PA    H11R 7924   4.601   0.375   4.096
    1PA    H11S 7925   4.745   0.440   4.116
    1PA    C110 7926   4.604   0.516   4.258
    1PA    H10R 7927   4.642   0.617   4.271
    1PA    H10S 7928   4.496   0.527   4.273
    1PA     C19 7929   4.676   0.423   4.356
    1PA     H9R 7930   4.654   0.325   4.314
    1PA     H9S 7931   4.781   0.449   4.364
    1PA     C18 7932   4.614   0.440   4.496
    1PA     H8R 7933   4.594   0.544   4.521
    1PA     H8S 7934   4.515   0.396   4.486
    1PA     C17 7935   4.699   0.364   4.599
    1PA     H7R 7936   4.717   0.261   4.571
    1PA     H7S 7937   4.803   0.397   4.604
    1PA     C16 7938   4.629   0.357   4.736
    1PA     H6R 7939   4.616   0.455   4.782
    1PA     H6S 7940   4.528   0.317   4.745
    1PA     C15 7941   4.711   0.262   4.824
    1PA     H5R 7942   4.708   0.167   4.770
    1PA     H5S 7943   4.814   0.298   4.823
    1PA     C14 7944   4.654   0.255   4.967
    1PA     H4R 7945   4.625   0.351   5.008
    1PA     H4S 7946   4.562   0.195   4.970
    1PA     C13 7947   4.754   0.188   5.062
    1PA     H3R 7948   4.833   0.258   5.086
    1PA     H3S 7949   4.697   0.159   5.150
    1PA     C12 7950   4.822   0.058   5.014
    1PA     H2R 7951   4.758   6.459   5.000
    1PA     H2S 7952   4.854   0.088   4.914
    2PC     C11 7953   4.934   0.033   5.112
    2PC     O12 7954   5.033   0.102   5.125
    2PC     O11 7955   4.914   6.411   5.185
    2PC      C1 7956   5.011   6.355   5.275
    2PC      HR 7957   5.083   6.290   5.224
    2PC      HS 7958   5.066   6.438   5.321
    2PC      C2 7959   4.937   6.284   5.389
    2PC      HX 7960   4.869   6.360   5.429
    2PC      C3 7961   5.036   6.232   5.494
    2PC      HA 7962   5.103   6.158   5.451
    2PC      HB 7963   5.103   6.312   5.527
    2PC     O31 7964   4.963   6.181   5.607
    2PC     P31 7965   4.833   6.245   5.675
    2PC     O32 7966   4.712   6.153   5.626
    2PC     C31 7967   4.586   6.167   5.694
    2PC     H1A 7968   4.575   6.095   5.776
    2PC     H1B 7969   4.571   6.271   5.724
    2PC     C32 7970   4.492   6.140   5.575
    2PC     H2A 7971   4.522   6.207   5.494
    2PC     H2B 7972   4.513   6.042   5.531
    2PC     N31 7973   4.344   6.148   5.596
    2PC     C33 7974   4.287   6.066   5.483
    2PC     H3A 7975   4.319   6.112   5.390
    2PC     H3B 7976   4.318   5.962   5.490
    2PC     H3C 7977   4.178   6.066   5.490
    2PC     C34 7978   4.301   6.092   5.728
    2PC     H4A 7979   4.351   5.998   5.752
    2PC     H4B 7980   4.329   6.168   5.802
    2PC     H4C 7981   4.194   6.074   5.719
    2PC     C35 7982   4.300   6.291   5.588
    2PC     H5A 7983   4.196   6.307   5.616
    2PC     H5B 7984   4.320   6.330   5.488
    2PC     H5C 7985   4.358   6.352   5.657
    2PC     O33 7986   4.840   6.245   5.823
    2PC     O34 7987   4.795   6.384   5.639
    2PC     O21 7988   4.868   6.172   5.332
    2PC     C21 7989   4.739   6.177   5.295
    2PC     O22 7990   4.663   6.269   5.317
    3OL     C12 7991   4.710   6.054   5.213
    3OL     H2R 7992   4.686   5.971   5.280
    3OL     H2S 7993   4.792   6.034   5.144
    3OL     C13 7994   4.579   6.077   5.137
    3OL     H3R 7995   4.501   6.115   5.203
    3OL     H3S 7996   4.541   5.980   5.101
    3OL     C14 7997   4.601   6.182   5.027
    3OL     H4R 7998   4.691   6.152   4.972
    3OL     H4S 7999   4.624   6.280   5.070
    3OL     C15 8000   4.482   6.186   4.931
    3OL     H5R 8001   4.387   6.209   4.981
    3OL     H5S 8002   4.476   6.089   4.882
    3OL     C16 8003   4.498   6.292   4.821
    3OL     H6R 8004   4.576   6.364   4.845
    3OL     H6S 8005   4.400   6.340   4.818
    3OL     C17 8006   4.538   6.236   4.684
    3OL     H7R 8007   4.533   6.310   4.604
    3OL     H7S 8008   4.470   6.154   4.664
    3OL     C18 8009   4.686   6.196   4.676
    3OL     H8R 8010   4.717   6.132   4.758
    3OL     H8S 8011   4.738   6.290   4.696
    3OL     C19 8012   4.714   6.124   4.546
    3OL     H9R 8013   4.696   6.188   4.460
    3OL    C110 8014   4.755   6.000   4.528
    3OL    H10R 8015   4.776   5.959   4.429
    3OL    C111 8016   4.762   5.893   4.634
    3OL    H11R 8017   4.683   5.818   4.623
    3OL    H11S 8018   4.741   5.936   4.733
    3OL    C112 8019   4.897   5.822   4.627
    3OL    H12R 8020   4.910   5.749   4.708
    3OL    H12S 8021   4.983   5.885   4.651
    3OL    C113 8022   4.913   5.740   4.498
    3OL    H13R 8023   5.013   5.696   4.492
    3OL    H13S 8024   4.903   5.802   4.408
    3OL    C114 8025   4.815   5.625   4.472
    3OL    H14R 8026   4.849   5.574   4.381
    3OL    H14S 8027   4.715   5.659   4.447
    3OL    C115 8028   4.799   5.526   4.588
    3OL    H15R 8029   4.719   5.455   4.566
    3OL    H15S 8030   4.778   5.586   4.677
    3OL    C116 8031   4.922   5.438   4.615
    3OL    H16R 8032   5.001   5.512   4.629
    3OL    H16S 8033   4.947   5.377   4.528
    3OL    C117 8034   4.907   5.355   4.743
    3OL    H17R 8035   4.961   5.261   4.725
    3OL    H17S 8036   4.810   5.304   4.743
    3OL    C118 8037   4.942   5.423   4.876
    3OL    H18R 8038   5.050   5.430   4.888
    3OL    H18S 8039   4.903   5.364   4.959
    3OL    H18T 8040   4.896   5.521   4.890
    1PA    C116 8041   2.915   4.199   3.824
    1PA    H16R 8042   2.998   4.220   3.893
    1PA    H16S 8043   2.904   4.091   3.826
    1PA    H16T 8044   2.822   4.249   3.851
    1PA    C115 8045   2.967   4.259   3.693
    1PA    H15R 8046   2.899   4.213   3.621
    1PA    H15S 8047   2.955   4.367   3.691
    1PA    C114 8048   3.118   4.237   3.673
    1PA    H14R 8049   3.132   4.133   3.703
    1PA    H14S 8050   3.145   4.269   3.572
    1PA    C113 8051   3.204   4.327   3.762
    1PA    H13R 8052   3.169   4.430   3.747
    1PA    H13S 8053   3.173   4.314   3.866
    1PA    C112 8054   3.355   4.319   3.737
    1PA    H12R 8055   3.372   4.290   3.634
    1PA    H12S 8056   3.384   4.424   3.750
    1PA    C111 8057   3.433   4.229   3.834
    1PA    H11R 8058   3.404   4.124   3.826
    1PA    H11S 8059   3.537   4.236   3.801
    1PA    C110 8060   3.422   4.286   3.977
    1PA    H10R 8061   3.452   4.390   3.990
    1PA    H10S 8062   3.321   4.277   4.017
    1PA     C19 8063   3.525   4.203   4.055
    1PA     H9R 8064   3.488   4.101   4.039
    1PA     H9S 8065   3.629   4.218   4.026
    1PA     C18 8066   3.503   4.227   4.205
    1PA     H8R 8067   3.406   4.180   4.220
    1PA     H8S 8068   3.581   4.166   4.251
    1PA     C17 8069   3.512   4.372   4.256
    1PA     H7R 8070   3.602   4.431   4.237
    1PA     H7S 8071   3.427   4.422   4.210
    1PA     C16 8072   3.485   4.386   4.407
    1PA     H6R 8073   3.446   4.485   4.432
    1PA     H6S 8074   3.400   4.326   4.439
    1PA     C15 8075   3.616   4.358   4.481
    1PA     H5R 8076   3.669   4.267   4.453
    1PA     H5S 8077   3.685   4.442   4.469
    1PA     C14 8078   3.594   4.349   4.633
    1PA     H4R 8079   3.494   4.310   4.651
    1PA     H4S 8080   3.659   4.270   4.670
    1PA     C13 8081   3.604   4.482   4.708
    1PA     H3R 8082   3.696   4.530   4.674
    1PA     H3S 8083   3.516   4.541   4.679
    1PA     C12 8084   3.605   4.451   4.858
    1PA     H2R 8085   3.512   4.399   4.882
    1PA     H2S 8086   3.690   4.388   4.885
    2PC     C11 8087   3.602   4.579   4.938
    2PC     O12 8088   3.503   4.649   4.950
    2PC     O11 8089   3.720   4.611   4.994
    2PC      C1 8090   3.733   4.733   5.070
    2PC      HR 8091   3.660   4.807   5.037
    2PC      HS 8092   3.704   4.692   5.167
    2PC      C2 8093   3.878   4.782   5.068
    2PC      HX 8094   3.947   4.698   5.063
    2PC      C3 8095   3.897   4.872   5.191
    2PC      HA 8096   3.889   4.805   5.276
    2PC      HB 8097   3.998   4.914   5.195
    2PC     O31 8098   3.804   4.982   5.187
    2PC     P31 8099   3.820   5.105   5.288
    2PC     O32 8100   3.783   5.032   5.426
    2PC     C31 8101   3.847   5.067   5.550
    2PC     H1A 8102   3.951   5.038   5.538
    2PC     H1B 8103   3.840   5.175   5.566
    2PC     C32 8104   3.772   4.997   5.665
    2PC     H2A 8105   3.669   5.032   5.661
    2PC     H2B 8106   3.771   4.888   5.663
    2PC     N31 8107   3.821   5.031   5.802
    2PC     C33 8108   3.970   5.024   5.812
    2PC     H3A 8109   3.995   4.918   5.800
    2PC     H3B 8110   4.028   5.078   5.737
    2PC     H3C 8111   3.994   5.060   5.912
    2PC     C34 8112   3.772   5.166   5.845
    2PC     H4A 8113   3.833   5.245   5.800
    2PC     H4B 8114   3.668   5.176   5.813
    2PC     H4C 8115   3.785   5.165   5.954
    2PC     C35 8116   3.752   4.929   5.887
    2PC     H5A 8117   3.781   4.829   5.854
    2PC     H5B 8118   3.647   4.943   5.861
    2PC     H5C 8119   3.779   4.957   5.989
    2PC     O33 8120   3.942   5.188   5.278
    2PC     O34 8121   3.710   5.199   5.259
    2PC     O21 8122   3.901   4.860   4.949
    2PC     C21 8123   4.023   4.872   4.895
    2PC     O22 8124   4.122   4.807   4.924
    3OL     C12 8125   4.022   4.972   4.783
    3OL     H2R 8126   3.981   5.067   4.818
    3OL     H2S 8127   3.948   4.938   4.711
    3OL     C13 8128   4.161   4.983   4.717
    3OL     H3R 8129   4.189   4.892   4.664
    3OL     H3S 8130   4.232   5.003   4.797
    3OL     C14 8131   4.153   5.091   4.609
    3OL     H4R 8132   4.254   5.121   4.579
    3OL     H4S 8133   4.093   5.174   4.648
    3OL     C15 8134   4.083   5.044   4.481
    3OL     H5R 8135   4.044   5.126   4.421
    3OL     H5S 8136   3.995   4.988   4.514
    3OL     C16 8137   4.168   4.954   4.390
    3OL     H6R 8138   4.096   4.881   4.351
    3OL     H6S 8139   4.243   4.906   4.453
    3OL     C17 8140   4.236   5.023   4.272
    3OL     H7R 8141   4.302   5.104   4.303
    3OL     H7S 8142   4.158   5.063   4.207
    3OL     C18 8143   4.327   4.922   4.201
    3OL     H8R 8144   4.359   4.846   4.273
    3OL     H8S 8145   4.417   4.969   4.161
    3OL     C19 8146   4.254   4.839   4.099
    3OL     H9R 8147   4.152   4.812   4.125
    3OL    C110 8148   4.302   4.798   3.982
    3OL    H10R 8149   4.231   4.745   3.919
    3OL    C111 8150   4.439   4.837   3.934
    3OL    H11R 8151   4.495   4.898   4.005
    3OL    H11S 8152   4.432   4.886   3.837
    3OL    C112 8153   4.531   4.715   3.917
    3OL    H12R 8154   4.543   4.668   4.015
    3OL    H12S 8155   4.634   4.748   3.899
    3OL    C113 8156   4.486   4.615   3.809
    3OL    H13R 8157   4.469   4.666   3.714
    3OL    H13S 8158   4.391   4.569   3.836
    3OL    C114 8159   4.586   4.500   3.791
    3OL    H14R 8160   4.686   4.543   3.779
    3OL    H14S 8161   4.572   4.444   3.699
    3OL    C115 8162   4.577   4.394   3.901
    3OL    H15R 8163   4.480   4.346   3.885
    3OL    H15S 8164   4.588   4.440   3.999
    3OL    C116 8165   4.682   4.282   3.894
    3OL    H16R 8166   4.688   4.243   3.792
    3OL    H16S 8167   4.656   4.198   3.959
    3OL    C117 8168   4.819   4.339   3.933
    3OL    H17R 8169   4.810   4.380   4.034
    3OL    H17S 8170   4.856   4.412   3.862
    3OL    C118 8171   4.931   4.234   3.937
    3OL    H18R 8172   5.031   4.274   3.958
    3OL    H18S 8173   4.929   4.192   3.836
    3OL    H18T 8174   4.899   4.150   3.999
    1PA    C116 8175   5.469   5.985   3.914
    1PA    H16R 8176   5.457   5.977   3.805
    1PA    H16S 8177   5.451   6.085   3.953
    1PA    H16T 8178   5.412   5.908   3.966
    1PA    C115 8179   5.613   5.945   3.953
    1PA    H15R 8180   5.627   5.841   3.922
    1PA    H15S 8181   5.682   6.013   3.903
    1PA    C114 8182   5.638   5.962   4.103
    1PA    H14R 8183   5.626   6.064   4.142
    1PA    H14S 8184   5.567   5.907   4.165
    1PA    C113 8185   5.782   5.918   4.133
    1PA    H13R 8186   5.783   5.815   4.098
    1PA    H13S 8187   5.851   5.985   4.081
    1PA    C112 8188   5.805   5.924   4.284
    1PA    H12R 8189   5.779   6.021   4.327
    1PA    H12S 8190   5.737   5.851   4.328
    1PA    C111 8191   5.955   5.896   4.306
    1PA    H11R 8192   5.978   5.794   4.277
    1PA    H11S 8193   5.999   5.959   4.228
    1PA    C110 8194   6.018   5.923   4.443
    1PA    H10R 8195   6.124   5.898   4.451
    1PA    H10S 8196   6.021   6.031   4.455
    1PA     C19 8197   5.927   5.868   4.554
    1PA     H9R 8198   5.823   5.899   4.547
    1PA     H9S 8199   5.929   5.760   4.536
    1PA     C18 8200   5.980   5.901   4.694
    1PA     H8R 8201   6.082   5.865   4.704
    1PA     H8S 8202   5.987   6.010   4.706
    1PA     C17 8203   5.893   5.860   4.814
    1PA     H7R 8204   5.796   5.901   4.785
    1PA     H7S 8205   5.888   5.751   4.822
    1PA     C16 8206   5.937   5.924   4.946
    1PA     H6R 8207   6.037   5.890   4.974
    1PA     H6S 8208   5.945   6.030   4.923
    1PA     C15 8209   5.846   5.892   5.066
    1PA     H5R 8210   5.747   5.937   5.053
    1PA     H5S 8211   5.829   5.786   5.088
    1PA     C14 8212   5.894   5.967   5.191
    1PA     H4R 8213   6.002   5.954   5.204
    1PA     H4S 8214   5.880   6.075   5.183
    1PA     C13 8215   5.824   5.914   5.317
    1PA     H3R 8216   5.715   5.914   5.312
    1PA     H3S 8217   5.862   5.818   5.351
    1PA     C12 8218   5.868   6.013   5.427
    1PA     H2R 8219   5.975   6.026   5.441
    1PA     H2S 8220   5.830   6.113   5.403
    2PC     C11 8221   5.807   5.986   5.562
    2PC     O12 8222   5.737   6.068   5.618
    2PC     O11 8223   5.834   5.865   5.613
    2PC      C1 8224   5.789   5.835   5.746
    2PC      HR 8225   5.845   5.760   5.803
    2PC      HS 8226   5.807   5.915   5.818
    2PC      C2 8227   5.639   5.801   5.734
    2PC      HX 8228   5.573   5.882   5.703
    2PC      C3 8229   5.565   5.752   5.859
    2PC      HA 8230   5.570   5.824   5.941
    2PC      HB 8231   5.459   5.739   5.835
    2PC     O31 8232   5.627   5.631   5.904
    2PC     P31 8233   5.584   5.565   6.044
    2PC     O32 8234   5.707   5.468   6.078
    2PC     C31 8235   5.676   5.332   6.110
    2PC     H1A 8236   5.607   5.328   6.195
    2PC     H1B 8237   5.622   5.284   6.027
    2PC     C32 8238   5.805   5.253   6.134
    2PC     H2A 8239   5.791   5.147   6.116
    2PC     H2B 8240   5.886   5.283   6.067
    2PC     N31 8241   5.871   5.256   6.269
    2PC     C33 8242   6.005   5.193   6.246
    2PC     H3A 8243   6.074   5.270   6.214
    2PC     H3B 8244   6.047   5.163   6.343
    2PC     H3C 8245   5.995   5.105   6.182
    2PC     C34 8246   5.901   5.395   6.317
    2PC     H4A 8247   5.910   5.462   6.231
    2PC     H4B 8248   5.815   5.432   6.374
    2PC     H4C 8249   5.989   5.399   6.381
    2PC     C35 8250   5.804   5.183   6.380
    2PC     H5A 8251   5.809   5.078   6.351
    2PC     H5B 8252   5.702   5.221   6.386
    2PC     H5C 8253   5.857   5.202   6.474
    2PC     O33 8254   5.576   5.653   6.163
    2PC     O34 8255   5.455   5.494   6.042
    2PC     O21 8256   5.633   5.690   5.643
    2PC     C21 8257   5.596   5.700   5.514
    2PC     O22 8258   5.551   5.798   5.460
    3OL     C12 8259   5.618   5.571   5.438
    3OL     H2R 8260   5.591   5.576   5.332
    3OL     H2S 8261   5.563   5.492   5.488
    3OL     C13 8262   5.768   5.541   5.441
    3OL     H3R 8263   5.816   5.578   5.532
    3OL     H3S 8264   5.822   5.600   5.367
    3OL     C14 8265   5.789   5.389   5.435
    3OL     H4R 8266   5.732   5.343   5.516
    3OL     H4S 8267   5.896   5.368   5.439
    3OL     C15 8268   5.747   5.329   5.300
    3OL     H5R 8269   5.646   5.362   5.273
    3OL     H5S 8270   5.750   5.221   5.311
    3OL     C16 8271   5.829   5.378   5.180
    3OL     H6R 8272   5.932   5.358   5.210
    3OL     H6S 8273   5.817   5.485   5.161
    3OL     C17 8274   5.789   5.292   5.059
    3OL     H7R 8275   5.683   5.317   5.052
    3OL     H7S 8276   5.805   5.187   5.085
    3OL     C18 8277   5.868   5.332   4.934
    3OL     H8R 8278   5.863   5.247   4.865
    3OL     H8S 8279   5.975   5.348   4.947
    3OL     C19 8280   5.813   5.463   4.883
    3OL     H9R 8281   5.786   5.543   4.951
    3OL    C110 8282   5.777   5.486   4.758
    3OL    H10R 8283   5.746   5.583   4.721
    3OL    C111 8284   5.789   5.393   4.640
    3OL    H11R 8285   5.692   5.347   4.618
    3OL    H11S 8286   5.860   5.314   4.664
    3OL    C112 8287   5.827   5.471   4.513
    3OL    H12R 8288   5.929   5.509   4.519
    3OL    H12S 8289   5.755   5.551   4.497
    3OL    C113 8290   5.812   5.375   4.395
    3OL    H13R 8291   5.710   5.336   4.400
    3OL    H13S 8292   5.875   5.287   4.414
    3OL    C114 8293   5.844   5.427   4.254
    3OL    H14R 8294   5.771   5.503   4.225
    3OL    H14S 8295   5.828   5.339   4.190
    3OL    C115 8296   5.992   5.462   4.233
    3OL    H15R 8297   6.055   5.387   4.282
    3OL    H15S 8298   6.009   5.559   4.280
    3OL    C116 8299   6.035   5.474   4.086
    3OL    H16R 8300   6.026   5.382   4.029
    3OL    H16S 8301   6.141   5.498   4.088
    3OL    C117 8302   5.965   5.592   4.017
    3OL    H17R 8303   6.031   5.646   3.949
    3OL    H17S 8304   5.931   5.659   4.096
    3OL    C118 8305   5.853   5.532   3.931
    3OL    H18R 8306   5.792   5.610   3.885
    3OL    H18S 8307   5.780   5.474   3.987
    3OL    H18T 8308   5.885   5.470   3.846
    1PA    C116 8309   5.295   0.790   3.547
    1PA    H16R 8310   5.403   0.806   3.545
    1PA    H16S 8311   5.250   0.843   3.463
    1PA    H16T 8312   5.273   0.684   3.537
    1PA    C115 8313   5.234   0.854   3.673
    1PA    H15R 8314   5.303   0.832   3.755
    1PA    H15S 8315   5.236   0.959   3.643
    1PA    C114 8316   5.085   0.821   3.683
    1PA    H14R 8317   5.025   0.846   3.596
    1PA    H14S 8318   5.072   0.715   3.704
    1PA    C113 8319   5.012   0.893   3.798
    1PA    H13R 8320   5.037   0.999   3.802
    1PA    H13S 8321   4.904   0.891   3.781
    1PA    C112 8322   5.042   0.819   3.929
    1PA    H12R 8323   5.027   0.712   3.916
    1PA    H12S 8324   5.148   0.830   3.952
    1PA    C111 8325   4.959   0.869   4.048
    1PA    H11R 8326   4.988   0.970   4.077
    1PA    H11S 8327   4.857   0.889   4.014
    1PA    C110 8328   4.961   0.789   4.178
    1PA    H10R 8329   4.927   0.851   4.262
    1PA    H10S 8330   4.905   0.699   4.154
    1PA     C19 8331   5.100   0.747   4.226
    1PA     H9R 8332   5.150   0.696   4.143
    1PA     H9S 8333   5.162   0.833   4.251
    1PA     C18 8334   5.090   0.661   4.353
    1PA     H8R 8335   5.012   0.587   4.334
    1PA     H8S 8336   5.182   0.607   4.376
    1PA     C17 8337   5.061   0.729   4.487
    1PA     H7R 8338   5.134   0.805   4.517
    1PA     H7S 8339   4.958   0.765   4.479
    1PA     C16 8340   5.068   0.613   4.587
    1PA     H6R 8341   5.006   0.530   4.549
    1PA     H6S 8342   5.174   0.590   4.593
    1PA     C15 8343   5.015   0.666   4.720
    1PA     H5R 8344   5.071   0.759   4.734
    1PA     H5S 8345   4.908   0.681   4.704
    1PA     C14 8346   5.026   0.563   4.834
    1PA     H4R 8347   5.010   0.469   4.781
    1PA     H4S 8348   5.127   0.568   4.873
    1PA     C13 8349   4.921   0.568   4.946
    1PA     H3R 8350   4.824   0.528   4.916
    1PA     H3S 8351   4.959   0.514   5.033
    1PA     C12 8352   4.896   0.712   4.994
    1PA     H2R 8353   4.986   0.762   5.030
    1PA     H2S 8354   4.843   0.777   4.924
    2PC     C11 8355   4.802   0.706   5.112
    2PC     O12 8356   4.770   0.599   5.159
    2PC     O11 8357   4.775   0.830   5.157
    2PC      C1 8358   4.716   0.834   5.288
    2PC      HR 8359   4.675   0.932   5.313
    2PC      HS 8360   4.623   0.777   5.290
    2PC      C2 8361   4.817   0.785   5.392
    2PC      HX 8362   4.848   0.682   5.373
    2PC      C3 8363   4.759   0.779   5.534
    2PC      HA 8364   4.735   0.883   5.558
    2PC      HB 8365   4.667   0.720   5.532
    2PC     O31 8366   4.844   0.727   5.637
    2PC     P31 8367   4.810   0.717   5.793
    2PC     O32 8368   4.964   0.745   5.827
    2PC     C31 8369   5.004   0.883   5.838
    2PC     H1A 8370   4.998   0.918   5.734
    2PC     H1B 8371   4.941   0.952   5.894
    2PC     C32 8372   5.149   0.895   5.885
    2PC     H2A 8373   5.205   0.821   5.827
    2PC     H2B 8374   5.190   0.995   5.869
    2PC     N31 8375   5.170   0.870   6.032
    2PC     C33 8376   5.124   0.981   6.121
    2PC     H3A 8377   5.019   1.003   6.101
    2PC     H3B 8378   5.142   0.953   6.225
    2PC     H3C 8379   5.181   1.071   6.096
    2PC     C34 8380   5.108   0.740   6.075
    2PC     H4A 8381   5.132   0.657   6.009
    2PC     H4B 8382   5.150   0.718   6.173
    2PC     H4C 8383   5.003   0.771   6.074
    2PC     C35 8384   5.315   0.860   6.069
    2PC     H5A 8385   5.357   0.958   6.047
    2PC     H5B 8386   5.365   0.783   6.011
    2PC     H5C 8387   5.313   0.830   6.174
    2PC     O33 8388   4.721   0.814   5.861
    2PC     O34 8389   4.780   0.582   5.848
    2PC     O21 8390   4.922   0.883   5.407
    2PC     C21 8391   5.052   0.852   5.409
    2PC     O22 8392   5.108   0.744   5.409
    3OL     C12 8393   5.127   0.983   5.399
    3OL     H2R 8394   5.219   0.962   5.455
    3OL     H2S 8395   5.079   1.058   5.462
    3OL     C13 8396   5.138   1.027   5.253
    3OL     H3R 8397   5.168   1.132   5.247
    3OL     H3S 8398   5.041   1.014   5.204
    3OL     C14 8399   5.240   0.936   5.184
    3OL     H4R 8400   5.207   0.832   5.192
    3OL     H4S 8401   5.333   0.946   5.240
    3OL     C15 8402   5.262   0.973   5.037
    3OL     H5R 8403   5.313   1.068   5.023
    3OL     H5S 8404   5.166   0.990   4.988
    3OL     C16 8405   5.344   0.873   4.953
    3OL     H6R 8406   5.294   0.777   4.939
    3OL     H6S 8407   5.443   0.861   4.996
    3OL     C17 8408   5.379   0.928   4.815
    3OL     H7R 8409   5.447   1.013   4.823
    3OL     H7S 8410   5.293   0.974   4.764
    3OL     C18 8411   5.468   0.829   4.739
    3OL     H8R 8412   5.400   0.756   4.694
    3OL     H8S 8413   5.545   0.796   4.808
    3OL     C19 8414   5.524   0.891   4.613
    3OL     H9R 8415   5.461   0.914   4.527
    3OL    C110 8416   5.652   0.920   4.596
    3OL    H10R 8417   5.692   0.964   4.506
    3OL    C111 8418   5.755   0.904   4.705
    3OL    H11R 8419   5.720   0.888   4.807
    3OL    H11S 8420   5.819   0.993   4.705
    3OL    C112 8421   5.838   0.779   4.676
    3OL    H12R 8422   5.885   0.793   4.578
    3OL    H12S 8423   5.764   0.700   4.663
    3OL    C113 8424   5.942   0.739   4.782
    3OL    H13R 8425   5.888   0.685   4.860
    3OL    H13S 8426   5.988   0.824   4.833
    3OL    C114 8427   6.049   0.644   4.725
    3OL    H14R 8428   6.130   0.631   4.796
    3OL    H14S 8429   6.094   0.674   4.630
    3OL    C115 8430   5.989   0.504   4.712
    3OL    H15R 8431   5.918   0.513   4.630
    3OL    H15S 8432   5.948   0.485   4.812
    3OL    C116 8433   6.102   0.404   4.685
    3OL    H16R 8434   6.184   0.410   4.757
    3OL    H16S 8435   6.153   0.419   4.589
    3OL    C117 8436   6.057   0.257   4.689
    3OL    H17R 8437   6.019   0.226   4.786
    3OL    H17S 8438   6.140   0.190   4.664
    3OL    C118 8439   5.957   0.228   4.576
    3OL    H18R 8440   6.005   0.223   4.478
    3OL    H18S 8441   5.864   0.285   4.580
    3OL    H18T 8442   5.926   0.125   4.596
    1PA    C116 8443   5.370   4.772   4.024
    1PA    H16R 8444   5.286   4.704   4.035
    1PA    H16S 8445   5.454   4.746   4.089
    1PA    H16T 8446   5.403   4.766   3.920
    1PA    C115 8447   5.334   4.920   4.047
    1PA    H15R 8448   5.429   4.973   4.051
    1PA    H15S 8449   5.270   4.960   3.968
    1PA    C114 8450   5.268   4.924   4.185
    1PA    H14R 8451   5.181   4.861   4.206
    1PA    H14S 8452   5.350   4.895   4.250
    1PA    C113 8453   5.226   5.069   4.217
    1PA    H13R 8454   5.320   5.123   4.219
    1PA    H13S 8455   5.167   5.121   4.142
    1PA    C112 8456   5.165   5.085   4.356
    1PA    H12R 8457   5.104   5.175   4.345
    1PA    H12S 8458   5.104   4.998   4.382
    1PA    C111 8459   5.271   5.106   4.465
    1PA    H11R 8460   5.325   5.011   4.478
    1PA    H11S 8461   5.343   5.182   4.437
    1PA    C110 8462   5.198   5.143   4.595
    1PA    H10R 8463   5.162   5.245   4.582
    1PA    H10S 8464   5.113   5.075   4.604
    1PA     C19 8465   5.285   5.127   4.721
    1PA     H9R 8466   5.218   5.126   4.808
    1PA     H9S 8467   5.323   5.025   4.716
    1PA     C18 8468   5.399   5.227   4.744
    1PA     H8R 8469   5.480   5.174   4.795
    1PA     H8S 8470   5.445   5.245   4.647
    1PA     C17 8471   5.349   5.348   4.824
    1PA     H7R 8472   5.273   5.402   4.766
    1PA     H7S 8473   5.297   5.330   4.918
    1PA     C16 8474   5.462   5.450   4.845
    1PA     H6R 8475   5.537   5.413   4.915
    1PA     H6S 8476   5.510   5.476   4.750
    1PA     C15 8477   5.409   5.573   4.920
    1PA     H5R 8478   5.334   5.603   4.847
    1PA     H5S 8479   5.360   5.553   5.015
    1PA     C14 8480   5.523   5.676   4.928
    1PA     H4R 8481   5.614   5.633   4.971
    1PA     H4S 8482   5.554   5.710   4.829
    1PA     C13 8483   5.477   5.799   5.007
    1PA     H3R 8484   5.538   5.888   4.988
    1PA     H3S 8485   5.375   5.826   4.979
    1PA     C12 8486   5.472   5.776   5.158
    1PA     H2R 8487   5.418   5.689   5.195
    1PA     H2S 8488   5.575   5.769   5.194
    2PC     C11 8489   5.400   5.883   5.237
    2PC     O12 8490   5.292   5.864   5.289
    2PC     O11 8491   5.464   6.001   5.234
    2PC      C1 8492   5.420   6.094   5.334
    2PC      HR 8493   5.312   6.110   5.330
    2PC      HS 8494   5.459   6.054   5.428
    2PC      C2 8495   5.494   6.225   5.303
    2PC      HX 8496   5.596   6.198   5.274
    2PC      C3 8497   5.487   6.323   5.420
    2PC      HA 8498   5.500   6.275   5.518
    2PC      HB 8499   5.564   6.400   5.405
    2PC     O31 8500   5.355   6.378   5.410
    2PC     P31 8501   5.333   0.024   5.494
    2PC     O32 8502   5.318   6.454   5.642
    2PC     C31 8503   5.412   0.023   5.735
    2PC     H1A 8504   5.509   0.007   5.688
    2PC     H1B 8505   5.407   0.131   5.747
    2PC     C32 8506   5.401   6.434   5.867
    2PC     H2A 8507   5.419   6.330   5.841
    2PC     H2B 8508   5.475   6.480   5.934
    2PC     N31 8509   5.278   6.447   5.951
    2PC     C33 8510   5.242   0.103   5.966
    2PC     H3A 8511   5.159   0.105   6.037
    2PC     H3B 8512   5.326   0.158   6.008
    2PC     H3C 8513   5.217   0.138   5.865
    2PC     C34 8514   5.161   6.382   5.885
    2PC     H4A 8515   5.149   6.422   5.784
    2PC     H4B 8516   5.180   6.275   5.875
    2PC     H4C 8517   5.072   6.405   5.944
    2PC     C35 8518   5.309   6.387   6.085
    2PC     H5A 8519   5.319   6.279   6.070
    2PC     H5B 8520   5.228   6.412   6.154
    2PC     H5C 8521   5.393   6.437   6.134
    2PC     O33 8522   5.450   0.113   5.478
    2PC     O34 8523   5.220   0.107   5.447
    2PC     O21 8524   5.436   6.291   5.189
    2PC     C21 8525   5.510   6.384   5.127
    2PC     O22 8526   5.630   6.403   5.138
    3OL     C12 8527   5.425   6.469   5.036
    3OL     H2R 8528   5.319   6.451   5.056
    3OL     H2S 8529   5.445   6.446   4.931
    3OL     C13 8530   5.453   0.130   5.053
    3OL     H3R 8531   5.561   0.142   5.063
    3OL     H3S 8532   5.415   0.162   5.151
    3OL     C14 8533   5.387   0.218   4.946
    3OL     H4R 8534   5.369   0.317   4.988
    3OL     H4S 8535   5.285   0.183   4.925
    3OL     C15 8536   5.482   0.231   4.826
    3OL     H5R 8537   5.429   0.236   4.730
    3OL     H5S 8538   5.549   0.145   4.815
    3OL     C16 8539   5.569   0.355   4.850
    3OL     H6R 8540   5.669   0.339   4.810
    3OL     H6S 8541   5.576   0.373   4.957
    3OL     C17 8542   5.503   0.477   4.784
    3OL     H7R 8543   5.542   0.561   4.843
    3OL     H7S 8544   5.397   0.463   4.806
    3OL     C18 8545   5.532   0.496   4.635
    3OL     H8R 8546   5.633   0.458   4.624
    3OL     H8S 8547   5.529   0.604   4.617
    3OL     C19 8548   5.442   0.428   4.535
    3OL     H9R 8549   5.360   0.371   4.578
    3OL    C110 8550   5.458   0.420   4.404
    3OL    H10R 8551   5.385   0.368   4.342
    3OL    C111 8552   5.558   0.508   4.334
    3OL    H11R 8553   5.613   0.447   4.262
    3OL    H11S 8554   5.622   0.549   4.412
    3OL    C112 8555   5.492   0.630   4.267
    3OL    H12R 8556   5.436   0.686   4.342
    3OL    H12S 8557   5.429   0.589   4.188
    3OL    C113 8558   5.590   0.728   4.199
    3OL    H13R 8559   5.670   0.686   4.138
    3OL    H13S 8560   5.642   0.777   4.282
    3OL    C114 8561   5.508   0.827   4.116
    3OL    H14R 8562   5.432   0.879   4.175
    3OL    H14S 8563   5.450   0.765   4.047
    3OL    C115 8564   5.600   0.920   4.037
    3OL    H15R 8565   5.666   0.862   3.973
    3OL    H15S 8566   5.666   0.973   4.108
    3OL    C116 8567   5.516   1.014   3.950
    3OL    H16R 8568   5.440   1.063   4.013
    3OL    H16S 8569   5.462   0.953   3.878
    3OL    C117 8570   5.615   1.096   3.867
    3OL    H17R 8571   5.660   1.035   3.788
    3OL    H17S 8572   5.705   1.128   3.920
    3OL    C118 8573   5.559   1.225   3.806
    3OL    H18R 8574   5.508   1.275   3.888
    3OL    H18S 8575   5.498   1.226   3.716
    3OL    H18T 8576   5.644   1.284   3.771
    1PA    C116 8577   0.639   1.881   3.815
    1PA    H16R 8578   0.671   1.985   3.814
    1PA    H16S 8579   0.716   1.834   3.876
    1PA    H16T 8580   0.541   1.880   3.863
    1PA    C115 8581   0.661   1.828   3.672
    1PA    H15R 8582   0.766   1.822   3.645
    1PA    H15S 8583   0.636   1.723   3.658
    1PA    C114 8584   0.583   1.905   3.564
    1PA    H14R 8585   0.652   1.979   3.523
    1PA    H14S 8586   0.552   1.840   3.482
    1PA    C113 8587   0.457   1.980   3.609
    1PA    H13R 8588   0.380   1.903   3.610
    1PA    H13S 8589   0.472   2.027   3.706
    1PA    C112 8590   0.387   2.071   3.507
    1PA    H12R 8591   0.374   2.019   3.412
    1PA    H12S 8592   0.292   2.096   3.554
    1PA    C111 8593   0.446   2.213   3.492
    1PA    H11R 8594   0.456   2.263   3.588
    1PA    H11S 8595   0.547   2.212   3.451
    1PA    C110 8596   0.359   2.303   3.402
    1PA    H10R 8597   0.342   2.255   3.306
    1PA    H10S 8598   0.262   2.322   3.449
    1PA     C19 8599   0.413   2.446   3.389
    1PA     H9R 8600   0.428   2.469   3.495
    1PA     H9S 8601   0.515   2.445   3.349
    1PA     C18 8602   0.322   2.556   3.335
    1PA     H8R 8603   0.223   2.527   3.370
    1PA     H8S 8604   0.337   2.650   3.389
    1PA     C17 8605   0.315   2.572   3.182
    1PA     H7R 8606   0.300   2.475   3.135
    1PA     H7S 8607   0.227   2.631   3.157
    1PA     C16 8608   0.441   2.644   3.130
    1PA     H6R 8609   0.454   2.739   3.182
    1PA     H6S 8610   0.532   2.589   3.156
    1PA     C15 8611   0.433   2.683   2.982
    1PA     H5R 8612   0.410   2.592   2.925
    1PA     H5S 8613   0.348   2.749   2.963
    1PA     C14 8614   0.561   2.749   2.927
    1PA     H4R 8615   0.648   2.686   2.944
    1PA     H4S 8616   0.548   2.751   2.818
    1PA     C13 8617   0.592   2.890   2.978
    1PA     H3R 8618   0.500   2.948   2.967
    1PA     H3S 8619   0.612   2.902   3.085
    1PA     C12 8620   0.705   2.958   2.900
    1PA     H2R 8621   0.693   3.065   2.923
    1PA     H2S 8622   0.804   2.927   2.936
    2PC     C11 8623   0.696   2.948   2.750
    2PC     O12 8624   0.706   2.845   2.687
    2PC     O11 8625   0.672   3.064   2.688
    2PC      C1 8626   0.640   3.069   2.547
    2PC      HR 8627   0.639   3.173   2.513
    2PC      HS 8628   0.719   3.019   2.491
    2PC      C2 8629   0.503   3.011   2.511
    2PC      HX 8630   0.494   2.913   2.558
    2PC      C3 8631   0.488   2.991   2.359
    2PC      HA 8632   0.577   2.953   2.307
    2PC      HB 8633   0.457   3.085   2.314
    2PC     O31 8634   0.388   2.890   2.334
    2PC     P31 8635   0.386   2.825   2.188
    2PC     O32 8636   0.299   2.694   2.219
    2PC     C31 8637   0.174   2.708   2.289
    2PC     H1A 8638   0.203   2.735   2.391
    2PC     H1B 8639   0.118   2.785   2.236
    2PC     C32 8640   0.097   2.575   2.292
    2PC     H2A 8641   0.162   2.494   2.325
    2PC     H2B 8642   0.013   2.573   2.361
    2PC     N31 8643   0.043   2.523   2.162
    2PC     C33 8644   0.024   2.375   2.175
    2PC     H3A 8645   0.121   2.330   2.195
    2PC     H3B 8646   6.449   2.362   2.263
    2PC     H3C 8647   6.465   2.340   2.083
    2PC     C34 8648   6.396   2.585   2.149
    2PC     H4A 8649   6.349   2.550   2.057
    2PC     H4B 8650   6.335   2.549   2.233
    2PC     H4C 8651   6.396   2.694   2.153
    2PC     C35 8652   0.129   2.555   2.043
    2PC     H5A 8653   0.142   2.663   2.035
    2PC     H5B 8654   0.068   2.527   1.956
    2PC     H5C 8655   0.225   2.504   2.043
    2PC     O33 8656   0.313   2.907   2.088
    2PC     O34 8657   0.521   2.790   2.140
    2PC     O21 8658   0.390   3.091   2.549
    2PC     C21 8659   0.347   3.091   2.677
    2PC     O22 8660   0.384   3.011   2.759
    3OL     C12 8661   0.247   3.200   2.708
    3OL     H2R 8662   0.157   3.176   2.651
    3OL     H2S 8663   0.277   3.290   2.653
    3OL     C13 8664   0.223   3.239   2.854
    3OL     H3R 8665   0.313   3.258   2.911
    3OL     H3S 8666   0.195   3.156   2.919
    3OL     C14 8667   0.111   3.344   2.858
    3OL     H4R 8668   0.021   3.304   2.812
    3OL     H4S 8669   0.128   3.439   2.806
    3OL     C15 8670   0.101   3.402   3.000
    3OL     H5R 8671   0.199   3.446   3.021
    3OL     H5S 8672   0.085   3.317   3.067
    3OL     C16 8673   6.477   3.503   3.023
    3OL     H6R 8674   0.028   3.592   2.974
    3OL     H6S 8675   6.485   3.524   3.130
    3OL     C17 8676   6.340   3.445   2.982
    3OL     H7R 8677   6.340   3.377   2.897
    3OL     H7S 8678   6.277   3.522   2.937
    3OL     C18 8679   6.272   3.366   3.094
    3OL     H8R 8680   6.243   3.439   3.170
    3OL     H8S 8681   6.344   3.296   3.137
    3OL     C19 8682   6.149   3.292   3.046
    3OL     H9R 8683   6.096   3.337   2.963
    3OL    C110 8684   6.122   3.168   3.083
    3OL    H10R 8685   6.033   3.126   3.038
    3OL    C111 8686   6.181   3.086   3.196
    3OL    H11R 8687   6.287   3.107   3.212
    3OL    H11S 8688   6.181   2.979   3.176
    3OL    C112 8689   6.099   3.123   3.320
    3OL    H12R 8690   5.991   3.128   3.301
    3OL    H12S 8691   6.130   3.221   3.356
    3OL    C113 8692   6.137   3.027   3.434
    3OL    H13R 8693   6.245   3.033   3.419
    3OL    H13S 8694   6.102   2.931   3.395
    3OL    C114 8695   6.067   3.064   3.566
    3OL    H14R 8696   5.961   3.038   3.562
    3OL    H14S 8697   6.076   3.172   3.578
    3OL    C115 8698   6.138   2.985   3.677
    3OL    H15R 8699   6.145   3.055   3.761
    3OL    H15S 8700   6.233   2.953   3.636
    3OL    C116 8701   6.068   2.853   3.714
    3OL    H16R 8702   6.066   2.777   3.636
    3OL    H16S 8703   5.964   2.872   3.741
    3OL    C117 8704   6.143   2.797   3.836
    3OL    H17R 8705   6.104   2.700   3.865
    3OL    H17S 8706   6.137   2.858   3.926
    3OL    C118 8707   6.294   2.769   3.834
    3OL    H18R 8708   6.346   2.863   3.812
    3OL    H18S 8709   6.314   2.708   3.745
    3OL    H18T 8710   6.325   2.714   3.924
    1PA    C116 8711   0.720   0.459   3.553
    1PA    H16R 8712   0.814   0.483   3.602
    1PA    H16S 8713   0.744   0.466   3.447
    1PA    H16T 8714   0.692   0.355   3.572
    1PA    C115 8715   0.611   0.557   3.597
    1PA    H15R 8716   0.517   0.548   3.542
    1PA    H15S 8717   0.580   0.537   3.700
    1PA    C114 8718   0.663   0.701   3.593
    1PA    H14R 8719   0.591   0.761   3.649
    1PA    H14S 8720   0.769   0.706   3.619
    1PA    C113 8721   0.643   0.761   3.453
    1PA    H13R 8722   0.708   0.706   3.384
    1PA    H13S 8723   0.541   0.732   3.429
    1PA    C112 8724   0.675   0.911   3.443
    1PA    H12R 8725   0.616   0.980   3.504
    1PA    H12S 8726   0.772   0.918   3.491
    1PA    C111 8727   0.694   0.966   3.301
    1PA    H11R 8728   0.749   0.892   3.242
    1PA    H11S 8729   0.595   0.980   3.258
    1PA    C110 8730   0.755   1.107   3.307
    1PA    H10R 8731   0.689   1.170   3.367
    1PA    H10S 8732   0.850   1.098   3.360
    1PA     C19 8733   0.764   1.177   3.170
    1PA     H9R 8734   0.828   1.264   3.186
    1PA     H9S 8735   0.810   1.100   3.107
    1PA     C18 8736   0.626   1.216   3.116
    1PA     H8R 8737   0.545   1.143   3.127
    1PA     H8S 8738   0.593   1.307   3.166
    1PA     C17 8739   0.641   1.264   2.971
    1PA     H7R 8740   0.742   1.303   2.955
    1PA     H7S 8741   0.631   1.188   2.893
    1PA     C16 8742   0.526   1.359   2.933
    1PA     H6R 8743   0.429   1.313   2.950
    1PA     H6S 8744   0.537   1.449   2.994
    1PA     C15 8745   0.536   1.412   2.789
    1PA     H5R 8746   0.640   1.441   2.770
    1PA     H5S 8747   0.516   1.340   2.709
    1PA     C14 8748   0.443   1.533   2.778
    1PA     H4R 8749   0.337   1.504   2.780
    1PA     H4S 8750   0.466   1.601   2.860
    1PA     C13 8751   0.465   1.610   2.647
    1PA     H3R 8752   0.380   1.677   2.635
    1PA     H3S 8753   0.550   1.679   2.656
    1PA     C12 8754   0.483   1.518   2.526
    1PA     H2R 8755   0.588   1.490   2.530
    1PA     H2S 8756   0.412   1.436   2.537
    2PC     C11 8757   0.455   1.586   2.394
    2PC     O12 8758   0.353   1.562   2.332
    2PC     O11 8759   0.553   1.667   2.352
    2PC      C1 8760   0.539   1.764   2.247
    2PC      HR 8761   0.631   1.823   2.251
    2PC      HS 8762   0.524   1.715   2.150
    2PC      C2 8763   0.434   1.868   2.289
    2PC      HX 8764   0.336   1.827   2.312
    2PC      C3 8765   0.404   1.964   2.173
    2PC      HA 8766   0.354   1.905   2.096
    2PC      HB 8767   0.337   2.041   2.211
    2PC     O31 8768   0.523   2.030   2.128
    2PC     P31 8769   0.527   2.125   1.999
    2PC     O32 8770   0.519   2.014   1.884
    2PC     C31 8771   0.458   2.053   1.760
    2PC     H1A 8772   0.350   2.068   1.774
    2PC     H1B 8773   0.493   2.148   1.718
    2PC     C32 8774   0.488   1.946   1.654
    2PC     H2A 8775   0.596   1.940   1.640
    2PC     H2B 8776   0.472   1.844   1.688
    2PC     N31 8777   0.437   1.965   1.515
    2PC     C33 8778   0.291   1.931   1.506
    2PC     H3A 8779   0.277   1.824   1.520
    2PC     H3B 8780   0.249   1.992   1.586
    2PC     H3C 8781   0.250   1.966   1.411
    2PC     C34 8782   0.458   2.102   1.457
    2PC     H4A 8783   0.433   2.102   1.351
    2PC     H4B 8784   0.408   2.181   1.514
    2PC     H4C 8785   0.565   2.119   1.466
    2PC     C35 8786   0.519   1.871   1.433
    2PC     H5A 8787   0.513   1.767   1.468
    2PC     H5B 8788   0.621   1.911   1.437
    2PC     H5C 8789   0.469   1.880   1.336
    2PC     O33 8790   0.418   2.226   1.998
    2PC     O34 8791   0.664   2.182   2.002
    2PC     O21 8792   0.490   1.932   2.404
    2PC     C21 8793   0.424   2.026   2.473
    2PC     O22 8794   0.303   2.035   2.463
    3OL     C12 8795   0.517   2.098   2.568
    3OL     H2R 8796   0.582   2.161   2.506
    3OL     H2S 8797   0.582   2.020   2.605
    3OL     C13 8798   0.444   2.178   2.677
    3OL     H3R 8799   0.383   2.106   2.731
    3OL     H3S 8800   0.380   2.264   2.655
    3OL     C14 8801   0.551   2.224   2.777
    3OL     H4R 8802   0.610   2.297   2.722
    3OL     H4S 8803   0.620   2.143   2.799
    3OL     C15 8804   0.505   2.301   2.902
    3OL     H5R 8805   0.443   2.240   2.968
    3OL     H5S 8806   0.434   2.373   2.861
    3OL     C16 8807   0.622   2.366   2.977
    3OL     H6R 8808   0.595   2.433   3.060
    3OL     H6S 8809   0.677   2.425   2.904
    3OL     C17 8810   0.725   2.275   3.046
    3OL     H7R 8811   0.817   2.330   3.027
    3OL     H7S 8812   0.734   2.180   2.993
    3OL     C18 8813   0.695   2.247   3.194
    3OL     H8R 8814   0.598   2.200   3.211
    3OL     H8S 8815   0.698   2.344   3.244
    3OL     C19 8816   0.790   2.141   3.243
    3OL     H9R 8817   0.750   2.046   3.208
    3OL    C110 8818   0.900   2.159   3.315
    3OL    H10R 8819   0.955   2.070   3.347
    3OL    C111 8820   0.969   2.290   3.341
    3OL    H11R 8821   0.978   2.301   3.449
    3OL    H11S 8822   0.906   2.370   3.302
    3OL    C112 8823   1.109   2.295   3.278
    3OL    H12R 8824   1.097   2.265   3.173
    3OL    H12S 8825   1.169   2.225   3.336
    3OL    C113 8826   1.185   2.427   3.292
    3OL    H13R 8827   1.153   2.505   3.222
    3OL    H13S 8828   1.289   2.408   3.264
    3OL    C114 8829   1.182   2.489   3.432
    3OL    H14R 8830   1.079   2.508   3.463
    3OL    H14S 8831   1.234   2.585   3.434
    3OL    C115 8832   1.253   2.416   3.547
    3OL    H15R 8833   1.186   2.334   3.575
    3OL    H15S 8834   1.259   2.484   3.632
    3OL    C116 8835   1.389   2.351   3.516
    3OL    H16R 8836   1.381   2.302   3.419
    3OL    H16S 8837   1.404   2.271   3.588
    3OL    C117 8838   1.505   2.450   3.498
    3OL    H17R 8839   1.509   2.510   3.589
    3OL    H17S 8840   1.487   2.518   3.414
    3OL    C118 8841   1.636   2.378   3.463
    3OL    H18R 8842   1.654   2.306   3.543
    3OL    H18S 8843   1.722   2.443   3.453
    3OL    H18T 8844   1.631   2.316   3.373
    1PA    C116 8845   1.070   4.256   4.565
    1PA    H16R 8846   1.132   4.343   4.590
    1PA    H16S 8847   1.072   4.188   4.650
    1PA    H16T 8848   0.966   4.289   4.565
    1PA    C115 8849   1.134   4.192   4.442
    1PA    H15R 8850   1.243   4.196   4.453
    1PA    H15S 8851   1.099   4.089   4.435
    1PA    C114 8852   1.084   4.266   4.317
    1PA    H14R 8853   0.980   4.233   4.308
    1PA    H14S 8854   1.082   4.375   4.330
    1PA    C113 8855   1.162   4.217   4.195
    1PA    H13R 8856   1.268   4.238   4.209
    1PA    H13S 8857   1.144   4.109   4.192
    1PA    C112 8858   1.111   4.292   4.071
    1PA    H12R 8859   1.009   4.324   4.094
    1PA    H12S 8860   1.167   4.385   4.075
    1PA    C111 8861   1.137   4.236   3.931
    1PA    H11R 8862   1.245   4.223   3.918
    1PA    H11S 8863   1.094   4.137   3.913
    1PA    C110 8864   1.080   4.317   3.813
    1PA    H10R 8865   0.980   4.357   3.827
    1PA    H10S 8866   1.147   4.402   3.799
    1PA     C19 8867   1.086   4.241   3.680
    1PA     H9R 8868   1.189   4.215   3.655
    1PA     H9S 8869   1.039   4.145   3.702
    1PA     C18 8870   1.009   4.315   3.570
    1PA     H8R 8871   0.902   4.316   3.596
    1PA     H8S 8872   1.039   4.420   3.573
    1PA     C17 8873   1.040   4.259   3.431
    1PA     H7R 8874   1.147   4.280   3.418
    1PA     H7S 8875   1.018   4.152   3.428
    1PA     C16 8876   0.968   4.327   3.314
    1PA     H6R 8877   0.859   4.321   3.318
    1PA     H6S 8878   0.986   4.433   3.330
    1PA     C15 8879   1.018   4.282   3.176
    1PA     H5R 8880   1.122   4.316   3.166
    1PA     H5S 8881   1.034   4.175   3.167
    1PA     C14 8882   0.935   4.325   3.054
    1PA     H4R 8883   0.830   4.304   3.075
    1PA     H4S 8884   0.945   4.433   3.043
    1PA     C13 8885   0.981   4.252   2.927
    1PA     H3R 8886   1.078   4.293   2.899
    1PA     H3S 8887   0.993   4.144   2.943
    1PA     C12 8888   0.882   4.291   2.817
    1PA     H2R 8889   0.782   4.256   2.845
    1PA     H2S 8890   0.884   4.396   2.788
    2PC     C11 8891   0.897   4.217   2.685
    2PC     O12 8892   0.800   4.207   2.613
    2PC     O11 8893   1.022   4.177   2.658
    2PC      C1 8894   1.044   4.103   2.536
    2PC      HR 8895   0.994   4.006   2.534
    2PC      HS 8896   1.016   4.167   2.452
    2PC      C2 8897   1.192   4.061   2.539
    2PC      HX 8898   1.249   4.125   2.606
    2PC      C3 8899   1.252   4.071   2.398
    2PC      HA 8900   1.285   4.172   2.370
    2PC      HB 8901   1.341   4.008   2.393
    2PC     O31 8902   1.151   4.033   2.303
    2PC     P31 8903   1.200   4.011   2.152
    2PC     O32 8904   1.060   3.998   2.075
    2PC     C31 8905   0.982   4.118   2.066
    2PC     H1A 8906   0.947   4.146   2.166
    2PC     H1B 8907   1.032   4.201   2.016
    2PC     C32 8908   0.853   4.068   1.999
    2PC     H2A 8909   0.887   4.009   1.913
    2PC     H2B 8910   0.796   4.005   2.067
    2PC     N31 8911   0.755   4.166   1.942
    2PC     C33 8912   0.632   4.090   1.907
    2PC     H3A 8913   0.594   4.040   1.997
    2PC     H3B 8914   0.553   4.157   1.873
    2PC     H3C 8915   0.650   4.004   1.841
    2PC     C34 8916   0.705   4.266   2.042
    2PC     H4A 8917   0.621   4.317   1.994
    2PC     H4B 8918   0.679   4.219   2.137
    2PC     H4C 8919   0.791   4.331   2.059
    2PC     C35 8920   0.801   4.237   1.818
    2PC     H5A 8921   0.901   4.278   1.837
    2PC     H5B 8922   0.726   4.316   1.809
    2PC     H5C 8923   0.803   4.172   1.731
    2PC     O33 8924   1.285   4.123   2.105
    2PC     O34 8925   1.280   3.888   2.131
    2PC     O21 8926   1.210   3.930   2.595
    2PC     C21 8927   1.332   3.880   2.621
    2PC     O22 8928   1.435   3.940   2.597
    3OL     C12 8929   1.323   3.742   2.681
    3OL     H2R 8930   1.420   3.718   2.725
    3OL     H2S 8931   1.312   3.678   2.593
    3OL     C13 8932   1.195   3.717   2.762
    3OL     H3R 8933   1.103   3.714   2.704
    3OL     H3S 8934   1.183   3.796   2.838
    3OL     C14 8935   1.198   3.584   2.839
    3OL     H4R 8936   1.288   3.591   2.900
    3OL     H4S 8937   1.202   3.506   2.763
    3OL     C15 8938   1.070   3.572   2.923
    3OL     H5R 8939   0.990   3.564   2.850
    3OL     H5S 8940   1.068   3.665   2.980
    3OL     C16 8941   1.074   3.443   3.006
    3OL     H6R 8942   1.085   3.357   2.939
    3OL     H6S 8943   0.980   3.441   3.061
    3OL     C17 8944   1.186   3.435   3.112
    3OL     H7R 8945   1.176   3.523   3.175
    3OL     H7S 8946   1.281   3.437   3.059
    3OL     C18 8947   1.185   3.302   3.188
    3OL     H8R 8948   1.240   3.324   3.280
    3OL     H8S 8949   1.227   3.225   3.124
    3OL     C19 8950   1.051   3.246   3.229
    3OL     H9R 8951   1.034   3.148   3.186
    3OL    C110 8952   0.965   3.296   3.316
    3OL    H10R 8953   0.872   3.243   3.337
    3OL    C111 8954   0.953   3.432   3.379
    3OL    H11R 8955   0.868   3.493   3.348
    3OL    H11S 8956   1.036   3.497   3.349
    3OL    C112 8957   0.941   3.424   3.532
    3OL    H12R 8958   0.954   3.521   3.580
    3OL    H12S 8959   1.012   3.349   3.569
    3OL    C113 8960   0.804   3.374   3.579
    3OL    H13R 8961   0.798   3.265   3.571
    3OL    H13S 8962   0.725   3.421   3.520
    3OL    C114 8963   0.774   3.413   3.724
    3OL    H14R 8964   0.854   3.390   3.795
    3OL    H14S 8965   0.686   3.354   3.751
    3OL    C115 8966   0.723   3.558   3.732
    3OL    H15R 8967   0.630   3.575   3.678
    3OL    H15S 8968   0.795   3.630   3.692
    3OL    C116 8969   0.706   3.600   3.878
    3OL    H16R 8970   0.783   3.671   3.909
    3OL    H16S 8971   0.715   3.517   3.948
    3OL    C117 8972   0.566   3.659   3.906
    3OL    H17R 8973   0.494   3.580   3.885
    3OL    H17S 8974   0.538   3.741   3.839
    3OL    C118 8975   0.542   3.700   4.052
    3OL    H18R 8976   0.516   3.607   4.102
    3OL    H18S 8977   0.451   3.759   4.044
    3OL    H18T 8978   0.625   3.752   4.101
    1PA    C116 8979   6.460   3.221   3.571
    1PA    H16R 8980   6.399   3.311   3.561
    1PA    H16S 8981   6.442   3.181   3.671
    1PA    H16T 8982   6.430   3.144   3.499
    1PA    C115 8983   0.118   3.264   3.556
    1PA    H15R 8984   0.168   3.168   3.543
    1PA    H15S 8985   0.121   3.331   3.470
    1PA    C114 8986   0.174   3.329   3.682
    1PA    H14R 8987   0.148   3.260   3.763
    1PA    H14S 8988   0.283   3.322   3.679
    1PA    C113 8989   0.116   3.468   3.710
    1PA    H13R 8990   0.038   3.487   3.636
    1PA    H13S 8991   0.074   3.469   3.811
    1PA    C112 8992   0.226   3.575   3.710
    1PA    H12R 8993   0.179   3.660   3.759
    1PA    H12S 8994   0.306   3.552   3.780
    1PA    C111 8995   0.273   3.622   3.571
    1PA    H11R 8996   0.177   3.633   3.520
    1PA    H11S 8997   0.307   3.726   3.577
    1PA    C110 8998   0.364   3.528   3.491
    1PA    H10R 8999   0.445   3.494   3.556
    1PA    H10S 9000   0.313   3.440   3.451
    1PA     C19 9001   0.431   3.611   3.381
    1PA     H9R 9002   0.362   3.666   3.318
    1PA     H9S 9003   0.500   3.688   3.416
    1PA     C18 9004   0.509   3.506   3.299
    1PA     H8R 9005   0.559   3.435   3.366
    1PA     H8S 9006   0.436   3.452   3.239
    1PA     C17 9007   0.606   3.583   3.208
    1PA     H7R 9008   0.549   3.669   3.173
    1PA     H7S 9009   0.687   3.621   3.271
    1PA     C16 9010   0.670   3.484   3.110
    1PA     H6R 9011   0.772   3.518   3.091
    1PA     H6S 9012   0.680   3.385   3.154
    1PA     C15 9013   0.587   3.490   2.980
    1PA     H5R 9014   0.483   3.465   3.003
    1PA     H5S 9015   0.590   3.584   2.926
    1PA     C14 9016   0.649   3.385   2.887
    1PA     H4R 9017   0.753   3.406   2.864
    1PA     H4S 9018   0.635   3.288   2.937
    1PA     C13 9019   0.567   3.382   2.757
    1PA     H3R 9020   0.551   3.282   2.715
    1PA     H3S 9021   0.465   3.410   2.783
    1PA     C12 9022   0.625   3.472   2.647
    1PA     H2R 9023   0.589   3.567   2.689
    1PA     H2S 9024   0.733   3.486   2.652
    2PC     C11 9025   0.579   3.453   2.505
    2PC     O12 9026   0.639   3.490   2.406
    2PC     O11 9027   0.456   3.398   2.502
    2PC      C1 9028   0.402   3.383   2.369
    2PC      HR 9029   0.423   3.472   2.310
    2PC      HS 9030   0.457   3.299   2.326
    2PC      C2 9031   0.255   3.337   2.376
    2PC      HX 9032   0.251   3.238   2.422
    2PC      C3 9033   0.196   3.325   2.235
    2PC      HA 9034   0.257   3.256   2.176
    2PC      HB 9035   0.092   3.292   2.232
    2PC     O31 9036   0.204   3.458   2.180
    2PC     P31 9037   0.167   3.468   2.025
    2PC     O32 9038   0.305   3.454   1.946
    2PC     C31 9039   0.304   3.404   1.811
    2PC     H1A 9040   0.396   3.346   1.803
    2PC     H1B 9041   0.226   3.329   1.797
    2PC     C32 9042   0.295   3.528   1.720
    2PC     H2A 9043   0.224   3.590   1.774
    2PC     H2B 9044   0.393   3.575   1.718
    2PC     N31 9045   0.265   3.514   1.574
    2PC     C33 9046   0.140   3.435   1.548
    2PC     H3A 9047   0.144   3.412   1.442
    2PC     H3B 9048   0.140   3.346   1.611
    2PC     H3C 9049   0.050   3.494   1.569
    2PC     C34 9050   0.244   3.651   1.517
    2PC     H4A 9051   0.337   3.703   1.538
    2PC     H4B 9052   0.225   3.646   1.409
    2PC     H4C 9053   0.154   3.690   1.566
    2PC     C35 9054   0.380   3.446   1.506
    2PC     H5A 9055   0.473   3.483   1.550
    2PC     H5B 9056   0.375   3.462   1.399
    2PC     H5C 9057   0.375   3.339   1.525
    2PC     O33 9058   0.079   3.357   1.983
    2PC     O34 9059   0.109   3.601   1.993
    2PC     O21 9060   0.176   3.422   2.461
    2PC     C21 9061   0.047   3.391   2.480
    2PC     O22 9062   6.483   3.283   2.462
    3OL     C12 9063   6.466   3.513   2.536
    3OL     H2R 9064   6.462   3.586   2.455
    3OL     H2S 9065   0.038   3.551   2.618
    3OL     C13 9066   6.320   3.479   2.570
    3OL     H3R 9067   6.323   3.417   2.660
    3OL     H3S 9068   6.284   3.416   2.489
    3OL     C14 9069   6.231   3.604   2.578
    3OL     H4R 9070   6.137   3.589   2.523
    3OL     H4S 9071   6.279   3.691   2.533
    3OL     C15 9072   6.200   3.633   2.725
    3OL     H5R 9073   6.293   3.654   2.778
    3OL     H5S 9074   6.158   3.540   2.764
    3OL     C16 9075   6.096   3.743   2.747
    3OL     H6R 9076   6.125   3.836   2.698
    3OL     H6S 9077   6.079   3.754   2.854
    3OL     C17 9078   5.956   3.707   2.694
    3OL     H7R 9079   5.915   3.617   2.740
    3OL     H7S 9080   5.955   3.703   2.585
    3OL     C18 9081   5.853   3.812   2.737
    3OL     H8R 9082   5.875   3.846   2.839
    3OL     H8S 9083   5.750   3.776   2.737
    3OL     C19 9084   5.855   3.926   2.638
    3OL     H9R 9085   5.882   3.904   2.535
    3OL    C110 9086   5.835   4.053   2.668
    3OL    H10R 9087   5.830   4.127   2.588
    3OL    C111 9088   5.788   4.104   2.802
    3OL    H11R 9089   5.736   4.026   2.857
    3OL    H11S 9090   5.706   4.174   2.785
    3OL    C112 9091   5.897   4.167   2.889
    3OL    H12R 9092   5.977   4.102   2.926
    3OL    H12S 9093   5.842   4.194   2.980
    3OL    C113 9094   5.957   4.289   2.817
    3OL    H13R 9095   5.887   4.373   2.810
    3OL    H13S 9096   5.986   4.270   2.713
    3OL    C114 9097   6.076   4.342   2.897
    3OL    H14R 9098   6.159   4.272   2.914
    3OL    H14S 9099   6.042   4.365   2.998
    3OL    C115 9100   6.133   4.470   2.833
    3OL    H15R 9101   6.054   4.544   2.838
    3OL    H15S 9102   6.153   4.453   2.727
    3OL    C116 9103   6.251   4.539   2.904
    3OL    H16R 9104   6.252   4.647   2.890
    3OL    H16S 9105   6.340   4.489   2.866
    3OL    C117 9106   6.252   4.529   3.057
    3OL    H17R 9107   6.264   4.424   3.086
    3OL    H17S 9108   6.158   4.566   3.099
    3OL    C118 9109   6.364   4.615   3.116
    3OL    H18R 9110   6.456   4.609   3.059
    3OL    H18S 9111   6.390   4.571   3.213
    3OL    H18T 9112   6.341   4.718   3.144
    1PA    C116 9113   1.246   1.214   3.361
    1PA    H16R 9114   1.223   1.305   3.305
    1PA    H16S 9115   1.190   1.132   3.317
    1PA    H16T 9116   1.351   1.185   3.355
    1PA    C115 9117   1.206   1.245   3.506
    1PA    H15R 9118   1.200   1.150   3.559
    1PA    H15S 9119   1.281   1.305   3.559
    1PA    C114 9120   1.075   1.324   3.499
    1PA    H14R 9121   1.010   1.274   3.427
    1PA    H14S 9122   1.015   1.313   3.590
    1PA    C113 9123   1.088   1.471   3.457
    1PA    H13R 9124   1.132   1.529   3.538
    1PA    H13S 9125   1.158   1.486   3.375
    1PA    C112 9126   0.954   1.540   3.425
    1PA    H12R 9127   0.871   1.508   3.488
    1PA    H12S 9128   0.977   1.642   3.459
    1PA    C111 9129   0.929   1.533   3.274
    1PA    H11R 9130   1.012   1.587   3.228
    1PA    H11S 9131   0.933   1.434   3.229
    1PA    C110 9132   0.805   1.606   3.221
    1PA    H10R 9133   0.819   1.635   3.117
    1PA    H10S 9134   0.724   1.533   3.226
    1PA     C19 9135   0.770   1.732   3.301
    1PA     H9R 9136   0.743   1.708   3.404
    1PA     H9S 9137   0.858   1.796   3.310
    1PA     C18 9138   0.664   1.821   3.233
    1PA     H8R 9139   0.636   1.909   3.292
    1PA     H8S 9140   0.696   1.869   3.141
    1PA     C17 9141   0.529   1.760   3.192
    1PA     H7R 9142   0.557   1.693   3.110
    1PA     H7S 9143   0.489   1.701   3.275
    1PA     C16 9144   0.431   1.870   3.147
    1PA     H6R 9145   0.437   1.952   3.219
    1PA     H6S 9146   0.462   1.916   3.053
    1PA     C15 9147   0.287   1.820   3.160
    1PA     H5R 9148   0.278   1.743   3.082
    1PA     H5S 9149   0.274   1.773   3.257
    1PA     C14 9150   0.183   1.932   3.143
    1PA     H4R 9151   0.089   1.901   3.189
    1PA     H4S 9152   0.221   2.014   3.204
    1PA     C13 9153   0.158   1.962   2.994
    1PA     H3R 9154   0.164   2.070   2.980
    1PA     H3S 9155   0.236   1.919   2.931
    1PA     C12 9156   0.025   1.917   2.934
    1PA     H2R 9157   0.011   1.808   2.933
    1PA     H2S 9158   6.434   1.964   2.992
    2PC     C11 9159   0.019   1.957   2.789
    2PC     O12 9160   0.009   1.875   2.700
    2PC     O11 9161   0.025   2.090   2.771
    2PC      C1 9162   0.013   2.147   2.639
    2PC      HR 9163   0.033   2.255   2.637
    2PC      HS 9164   0.074   2.094   2.566
    2PC      C2 9165   6.359   2.135   2.585
    2PC      HX 9166   6.326   2.030   2.582
    2PC      C3 9167   6.336   2.199   2.447
    2PC      HA 9168   6.357   2.305   2.431
    2PC      HB 9169   6.387   2.139   2.372
    2PC     O31 9170   6.197   2.185   2.411
    2PC     P31 9171   6.108   2.284   2.322
    2PC     O32 9172   6.079   2.181   2.202
    2PC     C31 9173   6.166   2.190   2.088
    2PC     H1A 9174   6.132   2.261   2.013
    2PC     H1B 9175   6.262   2.232   2.118
    2PC     C32 9176   6.185   2.052   2.023
    2PC     H2A 9177   6.206   2.065   1.917
    2PC     H2B 9178   6.278   2.009   2.061
    2PC     N31 9179   6.074   1.952   2.036
    2PC     C33 9180   6.093   1.838   1.941
    2PC     H3A 9181   6.177   1.773   1.968
    2PC     H3B 9182   5.999   1.783   1.934
    2PC     H3C 9183   6.116   1.891   1.848
    2PC     C34 9184   6.063   1.887   2.171
    2PC     H4A 9185   5.974   1.824   2.169
    2PC     H4B 9186   6.153   1.831   2.196
    2PC     H4C 9187   6.045   1.951   2.257
    2PC     C35 9188   5.943   2.018   2.006
    2PC     H5A 9189   5.956   2.088   1.924
    2PC     H5B 9190   5.911   2.082   2.089
    2PC     H5C 9191   5.866   1.943   1.985
    2PC     O33 9192   5.980   2.332   2.379
    2PC     O34 9193   6.192   2.399   2.282
    2PC     O21 9194   6.274   2.204   2.678
    2PC     C21 9195   6.143   2.174   2.688
    2PC     O22 9196   6.100   2.077   2.629
    3OL     C12 9197   6.066   2.275   2.768
    3OL     H2R 9198   6.087   2.249   2.872
    3OL     H2S 9199   5.963   2.248   2.743
    3OL     C13 9200   6.094   2.418   2.719
    3OL     H3R 9201   6.194   2.456   2.742
    3OL     H3S 9202   6.093   2.415   2.610
    3OL     C14 9203   5.989   2.520   2.765
    3OL     H4R 9204   5.888   2.481   2.752
    3OL     H4S 9205   5.991   2.614   2.709
    3OL     C15 9206   5.992   2.568   2.911
    3OL     H5R 9207   5.992   2.485   2.982
    3OL     H5S 9208   5.910   2.639   2.926
    3OL     C16 9209   6.127   2.637   2.935
    3OL     H6R 9210   6.170   2.677   2.842
    3OL     H6S 9211   6.205   2.571   2.972
    3OL     C17 9212   6.126   2.755   3.034
    3OL     H7R 9213   6.050   2.828   3.005
    3OL     H7S 9214   6.224   2.803   3.028
    3OL     C18 9215   6.085   2.701   3.172
    3OL     H8R 9216   5.999   2.635   3.164
    3OL     H8S 9217   6.059   2.783   3.239
    3OL     C19 9218   6.197   2.620   3.233
    3OL     H9R 9219   6.167   2.515   3.226
    3OL    C110 9220   6.307   2.647   3.300
    3OL    H10R 9221   6.377   2.573   3.338
    3OL    C111 9222   6.361   2.786   3.322
    3OL    H11R 9223   6.360   2.795   3.431
    3OL    H11S 9224   6.295   2.861   3.278
    3OL    C112 9225   0.013   2.805   3.262
    3OL    H12R 9226   6.487   2.793   3.154
    3OL    H12S 9227   0.083   2.729   3.296
    3OL    C113 9228   0.081   2.934   3.310
    3OL    H13R 9229   0.099   2.939   3.417
    3OL    H13S 9230   0.006   3.014   3.303
    3OL    C114 9231   0.207   2.957   3.226
    3OL    H14R 9232   0.186   2.971   3.120
    3OL    H14S 9233   0.267   2.866   3.225
    3OL    C115 9234   0.300   3.073   3.265
    3OL    H15R 9235   0.244   3.162   3.295
    3OL    H15S 9236   0.365   3.107   3.183
    3OL    C116 9237   0.397   3.032   3.376
    3OL    H16R 9238   0.468   2.956   3.342
    3OL    H16S 9239   0.337   2.992   3.459
    3OL    C117 9240   0.487   3.148   3.421
    3OL    H17R 9241   0.516   3.120   3.522
    3OL    H17S 9242   0.433   3.243   3.422
    3OL    C118 9243   0.601   3.162   3.320
    3OL    H18R 9244   0.682   3.218   3.367
    3OL    H18S 9245   0.570   3.204   3.224
    3OL    H18T 9246   0.647   3.067   3.292
    1PA    C116 9247   6.158   1.074   3.517
    1PA    H16R 9248   6.114   1.148   3.450
    1PA    H16S 9249   6.172   1.119   3.616
    1PA    H16T 9250   6.091   0.989   3.534
    1PA    C115 9251   6.290   1.027   3.455
    1PA    H15R 9252   6.338   1.123   3.431
    1PA    H15S 9253   6.347   0.961   3.520
    1PA    C114 9254   6.272   0.942   3.328
    1PA    H14R 9255   6.205   0.858   3.346
    1PA    H14S 9256   6.221   0.996   3.248
    1PA    C113 9257   6.394   0.873   3.267
    1PA    H13R 9258   6.482   0.938   3.270
    1PA    H13S 9259   6.431   0.796   3.335
    1PA    C112 9260   6.375   0.796   3.135
    1PA    H12R 9261   6.298   0.721   3.155
    1PA    H12S 9262   6.331   0.856   3.055
    1PA    C111 9263   0.019   0.738   3.084
    1PA    H11R 9264   0.097   0.814   3.074
    1PA    H11S 9265   0.062   0.665   3.153
    1PA    C110 9266   6.479   0.666   2.952
    1PA    H10R 9267   6.396   0.595   2.956
    1PA    H10S 9268   6.468   0.749   2.882
    1PA     C19 9269   0.113   0.581   2.914
    1PA     H9R 9270   0.203   0.641   2.928
    1PA     H9S 9271   0.116   0.501   2.988
    1PA     C18 9272   0.099   0.516   2.776
    1PA     H8R 9273   0.176   0.439   2.767
    1PA     H8S 9274   0.004   0.464   2.782
    1PA     C17 9275   0.095   0.616   2.659
    1PA     H7R 9276   6.488   0.668   2.672
    1PA     H7S 9277   0.172   0.693   2.668
    1PA     C16 9278   0.105   0.548   2.522
    1PA     H6R 9279   0.196   0.488   2.515
    1PA     H6S 9280   0.010   0.497   2.510
    1PA     C15 9281   0.124   0.648   2.407
    1PA     H5R 9282   0.037   0.713   2.404
    1PA     H5S 9283   0.212   0.710   2.426
    1PA     C14 9284   0.138   0.570   2.275
    1PA     H4R 9285   0.198   0.481   2.294
    1PA     H4S 9286   0.047   0.524   2.235
    1PA     C13 9287   0.201   0.655   2.164
    1PA     H3R 9288   0.140   0.746   2.152
    1PA     H3S 9289   0.304   0.676   2.192
    1PA     C12 9290   0.177   0.584   2.030
    1PA     H2R 9291   0.242   0.498   2.012
    1PA     H2S 9292   0.073   0.550   2.027
    2PC     C11 9293   0.190   0.672   1.908
    2PC     O12 9294   0.151   0.629   1.801
    2PC     O11 9295   0.259   0.784   1.934
    2PC      C1 9296   0.302   0.878   1.834
    2PC      HR 9297   0.363   0.963   1.866
    2PC      HS 9298   0.371   0.829   1.765
    2PC      C2 9299   0.174   0.932   1.769
    2PC      HX 9300   0.108   0.849   1.742
    2PC      C3 9301   0.207   1.023   1.650
    2PC      HA 9302   0.289   1.091   1.674
    2PC      HB 9303   0.223   0.961   1.561
    2PC     O31 9304   0.086   1.093   1.620
    2PC     P31 9305   0.077   1.216   1.517
    2PC     O32 9306   0.066   1.130   1.382
    2PC     C31 9307   0.090   1.203   1.260
    2PC     H1A 9308   0.022   1.289   1.262
    2PC     H1B 9309   0.195   1.231   1.255
    2PC     C32 9310   0.055   1.114   1.140
    2PC     H2A 9311   6.444   1.074   1.162
    2PC     H2B 9312   0.052   1.176   1.051
    2PC     N31 9313   0.145   1.000   1.104
    2PC     C33 9314   0.260   1.054   1.024
    2PC     H3A 9315   0.342   0.982   1.020
    2PC     H3B 9316   0.218   1.085   0.929
    2PC     H3C 9317   0.300   1.141   1.077
    2PC     C34 9318   0.208   0.935   1.224
    2PC     H4A 9319   0.270   1.009   1.275
    2PC     H4B 9320   0.128   0.893   1.286
    2PC     H4C 9321   0.266   0.850   1.189
    2PC     C35 9322   0.068   0.897   1.028
    2PC     H5A 9323   0.141   0.820   1.005
    2PC     H5B 9324   0.022   0.943   0.941
    2PC     H5C 9325   6.482   0.852   1.094
    2PC     O33 9326   6.443   1.289   1.555
    2PC     O34 9327   0.199   1.299   1.524
    2PC     O21 9328   0.111   1.018   1.866
    2PC     C21 9329   0.019   0.979   1.956
    2PC     O22 9330   6.459   0.871   1.933
    3OL     C12 9331   6.484   1.076   2.068
    3OL     H2R 9332   6.413   1.154   2.036
    3OL     H2S 9333   0.091   1.125   2.088
    3OL     C13 9334   6.434   1.005   2.195
    3OL     H3R 9335   0.010   0.920   2.217
    3OL     H3S 9336   6.331   0.972   2.183
    3OL     C14 9337   6.460   1.095   2.317
    3OL     H4R 9338   6.414   1.191   2.295
    3OL     H4S 9339   0.079   1.116   2.317
    3OL     C15 9340   6.409   1.037   2.450
    3OL     H5R 9341   6.462   1.078   2.536
    3OL     H5S 9342   6.425   0.929   2.461
    3OL     C16 9343   6.260   1.070   2.466
    3OL     H6R 9344   6.213   1.041   2.372
    3OL     H6S 9345   6.253   1.178   2.478
    3OL     C17 9346   6.193   0.988   2.576
    3OL     H7R 9347   6.245   0.893   2.593
    3OL     H7S 9348   6.086   0.977   2.556
    3OL     C18 9349   6.212   1.063   2.708
    3OL     H8R 9350   6.161   1.159   2.697
    3OL     H8S 9351   6.319   1.065   2.727
    3OL     C19 9352   6.151   0.981   2.820
    3OL     H9R 9353   6.117   0.880   2.798
    3OL    C110 9354   6.130   1.033   2.940
    3OL    H10R 9355   6.079   0.968   3.010
    3OL    C111 9356   6.155   1.177   2.977
    3OL    H11R 9357   6.202   1.234   2.897
    3OL    H11S 9358   6.225   1.184   3.061
    3OL    C112 9359   6.023   1.240   3.022
    3OL    H12R 9360   6.043   1.323   3.091
    3OL    H12S 9361   5.969   1.165   3.080
    3OL    C113 9362   5.937   1.280   2.901
    3OL    H13R 9363   5.920   1.190   2.841
    3OL    H13S 9364   5.993   1.348   2.837
    3OL    C114 9365   5.804   1.343   2.943
    3OL    H14R 9366   5.749   1.273   3.007
    3OL    H14S 9367   5.733   1.356   2.861
    3OL    C115 9368   5.820   1.477   3.016
    3OL    H15R 9369   5.852   1.552   2.944
    3OL    H15S 9370   5.884   1.467   3.104
    3OL    C116 9371   5.683   1.529   3.062
    3OL    H16R 9372   5.633   1.450   3.119
    3OL    H16S 9373   5.613   1.557   2.983
    3OL    C117 9374   5.695   1.654   3.151
    3OL    H17R 9375   5.742   1.741   3.104
    3OL    H17S 9376   5.751   1.611   3.234
    3OL    C118 9377   5.557   1.703   3.199
    3OL    H18R 9378   5.568   1.776   3.279
    3OL    H18S 9379   5.513   1.610   3.235
    3OL    H18T 9380   5.512   1.755   3.115
    1PA    C116 9381   3.254   1.332   3.684
    1PA    H16R 9382   3.323   1.274   3.622
    1PA    H16S 9383   3.206   1.258   3.748
    1PA    H16T 9384   3.301   1.413   3.741
    1PA    C115 9385   3.147   1.391   3.591
    1PA    H15R 9386   3.073   1.451   3.645
    1PA    H15S 9387   3.191   1.450   3.511
    1PA    C114 9388   3.066   1.272   3.537
    1PA    H14R 9389   3.137   1.202   3.491
    1PA    H14S 9390   3.023   1.208   3.614
    1PA    C113 9391   2.960   1.302   3.430
    1PA    H13R 9392   3.012   1.340   3.341
    1PA    H13S 9393   2.905   1.209   3.418
    1PA    C112 9394   2.861   1.410   3.473
    1PA    H12R 9395   2.816   1.386   3.570
    1PA    H12S 9396   2.905   1.509   3.489
    1PA    C111 9397   2.752   1.426   3.367
    1PA    H11R 9398   2.806   1.455   3.277
    1PA    H11S 9399   2.708   1.327   3.352
    1PA    C110 9400   2.656   1.539   3.407
    1PA    H10R 9401   2.594   1.505   3.491
    1PA    H10S 9402   2.707   1.632   3.432
    1PA     C19 9403   2.552   1.563   3.296
    1PA     H9R 9404   2.541   1.475   3.232
    1PA     H9S 9405   2.455   1.590   3.337
    1PA     C18 9406   2.611   1.668   3.202
    1PA     H8R 9407   2.611   1.768   3.245
    1PA     H8S 9408   2.714   1.639   3.180
    1PA     C17 9409   2.528   1.684   3.074
    1PA     H7R 9410   2.522   1.591   3.017
    1PA     H7S 9411   2.430   1.723   3.104
    1PA     C16 9412   2.602   1.779   2.978
    1PA     H6R 9413   2.608   1.881   3.017
    1PA     H6S 9414   2.701   1.744   2.949
    1PA     C15 9415   2.517   1.801   2.852
    1PA     H5R 9416   2.517   1.709   2.793
    1PA     H5S 9417   2.413   1.826   2.874
    1PA     C14 9418   2.582   1.906   2.761
    1PA     H4R 9419   2.573   2.009   2.794
    1PA     H4S 9420   2.688   1.882   2.744
    1PA     C13 9421   2.507   1.911   2.628
    1PA     H3R 9422   2.502   1.811   2.583
    1PA     H3S 9423   2.409   1.954   2.651
    1PA     C12 9424   2.577   1.995   2.521
    1PA     H2R 9425   2.589   2.100   2.548
    1PA     H2S 9426   2.676   1.954   2.502
    2PC     C11 9427   2.501   1.980   2.391
    2PC     O12 9428   2.419   2.056   2.345
    2PC     O11 9429   2.522   1.860   2.332
    2PC      C1 9430   2.438   1.811   2.227
    2PC      HR 9431   2.338   1.794   2.267
    2PC      HS 9432   2.434   1.888   2.148
    2PC      C2 9433   2.507   1.687   2.170
    2PC      HX 9434   2.612   1.714   2.158
    2PC      C3 9435   2.457   1.644   2.031
    2PC      HA 9436   2.348   1.645   2.032
    2PC      HB 9437   2.493   1.713   1.955
    2PC     O31 9438   2.519   1.517   2.003
    2PC     P31 9439   2.466   1.431   1.878
    2PC     O32 9440   2.600   1.376   1.810
    2PC     C31 9441   2.710   1.468   1.804
    2PC     H1A 9442   2.681   1.546   1.733
    2PC     H1B 9443   2.732   1.514   1.901
    2PC     C32 9444   2.833   1.388   1.761
    2PC     H2A 9445   2.875   1.337   1.847
    2PC     H2B 9446   2.806   1.306   1.694
    2PC     N31 9447   2.950   1.462   1.704
    2PC     C33 9448   2.925   1.522   1.569
    2PC     H3A 9449   3.022   1.539   1.522
    2PC     H3B 9450   2.872   1.450   1.507
    2PC     H3C 9451   2.864   1.612   1.575
    2PC     C34 9452   2.992   1.567   1.802
    2PC     H4A 9453   2.909   1.628   1.840
    2PC     H4B 9454   3.040   1.515   1.885
    2PC     H4C 9455   3.065   1.630   1.752
    2PC     C35 9456   3.058   1.359   1.695
    2PC     H5A 9457   3.145   1.408   1.652
    2PC     H5B 9458   3.025   1.274   1.634
    2PC     H5C 9459   3.068   1.319   1.796
    2PC     O33 9460   2.378   1.318   1.918
    2PC     O34 9461   2.387   1.510   1.781
    2PC     O21 9462   2.498   1.586   2.272
    2PC     C21 9463   2.379   1.530   2.301
    2PC     O22 9464   2.275   1.562   2.248
    3OL     C12 9465   2.390   1.409   2.390
    3OL     H2R 9466   2.487   1.389   2.436
    3OL     H2S 9467   2.362   1.319   2.335
    3OL     C13 9468   2.295   1.428   2.509
    3OL     H3R 9469   2.290   1.343   2.579
    3OL     H3S 9470   2.193   1.441   2.474
    3OL     C14 9471   2.330   1.554   2.589
    3OL     H4R 9472   2.324   1.647   2.532
    3OL     H4S 9473   2.432   1.543   2.627
    3OL     C15 9474   2.229   1.578   2.703
    3OL     H5R 9475   2.128   1.582   2.663
    3OL     H5S 9476   2.238   1.677   2.748
    3OL     C16 9477   2.241   1.482   2.822
    3OL     H6R 9478   2.335   1.497   2.876
    3OL     H6S 9479   2.248   1.381   2.780
    3OL     C17 9480   2.129   1.489   2.927
    3OL     H7R 9481   2.050   1.423   2.891
    3OL     H7S 9482   2.097   1.593   2.936
    3OL     C18 9483   2.176   1.431   3.061
    3OL     H8R 9484   2.266   1.478   3.100
    3OL     H8S 9485   2.200   1.327   3.037
    3OL     C19 9486   2.068   1.427   3.166
    3OL     H9R 9487   1.987   1.356   3.151
    3OL    C110 9488   2.047   1.521   3.257
    3OL    H10R 9489   1.954   1.516   3.314
    3OL    C111 9490   2.123   1.646   3.292
    3OL    H11R 9491   2.073   1.728   3.240
    3OL    H11S 9492   2.217   1.638   3.236
    3OL    C112 9493   2.147   1.667   3.442
    3OL    H12R 9494   2.202   1.583   3.485
    3OL    H12S 9495   2.049   1.661   3.489
    3OL    C113 9496   2.218   1.801   3.465
    3OL    H13R 9497   2.162   1.884   3.421
    3OL    H13S 9498   2.309   1.808   3.405
    3OL    C114 9499   2.249   1.827   3.613
    3OL    H14R 9500   2.322   1.908   3.609
    3OL    H14S 9501   2.293   1.735   3.653
    3OL    C115 9502   2.125   1.868   3.694
    3OL    H15R 9503   2.041   1.806   3.664
    3OL    H15S 9504   2.083   1.964   3.662
    3OL    C116 9505   2.131   1.846   3.846
    3OL    H16R 9506   2.158   1.741   3.856
    3OL    H16S 9507   2.034   1.868   3.891
    3OL    C117 9508   2.233   1.933   3.921
    3OL    H17R 9509   2.209   2.039   3.911
    3OL    H17S 9510   2.329   1.942   3.870
    3OL    C118 9511   2.255   1.884   4.065
    3OL    H18R 9512   2.165   1.893   4.125
    3OL    H18S 9513   2.337   1.951   4.090
    3OL    H18T 9514   2.281   1.778   4.055
    1PA    C116 9515   1.991   1.285   3.553
    1PA    H16R 9516   1.925   1.320   3.632
    1PA    H16S 9517   1.965   1.183   3.523
    1PA    H16T 9518   1.967   1.350   3.468
    1PA    C115 9519   2.139   1.295   3.591
    1PA    H15R 9520   2.165   1.401   3.594
    1PA    H15S 9521   2.150   1.269   3.696
    1PA    C114 9522   2.226   1.223   3.488
    1PA    H14R 9523   2.203   1.116   3.495
    1PA    H14S 9524   2.193   1.257   3.390
    1PA    C113 9525   2.372   1.250   3.528
    1PA    H13R 9526   2.400   1.349   3.489
    1PA    H13S 9527   2.400   1.244   3.633
    1PA    C112 9528   2.459   1.147   3.455
    1PA    H12R 9529   2.562   1.153   3.492
    1PA    H12S 9530   2.424   1.047   3.479
    1PA    C111 9531   2.453   1.165   3.303
    1PA    H11R 9532   2.353   1.150   3.262
    1PA    H11S 9533   2.481   1.267   3.276
    1PA    C110 9534   2.565   1.083   3.237
    1PA    H10R 9535   2.659   1.125   3.272
    1PA    H10S 9536   2.563   0.976   3.260
    1PA     C19 9537   2.556   1.079   3.084
    1PA     H9R 9538   2.634   1.014   3.045
    1PA     H9S 9539   2.455   1.046   3.055
    1PA     C18 9540   2.574   1.220   3.028
    1PA     H8R 9541   2.478   1.273   3.031
    1PA     H8S 9542   2.645   1.276   3.091
    1PA     C17 9543   2.638   1.214   2.889
    1PA     H7R 9544   2.738   1.170   2.889
    1PA     H7S 9545   2.580   1.145   2.828
    1PA     C16 9546   2.645   1.354   2.825
    1PA     H6R 9547   2.542   1.387   2.809
    1PA     H6S 9548   2.683   1.427   2.896
    1PA     C15 9549   2.715   1.343   2.689
    1PA     H5R 9550   2.820   1.317   2.705
    1PA     H5S 9551   2.660   1.278   2.620
    1PA     C14 9552   2.727   1.484   2.630
    1PA     H4R 9553   2.633   1.530   2.601
    1PA     H4S 9554   2.765   1.558   2.701
    1PA     C13 9555   2.833   1.480   2.519
    1PA     H3R 9556   2.929   1.443   2.556
    1PA     H3S 9557   2.804   1.408   2.442
    1PA     C12 9558   2.849   1.619   2.455
    1PA     H2R 9559   2.750   1.642   2.416
    1PA     H2S 9560   2.884   1.693   2.527
    2PC     C11 9561   2.948   1.621   2.341
    2PC     O12 9562   2.923   1.649   2.226
    2PC     O11 9563   3.072   1.586   2.378
    2PC      C1 9564   3.165   1.542   2.277
    2PC      HR 9565   3.237   1.473   2.322
    2PC      HS 9566   3.109   1.495   2.195
    2PC      C2 9567   3.235   1.668   2.224
    2PC      HX 9568   3.162   1.742   2.191
    2PC      C3 9569   3.306   1.617   2.098
    2PC      HA 9570   3.233   1.583   2.023
    2PC      HB 9571   3.360   1.697   2.048
    2PC     O31 9572   3.386   1.501   2.129
    2PC     P31 9573   3.468   1.418   2.019
    2PC     O32 9574   3.572   1.341   2.114
    2PC     C31 9575   3.689   1.419   2.144
    2PC     H1A 9576   3.741   1.454   2.054
    2PC     H1B 9577   3.661   1.508   2.201
    2PC     C32 9578   3.779   1.324   2.224
    2PC     H2A 9579   3.852   1.382   2.280
    2PC     H2B 9580   3.719   1.275   2.301
    2PC     N31 9581   3.836   1.211   2.144
    2PC     C33 9582   3.917   1.126   2.237
    2PC     H3A 9583   3.939   1.024   2.202
    2PC     H3B 9584   4.006   1.182   2.264
    2PC     H3C 9585   3.857   1.113   2.327
    2PC     C34 9586   3.730   1.125   2.082
    2PC     H4A 9587   3.655   1.102   2.158
    2PC     H4B 9588   3.679   1.176   2.001
    2PC     H4C 9589   3.777   1.034   2.042
    2PC     C35 9590   3.928   1.261   2.037
    2PC     H5A 9591   3.987   1.345   2.071
    2PC     H5B 9592   3.873   1.289   1.947
    2PC     H5C 9593   3.991   1.178   2.002
    2PC     O33 9594   3.380   1.322   1.949
    2PC     O34 9595   3.520   1.506   1.912
    2PC     O21 9596   3.330   1.710   2.323
    2PC     C21 9597   3.379   1.834   2.308
    2PC     O22 9598   3.322   1.920   2.244
    3OL     C12 9599   3.487   1.869   2.407
    3OL     H2R 9600   3.526   1.967   2.377
    3OL     H2S 9601   3.566   1.796   2.388
    3OL     C13 9602   3.443   1.856   2.553
    3OL     H3R 9603   3.408   1.757   2.580
    3OL     H3S 9604   3.370   1.936   2.572
    3OL     C14 9605   3.562   1.875   2.649
    3OL     H4R 9606   3.598   1.978   2.640
    3OL     H4S 9607   3.640   1.802   2.627
    3OL     C15 9608   3.521   1.851   2.795
    3OL     H5R 9609   3.487   1.748   2.798
    3OL     H5S 9610   3.435   1.916   2.817
    3OL     C16 9611   3.635   1.865   2.896
    3OL     H6R 9612   3.654   1.973   2.899
    3OL     H6S 9613   3.733   1.822   2.871
    3OL     C17 9614   3.605   1.818   3.039
    3OL     H7R 9615   3.510   1.867   3.063
    3OL     H7S 9616   3.678   1.866   3.105
    3OL     C18 9617   3.580   1.669   3.065
    3OL     H8R 9618   3.665   1.616   3.022
    3OL     H8S 9619   3.486   1.647   3.015
    3OL     C19 9620   3.573   1.635   3.212
    3OL     H9R 9621   3.586   1.725   3.272
    3OL    C110 9622   3.518   1.525   3.259
    3OL    H10R 9623   3.501   1.516   3.366
    3OL    C111 9624   3.467   1.409   3.176
    3OL    H11R 9625   3.468   1.429   3.069
    3OL    H11S 9626   3.363   1.411   3.210
    3OL    C112 9627   3.529   1.272   3.206
    3OL    H12R 9628   3.548   1.258   3.312
    3OL    H12S 9629   3.626   1.283   3.157
    3OL    C113 9630   3.448   1.154   3.150
    3OL    H13R 9631   3.422   1.175   3.046
    3OL    H13S 9632   3.362   1.143   3.216
    3OL    C114 9633   3.530   1.024   3.152
    3OL    H14R 9634   3.533   0.990   3.256
    3OL    H14S 9635   3.629   1.045   3.110
    3OL    C115 9636   3.468   0.910   3.071
    3OL    H15R 9637   3.385   0.866   3.127
    3OL    H15S 9638   3.543   0.830   3.068
    3OL    C116 9639   3.427   0.944   2.927
    3OL    H16R 9640   3.516   0.955   2.865
    3OL    H16S 9641   3.374   1.039   2.918
    3OL    C117 9642   3.349   0.823   2.876
    3OL    H17R 9643   3.327   0.826   2.769
    3OL    H17S 9644   3.258   0.812   2.936
    3OL    C118 9645   3.419   0.686   2.886
    3OL    H18R 9646   3.507   0.684   2.822
    3OL    H18S 9647   3.361   0.605   2.842
    3OL    H18T 9648   3.441   0.653   2.988
    1PA    C116 9649   0.253   4.248   4.074
    1PA    H16R 9650   0.231   4.343   4.123
    1PA    H16S 9651   0.354   4.249   4.033
    1PA    H16T 9652   0.240   4.167   4.147
    1PA    C115 9653   0.165   4.226   3.950
    1PA    H15R 9654   0.061   4.210   3.980
    1PA    H15S 9655   0.173   4.312   3.882
    1PA    C114 9656   0.215   4.104   3.873
    1PA    H14R 9657   0.321   4.112   3.846
    1PA    H14S 9658   0.198   4.012   3.930
    1PA    C113 9659   0.145   4.097   3.736
    1PA    H13R 9660   0.044   4.138   3.745
    1PA    H13S 9661   0.194   4.164   3.665
    1PA    C112 9662   0.159   3.954   3.685
    1PA    H12R 9663   0.261   3.915   3.685
    1PA    H12S 9664   0.103   3.889   3.752
    1PA    C111 9665   0.121   3.944   3.536
    1PA    H11R 9666   0.114   3.836   3.528
    1PA    H11S 9667   0.028   3.995   3.511
    1PA    C110 9668   0.237   3.996   3.450
    1PA    H10R 9669   0.249   4.104   3.462
    1PA    H10S 9670   0.328   3.952   3.491
    1PA     C19 9671   0.225   3.958   3.302
    1PA     H9R 9672   0.177   3.860   3.295
    1PA     H9S 9673   0.151   4.020   3.250
    1PA     C18 9674   0.361   3.967   3.232
    1PA     H8R 9675   0.420   4.055   3.260
    1PA     H8S 9676   0.419   3.878   3.255
    1PA     C17 9677   0.334   3.973   3.081
    1PA     H7R 9678   0.275   4.059   3.047
    1PA     H7S 9679   0.431   3.990   3.033
    1PA     C16 9680   0.282   3.846   3.013
    1PA     H6R 9681   0.330   3.767   3.071
    1PA     H6S 9682   0.176   3.831   3.036
    1PA     C15 9683   0.315   3.844   2.863
    1PA     H5R 9684   0.282   3.938   2.817
    1PA     H5S 9685   0.423   3.850   2.846
    1PA     C14 9686   0.270   3.718   2.787
    1PA     H4R 9687   0.334   3.645   2.836
    1PA     H4S 9688   0.165   3.707   2.814
    1PA     C13 9689   0.287   3.723   2.635
    1PA     H3R 9690   0.384   3.680   2.607
    1PA     H3S 9691   0.212   3.658   2.589
    1PA     C12 9692   0.269   3.857   2.562
    1PA     H2R 9693   0.172   3.898   2.589
    1PA     H2S 9694   0.358   3.915   2.590
    2PC     C11 9695   0.246   3.822   2.417
    2PC     O12 9696   0.138   3.784   2.375
    2PC     O11 9697   0.360   3.831   2.348
    2PC      C1 9698   0.354   3.803   2.207
    2PC      HR 9699   0.456   3.780   2.177
    2PC      HS 9700   0.293   3.715   2.183
    2PC      C2 9701   0.286   3.919   2.134
    2PC      HX 9702   0.181   3.933   2.159
    2PC      C3 9703   0.275   3.889   1.983
    2PC      HA 9704   0.372   3.901   1.935
    2PC      HB 9705   0.246   3.786   1.962
    2PC     O31 9706   0.184   3.982   1.922
    2PC     P31 9707   0.157   3.984   1.764
    2PC     O32 9708   0.118   4.138   1.741
    2PC     C31 9709   0.066   4.186   1.616
    2PC     H1A 9710   0.158   4.188   1.556
    2PC     H1B 9711   0.001   4.110   1.572
    2PC     C32 9712   0.008   4.328   1.621
    2PC     H2A 9713   6.422   4.331   1.701
    2PC     H2B 9714   0.093   4.391   1.645
    2PC     N31 9715   6.416   4.387   1.510
    2PC     C33 9716   6.388   4.524   1.564
    2PC     H3A 9717   6.350   4.504   1.664
    2PC     H3B 9718   6.486   4.571   1.561
    2PC     H3C 9719   6.317   4.583   1.506
    2PC     C34 9720   6.488   4.401   1.380
    2PC     H4A 9721   6.429   4.466   1.315
    2PC     H4B 9722   0.101   4.434   1.402
    2PC     H4C 9723   0.012   4.305   1.330
    2PC     C35 9724   6.282   4.324   1.486
    2PC     H5A 9725   6.214   4.335   1.571
    2PC     H5B 9726   6.297   4.216   1.475
    2PC     H5C 9727   6.235   4.374   1.401
    2PC     O33 9728   0.274   3.950   1.680
    2PC     O34 9729   0.038   3.898   1.747
    2PC     O21 9730   0.363   4.039   2.157
    2PC     C21 9731   0.297   4.153   2.184
    2PC     O22 9732   0.177   4.168   2.193
    3OL     C12 9733   0.386   4.273   2.201
    3OL     H2R 9734   0.320   4.358   2.183
    3OL     H2S 9735   0.460   4.271   2.121
    3OL     C13 9736   0.461   4.267   2.334
    3OL     H3R 9737   0.537   4.345   2.326
    3OL     H3S 9738   0.506   4.170   2.355
    3OL     C14 9739   0.370   4.313   2.450
    3OL     H4R 9740   0.270   4.277   2.428
    3OL     H4S 9741   0.357   4.421   2.445
    3OL     C15 9742   0.405   4.261   2.590
    3OL     H5R 9743   0.512   4.267   2.612
    3OL     H5S 9744   0.381   4.155   2.594
    3OL     C16 9745   0.321   4.338   2.693
    3OL     H6R 9746   0.220   4.356   2.656
    3OL     H6S 9747   0.368   4.436   2.697
    3OL     C17 9748   0.320   4.270   2.830
    3OL     H7R 9749   0.420   4.236   2.859
    3OL     H7S 9750   0.254   4.183   2.836
    3OL     C18 9751   0.266   4.375   2.928
    3OL     H8R 9752   0.188   4.443   2.893
    3OL     H8S 9753   0.354   4.440   2.934
    3OL     C19 9754   0.236   4.318   3.064
    3OL     H9R 9755   0.130   4.303   3.081
    3OL    C110 9756   0.323   4.287   3.159
    3OL    H10R 9757   0.288   4.232   3.245
    3OL    C111 9758   0.472   4.286   3.133
    3OL    H11R 9759   0.499   4.325   3.035
    3OL    H11S 9760   0.518   4.188   3.145
    3OL    C112 9761   0.534   4.375   3.241
    3OL    H12R 9762   0.513   4.481   3.228
    3OL    H12S 9763   0.643   4.375   3.233
    3OL    C113 9764   0.489   4.333   3.381
    3OL    H13R 9765   0.511   4.230   3.411
    3OL    H13S 9766   0.381   4.348   3.391
    3OL    C114 9767   0.545   4.428   3.488
    3OL    H14R 9768   0.524   4.531   3.459
    3OL    H14S 9769   0.654   4.417   3.482
    3OL    C115 9770   0.509   4.395   3.634
    3OL    H15R 9771   0.557   4.307   3.677
    3OL    H15S 9772   0.400   4.388   3.640
    3OL    C116 9773   0.531   4.508   3.736
    3OL    H16R 9774   0.474   4.596   3.707
    3OL    H16S 9775   0.635   4.536   3.748
    3OL    C117 9776   0.471   4.466   3.871
    3OL    H17R 9777   0.536   4.386   3.906
    3OL    H17S 9778   0.368   4.430   3.861
    3OL    C118 9779   0.459   4.585   3.967
    3OL    H18R 9780   0.558   4.619   3.999
    3OL    H18S 9781   0.417   4.567   4.066
    3OL    H18T 9782   0.412   4.667   3.913
    1PA    C116 9783   0.179   4.638   3.689
    1PA    H16R 9784   0.221   4.711   3.620
    1PA    H16S 9785   0.252   4.564   3.722
    1PA    H16T 9786   0.128   4.689   3.771
    1PA    C115 9787   0.072   4.560   3.610
    1PA    H15R 9788   6.475   4.625   3.592
    1PA    H15S 9789   0.107   4.535   3.510
    1PA    C114 9790   0.024   4.429   3.674
    1PA    H14R 9791   0.107   4.361   3.692
    1PA    H14S 9792   6.466   4.442   3.772
    1PA    C113 9793   6.397   4.363   3.597
    1PA    H13R 9794   6.424   4.347   3.493
    1PA    H13S 9795   6.375   4.262   3.633
    1PA    C112 9796   6.266   4.441   3.614
    1PA    H12R 9797   6.208   4.400   3.697
    1PA    H12S 9798   6.286   4.546   3.635
    1PA    C111 9799   6.177   4.434   3.489
    1PA    H11R 9800   6.101   4.512   3.488
    1PA    H11S 9801   6.246   4.445   3.404
    1PA    C110 9802   6.109   4.297   3.480
    1PA    H10R 9803   6.177   4.213   3.461
    1PA    H10S 9804   6.052   4.264   3.568
    1PA     C19 9805   6.002   4.284   3.370
    1PA     H9R 9806   5.936   4.371   3.361
    1PA     H9S 9807   6.058   4.273   3.277
    1PA     C18 9808   5.916   4.159   3.386
    1PA     H8R 9809   5.987   4.091   3.435
    1PA     H8S 9810   5.830   4.169   3.453
    1PA     C17 9811   5.866   4.095   3.256
    1PA     H7R 9812   5.782   4.153   3.215
    1PA     H7S 9813   5.944   4.080   3.181
    1PA     C16 9814   5.805   3.957   3.284
    1PA     H6R 9815   5.882   3.892   3.327
    1PA     H6S 9816   5.735   3.978   3.365
    1PA     C15 9817   5.736   3.886   3.167
    1PA     H5R 9818   5.810   3.866   3.090
    1PA     H5S 9819   5.705   3.788   3.205
    1PA     C14 9820   5.614   3.954   3.103
    1PA     H4R 9821   5.546   3.991   3.179
    1PA     H4S 9822   5.641   4.046   3.052
    1PA     C13 9823   5.547   3.862   3.000
    1PA     H3R 9824   5.625   3.821   2.934
    1PA     H3S 9825   5.500   3.781   3.055
    1PA     C12 9826   5.434   3.942   2.934
    1PA     H2R 9827   5.334   3.909   2.962
    1PA     H2S 9828   5.447   4.046   2.966
    2PC     C11 9829   5.452   3.945   2.784
    2PC     O12 9830   5.465   3.847   2.714
    2PC     O11 9831   5.468   4.069   2.736
    2PC      C1 9832   5.490   4.097   2.596
    2PC      HR 9833   5.484   4.206   2.587
    2PC      HS 9834   5.581   4.054   2.554
    2PC      C2 9835   5.368   4.044   2.518
    2PC      HX 9836   5.345   3.942   2.551
    2PC      C3 9837   5.410   4.044   2.371
    2PC      HA 9838   5.490   3.971   2.351
    2PC      HB 9839   5.327   4.024   2.303
    2PC     O31 9840   5.451   4.180   2.347
    2PC     P31 9841   5.513   4.227   2.207
    2PC     O32 9842   5.368   4.241   2.140
    2PC     C31 9843   5.290   4.361   2.144
    2PC     H1A 9844   5.275   4.381   2.251
    2PC     H1B 9845   5.347   4.448   2.110
    2PC     C32 9846   5.161   4.336   2.064
    2PC     H2A 9847   5.111   4.431   2.047
    2PC     H2B 9848   5.189   4.292   1.968
    2PC     N31 9849   5.057   4.250   2.130
    2PC     C33 9850   5.103   4.112   2.167
    2PC     H3A 9851   5.151   4.063   2.082
    2PC     H3B 9852   5.166   4.115   2.256
    2PC     H3C 9853   5.005   4.069   2.187
    2PC     C34 9854   5.008   4.317   2.255
    2PC     H4A 9855   4.966   4.414   2.230
    2PC     H4B 9856   4.938   4.269   2.323
    2PC     H4C 9857   5.092   4.342   2.320
    2PC     C35 9858   4.946   4.232   2.031
    2PC     H5A 9859   4.878   4.165   2.084
    2PC     H5B 9860   4.986   4.195   1.937
    2PC     H5C 9861   4.894   4.328   2.023
    2PC     O33 9862   5.589   4.353   2.222
    2PC     O34 9863   5.610   4.127   2.157
    2PC     O21 9864   5.246   4.119   2.521
    2PC     C21 9865   5.165   4.107   2.628
    2PC     O22 9866   5.181   4.038   2.726
    3OL     C12 9867   5.055   4.209   2.614
    3OL     H2R 9868   4.968   4.159   2.658
    3OL     H2S 9869   5.026   4.218   2.509
    3OL     C13 9870   5.082   4.348   2.672
    3OL     H3R 9871   5.015   4.416   2.619
    3OL     H3S 9872   5.183   4.385   2.656
    3OL     C14 9873   5.077   4.361   2.825
    3OL     H4R 9874   5.115   4.462   2.845
    3OL     H4S 9875   5.150   4.293   2.870
    3OL     C15 9876   4.935   4.354   2.883
    3OL     H5R 9877   4.920   4.247   2.867
    3OL     H5S 9878   4.865   4.413   2.824
    3OL     C16 9879   4.928   4.383   3.034
    3OL     H6R 9880   5.014   4.329   3.074
    3OL     H6S 9881   4.838   4.339   3.075
    3OL     C17 9882   4.934   4.536   3.052
    3OL     H7R 9883   4.858   4.585   2.991
    3OL     H7S 9884   5.031   4.574   3.020
    3OL     C18 9885   4.930   4.562   3.203
    3OL     H8R 9886   5.017   4.505   3.236
    3OL     H8S 9887   4.832   4.540   3.245
    3OL     C19 9888   4.944   4.710   3.232
    3OL     H9R 9889   4.976   4.766   3.144
    3OL    C110 9890   4.932   4.776   3.346
    3OL    H10R 9891   4.949   4.883   3.350
    3OL    C111 9892   4.904   4.708   3.478
    3OL    H11R 9893   4.928   4.602   3.464
    3OL    H11S 9894   4.798   4.711   3.505
    3OL    C112 9895   4.986   4.764   3.594
    3OL    H12R 9896   5.000   4.872   3.585
    3OL    H12S 9897   5.088   4.725   3.594
    3OL    C113 9898   4.919   4.743   3.731
    3OL    H13R 9899   4.915   4.638   3.761
    3OL    H13S 9900   4.821   4.790   3.740
    3OL    C114 9901   4.990   4.821   3.843
    3OL    H14R 9902   5.018   4.918   3.801
    3OL    H14S 9903   5.084   4.767   3.857
    3OL    C115 9904   4.924   4.823   3.981
    3OL    H15R 9905   4.825   4.867   3.962
    3OL    H15S 9906   4.977   4.895   4.043
    3OL    C116 9907   4.926   4.683   4.043
    3OL    H16R 9908   5.022   4.652   4.085
    3OL    H16S 9909   4.885   4.605   3.978
    3OL    C117 9910   4.837   4.682   4.167
    3OL    H17R 9911   4.833   4.575   4.191
    3OL    H17S 9912   4.734   4.711   4.146
    3OL    C118 9913   4.896   4.748   4.293
    3OL    H18R 9914   4.827   4.745   4.378
    3OL    H18S 9915   4.917   4.852   4.267
    3OL    H18T 9916   4.992   4.699   4.315
    1PA    C116 9917   5.300   4.425   3.966
    1PA    H16R 9918   5.243   4.517   3.981
    1PA    H16S 9919   5.392   4.423   4.023
    1PA    H16T 9920   5.241   4.341   4.003
    1PA    C115 9921   5.338   4.416   3.817
    1PA    H15R 9922   5.391   4.505   3.785
    1PA    H15S 9923   5.392   4.322   3.801
    1PA    C114 9924   5.213   4.408   3.728
    1PA    H14R 9925   5.184   4.303   3.733
    1PA    H14S 9926   5.132   4.475   3.758
    1PA    C113 9927   5.240   4.451   3.583
    1PA    H13R 9928   5.142   4.446   3.535
    1PA    H13S 9929   5.270   4.556   3.591
    1PA    C112 9930   5.333   4.359   3.504
    1PA    H12R 9931   5.410   4.329   3.576
    1PA    H12S 9932   5.288   4.262   3.484
    1PA    C111 9933   5.362   4.418   3.365
    1PA    H11R 9934   5.268   4.442   3.313
    1PA    H11S 9935   5.421   4.509   3.369
    1PA    C110 9936   5.437   4.319   3.275
    1PA    H10R 9937   5.513   4.272   3.337
    1PA    H10S 9938   5.382   4.232   3.238
    1PA     C19 9939   5.513   4.379   3.155
    1PA     H9R 9940   5.534   4.485   3.167
    1PA     H9S 9941   5.610   4.329   3.156
    1PA     C18 9942   5.447   4.369   3.017
    1PA     H8R 9943   5.421   4.266   2.987
    1PA     H8S 9944   5.358   4.433   3.020
    1PA     C17 9945   5.524   4.433   2.901
    1PA     H7R 9946   5.537   4.540   2.917
    1PA     H7S 9947   5.621   4.382   2.899
    1PA     C16 9948   5.439   4.422   2.774
    1PA     H6R 9949   5.428   4.314   2.761
    1PA     H6S 9950   5.342   4.471   2.786
    1PA     C15 9951   5.507   4.480   2.649
    1PA     H5R 9952   5.614   4.480   2.668
    1PA     H5S 9953   5.490   4.410   2.567
    1PA     C14 9954   5.458   4.619   2.607
    1PA     H4R 9955   5.350   4.620   2.589
    1PA     H4S 9956   5.478   4.691   2.687
    1PA     C13 9957   5.518   4.671   2.476
    1PA     H3R 9958   5.483   4.604   2.397
    1PA     H3S 9959   5.469   4.765   2.451
    1PA     C12 9960   5.670   4.690   2.481
    1PA     H2R 9961   5.704   4.738   2.574
    1PA     H2S 9962   5.721   4.596   2.460
    2PC     C11 9963   5.712   4.784   2.371
    2PC     O12 9964   5.636   4.856   2.309
    2PC     O11 9965   5.846   4.787   2.367
    2PC      C1 9966   5.920   4.863   2.270
    2PC      HR 9967   6.016   4.815   2.250
    2PC      HS 9968   5.863   4.860   2.177
    2PC      C2 9969   5.932   5.011   2.311
    2PC      HX 9970   5.832   5.054   2.324
    2PC      C3 9971   6.000   5.086   2.196
    2PC      HA 9972   5.944   5.077   2.103
    2PC      HB 9973   6.014   5.191   2.226
    2PC     O31 9974   6.134   5.039   2.174
    2PC     P31 9975   6.227   5.085   2.053
    2PC     O32 9976   6.274   5.228   2.109
    2PC     C31 9977   6.200   5.346   2.074
    2PC     H1A 9978   6.174   5.364   1.969
    2PC     H1B 9979   6.111   5.354   2.137
    2PC     C32 9980   6.285   5.463   2.125
    2PC     H2A 9981   6.243   5.557   2.088
    2PC     H2B 9982   6.296   5.468   2.234
    2PC     N31 9983   6.424   5.461   2.068
    2PC     C33 9984   6.440   5.427   1.923
    2PC     H3A 9985   0.053   5.436   1.884
    2PC     H3B 9986   6.419   5.321   1.906
    2PC     H3C 9987   6.373   5.494   1.870
    2PC     C34 9988   6.483   5.597   2.090
    2PC     H4A 9989   0.094   5.598   2.044
    2PC     H4B 9990   6.415   5.669   2.044
    2PC     H4C 9991   0.008   5.607   2.197
    2PC     C35 9992   0.024   5.370   2.148
    2PC     H5A 9993   0.123   5.381   2.105
    2PC     H5B 9994   6.473   5.269   2.156
    2PC     H5C 9995   0.035   5.410   2.250
    2PC     O33 9996   6.350   5.007   2.026
    2PC     O34 9997   6.164   5.095   1.919
    2PC     O21 9998   6.012   5.031   2.429
    2PC     C21 9999   5.980   5.125   2.518
    2PC     O2210000   5.883   5.198   2.507
    3OL     C1210001   6.068   5.130   2.640
    3OL     H2R10002   6.169   5.135   2.601
    3OL     H2S10003   6.057   5.038   2.699
    3OL     C1310004   6.045   5.259   2.721
    3OL     H3R10005   5.942   5.264   2.756
    3OL     H3S10006   6.063   5.345   2.657
    3OL     C1410007   6.122   5.253   2.854
    3OL     H4R10008   6.126   5.351   2.902
    3OL     H4S10009   6.226   5.232   2.827
    3OL     C1510010   6.090   5.145   2.958
    3OL     H5R10011   6.089   5.042   2.922
    3OL     H5S10012   5.991   5.174   2.992
    3OL     C1610013   6.197   5.148   3.068
    3OL     H6R10014   6.231   5.249   3.092
    3OL     H6S10015   6.290   5.106   3.028
    3OL     C1710016   6.139   5.077   3.191
    3OL     H7R10017   6.034   5.101   3.207
    3OL     H7S10018   6.197   5.108   3.277
    3OL     C1810019   6.149   4.925   3.171
    3OL     H8R10020   6.233   4.894   3.108
    3OL     H8S10021   6.067   4.902   3.103
    3OL     C1910022   6.120   4.852   3.300
    3OL     H9R10023   6.021   4.807   3.307
    3OL    C11010024   6.217   4.820   3.384
    3OL    H10R10025   6.185   4.749   3.461
    3OL    C11110026   6.355   4.881   3.385
    3OL    H11R10027   6.367   4.918   3.283
    3OL    H11S10028   6.437   4.810   3.397
    3OL    C11210029   6.362   4.997   3.485
    3OL    H12R10030   6.274   5.060   3.475
    3OL    H12S10031   6.453   5.056   3.475
    3OL    C11310032   6.366   4.932   3.624
    3OL    H13R10033   6.459   4.876   3.639
    3OL    H13S10034   6.279   4.866   3.634
    3OL    C11410035   6.350   5.041   3.730
    3OL    H14R10036   6.243   5.059   3.744
    3OL    H14S10037   6.403   5.134   3.705
    3OL    C11510038   6.401   4.987   3.864
    3OL    H15R10039   0.020   4.973   3.864
    3OL    H15S10040   6.363   4.886   3.879
    3OL    C11610041   6.363   5.081   3.980
    3OL    H16R10042   6.376   5.187   3.957
    3OL    H16S10043   6.440   5.051   4.052
    3OL    C11710044   6.224   5.055   4.041
    3OL    H17R10045   6.219   4.959   4.091
    3OL    H17S10046   6.140   5.053   3.972
    3OL    C11810047   6.184   5.164   4.141
    3OL    H18R10048   6.247   5.176   4.229
    3OL    H18S10049   6.184   5.263   4.093
    3OL    H18T10050   6.084   5.143   4.181
    1PA    C11610051   1.436   1.363   3.989
    1PA    H16R10052   1.402   1.261   3.969
    1PA    H16S10053   1.468   1.370   4.094
    1PA    H16T10054   1.345   1.421   3.978
    1PA    C11510055   1.547   1.401   3.890
    1PA    H15R10056   1.583   1.500   3.920
    1PA    H15S10057   1.628   1.329   3.902
    1PA    C11410058   1.506   1.392   3.743
    1PA    H14R10059   1.479   1.290   3.717
    1PA    H14S10060   1.427   1.466   3.729
    1PA    C11310061   1.618   1.422   3.642
    1PA    H13R10062   1.651   1.525   3.662
    1PA    H13S10063   1.706   1.357   3.650
    1PA    C11210064   1.554   1.428   3.503
    1PA    H12R10065   1.473   1.355   3.489
    1PA    H12S10066   1.504   1.525   3.498
    1PA    C11110067   1.657   1.432   3.389
    1PA    H11R10068   1.737   1.501   3.414
    1PA    H11S10069   1.708   1.336   3.379
    1PA    C11010070   1.596   1.480   3.257
    1PA    H10R10071   1.511   1.415   3.234
    1PA    H10S10072   1.567   1.583   3.278
    1PA     C1910073   1.701   1.469   3.146
    1PA     H9R10074   1.762   1.558   3.162
    1PA     H9S10075   1.763   1.381   3.162
    1PA     C1810076   1.644   1.475   3.003
    1PA     H8R10077   1.561   1.409   2.979
    1PA     H8S10078   1.596   1.573   2.999
    1PA     C1710079   1.751   1.470   2.894
    1PA     H7R10080   1.835   1.531   2.927
    1PA     H7S10081   1.799   1.373   2.884
    1PA     C1610082   1.710   1.523   2.756
    1PA     H6R10083   1.643   1.448   2.713
    1PA     H6S10084   1.658   1.619   2.764
    1PA     C1510085   1.835   1.543   2.670
    1PA     H5R10086   1.908   1.600   2.729
    1PA     H5S10087   1.876   1.444   2.648
    1PA     C1410088   1.798   1.617   2.540
    1PA     H4R10089   1.700   1.577   2.513
    1PA     H4S10090   1.785   1.722   2.566
    1PA     C1310091   1.908   1.611   2.434
    1PA     H3R10092   1.908   1.710   2.390
    1PA     H3S10093   2.008   1.599   2.477
    1PA     C1210094   1.874   1.498   2.335
    1PA     H2R10095   1.960   1.475   2.272
    1PA     H2S10096   1.854   1.408   2.394
    2PC     C1110097   1.749   1.514   2.253
    2PC     O1210098   1.684   1.429   2.195
    2PC     O1110099   1.719   1.644   2.245
    2PC      C110100   1.605   1.690   2.170
    2PC      HR10101   1.600   1.799   2.167
    2PC      HS10102   1.607   1.647   2.070
    2PC      C210103   1.470   1.642   2.227
    2PC      HX10104   1.488   1.552   2.286
    2PC      C310105   1.361   1.621   2.122
    2PC      HA10106   1.397   1.547   2.050
    2PC      HB10107   1.269   1.591   2.173
    2PC     O3110108   1.329   1.747   2.059
    2PC     P3110109   1.248   1.731   1.922
    2PC     O3210110   1.260   1.874   1.850
    2PC     C3110111   1.301   1.874   1.712
    2PC     H1A10112   1.376   1.798   1.691
    2PC     H1B10113   1.219   1.848   1.644
    2PC     C3210114   1.356   2.012   1.674
    2PC     H2A10115   1.382   2.002   1.569
    2PC     H2B10116   1.278   2.086   1.694
    2PC     N3110117   1.479   2.067   1.739
    2PC     C3310118   1.594   1.985   1.691
    2PC     H3A10119   1.618   2.008   1.587
    2PC     H3B10120   1.678   2.006   1.759
    2PC     H3C10121   1.565   1.881   1.706
    2PC     C3410122   1.489   2.208   1.688
    2PC     H4A10123   1.391   2.256   1.697
    2PC     H4B10124   1.571   2.257   1.740
    2PC     H4C10125   1.509   2.201   1.581
    2PC     C3510126   1.473   2.055   1.888
    2PC     H5A10127   1.534   2.130   1.938
    2PC     H5B10128   1.514   1.959   1.920
    2PC     H5C10129   1.371   2.070   1.923
    2PC     O3310130   1.312   1.626   1.840
    2PC     O3410131   1.102   1.708   1.932
    2PC     O2110132   1.424   1.739   2.322
    2PC     C2110133   1.384   1.706   2.446
    2PC     O2210134   1.372   1.590   2.476
    3OL     C1210135   1.352   1.824   2.534
    3OL     H2R10136   1.250   1.818   2.573
    3OL     H2S10137   1.375   1.921   2.488
    3OL     C1310138   1.434   1.807   2.662
    3OL     H3R10139   1.540   1.830   2.646
    3OL     H3S10140   1.432   1.701   2.688
    3OL     C1410141   1.399   1.900   2.779
    3OL     H4R10142   1.304   1.870   2.825
    3OL     H4S10143   1.375   1.994   2.729
    3OL     C1510144   1.503   1.912   2.890
    3OL     H5R10145   1.587   1.976   2.860
    3OL     H5S10146   1.552   1.815   2.906
    3OL     C1610147   1.444   1.966   3.021
    3OL     H6R10148   1.365   2.041   3.008
    3OL     H6S10149   1.529   2.013   3.070
    3OL     C1710150   1.396   1.852   3.111
    3OL     H7R10151   1.482   1.788   3.134
    3OL     H7S10152   1.321   1.803   3.048
    3OL     C1810153   1.324   1.900   3.238
    3OL     H8R10154   1.228   1.938   3.204
    3OL     H8S10155   1.383   1.973   3.294
    3OL     C1910156   1.301   1.781   3.327
    3OL     H9R10157   1.286   1.692   3.266
    3OL    C11010158   1.301   1.773   3.459
    3OL    H10R10159   1.290   1.675   3.505
    3OL    C11110160   1.330   1.887   3.554
    3OL    H11R10161   1.382   1.972   3.510
    3OL    H11S10162   1.379   1.831   3.634
    3OL    C11210163   1.201   1.957   3.598
    3OL    H12R10164   1.127   1.878   3.616
    3OL    H12S10165   1.161   2.020   3.519
    3OL    C11310166   1.229   2.049   3.717
    3OL    H13R10167   1.324   2.100   3.696
    3OL    H13S10168   1.252   1.980   3.799
    3OL    C11410169   1.124   2.157   3.749
    3OL    H14R10170   1.062   2.174   3.661
    3OL    H14S10171   1.177   2.251   3.767
    3OL    C11510172   1.037   2.122   3.870
    3OL    H15R10173   1.100   2.084   3.951
    3OL    H15S10174   0.977   2.035   3.842
    3OL    C11610175   0.954   2.238   3.927
    3OL    H16R10176   1.014   2.319   3.968
    3OL    H16S10177   0.886   2.198   4.003
    3OL    C11710178   0.870   2.304   3.817
    3OL    H17R10179   0.837   2.235   3.739
    3OL    H17S10180   0.926   2.385   3.770
    3OL    C11810181   0.745   2.363   3.885
    3OL    H18R10182   0.683   2.416   3.813
    3OL    H18S10183   0.775   2.438   3.958
    3OL    H18T10184   0.677   2.291   3.931
    1PA    C11610185   6.060   6.070   3.687
    1PA    H16R10186   6.010   5.982   3.727
    1PA    H16S10187   6.041   6.144   3.765
    1PA    H16T10188   6.169   6.057   3.690
    1PA    C11510189   6.005   6.101   3.547
    1PA    H15R10190   6.045   6.194   3.506
    1PA    H15S10191   6.038   6.017   3.486
    1PA    C11410192   5.852   6.117   3.551
    1PA    H14R10193   5.796   6.023   3.542
    1PA    H14S10194   5.828   6.147   3.654
    1PA    C11310195   5.797   6.224   3.457
    1PA    H13R10196   5.694   6.249   3.484
    1PA    H13S10197   5.867   6.307   3.448
    1PA    C11210198   5.789   6.177   3.311
    1PA    H12R10199   5.881   6.124   3.284
    1PA    H12S10200   5.708   6.103   3.306
    1PA    C11110201   5.754   6.296   3.220
    1PA    H11R10202   5.660   6.338   3.254
    1PA    H11S10203   5.832   6.370   3.240
    1PA    C11010204   5.755   6.250   3.074
    1PA    H10R10205   5.858   6.222   3.050
    1PA    H10S10206   5.695   6.160   3.056
    1PA     C1910207   5.707   6.354   2.971
    1PA     H9R10208   5.604   6.383   2.991
    1PA     H9S10209   5.766   6.446   2.975
    1PA     C1810210   5.704   6.288   2.833
    1PA     H8R10211   5.800   6.257   2.790
    1PA     H8S10212   5.640   6.199   2.837
    1PA     C1710213   5.643   6.384   2.731
    1PA     H7R10214   5.620   6.316   2.649
    1PA     H7S10215   5.549   6.424   2.772
    1PA     C1610216   5.736   0.007   2.680
    1PA     H6R10217   5.753   0.068   2.769
    1PA     H6S10218   5.823   6.446   2.637
    1PA     C1510219   5.666   0.096   2.577
    1PA     H5R10220   5.626   0.040   2.492
    1PA     H5S10221   5.589   0.154   2.628
    1PA     C1410222   5.761   0.207   2.529
    1PA     H4R10223   5.803   0.267   2.610
    1PA     H4S10224   5.845   0.154   2.483
    1PA     C1310225   5.696   0.297   2.423
    1PA     H3R10226   5.665   0.241   2.335
    1PA     H3S10227   5.606   0.347   2.458
    1PA     C1210228   5.798   0.403   2.377
    1PA     H2R10229   5.804   0.477   2.457
    1PA     H2S10230   5.898   0.360   2.367
    2PC     C1110231   5.769   0.463   2.242
    2PC     O1210232   5.785   0.408   2.135
    2PC     O1110233   5.739   0.592   2.262
    2PC      C110234   5.704   0.671   2.147
    2PC      HR10235   5.698   0.777   2.170
    2PC      HS10236   5.773   0.662   2.063
    2PC      C210237   5.562   0.635   2.100
    2PC      HX10238   5.546   0.537   2.147
    2PC      C310239   5.550   0.615   1.948
    2PC      HA10240   5.630   0.551   1.909
    2PC      HB10241   5.455   0.567   1.922
    2PC     O3110242   5.580   0.737   1.879
    2PC     P3110243   5.578   0.730   1.719
    2PC     O3210244   5.427   0.686   1.689
    2PC     C3110245   5.391   0.661   1.552
    2PC     H1A10246   5.423   0.752   1.500
    2PC     H1B10247   5.448   0.573   1.520
    2PC     C3210248   5.238   0.645   1.547
    2PC     H2A10249   5.186   0.705   1.623
    2PC     H2B10250   5.198   0.672   1.449
    2PC     N3110251   5.185   0.506   1.560
    2PC     C3310252   5.220   0.421   1.441
    2PC     H3A10253   5.189   0.317   1.452
    2PC     H3B10254   5.166   0.484   1.371
    2PC     H3C10255   5.328   0.416   1.424
    2PC     C3410256   5.229   0.439   1.686
    2PC     H4A10257   5.156   0.359   1.697
    2PC     H4B10258   5.325   0.389   1.669
    2PC     H4C10259   5.236   0.519   1.760
    2PC     C3510260   5.036   0.514   1.566
    2PC     H5A10261   4.990   0.430   1.513
    2PC     H5B10262   5.008   0.606   1.514
    2PC     H5C10263   5.007   0.512   1.671
    2PC     O3310264   5.593   0.864   1.658
    2PC     O3410265   5.659   0.617   1.667
    2PC     O2110266   5.463   0.722   2.158
    2PC     C2110267   5.427   0.722   2.288
    2PC     O2210268   5.459   0.636   2.367
    3OL     C1210269   5.367   0.855   2.326
    3OL     H2R10270   5.391   0.940   2.261
    3OL     H2S10271   5.395   0.869   2.430
    3OL     C1310272   5.214   0.867   2.323
    3OL     H3R10273   5.179   0.856   2.221
    3OL     H3S10274   5.193   0.967   2.361
    3OL     C1410275   5.137   0.783   2.426
    3OL     H4R10276   5.170   0.681   2.445
    3OL     H4S10277   5.029   0.776   2.407
    3OL     C1510278   5.133   0.846   2.566
    3OL     H5R10279   5.085   0.944   2.564
    3OL     H5S10280   5.240   0.858   2.589
    3OL     C1610281   5.063   0.758   2.670
    3OL     H6R10282   5.104   0.656   2.673
    3OL     H6S10283   4.958   0.749   2.642
    3OL     C1710284   5.073   0.829   2.806
    3OL     H7R10285   5.051   0.751   2.878
    3OL     H7S10286   5.006   0.915   2.810
    3OL     C1810287   5.216   0.869   2.845
    3OL     H8R10288   5.216   0.913   2.945
    3OL     H8S10289   5.244   0.950   2.778
    3OL     C1910290   5.315   0.755   2.840
    3OL     H9R10291   5.352   0.722   2.743
    3OL    C11010292   5.357   0.680   2.940
    3OL    H10R10293   5.422   0.597   2.914
    3OL    C11110294   5.320   0.696   3.086
    3OL    H11R10295   5.254   0.614   3.115
    3OL    H11S10296   5.268   0.790   3.105
    3OL    C11210297   5.442   0.686   3.178
    3OL    H12R10298   5.484   0.585   3.171
    3OL    H12S10299   5.404   0.684   3.281
    3OL    C11310300   5.535   0.807   3.163
    3OL    H13R10301   5.551   0.838   3.059
    3OL    H13S10302   5.631   0.763   3.192
    3OL    C11410303   5.499   0.923   3.256
    3OL    H14R10304   5.465   0.887   3.353
    3OL    H14S10305   5.414   0.973   3.209
    3OL    C11510306   5.610   1.029   3.268
    3OL    H15R10307   5.611   1.084   3.174
    3OL    H15S10308   5.706   0.978   3.283
    3OL    C11610309   5.573   1.125   3.382
    3OL    H16R10310   5.576   1.074   3.478
    3OL    H16S10311   5.468   1.156   3.383
    3OL    C11710312   5.670   1.245   3.377
    3OL    H17R10313   5.668   1.299   3.282
    3OL    H17S10314   5.771   1.208   3.396
    3OL    C11810315   5.617   1.358   3.465
    3OL    H18R10316   5.514   1.382   3.439
    3OL    H18S10317   5.686   1.441   3.451
    3OL    H18T10318   5.619   1.333   3.572
    1PA    C11610319   0.473   1.028   3.899
    1PA    H16R10320   0.470   0.942   3.966
    1PA    H16S10321   0.475   1.123   3.952
    1PA    H16T10322   0.567   1.023   3.843
    1PA    C11510323   0.350   1.036   3.808
    1PA    H15R10324   0.355   0.959   3.732
    1PA    H15S10325   0.261   1.004   3.863
    1PA    C11410326   0.325   1.176   3.749
    1PA    H14R10327   0.276   1.235   3.827
    1PA    H14S10328   0.422   1.217   3.721
    1PA    C11310329   0.222   1.174   3.635
    1PA    H13R10330   0.128   1.132   3.669
    1PA    H13S10331   0.204   1.281   3.624
    1PA    C11210332   0.286   1.121   3.506
    1PA    H12R10333   0.385   1.159   3.478
    1PA    H12S10334   0.301   1.012   3.508
    1PA    C11110335   0.187   1.152   3.393
    1PA    H11R10336   0.098   1.093   3.415
    1PA    H11S10337   0.163   1.258   3.380
    1PA    C11010338   0.248   1.093   3.265
    1PA    H10R10339   0.351   1.122   3.242
    1PA    H10S10340   0.256   0.985   3.276
    1PA     C1910341   0.168   1.119   3.137
    1PA     H9R10342   0.063   1.089   3.149
    1PA     H9S10343   0.163   1.223   3.102
    1PA     C1810344   0.245   1.044   3.028
    1PA     H8R10345   0.347   1.082   3.023
    1PA     H8S10346   0.249   0.939   3.058
    1PA     C1710347   0.182   1.071   2.891
    1PA     H7R10348   0.081   1.031   2.885
    1PA     H7S10349   0.172   1.178   2.875
    1PA     C1610350   0.279   1.003   2.793
    1PA     H6R10351   0.377   1.049   2.810
    1PA     H6S10352   0.286   0.896   2.814
    1PA     C1510353   0.256   1.024   2.643
    1PA     H5R10354   0.160   0.976   2.622
    1PA     H5S10355   0.245   1.131   2.623
    1PA     C1410356   0.366   0.960   2.556
    1PA     H4R10357   0.408   0.875   2.610
    1PA     H4S10358   0.318   0.915   2.469
    1PA     C1310359   0.474   1.063   2.524
    1PA     H3R10360   0.485   1.131   2.610
    1PA     H3S10361   0.567   1.006   2.515
    1PA     C1210362   0.448   1.149   2.400
    1PA     H2R10363   0.355   1.203   2.418
    1PA     H2S10364   0.521   1.228   2.391
    2PC     C1110365   0.420   1.070   2.274
    2PC     O1210366   0.315   1.071   2.213
    2PC     O1110367   0.521   0.989   2.238
    2PC      C110368   0.507   0.921   2.112
    2PC      HR10369   0.414   0.863   2.106
    2PC      HS10370   0.518   0.989   2.028
    2PC      C210371   0.632   0.832   2.101
    2PC      HX10372   0.723   0.880   2.139
    2PC      C310373   0.653   0.777   1.959
    2PC      HA10374   0.644   0.860   1.888
    2PC      HB10375   0.752   0.733   1.944
    2PC     O3110376   0.543   0.690   1.928
    2PC     P3110377   0.551   0.574   1.817
    2PC     O3210378   0.504   0.447   1.903
    2PC     C3110379   0.448   0.334   1.833
    2PC     H1A10380   0.365   0.360   1.767
    2PC     H1B10381   0.528   0.290   1.773
    2PC     C3210382   0.406   0.230   1.938
    2PC     H2A10383   0.317   0.266   1.989
    2PC     H2B10384   0.380   0.142   1.878
    2PC     N3110385   0.502   0.179   2.041
    2PC     C3310386   0.632   0.134   1.980
    2PC     H3A10387   0.700   0.219   1.973
    2PC     H3B10388   0.676   0.054   2.040
    2PC     H3C10389   0.610   0.082   1.887
    2PC     C3410390   0.526   0.273   2.155
    2PC     H4A10391   0.616   0.242   2.207
    2PC     H4B10392   0.556   0.374   2.125
    2PC     H4C10393   0.437   0.276   2.219
    2PC     C3510394   0.438   0.056   2.096
    2PC     H5A10395   0.396   6.483   2.017
    2PC     H5B10396   0.357   0.087   2.162
    2PC     H5C10397   0.517   0.008   2.154
    2PC     O3310398   0.483   0.614   1.692
    2PC     O3410399   0.688   0.544   1.770
    2PC     O2110400   0.602   0.728   2.196
    2PC     C2110401   0.705   0.659   2.248
    2PC     O2210402   0.822   0.661   2.218
    3OL     C1210403   0.660   0.562   2.355
    3OL     H2R10404   0.741   0.500   2.394
    3OL     H2S10405   0.589   0.498   2.303
    3OL     C1310406   0.574   0.623   2.467
    3OL     H3R10407   0.520   0.710   2.427
    3OL     H3S10408   0.641   0.664   2.543
    3OL     C1410409   0.489   0.518   2.539
    3OL     H4R10410   0.404   0.497   2.474
    3OL     H4S10411   0.446   0.554   2.632
    3OL     C1510412   0.567   0.392   2.578
    3OL     H5R10413   0.656   0.421   2.635
    3OL     H5S10414   0.618   0.339   2.497
    3OL     C1610415   0.492   0.284   2.657
    3OL     H6R10416   0.444   0.336   2.739
    3OL     H6S10417   0.575   0.231   2.705
    3OL     C1710418   0.404   0.188   2.576
    3OL     H7R10419   0.476   0.136   2.512
    3OL     H7S10420   0.325   0.235   2.518
    3OL     C1810421   0.337   0.079   2.661
    3OL     H8R10422   0.424   0.023   2.697
    3OL     H8S10423   0.274   0.011   2.604
    3OL     C1910424   0.259   0.120   2.783
    3OL     H9R10425   0.159   0.162   2.772
    3OL    C11010426   0.293   0.118   2.911
    3OL    H10R10427   0.225   0.144   2.991
    3OL    C11110428   0.429   0.079   2.964
    3OL    H11R10429   0.502   0.095   2.884
    3OL    H11S10430   0.428   6.464   3.000
    3OL    C11210431   0.472   0.160   3.087
    3OL    H12R10432   0.570   0.126   3.121
    3OL    H12S10433   0.388   0.147   3.155
    3OL    C11310434   0.480   0.310   3.056
    3OL    H13R10435   0.382   0.357   3.055
    3OL    H13S10436   0.522   0.323   2.956
    3OL    C11410437   0.573   0.382   3.156
    3OL    H14R10438   0.673   0.340   3.142
    3OL    H14S10439   0.543   0.363   3.259
    3OL    C11510440   0.571   0.534   3.141
    3OL    H15R10441   0.641   0.584   3.208
    3OL    H15S10442   0.478   0.585   3.167
    3OL    C11610443   0.613   0.587   3.003
    3OL    H16R10444   0.543   0.564   2.922
    3OL    H16S10445   0.702   0.529   2.978
    3OL    C11710446   0.650   0.736   2.993
    3OL    H17R10447   0.737   0.747   3.058
    3OL    H17S10448   0.574   0.801   3.037
    3OL    C11810449   0.690   0.789   2.855
    3OL    H18R10450   0.726   0.718   2.781
    3OL    H18S10451   0.753   0.878   2.845
    3OL    H18T10452   0.599   0.823   2.806
    1PA    C11610453   3.850   1.087   3.380
    1PA    H16R10454   3.779   1.066   3.460
    1PA    H16S10455   3.790   1.125   3.297
    1PA    H16T10456   3.924   1.158   3.417
    1PA    C11510457   3.924   0.958   3.341
    1PA    H15R10458   3.989   0.986   3.257
    1PA    H15S10459   3.990   0.920   3.419
    1PA    C11410460   3.837   0.846   3.282
    1PA    H14R10461   3.737   0.838   3.324
    1PA    H14S10462   3.820   0.882   3.180
    1PA    C11310463   3.916   0.715   3.284
    1PA    H13R10464   3.987   0.709   3.367
    1PA    H13S10465   3.847   0.633   3.302
    1PA    C11210466   4.007   0.681   3.165
    1PA    H12R10467   4.055   0.588   3.194
    1PA    H12S10468   3.951   0.658   3.074
    1PA    C11110469   4.111   0.784   3.118
    1PA    H11R10470   4.063   0.874   3.079
    1PA    H11S10471   4.180   0.800   3.201
    1PA    C11010472   4.195   0.717   3.008
    1PA    H10R10473   4.247   0.639   3.063
    1PA    H10S10474   4.114   0.682   2.944
    1PA     C1910475   4.277   0.826   2.938
    1PA     H9R10476   4.207   0.904   2.909
    1PA     H9S10477   4.348   0.872   3.007
    1PA     C1810478   4.345   0.775   2.810
    1PA     H8R10479   4.413   0.695   2.841
    1PA     H8S10480   4.270   0.734   2.742
    1PA     C1710481   4.422   0.889   2.742
    1PA     H7R10482   4.354   0.967   2.707
    1PA     H7S10483   4.492   0.935   2.812
    1PA     C1610484   4.506   0.827   2.631
    1PA     H6R10485   4.590   0.769   2.671
    1PA     H6S10486   4.441   0.764   2.569
    1PA     C1510487   4.565   0.938   2.542
    1PA     H5R10488   4.575   0.902   2.440
    1PA     H5S10489   4.497   1.023   2.540
    1PA     C1410490   4.693   0.991   2.609
    1PA     H4R10491   4.668   1.009   2.713
    1PA     H4S10492   4.768   0.912   2.610
    1PA     C1310493   4.766   1.108   2.540
    1PA     H3R10494   4.855   1.134   2.598
    1PA     H3S10495   4.800   1.072   2.443
    1PA     C1210496   4.686   1.237   2.517
    1PA     H2R10497   4.592   1.208   2.469
    1PA     H2S10498   4.664   1.290   2.610
    2PC     C1110499   4.750   1.322   2.411
    2PC     O1210500   4.691   1.366   2.315
    2PC     O1110501   4.875   1.357   2.445
    2PC      C110502   4.960   1.426   2.351
    2PC      HR10503   4.904   1.477   2.272
    2PC      HS10504   5.017   1.511   2.390
    2PC      C210505   5.060   1.331   2.284
    2PC      HX10506   5.144   1.382   2.237
    2PC      C310507   4.987   1.232   2.193
    2PC      HA10508   4.950   1.149   2.254
    2PC      HB10509   4.907   1.291   2.146
    2PC     O3110510   5.074   1.187   2.088
    2PC     P3110511   5.024   1.106   1.959
    2PC     O3210512   5.159   1.101   1.873
    2PC     C3110513   5.250   0.991   1.894
    2PC     H1A10514   5.264   0.970   2.001
    2PC     H1B10515   5.208   0.909   1.834
    2PC     C3210516   5.393   1.009   1.841
    2PC     H2A10517   5.455   0.919   1.835
    2PC     H2B10518   5.392   1.057   1.744
    2PC     N3110519   5.475   1.111   1.914
    2PC     C3310520   5.490   1.075   2.058
    2PC     H3A10521   5.409   1.101   2.127
    2PC     H3B10522   5.520   0.970   2.058
    2PC     H3C10523   5.567   1.138   2.103
    2PC     C3410524   5.607   1.117   1.842
    2PC     H4A10525   5.654   1.018   1.845
    2PC     H4B10526   5.599   1.156   1.741
    2PC     H4C10527   5.661   1.190   1.902
    2PC     C3510528   5.422   1.251   1.909
    2PC     H5A10529   5.326   1.246   1.961
    2PC     H5B10530   5.408   1.278   1.804
    2PC     H5C10531   5.496   1.315   1.957
    2PC     O3310532   4.994   0.966   1.994
    2PC     O3410533   4.912   1.166   1.883
    2PC     O2110534   5.104   1.248   2.393
    2PC     C2110535   5.189   1.300   2.483
    2PC     O2210536   5.215   1.419   2.486
    3OL     C1210537   5.257   1.196   2.568
    3OL     H2R10538   5.295   1.117   2.503
    3OL     H2S10539   5.184   1.145   2.632
    3OL     C1310540   5.377   1.255   2.643
    3OL     H3R10541   5.335   1.345   2.690
    3OL     H3S10542   5.456   1.286   2.575
    3OL     C1410543   5.437   1.172   2.756
    3OL     H4R10544   5.543   1.196   2.753
    3OL     H4S10545   5.424   1.069   2.723
    3OL     C1510546   5.374   1.203   2.893
    3OL     H5R10547   5.412   1.135   2.969
    3OL     H5S10548   5.265   1.189   2.894
    3OL     C1610549   5.407   1.345   2.941
    3OL     H6R10550   5.378   1.427   2.874
    3OL     H6S10551   5.514   1.361   2.933
    3OL     C1710552   5.371   1.386   3.084
    3OL     H7R10553   5.392   1.493   3.091
    3OL     H7S10554   5.440   1.343   3.157
    3OL     C1810555   5.226   1.350   3.121
    3OL     H8R10556   5.152   1.367   3.042
    3OL     H8S10557   5.208   1.424   3.199
    3OL     C1910558   5.200   1.218   3.188
    3OL     H9R10559   5.194   1.130   3.125
    3OL    C11010560   5.169   1.196   3.315
    3OL    H10R10561   5.144   1.093   3.339
    3OL    C11110562   5.164   1.295   3.428
    3OL    H11R10563   5.242   1.371   3.419
    3OL    H11S10564   5.203   1.249   3.518
    3OL    C11210565   5.021   1.350   3.439
    3OL    H12R10566   4.976   1.392   3.348
    3OL    H12S10567   5.035   1.434   3.507
    3OL    C11310568   4.927   1.251   3.508
    3OL    H13R10569   4.976   1.210   3.597
    3OL    H13S10570   4.897   1.172   3.439
    3OL    C11410571   4.801   1.320   3.561
    3OL    H14R10572   4.758   1.353   3.466
    3OL    H14S10573   4.835   1.396   3.631
    3OL    C11510574   4.705   1.224   3.633
    3OL    H15R10575   4.688   1.133   3.574
    3OL    H15S10576   4.611   1.278   3.650
    3OL    C11610577   4.761   1.186   3.771
    3OL    H16R10578   4.791   1.278   3.820
    3OL    H16S10579   4.861   1.146   3.752
    3OL    C11710580   4.676   1.092   3.858
    3OL    H17R10581   4.733   1.077   3.950
    3OL    H17S10582   4.661   0.991   3.817
    3OL    C11810583   4.538   1.150   3.891
    3OL    H18R10584   4.472   1.145   3.804
    3OL    H18S10585   4.544   1.253   3.927
    3OL    H18T10586   4.506   1.093   3.978
    1PA    C11610587   0.512   2.691   3.840
    1PA    H16R10588   0.577   2.699   3.927
    1PA    H16S10589   0.487   2.586   3.820
    1PA    H16T10590   0.422   2.749   3.861
    1PA    C11510591   0.592   2.762   3.730
    1PA    H15R10592   0.530   2.783   3.643
    1PA    H15S10593   0.625   2.855   3.778
    1PA    C11410594   0.718   2.681   3.697
    1PA    H14R10595   0.772   2.660   3.789
    1PA    H14S10596   0.692   2.579   3.670
    1PA    C11310597   0.811   2.738   3.588
    1PA    H13R10598   0.896   2.784   3.639
    1PA    H13S10599   0.857   2.646   3.549
    1PA    C11210600   0.763   2.829   3.474
    1PA    H12R10601   0.695   2.774   3.408
    1PA    H12S10602   0.710   2.915   3.514
    1PA    C11110603   0.880   2.886   3.392
    1PA    H11R10604   0.844   2.958   3.318
    1PA    H11S10605   0.947   2.941   3.457
    1PA    C11010606   0.966   2.782   3.318
    1PA    H10R10607   0.996   2.692   3.372
    1PA    H10S10608   0.909   2.746   3.231
    1PA     C1910609   1.089   2.848   3.254
    1PA     H9R10610   1.118   2.783   3.172
    1PA     H9S10611   1.072   2.950   3.217
    1PA     C1810612   1.210   2.866   3.347
    1PA     H8R10613   1.178   2.938   3.423
    1PA     H8S10614   1.237   2.779   3.406
    1PA     C1710615   1.331   2.929   3.277
    1PA     H7R10616   1.315   3.029   3.238
    1PA     H7S10617   1.419   2.939   3.341
    1PA     C1610618   1.369   2.839   3.158
    1PA     H6R10619   1.368   2.733   3.184
    1PA     H6S10620   1.302   2.859   3.074
    1PA     C1510621   1.508   2.885   3.113
    1PA     H5R10622   1.515   2.990   3.082
    1PA     H5S10623   1.575   2.878   3.199
    1PA     C1410624   1.560   2.793   3.002
    1PA     H4R10625   1.580   2.690   3.032
    1PA     H4S10626   1.492   2.776   2.918
    1PA     C1310627   1.691   2.858   2.956
    1PA     H3R10628   1.670   2.959   2.921
    1PA     H3S10629   1.771   2.858   3.030
    1PA     C1210630   1.761   2.783   2.842
    1PA     H2R10631   1.867   2.809   2.836
    1PA     H2S10632   1.763   2.677   2.868
    2PC     C1110633   1.698   2.787   2.705
    2PC     O1210634   1.620   2.708   2.656
    2PC     O1110635   1.732   2.904   2.649
    2PC      C110636   1.669   2.940   2.524
    2PC      HR10637   1.725   3.025   2.485
    2PC      HS10638   1.668   2.855   2.455
    2PC      C210639   1.525   2.978   2.559
    2PC      HX10640   1.487   2.905   2.631
    2PC      C310641   1.444   2.969   2.429
    2PC      HA10642   1.397   3.067   2.419
    2PC      HB10643   1.511   2.953   2.345
    2PC     O3110644   1.348   2.862   2.438
    2PC     P3110645   1.271   2.811   2.307
    2PC     O3210646   1.146   2.744   2.380
    2PC     C3110647   1.094   2.615   2.341
    2PC     H1A10648   1.073   2.608   2.234
    2PC     H1B10649   1.161   2.532   2.362
    2PC     C3210650   0.965   2.585   2.419
    2PC     H2A10651   0.920   2.493   2.383
    2PC     H2B10652   0.975   2.584   2.528
    2PC     N3110653   0.853   2.679   2.387
    2PC     C3310654   0.828   2.666   2.239
    2PC     H3A10655   0.743   2.728   2.207
    2PC     H3B10656   0.909   2.701   2.176
    2PC     H3C10657   0.798   2.564   2.217
    2PC     C3410658   0.726   2.645   2.459
    2PC     H4A10659   0.743   2.686   2.559
    2PC     H4B10660   0.655   2.703   2.401
    2PC     H4C10661   0.705   2.538   2.447
    2PC     C3510662   0.885   2.823   2.408
    2PC     H5A10663   0.975   2.849   2.351
    2PC     H5B10664   0.893   2.837   2.516
    2PC     H5C10665   0.803   2.888   2.376
    2PC     O3310666   1.217   2.904   2.205
    2PC     O3410667   1.350   2.706   2.240
    2PC     O2110668   1.523   3.117   2.598
    2PC     C2110669   1.462   3.158   2.710
    2PC     O2210670   1.399   3.087   2.787
    3OL     C1210671   1.486   3.305   2.733
    3OL     H2R10672   1.391   3.346   2.700
    3OL     H2S10673   1.567   3.334   2.666
    3OL     C1310674   1.534   3.325   2.878
    3OL     H3R10675   1.621   3.262   2.898
    3OL     H3S10676   1.444   3.306   2.937
    3OL     C1410677   1.568   3.473   2.894
    3OL     H4R10678   1.480   3.539   2.888
    3OL     H4S10679   1.636   3.516   2.820
    3OL     C1510680   1.638   3.494   3.028
    3OL     H5R10681   1.735   3.445   3.022
    3OL     H5S10682   1.568   3.456   3.103
    3OL     C1610683   1.669   3.642   3.053
    3OL     H6R10684   1.574   3.696   3.053
    3OL     H6S10685   1.744   3.679   2.983
    3OL     C1710686   1.740   3.664   3.188
    3OL     H7R10687   1.793   3.756   3.164
    3OL     H7S10688   1.810   3.582   3.207
    3OL     C1810689   1.642   3.676   3.305
    3OL     H8R10690   1.579   3.587   3.313
    3OL     H8S10691   1.573   3.760   3.289
    3OL     C1910692   1.711   3.701   3.437
    3OL     H9R10693   1.818   3.683   3.431
    3OL    C11010694   1.654   3.700   3.556
    3OL    H10R10695   1.717   3.698   3.645
    3OL    C11110696   1.506   3.683   3.580
    3OL    H11R10697   1.450   3.674   3.487
    3OL    H11S10698   1.468   3.765   3.641
    3OL    C11210699   1.477   3.557   3.664
    3OL    H12R10700   1.526   3.570   3.761
    3OL    H12S10701   1.518   3.471   3.611
    3OL    C11310702   1.330   3.533   3.698
    3OL    H13R10703   1.331   3.433   3.741
    3OL    H13S10704   1.267   3.539   3.609
    3OL    C11410705   1.267   3.622   3.807
    3OL    H14R10706   1.264   3.721   3.762
    3OL    H14S10707   1.343   3.624   3.887
    3OL    C11510708   1.133   3.571   3.861
    3OL    H15R10709   1.137   3.465   3.887
    3OL    H15S10710   1.059   3.570   3.781
    3OL    C11610711   1.088   3.642   3.990
    3OL    H16R10712   1.159   3.612   4.067
    3OL    H16S10713   0.986   3.612   4.018
    3OL    C11710714   1.079   3.794   3.973
    3OL    H17R10715   1.022   3.818   3.883
    3OL    H17S10716   1.176   3.840   3.955
    3OL    C11810717   1.030   3.862   4.102
    3OL    H18R10718   1.024   3.970   4.090
    3OL    H18S10719   1.097   3.840   4.186
    3OL    H18T10720   0.927   3.835   4.123
    1PA    C11610721   0.390   4.945   4.137
    1PA    H16R10722   0.474   5.004   4.176
    1PA    H16S10723   0.428   4.843   4.129
    1PA    H16T10724   0.309   4.935   4.209
    1PA    C11510725   0.346   4.979   3.994
    1PA    H15R10726   0.277   4.898   3.971
    1PA    H15S10727   0.288   5.071   3.988
    1PA    C11410728   0.463   4.970   3.895
    1PA    H14R10729   0.528   5.054   3.922
    1PA    H14S10730   0.514   4.877   3.921
    1PA    C11310731   0.426   4.983   3.747
    1PA    H13R10732   0.362   4.899   3.720
    1PA    H13S10733   0.360   5.067   3.723
    1PA    C11210734   0.549   4.981   3.655
    1PA    H12R10735   0.604   5.074   3.673
    1PA    H12S10736   0.617   4.906   3.695
    1PA    C11110737   0.537   4.967   3.503
    1PA    H11R10738   0.517   5.067   3.463
    1PA    H11S10739   0.633   4.938   3.461
    1PA    C11010740   0.423   4.870   3.469
    1PA    H10R10741   0.471   4.776   3.497
    1PA    H10S10742   0.329   4.878   3.524
    1PA     C1910743   0.390   4.874   3.319
    1PA     H9R10744   0.359   4.976   3.296
    1PA     H9S10745   0.480   4.857   3.258
    1PA     C1810746   0.293   4.761   3.284
    1PA     H8R10747   0.312   4.664   3.329
    1PA     H8S10748   0.195   4.798   3.316
    1PA     C1710749   0.278   4.752   3.132
    1PA     H7R10750   0.372   4.767   3.078
    1PA     H7S10751   0.240   4.656   3.096
    1PA     C1610752   0.179   4.856   3.076
    1PA     H6R10753   0.081   4.852   3.124
    1PA     H6S10754   0.216   4.956   3.100
    1PA     C1510755   0.173   4.859   2.922
    1PA     H5R10756   0.275   4.837   2.890
    1PA     H5S10757   0.109   4.778   2.887
    1PA     C1410758   0.111   4.992   2.876
    1PA     H4R10759   0.035   5.020   2.950
    1PA     H4S10760   0.189   5.069   2.875
    1PA     C1310761   0.042   4.990   2.739
    1PA     H3R10762   0.016   5.090   2.705
    1PA     H3S10763   0.105   4.952   2.659
    1PA     C1210764   6.393   4.921   2.737
    1PA     H2R10765   6.399   4.818   2.772
    1PA     H2S10766   6.320   4.972   2.801
    2PC     C1110767   6.332   4.911   2.600
    2PC     O1210768   6.362   4.974   2.500
    2PC     O1110769   6.237   4.817   2.603
    2PC      C110770   6.180   4.766   2.481
    2PC      HR10771   6.087   4.714   2.506
    2PC      HS10772   6.152   4.850   2.416
    2PC      C210773   6.280   4.678   2.405
    2PC      HX10774   6.372   4.736   2.395
    2PC      C310775   6.226   4.634   2.268
    2PC      HA10776   6.187   4.717   2.208
    2PC      HB10777   6.310   4.591   2.213
    2PC     O3110778   6.111   4.548   2.278
    2PC     P3110779   6.049   4.487   2.144
    2PC     O3210780   6.140   4.357   2.122
    2PC     C3110781   6.124   4.242   2.208
    2PC     H1A10782   6.166   4.256   2.308
    2PC     H1B10783   6.017   4.223   2.219
    2PC     C3210784   6.184   4.129   2.124
    2PC     H2A10785   6.150   4.038   2.173
    2PC     H2B10786   6.130   4.134   2.029
    2PC     N3110787   6.330   4.098   2.110
    2PC     C3310788   6.403   4.221   2.065
    2PC     H3A10789   6.352   4.257   1.975
    2PC     H3B10790   6.401   4.293   2.146
    2PC     H3C10791   0.018   4.200   2.037
    2PC     C3410792   6.386   4.055   2.242
    2PC     H4A10793   6.334   3.965   2.276
    2PC     H4B10794   0.005   4.033   2.244
    2PC     H4C10795   6.378   4.140   2.309
    2PC     C3510796   6.348   3.989   2.010
    2PC     H5A10797   6.318   4.020   1.909
    2PC     H5B10798   6.275   3.915   2.045
    2PC     H5C10799   6.445   3.941   2.024
    2PC     O3310800   5.910   4.440   2.163
    2PC     O3410801   6.054   4.574   2.025
    2PC     O2110802   6.304   4.568   2.495
    2PC     C2110803   6.414   4.490   2.492
    2PC     O2210804   0.000   4.492   2.396
    3OL     C1210805   6.420   4.394   2.608
    3OL     H2R10806   6.327   4.400   2.665
    3OL     H2S10807   0.001   4.430   2.684
    3OL     C1310808   6.447   4.248   2.569
    3OL     H3R10809   0.035   4.236   2.492
    3OL     H3S10810   6.357   4.213   2.520
    3OL     C1410811   6.479   4.161   2.691
    3OL     H4R10812   6.474   4.218   2.783
    3OL     H4S10813   0.090   4.117   2.673
    3OL     C1510814   6.376   4.049   2.707
    3OL     H5R10815   6.396   3.978   2.627
    3OL     H5S10816   6.272   4.081   2.701
    3OL     C1610817   6.393   3.977   2.841
    3OL     H6R10818   0.010   3.954   2.857
    3OL     H6S10819   6.338   3.883   2.838
    3OL     C1710820   6.333   4.058   2.958
    3OL     H7R10821   6.225   4.061   2.943
    3OL     H7S10822   6.380   4.156   2.967
    3OL     C1810823   6.369   3.988   3.089
    3OL     H8R10824   6.478   3.993   3.102
    3OL     H8S10825   6.360   3.880   3.076
    3OL     C1910826   6.298   4.034   3.213
    3OL     H9R10827   6.283   4.142   3.216
    3OL    C11010828   6.252   3.953   3.308
    3OL    H10R10829   6.211   4.003   3.395
    3OL    C11110830   6.264   3.803   3.310
    3OL    H11R10831   6.357   3.776   3.361
    3OL    H11S10832   6.279   3.754   3.213
    3OL    C11210833   6.139   3.741   3.375
    3OL    H12R10834   6.068   3.718   3.295
    3OL    H12S10835   6.078   3.816   3.426
    3OL    C11310836   6.180   3.630   3.472
    3OL    H13R10837   6.263   3.664   3.534
    3OL    H13S10838   6.213   3.554   3.401
    3OL    C11410839   6.060   3.578   3.553
    3OL    H14R10840   5.992   3.535   3.479
    3OL    H14S10841   6.006   3.663   3.593
    3OL    C11510842   6.100   3.476   3.661
    3OL    H15R10843   6.185   3.523   3.710
    3OL    H15S10844   6.140   3.382   3.623
    3OL    C11610845   5.990   3.441   3.762
    3OL    H16R10846   5.905   3.397   3.709
    3OL    H16S10847   5.961   3.534   3.812
    3OL    C11710848   6.043   3.343   3.867
    3OL    H17R10849   6.104   3.273   3.810
    3OL    H17S10850   5.960   3.288   3.912
    3OL    C11810851   6.118   3.412   3.982
    3OL    H18R10852   6.194   3.484   3.950
    3OL    H18S10853   6.150   3.345   4.062
    3OL    H18T10854   6.048   3.473   4.039
    1PA    C11610855   5.376   2.793   3.557
    1PA    H16R10856   5.329   2.698   3.529
    1PA    H16S10857   5.303   2.870   3.531
    1PA    H16T10858   5.384   2.806   3.666
    1PA    C11510859   5.501   2.803   3.469
    1PA    H15R10860   5.461   2.798   3.367
    1PA    H15S10861   5.554   2.897   3.484
    1PA    C11410862   5.609   2.696   3.489
    1PA    H14R10863   5.683   2.706   3.410
    1PA    H14S10864   5.655   2.703   3.588
    1PA    C11310865   5.553   2.555   3.466
    1PA    H13R10866   5.482   2.536   3.548
    1PA    H13S10867   5.502   2.539   3.371
    1PA    C11210868   5.650   2.439   3.491
    1PA    H12R10869   5.733   2.472   3.554
    1PA    H12S10870   5.594   2.360   3.542
    1PA    C11110871   5.714   2.386   3.362
    1PA    H11R10872   5.626   2.360   3.302
    1PA    H11S10873   5.757   2.467   3.302
    1PA    C11010874   5.807   2.267   3.391
    1PA    H10R10875   5.883   2.292   3.465
    1PA    H10S10876   5.752   2.179   3.422
    1PA     C1910877   5.872   2.237   3.255
    1PA     H9R10878   5.793   2.234   3.179
    1PA     H9S10879   5.946   2.314   3.234
    1PA     C1810880   5.955   2.108   3.247
    1PA     H8R10881   6.044   2.117   3.310
    1PA     H8S10882   5.895   2.028   3.290
    1PA     C1710883   5.999   2.076   3.104
    1PA     H7R10884   5.908   2.070   3.043
    1PA     H7S10885   6.065   2.157   3.073
    1PA     C1610886   6.077   1.944   3.099
    1PA     H6R10887   6.179   1.941   3.138
    1PA     H6S10888   6.007   1.868   3.137
    1PA     C1510889   6.105   1.922   2.950
    1PA     H5R10890   6.033   1.977   2.888
    1PA     H5S10891   6.196   1.975   2.921
    1PA     C1410892   6.109   1.774   2.910
    1PA     H4R10893   6.185   1.723   2.970
    1PA     H4S10894   6.013   1.731   2.938
    1PA     C1310895   6.144   1.755   2.761
    1PA     H3R10896   6.088   1.832   2.708
    1PA     H3S10897   6.248   1.775   2.736
    1PA     C1210898   6.098   1.620   2.705
    1PA     H2R10899   6.175   1.550   2.737
    1PA     H2S10900   6.003   1.597   2.753
    2PC     C1110901   6.100   1.601   2.555
    2PC     O1210902   6.078   1.694   2.480
    2PC     O1110903   6.131   1.476   2.515
    2PC      C110904   6.137   1.460   2.372
    2PC      HR10905   6.129   1.352   2.355
    2PC      HS10906   6.056   1.497   2.308
    2PC      C210907   6.267   1.524   2.321
    2PC      HX10908   6.265   1.623   2.367
    2PC      C310909   6.274   1.522   2.168
    2PC      HA10910   6.292   1.420   2.135
    2PC      HB10911   6.181   1.559   2.123
    2PC     O3110912   6.374   1.619   2.131
    2PC     P3110913   6.439   1.612   1.985
    2PC     O3210914   0.056   1.494   2.010
    2PC     C3110915   0.170   1.514   2.096
    2PC     H1A10916   0.215   1.609   2.068
    2PC     H1B10917   0.128   1.516   2.197
    2PC     C3210918   0.261   1.391   2.077
    2PC     H2A10919   0.353   1.404   2.133
    2PC     H2B10920   0.207   1.308   2.122
    2PC     N3110921   0.297   1.349   1.938
    2PC     C3310922   0.368   1.463   1.872
    2PC     H3A10923   0.464   1.472   1.924
    2PC     H3B10924   0.381   1.428   1.770
    2PC     H3C10925   0.310   1.556   1.879
    2PC     C3410926   0.391   1.232   1.943
    2PC     H4A10927   0.419   1.202   1.842
    2PC     H4B10928   0.475   1.260   2.006
    2PC     H4C10929   0.347   1.145   1.992
    2PC     C3510930   0.183   1.306   1.850
    2PC     H5A10931   0.213   1.289   1.747
    2PC     H5B10932   0.102   1.379   1.842
    2PC     H5C10933   0.138   1.221   1.903
    2PC     O3310934   6.343   1.589   1.875
    2PC     O3410935   0.023   1.732   1.936
    2PC     O2110936   6.365   1.433   2.375
    2PC     C2110937   6.471   1.489   2.434
    2PC     O2210938   0.010   1.607   2.428
    3OL     C1210939   0.078   1.396   2.504
    3OL     H2R10940   0.169   1.390   2.443
    3OL     H2S10941   0.040   1.294   2.499
    3OL     C1310942   0.113   1.438   2.648
    3OL     H3R10943   0.173   1.529   2.644
    3OL     H3S10944   0.180   1.364   2.691
    3OL     C1410945   6.482   1.454   2.744
    3OL     H4R10946   6.430   1.359   2.758
    3OL     H4S10947   6.415   1.533   2.708
    3OL     C1510948   0.035   1.487   2.888
    3OL     H5R10949   0.085   1.584   2.892
    3OL     H5S10950   0.108   1.415   2.925
    3OL     C1610951   6.403   1.493   2.982
    3OL     H6R10952   6.375   1.388   2.994
    3OL     H6S10953   6.321   1.551   2.938
    3OL     C1710954   6.436   1.556   3.119
    3OL     H7R10955   6.454   1.663   3.105
    3OL     H7S10956   0.035   1.507   3.161
    3OL     C1810957   6.316   1.529   3.212
    3OL     H8R10958   6.297   1.422   3.207
    3OL     H8S10959   6.228   1.573   3.166
    3OL     C1910960   6.343   1.568   3.355
    3OL     H9R10961   6.433   1.522   3.394
    3OL    C11010962   6.271   1.652   3.428
    3OL    H10R10963   6.299   1.680   3.529
    3OL    C11110964   6.137   1.716   3.398
    3OL    H11R10965   6.119   1.704   3.291
    3OL    H11S10966   6.137   1.820   3.431
    3OL    C11210967   6.029   1.636   3.473
    3OL    H12R10968   6.057   1.623   3.578
    3OL    H12S10969   6.015   1.536   3.433
    3OL    C11310970   5.891   1.703   3.468
    3OL    H13R10971   5.813   1.628   3.480
    3OL    H13S10972   5.888   1.752   3.370
    3OL    C11410973   5.860   1.796   3.586
    3OL    H14R10974   5.864   1.734   3.676
    3OL    H14S10975   5.759   1.825   3.556
    3OL    C11510976   5.953   1.917   3.599
    3OL    H15R10977   5.958   1.977   3.508
    3OL    H15S10978   6.060   1.905   3.621
    3OL    C11610979   5.910   2.012   3.712
    3OL    H16R10980   5.914   1.959   3.807
    3OL    H16S10981   5.806   2.042   3.700
    3OL    C11710982   6.006   2.132   3.719
    3OL    H17R10983   6.004   2.173   3.618
    3OL    H17S10984   6.108   2.096   3.730
    3OL    C11810985   5.972   2.234   3.829
    3OL    H18R10986   6.042   2.317   3.826
    3OL    H18S10987   5.961   2.192   3.929
    3OL    H18T10988   5.880   2.285   3.800
    1PA    C11610989   0.693   4.113   4.092
    1PA    H16R10990   0.590   4.094   4.123
    1PA    H16S10991   0.695   4.222   4.085
    1PA    H16T10992   0.756   4.074   4.172
    1PA    C11510993   0.737   4.035   3.967
    1PA    H15R10994   0.844   4.052   3.951
    1PA    H15S10995   0.730   3.927   3.981
    1PA    C11410996   0.650   4.079   3.849
    1PA    H14R10997   0.545   4.062   3.873
    1PA    H14S10998   0.660   4.182   3.814
    1PA    C11310999   0.689   3.982   3.737
    1PA    H13R11000   0.796   3.990   3.715
    1PA    H13S11001   0.662   3.881   3.768
    1PA    C11211002   0.608   4.021   3.612
    1PA    H12R11003   0.500   4.017   3.631
    1PA    H12S11004   0.628   4.125   3.584
    1PA    C11111005   0.654   3.938   3.492
    1PA    H11R11006   0.703   3.843   3.517
    1PA    H11S11007   0.569   3.927   3.425
    1PA    C11011008   0.772   4.008   3.421
    1PA    H10R11009   0.746   4.112   3.401
    1PA    H10S11010   0.864   4.016   3.479
    1PA     C1911011   0.823   3.945   3.291
    1PA     H9R11012   0.921   3.982   3.260
    1PA     H9S11013   0.843   3.838   3.300
    1PA     C1811014   0.734   3.972   3.168
    1PA     H8R11015   0.634   3.932   3.187
    1PA     H8S11016   0.731   4.080   3.157
    1PA     C1711017   0.794   3.905   3.044
    1PA     H7R11018   0.881   3.967   3.022
    1PA     H7S11019   0.842   3.812   3.077
    1PA     C1611020   0.690   3.898   2.931
    1PA     H6R11021   0.613   3.828   2.965
    1PA     H6S11022   0.643   3.995   2.918
    1PA     C1511023   0.751   3.839   2.803
    1PA     H5R11024   0.848   3.890   2.791
    1PA     H5S11025   0.772   3.733   2.818
    1PA     C1411026   0.661   3.871   2.684
    1PA     H4R11027   0.574   3.804   2.688
    1PA     H4S11028   0.628   3.975   2.676
    1PA     C1311029   0.739   3.839   2.555
    1PA     H3R11030   0.819   3.911   2.538
    1PA     H3S11031   0.772   3.735   2.559
    1PA     C1211032   0.662   3.852   2.423
    1PA     H2R11033   0.583   3.778   2.411
    1PA     H2S11034   0.630   3.957   2.419
    2PC     C1111035   0.749   3.825   2.303
    2PC     O1211036   0.707   3.827   2.189
    2PC     O1111037   0.872   3.774   2.323
    2PC      C111038   0.937   3.710   2.211
    2PC      HR11039   0.861   3.649   2.162
    2PC      HS11040   0.967   3.788   2.140
    2PC      C211041   1.045   3.619   2.271
    2PC      HX11042   1.112   3.691   2.317
    2PC      C311043   1.127   3.537   2.171
    2PC      HA11044   1.199   3.594   2.111
    2PC      HB11045   1.179   3.462   2.233
    2PC     O3111046   1.038   3.469   2.081
    2PC     P3111047   1.082   3.361   1.972
    2PC     O3211048   1.204   3.437   1.899
    2PC     C3111049   1.289   3.365   1.808
    2PC     H1A11050   1.370   3.424   1.765
    2PC     H1B11051   1.338   3.283   1.860
    2PC     C3211052   1.211   3.316   1.685
    2PC     H2A11053   1.278   3.252   1.627
    2PC     H2B11054   1.131   3.245   1.707
    2PC     N3111055   1.169   3.423   1.588
    2PC     C3311056   1.286   3.505   1.544
    2PC     H3A11057   1.316   3.575   1.623
    2PC     H3B11058   1.362   3.428   1.527
    2PC     H3C11059   1.259   3.546   1.446
    2PC     C3411060   1.099   3.345   1.480
    2PC     H4A11061   1.025   3.281   1.529
    2PC     H4B11062   1.036   3.413   1.422
    2PC     H4C11063   1.163   3.287   1.413
    2PC     C3511064   1.074   3.521   1.649
    2PC     H5A11065   0.997   3.462   1.699
    2PC     H5B11066   1.037   3.588   1.571
    2PC     H5C11067   1.131   3.585   1.717
    2PC     O3311068   1.122   3.231   2.030
    2PC     O3411069   0.967   3.337   1.881
    2PC     O2111070   0.985   3.537   2.373
    2PC     C2111071   1.063   3.480   2.465
    2PC     O2211072   1.185   3.481   2.471
    3OL     C1211073   0.990   3.407   2.575
    3OL     H2R11074   0.894   3.376   2.533
    3OL     H2S11075   0.980   3.476   2.659
    3OL     C1311076   1.070   3.287   2.628
    3OL     H3R11077   1.149   3.320   2.695
    3OL     H3S11078   1.110   3.232   2.542
    3OL     C1411079   0.980   3.189   2.705
    3OL     H4R11080   0.910   3.146   2.633
    3OL     H4S11081   0.914   3.247   2.771
    3OL     C1511082   1.063   3.088   2.786
    3OL     H5R11083   1.013   3.048   2.874
    3OL     H5S11084   1.155   3.141   2.810
    3OL     C1611085   1.096   2.958   2.712
    3OL     H6R11086   1.170   2.969   2.632
    3OL     H6S11087   1.006   2.911   2.671
    3OL     C1711088   1.157   2.846   2.797
    3OL     H7R11089   1.093   2.826   2.883
    3OL     H7S11090   1.250   2.878   2.844
    3OL     C1811091   1.184   2.720   2.713
    3OL     H8R11092   1.264   2.736   2.641
    3OL     H8S11093   1.095   2.690   2.656
    3OL     C1911094   1.217   2.610   2.810
    3OL     H9R11095   1.323   2.585   2.812
    3OL    C11011096   1.142   2.527   2.881
    3OL    H10R11097   1.180   2.443   2.939
    3OL    C11111098   0.993   2.532   2.854
    3OL    H11R11099   0.960   2.626   2.809
    3OL    H11S11100   0.940   2.524   2.949
    3OL    C11211101   0.956   2.408   2.772
    3OL    H12R11102   0.983   2.411   2.666
    3OL    H12S11103   0.848   2.401   2.786
    3OL    C11311104   1.015   2.276   2.824
    3OL    H13R11105   0.994   2.285   2.931
    3OL    H13S11106   1.124   2.274   2.816
    3OL    C11411107   0.944   2.157   2.758
    3OL    H14R11108   0.952   2.148   2.649
    3OL    H14S11109   0.840   2.131   2.780
    3OL    C11511110   1.019   2.037   2.817
    3OL    H15R11111   1.035   2.053   2.923
    3OL    H15S11112   1.113   2.038   2.762
    3OL    C11611113   0.960   1.899   2.785
    3OL    H16R11114   1.034   1.827   2.822
    3OL    H16S11115   0.955   1.880   2.677
    3OL    C11711116   0.826   1.865   2.852
    3OL    H17R11117   0.744   1.926   2.813
    3OL    H17S11118   0.824   1.878   2.960
    3OL    C11811119   0.787   1.719   2.824
    3OL    H18R11120   0.809   1.705   2.718
    3OL    H18S11121   0.682   1.702   2.849
    3OL    H18T11122   0.854   1.652   2.878
    1PA    C11611123   1.442   1.676   4.108
    1PA    H16R11124   1.358   1.691   4.176
    1PA    H16S11125   1.529   1.645   4.166
    1PA    H16T11126   1.428   1.601   4.030
    1PA    C11511127   1.480   1.806   4.036
    1PA    H15R11128   1.405   1.822   3.958
    1PA    H15S11129   1.492   1.892   4.102
    1PA    C11411130   1.605   1.786   3.948
    1PA    H14R11131   1.697   1.754   3.996
    1PA    H14S11132   1.574   1.719   3.867
    1PA    C11311133   1.649   1.920   3.888
    1PA    H13R11134   1.559   1.977   3.861
    1PA    H13S11135   1.693   1.986   3.963
    1PA    C11211136   1.738   1.897   3.766
    1PA    H12R11137   1.801   1.987   3.759
    1PA    H12S11138   1.799   1.810   3.789
    1PA    C11111139   1.678   1.888   3.625
    1PA    H11R11140   1.617   1.798   3.612
    1PA    H11S11141   1.612   1.973   3.606
    1PA    C11011142   1.790   1.885   3.520
    1PA    H10R11143   1.855   1.967   3.550
    1PA    H10S11144   1.853   1.795   3.521
    1PA     C1911145   1.728   1.909   3.381
    1PA     H9R11146   1.632   1.858   3.372
    1PA     H9S11147   1.713   2.016   3.362
    1PA     C1811148   1.829   1.860   3.277
    1PA     H8R11149   1.928   1.898   3.304
    1PA     H8S11150   1.832   1.752   3.287
    1PA     C1711151   1.789   1.893   3.132
    1PA     H7R11152   1.702   1.834   3.102
    1PA     H7S11153   1.760   1.997   3.118
    1PA     C1611154   1.909   1.855   3.044
    1PA     H6R11155   1.990   1.920   3.077
    1PA     H6S11156   1.945   1.752   3.052
    1PA     C1511157   1.885   1.882   2.894
    1PA     H5R11158   1.879   1.787   2.839
    1PA     H5S11159   1.794   1.942   2.888
    1PA     C1411160   2.002   1.962   2.836
    1PA     H4R11161   1.982   2.061   2.878
    1PA     H4S11162   2.094   1.908   2.860
    1PA     C1311163   1.993   1.971   2.683
    1PA     H3R11164   2.096   2.002   2.663
    1PA     H3S11165   1.971   1.875   2.636
    1PA     C1211166   1.890   2.077   2.644
    1PA     H2R11167   1.790   2.052   2.680
    1PA     H2S11168   1.917   2.176   2.684
    2PC     C1111169   1.878   2.091   2.494
    2PC     O1211170   1.935   2.013   2.421
    2PC     O1111171   1.804   2.198   2.462
    2PC      C111172   1.815   2.233   2.323
    2PC      HR11173   1.907   2.196   2.279
    2PC      HS11174   1.741   2.180   2.262
    2PC      C211175   1.796   2.385   2.314
    2PC      HX11176   1.701   2.418   2.355
    2PC      C311177   1.814   2.439   2.171
    2PC      HA11178   1.746   2.379   2.110
    2PC      HB11179   1.785   2.543   2.156
    2PC     O3111180   1.947   2.411   2.122
    2PC     P3111181   1.983   2.465   1.976
    2PC     O3211182   2.012   2.622   1.993
    2PC     C3111183   1.925   2.718   1.930
    2PC     H1A11184   1.889   2.688   1.831
    2PC     H1B11185   1.836   2.729   1.993
    2PC     C3211186   1.987   2.858   1.938
    2PC     H2A11187   2.093   2.859   1.912
    2PC     H2B11188   1.932   2.917   1.865
    2PC     N3111189   1.991   2.940   2.063
    2PC     C3311190   1.861   3.014   2.077
    2PC     H3A11191   1.847   3.069   2.170
    2PC     H3B11192   1.860   3.088   1.996
    2PC     H3C11193   1.778   2.945   2.066
    2PC     C3411194   2.019   2.855   2.183
    2PC     H4A11195   2.117   2.816   2.156
    2PC     H4B11196   2.013   2.916   2.273
    2PC     H4C11197   1.951   2.771   2.193
    2PC     C3511198   2.093   3.049   2.046
    2PC     H5A11199   2.045   3.146   2.056
    2PC     H5B11200   2.140   3.040   1.948
    2PC     H5C11201   2.163   3.041   2.130
    2PC     O3311202   2.092   2.379   1.925
    2PC     O3411203   1.874   2.435   1.880
    2PC     O2111204   1.897   2.449   2.395
    2PC     C2111205   1.884   2.581   2.417
    2PC     O2211206   1.788   2.647   2.383
    3OL     C1211207   1.997   2.642   2.496
    3OL     H2R11208   1.958   2.742   2.514
    3OL     H2S11209   2.090   2.649   2.439
    3OL     C1311210   2.013   2.580   2.636
    3OL     H3R11211   2.049   2.479   2.616
    3OL     H3S11212   1.916   2.575   2.685
    3OL     C1411213   2.117   2.671   2.704
    3OL     H4R11214   2.073   2.770   2.717
    3OL     H4S11215   2.200   2.692   2.636
    3OL     C1511216   2.169   2.647   2.847
    3OL     H5R11217   2.085   2.656   2.916
    3OL     H5S11218   2.243   2.725   2.867
    3OL     C1611219   2.218   2.503   2.865
    3OL     H6R11220   2.136   2.431   2.871
    3OL     H6S11221   2.278   2.496   2.956
    3OL     C1711222   2.317   2.467   2.753
    3OL     H7R11223   2.386   2.552   2.742
    3OL     H7S11224   2.261   2.444   2.663
    3OL     C1811225   2.399   2.340   2.776
    3OL     H8R11226   2.457   2.347   2.868
    3OL     H8S11227   2.482   2.342   2.705
    3OL     C1911228   2.313   2.217   2.760
    3OL     H9R11229   2.261   2.210   2.665
    3OL    C11011230   2.296   2.118   2.846
    3OL    H10R11231   2.229   2.035   2.826
    3OL    C11111232   2.364   2.116   2.981
    3OL    H11R11233   2.421   2.205   3.009
    3OL    H11S11234   2.434   2.032   2.981
    3OL    C11211235   2.254   2.083   3.082
    3OL    H12R11236   2.285   2.001   3.148
    3OL    H12S11237   2.162   2.055   3.030
    3OL    C11311238   2.215   2.206   3.166
    3OL    H13R11239   2.160   2.271   3.097
    3OL    H13S11240   2.302   2.248   3.215
    3OL    C11411241   2.121   2.174   3.283
    3OL    H14R11242   2.065   2.087   3.248
    3OL    H14S11243   2.055   2.261   3.292
    3OL    C11511244   2.197   2.144   3.413
    3OL    H15R11245   2.294   2.104   3.382
    3OL    H15S11246   2.143   2.067   3.468
    3OL    C11611247   2.222   2.263   3.506
    3OL    H16R11248   2.132   2.295   3.560
    3OL    H16S11249   2.264   2.337   3.437
    3OL    C11711250   2.327   2.235   3.614
    3OL    H17R11251   2.423   2.203   3.573
    3OL    H17S11252   2.292   2.152   3.676
    3OL    C11811253   2.346   2.359   3.703
    3OL    H18R11254   2.380   2.453   3.659
    3OL    H18S11255   2.428   2.343   3.774
    3OL    H18T11256   2.257   2.376   3.763
    1PA    C11611257   2.096   0.227   3.511
    1PA    H16R11258   2.169   0.302   3.542
    1PA    H16S11259   2.134   0.124   3.515
    1PA    H16T11260   2.012   0.232   3.580
    1PA    C11511261   2.036   0.261   3.374
    1PA    H15R11262   1.966   0.181   3.349
    1PA    H15S11263   1.981   0.355   3.365
    1PA    C11411264   2.147   0.244   3.269
    1PA    H14R11265   2.227   0.315   3.294
    1PA    H14S11266   2.190   0.144   3.273
    1PA    C11311267   2.112   0.272   3.123
    1PA    H13R11268   2.033   0.202   3.093
    1PA    H13S11269   2.073   0.373   3.113
    1PA    C11211270   2.232   0.262   3.028
    1PA    H12R11271   2.310   0.329   3.066
    1PA    H12S11272   2.270   0.160   3.038
    1PA    C11111273   2.202   0.302   2.883
    1PA    H11R11274   2.141   0.225   2.835
    1PA    H11S11275   2.150   0.396   2.862
    1PA    C11011276   2.332   0.304   2.802
    1PA    H10R11277   2.414   0.334   2.868
    1PA    H10S11278   2.358   0.200   2.779
    1PA     C1911279   2.335   0.403   2.685
    1PA     H9R11280   2.276   0.379   2.596
    1PA     H9S11281   2.317   0.505   2.720
    1PA     C1811282   2.480   0.399   2.635
    1PA     H8R11283   2.553   0.413   2.714
    1PA     H8S11284   2.498   0.294   2.612
    1PA     C1711285   2.520   0.493   2.520
    1PA     H7R11286   2.456   0.471   2.434
    1PA     H7S11287   2.500   0.595   2.555
    1PA     C1611288   2.668   0.465   2.491
    1PA     H6R11289   2.723   0.515   2.572
    1PA     H6S11290   2.679   0.357   2.484
    1PA     C1511291   2.716   0.521   2.357
    1PA     H5R11292   2.812   0.474   2.333
    1PA     H5S11293   2.655   0.482   2.275
    1PA     C1411294   2.720   0.674   2.355
    1PA     H4R11295   2.621   0.715   2.376
    1PA     H4S11296   2.778   0.712   2.439
    1PA     C1311297   2.769   0.723   2.218
    1PA     H3R11298   2.826   0.814   2.235
    1PA     H3S11299   2.851   0.658   2.187
    1PA     C1211300   2.662   0.749   2.110
    1PA     H2R11301   2.594   0.664   2.107
    1PA     H2S11302   2.601   0.836   2.135
    2PC     C1111303   2.730   0.776   1.978
    2PC     O1211304   2.675   0.745   1.874
    2PC     O1111305   2.849   0.837   1.988
    2PC      C111306   2.929   0.879   1.876
    2PC      HR11307   3.026   0.901   1.920
    2PC      HS11308   2.946   0.802   1.800
    2PC      C211309   2.877   1.001   1.798
    2PC      HX11310   2.776   0.980   1.762
    2PC      C311311   2.964   1.030   1.675
    2PC      HA11312   3.057   1.074   1.712
    2PC      HB11313   2.982   0.936   1.622
    2PC     O3111314   2.902   1.117   1.579
    2PC     P3111315   2.798   1.063   1.469
    2PC     O3211316   2.745   1.208   1.426
    2PC     C3111317   2.610   1.218   1.375
    2PC     H1A11318   2.607   1.285   1.289
    2PC     H1B11319   2.581   1.119   1.339
    2PC     C3211320   2.503   1.256   1.478
    2PC     H2A11321   2.504   1.190   1.565
    2PC     H2B11322   2.526   1.358   1.509
    2PC     N3111323   2.363   1.257   1.425
    2PC     C3311324   2.342   1.370   1.329
    2PC     H3A11325   2.413   1.352   1.248
    2PC     H3B11326   2.247   1.352   1.279
    2PC     H3C11327   2.335   1.467   1.378
    2PC     C3411328   2.321   1.131   1.356
    2PC     H4A11329   2.337   1.047   1.423
    2PC     H4B11330   2.219   1.132   1.319
    2PC     H4C11331   2.384   1.116   1.268
    2PC     C3511332   2.268   1.271   1.541
    2PC     H5A11333   2.265   1.172   1.587
    2PC     H5B11334   2.171   1.297   1.498
    2PC     H5C11335   2.291   1.353   1.610
    2PC     O3311336   2.863   0.991   1.357
    2PC     O3411337   2.696   0.968   1.519
    2PC     O2111338   2.876   1.113   1.887
    2PC     C2111339   2.777   1.123   1.978
    2PC     O2211340   2.677   1.054   1.977
    3OL     C1211341   2.801   1.219   2.092
    3OL     H2R11342   2.723   1.294   2.102
    3OL     H2S11343   2.889   1.279   2.070
    3OL     C1311344   2.829   1.147   2.225
    3OL     H3R11345   2.892   1.210   2.288
    3OL     H3S11346   2.896   1.063   2.204
    3OL     C1411347   2.702   1.111   2.302
    3OL     H4R11348   2.655   1.026   2.251
    3OL     H4S11349   2.625   1.188   2.308
    3OL     C1511350   2.743   1.059   2.440
    3OL     H5R11351   2.782   1.145   2.495
    3OL     H5S11352   2.828   0.993   2.424
    3OL     C1611353   2.629   0.999   2.524
    3OL     H6R11354   2.584   0.927   2.455
    3OL     H6S11355   2.561   1.082   2.548
    3OL     C1711356   2.679   0.929   2.650
    3OL     H7R11357   2.720   0.993   2.728
    3OL     H7S11358   2.763   0.868   2.616
    3OL     C1811359   2.561   0.850   2.710
    3OL     H8R11360   2.513   0.795   2.629
    3OL     H8S11361   2.486   0.910   2.761
    3OL     C1911362   2.632   0.761   2.809
    3OL     H9R11363   2.739   0.751   2.796
    3OL    C11011364   2.578   0.717   2.921
    3OL    H10R11365   2.638   0.672   3.001
    3OL    C11111366   2.435   0.733   2.967
    3OL    H11R11367   2.379   0.730   2.873
    3OL    H11S11368   2.415   0.829   3.014
    3OL    C11211369   2.381   0.621   3.057
    3OL    H12R11370   2.430   0.527   3.035
    3OL    H12S11371   2.272   0.611   3.056
    3OL    C11311372   2.418   0.654   3.203
    3OL    H13R11373   2.373   0.748   3.234
    3OL    H13S11374   2.525   0.672   3.207
    3OL    C11411375   2.386   0.559   3.319
    3OL    H14R11376   2.415   0.456   3.297
    3OL    H14S11377   2.278   0.551   3.311
    3OL    C11511378   2.434   0.605   3.457
    3OL    H15R11379   2.371   0.690   3.483
    3OL    H15S11380   2.540   0.633   3.447
    3OL    C11611381   2.408   0.490   3.555
    3OL    H16R11382   2.463   0.399   3.528
    3OL    H16S11383   2.306   0.452   3.553
    3OL    C11711384   2.456   0.537   3.693
    3OL    H17R11385   2.411   0.636   3.699
    3OL    H17S11386   2.565   0.544   3.690
    3OL    C11811387   2.410   0.438   3.801
    3OL    H18R11388   2.461   0.480   3.888
    3OL    H18S11389   2.447   0.336   3.784
    3OL    H18T11390   2.303   0.441   3.821
    1PA    C11611391   2.651   2.005   3.431
    1PA    H16R11392   2.549   1.993   3.393
    1PA    H16S11393   2.653   2.031   3.537
    1PA    H16T11394   2.705   1.911   3.426
    1PA    C11511395   2.738   2.098   3.346
    1PA    H15R11396   2.845   2.080   3.365
    1PA    H15S11397   2.717   2.067   3.244
    1PA    C11411398   2.689   2.242   3.371
    1PA    H14R11399   2.649   2.246   3.472
    1PA    H14S11400   2.777   2.307   3.373
    1PA    C11311401   2.586   2.292   3.269
    1PA    H13R11402   2.621   2.279   3.167
    1PA    H13S11403   2.496   2.233   3.285
    1PA    C11211404   2.555   2.440   3.294
    1PA    H12R11405   2.521   2.445   3.398
    1PA    H12S11406   2.644   2.503   3.286
    1PA    C11111407   2.444   2.488   3.199
    1PA    H11R11408   2.494   2.473   3.103
    1PA    H11S11409   2.350   2.436   3.220
    1PA    C11011410   2.429   2.641   3.207
    1PA    H10R11411   2.331   2.664   3.166
    1PA    H10S11412   2.424   2.652   3.316
    1PA     C1911413   2.541   2.728   3.149
    1PA     H9R11414   2.632   2.698   3.202
    1PA     H9S11415   2.557   2.698   3.045
    1PA     C1811416   2.516   2.879   3.151
    1PA     H8R11417   2.418   2.898   3.107
    1PA     H8S11418   2.511   2.913   3.255
    1PA     C1711419   2.621   2.958   3.071
    1PA     H7R11420   2.656   2.896   2.988
    1PA     H7S11421   2.577   3.052   3.037
    1PA     C1611422   2.748   2.985   3.153
    1PA     H6R11423   2.716   3.050   3.234
    1PA     H6S11424   2.772   2.886   3.194
    1PA     C1511425   2.870   3.050   3.086
    1PA     H5R11426   2.838   3.143   3.039
    1PA     H5S11427   2.945   3.065   3.164
    1PA     C1411428   2.936   2.954   2.986
    1PA     H4R11429   3.037   2.943   3.026
    1PA     H4S11430   2.895   2.853   2.995
    1PA     C1311431   2.940   3.002   2.841
    1PA     H3R11432   2.971   2.920   2.775
    1PA     H3S11433   2.838   3.029   2.810
    1PA     C1211434   3.033   3.123   2.820
    1PA     H2R11435   3.002   3.206   2.884
    1PA     H2S11436   3.137   3.096   2.837
    2PC     C1111437   3.029   3.157   2.673
    2PC     O1211438   3.119   3.123   2.599
    2PC     O1111439   2.921   3.227   2.633
    2PC      C111440   2.928   3.262   2.494
    2PC      HR11441   3.019   3.317   2.468
    2PC      HS11442   2.906   3.176   2.430
    2PC      C211443   2.820   3.368   2.471
    2PC      HX11444   2.726   3.316   2.493
    2PC      C311445   2.816   3.433   2.332
    2PC      HA11446   2.794   3.359   2.254
    2PC      HB11447   2.734   3.505   2.325
    2PC     O3111448   2.943   3.498   2.318
    2PC     P3111449   2.970   3.569   2.177
    2PC     O3211450   3.024   3.457   2.076
    2PC     C3111451   2.936   3.350   2.037
    2PC     H1A11452   2.950   3.271   2.112
    2PC     H1B11453   2.832   3.384   2.034
    2PC     C3211454   2.982   3.314   1.895
    2PC     H2A11455   3.090   3.324   1.901
    2PC     H2B11456   2.962   3.208   1.880
    2PC     N3111457   2.933   3.387   1.774
    2PC     C3311458   2.954   3.535   1.785
    2PC     H3A11459   2.870   3.588   1.830
    2PC     H3B11460   3.050   3.551   1.835
    2PC     H3C11461   2.968   3.583   1.688
    2PC     C3411462   3.008   3.330   1.657
    2PC     H4A11463   2.958   3.377   1.571
    2PC     H4B11464   3.114   3.353   1.659
    2PC     H4C11465   2.992   3.222   1.657
    2PC     C3511466   2.789   3.362   1.742
    2PC     H5A11467   2.756   3.396   1.644
    2PC     H5B11468   2.725   3.405   1.820
    2PC     H5C11469   2.793   3.253   1.743
    2PC     O3311470   2.841   3.620   2.125
    2PC     O3411471   3.055   3.690   2.191
    2PC     O2111472   2.832   3.482   2.559
    2PC     C2111473   2.723   3.555   2.587
    2PC     O2211474   2.609   3.521   2.561
    3OL     C1211475   2.752   3.677   2.671
    3OL     H2R11476   2.843   3.672   2.730
    3OL     H2S11477   2.664   3.689   2.735
    3OL     C1311478   2.756   3.804   2.585
    3OL     H3R11479   2.658   3.810   2.538
    3OL     H3S11480   2.823   3.791   2.500
    3OL     C1411481   2.796   3.924   2.672
    3OL     H4R11482   2.769   3.903   2.776
    3OL     H4S11483   2.739   4.013   2.643
    3OL     C1511484   2.946   3.952   2.656
    3OL     H5R11485   2.972   3.974   2.552
    3OL     H5S11486   2.996   3.860   2.686
    3OL     C1611487   3.002   4.063   2.746
    3OL     H6R11488   3.108   4.079   2.724
    3OL     H6S11489   2.993   4.017   2.845
    3OL     C1711490   2.930   4.198   2.742
    3OL     H7R11491   2.823   4.179   2.754
    3OL     H7S11492   2.942   4.236   2.640
    3OL     C1811493   2.985   4.297   2.846
    3OL     H8R11494   2.937   4.394   2.831
    3OL     H8S11495   3.090   4.311   2.819
    3OL     C1911496   2.983   4.253   2.990
    3OL     H9R11497   2.955   4.149   3.007
    3OL    C11011498   2.997   4.337   3.091
    3OL    H10R11499   2.985   4.298   3.192
    3OL    C11111500   3.045   4.479   3.079
    3OL    H11R11501   2.951   4.532   3.060
    3OL    H11S11502   3.112   4.493   2.994
    3OL    C11211503   3.105   4.533   3.210
    3OL    H12R11504   3.198   4.478   3.223
    3OL    H12S11505   3.047   4.507   3.298
    3OL    C11311506   3.118   4.686   3.205
    3OL    H13R11507   3.021   4.731   3.184
    3OL    H13S11508   3.174   4.720   3.117
    3OL    C11411509   3.181   4.729   3.338
    3OL    H14R11510   3.276   4.675   3.343
    3OL    H14S11511   3.111   4.712   3.420
    3OL    C11511512   3.205   4.880   3.331
    3OL    H15R11513   3.110   4.931   3.314
    3OL    H15S11514   3.273   4.912   3.251
    3OL    C11611515   3.267   4.940   3.459
    3OL    H16R11516   3.358   4.883   3.476
    3OL    H16S11517   3.205   4.924   3.547
    3OL    C11711518   3.280   5.092   3.444
    3OL    H17R11519   3.180   5.127   3.420
    3OL    H17S11520   3.340   5.117   3.356
    3OL    C11811521   3.334   5.154   3.574
    3OL    H18R11522   3.275   5.122   3.660
    3OL    H18S11523   3.324   5.262   3.571
    3OL    H18T11524   3.435   5.115   3.586
    1PA    C11611525   4.844   0.301   3.579
    1PA    H16R11526   4.759   0.238   3.607
    1PA    H16S11527   4.892   0.335   3.671
    1PA    H16T11528   4.916   0.248   3.516
    1PA    C11511529   4.814   0.440   3.521
    1PA    H15R11530   4.907   0.488   3.490
    1PA    H15S11531   4.753   0.430   3.431
    1PA    C11411532   4.746   0.518   3.635
    1PA    H14R11533   4.646   0.475   3.625
    1PA    H14S11534   4.782   0.501   3.736
    1PA    C11311535   4.742   0.667   3.601
    1PA    H13R11536   4.703   0.720   3.688
    1PA    H13S11537   4.846   0.689   3.576
    1PA    C11211538   4.645   0.694   3.485
    1PA    H12R11539   4.704   0.673   3.395
    1PA    H12S11540   4.559   0.628   3.496
    1PA    C11111541   4.603   0.841   3.484
    1PA    H11R11542   4.571   0.870   3.585
    1PA    H11S11543   4.683   0.908   3.454
    1PA    C11011544   4.484   0.850   3.387
    1PA    H10R11545   4.494   0.825   3.281
    1PA    H10S11546   4.417   0.766   3.408
    1PA     C1911547   4.401   0.977   3.407
    1PA     H9R11548   4.294   0.954   3.401
    1PA     H9S11549   4.428   0.999   3.511
    1PA     C1811550   4.433   1.099   3.320
    1PA     H8R11551   4.378   1.185   3.360
    1PA     H8S11552   4.541   1.115   3.324
    1PA     C1711553   4.396   1.079   3.173
    1PA     H7R11554   4.468   1.016   3.119
    1PA     H7S11555   4.295   1.037   3.159
    1PA     C1611556   4.399   1.213   3.098
    1PA     H6R11557   4.318   1.274   3.140
    1PA     H6S11558   4.486   1.273   3.123
    1PA     C1511559   4.375   1.191   2.948
    1PA     H5R11560   4.441   1.118   2.900
    1PA     H5S11561   4.271   1.160   2.931
    1PA     C1411562   4.392   1.323   2.872
    1PA     H4R11563   4.316   1.393   2.908
    1PA     H4S11564   4.488   1.368   2.899
    1PA     C1311565   4.385   1.291   2.722
    1PA     H3R11566   4.403   1.388   2.677
    1PA     H3S11567   4.454   1.215   2.684
    1PA     C1211568   4.242   1.256   2.679
    1PA     H2R11569   4.219   1.154   2.710
    1PA     H2S11570   4.171   1.326   2.725
    2PC     C1111571   4.228   1.280   2.531
    2PC     O1211572   4.173   1.378   2.485
    2PC     O1111573   4.294   1.194   2.451
    2PC      C111574   4.313   1.220   2.310
    2PC      HR11575   4.223   1.260   2.264
    2PC      HS11576   4.397   1.289   2.301
    2PC      C211577   4.340   1.082   2.247
    2PC      HX11578   4.423   1.035   2.302
    2PC      C311579   4.356   1.084   2.095
    2PC      HA11580   4.444   1.146   2.076
    2PC      HB11581   4.381   0.982   2.064
    2PC     O3111582   4.243   1.141   2.026
    2PC     P3111583   4.249   1.142   1.866
    2PC     O3211584   4.340   1.273   1.847
    2PC     C3111585   4.281   1.404   1.848
    2PC     H1A11586   4.202   1.406   1.773
    2PC     H1B11587   4.233   1.418   1.946
    2PC     C3211588   4.387   1.512   1.824
    2PC     H2A11589   4.337   1.607   1.845
    2PC     H2B11590   4.466   1.496   1.898
    2PC     N3111591   4.447   1.508   1.687
    2PC     C3311592   4.532   1.387   1.661
    2PC     H3A11593   4.624   1.384   1.721
    2PC     H3B11594   4.474   1.295   1.670
    2PC     H3C11595   4.562   1.383   1.556
    2PC     C3411596   4.346   1.514   1.577
    2PC     H4A11597   4.262   1.447   1.596
    2PC     H4B11598   4.299   1.611   1.560
    2PC     H4C11599   4.392   1.485   1.483
    2PC     C3511600   4.541   1.623   1.666
    2PC     H5A11601   4.598   1.616   1.573
    2PC     H5B11602   4.615   1.621   1.746
    2PC     H5C11603   4.476   1.707   1.643
    2PC     O3311604   4.306   1.016   1.813
    2PC     O3411605   4.115   1.145   1.804
    2PC     O2111606   4.220   1.004   2.262
    2PC     C2111607   4.252   0.874   2.275
    2PC     O2211608   4.357   0.822   2.242
    3OL     C1211609   4.141   0.793   2.336
    3OL     H2R11610   4.178   0.695   2.367
    3OL     H2S11611   4.069   0.776   2.256
    3OL     C1311612   4.071   0.863   2.454
    3OL     H3R11613   4.009   0.946   2.420
    3OL     H3S11614   4.143   0.905   2.525
    3OL     C1411615   3.985   0.758   2.526
    3OL     H4R11616   4.042   0.707   2.604
    3OL     H4S11617   3.941   0.693   2.450
    3OL     C1511618   3.857   0.815   2.589
    3OL     H5R11619   3.812   0.735   2.649
    3OL     H5S11620   3.782   0.837   2.513
    3OL     C1611621   3.883   0.929   2.688
    3OL     H6R11622   3.918   1.018   2.634
    3OL     H6S11623   3.965   0.900   2.753
    3OL     C1711624   3.759   0.982   2.762
    3OL     H7R11625   3.726   0.893   2.817
    3OL     H7S11626   3.681   1.018   2.695
    3OL     C1811627   3.786   1.105   2.850
    3OL     H8R11628   3.690   1.118   2.901
    3OL     H8S11629   3.797   1.195   2.789
    3OL     C1911630   3.902   1.084   2.945
    3OL     H9R11631   3.901   0.981   2.979
    3OL    C11011632   3.979   1.169   3.010
    3OL    H10R11633   4.047   1.134   3.088
    3OL    C11111634   3.991   1.318   2.988
    3OL    H11R11635   3.920   1.355   2.914
    3OL    H11S11636   4.093   1.345   2.962
    3OL    C11211637   3.951   1.376   3.124
    3OL    H12R11638   3.980   1.310   3.207
    3OL    H12S11639   3.843   1.391   3.125
    3OL    C11311640   4.036   1.498   3.160
    3OL    H13R11641   4.022   1.572   3.081
    3OL    H13S11642   4.138   1.462   3.175
    3OL    C11411643   3.976   1.560   3.287
    3OL    H14R11644   3.980   1.482   3.364
    3OL    H14S11645   3.870   1.569   3.263
    3OL    C11511646   4.032   1.688   3.351
    3OL    H15R11647   4.016   1.777   3.289
    3OL    H15S11648   4.138   1.662   3.346
    3OL    C11611649   3.973   1.704   3.491
    3OL    H16R11650   4.040   1.773   3.542
    3OL    H16S11651   3.976   1.609   3.545
    3OL    C11711652   3.828   1.756   3.498
    3OL    H17R11653   3.757   1.690   3.448
    3OL    H17S11654   3.834   1.846   3.436
    3OL    C11811655   3.777   1.811   3.631
    3OL    H18R11656   3.683   1.865   3.616
    3OL    H18S11657   3.846   1.876   3.686
    3OL    H18T11658   3.765   1.720   3.690
    1PA    C11611659   5.399   4.088   4.181
    1PA    H16R11660   5.484   4.088   4.249
    1PA    H16S11661   5.319   4.147   4.225
    1PA    H16T11662   5.422   4.142   4.089
    1PA    C11511663   5.357   3.945   4.144
    1PA    H15R11664   5.445   3.894   4.103
    1PA    H15S11665   5.324   3.891   4.233
    1PA    C11411666   5.232   3.950   4.055
    1PA    H14R11667   5.144   3.989   4.107
    1PA    H14S11668   5.251   4.013   3.968
    1PA    C11311669   5.198   3.814   3.992
    1PA    H13R11670   5.293   3.785   3.947
    1PA    H13S11671   5.183   3.740   4.071
    1PA    C11211672   5.086   3.819   3.888
    1PA    H12R11673   4.997   3.869   3.926
    1PA    H12S11674   5.127   3.871   3.801
    1PA    C11111675   5.040   3.683   3.834
    1PA    H11R11676   5.016   3.622   3.921
    1PA    H11S11677   4.949   3.682   3.774
    1PA    C11011678   5.151   3.612   3.754
    1PA    H10R11679   5.179   3.679   3.673
    1PA    H10S11680   5.238   3.593   3.818
    1PA     C1911681   5.096   3.479   3.701
    1PA     H9R11682   5.084   3.405   3.781
    1PA     H9S11683   5.004   3.491   3.643
    1PA     C1811684   5.188   3.402   3.604
    1PA     H8R11685   5.209   3.462   3.516
    1PA     H8S11686   5.285   3.392   3.654
    1PA     C1711687   5.132   3.264   3.566
    1PA     H7R11688   5.141   3.199   3.653
    1PA     H7S11689   5.028   3.276   3.535
    1PA     C1611690   5.217   3.223   3.445
    1PA     H6R11691   5.218   3.295   3.364
    1PA     H6S11692   5.321   3.209   3.476
    1PA     C1511693   5.164   3.097   3.376
    1PA     H5R11694   5.166   3.022   3.456
    1PA     H5S11695   5.064   3.098   3.332
    1PA     C1411696   5.265   3.042   3.274
    1PA     H4R11697   5.280   3.107   3.187
    1PA     H4S11698   5.360   3.036   3.326
    1PA     C1311699   5.218   2.905   3.223
    1PA     H3R11700   5.224   2.848   3.315
    1PA     H3S11701   5.117   2.897   3.183
    1PA     C1211702   5.316   2.837   3.126
    1PA     H2R11703   5.418   2.835   3.165
    1PA     H2S11704   5.287   2.732   3.112
    2PC     C1111705   5.305   2.894   2.987
    2PC     O1211706   5.349   3.003   2.956
    2PC     O1111707   5.233   2.821   2.900
    2PC      C111708   5.180   2.885   2.783
    2PC      HR11709   5.099   2.956   2.805
    2PC      HS11710   5.261   2.935   2.729
    2PC      C211711   5.121   2.783   2.685
    2PC      HX11712   5.190   2.699   2.684
    2PC      C311713   5.098   2.828   2.540
    2PC      HA11714   5.187   2.817   2.478
    2PC      HB11715   5.029   2.757   2.493
    2PC     O3111716   5.028   2.953   2.549
    2PC     P3111717   5.012   3.040   2.415
    2PC     O3211718   5.005   3.180   2.491
    2PC     C3111719   5.095   3.277   2.433
    2PC     H1A11720   5.189   3.221   2.433
    2PC     H1B11721   5.074   3.309   2.331
    2PC     C3211722   5.098   3.392   2.534
    2PC     H2A11723   5.133   3.478   2.476
    2PC     H2B11724   5.005   3.421   2.584
    2PC     N3111725   5.190   3.383   2.653
    2PC     C3311726   5.336   3.395   2.620
    2PC     H3A11727   5.350   3.479   2.551
    2PC     H3B11728   5.401   3.406   2.707
    2PC     H3C11729   5.361   3.310   2.556
    2PC     C3411730   5.155   3.491   2.751
    2PC     H4A11731   5.224   3.478   2.834
    2PC     H4B11732   5.184   3.587   2.707
    2PC     H4C11733   5.049   3.495   2.777
    2PC     C3511734   5.161   3.253   2.722
    2PC     H5A11735   5.061   3.255   2.766
    2PC     H5B11736   5.243   3.240   2.793
    2PC     H5C11737   5.173   3.172   2.649
    2PC     O3311738   5.127   3.028   2.322
    2PC     O3411739   4.899   2.996   2.329
    2PC     O2111740   4.990   2.754   2.739
    2PC     C2111741   4.928   2.640   2.702
    2PC     O2211742   4.980   2.547   2.644
    3OL     C1211743   4.782   2.637   2.738
    3OL     H2R11744   4.724   2.639   2.645
    3OL     H2S11745   4.751   2.722   2.799
    3OL     C1311746   4.747   2.512   2.821
    3OL     H3R11747   4.825   2.435   2.815
    3OL     H3S11748   4.650   2.475   2.789
    3OL     C1411749   4.723   2.546   2.968
    3OL     H4R11750   4.675   2.461   3.018
    3OL     H4S11751   4.651   2.628   2.966
    3OL     C1511752   4.846   2.585   3.051
    3OL     H5R11753   4.891   2.681   3.025
    3OL     H5S11754   4.931   2.517   3.042
    3OL     C1611755   4.802   2.603   3.197
    3OL     H6R11756   4.784   2.501   3.234
    3OL     H6S11757   4.704   2.652   3.195
    3OL     C1711758   4.907   2.673   3.284
    3OL     H7R11759   4.937   2.771   3.245
    3OL     H7S11760   4.999   2.616   3.298
    3OL     C1811761   4.848   2.717   3.418
    3OL     H8R11762   4.803   2.632   3.470
    3OL     H8S11763   4.767   2.789   3.401
    3OL     C1911764   4.960   2.786   3.492
    3OL     H9R11765   5.058   2.760   3.453
    3OL    C11011766   4.948   2.858   3.603
    3OL    H10R11767   5.045   2.896   3.634
    3OL    C11111768   4.832   2.902   3.689
    3OL    H11R11769   4.863   2.891   3.793
    3OL    H11S11770   4.745   2.839   3.670
    3OL    C11211771   4.808   3.053   3.675
    3OL    H12R11772   4.905   3.103   3.683
    3OL    H12S11773   4.744   3.090   3.755
    3OL    C11311774   4.757   3.089   3.535
    3OL    H13R11775   4.842   3.078   3.467
    3OL    H13S11776   4.744   3.197   3.526
    3OL    C11411777   4.630   3.020   3.483
    3OL    H14R11778   4.541   3.048   3.540
    3OL    H14S11779   4.641   2.914   3.503
    3OL    C11511780   4.606   3.040   3.333
    3OL    H15R11781   4.698   3.013   3.281
    3OL    H15S11782   4.587   3.147   3.318
    3OL    C11611783   4.490   2.955   3.280
    3OL    H16R11784   4.402   2.992   3.332
    3OL    H16S11785   4.519   2.851   3.301
    3OL    C11711786   4.471   2.962   3.128
    3OL    H17R11787   4.562   2.937   3.073
    3OL    H17S11788   4.452   3.068   3.109
    3OL    C11811789   4.355   2.875   3.078
    3OL    H18R11790   4.256   2.913   3.105
    3OL    H18S11791   4.362   2.770   3.109
    3OL    H18T11792   4.357   2.868   2.969
    1PA    C11611793   5.270   3.946   3.410
    1PA    H16R11794   5.264   3.837   3.423
    1PA    H16S11795   5.272   3.993   3.509
    1PA    H16T11796   5.360   3.971   3.354
    1PA    C11511797   5.150   4.012   3.343
    1PA    H15R11798   5.060   3.985   3.399
    1PA    H15S11799   5.156   4.121   3.357
    1PA    C11411800   5.115   3.976   3.198
    1PA    H14R11801   5.024   4.031   3.170
    1PA    H14S11802   5.198   4.013   3.138
    1PA    C11311803   5.106   3.825   3.172
    1PA    H13R11804   5.205   3.778   3.175
    1PA    H13S11805   5.047   3.779   3.251
    1PA    C11211806   5.032   3.820   3.037
    1PA    H12R11807   5.045   3.913   2.981
    1PA    H12S11808   5.084   3.743   2.980
    1PA    C11111809   4.884   3.786   3.051
    1PA    H11R11810   4.864   3.706   3.123
    1PA    H11S11811   4.824   3.873   3.079
    1PA    C11011812   4.819   3.727   2.924
    1PA    H10R11813   4.871   3.650   2.868
    1PA    H10S11814   4.724   3.679   2.946
    1PA     C1911815   4.779   3.836   2.823
    1PA     H9R11816   4.864   3.856   2.757
    1PA     H9S11817   4.706   3.800   2.750
    1PA     C1811818   4.728   3.972   2.873
    1PA     H8R11819   4.646   3.949   2.941
    1PA     H8S11820   4.810   4.021   2.925
    1PA     C1711821   4.682   4.060   2.756
    1PA     H7R11822   4.693   4.166   2.780
    1PA     H7S11823   4.753   4.037   2.676
    1PA     C1611824   4.537   4.040   2.707
    1PA     H6R11825   4.527   3.934   2.684
    1PA     H6S11826   4.472   4.064   2.791
    1PA     C1511827   4.501   4.124   2.584
    1PA     H5R11828   4.531   4.228   2.600
    1PA     H5S11829   4.566   4.092   2.502
    1PA     C1411830   4.354   4.095   2.550
    1PA     H4R11831   4.344   3.986   2.547
    1PA     H4S11832   4.285   4.137   2.623
    1PA     C1311833   4.316   4.149   2.412
    1PA     H3R11834   4.286   4.254   2.417
    1PA     H3S11835   4.399   4.131   2.343
    1PA     C1211836   4.190   4.084   2.352
    1PA     H2R11837   4.207   3.979   2.328
    1PA     H2S11838   4.117   4.077   2.432
    2PC     C1111839   4.130   4.155   2.233
    2PC     O1211840   4.192   4.240   2.173
    2PC     O1111841   4.002   4.122   2.209
    2PC      C111842   3.925   4.190   2.109
    2PC      HR11843   3.957   4.295   2.105
    2PC      HS11844   3.941   4.150   2.008
    2PC      C211845   3.776   4.182   2.143
    2PC      HX11846   3.752   4.092   2.201
    2PC      C311847   3.687   4.186   2.018
    2PC      HA11848   3.711   4.094   1.963
    2PC      HB11849   3.580   4.190   2.040
    2PC     O3111850   3.712   4.287   1.919
    2PC     P3111851   3.608   4.303   1.799
    2PC     O3211852   3.658   4.181   1.708
    2PC     C3111853   3.708   4.198   1.574
    2PC     H1A11854   3.628   4.257   1.530
    2PC     H1B11855   3.800   4.258   1.569
    2PC     C3211856   3.713   4.057   1.513
    2PC     H2A11857   3.613   4.014   1.521
    2PC     H2B11858   3.735   4.059   1.406
    2PC     N3111859   3.806   3.960   1.578
    2PC     C3311860   3.945   4.015   1.594
    2PC     H3A11861   3.969   4.089   1.518
    2PC     H3B11862   3.949   4.062   1.693
    2PC     H3C11863   4.013   3.930   1.592
    2PC     C3411864   3.766   3.911   1.714
    2PC     H4A11865   3.737   3.990   1.783
    2PC     H4B11866   3.678   3.847   1.707
    2PC     H4C11867   3.844   3.851   1.759
    2PC     C3511868   3.822   3.839   1.491
    2PC     H5A11869   3.875   3.760   1.544
    2PC     H5B11870   3.876   3.862   1.399
    2PC     H5C11871   3.724   3.800   1.463
    2PC     O3311872   3.469   4.288   1.849
    2PC     O3411873   3.612   4.440   1.742
    2PC     O2111874   3.740   4.296   2.224
    2PC     C2111875   3.637   4.278   2.308
    2PC     O2211876   3.559   4.185   2.303
    3OL     C1211877   3.642   4.367   2.429
    3OL     H2R11878   3.576   4.453   2.423
    3OL     H2S11879   3.738   4.415   2.448
    3OL     C1311880   3.585   4.292   2.551
    3OL     H3R11881   3.642   4.199   2.558
    3OL     H3S11882   3.480   4.266   2.536
    3OL     C1411883   3.595   4.367   2.684
    3OL     H4R11884   3.548   4.465   2.678
    3OL     H4S11885   3.699   4.391   2.707
    3OL     C1511886   3.549   4.282   2.803
    3OL     H5R11887   3.592   4.339   2.886
    3OL     H5S11888   3.596   4.185   2.788
    3OL     C1611889   3.398   4.264   2.823
    3OL     H6R11890   3.365   4.199   2.741
    3OL     H6S11891   3.359   4.363   2.800
    3OL     C1711892   3.348   4.225   2.963
    3OL     H7R11893   3.386   4.124   2.983
    3OL     H7S11894   3.239   4.221   2.955
    3OL     C1811895   3.405   4.309   3.078
    3OL     H8R11896   3.395   4.413   3.048
    3OL     H8S11897   3.512   4.291   3.088
    3OL     C1911898   3.328   4.279   3.204
    3OL     H9R11899   3.222   4.264   3.184
    3OL    C11011900   3.369   4.263   3.329
    3OL    H10R11901   3.296   4.238   3.406
    3OL    C11111902   3.511   4.261   3.379
    3OL    H11R11903   3.536   4.352   3.434
    3OL    H11S11904   3.576   4.263   3.292
    3OL    C11211905   3.533   4.133   3.461
    3OL    H12R11906   3.511   4.041   3.407
    3OL    H12S11907   3.471   4.141   3.551
    3OL    C11311908   3.672   4.134   3.525
    3OL    H13R11909   3.693   4.216   3.595
    3OL    H13S11910   3.748   4.147   3.448
    3OL    C11411911   3.709   4.004   3.599
    3OL    H14R11912   3.720   3.931   3.518
    3OL    H14S11913   3.632   3.979   3.673
    3OL    C11511914   3.846   4.016   3.666
    3OL    H15R11915   3.897   4.094   3.609
    3OL    H15S11916   3.905   3.925   3.651
    3OL    C11611917   3.836   4.060   3.813
    3OL    H16R11918   3.771   3.996   3.872
    3OL    H16S11919   3.792   4.160   3.806
    3OL    C11711920   3.975   4.066   3.879
    3OL    H17R11921   3.961   4.110   3.978
    3OL    H17S11922   4.031   4.136   3.817
    3OL    C11811923   4.045   3.930   3.891
    3OL    H18R11924   3.992   3.863   3.959
    3OL    H18S11925   4.145   3.940   3.935
    3OL    H18T11926   4.062   3.890   3.791
    1PA    C11611927   1.992   4.403   4.046
    1PA    H16R11928   1.943   4.325   4.105
    1PA    H16S11929   1.977   4.498   4.098
    1PA    H16T11930   2.099   4.383   4.047
    1PA    C11511931   1.929   4.418   3.907
    1PA    H15R11932   1.914   4.320   3.862
    1PA    H15S11933   1.831   4.464   3.915
    1PA    C11411934   2.013   4.508   3.814
    1PA    H14R11935   1.947   4.590   3.784
    1PA    H14S11936   2.088   4.556   3.877
    1PA    C11311937   2.076   4.424   3.703
    1PA    H13R11938   2.102   4.325   3.740
    1PA    H13S11939   1.991   4.405   3.637
    1PA    C11211940   2.196   4.497   3.641
    1PA    H12R11941   2.161   4.593   3.603
    1PA    H12S11942   2.281   4.516   3.708
    1PA    C11111943   2.255   4.416   3.525
    1PA    H11R11944   2.353   4.457   3.502
    1PA    H11S11945   2.263   4.310   3.552
    1PA    C11011946   2.166   4.440   3.402
    1PA    H10R11947   2.061   4.427   3.429
    1PA    H10S11948   2.167   4.546   3.377
    1PA     C1911949   2.216   4.357   3.284
    1PA     H9R11950   2.325   4.362   3.282
    1PA     H9S11951   2.183   4.253   3.296
    1PA     C1811952   2.165   4.402   3.146
    1PA     H8R11953   2.057   4.416   3.146
    1PA     H8S11954   2.207   4.501   3.126
    1PA     C1711955   2.215   4.306   3.037
    1PA     H7R11956   2.217   4.349   2.936
    1PA     H7S11957   2.320   4.282   3.058
    1PA     C1611958   2.121   4.185   3.030
    1PA     H6R11959   2.158   4.114   2.956
    1PA     H6S11960   2.124   4.136   3.128
    1PA     C1511961   1.982   4.229   2.984
    1PA     H5R11962   1.933   4.284   3.065
    1PA     H5S11963   1.977   4.289   2.893
    1PA     C1411964   1.891   4.107   2.964
    1PA     H4R11965   1.924   4.030   3.034
    1PA     H4S11966   1.787   4.135   2.984
    1PA     C1311967   1.911   4.054   2.822
    1PA     H3R11968   1.869   4.132   2.757
    1PA     H3S11969   2.011   4.042   2.777
    1PA     C1211970   1.827   3.928   2.801
    1PA     H2R11971   1.884   3.848   2.848
    1PA     H2S11972   1.725   3.930   2.840
    2PC     C1111973   1.811   3.883   2.657
    2PC     O1211974   1.875   3.932   2.567
    2PC     O1111975   1.716   3.789   2.643
    2PC      C111976   1.687   3.734   2.513
    2PC      HR11977   1.591   3.682   2.521
    2PC      HS11978   1.681   3.814   2.439
    2PC      C211979   1.797   3.642   2.460
    2PC      HX11980   1.896   3.689   2.458
    2PC      C311981   1.767   3.591   2.318
    2PC      HA11982   1.676   3.532   2.322
    2PC      HB11983   1.743   3.674   2.251
    2PC     O3111984   1.881   3.516   2.272
    2PC     P3111985   1.838   3.435   2.141
    2PC     O3211986   1.880   3.555   2.043
    2PC     C3111987   1.795   3.591   1.933
    2PC     H1A11988   1.793   3.509   1.860
    2PC     H1B11989   1.702   3.615   1.985
    2PC     C3211990   1.840   3.722   1.866
    2PC     H2A11991   1.808   3.810   1.923
    2PC     H2B11992   1.947   3.719   1.850
    2PC     N3111993   1.784   3.744   1.729
    2PC     C3311994   1.831   3.878   1.681
    2PC     H3A11995   1.790   3.958   1.742
    2PC     H3B11996   1.940   3.868   1.674
    2PC     H3C11997   1.784   3.895   1.584
    2PC     C3411998   1.841   3.642   1.634
    2PC     H4A11999   1.812   3.542   1.668
    2PC     H4B12000   1.813   3.653   1.530
    2PC     H4C12001   1.948   3.659   1.637
    2PC     C3512002   1.634   3.747   1.728
    2PC     H5A12003   1.592   3.835   1.778
    2PC     H5B12004   1.599   3.662   1.787
    2PC     H5C12005   1.605   3.740   1.623
    2PC     O3312006   1.929   3.321   2.116
    2PC     O3412007   1.695   3.396   2.131
    2PC     O2112008   1.793   3.534   2.555
    2PC     C2112009   1.912   3.484   2.592
    2PC     O2212010   2.023   3.529   2.570
    3OL     C1212011   1.896   3.356   2.670
    3OL     H2R12012   1.827   3.297   2.609
    3OL     H2S12013   1.861   3.386   2.769
    3OL     C1312014   2.031   3.286   2.689
    3OL     H3R12015   2.092   3.343   2.759
    3OL     H3S12016   2.083   3.285   2.593
    3OL     C1412017   2.006   3.144   2.743
    3OL     H4R12018   2.102   3.093   2.751
    3OL     H4S12019   1.946   3.094   2.666
    3OL     C1512020   1.928   3.146   2.875
    3OL     H5R12021   1.904   3.041   2.895
    3OL     H5S12022   1.831   3.196   2.865
    3OL     C1612023   1.996   3.205   2.999
    3OL     H6R12024   1.922   3.211   3.079
    3OL     H6S12025   2.027   3.309   2.981
    3OL     C1712026   2.120   3.121   3.031
    3OL     H7R12027   2.197   3.107   2.954
    3OL     H7S12028   2.086   3.019   3.050
    3OL     C1812029   2.189   3.169   3.159
    3OL     H8R12030   2.215   3.084   3.222
    3OL     H8S12031   2.116   3.216   3.225
    3OL     C1912032   2.305   3.263   3.137
    3OL     H9R12033   2.310   3.302   3.036
    3OL    C11012034   2.413   3.274   3.212
    3OL    H10R12035   2.494   3.338   3.177
    3OL    C11112036   2.443   3.214   3.347
    3OL    H11R12037   2.527   3.147   3.330
    3OL    H11S12038   2.352   3.165   3.383
    3OL    C11212039   2.485   3.311   3.458
    3OL    H12R12040   2.571   3.365   3.418
    3OL    H12S12041   2.507   3.256   3.550
    3OL    C11312042   2.382   3.423   3.480
    3OL    H13R12043   2.322   3.439   3.390
    3OL    H13S12044   2.445   3.511   3.492
    3OL    C11412045   2.288   3.396   3.599
    3OL    H14R12046   2.346   3.383   3.690
    3OL    H14S12047   2.241   3.301   3.572
    3OL    C11512048   2.200   3.519   3.627
    3OL    H15R12049   2.174   3.563   3.530
    3OL    H15S12050   2.259   3.595   3.678
    3OL    C11612051   2.076   3.491   3.713
    3OL    H16R12052   2.106   3.460   3.813
    3OL    H16S12053   2.027   3.408   3.661
    3OL    C11712054   1.981   3.611   3.728
    3OL    H17R12055   1.954   3.652   3.631
    3OL    H17S12056   2.032   3.688   3.786
    3OL    C11812057   1.851   3.572   3.800
    3OL    H18R12058   1.890   3.529   3.893
    3OL    H18S12059   1.792   3.491   3.757
    3OL    H18T12060   1.787   3.656   3.828
    1PA    C11612061   4.700   3.276   3.981
    1PA    H16R12062   4.727   3.280   4.087
    1PA    H16S12063   4.791   3.252   3.927
    1PA    H16T12064   4.629   3.194   3.968
    1PA    C11512065   4.639   3.415   3.958
    1PA    H15R12066   4.565   3.437   4.036
    1PA    H15S12067   4.721   3.486   3.969
    1PA    C11412068   4.581   3.418   3.816
    1PA    H14R12069   4.668   3.422   3.751
    1PA    H14S12070   4.525   3.326   3.801
    1PA    C11312071   4.493   3.540   3.785
    1PA    H13R12072   4.477   3.600   3.875
    1PA    H13S12073   4.531   3.607   3.708
    1PA    C11212074   4.355   3.495   3.736
    1PA    H12R12075   4.369   3.430   3.650
    1PA    H12S12076   4.313   3.429   3.813
    1PA    C11112077   4.262   3.613   3.704
    1PA    H11R12078   4.159   3.578   3.714
    1PA    H11S12079   4.263   3.694   3.778
    1PA    C11012080   4.278   3.672   3.563
    1PA    H10R12081   4.381   3.707   3.560
    1PA    H10S12082   4.254   3.595   3.489
    1PA     C1912083   4.177   3.784   3.536
    1PA     H9R12084   4.077   3.743   3.551
    1PA     H9S12085   4.187   3.878   3.591
    1PA     C1812086   4.197   3.831   3.392
    1PA     H8R12087   4.297   3.874   3.380
    1PA     H8S12088   4.200   3.745   3.325
    1PA     C1712089   4.092   3.933   3.344
    1PA     H7R12090   4.000   3.878   3.325
    1PA     H7S12091   4.072   4.007   3.422
    1PA     C1612092   4.134   4.004   3.215
    1PA     H6R12093   4.227   4.056   3.236
    1PA     H6S12094   4.149   3.924   3.141
    1PA     C1512095   4.015   4.094   3.180
    1PA     H5R12096   3.929   4.026   3.181
    1PA     H5S12097   3.998   4.162   3.264
    1PA     C1412098   4.025   4.172   3.049
    1PA     H4R12099   3.932   4.230   3.044
    1PA     H4S12100   4.105   4.246   3.053
    1PA     C1312101   4.032   4.075   2.930
    1PA     H3R12102   4.141   4.069   2.918
    1PA     H3S12103   3.986   3.983   2.967
    1PA     C1212104   3.960   4.123   2.804
    1PA     H2R12105   3.856   4.149   2.825
    1PA     H2S12106   4.018   4.211   2.775
    2PC     C1112107   3.956   4.024   2.690
    2PC     O1212108   4.013   3.917   2.690
    2PC     O1112109   3.871   4.058   2.592
    2PC      C112110   3.854   3.979   2.473
    2PC      HR12111   3.797   4.043   2.404
    2PC      HS12112   3.949   3.961   2.422
    2PC      C212113   3.779   3.848   2.499
    2PC      HX12114   3.836   3.796   2.576
    2PC      C312115   3.771   3.757   2.375
    2PC      HA12116   3.859   3.693   2.362
    2PC      HB12117   3.688   3.687   2.379
    2PC     O3112118   3.764   3.844   2.261
    2PC     P3112119   3.728   3.765   2.126
    2PC     O3212120   3.598   3.851   2.087
    2PC     C3112121   3.479   3.838   2.166
    2PC     H1A12122   3.470   3.736   2.204
    2PC     H1B12123   3.481   3.909   2.249
    2PC     C3212124   3.358   3.858   2.074
    2PC     H2A12125   3.268   3.861   2.136
    2PC     H2B12126   3.359   3.956   2.026
    2PC     N3112127   3.330   3.765   1.959
    2PC     C3312128   3.427   3.781   1.847
    2PC     H3A12129   3.400   3.709   1.770
    2PC     H3B12130   3.427   3.885   1.811
    2PC     H3C12131   3.528   3.751   1.877
    2PC     C3412132   3.318   3.625   2.011
    2PC     H4A12133   3.420   3.590   2.026
    2PC     H4B12134   3.265   3.630   2.106
    2PC     H4C12135   3.265   3.561   1.939
    2PC     C3512136   3.198   3.814   1.909
    2PC     H5A12137   3.133   3.803   1.995
    2PC     H5B12138   3.178   3.754   1.820
    2PC     H5C12139   3.215   3.918   1.879
    2PC     O3312140   3.831   3.776   2.021
    2PC     O3412141   3.695   3.621   2.124
    2PC     O2112142   3.643   3.876   2.539
    2PC     C2112143   3.596   3.781   2.621
    2PC     O2212144   3.657   3.678   2.642
    3OL     C1212145   3.459   3.817   2.674
    3OL     H2R12146   3.408   3.864   2.590
    3OL     H2S12147   3.454   3.887   2.758
    3OL     C1312148   3.383   3.689   2.711
    3OL     H3R12149   3.432   3.638   2.794
    3OL     H3S12150   3.393   3.626   2.623
    3OL     C1412151   3.233   3.714   2.732
    3OL     H4R12152   3.194   3.770   2.647
    3OL     H4S12153   3.220   3.768   2.826
    3OL     C1512154   3.162   3.578   2.740
    3OL     H5R12155   3.205   3.498   2.679
    3OL     H5S12156   3.064   3.595   2.695
    3OL     C1612157   3.134   3.521   2.879
    3OL     H6R12158   3.048   3.455   2.870
    3OL     H6S12159   3.110   3.604   2.945
    3OL     C1712160   3.256   3.449   2.938
    3OL     H7R12161   3.339   3.517   2.959
    3OL     H7S12162   3.300   3.372   2.874
    3OL     C1812163   3.216   3.366   3.061
    3OL     H8R12164   3.305   3.305   3.079
    3OL     H8S12165   3.136   3.298   3.029
    3OL     C1912166   3.184   3.453   3.180
    3OL     H9R12167   3.243   3.544   3.186
    3OL    C11012168   3.100   3.427   3.279
    3OL    H10R12169   3.094   3.495   3.364
    3OL    C11112170   3.016   3.303   3.294
    3OL    H11R12171   3.068   3.208   3.277
    3OL    H11S12172   2.939   3.308   3.217
    3OL    C11212173   2.938   3.303   3.426
    3OL    H12R12174   2.861   3.225   3.426
    3OL    H12S12175   2.894   3.403   3.436
    3OL    C11312176   3.025   3.290   3.551
    3OL    H13R12177   3.107   3.362   3.540
    3OL    H13S12178   3.083   3.197   3.552
    3OL    C11412179   2.937   3.304   3.676
    3OL    H14R12180   2.871   3.217   3.686
    3OL    H14S12181   2.882   3.397   3.687
    3OL    C11512182   3.035   3.316   3.793
    3OL    H15R12183   3.107   3.396   3.774
    3OL    H15S12184   3.076   3.215   3.798
    3OL    C11612185   2.949   3.329   3.920
    3OL    H16R12186   3.008   3.287   4.001
    3OL    H16S12187   2.866   3.259   3.909
    3OL    C11712188   2.911   3.476   3.944
    3OL    H17R12189   2.858   3.509   3.854
    3OL    H17S12190   3.003   3.534   3.952
    3OL    C11812191   2.824   3.507   4.067
    3OL    H18R12192   2.761   3.595   4.056
    3OL    H18S12193   2.896   3.506   4.149
    3OL    H18T12194   2.749   3.427   4.075
    1PA    C11612195   3.864   2.771   3.824
    1PA    H16R12196   3.940   2.777   3.902
    1PA    H16S12197   3.772   2.743   3.877
    1PA    H16T12198   3.848   2.871   3.782
    1PA    C11512199   3.913   2.679   3.711
    1PA    H15R12200   3.839   2.673   3.631
    1PA    H15S12201   4.004   2.713   3.660
    1PA    C11412202   3.940   2.543   3.777
    1PA    H14R12203   4.029   2.559   3.839
    1PA    H14S12204   3.853   2.501   3.826
    1PA    C11312205   3.980   2.446   3.665
    1PA    H13R12206   3.898   2.451   3.593
    1PA    H13S12207   4.076   2.475   3.621
    1PA    C11212208   4.004   2.304   3.717
    1PA    H12R12209   4.062   2.298   3.810
    1PA    H12S12210   3.914   2.249   3.747
    1PA    C11112211   4.079   2.211   3.621
    1PA    H11R12212   4.177   2.255   3.601
    1PA    H11S12213   4.112   2.117   3.664
    1PA    C11012214   3.999   2.199   3.490
    1PA    H10R12215   3.898   2.172   3.519
    1PA    H10S12216   3.991   2.297   3.443
    1PA     C1912217   4.063   2.098   3.394
    1PA     H9R12218   4.165   2.131   3.379
    1PA     H9S12219   4.064   1.998   3.438
    1PA     C1812220   3.994   2.095   3.256
    1PA     H8R12221   4.044   2.035   3.181
    1PA     H8S12222   3.897   2.048   3.273
    1PA     C1712223   3.964   2.233   3.196
    1PA     H7R12224   3.895   2.299   3.249
    1PA     H7S12225   4.060   2.285   3.187
    1PA     C1612226   3.910   2.212   3.054
    1PA     H6R12227   3.979   2.145   3.003
    1PA     H6S12228   3.810   2.168   3.055
    1PA     C1512229   3.910   2.351   2.990
    1PA     H5R12230   3.861   2.421   3.058
    1PA     H5S12231   4.012   2.386   2.974
    1PA     C1412232   3.835   2.343   2.856
    1PA     H4R12233   3.747   2.279   2.855
    1PA     H4S12234   3.802   2.438   2.814
    1PA     C1312235   3.930   2.275   2.756
    1PA     H3R12236   4.029   2.319   2.766
    1PA     H3S12237   3.941   2.172   2.792
    1PA     C1212238   3.884   2.283   2.610
    1PA     H2R12239   3.795   2.220   2.603
    1PA     H2S12240   3.862   2.384   2.575
    2PC     C1112241   3.983   2.217   2.517
    2PC     O1212242   3.955   2.116   2.456
    2PC     O1112243   4.098   2.288   2.513
    2PC      C112244   4.207   2.254   2.426
    2PC      HR12245   4.164   2.196   2.344
    2PC      HS12246   4.239   2.348   2.382
    2PC      C212247   4.325   2.183   2.494
    2PC      HX12248   4.370   2.248   2.569
    2PC      C312249   4.429   2.123   2.399
    2PC      HA12250   4.480   2.197   2.336
    2PC      HB12251   4.494   2.059   2.458
    2PC     O3112252   4.357   2.039   2.306
    2PC     P3112253   4.434   1.976   2.180
    2PC     O3212254   4.460   2.103   2.087
    2PC     C3112255   4.590   2.162   2.069
    2PC     H1A12256   4.611   2.216   2.161
    2PC     H1B12257   4.662   2.080   2.054
    2PC     C3212258   4.575   2.257   1.949
    2PC     H2A12259   4.543   2.198   1.863
    2PC     H2B12260   4.499   2.330   1.976
    2PC     N3112261   4.694   2.342   1.919
    2PC     C3312262   4.651   2.434   1.809
    2PC     H3A12263   4.735   2.500   1.788
    2PC     H3B12264   4.616   2.390   1.716
    2PC     H3C12265   4.562   2.494   1.831
    2PC     C3412266   4.743   2.424   2.035
    2PC     H4A12267   4.757   2.349   2.113
    2PC     H4B12268   4.840   2.473   2.025
    2PC     H4C12269   4.661   2.490   2.064
    2PC     C3512270   4.801   2.265   1.846
    2PC     H5A12271   4.824   2.180   1.910
    2PC     H5B12272   4.881   2.336   1.825
    2PC     H5C12273   4.756   2.228   1.754
    2PC     O3312274   4.554   1.901   2.223
    2PC     O3412275   4.341   1.877   2.121
    2PC     O2112276   4.260   2.072   2.558
    2PC     C2112277   4.314   1.994   2.653
    2PC     O2212278   4.411   2.030   2.716
    3OL     C1212279   4.249   1.858   2.668
    3OL     H2R12280   4.305   1.792   2.601
    3OL     H2S12281   4.146   1.866   2.634
    3OL     C1312282   4.256   1.803   2.811
    3OL     H3R12283   4.197   1.867   2.877
    3OL     H3S12284   4.362   1.805   2.838
    3OL     C1412285   4.202   1.660   2.826
    3OL     H4R12286   4.204   1.631   2.931
    3OL     H4S12287   4.258   1.587   2.766
    3OL     C1512288   4.052   1.660   2.792
    3OL     H5R12289   4.016   1.762   2.775
    3OL     H5S12290   3.992   1.609   2.867
    3OL     C1612291   4.019   1.591   2.659
    3OL     H6R12292   4.033   1.483   2.662
    3OL     H6S12293   4.089   1.628   2.584
    3OL     C1712294   3.876   1.630   2.620
    3OL     H7R12295   3.867   1.734   2.587
    3OL     H7S12296   3.809   1.614   2.705
    3OL     C1812297   3.822   1.543   2.505
    3OL     H8R12298   3.879   1.570   2.416
    3OL     H8S12299   3.726   1.591   2.488
    3OL     C1912300   3.812   1.396   2.539
    3OL     H9R12301   3.909   1.349   2.548
    3OL    C11012302   3.707   1.317   2.550
    3OL    H10R12303   3.717   1.210   2.568
    3OL    C11112304   3.566   1.367   2.530
    3OL    H11R12305   3.503   1.293   2.480
    3OL    H11S12306   3.572   1.458   2.471
    3OL    C11212307   3.501   1.413   2.662
    3OL    H12R12308   3.554   1.494   2.712
    3OL    H12S12309   3.506   1.325   2.727
    3OL    C11312310   3.354   1.449   2.638
    3OL    H13R12311   3.301   1.360   2.605
    3OL    H13S12312   3.344   1.523   2.558
    3OL    C11412313   3.289   1.524   2.755
    3OL    H14R12314   3.222   1.602   2.719
    3OL    H14S12315   3.362   1.577   2.816
    3OL    C11512316   3.211   1.434   2.853
    3OL    H15R12317   3.283   1.359   2.887
    3OL    H15S12318   3.120   1.398   2.806
    3OL    C11612319   3.163   1.512   2.976
    3OL    H16R12320   3.098   1.598   2.958
    3OL    H16S12321   3.254   1.554   3.019
    3OL    C11712322   3.103   1.435   3.094
    3OL    H17R12323   3.087   1.506   3.176
    3OL    H17S12324   3.171   1.359   3.133
    3OL    C11812325   2.967   1.376   3.053
    3OL    H18R12326   2.893   1.452   3.029
    3OL    H18S12327   2.928   1.322   3.140
    3OL    H18T12328   2.992   1.309   2.970
    1PA    C11612329   5.425   0.464   3.835
    1PA    H16R12330   5.418   0.522   3.742
    1PA    H16S12331   5.529   0.434   3.850
    1PA    H16T12332   5.401   0.520   3.926
    1PA    C11512333   5.325   0.348   3.824
    1PA    H15R12334   5.331   0.267   3.897
    1PA    H15S12335   5.228   0.396   3.837
    1PA    C11412336   5.331   0.275   3.689
    1PA    H14R12337   5.430   0.230   3.678
    1PA    H14S12338   5.244   0.209   3.688
    1PA    C11312339   5.310   0.364   3.566
    1PA    H13R12340   5.236   0.441   3.587
    1PA    H13S12341   5.405   0.412   3.545
    1PA    C11212342   5.283   0.263   3.453
    1PA    H12R12343   5.353   0.180   3.459
    1PA    H12S12344   5.185   0.216   3.461
    1PA    C11112345   5.300   0.327   3.314
    1PA    H11R12346   5.230   0.410   3.307
    1PA    H11S12347   5.401   0.366   3.304
    1PA    C11012348   5.265   0.229   3.201
    1PA    H10R12349   5.342   0.151   3.201
    1PA    H10S12350   5.179   0.168   3.230
    1PA     C1912351   5.253   0.293   3.062
    1PA     H9R12352   5.169   0.362   3.072
    1PA     H9S12353   5.346   0.344   3.036
    1PA     C1812354   5.216   0.190   2.954
    1PA     H8R12355   5.288   0.109   2.937
    1PA     H8S12356   5.130   0.143   3.001
    1PA     C1712357   5.185   0.263   2.822
    1PA     H7R12358   5.146   0.183   2.759
    1PA     H7S12359   5.112   0.339   2.849
    1PA     C1612360   5.307   0.333   2.761
    1PA     H6R12361   5.336   0.421   2.819
    1PA     H6S12362   5.389   0.260   2.764
    1PA     C1512363   5.277   0.381   2.619
    1PA     H5R12364   5.204   0.461   2.634
    1PA     H5S12365   5.364   0.425   2.568
    1PA     C1412366   5.221   0.270   2.530
    1PA     H4R12367   5.290   0.185   2.527
    1PA     H4S12368   5.121   0.248   2.568
    1PA     C1312369   5.203   0.325   2.387
    1PA     H3R12370   5.144   0.243   2.346
    1PA     H3S12371   5.153   0.422   2.394
    1PA     C1212372   5.323   0.332   2.292
    1PA     H2R12373   5.370   0.428   2.313
    1PA     H2S12374   5.404   0.267   2.324
    2PC     C1112375   5.291   0.315   2.146
    2PC     O1212376   5.191   0.291   2.082
    2PC     O1112377   5.408   0.335   2.081
    2PC      C112378   5.409   0.292   1.944
    2PC      HR12379   5.313   0.306   1.893
    2PC      HS12380   5.488   0.346   1.892
    2PC      C212381   5.453   0.145   1.937
    2PC      HX12382   5.540   0.131   2.002
    2PC      C312383   5.482   0.101   1.793
    2PC      HA12384   5.572   0.141   1.745
    2PC      HB12385   5.489   6.480   1.787
    2PC     O3112386   5.365   0.131   1.715
    2PC     P3112387   5.359   0.092   1.560
    2PC     O3212388   5.462   6.459   1.546
    2PC     C3112389   5.587   6.484   1.478
    2PC     H1A12390   5.573   0.033   1.377
    2PC     H1B12391   5.635   0.077   1.533
    2PC     C3212392   5.663   6.350   1.473
    2PC     H2A12393   5.704   6.328   1.571
    2PC     H2B12394   5.598   6.273   1.432
    2PC     N3112395   5.772   6.351   1.370
    2PC     C3312396   5.860   6.472   1.377
    2PC     H3A12397   5.903   0.006   1.475
    2PC     H3B12398   5.926   6.467   1.291
    2PC     H3C12399   5.802   0.075   1.362
    2PC     C3412400   5.858   6.233   1.404
    2PC     H4A12401   5.939   6.228   1.331
    2PC     H4B12402   5.891   6.253   1.505
    2PC     H4C12403   5.801   6.140   1.398
    2PC     C3512404   5.718   6.346   1.230
    2PC     H5A12405   5.644   6.265   1.227
    2PC     H5B12406   5.796   6.342   1.154
    2PC     H5C12407   5.653   6.432   1.215
    2PC     O3312408   5.221   0.058   1.519
    2PC     O3412409   5.402   0.209   1.479
    2PC     O2112410   5.347   0.063   1.988
    2PC     C2112411   5.363   0.008   2.110
    2PC     O2212412   5.448   0.036   2.192
    3OL     C1212413   5.260   6.386   2.121
    3OL     H2R12414   5.299   6.295   2.167
    3OL     H2S12415   5.236   6.362   2.018
    3OL     C1312416   5.137   6.439   2.195
    3OL     H3R12417   5.044   6.425   2.140
    3OL     H3S12418   5.141   0.058   2.215
    3OL     C1412419   5.108   6.372   2.331
    3OL     H4R12420   5.077   6.267   2.328
    3OL     H4S12421   5.024   6.425   2.376
    3OL     C1512422   5.225   6.390   2.428
    3OL     H5R12423   5.270   0.000   2.436
    3OL     H5S12424   5.312   6.336   2.390
    3OL     C1612425   5.186   6.327   2.563
    3OL     H6R12426   5.173   6.219   2.556
    3OL     H6S12427   5.095   6.374   2.603
    3OL     C1712428   5.307   6.351   2.653
    3OL     H7R12429   5.325   6.457   2.673
    3OL     H7S12430   5.400   6.308   2.615
    3OL     C1812431   5.273   6.284   2.786
    3OL     H8R12432   5.363   6.286   2.848
    3OL     H8S12433   5.245   6.183   2.758
    3OL     C1912434   5.160   6.345   2.866
    3OL     H9R12435   5.099   6.425   2.826
    3OL    C11012436   5.141   6.324   2.996
    3OL    H10R12437   5.063   6.383   3.043
    3OL    C11112438   5.207   6.231   3.094
    3OL    H11R12439   5.290   6.178   3.045
    3OL    H11S12440   5.143   6.159   3.146
    3OL    C11212441   5.277   6.317   3.201
    3OL    H12R12442   5.195   6.373   3.247
    3OL    H12S12443   5.344   6.385   3.149
    3OL    C11312444   5.345   6.243   3.317
    3OL    H13R12445   5.426   6.186   3.270
    3OL    H13S12446   5.268   6.173   3.351
    3OL    C11412447   5.403   6.333   3.426
    3OL    H14R12448   5.325   6.406   3.451
    3OL    H14S12449   5.486   6.394   3.391
    3OL    C11512450   5.430   6.244   3.548
    3OL    H15R12451   5.493   6.160   3.519
    3OL    H15S12452   5.334   6.211   3.588
    3OL    C11612453   5.505   6.308   3.665
    3OL    H16R12454   5.577   6.383   3.631
    3OL    H16S12455   5.558   6.237   3.729
    3OL    C11712456   5.405   6.373   3.762
    3OL    H17R12457   5.349   6.296   3.815
    3OL    H17S12458   5.324   6.427   3.711
    3OL    C11812459   5.467   6.460   3.872
    3OL    H18R12460   5.552   6.415   3.924
    3OL    H18S12461   5.392   0.008   3.942
    3OL    H18T12462   5.513   0.053   3.816
    1PA    C11612463   1.709   0.810   3.692
    1PA    H16R12464   1.662   0.719   3.731
    1PA    H16S12465   1.802   0.824   3.747
    1PA    H16T12466   1.734   0.792   3.588
    1PA    C11512467   1.618   0.934   3.695
    1PA    H15R12468   1.592   0.952   3.800
    1PA    H15S12469   1.688   1.016   3.676
    1PA    C11412470   1.501   0.937   3.596
    1PA    H14R12471   1.424   0.867   3.629
    1PA    H14S12472   1.447   1.031   3.610
    1PA    C11312473   1.541   0.923   3.449
    1PA    H13R12474   1.595   0.828   3.439
    1PA    H13S12475   1.452   0.921   3.386
    1PA    C11212476   1.644   1.026   3.401
    1PA    H12R12477   1.628   1.120   3.454
    1PA    H12S12478   1.744   0.995   3.433
    1PA    C11112479   1.637   1.048   3.250
    1PA    H11R12480   1.535   1.062   3.213
    1PA    H11S12481   1.695   1.138   3.228
    1PA    C11012482   1.704   0.926   3.186
    1PA    H10R12483   1.807   0.914   3.220
    1PA    H10S12484   1.651   0.834   3.215
    1PA     C1912485   1.705   0.937   3.033
    1PA     H9R12486   1.743   1.034   2.999
    1PA     H9S12487   1.780   0.872   2.986
    1PA     C1812488   1.569   0.905   2.971
    1PA     H8R12489   1.544   0.804   3.003
    1PA     H8S12490   1.481   0.965   2.996
    1PA     C1712491   1.571   0.920   2.818
    1PA     H7R12492   1.663   0.876   2.780
    1PA     H7S12493   1.478   0.873   2.787
    1PA     C1612494   1.568   1.068   2.777
    1PA     H6R12495   1.480   1.109   2.827
    1PA     H6S12496   1.662   1.119   2.802
    1PA     C1512497   1.544   1.087   2.626
    1PA     H5R12498   1.618   1.038   2.563
    1PA     H5S12499   1.447   1.039   2.606
    1PA     C1412500   1.536   1.235   2.587
    1PA     H4R12501   1.465   1.288   2.652
    1PA     H4S12502   1.636   1.276   2.602
    1PA     C1312503   1.491   1.254   2.442
    1PA     H3R12504   1.540   1.348   2.418
    1PA     H3S12505   1.529   1.170   2.383
    1PA     C1212506   1.339   1.276   2.435
    1PA     H2R12507   1.290   1.179   2.444
    1PA     H2S12508   1.297   1.356   2.497
    2PC     C1112509   1.293   1.313   2.297
    2PC     O1212510   1.361   1.293   2.199
    2PC     O1112511   1.162   1.342   2.291
    2PC      C112512   1.084   1.334   2.170
    2PC      HR12513   0.985   1.373   2.198
    2PC      HS12514   1.123   1.409   2.101
    2PC      C212515   1.077   1.191   2.116
    2PC      HX12516   1.177   1.154   2.094
    2PC      C312517   1.005   1.188   1.981
    2PC      HA12518   0.900   1.215   1.991
    2PC      HB12519   1.046   1.260   1.909
    2PC     O3112520   1.003   1.061   1.912
    2PC     P3112521   0.952   1.042   1.761
    2PC     O3212522   1.081   1.107   1.690
    2PC     C3112523   1.217   1.076   1.727
    2PC     H1A12524   1.219   1.097   1.835
    2PC     H1B12525   1.221   0.967   1.720
    2PC     C3212526   1.313   1.150   1.634
    2PC     H2A12527   1.309   1.259   1.640
    2PC     H2B12528   1.414   1.137   1.673
    2PC     N3112529   1.324   1.115   1.489
    2PC     C3312530   1.360   0.972   1.462
    2PC     H3A12531   1.397   0.951   1.362
    2PC     H3B12532   1.447   0.954   1.525
    2PC     H3C12533   1.280   0.903   1.491
    2PC     C3412534   1.190   1.133   1.423
    2PC     H4A12535   1.146   1.232   1.440
    2PC     H4B12536   1.192   1.113   1.316
    2PC     H4C12537   1.124   1.063   1.474
    2PC     C3512538   1.420   1.211   1.428
    2PC     H5A12539   1.368   1.307   1.428
    2PC     H5B12540   1.452   1.177   1.329
    2PC     H5C12541   1.502   1.221   1.499
    2PC     O3312542   0.941   0.898   1.728
    2PC     O3412543   0.826   1.119   1.755
    2PC     O2112544   1.034   1.090   2.210
    2PC     C2112545   0.909   1.099   2.256
    2PC     O2212546   0.832   1.186   2.217
    3OL     C1212547   0.871   0.992   2.355
    3OL     H2R12548   0.931   0.902   2.342
    3OL     H2S12549   0.769   0.965   2.329
    3OL     C1312550   0.868   1.036   2.502
    3OL     H3R12551   0.798   0.964   2.544
    3OL     H3S12552   0.811   1.129   2.513
    3OL     C1412553   1.009   1.048   2.561
    3OL     H4R12554   0.983   1.096   2.656
    3OL     H4S12555   1.065   1.117   2.498
    3OL     C1512556   1.096   0.923   2.575
    3OL     H5R12557   1.188   0.947   2.629
    3OL     H5S12558   1.118   0.882   2.476
    3OL     C1612559   1.024   0.821   2.665
    3OL     H6R12560   0.929   0.795   2.617
    3OL     H6S12561   0.998   0.864   2.762
    3OL     C1712562   1.109   0.696   2.688
    3OL     H7R12563   1.186   0.724   2.760
    3OL     H7S12564   1.176   0.677   2.603
    3OL     C1812565   1.034   0.566   2.721
    3OL     H8R12566   1.105   0.484   2.715
    3OL     H8S12567   0.951   0.549   2.652
    3OL     C1912568   0.982   0.573   2.862
    3OL     H9R12569   0.989   0.671   2.908
    3OL    C11012570   0.953   0.462   2.930
    3OL    H10R12571   0.916   0.474   3.031
    3OL    C11112572   0.932   0.329   2.863
    3OL    H11R12573   1.032   0.291   2.839
    3OL    H11S12574   0.872   0.336   2.772
    3OL    C11212575   0.868   0.217   2.946
    3OL    H12R12576   0.760   0.231   2.955
    3OL    H12S12577   0.912   0.229   3.046
    3OL    C11312578   0.893   0.075   2.895
    3OL    H13R12579   0.873   0.002   2.974
    3OL    H13S12580   0.996   0.058   2.863
    3OL    C11412581   0.806   0.043   2.772
    3OL    H14R12582   0.816   0.111   2.687
    3OL    H14S12583   0.701   0.037   2.801
    3OL    C11512584   0.838   6.389   2.724
    3OL    H15R12585   0.946   6.391   2.712
    3OL    H15S12586   0.806   6.366   2.622
    3OL    C11612587   0.784   6.275   2.812
    3OL    H16R12588   0.826   6.277   2.913
    3OL    H16S12589   0.822   6.183   2.767
    3OL    C11712590   0.632   6.256   2.824
    3OL    H17R12591   0.585   6.353   2.808
    3OL    H17S12592   0.604   6.209   2.919
    3OL    C11812593   0.596   6.162   2.708
    3OL    H18R12594   0.591   6.060   2.749
    3OL    H18S12595   0.663   6.167   2.621
    3OL    H18T12596   0.498   6.177   2.663
    1PA    C11612597   0.155   6.133   3.706
    1PA    H16R12598   0.138   6.030   3.676
    1PA    H16S12599   0.100   6.165   3.795
    1PA    H16T12600   0.261   6.138   3.732
    1PA    C11512601   0.126   6.226   3.587
    1PA    H15R12602   0.034   6.189   3.540
    1PA    H15S12603   0.115   6.326   3.629
    1PA    C11412604   0.241   6.240   3.487
    1PA    H14R12605   0.329   6.274   3.543
    1PA    H14S12606   0.281   6.154   3.432
    1PA    C11312607   0.213   6.342   3.376
    1PA    H13R12608   0.176   6.436   3.417
    1PA    H13S12609   0.308   6.365   3.327
    1PA    C11212610   0.106   6.292   3.278
    1PA    H12R12611   0.128   6.192   3.240
    1PA    H12S12612   0.006   6.301   3.320
    1PA    C11112613   0.106   6.379   3.151
    1PA    H11R12614   0.087   6.484   3.177
    1PA    H11S12615   0.197   6.381   3.091
    1PA    C11012616   6.488   6.344   3.046
    1PA    H10R12617   6.404   6.299   3.098
    1PA    H10S12618   6.449   6.433   2.996
    1PA     C1912619   0.055   6.239   2.949
    1PA     H9R12620   0.139   6.289   2.901
    1PA     H9S12621   0.089   6.149   3.001
    1PA     C1812622   6.438   6.195   2.847
    1PA     H8R12623   6.452   6.088   2.831
    1PA     H8S12624   6.340   6.206   2.893
    1PA     C1712625   6.444   6.265   2.711
    1PA     H7R12626   0.052   6.279   2.662
    1PA     H7S12627   6.386   6.211   2.636
    1PA     C1612628   6.373   6.401   2.721
    1PA     H6R12629   6.268   6.392   2.747
    1PA     H6S12630   6.430   6.461   2.793
    1PA     C1512631   6.394   6.472   2.586
    1PA     H5R12632   0.009   6.464   2.555
    1PA     H5S12633   6.343   6.424   2.502
    1PA     C1412634   6.351   0.131   2.577
    1PA     H4R12635   6.245   0.150   2.594
    1PA     H4S12636   6.396   0.184   2.661
    1PA     C1312637   6.384   0.188   2.439
    1PA     H3R12638   6.390   0.296   2.450
    1PA     H3S12639   6.480   0.150   2.402
    1PA     C1212640   6.269   0.174   2.339
    1PA     H2R12641   6.235   0.070   2.332
    1PA     H2S12642   6.179   0.228   2.371
    2PC     C1112643   6.302   0.236   2.206
    2PC     O1212644   6.390   0.318   2.194
    2PC     O1112645   6.235   0.180   2.103
    2PC      C112646   6.248   0.237   1.972
    2PC      HR12647   6.349   0.264   1.938
    2PC      HS12648   6.214   0.157   1.907
    2PC      C212649   6.174   0.371   1.958
    2PC      HX12650   6.079   0.360   2.011
    2PC      C312651   6.158   0.404   1.809
    2PC      HA12652   6.101   0.322   1.764
    2PC      HB12653   6.097   0.493   1.793
    2PC     O3112654   6.281   0.422   1.736
    2PC     P3112655   6.264   0.482   1.588
    2PC     O3212656   6.223   0.630   1.635
    2PC     C3112657   6.331   0.707   1.691
    2PC     H1A12658   6.341   0.661   1.790
    2PC     H1B12659   6.415   0.700   1.622
    2PC     C3212660   6.297   0.856   1.705
    2PC     H2A12661   6.213   0.851   1.775
    2PC     H2B12662   6.378   0.915   1.749
    2PC     N3112663   6.253   0.935   1.586
    2PC     C3312664   6.349   0.924   1.472
    2PC     H3A12665   6.441   0.980   1.492
    2PC     H3B12666   6.379   0.819   1.467
    2PC     H3C12667   6.294   0.951   1.381
    2PC     C3412668   6.114   0.897   1.544
    2PC     H4A12669   6.051   0.885   1.632
    2PC     H4B12670   6.081   0.973   1.473
    2PC     H4C12671   6.128   0.807   1.485
    2PC     C3512672   6.250   1.078   1.631
    2PC     H5A12673   6.348   1.114   1.661
    2PC     H5B12674   6.173   1.089   1.708
    2PC     H5C12675   6.219   1.139   1.546
    2PC     O3312676   6.383   0.470   1.501
    2PC     O3412677   6.155   0.413   1.515
    2PC     O2112678   6.246   0.478   2.024
    2PC     C2112679   6.174   0.589   2.048
    2PC     O2212680   6.058   0.606   2.016
    3OL     C1212681   6.252   0.685   2.134
    3OL     H2R12682   6.289   0.767   2.072
    3OL     H2S12683   6.331   0.628   2.183
    3OL     C1312684   6.163   0.746   2.244
    3OL     H3R12685   6.084   0.796   2.189
    3OL     H3S12686   6.222   0.826   2.290
    3OL     C1412687   6.114   0.648   2.352
    3OL     H4R12688   6.062   0.556   2.325
    3OL     H4S12689   6.048   0.704   2.419
    3OL     C1512690   6.232   0.617   2.446
    3OL     H5R12691   6.287   0.704   2.483
    3OL     H5S12692   6.304   0.556   2.392
    3OL     C1612693   6.187   0.533   2.567
    3OL     H6R12694   6.278   0.491   2.609
    3OL     H6S12695   6.107   0.466   2.536
    3OL     C1712696   6.141   0.626   2.680
    3OL     H7R12697   6.049   0.676   2.652
    3OL     H7S12698   6.221   0.700   2.691
    3OL     C1812699   6.123   0.552   2.814
    3OL     H8R12700   6.081   0.623   2.886
    3OL     H8S12701   6.223   0.521   2.843
    3OL     C1912702   6.032   0.433   2.795
    3OL     H9R12703   5.951   0.450   2.725
    3OL    C11012704   6.035   0.326   2.872
    3OL    H10R12705   5.948   0.260   2.875
    3OL    C11112706   6.163   0.273   2.931
    3OL    H11R12707   6.253   0.324   2.896
    3OL    H11S12708   6.178   0.178   2.880
    3OL    C11212709   6.160   0.257   3.084
    3OL    H12R12710   6.240   0.201   3.133
    3OL    H12S12711   6.067   0.212   3.118
    3OL    C11312712   6.171   0.396   3.147
    3OL    H13R12713   6.095   0.459   3.099
    3OL    H13S12714   6.265   0.445   3.123
    3OL    C11412715   6.152   0.392   3.299
    3OL    H14R12716   6.241   0.341   3.337
    3OL    H14S12717   6.059   0.345   3.331
    3OL    C11512718   6.160   0.535   3.355
    3OL    H15R12719   6.088   0.608   3.319
    3OL    H15S12720   6.261   0.573   3.337
    3OL    C11612721   6.130   0.543   3.506
    3OL    H16R12722   6.028   0.506   3.519
    3OL    H16S12723   6.119   0.646   3.542
    3OL    C11712724   6.208   0.458   3.606
    3OL    H17R12725   6.208   0.356   3.565
    3OL    H17S12726   6.168   0.452   3.708
    3OL    C11812727   6.356   0.497   3.615
    3OL    H18R12728   6.407   0.422   3.676
    3OL    H18S12729   6.366   0.598   3.655
    3OL    H18T12730   6.406   0.502   3.518
    1PA    C11612731   6.314   5.630   3.778
    1PA    H16R12732   6.368   5.681   3.698
    1PA    H16S12733   6.360   5.645   3.876
    1PA    H16T12734   6.219   5.683   3.777
    1PA    C11512735   6.293   5.480   3.755
    1PA    H15R12736   6.392   5.444   3.726
    1PA    H15S12737   6.273   5.430   3.850
    1PA    C11412738   6.190   5.425   3.655
    1PA    H14R12739   6.205   5.317   3.650
    1PA    H14S12740   6.089   5.451   3.686
    1PA    C11312741   6.222   5.489   3.519
    1PA    H13R12742   6.195   5.594   3.526
    1PA    H13S12743   6.328   5.478   3.493
    1PA    C11212744   6.142   5.414   3.411
    1PA    H12R12745   6.200   5.323   3.393
    1PA    H12S12746   6.044   5.384   3.447
    1PA    C11112747   6.124   5.511   3.294
    1PA    H11R12748   6.101   5.611   3.331
    1PA    H11S12749   6.213   5.527   3.233
    1PA    C11012750   6.012   5.458   3.203
    1PA    H10R12751   6.053   5.366   3.159
    1PA    H10S12752   5.922   5.441   3.262
    1PA     C1912753   5.984   5.561   3.093
    1PA     H9R12754   5.955   5.655   3.140
    1PA     H9S12755   6.072   5.583   3.032
    1PA     C1812756   5.870   5.506   3.007
    1PA     H8R12757   5.866   5.396   3.008
    1PA     H8S12758   5.777   5.534   3.056
    1PA     C1712759   5.868   5.579   2.872
    1PA     H7R12760   5.848   5.685   2.888
    1PA     H7S12761   5.967   5.576   2.826
    1PA     C1612762   5.759   5.525   2.778
    1PA     H6R12763   5.751   5.416   2.775
    1PA     H6S12764   5.663   5.562   2.814
    1PA     C1512765   5.783   5.585   2.639
    1PA     H5R12766   5.780   5.694   2.641
    1PA     H5S12767   5.881   5.567   2.594
    1PA     C1412768   5.667   5.560   2.542
    1PA     H4R12769   5.651   5.454   2.524
    1PA     H4S12770   5.572   5.595   2.585
    1PA     C1312771   5.696   5.631   2.409
    1PA     H3R12772   5.713   5.738   2.420
    1PA     H3S12773   5.794   5.601   2.372
    1PA     C1212774   5.593   5.592   2.302
    1PA     H2R12775   5.604   5.485   2.279
    1PA     H2S12776   5.490   5.613   2.328
    2PC     C1112777   5.615   5.670   2.175
    2PC     O1212778   5.530   5.740   2.123
    2PC     O1112779   5.740   5.658   2.128
    2PC      C112780   5.777   5.733   2.011
    2PC      HR12781   5.879   5.705   1.983
    2PC      HS12782   5.717   5.700   1.926
    2PC      C212783   5.770   5.883   2.039
    2PC      HX12784   5.666   5.917   2.044
    2PC      C312785   5.839   5.952   1.920
    2PC      HA12786   5.817   6.057   1.944
    2PC      HB12787   5.946   5.933   1.927
    2PC     O3112788   5.782   5.908   1.796
    2PC     P3112789   5.828   5.979   1.660
    2PC     O3212790   5.679   6.004   1.607
    2PC     C3112791   5.611   5.892   1.548
    2PC     H1A12792   5.664   5.846   1.465
    2PC     H1B12793   5.607   5.821   1.631
    2PC     C3212794   5.467   5.937   1.515
    2PC     H2A12795   5.483   6.007   1.433
    2PC     H2B12796   5.403   5.856   1.479
    2PC     N3112797   5.396   5.991   1.635
    2PC     C3312798   5.424   5.914   1.760
    2PC     H3A12799   5.349   5.946   1.832
    2PC     H3B12800   5.427   5.806   1.742
    2PC     H3C12801   5.524   5.941   1.794
    2PC     C3412802   5.429   6.135   1.660
    2PC     H4A12803   5.356   6.171   1.733
    2PC     H4B12804   5.527   6.145   1.707
    2PC     H4C12805   5.419   6.190   1.566
    2PC     C3512806   5.251   5.988   1.598
    2PC     H5A12807   5.236   5.884   1.569
    2PC     H5B12808   5.248   6.066   1.522
    2PC     H5C12809   5.192   6.022   1.683
    2PC     O3312810   5.907   6.102   1.686
    2PC     O3412811   5.904   5.878   1.583
    2PC     O2112812   5.841   5.912   2.161
    2PC     C2112813   5.820   6.023   2.234
    2PC     O2212814   5.736   6.106   2.206
    3OL     C1212815   5.901   6.018   2.361
    3OL     H2R12816   6.003   6.003   2.327
    3OL     H2S12817   5.877   5.924   2.412
    3OL     C1312818   5.881   6.149   2.438
    3OL     H3R12819   5.779   6.169   2.472
    3OL     H3S12820   5.915   6.228   2.370
    3OL     C1412821   5.976   6.156   2.558
    3OL     H4R12822   5.954   6.247   2.615
    3OL     H4S12823   6.073   6.174   2.512
    3OL     C1512824   5.968   6.042   2.660
    3OL     H5R12825   5.993   5.950   2.607
    3OL     H5S12826   5.863   6.026   2.688
    3OL     C1612827   6.061   6.070   2.778
    3OL     H6R12828   6.034   6.161   2.832
    3OL     H6S12829   6.161   6.074   2.734
    3OL     C1712830   6.044   5.959   2.883
    3OL     H7R12831   6.071   5.870   2.826
    3OL     H7S12832   5.939   5.947   2.914
    3OL     C1812833   6.142   5.967   3.001
    3OL     H8R12834   6.240   5.991   2.959
    3OL     H8S12835   6.142   5.865   3.041
    3OL     C1912836   6.113   6.063   3.114
    3OL     H9R12837   6.027   6.129   3.107
    3OL    C11012838   6.193   6.080   3.218
    3OL    H10R12839   6.169   6.165   3.281
    3OL    C11112840   6.311   5.997   3.261
    3OL    H11R12841   6.397   6.065   3.268
    3OL    H11S12842   6.328   5.918   3.187
    3OL    C11212843   6.298   5.939   3.402
    3OL    H12R12844   6.212   5.873   3.401
    3OL    H12S12845   6.274   6.026   3.464
    3OL    C11312846   6.430   5.880   3.454
    3OL    H13R12847   6.400   5.868   3.559
    3OL    H13S12848   0.026   5.948   3.441
    3OL    C11412849   6.469   5.752   3.379
    3OL    H14R12850   6.475   5.781   3.274
    3OL    H14S12851   6.391   5.677   3.395
    3OL    C11512852   0.112   5.689   3.425
    3OL    H15R12853   0.117   5.594   3.370
    3OL    H15S12854   0.101   5.669   3.532
    3OL    C11612855   0.225   5.777   3.370
    3OL    H16R12856   0.215   5.878   3.408
    3OL    H16S12857   0.208   5.787   3.262
    3OL    C11712858   0.372   5.732   3.380
    3OL    H17R12859   0.435   5.791   3.313
    3OL    H17S12860   0.376   5.631   3.339
    3OL    C11812861   0.422   5.724   3.525
    3OL    H18R12862   0.408   5.817   3.581
    3OL    H18S12863   0.529   5.707   3.523
    3OL    H18T12864   0.371   5.639   3.571
    1PA    C11612865   5.724   0.124   3.483
    1PA    H16R12866   5.731   0.203   3.557
    1PA    H16S12867   5.817   0.067   3.475
    1PA    H16T12868   5.650   0.050   3.513
    1PA    C11512869   5.682   0.182   3.347
    1PA    H15R12870   5.667   0.103   3.273
    1PA    H15S12871   5.582   0.221   3.367
    1PA    C11412872   5.788   0.280   3.295
    1PA    H14R12873   5.829   0.328   3.384
    1PA    H14S12874   5.873   0.229   3.250
    1PA    C11312875   5.719   0.377   3.197
    1PA    H13R12876   5.624   0.403   3.243
    1PA    H13S12877   5.779   0.468   3.208
    1PA    C11212878   5.711   0.332   3.051
    1PA    H12R12879   5.806   0.287   3.021
    1PA    H12S12880   5.636   0.252   3.050
    1PA    C11112881   5.674   0.450   2.961
    1PA    H11R12882   5.583   0.495   3.000
    1PA    H11S12883   5.758   0.520   2.972
    1PA    C11012884   5.672   0.399   2.816
    1PA    H10R12885   5.776   0.378   2.790
    1PA    H10S12886   5.614   0.307   2.807
    1PA     C1912887   5.617   0.506   2.721
    1PA     H9R12888   5.601   0.460   2.623
    1PA     H9S12889   5.521   0.545   2.757
    1PA     C1812890   5.726   0.612   2.697
    1PA     H8R12891   5.739   0.667   2.791
    1PA     H8S12892   5.818   0.572   2.654
    1PA     C1712893   5.678   0.716   2.595
    1PA     H7R12894   5.705   0.668   2.501
    1PA     H7S12895   5.573   0.739   2.612
    1PA     C1612896   5.757   0.847   2.590
    1PA     H6R12897   5.747   0.917   2.674
    1PA     H6S12898   5.863   0.819   2.587
    1PA     C1512899   5.722   0.918   2.458
    1PA     H5R12900   5.747   0.862   2.367
    1PA     H5S12901   5.617   0.947   2.455
    1PA     C1412902   5.825   1.031   2.445
    1PA     H4R12903   5.838   1.090   2.536
    1PA     H4S12904   5.924   0.991   2.420
    1PA     C1312905   5.779   1.121   2.329
    1PA     H3R12906   5.753   1.059   2.243
    1PA     H3S12907   5.688   1.173   2.361
    1PA     C1212908   5.885   1.220   2.281
    1PA     H2R12909   5.897   1.286   2.368
    1PA     H2S12910   5.988   1.186   2.264
    2PC     C1112911   5.838   1.295   2.159
    2PC     O1212912   5.779   1.235   2.071
    2PC     O1112913   5.878   1.423   2.163
    2PC      C112914   5.820   1.503   2.058
    2PC      HR12915   5.893   1.581   2.036
    2PC      HS12916   5.806   1.449   1.964
    2PC      C212917   5.679   1.554   2.094
    2PC      HX12918   5.615   1.467   2.114
    2PC      C312919   5.616   1.634   1.978
    2PC      HA12920   5.600   1.576   1.887
    2PC      HB12921   5.519   1.668   2.015
    2PC     O3112922   5.692   1.752   1.947
    2PC     P3112923   5.624   1.872   1.865
    2PC     O3212924   5.522   1.954   1.956
    2PC     C3112925   5.569   2.053   2.049
    2PC     H1A12926   5.676   2.075   2.036
    2PC     H1B12927   5.524   2.152   2.037
    2PC     C3212928   5.557   1.993   2.189
    2PC     H2A12929   5.598   1.891   2.190
    2PC     H2B12930   5.604   2.062   2.259
    2PC     N3112931   5.420   1.976   2.247
    2PC     C3312932   5.428   1.938   2.392
    2PC     H3A12933   5.475   2.012   2.456
    2PC     H3B12934   5.327   1.914   2.424
    2PC     H3C12935   5.491   1.849   2.399
    2PC     C3412936   5.337   2.100   2.255
    2PC     H4A12937   5.341   2.149   2.157
    2PC     H4B12938   5.238   2.073   2.291
    2PC     H4C12939   5.382   2.164   2.331
    2PC     C3512940   5.339   1.877   2.168
    2PC     H5A12941   5.398   1.786   2.157
    2PC     H5B12942   5.323   1.932   2.074
    2PC     H5C12943   5.245   1.850   2.214
    2PC     O3312944   5.731   1.952   1.801
    2PC     O3412945   5.540   1.817   1.756
    2PC     O2112946   5.682   1.639   2.210
    2PC     C2112947   5.690   1.582   2.331
    2PC     O2212948   5.664   1.464   2.344
    3OL     C1212949   5.732   1.676   2.442
    3OL     H2R12950   5.719   1.781   2.416
    3OL     H2S12951   5.841   1.669   2.439
    3OL     C1312952   5.677   1.647   2.582
    3OL     H3R12953   5.696   1.542   2.605
    3OL     H3S12954   5.569   1.642   2.564
    3OL     C1412955   5.730   1.746   2.687
    3OL     H4R12956   5.838   1.747   2.673
    3OL     H4S12957   5.710   1.710   2.788
    3OL     C1512958   5.667   1.886   2.687
    3OL     H5R12959   5.561   1.888   2.713
    3OL     H5S12960   5.672   1.934   2.589
    3OL     C1612961   5.726   1.971   2.801
    3OL     H6R12962   5.832   1.992   2.782
    3OL     H6S12963   5.723   1.904   2.887
    3OL     C1712964   5.636   2.094   2.805
    3OL     H7R12965   5.530   2.068   2.801
    3OL     H7S12966   5.653   2.155   2.716
    3OL     C1812967   5.670   2.177   2.930
    3OL     H8R12968   5.771   2.214   2.911
    3OL     H8S12969   5.686   2.114   3.018
    3OL     C1912970   5.561   2.281   2.943
    3OL     H9R12971   5.570   2.374   2.888
    3OL    C11012972   5.450   2.262   3.012
    3OL    H10R12973   5.373   2.337   3.000
    3OL    C11112974   5.400   2.154   3.105
    3OL    H11R12975   5.442   2.177   3.203
    3OL    H11S12976   5.436   2.055   3.077
    3OL    C11212977   5.253   2.152   3.146
    3OL    H12R12978   5.241   2.067   3.214
    3OL    H12S12979   5.201   2.141   3.051
    3OL    C11312980   5.197   2.283   3.205
    3OL    H13R12981   5.088   2.280   3.214
    3OL    H13S12982   5.219   2.366   3.138
    3OL    C11412983   5.238   2.302   3.352
    3OL    H14R12984   5.208   2.403   3.380
    3OL    H14S12985   5.347   2.300   3.356
    3OL    C11512986   5.175   2.197   3.444
    3OL    H15R12987   5.195   2.094   3.413
    3OL    H15S12988   5.069   2.203   3.418
    3OL    C11612989   5.195   2.222   3.594
    3OL    H16R12990   5.141   2.146   3.651
    3OL    H16S12991   5.163   2.320   3.631
    3OL    C11712992   5.343   2.217   3.632
    3OL    H17R12993   5.339   2.224   3.741
    3OL    H17S12994   5.403   2.300   3.595
    3OL    C11812995   5.420   2.089   3.598
    3OL    H18R12996   5.517   2.098   3.648
    3OL    H18S12997   5.434   2.062   3.493
    3OL    H18T12998   5.357   2.012   3.644
    1PA    C11612999   4.819   4.321   3.501
    1PA    H16R13000   4.926   4.334   3.514
    1PA    H16S13001   4.785   4.265   3.588
    1PA    H16T13002   4.770   4.419   3.499
    1PA    C11513003   4.805   4.239   3.372
    1PA    H15R13004   4.869   4.276   3.291
    1PA    H15S13005   4.834   4.137   3.398
    1PA    C11413006   4.659   4.248   3.324
    1PA    H14R13007   4.592   4.237   3.409
    1PA    H14S13008   4.641   4.348   3.286
    1PA    C11313009   4.630   4.135   3.224
    1PA    H13R13010   4.696   4.132   3.137
    1PA    H13S13011   4.653   4.044   3.280
    1PA    C11213012   4.483   4.128   3.178
    1PA    H12R13013   4.452   4.024   3.170
    1PA    H12S13014   4.421   4.162   3.260
    1PA    C11113015   4.461   4.209   3.049
    1PA    H11R13016   4.541   4.188   2.978
    1PA    H11S13017   4.376   4.174   2.991
    1PA    C11013018   4.458   4.361   3.070
    1PA    H10R13019   4.390   4.404   3.144
    1PA    H10S13020   4.554   4.396   3.107
    1PA     C1913021   4.423   4.440   2.943
    1PA     H9R13022   4.338   4.389   2.896
    1PA     H9S13023   4.387   4.533   2.987
    1PA     C1813024   4.546   4.456   2.854
    1PA     H8R13025   4.626   4.510   2.905
    1PA     H8S13026   4.578   4.352   2.837
    1PA     C1713027   4.511   4.513   2.716
    1PA     H7R13028   4.445   4.448   2.658
    1PA     H7S13029   4.461   4.610   2.717
    1PA     C1613030   4.639   4.530   2.633
    1PA     H6R13031   4.706   4.605   2.674
    1PA     H6S13032   4.697   4.438   2.623
    1PA     C1513033   4.589   4.574   2.495
    1PA     H5R13034   4.552   4.485   2.443
    1PA     H5S13035   4.507   4.645   2.507
    1PA     C1413036   4.701   4.633   2.409
    1PA     H4R13037   4.759   4.712   2.456
    1PA     H4S13038   4.760   4.547   2.374
    1PA     C1313039   4.633   4.698   2.287
    1PA     H3R13040   4.564   4.622   2.248
    1PA     H3S13041   4.574   4.782   2.321
    1PA     C1213042   4.745   4.746   2.194
    1PA     H2R13043   4.711   4.821   2.122
    1PA     H2S13044   4.811   4.799   2.262
    2PC     C1113045   4.820   4.647   2.108
    2PC     O1213046   4.812   4.526   2.121
    2PC     O1113047   4.888   4.708   2.010
    2PC      C113048   4.961   4.641   1.906
    2PC      HR13049   4.986   4.540   1.941
    2PC      HS13050   4.901   4.633   1.815
    2PC      C213051   5.090   4.719   1.880
    2PC      HX13052   5.066   4.823   1.856
    2PC      C313053   5.182   4.652   1.777
    2PC      HA13054   5.140   4.673   1.678
    2PC      HB13055   5.284   4.688   1.791
    2PC     O3113056   5.178   4.508   1.790
    2PC     P3113057   5.229   4.418   1.668
    2PC     O3213058   5.382   4.463   1.674
    2PC     C3113059   5.472   4.415   1.572
    2PC     H1A13060   5.491   4.308   1.580
    2PC     H1B13061   5.437   4.440   1.472
    2PC     C3213062   5.594   4.509   1.563
    2PC     H2A13063   5.562   4.603   1.520
    2PC     H2B13064   5.641   4.532   1.659
    2PC     N3113065   5.701   4.465   1.468
    2PC     C3313066   5.645   4.452   1.330
    2PC     H3A13067   5.570   4.374   1.321
    2PC     H3B13068   5.595   4.544   1.300
    2PC     H3C13069   5.733   4.438   1.266
    2PC     C3413070   5.796   4.581   1.470
    2PC     H4A13071   5.864   4.575   1.385
    2PC     H4B13072   5.728   4.665   1.455
    2PC     H4C13073   5.836   4.599   1.570
    2PC     C3513074   5.774   4.345   1.521
    2PC     H5A13075   5.710   4.257   1.530
    2PC     H5B13076   5.826   4.358   1.616
    2PC     H5C13077   5.853   4.319   1.450
    2PC     O3313078   5.205   4.273   1.683
    2PC     O3413079   5.165   4.462   1.541
    2PC     O2113080   5.163   4.721   2.004
    2PC     C2113081   5.280   4.787   2.019
    2PC     O2213082   5.319   4.868   1.937
    3OL     C1213083   5.338   4.766   2.156
    3OL     H2R13084   5.428   4.826   2.165
    3OL     H2S13085   5.361   4.660   2.172
    3OL     C1313086   5.241   4.806   2.269
    3OL     H3R13087   5.161   4.879   2.250
    3OL     H3S13088   5.298   4.857   2.347
    3OL     C1413089   5.173   4.685   2.333
    3OL     H4R13090   5.252   4.629   2.383
    3OL     H4S13091   5.136   4.616   2.257
    3OL     C1513092   5.060   4.712   2.434
    3OL     H5R13093   5.024   4.615   2.467
    3OL     H5S13094   4.983   4.774   2.387
    3OL     C1613095   5.121   4.775   2.560
    3OL     H6R13096   5.195   4.851   2.535
    3OL     H6S13097   5.171   4.703   2.625
    3OL     C1713098   5.005   4.821   2.650
    3OL     H7R13099   4.946   4.730   2.663
    3OL     H7S13100   4.953   4.901   2.598
    3OL     C1813101   5.057   4.874   2.785
    3OL     H8R13102   4.962   4.911   2.825
    3OL     H8S13103   5.130   4.954   2.768
    3OL     C1913104   5.116   4.765   2.869
    3OL     H9R13105   5.087   4.667   2.833
    3OL    C11013106   5.207   4.769   2.965
    3OL    H10R13107   5.228   4.674   3.014
    3OL    C11113108   5.297   4.879   3.015
    3OL    H11R13109   5.267   4.968   2.958
    3OL    H11S13110   5.402   4.858   2.993
    3OL    C11213111   5.283   4.903   3.166
    3OL    H12R13112   5.178   4.924   3.185
    3OL    H12S13113   5.343   4.992   3.186
    3OL    C11313114   5.324   4.794   3.265
    3OL    H13R13115   5.429   4.771   3.244
    3OL    H13S13116   5.260   4.708   3.243
    3OL    C11413117   5.312   4.819   3.416
    3OL    H14R13118   5.304   4.721   3.465
    3OL    H14S13119   5.218   4.873   3.427
    3OL    C11513120   5.425   4.895   3.487
    3OL    H15R13121   5.429   4.997   3.450
    3OL    H15S13122   5.518   4.838   3.489
    3OL    C11613123   5.390   4.904   3.636
    3OL    H16R13124   5.380   4.802   3.673
    3OL    H16S13125   5.297   4.957   3.659
    3OL    C11713126   5.495   4.973   3.724
    3OL    H17R13127   5.593   4.956   3.679
    3OL    H17S13128   5.499   4.929   3.824
    3OL    C11813129   5.468   5.124   3.739
    3OL    H18R13130   5.367   5.139   3.775
    3OL    H18S13131   5.490   5.170   3.642
    3OL    H18T13132   5.525   5.178   3.815
    1PA    C11613133   5.937   4.290   3.990
    1PA    H16R13134   5.907   4.231   4.076
    1PA    H16S13135   5.901   4.388   4.021
    1PA    H16T13136   6.046   4.284   3.986
    1PA    C11513137   5.868   4.246   3.860
    1PA    H15R13138   5.851   4.329   3.791
    1PA    H15S13139   5.922   4.172   3.801
    1PA    C11413140   5.732   4.184   3.896
    1PA    H14R13141   5.747   4.104   3.968
    1PA    H14S13142   5.678   4.269   3.938
    1PA    C11313143   5.649   4.119   3.784
    1PA    H13R13144   5.546   4.096   3.813
    1PA    H13S13145   5.631   4.194   3.707
    1PA    C11213146   5.715   3.988   3.740
    1PA    H12R13147   5.807   4.006   3.683
    1PA    H12S13148   5.740   3.921   3.822
    1PA    C11113149   5.612   3.913   3.653
    1PA    H11R13150   5.520   3.894   3.709
    1PA    H11S13151   5.589   3.974   3.566
    1PA    C11013152   5.679   3.782   3.610
    1PA    H10R13153   5.770   3.810   3.556
    1PA    H10S13154   5.704   3.717   3.694
    1PA     C1913155   5.587   3.685   3.535
    1PA     H9R13156   5.526   3.636   3.612
    1PA     H9S13157   5.517   3.732   3.466
    1PA     C1813158   5.665   3.568   3.474
    1PA     H8R13159   5.750   3.608   3.418
    1PA     H8S13160   5.717   3.513   3.554
    1PA     C1713161   5.575   3.463   3.408
    1PA     H7R13162   5.523   3.396   3.477
    1PA     H7S13163   5.489   3.513   3.363
    1PA     C1613164   5.644   3.398   3.288
    1PA     H6R13165   5.561   3.363   3.225
    1PA     H6S13166   5.705   3.477   3.244
    1PA     C1513167   5.727   3.275   3.329
    1PA     H5R13168   5.811   3.268   3.259
    1PA     H5S13169   5.766   3.304   3.427
    1PA     C1413170   5.648   3.144   3.336
    1PA     H4R13171   5.706   3.070   3.393
    1PA     H4S13172   5.556   3.164   3.392
    1PA     C1313173   5.617   3.080   3.200
    1PA     H3R13174   5.560   2.988   3.219
    1PA     H3S13175   5.552   3.149   3.146
    1PA     C1213176   5.744   3.052   3.119
    1PA     H2R13177   5.777   3.150   3.082
    1PA     H2S13178   5.829   3.018   3.179
    2PC     C1113179   5.728   2.961   3.001
    2PC     O1213180   5.669   2.855   3.008
    2PC     O1113181   5.779   3.018   2.890
    2PC      C113182   5.796   2.937   2.772
    2PC      HR13183   5.843   2.841   2.795
    2PC      HS13184   5.697   2.915   2.730
    2PC      C213185   5.874   3.019   2.667
    2PC      HX13186   5.836   3.117   2.639
    2PC      C313187   5.880   2.941   2.535
    2PC      HA13188   5.917   2.841   2.558
    2PC      HB13189   5.781   2.944   2.491
    2PC     O3113190   5.975   2.995   2.441
    2PC     P3113191   6.017   2.908   2.313
    2PC     O3213192   5.900   2.940   2.208
    2PC     C3113193   5.875   2.852   2.097
    2PC     H1A13194   5.966   2.829   2.042
    2PC     H1B13195   5.835   2.759   2.140
    2PC     C3213196   5.767   2.905   2.001
    2PC     H2A13197   5.772   2.839   1.914
    2PC     H2B13198   5.669   2.895   2.049
    2PC     N3113199   5.769   3.046   1.951
    2PC     C3313200   5.899   3.080   1.886
    2PC     H3A13201   5.900   3.183   1.852
    2PC     H3B13202   5.979   3.073   1.960
    2PC     H3C13203   5.915   3.010   1.803
    2PC     C3413204   5.656   3.078   1.857
    2PC     H4A13205   5.565   3.060   1.914
    2PC     H4B13206   5.670   3.182   1.827
    2PC     H4C13207   5.653   3.017   1.767
    2PC     C3513208   5.755   3.148   2.059
    2PC     H5A13209   5.661   3.143   2.114
    2PC     H5B13210   5.755   3.246   2.010
    2PC     H5C13211   5.834   3.133   2.133
    2PC     O3313212   6.153   2.957   2.279
    2PC     O3413213   6.042   2.772   2.364
    2PC     O2113214   6.007   3.026   2.722
    2PC     C2113215   6.079   3.137   2.705
    2PC     O2213216   6.025   3.236   2.660
    3OL     C1213217   6.229   3.117   2.708
    3OL     H2R13218   6.271   3.208   2.749
    3OL     H2S13219   6.259   3.097   2.605
    3OL     C1313220   6.281   2.999   2.792
    3OL     H3R13221   6.244   2.903   2.753
    3OL     H3S13222   6.235   3.011   2.890
    3OL     C1413223   6.432   3.021   2.812
    3OL     H4R13224   6.441   3.113   2.869
    3OL     H4S13225   6.480   3.040   2.715
    3OL     C1513226   0.020   2.915   2.892
    3OL     H5R13227   6.470   2.921   2.995
    3OL     H5S13228   0.126   2.932   2.907
    3OL     C1613229   0.007   2.772   2.838
    3OL     H6R13230   6.392   2.745   2.817
    3OL     H6S13231   0.042   2.704   2.916
    3OL     C1713232   0.088   2.753   2.709
    3OL     H7R13233   0.188   2.793   2.724
    3OL     H7S13234   0.028   2.799   2.631
    3OL     C1813235   0.097   2.605   2.667
    3OL     H8R13236   0.137   2.590   2.567
    3OL     H8S13237   6.484   2.566   2.657
    3OL     C1913238   0.175   2.522   2.766
    3OL     H9R13239   0.283   2.532   2.762
    3OL    C11013240   0.127   2.436   2.854
    3OL    H10R13241   0.195   2.396   2.929
    3OL    C11113242   6.468   2.419   2.883
    3OL    H11R13243   6.443   2.329   2.826
    3OL    H11S13244   6.403   2.498   2.845
    3OL    C11213245   6.438   2.404   3.032
    3OL    H12R13246   6.329   2.405   3.042
    3OL    H12S13247   6.477   2.497   3.075
    3OL    C11313248   0.019   2.283   3.097
    3OL    H13R13249   0.119   2.270   3.055
    3OL    H13S13250   6.463   2.190   3.063
    3OL    C11413251   0.011   2.292   3.250
    3OL    H14R13252   0.023   2.396   3.281
    3OL    H14S13253   0.087   2.223   3.287
    3OL    C11513254   6.360   2.243   3.294
    3OL    H15R13255   6.336   2.158   3.229
    3OL    H15S13256   6.300   2.331   3.275
    3OL    C11613257   6.351   2.213   3.444
    3OL    H16R13258   6.424   2.134   3.468
    3OL    H16S13259   6.253   2.172   3.469
    3OL    C11713260   6.383   2.328   3.540
    3OL    H17R13261   6.466   2.388   3.501
    3OL    H17S13262   6.418   2.287   3.635
    3OL    C11813263   6.258   2.416   3.554
    3OL    H18R13264   6.197   2.394   3.642
    3OL    H18S13265   6.183   2.420   3.474
    3OL    H18T13266   6.280   2.520   3.579
    1PA    C11613267   3.300   0.161   3.715
    1PA    H16R13268   3.344   0.176   3.814
    1PA    H16S13269   3.386   0.164   3.648
    1PA    H16T13270   3.269   0.057   3.710
    1PA    C11513271   3.191   0.262   3.676
    1PA    H15R13272   3.108   0.247   3.745
    1PA    H15S13273   3.238   0.360   3.687
    1PA    C11413274   3.143   0.237   3.532
    1PA    H14R13275   3.236   0.236   3.476
    1PA    H14S13276   3.102   0.137   3.520
    1PA    C11313277   3.049   0.351   3.490
    1PA    H13R13278   2.979   0.374   3.571
    1PA    H13S13279   3.107   0.444   3.486
    1PA    C11213280   2.967   0.329   3.363
    1PA    H12R13281   3.037   0.310   3.281
    1PA    H12S13282   2.907   0.239   3.374
    1PA    C11113283   2.891   0.459   3.331
    1PA    H11R13284   2.795   0.437   3.285
    1PA    H11S13285   2.866   0.506   3.426
    1PA    C11013286   2.981   0.567   3.269
    1PA    H10R13287   3.067   0.599   3.329
    1PA    H10S13288   3.024   0.533   3.175
    1PA     C1913289   2.893   0.691   3.246
    1PA     H9R13290   2.799   0.675   3.192
    1PA     H9S13291   2.864   0.750   3.334
    1PA     C1813292   2.979   0.784   3.159
    1PA     H8R13293   3.066   0.798   3.223
    1PA     H8S13294   3.004   0.734   3.065
    1PA     C1713295   2.916   0.920   3.127
    1PA     H7R13296   2.825   0.888   3.077
    1PA     H7S13297   2.896   0.973   3.220
    1PA     C1613298   3.003   1.005   3.033
    1PA     H6R13299   2.967   1.108   3.029
    1PA     H6S13300   3.102   0.993   3.077
    1PA     C1513301   3.003   0.958   2.887
    1PA     H5R13302   3.055   0.862   2.876
    1PA     H5S13303   2.896   0.940   2.872
    1PA     C1413304   3.063   1.065   2.796
    1PA     H4R13305   3.010   1.159   2.813
    1PA     H4S13306   3.168   1.087   2.813
    1PA     C1313307   3.046   1.033   2.646
    1PA     H3R13308   3.103   0.941   2.634
    1PA     H3S13309   2.943   1.013   2.618
    1PA     C1213310   3.103   1.140   2.552
    1PA     H2R13311   3.032   1.223   2.550
    1PA     H2S13312   3.198   1.182   2.588
    2PC     C1113313   3.132   1.089   2.414
    2PC     O1213314   3.147   1.169   2.324
    2PC     O1113315   3.158   0.958   2.400
    2PC      C113316   3.194   0.907   2.270
    2PC      HR13317   3.122   0.910   2.189
    2PC      HS13318   3.277   0.972   2.243
    2PC      C213319   3.243   0.761   2.281
    2PC      HX13320   3.344   0.755   2.323
    2PC      C313321   3.269   0.691   2.147
    2PC      HA13322   3.318   0.761   2.079
    2PC      HB13323   3.317   0.595   2.162
    2PC     O3113324   3.137   0.665   2.096
    2PC     P3113325   3.116   0.582   1.960
    2PC     O3213326   2.965   0.534   1.977
    2PC     C3113327   2.951   0.409   2.048
    2PC     H1A13328   3.038   0.351   2.018
    2PC     H1B13329   2.950   0.422   2.156
    2PC     C3213330   2.823   0.337   2.001
    2PC     H2A13331   2.809   0.247   2.060
    2PC     H2B13332   2.748   0.410   2.032
    2PC     N3113333   2.805   0.304   1.856
    2PC     C3313334   2.819   0.414   1.755
    2PC     H3A13335   2.762   0.504   1.781
    2PC     H3B13336   2.923   0.447   1.755
    2PC     H3C13337   2.786   0.375   1.659
    2PC     C3413338   2.897   0.195   1.811
    2PC     H4A13339   2.875   0.159   1.710
    2PC     H4B13340   2.997   0.239   1.811
    2PC     H4C13341   2.895   0.115   1.885
    2PC     C3513342   2.660   0.269   1.839
    2PC     H5A13343   2.642   0.171   1.883
    2PC     H5B13344   2.642   0.272   1.732
    2PC     H5C13345   2.603   0.351   1.884
    2PC     O3313346   3.141   0.670   1.844
    2PC     O3413347   3.208   0.468   1.937
    2PC     O2113348   3.154   0.688   2.366
    2PC     C2113349   3.177   0.669   2.497
    2PC     O2213350   3.281   0.686   2.558
    3OL     C1213351   3.046   0.623   2.557
    3OL     H2R13352   3.017   0.536   2.498
    3OL     H2S13353   2.971   0.701   2.543
    3OL     C1313354   3.058   0.581   2.704
    3OL     H3R13355   3.055   0.669   2.769
    3OL     H3S13356   3.149   0.526   2.726
    3OL     C1413357   2.941   0.491   2.744
    3OL     H4R13358   2.937   0.410   2.671
    3OL     H4S13359   2.848   0.548   2.749
    3OL     C1513360   2.960   0.453   2.892
    3OL     H5R13361   2.971   0.547   2.946
    3OL     H5S13362   3.058   0.404   2.896
    3OL     C1613363   2.850   0.368   2.957
    3OL     H6R13364   2.759   0.429   2.958
    3OL     H6S13365   2.893   0.345   3.054
    3OL     C1713366   2.809   0.234   2.895
    3OL     H7R13367   2.888   0.159   2.905
    3OL     H7S13368   2.789   0.240   2.788
    3OL     C1813369   2.679   0.180   2.956
    3OL     H8R13370   2.596   0.232   2.907
    3OL     H8S13371   2.676   0.200   3.063
    3OL     C1913372   2.670   0.030   2.940
    3OL     H9R13373   2.695   6.488   2.839
    3OL    C11013374   2.635   6.425   3.026
    3OL    H10R13375   2.626   6.322   2.991
    3OL    C11113376   2.604   6.439   3.173
    3OL    H11R13377   2.686   6.487   3.228
    3OL    H11S13378   2.580   6.339   3.209
    3OL    C11213379   2.476   0.027   3.208
    3OL    H12R13380   2.420   6.441   3.265
    3OL    H12S13381   2.429   0.053   3.113
    3OL    C11313382   2.504   0.144   3.303
    3OL    H13R13383   2.411   0.200   3.318
    3OL    H13S13384   2.582   0.207   3.260
    3OL    C11413385   2.547   0.097   3.443
    3OL    H14R13386   2.584   0.185   3.496
    3OL    H14S13387   2.638   0.036   3.443
    3OL    C11513388   2.430   0.036   3.521
    3OL    H15R13389   2.375   6.449   3.464
    3OL    H15S13390   2.355   0.112   3.545
    3OL    C11613391   2.464   6.451   3.652
    3OL    H16R13392   2.542   6.376   3.641
    3OL    H16S13393   2.375   6.390   3.667
    3OL    C11713394   2.489   0.055   3.772
    3OL    H17R13395   2.405   0.123   3.786
    3OL    H17S13396   2.583   0.110   3.761
    3OL    C11813397   2.509   6.463   3.902
    3OL    H18R13398   2.606   6.413   3.906
    3OL    H18S13399   2.437   6.383   3.919
    3OL    H18T13400   2.496   0.046   3.983
    1PA    C11613401   0.918   4.759   3.632
    1PA    H16R13402   0.935   4.863   3.604
    1PA    H16S13403   1.011   4.703   3.633
    1PA    H16T13404   0.879   4.755   3.734
    1PA    C11513405   0.820   4.704   3.527
    1PA    H15R13406   0.798   4.597   3.531
    1PA    H15S13407   0.726   4.759   3.531
    1PA    C11413408   0.871   4.721   3.383
    1PA    H14R13409   0.889   4.827   3.364
    1PA    H14S13410   0.963   4.666   3.365
    1PA    C11313411   0.771   4.668   3.279
    1PA    H13R13412   0.757   4.560   3.291
    1PA    H13S13413   0.683   4.732   3.276
    1PA    C11213414   0.831   4.688   3.139
    1PA    H12R13415   0.858   4.793   3.130
    1PA    H12S13416   0.920   4.626   3.131
    1PA    C11113417   0.723   4.644   3.039
    1PA    H11R13418   0.707   4.536   3.047
    1PA    H11S13419   0.632   4.698   3.065
    1PA    C11013420   0.763   4.678   2.895
    1PA    H10R13421   0.796   4.782   2.904
    1PA    H10S13422   0.854   4.623   2.870
    1PA     C1913423   0.650   4.660   2.793
    1PA     H9R13424   0.625   4.555   2.775
    1PA     H9S13425   0.563   4.716   2.828
    1PA     C1813426   0.677   4.714   2.652
    1PA     H8R13427   0.781   4.699   2.621
    1PA     H8S13428   0.613   4.660   2.582
    1PA     C1713429   0.656   4.864   2.623
    1PA     H7R13430   0.729   4.913   2.687
    1PA     H7S13431   0.697   4.882   2.524
    1PA     C1613432   0.511   4.910   2.645
    1PA     H6R13433   0.450   4.843   2.585
    1PA     H6S13434   0.481   4.914   2.750
    1PA     C1513435   0.505   5.051   2.583
    1PA     H5R13436   0.577   5.111   2.639
    1PA     H5S13437   0.529   5.042   2.477
    1PA     C1413438   0.371   5.121   2.606
    1PA     H4R13439   0.291   5.067   2.554
    1PA     H4S13440   0.345   5.138   2.710
    1PA     C1313441   0.367   5.258   2.536
    1PA     H3R13442   0.443   5.327   2.573
    1PA     H3S13443   0.388   5.253   2.429
    1PA     C1213444   0.235   5.319   2.583
    1PA     H2R13445   0.151   5.253   2.559
    1PA     H2S13446   0.240   5.340   2.690
    2PC     C1113447   0.206   5.448   2.511
    2PC     O1213448   0.094   5.490   2.486
    2PC     O1113449   0.317   5.514   2.475
    2PC      C113450   0.314   5.630   2.390
    2PC      HR13451   0.245   5.625   2.305
    2PC      HS13452   0.273   5.708   2.455
    2PC      C213453   0.454   5.673   2.346
    2PC      HX13454   0.451   5.777   2.313
    2PC      C313455   0.498   5.577   2.234
    2PC      HA13456   0.548   5.494   2.285
    2PC      HB13457   0.412   5.539   2.179
    2PC     O3113458   0.591   5.640   2.144
    2PC     P3113459   0.658   5.564   2.021
    2PC     O3213460   0.760   5.674   1.964
    2PC     C3113461   0.883   5.698   2.035
    2PC     H1A13462   0.857   5.722   2.138
    2PC     H1B13463   0.949   5.611   2.038
    2PC     C3213464   0.962   5.815   1.974
    2PC     H2A13465   1.068   5.791   1.973
    2PC     H2B13466   0.933   5.827   1.869
    2PC     N3113467   0.947   5.952   2.034
    2PC     C3313468   0.995   5.944   2.176
    2PC     H3A13469   0.988   6.040   2.228
    2PC     H3B13470   0.935   5.875   2.235
    2PC     H3C13471   1.096   5.903   2.174
    2PC     C3413472   1.032   6.055   1.966
    2PC     H4A13473   1.012   6.054   1.858
    2PC     H4B13474   1.020   6.155   2.008
    2PC     H4C13475   1.137   6.030   1.983
    2PC     C3513476   0.806   6.001   2.043
    2PC     H5A13477   0.789   6.107   2.059
    2PC     H5B13478   0.753   5.951   2.124
    2PC     H5C13479   0.753   5.982   1.949
    2PC     O3313480   0.720   5.433   2.053
    2PC     O3413481   0.553   5.535   1.921
    2PC     O2113482   0.545   5.674   2.458
    2PC     C2113483   0.594   5.794   2.495
    2PC     O2213484   0.562   5.902   2.449
    3OL     C1213485   0.684   5.784   2.616
    3OL     H2R13486   0.678   5.685   2.662
    3OL     H2S13487   0.639   5.837   2.700
    3OL     C1313488   0.827   5.838   2.609
    3OL     H3R13489   0.816   5.946   2.602
    3OL     H3S13490   0.880   5.791   2.526
    3OL     C1413491   0.902   5.811   2.740
    3OL     H4R13492   0.920   5.704   2.754
    3OL     H4S13493   0.841   5.840   2.825
    3OL     C1513494   1.032   5.892   2.729
    3OL     H5R13495   1.025   6.000   2.712
    3OL     H5S13496   1.089   5.845   2.650
    3OL     C1613497   1.108   5.886   2.862
    3OL     H6R13498   1.203   5.933   2.841
    3OL     H6S13499   1.130   5.780   2.878
    3OL     C1713500   1.042   5.965   2.976
    3OL     H7R13501   0.947   5.913   2.994
    3OL     H7S13502   1.034   6.065   2.934
    3OL     C1813503   1.131   5.968   3.101
    3OL     H8R13504   1.235   5.993   3.078
    3OL     H8S13505   1.158   5.868   3.136
    3OL     C1913506   1.078   6.054   3.213
    3OL     H9R13507   1.043   6.147   3.169
    3OL    C11013508   1.062   6.017   3.339
    3OL    H10R13509   1.027   6.089   3.412
    3OL    C11113510   1.094   5.881   3.396
    3OL    H11R13511   1.198   5.864   3.424
    3OL    H11S13512   1.068   5.802   3.325
    3OL    C11213513   1.031   5.859   3.534
    3OL    H12R13514   0.923   5.844   3.532
    3OL    H12S13515   1.061   5.948   3.590
    3OL    C11313516   1.096   5.744   3.611
    3OL    H13R13517   1.202   5.769   3.612
    3OL    H13S13518   1.069   5.648   3.567
    3OL    C11413519   1.046   5.748   3.756
    3OL    H14R13520   0.937   5.753   3.767
    3OL    H14S13521   1.068   5.842   3.807
    3OL    C11513522   1.110   5.632   3.833
    3OL    H15R13523   1.088   5.539   3.781
    3OL    H15S13524   1.064   5.617   3.931
    3OL    C11613525   1.256   5.660   3.869
    3OL    H16R13526   1.243   5.738   3.944
    3OL    H16S13527   1.318   5.700   3.788
    3OL    C11713528   1.322   5.542   3.943
    3OL    H17R13529   1.415   5.581   3.987
    3OL    H17S13530   1.338   5.458   3.876
    3OL    C11813531   1.231   5.495   4.057
    3OL    H18R13532   1.296   5.448   4.132
    3OL    H18S13533   1.166   5.418   4.016
    3OL    H18T13534   1.188   5.578   4.114
    1PA    C11613535   3.456   2.630   3.760
    1PA    H16R13536   3.538   2.649   3.830
    1PA    H16S13537   3.381   2.579   3.821
    1PA    H16T13538   3.415   2.723   3.721
    1PA    C11513539   3.503   2.542   3.644
    1PA    H15R13540   3.426   2.505   3.577
    1PA    H15S13541   3.568   2.597   3.574
    1PA    C11413542   3.593   2.429   3.696
    1PA    H14R13543   3.670   2.472   3.760
    1PA    H14S13544   3.532   2.370   3.765
    1PA    C11313545   3.650   2.335   3.589
    1PA    H13R13546   3.695   2.405   3.518
    1PA    H13S13547   3.717   2.275   3.650
    1PA    C11213548   3.539   2.241   3.540
    1PA    H12R13549   3.496   2.196   3.630
    1PA    H12S13550   3.460   2.294   3.487
    1PA    C11113551   3.579   2.127   3.446
    1PA    H11R13552   3.664   2.072   3.489
    1PA    H11S13553   3.498   2.053   3.440
    1PA    C11013554   3.618   2.173   3.305
    1PA    H10R13555   3.687   2.258   3.303
    1PA    H10S13556   3.678   2.094   3.260
    1PA     C1913557   3.493   2.191   3.218
    1PA     H9R13558   3.441   2.095   3.212
    1PA     H9S13559   3.434   2.269   3.266
    1PA     C1813560   3.542   2.241   3.082
    1PA     H8R13561   3.612   2.324   3.094
    1PA     H8S13562   3.593   2.155   3.039
    1PA     C1713563   3.423   2.256   2.986
    1PA     H7R13564   3.366   2.164   2.973
    1PA     H7S13565   3.363   2.338   3.028
    1PA     C1613566   3.463   2.298   2.844
    1PA     H6R13567   3.515   2.394   2.852
    1PA     H6S13568   3.527   2.219   2.805
    1PA     C1513569   3.344   2.324   2.751
    1PA     H5R13570   3.263   2.251   2.765
    1PA     H5S13571   3.303   2.424   2.769
    1PA     C1413572   3.394   2.308   2.606
    1PA     H4R13573   3.455   2.219   2.587
    1PA     H4S13574   3.306   2.287   2.544
    1PA     C1313575   3.479   2.423   2.550
    1PA     H3R13576   3.441   2.524   2.564
    1PA     H3S13577   3.581   2.416   2.590
    1PA     C1213578   3.496   2.398   2.400
    1PA     H2R13579   3.501   2.291   2.379
    1PA     H2S13580   3.403   2.427   2.351
    2PC     C1113581   3.608   2.482   2.343
    2PC     O1213582   3.696   2.436   2.274
    2PC     O1113583   3.602   2.612   2.379
    2PC      C113584   3.708   2.698   2.333
    2PC      HR13585   3.807   2.654   2.319
    2PC      HS13586   3.658   2.726   2.240
    2PC      C213587   3.715   2.820   2.426
    2PC      HX13588   3.621   2.831   2.481
    2PC      C313589   3.749   2.945   2.345
    2PC      HA13590   3.849   2.931   2.303
    2PC      HB13591   3.682   2.948   2.258
    2PC     O3113592   3.750   3.067   2.422
    2PC     P3113593   3.769   3.197   2.330
    2PC     O3213594   3.654   3.291   2.391
    2PC     C3113595   3.587   3.387   2.308
    2PC     H1A13596   3.584   3.478   2.368
    2PC     H1B13597   3.665   3.393   2.231
    2PC     C3213598   3.451   3.329   2.267
    2PC     H2A13599   3.404   3.412   2.214
    2PC     H2B13600   3.459   3.243   2.200
    2PC     N3113601   3.347   3.272   2.359
    2PC     C3313602   3.388   3.137   2.408
    2PC     H3A13603   3.481   3.154   2.462
    2PC     H3B13604   3.303   3.104   2.469
    2PC     H3C13605   3.413   3.068   2.328
    2PC     C3413606   3.316   3.355   2.480
    2PC     H4A13607   3.290   3.456   2.446
    2PC     H4B13608   3.226   3.318   2.528
    2PC     H4C13609   3.399   3.355   2.551
    2PC     C3513610   3.219   3.248   2.284
    2PC     H5A13611   3.254   3.191   2.198
    2PC     H5B13612   3.174   3.346   2.266
    2PC     H5C13613   3.149   3.190   2.344
    2PC     O3313614   3.899   3.261   2.361
    2PC     O3413615   3.754   3.168   2.186
    2PC     O2113616   3.833   2.800   2.507
    2PC     C2113617   3.839   2.720   2.615
    2PC     O2213618   3.749   2.645   2.643
    3OL     C1213619   3.950   2.751   2.712
    3OL     H2R13620   4.002   2.835   2.666
    3OL     H2S13621   4.025   2.672   2.722
    3OL     C1313622   3.915   2.785   2.858
    3OL     H3R13623   4.009   2.809   2.908
    3OL     H3S13624   3.874   2.700   2.912
    3OL     C1413625   3.813   2.898   2.877
    3OL     H4R13626   3.712   2.869   2.848
    3OL     H4S13627   3.849   2.974   2.807
    3OL     C1513628   3.822   2.961   3.017
    3OL     H5R13629   3.921   3.007   3.014
    3OL     H5S13630   3.822   2.888   3.098
    3OL     C1613631   3.715   3.067   3.047
    3OL     H6R13632   3.744   3.101   3.146
    3OL     H6S13633   3.616   3.020   3.045
    3OL     C1713634   3.703   3.189   2.955
    3OL     H7R13635   3.684   3.163   2.850
    3OL     H7S13636   3.796   3.247   2.948
    3OL     C1813637   3.578   3.262   3.006
    3OL     H8R13638   3.506   3.186   3.035
    3OL     H8S13639   3.527   3.313   2.924
    3OL     C1913640   3.624   3.353   3.117
    3OL     H9R13641   3.678   3.437   3.074
    3OL    C11013642   3.604   3.342   3.248
    3OL    H10R13643   3.639   3.418   3.317
    3OL    C11113644   3.530   3.228   3.313
    3OL    H11R13645   3.544   3.136   3.256
    3OL    H11S13646   3.426   3.259   3.307
    3OL    C11213647   3.564   3.204   3.461
    3OL    H12R13648   3.533   3.290   3.522
    3OL    H12S13649   3.671   3.205   3.481
    3OL    C11313650   3.500   3.068   3.493
    3OL    H13R13651   3.542   2.994   3.426
    3OL    H13S13652   3.396   3.054   3.464
    3OL    C11413653   3.532   3.039   3.641
    3OL    H14R13654   3.634   3.066   3.668
    3OL    H14S13655   3.524   2.932   3.664
    3OL    C11513656   3.428   3.116   3.722
    3OL    H15R13657   3.326   3.106   3.686
    3OL    H15S13658   3.447   3.220   3.694
    3OL    C11613659   3.452   3.099   3.873
    3OL    H16R13660   3.554   3.119   3.907
    3OL    H16S13661   3.425   3.000   3.909
    3OL    C11713662   3.359   3.196   3.947
    3OL    H17R13663   3.370   3.190   4.056
    3OL    H17S13664   3.255   3.168   3.926
    3OL    C11813665   3.391   3.345   3.928
    3OL    H18R13666   3.398   3.375   3.823
    3OL    H18S13667   3.482   3.369   3.984
    3OL    H18T13668   3.316   3.410   3.976
    1PA    C11613669   4.153   1.553   4.322
    1PA    H16R13670   4.184   1.602   4.414
    1PA    H16S13671   4.045   1.538   4.320
    1PA    H16T13672   4.176   1.616   4.235
    1PA    C11513673   4.226   1.418   4.325
    1PA    H15R13674   4.330   1.432   4.358
    1PA    H15S13675   4.170   1.348   4.388
    1PA    C11413676   4.226   1.349   4.188
    1PA    H14R13677   4.280   1.415   4.120
    1PA    H14S13678   4.288   1.260   4.195
    1PA    C11313679   4.089   1.327   4.121
    1PA    H13R13680   4.030   1.273   4.195
    1PA    H13S13681   4.042   1.424   4.103
    1PA    C11213682   4.097   1.235   3.999
    1PA    H12R13683   4.162   1.152   4.025
    1PA    H12S13684   3.999   1.189   3.983
    1PA    C11113685   4.142   1.316   3.877
    1PA    H11R13686   4.076   1.403   3.889
    1PA    H11S13687   4.243   1.357   3.881
    1PA    C11013688   4.113   1.250   3.741
    1PA    H10R13689   4.172   1.160   3.725
    1PA    H10S13690   4.005   1.232   3.750
    1PA     C1913691   4.134   1.343   3.621
    1PA     H9R13692   4.094   1.291   3.534
    1PA     H9S13693   4.075   1.434   3.633
    1PA     C1813694   4.284   1.371   3.603
    1PA     H8R13695   4.323   1.422   3.692
    1PA     H8S13696   4.336   1.275   3.589
    1PA     C1713697   4.299   1.461   3.480
    1PA     H7R13698   4.253   1.410   3.395
    1PA     H7S13699   4.246   1.554   3.504
    1PA     C1613700   4.450   1.477   3.466
    1PA     H6R13701   4.479   1.527   3.559
    1PA     H6S13702   4.499   1.380   3.467
    1PA     C1513703   4.486   1.565   3.345
    1PA     H5R13704   4.422   1.516   3.271
    1PA     H5S13705   4.448   1.666   3.356
    1PA     C1413706   4.633   1.554   3.301
    1PA     H4R13707   4.702   1.578   3.382
    1PA     H4S13708   4.661   1.454   3.267
    1PA     C1313709   4.652   1.656   3.188
    1PA     H3R13710   4.629   1.759   3.213
    1PA     H3S13711   4.760   1.660   3.168
    1PA     C1213712   4.576   1.627   3.058
    1PA     H2R13713   4.566   1.522   3.029
    1PA     H2S13714   4.473   1.661   3.048
    2PC     C1113715   4.627   1.708   2.941
    2PC     O1213716   4.712   1.795   2.945
    2PC     O1113717   4.569   1.671   2.826
    2PC      C113718   4.618   1.716   2.698
    2PC      HR13719   4.584   1.643   2.624
    2PC      HS13720   4.573   1.811   2.666
    2PC      C213721   4.770   1.714   2.676
    2PC      HX13722   4.824   1.779   2.745
    2PC      C313723   4.801   1.751   2.530
    2PC      HA13724   4.792   1.653   2.482
    2PC      HB13725   4.731   1.825   2.491
    2PC     O3113726   4.938   1.792   2.515
    2PC     P3113727   5.014   1.813   2.375
    2PC     O3213728   5.109   1.932   2.423
    2PC     C3113729   5.057   2.062   2.460
    2PC     H1A13730   5.046   2.130   2.376
    2PC     H1B13731   4.962   2.057   2.514
    2PC     C3213732   5.149   2.143   2.553
    2PC     H2A13733   5.251   2.143   2.514
    2PC     H2B13734   5.108   2.244   2.549
    2PC     N3113735   5.145   2.112   2.699
    2PC     C3313736   5.009   2.139   2.757
    2PC     H3A13737   5.003   2.093   2.856
    2PC     H3B13738   4.999   2.247   2.759
    2PC     H3C13739   4.922   2.112   2.697
    2PC     C3413740   5.163   1.964   2.717
    2PC     H4A13741   5.199   1.955   2.819
    2PC     H4B13742   5.078   1.898   2.698
    2PC     H4C13743   5.239   1.922   2.651
    2PC     C3513744   5.260   2.178   2.769
    2PC     H5A13745   5.354   2.127   2.750
    2PC     H5B13746   5.237   2.190   2.875
    2PC     H5C13747   5.285   2.270   2.716
    2PC     O3313748   5.106   1.702   2.342
    2PC     O3413749   4.937   1.843   2.252
    2PC     O2113750   4.807   1.576   2.697
    2PC     C2113751   4.933   1.543   2.728
    2PC     O2213752   5.020   1.628   2.730
    3OL     C1213753   4.945   1.401   2.778
    3OL     H2R13754   5.050   1.374   2.792
    3OL     H2S13755   4.896   1.348   2.696
    3OL     C1313756   4.868   1.369   2.907
    3OL     H3R13757   4.776   1.428   2.914
    3OL     H3S13758   4.929   1.388   2.995
    3OL     C1413759   4.822   1.223   2.892
    3OL     H4R13760   4.906   1.174   2.844
    3OL     H4S13761   4.739   1.211   2.821
    3OL     C1513762   4.791   1.159   3.027
    3OL     H5R13763   4.711   1.210   3.081
    3OL     H5S13764   4.880   1.168   3.090
    3OL     C1613765   4.753   1.010   3.020
    3OL     H6R13766   4.809   0.963   2.939
    3OL     H6S13767   4.647   1.010   2.991
    3OL     C1713768   4.770   0.929   3.150
    3OL     H7R13769   4.713   0.836   3.146
    3OL     H7S13770   4.741   0.979   3.243
    3OL     C1813771   4.916   0.882   3.161
    3OL     H8R13772   4.979   0.967   3.185
    3OL     H8S13773   4.949   0.858   3.059
    3OL     C1913774   4.937   0.778   3.267
    3OL     H9R13775   4.950   0.801   3.372
    3OL    C11013776   4.934   0.648   3.241
    3OL    H10R13777   4.929   0.585   3.329
    3OL    C11113778   4.921   0.582   3.106
    3OL    H11R13779   5.017   0.555   3.061
    3OL    H11S13780   4.883   0.653   3.031
    3OL    C11213781   4.843   0.450   3.115
    3OL    H12R13782   4.770   0.468   3.194
    3OL    H12S13783   4.910   0.370   3.147
    3OL    C11313784   4.768   0.413   2.986
    3OL    H13R13785   4.844   0.410   2.908
    3OL    H13S13786   4.694   0.490   2.961
    3OL    C11413787   4.696   0.279   3.002
    3OL    H14R13788   4.762   0.206   3.050
    3OL    H14S13789   4.688   0.243   2.899
    3OL    C11513790   4.558   0.276   3.069
    3OL    H15R13791   4.488   0.219   3.007
    3OL    H15S13792   4.521   0.379   3.068
    3OL    C11613793   4.566   0.227   3.214
    3OL    H16R13794   4.610   0.308   3.273
    3OL    H16S13795   4.623   0.134   3.222
    3OL    C11713796   4.431   0.203   3.284
    3OL    H17R13797   4.451   0.140   3.372
    3OL    H17S13798   4.361   0.142   3.227
    3OL    C11813799   4.348   0.322   3.332
    3OL    H18R13800   4.339   0.404   3.260
    3OL    H18S13801   4.371   0.347   3.436
    3OL    H18T13802   4.246   0.281   3.330
    1PA    C11613803   2.200   4.811   4.125
    1PA    H16R13804   2.193   4.920   4.122
    1PA    H16S13805   2.163   4.785   4.225
    1PA    H16T13806   2.134   4.758   4.057
    1PA    C11513807   2.345   4.761   4.120
    1PA    H15R13808   2.399   4.812   4.040
    1PA    H15S13809   2.390   4.785   4.216
    1PA    C11413810   2.359   4.610   4.094
    1PA    H14R13811   2.286   4.564   4.162
    1PA    H14S13812   2.324   4.595   3.992
    1PA    C11313813   2.503   4.562   4.116
    1PA    H13R13814   2.575   4.620   4.057
    1PA    H13S13815   2.526   4.574   4.222
    1PA    C11213816   2.521   4.415   4.076
    1PA    H12R13817   2.611   4.377   4.126
    1PA    H12S13818   2.435   4.355   4.106
    1PA    C11113819   2.529   4.395   3.924
    1PA    H11R13820   2.447   4.452   3.879
    1PA    H11S13821   2.625   4.435   3.889
    1PA    C11013822   2.528   4.247   3.887
    1PA    H10R13823   2.625   4.198   3.903
    1PA    H10S13824   2.455   4.206   3.956
    1PA     C1913825   2.492   4.228   3.739
    1PA     H9R13826   2.467   4.124   3.714
    1PA     H9S13827   2.412   4.296   3.709
    1PA     C1813828   2.603   4.260   3.638
    1PA     H8R13829   2.620   4.368   3.630
    1PA     H8S13830   2.691   4.201   3.663
    1PA     C1713831   2.559   4.216   3.498
    1PA     H7R13832   2.527   4.112   3.502
    1PA     H7S13833   2.470   4.270   3.464
    1PA     C1613834   2.662   4.212   3.384
    1PA     H6R13835   2.718   4.305   3.380
    1PA     H6S13836   2.728   4.127   3.404
    1PA     C1513837   2.582   4.183   3.256
    1PA     H5R13838   2.503   4.110   3.278
    1PA     H5S13839   2.538   4.280   3.230
    1PA     C1413840   2.684   4.132   3.154
    1PA     H4R13841   2.784   4.172   3.170
    1PA     H4S13842   2.683   4.024   3.165
    1PA     C1313843   2.635   4.171   3.014
    1PA     H3R13844   2.607   4.277   3.010
    1PA     H3S13845   2.723   4.152   2.953
    1PA     C1213846   2.513   4.095   2.960
    1PA     H2R13847   2.538   3.989   2.964
    1PA     H2S13848   2.425   4.099   3.025
    2PC     C1113849   2.491   4.129   2.815
    2PC     O1213850   2.581   4.157   2.739
    2PC     O1113851   2.362   4.128   2.777
    2PC      C113852   2.326   4.141   2.639
    2PC      HR13853   2.217   4.153   2.630
    2PC      HS13854   2.362   4.234   2.594
    2PC      C213855   2.363   4.015   2.559
    2PC      HX13856   2.469   3.989   2.568
    2PC      C313857   2.345   4.029   2.407
    2PC      HA13858   2.240   4.010   2.383
    2PC      HB13859   2.382   4.127   2.379
    2PC     O3113860   2.422   3.929   2.337
    2PC     P3113861   2.438   3.955   2.180
    2PC     O3213862   2.507   4.100   2.182
    2PC     C3113863   2.648   4.105   2.151
    2PC     H1A13864   2.710   4.021   2.183
    2PC     H1B13865   2.643   4.097   2.042
    2PC     C3213866   2.708   4.238   2.198
    2PC     H2A13867   2.634   4.318   2.197
    2PC     H2B13868   2.731   4.224   2.304
    2PC     N3113869   2.833   4.290   2.134
    2PC     C3313870   2.952   4.205   2.163
    2PC     H3A13871   3.051   4.241   2.134
    2PC     H3B13872   2.949   4.198   2.272
    2PC     H3C13873   2.938   4.106   2.118
    2PC     C3413874   2.809   4.315   1.988
    2PC     H4A13875   2.708   4.357   1.988
    2PC     H4B13876   2.884   4.387   1.954
    2PC     H4C13877   2.826   4.219   1.938
    2PC     C3513878   2.867   4.423   2.195
    2PC     H5A13879   2.879   4.412   2.303
    2PC     H5B13880   2.786   4.493   2.174
    2PC     H5C13881   2.966   4.452   2.160
    2PC     O3313882   2.539   3.863   2.122
    2PC     O3413883   2.307   3.951   2.112
    2PC     O2113884   2.270   3.914   2.600
    2PC     C2113885   2.306   3.833   2.701
    2PC     O2213886   2.423   3.830   2.736
    3OL     C1213887   2.193   3.749   2.756
    3OL     H2R13888   2.192   3.652   2.707
    3OL     H2S13889   2.104   3.792   2.710
    3OL     C1313890   2.195   3.749   2.910
    3OL     H3R13891   2.190   3.852   2.948
    3OL     H3S13892   2.283   3.692   2.941
    3OL     C1413893   2.071   3.676   2.961
    3OL     H4R13894   2.011   3.633   2.880
    3OL     H4S13895   2.008   3.751   3.011
    3OL     C1513896   2.110   3.567   3.062
    3OL     H5R13897   2.160   3.487   3.007
    3OL     H5S13898   2.019   3.510   3.084
    3OL     C1613899   2.192   3.608   3.184
    3OL     H6R13900   2.296   3.579   3.169
    3OL     H6S13901   2.155   3.544   3.264
    3OL     C1713902   2.177   3.755   3.228
    3OL     H7R13903   2.071   3.781   3.241
    3OL     H7S13904   2.208   3.820   3.146
    3OL     C1813905   2.273   3.787   3.343
    3OL     H8R13906   2.367   3.737   3.317
    3OL     H8S13907   2.232   3.742   3.435
    3OL     C1913908   2.305   3.933   3.354
    3OL     H9R13909   2.349   3.987   3.271
    3OL    C11013910   2.264   4.008   3.456
    3OL    H10R13911   2.288   4.113   3.443
    3OL    C11113912   2.190   3.971   3.582
    3OL    H11R13913   2.246   4.015   3.665
    3OL    H11S13914   2.179   3.862   3.582
    3OL    C11213915   2.053   4.040   3.588
    3OL    H12R13916   1.989   3.990   3.516
    3OL    H12S13917   2.072   4.145   3.565
    3OL    C11313918   1.995   4.028   3.730
    3OL    H13R13919   2.063   4.078   3.800
    3OL    H13S13920   1.998   3.926   3.767
    3OL    C11413921   1.849   4.070   3.748
    3OL    H14R13922   1.804   4.016   3.664
    3OL    H14S13923   1.841   4.177   3.732
    3OL    C11513924   1.791   4.017   3.880
    3OL    H15R13925   1.843   4.062   3.965
    3OL    H15S13926   1.797   3.908   3.889
    3OL    C11613927   1.642   4.051   3.886
    3OL    H16R13928   1.590   4.001   3.804
    3OL    H16S13929   1.616   4.156   3.875
    3OL    C11713930   1.576   3.990   4.011
    3OL    H17R13931   1.640   4.014   4.096
    3OL    H17S13932   1.577   3.880   4.007
    3OL    C11813933   1.429   4.030   4.022
    3OL    H18R13934   1.412   4.136   4.004
    3OL    H18S13935   1.396   4.004   4.123
    3OL    H18T13936   1.369   3.971   3.952
    1PA    C11613937   4.510   2.451   3.414
    1PA    H16R13938   4.468   2.353   3.439
    1PA    H16S13939   4.531   2.504   3.507
    1PA    H16T13940   4.606   2.438   3.364
    1PA    C11513941   4.410   2.539   3.337
    1PA    H15R13942   4.446   2.642   3.332
    1PA    H15S13943   4.408   2.497   3.236
    1PA    C11413944   4.264   2.528   3.382
    1PA    H14R13945   4.242   2.424   3.357
    1PA    H14S13946   4.258   2.544   3.489
    1PA    C11313947   4.176   2.624   3.299
    1PA    H13R13948   4.205   2.726   3.325
    1PA    H13S13949   4.190   2.603   3.193
    1PA    C11213950   4.031   2.592   3.338
    1PA    H12R13951   4.013   2.486   3.320
    1PA    H12S13952   4.010   2.601   3.444
    1PA    C11113953   3.926   2.692   3.289
    1PA    H11R13954   3.953   2.787   3.335
    1PA    H11S13955   3.927   2.715   3.182
    1PA    C11013956   3.781   2.667   3.333
    1PA    H10R13957   3.774   2.629   3.435
    1PA    H10S13958   3.731   2.764   3.332
    1PA     C1913959   3.703   2.565   3.249
    1PA     H9R13960   3.712   2.581   3.141
    1PA     H9S13961   3.752   2.470   3.271
    1PA     C1813962   3.553   2.555   3.278
    1PA     H8R13963   3.513   2.500   3.192
    1PA     H8S13964   3.532   2.493   3.365
    1PA     C1713965   3.475   2.687   3.273
    1PA     H7R13966   3.367   2.673   3.283
    1PA     H7S13967   3.512   2.740   3.361
    1PA     C1613968   3.500   2.770   3.147
    1PA     H6R13969   3.476   2.875   3.169
    1PA     H6S13970   3.602   2.771   3.109
    1PA     C1513971   3.395   2.735   3.040
    1PA     H5R13972   3.381   2.627   3.036
    1PA     H5S13973   3.297   2.779   3.060
    1PA     C1413974   3.441   2.789   2.904
    1PA     H4R13975   3.444   2.897   2.895
    1PA     H4S13976   3.541   2.758   2.871
    1PA     C1313977   3.349   2.741   2.790
    1PA     H3R13978   3.360   2.635   2.767
    1PA     H3S13979   3.246   2.750   2.825
    1PA     C1213980   3.377   2.817   2.660
    1PA     H2R13981   3.357   2.923   2.680
    1PA     H2S13982   3.483   2.812   2.638
    2PC     C1113983   3.286   2.773   2.547
    2PC     O1213984   3.326   2.787   2.433
    2PC     O1113985   3.162   2.735   2.581
    2PC      C113986   3.064   2.723   2.477
    2PC      HR13987   2.967   2.715   2.526
    2PC      HS13988   3.060   2.820   2.426
    2PC      C213989   3.086   2.599   2.388
    2PC      HX13990   3.191   2.570   2.384
    2PC      C313991   3.028   2.621   2.248
    2PC      HA13992   3.087   2.699   2.199
    2PC      HB13993   3.043   2.538   2.179
    2PC     O3113994   2.888   2.657   2.254
    2PC     P3113995   2.826   2.697   2.112
    2PC     O3213996   2.673   2.680   2.158
    2PC     C3113997   2.604   2.556   2.138
    2PC     H1A13998   2.602   2.537   2.030
    2PC     H1B13999   2.656   2.478   2.194
    2PC     C3214000   2.459   2.570   2.187
    2PC     H2A14001   2.461   2.618   2.285
    2PC     H2B14002   2.400   2.628   2.116
    2PC     N3114003   2.389   2.439   2.206
    2PC     C3314004   2.380   2.359   2.080
    2PC     H3A14005   2.330   2.264   2.101
    2PC     H3B14006   2.327   2.425   2.012
    2PC     H3C14007   2.478   2.339   2.036
    2PC     C3414008   2.455   2.353   2.311
    2PC     H4A14009   2.374   2.293   2.352
    2PC     H4B14010   2.544   2.306   2.270
    2PC     H4C14011   2.485   2.422   2.390
    2PC     C3514012   2.249   2.480   2.240
    2PC     H5A14013   2.248   2.546   2.327
    2PC     H5B14014   2.188   2.392   2.258
    2PC     H5C14015   2.201   2.531   2.156
    2PC     O3314016   2.867   2.825   2.051
    2PC     O3414017   2.859   2.598   2.006
    2PC     O2114018   3.016   2.491   2.453
    2PC     C2114019   3.015   2.363   2.412
    2PC     O2214020   3.071   2.339   2.307
    3OL     C1214021   2.939   2.267   2.499
    3OL     H2R14022   2.902   2.178   2.448
    3OL     H2S14023   2.853   2.324   2.536
    3OL     C1314024   3.024   2.224   2.620
    3OL     H3R14025   3.073   2.312   2.661
    3OL     H3S14026   3.096   2.153   2.581
    3OL     C1414027   2.932   2.159   2.725
    3OL     H4R14028   2.900   2.061   2.689
    3OL     H4S14029   2.848   2.227   2.740
    3OL     C1514030   3.005   2.136   2.858
    3OL     H5R14031   2.928   2.146   2.935
    3OL     H5S14032   3.081   2.214   2.871
    3OL     C1614033   3.060   1.996   2.887
    3OL     H6R14034   3.140   1.973   2.816
    3OL     H6S14035   2.977   1.926   2.872
    3OL     C1714036   3.127   1.982   3.024
    3OL     H7R14037   3.196   2.063   3.047
    3OL     H7S14038   3.184   1.890   3.010
    3OL     C1814039   3.035   1.984   3.147
    3OL     H8R14040   2.962   2.064   3.131
    3OL     H8S14041   3.088   2.015   3.237
    3OL     C1914042   2.959   1.854   3.159
    3OL     H9R14043   2.857   1.858   3.122
    3OL    C11014044   3.014   1.763   3.237
    3OL    H10R14045   2.954   1.677   3.263
    3OL    C11114046   3.152   1.752   3.297
    3OL    H11R14047   3.224   1.824   3.258
    3OL    H11S14048   3.192   1.657   3.263
    3OL    C11214049   3.141   1.754   3.450
    3OL    H12R14050   3.087   1.669   3.492
    3OL    H12S14051   3.068   1.833   3.473
    3OL    C11314052   3.282   1.766   3.510
    3OL    H13R14053   3.317   1.868   3.489
    3OL    H13S14054   3.350   1.694   3.465
    3OL    C11414055   3.282   1.766   3.664
    3OL    H14R14056   3.222   1.682   3.700
    3OL    H14S14057   3.238   1.861   3.694
    3OL    C11514058   3.426   1.766   3.716
    3OL    H15R14059   3.485   1.847   3.673
    3OL    H15S14060   3.470   1.669   3.691
    3OL    C11614061   3.432   1.778   3.869
    3OL    H16R14062   3.370   1.700   3.913
    3OL    H16S14063   3.405   1.880   3.898
    3OL    C11714064   3.578   1.768   3.915
    3OL    H17R14065   3.642   1.842   3.865
    3OL    H17S14066   3.619   1.671   3.887
    3OL    C11814067   3.599   1.794   4.064
    3OL    H18R14068   3.534   1.724   4.118
    3OL    H18S14069   3.563   1.890   4.100
    3OL    H18T14070   3.704   1.795   4.095
    1PA    C11614071   3.041   2.419   3.975
    1PA    H16R14072   3.069   2.516   4.018
    1PA    H16S14073   2.953   2.374   4.019
    1PA    H16T14074   3.021   2.445   3.871
    1PA    C11514075   3.149   2.311   3.987
    1PA    H15R14076   3.246   2.340   3.947
    1PA    H15S14077   3.178   2.307   4.093
    1PA    C11414078   3.110   2.174   3.928
    1PA    H14R14079   3.193   2.112   3.963
    1PA    H14S14080   3.020   2.130   3.971
    1PA    C11314081   3.098   2.169   3.775
    1PA    H13R14082   3.051   2.073   3.750
    1PA    H13S14083   3.020   2.240   3.749
    1PA    C11214084   3.227   2.191   3.697
    1PA    H12R14085   3.295   2.272   3.724
    1PA    H12S14086   3.288   2.102   3.717
    1PA    C11114087   3.195   2.191   3.547
    1PA    H11R14088   3.290   2.184   3.493
    1PA    H11S14089   3.131   2.108   3.516
    1PA    C11014090   3.151   2.331   3.500
    1PA    H10R14091   3.059   2.353   3.554
    1PA    H10S14092   3.231   2.402   3.520
    1PA     C1914093   3.116   2.325   3.350
    1PA     H9R14094   3.208   2.296   3.299
    1PA     H9S14095   3.035   2.254   3.336
    1PA     C1814096   3.056   2.459   3.304
    1PA     H8R14097   2.976   2.506   3.361
    1PA     H8S14098   3.137   2.532   3.304
    1PA     C1714099   3.021   2.440   3.156
    1PA     H7R14100   3.102   2.397   3.098
    1PA     H7S14101   2.948   2.359   3.162
    1PA     C1614102   2.974   2.571   3.091
    1PA     H6R14103   2.876   2.603   3.127
    1PA     H6S14104   3.045   2.650   3.115
    1PA     C1514105   2.968   2.545   2.940
    1PA     H5R14106   2.967   2.643   2.891
    1PA     H5S14107   3.056   2.492   2.903
    1PA     C1414108   2.842   2.468   2.899
    1PA     H4R14109   2.863   2.362   2.908
    1PA     H4S14110   2.765   2.504   2.967
    1PA     C1314111   2.794   2.492   2.755
    1PA     H3R14112   2.878   2.490   2.684
    1PA     H3S14113   2.722   2.416   2.726
    1PA     C1214114   2.719   2.626   2.759
    1PA     H2R14115   2.623   2.624   2.812
    1PA     H2S14116   2.779   2.704   2.806
    2PC     C1114117   2.702   2.679   2.619
    2PC     O1214118   2.677   2.606   2.525
    2PC     O1114119   2.723   2.810   2.604
    2PC      C114120   2.689   2.892   2.491
    2PC      HR14121   2.753   2.981   2.491
    2PC      HS14122   2.699   2.841   2.395
    2PC      C214123   2.547   2.948   2.509
    2PC      HX14124   2.486   2.861   2.536
    2PC      C314125   2.501   3.010   2.377
    2PC      HA14126   2.534   2.954   2.288
    2PC      HB14127   2.392   3.022   2.377
    2PC     O3114128   2.576   3.130   2.352
    2PC     P3114129   2.523   3.208   2.222
    2PC     O3214130   2.448   3.334   2.288
    2PC     C3114131   2.305   3.324   2.298
    2PC     H1A14132   2.261   3.306   2.199
    2PC     H1B14133   2.288   3.234   2.359
    2PC     C3214134   2.262   3.452   2.371
    2PC     H2A14135   2.155   3.443   2.386
    2PC     H2B14136   2.314   3.452   2.467
    2PC     N3114137   2.283   3.586   2.307
    2PC     C3314138   2.429   3.618   2.311
    2PC     H3A14139   2.456   3.631   2.416
    2PC     H3B14140   2.482   3.539   2.258
    2PC     H3C14141   2.445   3.712   2.256
    2PC     C3414142   2.235   3.571   2.166
    2PC     H4A14143   2.197   3.668   2.132
    2PC     H4B14144   2.316   3.545   2.099
    2PC     H4C14145   2.157   3.495   2.156
    2PC     C3514146   2.211   3.700   2.372
    2PC     H5A14147   2.238   3.703   2.478
    2PC     H5B14148   2.104   3.680   2.365
    2PC     H5C14149   2.226   3.793   2.316
    2PC     O3314150   2.622   3.236   2.115
    2PC     O3414151   2.421   3.131   2.147
    2PC     O2114152   2.554   3.054   2.607
    2PC     C2114153   2.439   3.104   2.655
    2PC     O2214154   2.334   3.048   2.631
    3OL     C1214155   2.450   3.234   2.730
    3OL     H2R14156   2.367   3.233   2.801
    3OL     H2S14157   2.431   3.320   2.664
    3OL     C1314158   2.576   3.265   2.812
    3OL     H3R14159   2.660   3.250   2.744
    3OL     H3S14160   2.604   3.196   2.891
    3OL     C1414161   2.571   3.401   2.884
    3OL     H4R14162   2.488   3.414   2.954
    3OL     H4S14163   2.559   3.475   2.806
    3OL     C1514164   2.694   3.433   2.971
    3OL     H5R14165   2.780   3.429   2.904
    3OL     H5S14166   2.709   3.367   3.057
    3OL     C1614167   2.687   3.573   3.032
    3OL     H6R14168   2.599   3.569   3.095
    3OL     H6S14169   2.674   3.648   2.953
    3OL     C1714170   2.807   3.606   3.122
    3OL     H7R14171   2.904   3.584   3.075
    3OL     H7S14172   2.805   3.544   3.212
    3OL     C1814173   2.801   3.751   3.171
    3OL     H8R14174   2.807   3.812   3.080
    3OL     H8S14175   2.891   3.770   3.229
    3OL     C1914176   2.675   3.780   3.249
    3OL     H9R14177   2.590   3.806   3.185
    3OL    C11014178   2.676   3.785   3.381
    3OL    H10R14179   2.582   3.800   3.434
    3OL    C11114180   2.782   3.755   3.484
    3OL    H11R14181   2.878   3.773   3.434
    3OL    H11S14182   2.785   3.654   3.525
    3OL    C11214183   2.784   3.841   3.611
    3OL    H12R14184   2.810   3.944   3.584
    3OL    H12S14185   2.859   3.815   3.686
    3OL    C11314186   2.646   3.835   3.677
    3OL    H13R14187   2.571   3.867   3.605
    3OL    H13S14188   2.643   3.898   3.766
    3OL    C11414189   2.620   3.690   3.721
    3OL    H14R14190   2.702   3.633   3.766
    3OL    H14S14191   2.599   3.636   3.627
    3OL    C11514192   2.489   3.689   3.800
    3OL    H15R14193   2.427   3.599   3.796
    3OL    H15S14194   2.431   3.773   3.760
    3OL    C11614195   2.518   3.722   3.947
    3OL    H16R14196   2.596   3.797   3.961
    3OL    H16S14197   2.563   3.639   4.003
    3OL    C11714198   2.388   3.769   4.014
    3OL    H17R14199   2.392   3.761   4.123
    3OL    H17S14200   2.303   3.713   3.975
    3OL    C11814201   2.356   3.917   3.986
    3OL    H18R14202   2.327   3.921   3.881
    3OL    H18S14203   2.444   3.976   4.011
    3OL    H18T14204   2.273   3.943   4.053
    1PA    C11614205   3.154   5.402   3.314
    1PA    H16R14206   3.235   5.431   3.246
    1PA    H16S14207   3.207   5.344   3.389
    1PA    H16T14208   3.115   5.498   3.350
    1PA    C11514209   3.035   5.335   3.243
    1PA    H15R14210   2.962   5.301   3.316
    1PA    H15S14211   2.992   5.416   3.184
    1PA    C11414212   3.070   5.218   3.150
    1PA    H14R14213   3.144   5.246   3.075
    1PA    H14S14214   3.118   5.131   3.195
    1PA    C11314215   2.948   5.158   3.078
    1PA    H13R14216   2.861   5.132   3.138
    1PA    H13S14217   2.907   5.230   3.007
    1PA    C11214218   2.989   5.025   3.013
    1PA    H12R14219   3.079   5.041   2.955
    1PA    H12S14220   3.017   4.948   3.086
    1PA    C11114221   2.876   4.968   2.925
    1PA    H11R14222   2.780   5.018   2.941
    1PA    H11S14223   2.901   4.987   2.820
    1PA    C11014224   2.863   4.817   2.949
    1PA    H10R14225   2.953   4.763   2.919
    1PA    H10S14226   2.853   4.795   3.056
    1PA     C1914227   2.740   4.758   2.879
    1PA     H9R14228   2.642   4.800   2.903
    1PA     H9S14229   2.758   4.759   2.772
    1PA     C1814230   2.722   4.609   2.913
    1PA     H8R14231   2.819   4.566   2.891
    1PA     H8S14232   2.715   4.602   3.022
    1PA     C1714233   2.609   4.533   2.842
    1PA     H7R14234   2.610   4.567   2.738
    1PA     H7S14235   2.631   4.426   2.851
    1PA     C1614236   2.468   4.562   2.896
    1PA     H6R14237   2.456   4.487   2.975
    1PA     H6S14238   2.462   4.664   2.934
    1PA     C1514239   2.366   4.535   2.785
    1PA     H5R14240   2.402   4.592   2.698
    1PA     H5S14241   2.363   4.429   2.756
    1PA     C1414242   2.225   4.584   2.819
    1PA     H4R14243   2.195   4.544   2.916
    1PA     H4S14244   2.222   4.693   2.832
    1PA     C1314245   2.123   4.550   2.710
    1PA     H3R14246   2.137   4.442   2.703
    1PA     H3S14247   2.024   4.581   2.741
    1PA     C1214248   2.150   4.633   2.583
    1PA     H2R14249   2.154   4.738   2.610
    1PA     H2S14250   2.243   4.597   2.538
    2PC     C1114251   2.037   4.622   2.484
    2PC     O1214252   2.016   4.525   2.415
    2PC     O1114253   1.966   4.736   2.486
    2PC      C114254   1.849   4.759   2.406
    2PC      HR14255   1.835   4.868   2.412
    2PC      HS14256   1.864   4.736   2.300
    2PC      C214257   1.726   4.677   2.448
    2PC      HX14258   1.735   4.571   2.423
    2PC      C314259   1.606   4.712   2.359
    2PC      HA14260   1.539   4.780   2.412
    2PC      HB14261   1.647   4.755   2.268
    2PC     O3114262   1.534   4.592   2.324
    2PC     P3114263   1.582   4.517   2.191
    2PC     O3214264   1.725   4.451   2.217
    2PC     C3114265   1.801   4.395   2.108
    2PC     H1A14266   1.745   4.321   2.050
    2PC     H1B14267   1.825   4.466   2.028
    2PC     C3214268   1.930   4.332   2.161
    2PC     H2A14269   1.996   4.407   2.204
    2PC     H2B14270   1.905   4.269   2.247
    2PC     N3114271   2.007   4.249   2.063
    2PC     C3314272   1.916   4.160   1.984
    2PC     H3A14273   1.868   4.234   1.920
    2PC     H3B14274   1.973   4.091   1.922
    2PC     H3C14275   1.851   4.102   2.049
    2PC     C3414276   2.086   4.331   1.966
    2PC     H4A14277   2.154   4.400   2.017
    2PC     H4B14278   2.127   4.263   1.891
    2PC     H4C14279   2.014   4.393   1.913
    2PC     C3514280   2.096   4.160   2.145
    2PC     H5A14281   2.036   4.095   2.210
    2PC     H5B14282   2.169   4.228   2.189
    2PC     H5C14283   2.133   4.092   2.068
    2PC     O3314284   1.487   4.410   2.150
    2PC     O3414285   1.579   4.614   2.079
    2PC     O2114286   1.694   4.724   2.580
    2PC     C2114287   1.734   4.647   2.683
    2PC     O2214288   1.775   4.533   2.674
    3OL     C1214289   1.726   4.718   2.815
    3OL     H2R14290   1.619   4.733   2.828
    3OL     H2S14291   1.765   4.819   2.801
    3OL     C1314292   1.790   4.648   2.936
    3OL     H3R14293   1.898   4.643   2.922
    3OL     H3S14294   1.749   4.551   2.963
    3OL     C1414295   1.763   4.722   3.068
    3OL     H4R14296   1.656   4.735   3.082
    3OL     H4S14297   1.808   4.822   3.073
    3OL     C1514298   1.811   4.641   3.189
    3OL     H5R14299   1.917   4.614   3.180
    3OL     H5S14300   1.755   4.549   3.207
    3OL     C1614301   1.796   4.735   3.309
    3OL     H6R14302   1.690   4.747   3.335
    3OL     H6S14303   1.828   4.835   3.280
    3OL     C1714304   1.892   4.692   3.420
    3OL     H7R14305   1.992   4.693   3.375
    3OL     H7S14306   1.882   4.584   3.437
    3OL     C1814307   1.879   4.785   3.542
    3OL     H8R14308   1.934   4.731   3.618
    3OL     H8S14309   1.778   4.777   3.583
    3OL     C1914310   1.933   4.925   3.526
    3OL     H9R14311   1.881   4.990   3.455
    3OL    C11014312   2.041   4.977   3.582
    3OL    H10R14313   2.067   5.076   3.547
    3OL    C11114314   2.125   4.905   3.684
    3OL    H11R14315   2.101   4.799   3.699
    3OL    H11S14316   2.113   4.958   3.779
    3OL    C11214317   2.272   4.927   3.649
    3OL    H12R14318   2.296   5.034   3.642
    3OL    H12S14319   2.290   4.873   3.556
    3OL    C11314320   2.362   4.863   3.755
    3OL    H13R14321   2.334   4.763   3.788
    3OL    H13S14322   2.359   4.934   3.838
    3OL    C11414323   2.509   4.856   3.710
    3OL    H14R14324   2.556   4.955   3.702
    3OL    H14S14325   2.521   4.819   3.609
    3OL    C11514326   2.597   4.773   3.805
    3OL    H15R14327   2.561   4.673   3.830
    3OL    H15S14328   2.602   4.824   3.902
    3OL    C11614329   2.743   4.759   3.760
    3OL    H16R14330   2.764   4.865   3.745
    3OL    H16S14331   2.747   4.698   3.669
    3OL    C11714332   2.823   4.707   3.880
    3OL    H17R14333   2.775   4.616   3.917
    3OL    H17S14334   2.815   4.788   3.953
    3OL    C11814335   2.969   4.682   3.842
    3OL    H18R14336   3.017   4.626   3.923
    3OL    H18S14337   3.031   4.764   3.806
    3OL    H18T14338   2.986   4.617   3.756
    1PA    C11614339   2.035   0.665   3.670
    1PA    H16R14340   2.013   0.697   3.772
    1PA    H16S14341   2.123   0.603   3.651
    1PA    H16T14342   1.944   0.613   3.638
    1PA    C11514343   2.042   0.798   3.593
    1PA    H15R14344   1.956   0.855   3.626
    1PA    H15S14345   2.126   0.860   3.624
    1PA    C11414346   2.038   0.766   3.443
    1PA    H14R14347   2.084   0.670   3.421
    1PA    H14S14348   1.933   0.747   3.423
    1PA    C11314349   2.098   0.871   3.347
    1PA    H13R14350   2.056   0.971   3.355
    1PA    H13S14351   2.205   0.880   3.366
    1PA    C11214352   2.095   0.831   3.199
    1PA    H12R14353   2.184   0.772   3.177
    1PA    H12S14354   2.001   0.785   3.168
    1PA    C11114355   2.125   0.949   3.105
    1PA    H11R14356   2.048   1.025   3.120
    1PA    H11S14357   2.222   0.997   3.123
    1PA    C11014358   2.125   0.918   2.955
    1PA    H10R14359   2.190   0.833   2.933
    1PA    H10S14360   2.025   0.898   2.918
    1PA     C1914361   2.171   1.046   2.882
    1PA     H9R14362   2.105   1.125   2.918
    1PA     H9S14363   2.276   1.065   2.905
    1PA     C1814364   2.151   1.037   2.730
    1PA     H8R14365   2.206   1.118   2.682
    1PA     H8S14366   2.190   0.940   2.698
    1PA     C1714367   2.002   1.056   2.698
    1PA     H7R14368   1.932   0.995   2.756
    1PA     H7S14369   1.981   1.157   2.733
    1PA     C1614370   1.981   1.031   2.548
    1PA     H6R14371   2.026   0.935   2.521
    1PA     H6S14372   1.876   1.014   2.525
    1PA     C1514373   2.032   1.155   2.473
    1PA     H5R14374   1.954   1.230   2.478
    1PA     H5S14375   2.117   1.207   2.518
    1PA     C1414376   2.078   1.119   2.331
    1PA     H4R14377   2.010   1.057   2.271
    1PA     H4S14378   2.094   1.207   2.269
    1PA     C1314379   2.210   1.040   2.341
    1PA     H3R14380   2.271   1.080   2.422
    1PA     H3S14381   2.200   0.933   2.361
    1PA     C1214382   2.284   1.047   2.207
    1PA     H2R14383   2.292   1.153   2.182
    1PA     H2S14384   2.385   1.007   2.213
    2PC     C1114385   2.216   0.979   2.090
    2PC     O1214386   2.129   1.034   2.026
    2PC     O1114387   2.274   0.862   2.057
    2PC      C114388   2.246   0.804   1.928
    2PC      HR14389   2.140   0.792   1.908
    2PC      HS14390   2.280   0.881   1.858
    2PC      C214391   2.322   0.671   1.921
    2PC      HX14392   2.427   0.694   1.936
    2PC      C314393   2.309   0.614   1.779
    2PC      HA14394   2.365   0.693   1.728
    2PC      HB14395   2.353   0.514   1.768
    2PC     O3114396   2.175   0.607   1.728
    2PC     P3114397   2.161   0.529   1.589
    2PC     O3214398   2.163   0.376   1.638
    2PC     C3114399   2.169   0.282   1.529
    2PC     H1A14400   2.084   0.305   1.464
    2PC     H1B14401   2.260   0.306   1.473
    2PC     C3214402   2.159   0.135   1.572
    2PC     H2A14403   2.053   0.120   1.592
    2PC     H2B14404   2.189   0.069   1.491
    2PC     N3114405   2.233   0.081   1.690
    2PC     C3314406   2.172   0.138   1.815
    2PC     H3A14407   2.074   0.092   1.827
    2PC     H3B14408   2.236   0.109   1.899
    2PC     H3C14409   2.166   0.246   1.800
    2PC     C3414410   2.221   6.421   1.681
    2PC     H4A14411   2.117   6.398   1.657
    2PC     H4B14412   2.288   6.389   1.601
    2PC     H4C14413   2.266   6.378   1.771
    2PC     C3514414   2.380   0.113   1.681
    2PC     H5A14415   2.403   0.086   1.578
    2PC     H5B14416   2.432   0.057   1.759
    2PC     H5C14417   2.398   0.218   1.704
    2PC     O3314418   2.028   0.576   1.546
    2PC     O3414419   2.277   0.564   1.503
    2PC     O2114420   2.275   0.589   2.030
    2PC     C2114421   2.346   0.479   2.057
    2PC     O2214422   2.438   0.436   1.991
    3OL     C1214423   2.317   0.419   2.192
    3OL     H2R14424   2.275   0.493   2.260
    3OL     H2S14425   2.412   0.383   2.233
    3OL     C1314426   2.213   0.309   2.170
    3OL     H3R14427   2.251   0.250   2.086
    3OL     H3S14428   2.114   0.347   2.144
    3OL     C1414429   2.191   0.221   2.294
    3OL     H4R14430   2.105   0.155   2.276
    3OL     H4S14431   2.168   0.276   2.385
    3OL     C1514432   2.322   0.147   2.325
    3OL     H5R14433   2.399   0.215   2.361
    3OL     H5S14434   2.344   0.108   2.225
    3OL     C1614435   2.298   0.035   2.427
    3OL     H6R14436   2.243   6.442   2.380
    3OL     H6S14437   2.271   0.072   2.527
    3OL     C1714438   2.432   6.453   2.451
    3OL     H7R14439   2.514   0.032   2.477
    3OL     H7S14440   2.462   6.414   2.354
    3OL     C1814441   2.427   6.334   2.548
    3OL     H8R14442   2.515   6.272   2.532
    3OL     H8S14443   2.339   6.272   2.528
    3OL     C1914444   2.437   6.380   2.691
    3OL     H9R14445   2.521   6.448   2.706
    3OL    C11014446   2.358   6.350   2.793
    3OL    H10R14447   2.377   6.400   2.888
    3OL    C11114448   2.226   6.278   2.784
    3OL    H11R14449   2.250   6.189   2.726
    3OL    H11S14450   2.150   6.338   2.735
    3OL    C11214451   2.185   6.246   2.929
    3OL    H12R14452   2.197   6.337   2.988
    3OL    H12S14453   2.268   6.188   2.968
    3OL    C11314454   2.040   6.196   2.943
    3OL    H13R14455   2.030   6.097   2.898
    3OL    H13S14456   1.970   6.255   2.885
    3OL    C11414457   1.980   6.203   3.084
    3OL    H14R14458   1.973   6.308   3.114
    3OL    H14S14459   2.048   6.150   3.152
    3OL    C11514460   1.842   6.140   3.108
    3OL    H15R14461   1.854   6.037   3.072
    3OL    H15S14462   1.767   6.190   3.046
    3OL    C11614463   1.792   6.134   3.253
    3OL    H16R14464   1.795   6.234   3.296
    3OL    H16S14465   1.861   6.078   3.317
    3OL    C11714466   1.651   6.074   3.261
    3OL    H17R14467   1.663   5.971   3.228
    3OL    H17S14468   1.591   6.130   3.189
    3OL    C11814469   1.600   6.065   3.406
    3OL    H18R14470   1.495   6.041   3.387
    3OL    H18S14471   1.618   6.158   3.460
    3OL    H18T14472   1.643   5.987   3.469
    1PA    C11614473   5.042   6.415   3.526
    1PA    H16R14474   5.116   6.341   3.496
    1PA    H16S14475   5.053   6.440   3.631
    1PA    H16T14476   5.080   0.013   3.471
    1PA    C11514477   4.901   6.375   3.480
    1PA    H15R14478   4.858   6.308   3.554
    1PA    H15S14479   4.851   6.472   3.468
    1PA    C11414480   4.906   6.306   3.343
    1PA    H14R14481   4.951   6.372   3.268
    1PA    H14S14482   4.965   6.214   3.343
    1PA    C11314483   4.768   6.268   3.287
    1PA    H13R14484   4.739   6.184   3.350
    1PA    H13S14485   4.694   6.345   3.307
    1PA    C11214486   4.766   6.231   3.139
    1PA    H12R14487   4.846   6.161   3.116
    1PA    H12S14488   4.675   6.171   3.128
    1PA    C11114489   4.757   6.352   3.045
    1PA    H11R14490   4.656   6.393   3.051
    1PA    H11S14491   4.826   6.429   3.079
    1PA    C11014492   4.786   6.313   2.899
    1PA    H10R14493   4.883   6.263   2.896
    1PA    H10S14494   4.707   6.244   2.868
    1PA     C1914495   4.782   6.437   2.809
    1PA     H9R14496   4.692   0.007   2.828
    1PA     H9S14497   4.863   0.018   2.832
    1PA     C1814498   4.794   6.389   2.663
    1PA     H8R14499   4.826   6.478   2.608
    1PA     H8S14500   4.877   6.319   2.649
    1PA     C1714501   4.662   6.342   2.602
    1PA     H7R14502   4.685   6.298   2.505
    1PA     H7S14503   4.616   6.262   2.660
    1PA     C1614504   4.549   6.446   2.595
    1PA     H6R14505   4.508   6.484   2.689
    1PA     H6S14506   4.578   0.056   2.558
    1PA     C1514507   4.445   6.394   2.494
    1PA     H5R14508   4.496   6.351   2.408
    1PA     H5S14509   4.383   6.319   2.544
    1PA     C1414510   4.355   0.024   2.454
    1PA     H4R14511   4.333   0.084   2.543
    1PA     H4S14512   4.394   0.102   2.389
    1PA     C1314513   4.231   6.452   2.387
    1PA     H3R14514   4.261   6.408   2.292
    1PA     H3S14515   4.184   6.378   2.452
    1PA     C1214516   4.129   0.076   2.361
    1PA     H2R14517   4.029   0.033   2.351
    1PA     H2S14518   4.126   0.154   2.437
    2PC     C1114519   4.167   0.150   2.236
    2PC     O1214520   4.144   0.103   2.126
    2PC     O1114521   4.224   0.271   2.245
    2PC      C114522   4.207   0.372   2.143
    2PC      HR14523   4.266   0.460   2.168
    2PC      HS14524   4.251   0.324   2.056
    2PC      C214525   4.061   0.418   2.128
    2PC      HX14526   4.009   0.344   2.067
    2PC      C314527   4.053   0.547   2.045
    2PC      HA14528   4.088   0.635   2.100
    2PC      HB14529   4.115   0.543   1.956
    2PC     O3114530   3.911   0.561   2.023
    2PC     P3114531   3.857   0.674   1.922
    2PC     O3214532   3.776   0.582   1.818
    2PC     C3114533   3.790   0.611   1.678
    2PC     H1A14534   3.895   0.642   1.669
    2PC     H1B14535   3.776   0.516   1.625
    2PC     C3214536   3.692   0.725   1.650
    2PC     H2A14537   3.589   0.701   1.675
    2PC     H2B14538   3.720   0.815   1.706
    2PC     N3114539   3.696   0.783   1.512
    2PC     C3314540   3.636   0.701   1.401
    2PC     H3A14541   3.678   0.601   1.405
    2PC     H3B14542   3.529   0.708   1.424
    2PC     H3C14543   3.643   0.743   1.301
    2PC     C3414544   3.617   0.910   1.505
    2PC     H4A14545   3.641   0.952   1.602
    2PC     H4B14546   3.659   0.974   1.427
    2PC     H4C14547   3.514   0.880   1.486
    2PC     C3514548   3.840   0.815   1.482
    2PC     H5A14549   3.845   0.877   1.393
    2PC     H5B14550   3.890   0.722   1.455
    2PC     H5C14551   3.885   0.855   1.573
    2PC     O3314552   3.767   0.763   1.999
    2PC     O3414553   3.963   0.757   1.862
    2PC     O2114554   4.011   0.449   2.260
    2PC     C2114555   3.914   0.368   2.306
    2PC     O2214556   3.866   0.277   2.241
    3OL     C1214557   3.882   0.397   2.450
    3OL     H2R14558   3.817   0.484   2.459
    3OL     H2S14559   3.978   0.434   2.487
    3OL     C1314560   3.839   0.274   2.531
    3OL     H3R14561   3.911   0.194   2.516
    3OL     H3S14562   3.743   0.224   2.515
    3OL     C1414563   3.845   0.312   2.680
    3OL     H4R14564   3.934   0.371   2.699
    3OL     H4S14565   3.856   0.225   2.746
    3OL     C1514566   3.726   0.394   2.731
    3OL     H5R14567   3.631   0.340   2.738
    3OL     H5S14568   3.701   0.481   2.669
    3OL     C1614569   3.761   0.453   2.868
    3OL     H6R14570   3.714   0.551   2.874
    3OL     H6S14571   3.867   0.459   2.894
    3OL     C1714572   3.696   0.371   2.980
    3OL     H7R14573   3.749   0.275   2.982
    3OL     H7S14574   3.590   0.349   2.963
    3OL     C1814575   3.722   0.447   3.111
    3OL     H8R14576   3.656   0.534   3.111
    3OL     H8S14577   3.824   0.485   3.106
    3OL     C1914578   3.692   0.363   3.233
    3OL     H9R14579   3.586   0.358   3.258
    3OL    C11014580   3.778   0.321   3.324
    3OL    H10R14581   3.734   0.265   3.407
    3OL    C11114582   3.927   0.306   3.312
    3OL    H11R14583   3.980   0.390   3.358
    3OL    H11S14584   3.959   0.306   3.207
    3OL    C11214585   3.968   0.176   3.382
    3OL    H12R14586   3.938   0.177   3.487
    3OL    H12S14587   4.075   0.168   3.406
    3OL    C11314588   3.915   0.046   3.319
    3OL    H13R14589   3.806   0.057   3.315
    3OL    H13S14590   3.934   6.443   3.374
    3OL    C11414591   3.967   0.012   3.179
    3OL    H14R14592   4.076   6.487   3.182
    3OL    H14S14593   3.957   0.099   3.114
    3OL    C11514594   3.907   6.373   3.118
    3OL    H15R14595   3.891   6.305   3.201
    3OL    H15S14596   3.976   6.317   3.055
    3OL    C11614597   3.781   6.424   3.046
    3OL    H16R14598   3.818   6.479   2.959
    3OL    H16S14599   3.734   0.005   3.115
    3OL    C11714600   3.673   6.318   3.019
    3OL    H17R14601   3.618   6.282   3.106
    3OL    H17S14602   3.717   6.226   2.980
    3OL    C11814603   3.583   6.386   2.915
    3OL    H18R14604   3.483   6.341   2.913
    3OL    H18S14605   3.635   6.378   2.819
    3OL    H18T14606   3.576   0.003   2.941
    1PA    C11614607   0.305   5.582   3.895
    1PA    H16R14608   0.372   5.624   3.970
    1PA    H16S14609   0.211   5.637   3.901
    1PA    H16T14610   0.347   5.613   3.799
    1PA    C11514611   0.294   5.429   3.900
    1PA    H15R14612   0.387   5.384   3.866
    1PA    H15S14613   0.288   5.402   4.006
    1PA    C11414614   0.176   5.373   3.820
    1PA    H14R14615   0.171   5.267   3.848
    1PA    H14S14616   0.079   5.413   3.852
    1PA    C11314617   0.192   5.373   3.668
    1PA    H13R14618   0.097   5.335   3.631
    1PA    H13S14619   0.207   5.476   3.634
    1PA    C11214620   0.299   5.286   3.599
    1PA    H12R14621   0.386   5.302   3.664
    1PA    H12S14622   0.270   5.181   3.605
    1PA    C11114623   0.327   5.314   3.451
    1PA    H11R14624   0.385   5.407   3.447
    1PA    H11S14625   0.407   5.247   3.419
    1PA    C11014626   0.211   5.303   3.351
    1PA    H10R14627   0.166   5.203   3.360
    1PA    H10S14628   0.139   5.380   3.378
    1PA     C1914629   0.258   5.322   3.206
    1PA     H9R14630   0.316   5.413   3.187
    1PA     H9S14631   0.323   5.240   3.174
    1PA     C1814632   0.136   5.311   3.113
    1PA     H8R14633   0.170   5.307   3.010
    1PA     H8S14634   0.075   5.224   3.139
    1PA     C1714635   0.042   5.430   3.131
    1PA     H7R14636   6.474   5.421   3.224
    1PA     H7S14637   0.100   5.522   3.126
    1PA     C1614638   6.434   5.436   3.011
    1PA     H6R14639   6.415   5.336   2.973
    1PA     H6S14640   6.339   5.484   3.032
    1PA     C1514641   0.019   5.513   2.900
    1PA     H5R14642   0.035   5.614   2.937
    1PA     H5S14643   0.107   5.453   2.877
    1PA     C1414644   6.426   5.520   2.770
    1PA     H4R14645   0.004   5.561   2.694
    1PA     H4S14646   6.383   5.426   2.737
    1PA     C1314647   6.318   5.630   2.774
    1PA     H3R14648   6.260   5.612   2.865
    1PA     H3S14649   6.353   5.733   2.791
    1PA     C1214650   6.229   5.621   2.650
    1PA     H2R14651   6.214   5.517   2.621
    1PA     H2S14652   6.130   5.664   2.666
    2PC     C1114653   6.283   5.689   2.526
    2PC     O1214654   6.233   5.673   2.417
    2PC     O1114655   6.377   5.784   2.547
    2PC      C114656   6.432   5.859   2.438
    2PC      HR14657   6.483   5.795   2.366
    2PC      HS14658   6.355   5.917   2.386
    2PC      C214659   0.049   5.956   2.493
    2PC      HX14660   0.016   6.029   2.568
    2PC      C314661   0.117   6.032   2.379
    2PC      HA14662   0.053   6.114   2.345
    2PC      HB14663   0.205   6.085   2.417
    2PC     O3114664   0.153   5.940   2.274
    2PC     P3114665   0.180   6.001   2.129
    2PC     O3214666   0.259   5.875   2.071
    2PC     C3114667   0.275   5.856   1.929
    2PC     H1A14668   0.365   5.795   1.917
    2PC     H1B14669   0.189   5.802   1.887
    2PC     C3214670   0.294   5.987   1.851
    2PC     H2A14671   0.202   6.042   1.835
    2PC     H2B14672   0.352   6.051   1.918
    2PC     N3114673   0.363   5.991   1.718
    2PC     C3314674   0.509   5.962   1.737
    2PC     H3A14675   0.559   5.952   1.640
    2PC     H3B14676   0.544   6.046   1.797
    2PC     H3C14677   0.520   5.866   1.788
    2PC     C3414678   0.298   5.890   1.628
    2PC     H4A14679   0.322   5.794   1.673
    2PC     H4B14680   0.191   5.912   1.621
    2PC     H4C14681   0.341   5.904   1.529
    2PC     C3514682   0.349   6.130   1.663
    2PC     H5A14683   0.244   6.160   1.656
    2PC     H5B14684   0.390   6.123   1.563
    2PC     H5C14685   0.400   6.196   1.733
    2PC     O3314686   0.048   6.014   2.062
    2PC     O3414687   0.261   6.124   2.142
    2PC     O2114688   0.142   5.872   2.564
    2PC     C2114689   0.230   5.933   2.645
    2PC     O2214690   0.225   6.052   2.668
    3OL     C1214691   0.332   5.837   2.703
    3OL     H2R14692   0.430   5.886   2.705
    3OL     H2S14693   0.322   5.743   2.648
    3OL     C1314694   0.290   5.797   2.845
    3OL     H3R14695   0.203   5.732   2.842
    3OL     H3S14696   0.251   5.878   2.907
    3OL     C1414697   0.402   5.718   2.915
    3OL     H4R14698   0.380   5.705   3.021
    3OL     H4S14699   0.494   5.776   2.907
    3OL     C1514700   0.420   5.579   2.854
    3OL     H5R14701   0.440   5.577   2.747
    3OL     H5S14702   0.330   5.518   2.864
    3OL     C1614703   0.526   5.496   2.929
    3OL     H6R14704   0.497   5.477   3.032
    3OL     H6S14705   0.620   5.549   2.944
    3OL     C1714706   0.553   5.361   2.861
    3OL     H7R14707   0.580   5.376   2.756
    3OL     H7S14708   0.459   5.306   2.858
    3OL     C1814709   0.668   5.287   2.932
    3OL     H8R14710   0.681   5.324   3.034
    3OL     H8S14711   0.756   5.319   2.877
    3OL     C1914712   0.651   5.137   2.934
    3OL     H9R14713   0.645   5.089   2.837
    3OL    C11014714   0.659   5.061   3.042
    3OL    H10R14715   0.643   4.954   3.031
    3OL    C11114716   0.664   5.108   3.185
    3OL    H11R14717   0.624   5.026   3.246
    3OL    H11S14718   0.614   5.204   3.194
    3OL    C11214719   0.809   5.124   3.235
    3OL    H12R14720   0.873   5.167   3.158
    3OL    H12S14721   0.855   5.030   3.266
    3OL    C11314722   0.820   5.223   3.351
    3OL    H13R14723   0.742   5.202   3.425
    3OL    H13S14724   0.811   5.322   3.306
    3OL    C11414725   0.962   5.205   3.408
    3OL    H14R14726   1.042   5.179   3.340
    3OL    H14S14727   0.968   5.116   3.471
    3OL    C11514728   1.001   5.319   3.504
    3OL    H15R14729   1.016   5.412   3.448
    3OL    H15S14730   1.097   5.300   3.553
    3OL    C11614731   0.899   5.339   3.617
    3OL    H16R14732   0.799   5.349   3.574
    3OL    H16S14733   0.931   5.437   3.653
    3OL    C11714734   0.888   5.223   3.717
    3OL    H17R14735   0.985   5.177   3.736
    3OL    H17S14736   0.836   5.141   3.668
    3OL    C11814737   0.811   5.260   3.845
    3OL    H18R14738   0.805   5.181   3.920
    3OL    H18S14739   0.709   5.291   3.822
    3OL    H18T14740   0.861   5.345   3.891
    1PA    C11614741   5.937   5.102   3.633
    1PA    H16R14742   5.917   5.003   3.673
    1PA    H16S14743   5.905   5.171   3.712
    1PA    H16T14744   6.040   5.111   3.599
    1PA    C11514745   5.847   5.143   3.516
    1PA    H15R14746   5.747   5.175   3.545
    1PA    H15S14747   5.888   5.220   3.450
    1PA    C11414748   5.825   5.020   3.428
    1PA    H14R14749   5.915   4.996   3.371
    1PA    H14S14750   5.815   4.926   3.482
    1PA    C11314751   5.708   5.028   3.328
    1PA    H13R14752   5.699   4.935   3.271
    1PA    H13S14753   5.610   5.042   3.374
    1PA    C11214754   5.717   5.142   3.225
    1PA    H12R14755   5.825   5.146   3.208
    1PA    H12S14756   5.658   5.114   3.138
    1PA    C11114757   5.671   5.281   3.271
    1PA    H11R14758   5.736   5.314   3.352
    1PA    H11S14759   5.699   5.353   3.194
    1PA    C11014760   5.524   5.294   3.313
    1PA    H10R14761   5.502   5.211   3.380
    1PA    H10S14762   5.513   5.385   3.372
    1PA     C1914763   5.430   5.294   3.191
    1PA     H9R14764   5.424   5.193   3.150
    1PA     H9S14765   5.331   5.315   3.232
    1PA     C1814766   5.456   5.391   3.075
    1PA     H8R14767   5.460   5.494   3.111
    1PA     H8S14768   5.554   5.381   3.028
    1PA     C1714769   5.345   5.374   2.971
    1PA     H7R14770   5.361   5.270   2.940
    1PA     H7S14771   5.249   5.389   3.021
    1PA     C1614772   5.359   5.479   2.860
    1PA     H6R14773   5.355   5.584   2.892
    1PA     H6S14774   5.451   5.463   2.803
    1PA     C1514775   5.237   5.461   2.769
    1PA     H5R14776   5.219   5.356   2.746
    1PA     H5S14777   5.154   5.505   2.826
    1PA     C1414778   5.258   5.534   2.635
    1PA     H4R14779   5.271   5.642   2.646
    1PA     H4S14780   5.339   5.487   2.579
    1PA     C1314781   5.135   5.518   2.545
    1PA     H3R14782   5.125   5.412   2.520
    1PA     H3S14783   5.043   5.542   2.598
    1PA     C1214784   5.154   5.593   2.412
    1PA     H2R14785   5.163   5.701   2.418
    1PA     H2S14786   5.241   5.547   2.366
    2PC     C1114787   5.040   5.557   2.320
    2PC     O1214788   4.956   5.474   2.348
    2PC     O1114789   5.037   5.625   2.204
    2PC      C114790   4.961   5.592   2.087
    2PC      HR14791   5.017   5.644   2.009
    2PC      HS14792   4.971   5.484   2.068
    2PC      C214793   4.812   5.627   2.097
    2PC      HX14794   4.762   5.566   2.173
    2PC      C314795   4.753   5.593   1.960
    2PC      HA14796   4.752   5.484   1.949
    2PC      HB14797   4.653   5.636   1.951
    2PC     O3114798   4.836   5.627   1.848
    2PC     P3114799   4.784   5.567   1.708
    2PC     O3214800   4.675   5.679   1.671
    2PC     C3114801   4.660   5.721   1.534
    2PC     H1A14802   4.727   5.805   1.513
    2PC     H1B14803   4.682   5.638   1.467
    2PC     C3214804   4.519   5.772   1.504
    2PC     H2A14805   4.514   5.877   1.532
    2PC     H2B14806   4.513   5.761   1.396
    2PC     N3114807   4.400   5.701   1.563
    2PC     C3314808   4.277   5.768   1.509
    2PC     H3A14809   4.259   5.756   1.402
    2PC     H3B14810   4.192   5.727   1.563
    2PC     H3C14811   4.280   5.875   1.531
    2PC     C3414812   4.409   5.558   1.518
    2PC     H4A14813   4.509   5.516   1.531
    2PC     H4B14814   4.338   5.504   1.580
    2PC     H4C14815   4.382   5.555   1.412
    2PC     C3514816   4.385   5.707   1.712
    2PC     H5A14817   4.387   5.810   1.746
    2PC     H5B14818   4.475   5.656   1.745
    2PC     H5C14819   4.293   5.665   1.755
    2PC     O3314820   4.897   5.559   1.612
    2PC     O3414821   4.724   5.432   1.698
    2PC     O2114822   4.797   5.768   2.123
    2PC     C2114823   4.775   5.814   2.247
    2PC     O2214824   4.750   5.739   2.340
    3OL     C1214825   4.781   5.964   2.264
    3OL     H2R14826   4.682   6.005   2.282
    3OL     H2S14827   4.806   6.008   2.168
    3OL     C1314828   4.879   5.995   2.379
    3OL     H3R14829   4.912   6.099   2.373
    3OL     H3S14830   4.961   5.924   2.382
    3OL     C1414831   4.812   5.994   2.517
    3OL     H4R14832   4.757   5.901   2.531
    3OL     H4S14833   4.751   6.083   2.534
    3OL     C1514834   4.924   6.007   2.622
    3OL     H5R14835   4.966   6.107   2.607
    3OL     H5S14836   5.006   5.941   2.593
    3OL     C1614837   4.882   5.984   2.768
    3OL     H6R14838   4.845   5.884   2.791
    3OL     H6S14839   4.801   6.054   2.788
    3OL     C1714840   5.003   6.013   2.858
    3OL     H7R14841   4.966   6.039   2.958
    3OL     H7S14842   5.047   6.104   2.815
    3OL     C1814843   5.106   5.900   2.851
    3OL     H8R14844   5.181   5.924   2.927
    3OL     H8S14845   5.157   5.901   2.755
    3OL     C1914846   5.045   5.766   2.884
    3OL     H9R14847   4.988   5.721   2.804
    3OL    C11014848   5.056   5.701   2.999
    3OL    H10R14849   5.004   5.609   3.025
    3OL    C11114850   5.140   5.743   3.118
    3OL    H11R14851   5.217   5.815   3.092
    3OL    H11S14852   5.196   5.658   3.157
    3OL    C11214853   5.049   5.802   3.227
    3OL    H12R14854   4.978   5.732   3.272
    3OL    H12S14855   4.982   5.877   3.185
    3OL    C11314856   5.141   5.860   3.335
    3OL    H13R14857   5.213   5.934   3.298
    3OL    H13S14858   5.193   5.768   3.363
    3OL    C11414859   5.059   5.908   3.455
    3OL    H14R14860   4.976   5.839   3.471
    3OL    H14S14861   5.004   5.998   3.427
    3OL    C11514862   5.136   5.937   3.585
    3OL    H15R14863   5.221   6.004   3.570
    3OL    H15S14864   5.180   5.845   3.623
    3OL    C11614865   5.044   6.016   3.679
    3OL    H16R14866   4.952   5.966   3.709
    3OL    H16S14867   5.007   6.098   3.619
    3OL    C11714868   5.138   6.061   3.792
    3OL    H17R14869   5.232   6.093   3.748
    3OL    H17S14870   5.165   5.985   3.866
    3OL    C11814871   5.083   6.182   3.869
    3OL    H18R14872   5.014   6.151   3.947
    3OL    H18S14873   5.037   6.261   3.809
    3OL    H18T14874   5.172   6.225   3.915
    1PA    C11614875   1.859   5.849   3.805
    1PA    H16R14876   1.869   5.955   3.826
    1PA    H16S14877   1.881   5.794   3.898
    1PA    H16T14878   1.755   5.826   3.782
    1PA    C11514879   1.944   5.801   3.687
    1PA    H15R14880   2.045   5.839   3.699
    1PA    H15S14881   1.948   5.692   3.684
    1PA    C11414882   1.887   5.859   3.556
    1PA    H14R14883   1.780   5.843   3.564
    1PA    H14S14884   1.911   5.966   3.556
    1PA    C11314885   1.945   5.783   3.436
    1PA    H13R14886   1.943   5.677   3.463
    1PA    H13S14887   1.871   5.785   3.356
    1PA    C11214888   2.081   5.838   3.390
    1PA    H12R14889   2.080   5.947   3.381
    1PA    H12S14890   2.144   5.832   3.479
    1PA    C11114891   2.137   5.772   3.264
    1PA    H11R14892   2.243   5.794   3.255
    1PA    H11S14893   2.129   5.665   3.283
    1PA    C11014894   2.069   5.815   3.133
    1PA    H10R14895   1.961   5.810   3.139
    1PA    H10S14896   2.090   5.922   3.121
    1PA     C1914897   2.124   5.730   3.017
    1PA     H9R14898   2.073   5.635   3.032
    1PA     H9S14899   2.231   5.710   3.019
    1PA     C1814900   2.096   5.793   2.880
    1PA     H8R14901   1.991   5.818   2.868
    1PA     H8S14902   2.141   5.893   2.878
    1PA     C1714903   2.140   5.695   2.771
    1PA     H7R14904   2.241   5.656   2.790
    1PA     H7S14905   2.068   5.613   2.769
    1PA     C1614906   2.129   5.758   2.631
    1PA     H6R14907   2.025   5.788   2.611
    1PA     H6S14908   2.181   5.854   2.631
    1PA     C1514909   2.166   5.668   2.513
    1PA     H5R14910   2.105   5.577   2.521
    1PA     H5S14911   2.134   5.730   2.429
    1PA     C1414912   2.316   5.639   2.496
    1PA     H4R14913   2.357   5.732   2.456
    1PA     H4S14914   2.365   5.616   2.591
    1PA     C1314915   2.349   5.541   2.383
    1PA     H3R14916   2.285   5.560   2.296
    1PA     H3S14917   2.452   5.559   2.355
    1PA     C1214918   2.323   5.395   2.424
    1PA     H2R14919   2.398   5.363   2.496
    1PA     H2S14920   2.218   5.389   2.451
    2PC     C1114921   2.346   5.303   2.306
    2PC     O1214922   2.400   5.333   2.202
    2PC     O1114923   2.286   5.185   2.330
    2PC      C114924   2.269   5.101   2.215
    2PC      HR14925   2.187   5.034   2.241
    2PC      HS14926   2.239   5.169   2.135
    2PC      C214927   2.400   5.031   2.177
    2PC      HX14928   2.482   5.103   2.171
    2PC      C314929   2.390   4.959   2.041
    2PC      HA14930   2.354   4.857   2.056
    2PC      HB14931   2.327   5.010   1.968
    2PC     O3114932   2.519   4.961   1.977
    2PC     P3114933   2.523   4.924   1.821
    2PC     O3214934   2.682   4.923   1.804
    2PC     C3114935   2.735   4.920   1.670
    2PC     H1A14936   2.702   4.828   1.620
    2PC     H1B14937   2.701   5.011   1.619
    2PC     C3214938   2.888   4.914   1.658
    2PC     H2A14939   2.932   5.012   1.671
    2PC     H2B14940   2.926   4.846   1.734
    2PC     N3114941   2.938   4.870   1.524
    2PC     C3314942   2.854   4.913   1.407
    2PC     H3A14943   2.845   5.022   1.411
    2PC     H3B14944   2.908   4.890   1.315
    2PC     H3C14945   2.753   4.871   1.408
    2PC     C3414946   3.074   4.931   1.511
    2PC     H4A14947   3.070   5.034   1.474
    2PC     H4B14948   3.139   4.931   1.599
    2PC     H4C14949   3.124   4.872   1.433
    2PC     C3514950   2.951   4.721   1.520
    2PC     H5A14951   2.921   4.676   1.425
    2PC     H5B14952   2.875   4.684   1.589
    2PC     H5C14953   3.047   4.676   1.549
    2PC     O3314954   2.451   4.796   1.799
    2PC     O3414955   2.460   5.032   1.741
    2PC     O2114956   2.416   4.926   2.274
    2PC     C2114957   2.468   4.958   2.394
    2PC     O2214958   2.532   5.059   2.413
    3OL     C1214959   2.448   4.848   2.496
    3OL     H2R14960   2.496   4.754   2.468
    3OL     H2S14961   2.341   4.826   2.496
    3OL     C1314962   2.481   4.889   2.640
    3OL     H3R14963   2.588   4.914   2.643
    3OL     H3S14964   2.449   4.808   2.706
    3OL     C1414965   2.399   5.013   2.679
    3OL     H4R14966   2.292   4.991   2.673
    3OL     H4S14967   2.420   5.089   2.604
    3OL     C1514968   2.435   5.061   2.820
    3OL     H5R14969   2.544   5.062   2.820
    3OL     H5S14970   2.412   4.987   2.897
    3OL     C1614971   2.393   5.206   2.848
    3OL     H6R14972   2.286   5.206   2.827
    3OL     H6S14973   2.445   5.276   2.783
    3OL     C1714974   2.416   5.262   2.990
    3OL     H7R14975   2.364   5.205   3.067
    3OL     H7S14976   2.373   5.363   2.995
    3OL     C1814977   2.566   5.266   3.018
    3OL     H8R14978   2.597   5.352   2.959
    3OL     H8S14979   2.618   5.182   2.971
    3OL     C1914980   2.624   5.266   3.158
    3OL     H9R14981   2.689   5.186   3.192
    3OL    C11014982   2.571   5.341   3.253
    3OL    H10R14983   2.611   5.322   3.352
    3OL    C11114984   2.474   5.456   3.235
    3OL    H11R14985   2.369   5.425   3.229
    3OL    H11S14986   2.487   5.502   3.137
    3OL    C11214987   2.486   5.565   3.342
    3OL    H12R14988   2.469   5.525   3.442
    3OL    H12S14989   2.411   5.643   3.335
    3OL    C11314990   2.627   5.623   3.324
    3OL    H13R14991   2.628   5.678   3.230
    3OL    H13S14992   2.709   5.552   3.319
    3OL    C11414993   2.659   5.731   3.428
    3OL    H14R14994   2.651   5.677   3.523
    3OL    H14S14995   2.582   5.808   3.427
    3OL    C11514996   2.798   5.793   3.406
    3OL    H15R14997   2.796   5.886   3.462
    3OL    H15S14998   2.823   5.827   3.306
    3OL    C11614999   2.910   5.706   3.467
    3OL    H16R15000   2.925   5.622   3.400
    3OL    H16S15001   2.876   5.663   3.561
    3OL    C11715002   3.041   5.786   3.473
    3OL    H17R15003   3.044   5.838   3.377
    3OL    H17S15004   3.123   5.715   3.485
    3OL    C11815005   3.032   5.891   3.585
    3OL    H18R15006   2.993   5.830   3.667
    3OL    H18S15007   2.969   5.971   3.546
    3OL    H18T15008   3.132   5.927   3.607
    1PA    C11615009   2.181   5.874   4.058
    1PA    H16R15010   2.075   5.846   4.058
    1PA    H16S15011   2.190   5.983   4.058
    1PA    H16T15012   2.228   5.824   4.143
    1PA    C11515013   2.233   5.809   3.929
    1PA    H15R15014   2.195   5.880   3.855
    1PA    H15S15015   2.342   5.802   3.925
    1PA    C11415016   2.175   5.669   3.907
    1PA    H14R15017   2.187   5.613   4.000
    1PA    H14S15018   2.068   5.673   3.890
    1PA    C11315019   2.238   5.587   3.793
    1PA    H13R15020   2.246   5.640   3.697
    1PA    H13S15021   2.339   5.562   3.825
    1PA    C11215022   2.162   5.454   3.783
    1PA    H12R15023   2.170   5.410   3.882
    1PA    H12S15024   2.054   5.461   3.766
    1PA    C11115025   2.230   5.351   3.693
    1PA    H11R15026   2.339   5.357   3.682
    1PA    H11S15027   2.202   5.253   3.733
    1PA    C11015028   2.190   5.335   3.545
    1PA    H10R15029   2.253   5.400   3.485
    1PA    H10S15030   2.224   5.237   3.511
    1PA     C1915031   2.043   5.346   3.502
    1PA     H9R15032   1.973   5.276   3.549
    1PA     H9S15033   2.005   5.446   3.526
    1PA     C1815034   2.039   5.340   3.349
    1PA     H8R15035   2.124   5.398   3.312
    1PA     H8S15036   2.069   5.238   3.322
    1PA     C1715037   1.902   5.371   3.286
    1PA     H7R15038   1.841   5.281   3.299
    1PA     H7S15039   1.849   5.450   3.339
    1PA     C1615040   1.905   5.409   3.137
    1PA     H6R15041   1.992   5.471   3.114
    1PA     H6S15042   1.927   5.313   3.089
    1PA     C1515043   1.769   5.454   3.083
    1PA     H5R15044   1.704   5.367   3.068
    1PA     H5S15045   1.722   5.519   3.157
    1PA     C1415046   1.782   5.545   2.960
    1PA     H4R15047   1.689   5.603   2.964
    1PA     H4S15048   1.860   5.621   2.964
    1PA     C1315049   1.783   5.468   2.827
    1PA     H3R15050   1.878   5.417   2.812
    1PA     H3S15051   1.705   5.392   2.838
    1PA     C1215052   1.768   5.566   2.710
    1PA     H2R15053   1.670   5.613   2.724
    1PA     H2S15054   1.846   5.643   2.707
    2PC     C1115055   1.756   5.513   2.570
    2PC     O1215056   1.794   5.577   2.474
    2PC     O1115057   1.701   5.391   2.562
    2PC      C115058   1.701   5.315   2.439
    2PC      HR15059   1.628   5.234   2.448
    2PC      HS15060   1.669   5.378   2.356
    2PC      C215061   1.837   5.265   2.388
    2PC      HX15062   1.913   5.343   2.394
    2PC      C315063   1.834   5.207   2.246
    2PC      HA15064   1.841   5.286   2.171
    2PC      HB15065   1.918   5.137   2.240
    2PC     O3115066   1.720   5.121   2.237
    2PC     P3115067   1.681   5.050   2.098
    2PC     O3215068   1.557   4.953   2.133
    2PC     C3115069   1.459   4.922   2.033
    2PC     H1A15070   1.425   5.015   1.987
    2PC     H1B15071   1.505   4.877   1.944
    2PC     C3215072   1.347   4.827   2.077
    2PC     H2A15073   1.393   4.742   2.127
    2PC     H2B15074   1.287   4.883   2.149
    2PC     N3115075   1.249   4.783   1.972
    2PC     C3315076   1.159   4.680   2.034
    2PC     H3A15077   1.063   4.678   1.983
    2PC     H3B15078   1.204   4.580   2.040
    2PC     H3C15079   1.128   4.716   2.132
    2PC     C3415080   1.158   4.894   1.928
    2PC     H4A15081   1.203   4.953   1.848
    2PC     H4B15082   1.071   4.844   1.884
    2PC     H4C15083   1.130   4.953   2.015
    2PC     C3515084   1.315   4.722   1.853
    2PC     H5A15085   1.259   4.738   1.761
    2PC     H5B15086   1.324   4.615   1.873
    2PC     H5C15087   1.420   4.750   1.845
    2PC     O3315088   1.662   5.143   1.984
    2PC     O3415089   1.801   4.968   2.070
    2PC     O2115090   1.871   5.157   2.477
    2PC     C2115091   1.938   5.181   2.590
    2PC     O2215092   1.969   5.291   2.633
    3OL     C1215093   1.962   5.051   2.662
    3OL     H2R15094   2.059   5.018   2.624
    3OL     H2S15095   1.885   4.977   2.635
    3OL     C1315096   1.972   5.080   2.812
    3OL     H3R15097   1.875   5.096   2.859
    3OL     H3S15098   2.033   5.171   2.818
    3OL     C1415099   2.049   4.966   2.881
    3OL     H4R15100   2.144   4.945   2.830
    3OL     H4S15101   1.994   4.873   2.872
    3OL     C1515102   2.073   4.987   3.031
    3OL     H5R15103   1.980   4.989   3.088
    3OL     H5S15104   2.113   5.088   3.043
    3OL     C1615105   2.171   4.881   3.082
    3OL     H6R15106   2.245   4.858   3.005
    3OL     H6S15107   2.110   4.791   3.095
    3OL     C1715108   2.230   4.925   3.217
    3OL     H7R15109   2.152   4.964   3.283
    3OL     H7S15110   2.294   5.011   3.197
    3OL     C1815111   2.320   4.825   3.291
    3OL     H8R15112   2.265   4.739   3.328
    3OL     H8S15113   2.372   4.871   3.376
    3OL     C1915114   2.426   4.773   3.196
    3OL     H9R15115   2.390   4.697   3.127
    3OL    C11015116   2.556   4.797   3.196
    3OL    H10R15117   2.620   4.751   3.121
    3OL    C11115118   2.633   4.893   3.283
    3OL    H11R15119   2.569   4.966   3.332
    3OL    H11S15120   2.699   4.942   3.212
    3OL    C11215121   2.725   4.818   3.381
    3OL    H12R15122   2.767   4.734   3.324
    3OL    H12S15123   2.665   4.771   3.458
    3OL    C11315124   2.844   4.902   3.430
    3OL    H13R15125   2.910   4.930   3.348
    3OL    H13S15126   2.903   4.854   3.509
    3OL    C11415127   2.786   5.031   3.490
    3OL    H14R15128   2.718   5.009   3.572
    3OL    H14S15129   2.730   5.082   3.411
    3OL    C11515130   2.894   5.121   3.553
    3OL    H15R15131   2.962   5.154   3.474
    3OL    H15S15132   2.953   5.056   3.617
    3OL    C11615133   2.833   5.238   3.632
    3OL    H16R15134   2.802   5.316   3.562
    3OL    H16S15135   2.918   5.287   3.681
    3OL    C11715136   2.729   5.205   3.739
    3OL    H17R15137   2.769   5.123   3.800
    3OL    H17S15138   2.633   5.169   3.700
    3OL    C11815139   2.692   5.331   3.818
    3OL    H18R15140   2.670   5.401   3.737
    3OL    H18S15141   2.771   5.375   3.879
    3OL    H18T15142   2.604   5.313   3.881
    1PA    C11615143   4.399   2.610   3.831
    1PA    H16R15144   4.477   2.590   3.757
    1PA    H16S15145   4.358   2.513   3.862
    1PA    H16T15146   4.437   2.664   3.917
    1PA    C11515147   4.288   2.690   3.761
    1PA    H15R15148   4.236   2.621   3.695
    1PA    H15S15149   4.219   2.718   3.841
    1PA    C11415150   4.350   2.810   3.687
    1PA    H14R15151   4.390   2.889   3.750
    1PA    H14S15152   4.430   2.775   3.621
    1PA    C11315153   4.244   2.872   3.594
    1PA    H13R15154   4.293   2.926   3.513
    1PA    H13S15155   4.192   2.789   3.545
    1PA    C11215156   4.147   2.966   3.665
    1PA    H12R15157   4.099   2.912   3.747
    1PA    H12S15158   4.198   3.055   3.703
    1PA    C11115159   4.028   3.009   3.578
    1PA    H11R15160   3.966   2.920   3.566
    1PA    H11S15161   3.970   3.083   3.634
    1PA    C11015162   4.082   3.060   3.443
    1PA    H10R15163   4.173   3.119   3.459
    1PA    H10S15164   4.103   2.970   3.385
    1PA     C1915165   3.975   3.146   3.375
    1PA     H9R15166   3.879   3.095   3.371
    1PA     H9S15167   3.959   3.238   3.433
    1PA     C1815168   4.027   3.195   3.239
    1PA     H8R15169   4.076   3.108   3.196
    1PA     H8S15170   3.938   3.221   3.180
    1PA     C1715171   4.119   3.315   3.264
    1PA     H7R15172   4.058   3.384   3.322
    1PA     H7S15173   4.202   3.290   3.330
    1PA     C1615174   4.185   3.384   3.144
    1PA     H6R15175   4.111   3.425   3.074
    1PA     H6S15176   4.241   3.472   3.175
    1PA     C1515177   4.284   3.293   3.070
    1PA     H5R15178   4.338   3.239   3.149
    1PA     H5S15179   4.228   3.218   3.014
    1PA     C1415180   4.381   3.361   2.972
    1PA     H4R15181   4.441   3.289   2.917
    1PA     H4S15182   4.317   3.409   2.897
    1PA     C1315183   4.476   3.466   3.031
    1PA     H3R15184   4.475   3.459   3.140
    1PA     H3S15185   4.573   3.437   2.990
    1PA     C1215186   4.435   3.609   2.995
    1PA     H2R15187   4.329   3.616   3.017
    1PA     H2S15188   4.502   3.671   3.054
    2PC     C1115189   4.452   3.636   2.847
    2PC     O1215190   4.381   3.717   2.792
    2PC     O1115191   4.550   3.569   2.784
    2PC      C115192   4.558   3.582   2.641
    2PC      HR15193   4.469   3.536   2.597
    2PC      HS15194   4.559   3.688   2.614
    2PC      C215195   4.683   3.505   2.596
    2PC      HX15196   4.771   3.534   2.653
    2PC      C315197   4.708   3.543   2.449
    2PC      HA15198   4.628   3.496   2.392
    2PC      HB15199   4.707   3.653   2.450
    2PC     O3115200   4.834   3.490   2.404
    2PC     P3115201   4.883   3.542   2.260
    2PC     O3215202   4.874   3.404   2.180
    2PC     C3115203   4.839   3.396   2.041
    2PC     H1A15204   4.739   3.438   2.026
    2PC     H1B15205   4.917   3.456   1.994
    2PC     C3215206   4.844   3.248   2.002
    2PC     H2A15207   4.944   3.215   2.032
    2PC     H2B15208   4.766   3.186   2.047
    2PC     N3115209   4.818   3.216   1.858
    2PC     C3315210   4.690   3.279   1.811
    2PC     H3A15211   4.614   3.245   1.882
    2PC     H3B15212   4.694   3.388   1.819
    2PC     H3C15213   4.665   3.246   1.710
    2PC     C3415214   4.925   3.265   1.765
    2PC     H4A15215   5.021   3.219   1.792
    2PC     H4B15216   4.899   3.260   1.660
    2PC     H4C15217   4.943   3.369   1.793
    2PC     C3515218   4.808   3.069   1.831
    2PC     H5A15219   4.718   3.023   1.870
    2PC     H5B15220   4.904   3.031   1.866
    2PC     H5C15221   4.798   3.050   1.724
    2PC     O3315222   4.806   3.652   2.197
    2PC     O3415223   5.018   3.603   2.265
    2PC     O2115224   4.669   3.362   2.600
    2PC     C2115225   4.758   3.279   2.657
    2PC     O2215226   4.865   3.312   2.705
    3OL     C1215227   4.704   3.139   2.666
    3OL     H2R15228   4.706   3.095   2.566
    3OL     H2S15229   4.597   3.136   2.687
    3OL     C1315230   4.777   3.041   2.758
    3OL     H3R15231   4.886   3.053   2.749
    3OL     H3S15232   4.762   2.940   2.719
    3OL     C1415233   4.718   3.054   2.899
    3OL     H4R15234   4.726   2.957   2.948
    3OL     H4S15235   4.609   3.044   2.898
    3OL     C1515236   4.774   3.174   2.977
    3OL     H5R15237   4.709   3.185   3.064
    3OL     H5S15238   4.755   3.267   2.924
    3OL     C1615239   4.921   3.149   3.013
    3OL     H6R15240   4.975   3.153   2.918
    3OL     H6S15241   4.945   3.057   3.066
    3OL     C1715242   4.972   3.258   3.109
    3OL     H7R15243   5.076   3.247   3.140
    3OL     H7S15244   4.923   3.256   3.206
    3OL     C1815245   4.966   3.404   3.063
    3OL     H8R15246   4.864   3.437   3.046
    3OL     H8S15247   5.005   3.421   2.963
    3OL     C1915248   5.057   3.483   3.154
    3OL     H9R15249   5.160   3.468   3.124
    3OL    C11015250   5.031   3.519   3.279
    3OL    H10R15251   5.104   3.572   3.340
    3OL    C11115252   4.892   3.518   3.336
    3OL    H11R15253   4.886   3.452   3.423
    3OL    H11S15254   4.812   3.492   3.265
    3OL    C11215255   4.853   3.653   3.396
    3OL    H12R15256   4.876   3.725   3.316
    3OL    H12S15257   4.915   3.684   3.480
    3OL    C11315258   4.705   3.645   3.436
    3OL    H13R15259   4.691   3.585   3.526
    3OL    H13S15260   4.648   3.594   3.358
    3OL    C11415261   4.647   3.785   3.462
    3OL    H14R15262   4.538   3.785   3.469
    3OL    H14S15263   4.670   3.848   3.377
    3OL    C11515264   4.712   3.850   3.586
    3OL    H15R15265   4.818   3.869   3.571
    3OL    H15S15266   4.694   3.779   3.667
    3OL    C11615267   4.639   3.981   3.618
    3OL    H16R15268   4.619   4.030   3.522
    3OL    H16S15269   4.710   4.040   3.675
    3OL    C11715270   4.511   3.959   3.699
    3OL    H17R15271   4.530   3.911   3.795
    3OL    H17S15272   4.442   3.897   3.640
    3OL    C11815273   4.440   4.094   3.720
    3OL    H18R15274   4.334   4.074   3.730
    3OL    H18S15275   4.453   4.159   3.633
    3OL    H18T15276   4.479   4.147   3.807
    1PA    C11615277   5.150   5.389   3.783
    1PA    H16R15278   5.059   5.391   3.845
    1PA    H16S15279   5.239   5.372   3.843
    1PA    H16T15280   5.133   5.304   3.717
    1PA    C11515281   5.167   5.511   3.692
    1PA    H15R15282   5.172   5.602   3.752
    1PA    H15S15283   5.265   5.507   3.643
    1PA    C11415284   5.076   5.512   3.568
    1PA    H14R15285   5.112   5.600   3.514
    1PA    H14S15286   5.101   5.425   3.508
    1PA    C11315287   4.927   5.516   3.605
    1PA    H13R15288   4.908   5.427   3.665
    1PA    H13S15289   4.904   5.605   3.664
    1PA    C11215290   4.834   5.532   3.484
    1PA    H12R15291   4.730   5.544   3.517
    1PA    H12S15292   4.860   5.624   3.432
    1PA    C11115293   4.832   5.413   3.387
    1PA    H11R15294   4.877   5.327   3.438
    1PA    H11S15295   4.730   5.392   3.355
    1PA    C11015296   4.931   5.434   3.271
    1PA    H10R15297   4.915   5.537   3.239
    1PA    H10S15298   5.034   5.423   3.307
    1PA     C1915299   4.926   5.331   3.157
    1PA     H9R15300   5.022   5.333   3.104
    1PA     H9S15301   4.920   5.229   3.196
    1PA     C1815302   4.819   5.361   3.051
    1PA     H8R15303   4.720   5.356   3.095
    1PA     H8S15304   4.827   5.468   3.032
    1PA     C1715305   4.812   5.277   2.923
    1PA     H7R15306   4.829   5.172   2.949
    1PA     H7S15307   4.707   5.279   2.891
    1PA     C1615308   4.903   5.322   2.807
    1PA     H6R15309   4.871   5.421   2.774
    1PA     H6S15310   5.002   5.332   2.853
    1PA     C1515311   4.901   5.223   2.690
    1PA     H5R15312   5.002   5.221   2.649
    1PA     H5S15313   4.890   5.122   2.732
    1PA     C1415314   4.796   5.251   2.582
    1PA     H4R15315   4.692   5.238   2.613
    1PA     H4S15316   4.797   5.359   2.561
    1PA     C1315317   4.820   5.183   2.446
    1PA     H3R15318   4.925   5.204   2.423
    1PA     H3S15319   4.817   5.075   2.463
    1PA     C1215320   4.719   5.242   2.347
    1PA     H2R15321   4.615   5.217   2.370
    1PA     H2S15322   4.720   5.350   2.356
    2PC     C1115323   4.750   5.214   2.202
    2PC     O1215324   4.714   5.293   2.117
    2PC     O1115325   4.811   5.098   2.174
    2PC      C115326   4.837   5.063   2.037
    2PC      HR15327   4.877   4.961   2.040
    2PC      HS15328   4.749   5.074   1.973
    2PC      C215329   4.947   5.155   1.981
    2PC      HX15330   4.924   5.258   2.009
    2PC      C315331   4.963   5.144   1.829
    2PC      HA15332   4.872   5.191   1.791
    2PC      HB15333   5.049   5.196   1.784
    2PC     O3115334   4.968   5.008   1.783
    2PC     P3115335   4.976   4.972   1.627
    2PC     O3215336   5.129   4.927   1.625
    2PC     C3115337   5.230   5.018   1.674
    2PC     H1A15338   5.214   5.117   1.632
    2PC     H1B15339   5.218   5.032   1.782
    2PC     C3215340   5.369   4.958   1.647
    2PC     H2A15341   5.387   4.871   1.710
    2PC     H2B15342   5.374   4.929   1.542
    2PC     N3115343   5.489   5.045   1.666
    2PC     C3315344   5.490   5.150   1.559
    2PC     H3A15345   5.399   5.198   1.595
    2PC     H3B15346   5.581   5.209   1.562
    2PC     H3C15347   5.469   5.102   1.464
    2PC     C3415348   5.491   5.123   1.794
    2PC     H4A15349   5.486   5.049   1.874
    2PC     H4B15350   5.582   5.182   1.800
    2PC     H4C15351   5.405   5.189   1.797
    2PC     C3515352   5.611   4.958   1.668
    2PC     H5A15353   5.615   4.906   1.764
    2PC     H5B15354   5.697   5.024   1.677
    2PC     H5C15355   5.607   4.883   1.588
    2PC     O3315356   4.882   4.870   1.573
    2PC     O3415357   4.943   5.094   1.550
    2PC     O2115358   5.074   5.120   2.039
    2PC     C2115359   5.172   5.211   2.052
    2PC     O2215360   5.172   5.326   2.013
    3OL     C1215361   5.294   5.154   2.120
    3OL     H2R15362   5.367   5.210   2.062
    3OL     H2S15363   5.299   5.048   2.097
    3OL     C1315364   5.274   5.177   2.271
    3OL     H3R15365   5.192   5.119   2.312
    3OL     H3S15366   5.243   5.279   2.293
    3OL     C1415367   5.399   5.132   2.348
    3OL     H4R15368   5.481   5.189   2.304
    3OL     H4S15369   5.431   5.029   2.332
    3OL     C1515370   5.385   5.175   2.495
    3OL     H5R15371   5.298   5.118   2.527
    3OL     H5S15372   5.350   5.278   2.493
    3OL     C1615373   5.506   5.152   2.586
    3OL     H6R15374   5.513   5.234   2.659
    3OL     H6S15375   5.598   5.143   2.528
    3OL     C1715376   5.489   5.023   2.667
    3OL     H7R15377   5.484   4.936   2.600
    3OL     H7S15378   5.390   5.015   2.714
    3OL     C1815379   5.609   4.993   2.757
    3OL     H8R15380   5.603   4.914   2.832
    3OL     H8S15381   5.614   5.073   2.830
    3OL     C1915382   5.742   4.974   2.687
    3OL     H9R15383   5.745   4.995   2.580
    3OL    C11015384   5.845   4.901   2.727
    3OL    H10R15385   5.924   4.859   2.665
    3OL    C11115386   5.849   4.843   2.865
    3OL    H11R15387   5.801   4.917   2.929
    3OL    H11S15388   5.955   4.834   2.890
    3OL    C11215389   5.790   4.701   2.874
    3OL    H12R15390   5.831   4.649   2.787
    3OL    H12S15391   5.683   4.714   2.859
    3OL    C11315392   5.825   4.625   3.003
    3OL    H13R15393   5.933   4.626   3.019
    3OL    H13S15394   5.784   4.525   2.991
    3OL    C11415395   5.762   4.685   3.129
    3OL    H14R15396   5.657   4.708   3.109
    3OL    H14S15397   5.820   4.778   3.133
    3OL    C11515398   5.776   4.596   3.254
    3OL    H15R15399   5.878   4.603   3.291
    3OL    H15S15400   5.744   4.496   3.222
    3OL    C11615401   5.693   4.627   3.379
    3OL    H16R15402   5.591   4.644   3.347
    3OL    H16S15403   5.725   4.722   3.421
    3OL    C11715404   5.697   4.514   3.484
    3OL    H17R15405   5.802   4.510   3.515
    3OL    H17S15406   5.652   4.428   3.435
    3OL    C11815407   5.618   4.546   3.611
    3OL    H18R15408   5.648   4.640   3.658
    3OL    H18S15409   5.647   4.475   3.689
    3OL    H18T15410   5.513   4.550   3.580
    1PA    C11615411   5.657   5.771   3.660
    1PA    H16R15412   5.596   5.733   3.743
    1PA    H16S15413   5.598   5.849   3.612
    1PA    H16T15414   5.753   5.806   3.697
    1PA    C11515415   5.659   5.639   3.581
    1PA    H15R15416   5.683   5.554   3.644
    1PA    H15S15417   5.557   5.615   3.549
    1PA    C11415418   5.744   5.648   3.453
    1PA    H14R15419   5.844   5.662   3.495
    1PA    H14S15420   5.737   5.560   3.389
    1PA    C11315421   5.692   5.759   3.362
    1PA    H13R15422   5.695   5.851   3.419
    1PA    H13S15423   5.763   5.779   3.281
    1PA    C11215424   5.549   5.727   3.317
    1PA    H12R15425   5.535   5.628   3.273
    1PA    H12S15426   5.483   5.738   3.403
    1PA    C11115427   5.493   5.834   3.222
    1PA    H11R15428   5.384   5.824   3.224
    1PA    H11S15429   5.518   5.935   3.254
    1PA    C11015430   5.549   5.802   3.083
    1PA    H10R15431   5.657   5.792   3.075
    1PA    H10S15432   5.505   5.704   3.064
    1PA     C1915433   5.505   5.894   2.968
    1PA     H9R15434   5.397   5.881   2.962
    1PA     H9S15435   5.525   5.997   3.001
    1PA     C1815436   5.573   5.877   2.832
    1PA     H8R15437   5.665   5.935   2.833
    1PA     H8S15438   5.601   5.773   2.817
    1PA     C1715439   5.511   5.945   2.708
    1PA     H7R15440   5.408   5.912   2.691
    1PA     H7S15441   5.503   6.051   2.734
    1PA     C1615442   5.592   5.918   2.580
    1PA     H6R15443   5.700   5.934   2.582
    1PA     H6S15444   5.569   5.811   2.572
    1PA     C1515445   5.534   5.996   2.461
    1PA     H5R15446   5.580   6.095   2.467
    1PA     H5S15447   5.594   5.954   2.380
    1PA     C1415448   5.389   5.975   2.417
    1PA     H4R15449   5.350   5.874   2.435
    1PA     H4S15450   5.332   6.039   2.485
    1PA     C1315451   5.366   6.022   2.273
    1PA     H3R15452   5.380   6.130   2.264
    1PA     H3S15453   5.444   5.975   2.213
    1PA     C1215454   5.225   5.993   2.218
    1PA     H2R15455   5.212   5.885   2.227
    1PA     H2S15456   5.142   6.038   2.273
    2PC     C1115457   5.203   6.019   2.071
    2PC     O1215458   5.293   6.059   2.000
    2PC     O1115459   5.076   5.986   2.040
    2PC      C115460   5.041   6.003   1.902
    2PC      HR15461   5.065   6.103   1.865
    2PC      HS15462   5.097   5.931   1.842
    2PC      C215463   4.892   5.978   1.874
    2PC      HX15464   4.850   5.897   1.934
    2PC      C315465   4.875   5.954   1.723
    2PC      HA15466   4.923   5.867   1.677
    2PC      HB15467   4.768   5.944   1.704
    2PC     O3115468   4.912   6.076   1.657
    2PC     P3115469   4.896   6.075   1.498
    2PC     O3215470   4.738   6.057   1.487
    2PC     C3115471   4.657   6.168   1.445
    2PC     H1A15472   4.551   6.145   1.458
    2PC     H1B15473   4.686   6.253   1.507
    2PC     C3215474   4.679   6.193   1.295
    2PC     H2A15475   4.779   6.221   1.261
    2PC     H2B15476   4.668   6.118   1.217
    2PC     N3115477   4.608   6.307   1.227
    2PC     C3315478   4.460   6.287   1.216
    2PC     H3A15479   4.424   6.368   1.153
    2PC     H3B15480   4.446   6.194   1.160
    2PC     H3C15481   4.405   6.273   1.310
    2PC     C3415482   4.623   6.440   1.294
    2PC     H4A15483   4.726   6.444   1.330
    2PC     H4B15484   4.606   0.027   1.217
    2PC     H4C15485   4.549   6.446   1.375
    2PC     C3515486   4.661   6.319   1.088
    2PC     H5A15487   4.606   6.394   1.031
    2PC     H5B15488   4.649   6.223   1.037
    2PC     H5C15489   4.767   6.344   1.095
    2PC     O3315490   4.953   6.193   1.428
    2PC     O3415491   4.966   5.958   1.439
    2PC     O2115492   4.816   6.095   1.910
    2PC     C2115493   4.686   6.085   1.943
    2PC     O2215494   4.620   5.983   1.943
    3OL     C1215495   4.620   6.213   1.987
    3OL     H2R15496   4.578   6.170   2.077
    3OL     H2S15497   4.554   6.244   1.905
    3OL     C1315498   4.722   6.321   2.023
    3OL     H3R15499   4.770   6.352   1.930
    3OL     H3S15500   4.795   6.282   2.095
    3OL     C1415501   4.647   6.442   2.081
    3OL     H4R15502   4.598   6.413   2.174
    3OL     H4S15503   4.570   6.465   2.007
    3OL     C1515504   4.731   0.080   2.098
    3OL     H5R15505   4.751   0.126   2.001
    3OL     H5S15506   4.827   0.042   2.134
    3OL     C1615507   4.661   0.172   2.199
    3OL     H6R15508   4.648   0.121   2.295
    3OL     H6S15509   4.563   0.190   2.154
    3OL     C1715510   4.729   0.308   2.218
    3OL     H7R15511   4.667   0.379   2.274
    3OL     H7S15512   4.744   0.353   2.120
    3OL     C1815513   4.873   0.296   2.270
    3OL     H8R15514   4.919   0.394   2.285
    3OL     H8S15515   4.932   0.238   2.199
    3OL     C1915516   4.877   0.219   2.399
    3OL     H9R15517   4.887   0.111   2.393
    3OL    C11015518   4.876   0.273   2.519
    3OL    H10R15519   4.890   0.208   2.605
    3OL    C11115520   4.843   0.418   2.545
    3OL    H11R15521   4.811   0.474   2.457
    3OL    H11S15522   4.934   0.473   2.571
    3OL    C11215523   4.744   0.430   2.661
    3OL    H12R15524   4.745   0.529   2.707
    3OL    H12S15525   4.768   0.351   2.732
    3OL    C11315526   4.602   0.403   2.608
    3OL    H13R15527   4.616   0.316   2.544
    3OL    H13S15528   4.570   0.490   2.550
    3OL    C11415529   4.496   0.359   2.710
    3OL    H14R15530   4.495   0.426   2.796
    3OL    H14S15531   4.511   0.257   2.747
    3OL    C11515532   4.356   0.348   2.649
    3OL    H15R15533   4.370   0.285   2.561
    3OL    H15S15534   4.327   0.446   2.609
    3OL    C11615535   4.251   0.284   2.740
    3OL    H16R15536   4.289   0.196   2.793
    3OL    H16S15537   4.170   0.245   2.677
    3OL    C11715538   4.201   0.386   2.843
    3OL    H17R15539   4.124   0.440   2.787
    3OL    H17S15540   4.281   0.457   2.864
    3OL    C11815541   4.131   0.324   2.964
    3OL    H18R15542   4.064   0.242   2.934
    3OL    H18S15543   4.074   0.405   3.009
    3OL    H18T15544   4.202   0.291   3.040
    1PA    C11615545   3.038   4.035   3.387
    1PA    H16R15546   2.981   4.012   3.297
    1PA    H16S15547   3.069   4.139   3.372
    1PA    H16T15548   2.972   4.030   3.474
    1PA    C11515549   3.171   3.960   3.398
    1PA    H15R15550   3.246   4.023   3.446
    1PA    H15S15551   3.149   3.873   3.461
    1PA    C11415552   3.218   3.916   3.259
    1PA    H14R15553   3.137   3.863   3.209
    1PA    H14S15554   3.243   4.005   3.201
    1PA    C11315555   3.347   3.832   3.263
    1PA    H13R15556   3.412   3.875   3.340
    1PA    H13S15557   3.324   3.732   3.298
    1PA    C11215558   3.419   3.815   3.129
    1PA    H12R15559   3.344   3.789   3.054
    1PA    H12S15560   3.450   3.913   3.091
    1PA    C11115561   3.547   3.733   3.150
    1PA    H11R15562   3.604   3.778   3.232
    1PA    H11S15563   3.511   3.633   3.179
    1PA    C11015564   3.648   3.728   3.035
    1PA    H10R15565   3.606   3.656   2.964
    1PA    H10S15566   3.660   3.826   2.990
    1PA     C1915567   3.784   3.680   3.089
    1PA     H9R15568   3.814   3.761   3.156
    1PA     H9S15569   3.773   3.588   3.148
    1PA     C1815570   3.878   3.663   2.969
    1PA     H8R15571   3.850   3.730   2.887
    1PA     H8S15572   3.980   3.679   3.005
    1PA     C1715573   3.877   3.522   2.909
    1PA     H7R15574   3.915   3.445   2.977
    1PA     H7S15575   3.776   3.496   2.877
    1PA     C1615576   3.973   3.515   2.788
    1PA     H6R15577   3.911   3.521   2.699
    1PA     H6S15578   4.035   3.603   2.798
    1PA     C1515579   4.062   3.391   2.770
    1PA     H5R15580   4.152   3.445   2.743
    1PA     H5S15581   4.075   3.338   2.864
    1PA     C1415582   4.022   3.289   2.661
    1PA     H4R15583   3.929   3.243   2.695
    1PA     H4S15584   3.999   3.336   2.565
    1PA     C1315585   4.138   3.190   2.646
    1PA     H3R15586   4.232   3.236   2.616
    1PA     H3S15587   4.148   3.139   2.742
    1PA     C1215588   4.111   3.086   2.537
    1PA     H2R15589   4.015   3.033   2.543
    1PA     H2S15590   4.123   3.141   2.443
    2PC     C1115591   4.217   2.979   2.538
    2PC     O1215592   4.290   2.954   2.632
    2PC     O1115593   4.228   2.919   2.418
    2PC      C115594   4.323   2.815   2.388
    2PC      HR15595   4.346   2.817   2.281
    2PC      HS15596   4.417   2.834   2.441
    2PC      C215597   4.255   2.684   2.429
    2PC      HX15598   4.320   2.607   2.386
    2PC      C315599   4.115   2.665   2.368
    2PC      HA15600   4.042   2.655   2.449
    2PC      HB15601   4.086   2.754   2.310
    2PC     O3115602   4.109   2.541   2.295
    2PC     P3115603   4.139   2.534   2.138
    2PC     O3215604   4.100   2.384   2.097
    2PC     C3115605   4.194   2.311   2.016
    2PC     H1A15606   4.195   2.357   1.917
    2PC     H1B15607   4.291   2.320   2.067
    2PC     C3215608   4.156   2.163   2.027
    2PC     H2A15609   4.236   2.097   1.992
    2PC     H2B15610   4.143   2.141   2.133
    2PC     N3115611   4.031   2.121   1.956
    2PC     C3315612   4.029   2.152   1.809
    2PC     H3A15613   4.120   2.113   1.764
    2PC     H3B15614   3.934   2.120   1.766
    2PC     H3C15615   4.027   2.261   1.808
    2PC     C3415616   4.009   1.974   1.976
    2PC     H4A15617   3.911   1.952   1.932
    2PC     H4B15618   4.084   1.909   1.931
    2PC     H4C15619   4.004   1.954   2.083
    2PC     C3515620   3.913   2.190   2.016
    2PC     H5A15621   3.911   2.297   1.992
    2PC     H5B15622   3.917   2.189   2.125
    2PC     H5C15623   3.821   2.144   1.978
    2PC     O3315624   4.040   2.620   2.068
    2PC     O3415625   4.275   2.585   2.113
    2PC     O2115626   4.249   2.662   2.571
    2PC     C2115627   4.362   2.630   2.637
    2PC     O2215628   4.459   2.591   2.576
    3OL     C1215629   4.351   2.649   2.787
    3OL     H2R15630   4.295   2.740   2.809
    3OL     H2S15631   4.445   2.669   2.838
    3OL     C1315632   4.289   2.530   2.863
    3OL     H3R15633   4.195   2.520   2.808
    3OL     H3S15634   4.256   2.564   2.961
    3OL     C1415635   4.369   2.399   2.862
    3OL     H4R15636   4.469   2.426   2.897
    3OL     H4S15637   4.376   2.340   2.770
    3OL     C1515638   4.304   2.303   2.963
    3OL     H5R15639   4.222   2.247   2.917
    3OL     H5S15640   4.280   2.349   3.059
    3OL     C1615641   4.405   2.198   3.010
    3OL     H6R15642   4.483   2.258   3.057
    3OL     H6S15643   4.449   2.140   2.929
    3OL     C1715644   4.344   2.097   3.108
    3OL     H7R15645   4.266   2.042   3.054
    3OL     H7S15646   4.299   2.162   3.184
    3OL     C1815647   4.453   2.005   3.164
    3OL     H8R15648   4.544   2.062   3.184
    3OL     H8S15649   4.486   1.936   3.086
    3OL     C1915650   4.406   1.933   3.287
    3OL     H9R15651   4.329   1.856   3.283
    3OL    C11015652   4.467   1.947   3.404
    3OL    H10R15653   4.429   1.903   3.496
    3OL    C11115654   4.593   2.024   3.438
    3OL    H11R15655   4.594   2.057   3.542
    3OL    H11S15656   4.591   2.119   3.384
    3OL    C11215657   4.715   1.942   3.395
    3OL    H12R15658   4.726   1.944   3.286
    3OL    H12S15659   4.709   1.838   3.428
    3OL    C11315660   4.847   1.993   3.455
    3OL    H13R15661   4.841   2.009   3.563
    3OL    H13S15662   4.870   2.093   3.417
    3OL    C11415663   4.963   1.896   3.426
    3OL    H14R15664   4.944   1.811   3.492
    3OL    H14S15665   5.056   1.941   3.464
    3OL    C11515666   4.980   1.838   3.286
    3OL    H15R15667   4.983   1.926   3.221
    3OL    H15S15668   4.887   1.787   3.258
    3OL    C11615669   5.107   1.753   3.276
    3OL    H16R15670   5.098   1.662   3.336
    3OL    H16S15671   5.196   1.808   3.310
    3OL    C11715672   5.141   1.701   3.136
    3OL    H17R15673   5.071   1.621   3.110
    3OL    H17S15674   5.244   1.664   3.137
    3OL    C11815675   5.146   1.804   3.022
    3OL    H18R15676   5.064   1.803   2.950
    3OL    H18S15677   5.235   1.773   2.967
    3OL    H18T15678   5.177   1.901   3.063
    1PA    C11615679   1.758   5.117   3.976
    1PA    H16R15680   1.860   5.156   3.964
    1PA    H16S15681   1.737   5.068   3.881
    1PA    H16T15682   1.758   5.031   4.044
    1PA    C11515683   1.651   5.222   4.009
    1PA    H15R15684   1.553   5.194   3.971
    1PA    H15S15685   1.639   5.228   4.117
    1PA    C11415686   1.694   5.361   3.957
    1PA    H14R15687   1.636   5.435   4.012
    1PA    H14S15688   1.800   5.382   3.969
    1PA    C11315689   1.658   5.380   3.808
    1PA    H13R15690   1.719   5.314   3.747
    1PA    H13S15691   1.553   5.361   3.784
    1PA    C11215692   1.694   5.523   3.767
    1PA    H12R15693   1.630   5.585   3.829
    1PA    H12S15694   1.801   5.534   3.784
    1PA    C11115695   1.673   5.562   3.619
    1PA    H11R15696   1.746   5.642   3.607
    1PA    H11S15697   1.710   5.485   3.551
    1PA    C11015698   1.530   5.600   3.579
    1PA    H10R15699   1.460   5.527   3.617
    1PA    H10S15700   1.506   5.695   3.629
    1PA     C1915701   1.514   5.611   3.427
    1PA     H9R15702   1.582   5.690   3.395
    1PA     H9S15703   1.539   5.510   3.394
    1PA     C1815704   1.371   5.646   3.383
    1PA     H8R15705   1.303   5.571   3.424
    1PA     H8S15706   1.361   5.746   3.426
    1PA     C1715707   1.362   5.649   3.230
    1PA     H7R15708   1.390   5.552   3.187
    1PA     H7S15709   1.262   5.673   3.195
    1PA     C1615710   1.458   5.754   3.172
    1PA     H6R15711   1.465   5.844   3.233
    1PA     H6S15712   1.551   5.696   3.173
    1PA     C1515713   1.427   5.785   3.025
    1PA     H5R15714   1.429   5.691   2.971
    1PA     H5S15715   1.332   5.838   3.009
    1PA     C1415716   1.542   5.868   2.967
    1PA     H4R15717   1.548   5.971   3.004
    1PA     H4S15718   1.636   5.823   2.996
    1PA     C1315719   1.525   5.879   2.815
    1PA     H3R15720   1.524   5.778   2.773
    1PA     H3S15721   1.433   5.934   2.794
    1PA     C1215722   1.652   5.950   2.765
    1PA     H2R15723   1.671   6.042   2.822
    1PA     H2S15724   1.729   5.874   2.779
    2PC     C1115725   1.639   5.991   2.621
    2PC     O1215726   1.631   5.907   2.533
    2PC     O1115727   1.639   6.124   2.596
    2PC      C115728   1.619   6.165   2.460
    2PC      HR15729   1.634   6.270   2.436
    2PC      HS15730   1.694   6.112   2.399
    2PC      C215731   1.474   6.134   2.421
    2PC      HX15732   1.434   6.039   2.458
    2PC      C315733   1.438   6.137   2.271
    2PC      HA15734   1.442   6.035   2.231
    2PC      HB15735   1.333   6.163   2.257
    2PC     O3115736   1.520   6.225   2.193
    2PC     P3115737   1.496   6.233   2.035
    2PC     O3215738   1.632   6.164   1.984
    2PC     C3115739   1.650   6.021   1.991
    2PC     H1A15740   1.622   5.985   2.091
    2PC     H1B15741   1.579   5.976   1.922
    2PC     C3215742   1.797   5.988   1.962
    2PC     H2A15743   1.839   6.049   1.881
    2PC     H2B15744   1.851   5.993   2.056
    2PC     N3115745   1.822   5.847   1.920
    2PC     C3315746   1.965   5.813   1.950
    2PC     H3A15747   1.987   5.862   2.045
    2PC     H3B15748   1.981   5.706   1.956
    2PC     H3C15749   2.028   5.866   1.878
    2PC     C3415750   1.738   5.740   1.983
    2PC     H4A15751   1.721   5.752   2.091
    2PC     H4B15752   1.638   5.743   1.940
    2PC     H4C15753   1.775   5.640   1.959
    2PC     C3515754   1.788   5.834   1.774
    2PC     H5A15755   1.697   5.777   1.753
    2PC     H5B15756   1.866   5.769   1.736
    2PC     H5C15757   1.795   5.934   1.730
    2PC     O3315758   1.381   6.155   1.983
    2PC     O3415759   1.469   6.370   1.985
    2PC     O2115760   1.395   6.224   2.500
    2PC     C2115761   1.270   6.185   2.532
    2PC     O2215762   1.208   6.102   2.470
    3OL     C1215763   1.220   6.271   2.646
    3OL     H2R15764   1.116   6.236   2.650
    3OL     H2S15765   1.226   6.377   2.621
    3OL     C1315766   1.303   6.259   2.774
    3OL     H3R15767   1.402   6.301   2.756
    3OL     H3S15768   1.318   6.152   2.792
    3OL     C1415769   1.236   6.327   2.895
    3OL     H4R15770   1.136   6.287   2.912
    3OL     H4S15771   1.236   6.435   2.880
    3OL     C1515772   1.320   6.287   3.018
    3OL     H5R15773   1.425   6.309   3.000
    3OL     H5S15774   1.311   6.180   3.038
    3OL     C1615775   1.274   6.364   3.143
    3OL     H6R15776   1.170   6.333   3.159
    3OL     H6S15777   1.272   6.471   3.124
    3OL     C1715778   1.353   6.314   3.264
    3OL     H7R15779   1.459   6.340   3.258
    3OL     H7S15780   1.348   6.205   3.262
    3OL     C1815781   1.299   6.359   3.401
    3OL     H8R15782   1.316   6.467   3.400
    3OL     H8S15783   1.353   6.306   3.480
    3OL     C1915784   1.152   6.327   3.414
    3OL     H9R15785   1.106   6.280   3.327
    3OL    C11015786   1.084   6.352   3.524
    3OL    H10R15787   0.978   6.325   3.521
    3OL    C11115788   1.147   6.420   3.643
    3OL    H11R15789   1.193   0.025   3.609
    3OL    H11S15790   1.226   6.363   3.692
    3OL    C11215791   1.038   6.459   3.743
    3OL    H12R15792   0.950   0.007   3.689
    3OL    H12S15793   1.071   0.056   3.801
    3OL    C11315794   0.986   6.341   3.827
    3OL    H13R15795   0.989   6.246   3.772
    3OL    H13S15796   0.885   6.372   3.850
    3OL    C11415797   1.064   6.340   3.959
    3OL    H14R15798   1.054   6.436   4.010
    3OL    H14S15799   1.166   6.310   3.934
    3OL    C11515800   1.014   6.226   4.050
    3OL    H15R15801   0.914   6.193   4.022
    3OL    H15S15802   1.019   6.252   4.156
    3OL    C11615803   1.093   6.096   4.030
    3OL    H16R15804   1.193   6.106   4.074
    3OL    H16S15805   1.115   6.069   3.926
    3OL    C11715806   1.029   5.978   4.104
    3OL    H17R15807   1.075   5.884   4.077
    3OL    H17S15808   0.923   5.964   4.082
    3OL    C11815809   1.033   5.983   4.258
    3OL    H18R15810   1.133   5.969   4.299
    3OL    H18S15811   0.966   5.907   4.298
    3OL    H18T15812   1.004   6.078   4.304
    1PA    C11615813   1.218   5.029   3.845
    1PA    H16R15814   1.311   4.999   3.894
    1PA    H16S15815   1.149   4.946   3.862
    1PA    H16T15816   1.190   5.121   3.896
    1PA    C11515817   1.245   5.058   3.696
    1PA    H15R15818   1.280   4.961   3.660
    1PA    H15S15819   1.155   5.095   3.647
    1PA    C11415820   1.354   5.165   3.686
    1PA    H14R15821   1.306   5.263   3.696
    1PA    H14S15822   1.428   5.146   3.764
    1PA    C11315823   1.433   5.185   3.556
    1PA    H13R15824   1.367   5.189   3.469
    1PA    H13S15825   1.479   5.284   3.552
    1PA    C11215826   1.555   5.092   3.545
    1PA    H12R15827   1.630   5.117   3.619
    1PA    H12S15828   1.521   4.992   3.573
    1PA    C11115829   1.615   5.102   3.404
    1PA    H11R15830   1.627   5.208   3.384
    1PA    H11S15831   1.718   5.067   3.416
    1PA    C11015832   1.535   5.039   3.289
    1PA    H10R15833   1.529   4.932   3.309
    1PA    H10S15834   1.432   5.077   3.294
    1PA     C1915835   1.599   5.062   3.151
    1PA     H9R15836   1.601   5.169   3.130
    1PA     H9S15837   1.702   5.027   3.161
    1PA     C1815838   1.510   5.011   3.037
    1PA     H8R15839   1.509   4.902   3.034
    1PA     H8S15840   1.409   5.049   3.059
    1PA     C1715841   1.567   5.048   2.900
    1PA     H7R15842   1.595   5.152   2.883
    1PA     H7S15843   1.660   4.990   2.903
    1PA     C1615844   1.476   4.991   2.791
    1PA     H6R15845   1.455   4.886   2.809
    1PA     H6S15846   1.385   5.049   2.810
    1PA     C1515847   1.517   5.014   2.645
    1PA     H5R15848   1.530   5.121   2.632
    1PA     H5S15849   1.614   4.969   2.624
    1PA     C1415850   1.400   4.969   2.556
    1PA     H4R15851   1.390   4.861   2.552
    1PA     H4S15852   1.303   5.006   2.592
    1PA     C1315853   1.412   5.026   2.413
    1PA     H3R15854   1.515   5.011   2.380
    1PA     H3S15855   1.349   4.968   2.346
    1PA     C1215856   1.362   5.170   2.403
    1PA     H2R15857   1.260   5.171   2.442
    1PA     H2S15858   1.424   5.230   2.471
    2PC     C1115859   1.359   5.207   2.257
    2PC     O1215860   1.281   5.167   2.173
    2PC     O1115861   1.449   5.301   2.224
    2PC      C115862   1.452   5.364   2.095
    2PC      HR15863   1.548   5.416   2.100
    2PC      HS15864   1.453   5.294   2.011
    2PC      C215865   1.347   5.476   2.095
    2PC      HX15866   1.253   5.430   2.127
    2PC      C315867   1.321   5.533   1.955
    2PC      HA15868   1.288   5.447   1.896
    2PC      HB15869   1.242   5.609   1.957
    2PC     O3115870   1.445   5.589   1.911
    2PC     P3115871   1.432   5.667   1.771
    2PC     O3215872   1.561   5.608   1.697
    2PC     C3115873   1.542   5.472   1.654
    2PC     H1A15874   1.537   5.409   1.743
    2PC     H1B15875   1.457   5.464   1.585
    2PC     C3215876   1.667   5.426   1.578
    2PC     H2A15877   1.761   5.447   1.628
    2PC     H2B15878   1.659   5.320   1.550
    2PC     N3115879   1.695   5.481   1.441
    2PC     C3315880   1.828   5.435   1.388
    2PC     H3A15881   1.812   5.327   1.388
    2PC     H3B15882   1.841   5.476   1.287
    2PC     H3C15883   1.907   5.477   1.450
    2PC     C3415884   1.595   5.443   1.337
    2PC     H4A15885   1.600   5.335   1.322
    2PC     H4B15886   1.496   5.460   1.380
    2PC     H4C15887   1.617   5.498   1.245
    2PC     C3515888   1.702   5.630   1.448
    2PC     H5A15889   1.601   5.644   1.487
    2PC     H5B15890   1.715   5.685   1.354
    2PC     H5C15891   1.778   5.662   1.518
    2PC     O3315892   1.305   5.640   1.699
    2PC     O3415893   1.439   5.812   1.797
    2PC     O2115894   1.377   5.581   2.190
    2PC     C2115895   1.275   5.663   2.220
    2PC     O2215896   1.159   5.641   2.192
    3OL     C1215897   1.328   5.765   2.317
    3OL     H2R15898   1.281   5.863   2.301
    3OL     H2S15899   1.432   5.792   2.298
    3OL     C1315900   1.296   5.718   2.460
    3OL     H3R15901   1.189   5.698   2.469
    3OL     H3S15902   1.322   5.799   2.528
    3OL     C1415903   1.376   5.594   2.504
    3OL     H4R15904   1.483   5.612   2.508
    3OL     H4S15905   1.358   5.513   2.433
    3OL     C1515906   1.332   5.569   2.649
    3OL     H5R15907   1.224   5.554   2.653
    3OL     H5S15908   1.358   5.652   2.715
    3OL     C1615909   1.398   5.437   2.691
    3OL     H6R15910   1.497   5.461   2.730
    3OL     H6S15911   1.405   5.364   2.611
    3OL     C1715912   1.317   5.364   2.800
    3OL     H7R15913   1.371   5.273   2.826
    3OL     H7S15914   1.228   5.332   2.747
    3OL     C1815915   1.287   5.446   2.926
    3OL     H8R15916   1.216   5.527   2.906
    3OL     H8S15917   1.385   5.482   2.957
    3OL     C1915918   1.233   5.362   3.039
    3OL     H9R15919   1.300   5.285   3.075
    3OL    C11015920   1.114   5.376   3.096
    3OL    H10R15921   1.086   5.319   3.184
    3OL    C11115922   1.003   5.465   3.047
    3OL    H11R15923   0.910   5.409   3.043
    3OL    H11S15924   1.032   5.510   2.952
    3OL    C11215925   0.966   5.585   3.137
    3OL    H12R15926   1.051   5.652   3.124
    3OL    H12S15927   0.962   5.560   3.243
    3OL    C11315928   0.840   5.662   3.097
    3OL    H13R15929   0.761   5.587   3.102
    3OL    H13S15930   0.852   5.691   2.993
    3OL    C11415931   0.807   5.783   3.186
    3OL    H14R15932   0.882   5.862   3.190
    3OL    H14S15933   0.804   5.752   3.290
    3OL    C11515934   0.675   5.843   3.135
    3OL    H15R15935   0.594   5.771   3.148
    3OL    H15S15936   0.686   5.866   3.028
    3OL    C11615937   0.632   5.970   3.209
    3OL    H16R15938   0.713   6.044   3.208
    3OL    H16S15939   0.599   5.938   3.308
    3OL    C11715940   0.508   6.022   3.134
    3OL    H17R15941   0.420   5.959   3.152
    3OL    H17S15942   0.510   6.030   3.025
    3OL    C11815943   0.485   6.164   3.188
    3OL    H18R15944   0.564   6.226   3.147
    3OL    H18S15945   0.485   6.155   3.297
    3OL    H18T15946   0.390   6.201   3.148
    1PA    C11615947   3.017   5.911   3.012
    1PA    H16R15948   3.123   5.926   3.034
    1PA    H16S15949   2.966   5.882   3.104
    1PA    H16T15950   2.974   6.006   2.979
    1PA    C11515951   2.997   5.810   2.898
    1PA    H15R15952   2.899   5.762   2.910
    1PA    H15S15953   3.011   5.863   2.803
    1PA    C11415954   3.100   5.697   2.898
    1PA    H14R15955   3.196   5.748   2.908
    1PA    H14S15956   3.085   5.634   2.986
    1PA    C11315957   3.097   5.620   2.765
    1PA    H13R15958   2.998   5.582   2.741
    1PA    H13S15959   3.129   5.677   2.677
    1PA    C11215960   3.195   5.502   2.779
    1PA    H12R15961   3.296   5.543   2.780
    1PA    H12S15962   3.180   5.457   2.877
    1PA    C11115963   3.174   5.392   2.674
    1PA    H11R15964   3.069   5.363   2.663
    1PA    H11S15965   3.198   5.414   2.570
    1PA    C11015966   3.242   5.262   2.715
    1PA    H10R15967   3.187   5.223   2.801
    1PA    H10S15968   3.226   5.191   2.634
    1PA     C1915969   3.395   5.277   2.721
    1PA     H9R15970   3.441   5.322   2.633
    1PA     H9S15971   3.422   5.339   2.807
    1PA     C1815972   3.447   5.137   2.758
    1PA     H8R15973   3.395   5.107   2.849
    1PA     H8S15974   3.414   5.057   2.691
    1PA     C1715975   3.601   5.127   2.758
    1PA     H7R15976   3.640   5.211   2.815
    1PA     H7S15977   3.638   5.042   2.816
    1PA     C1615978   3.656   5.124   2.615
    1PA     H6R15979   3.592   5.183   2.549
    1PA     H6S15980   3.755   5.171   2.621
    1PA     C1515981   3.678   4.982   2.561
    1PA     H5R15982   3.746   4.927   2.626
    1PA     H5S15983   3.580   4.934   2.561
    1PA     C1415984   3.724   4.981   2.415
    1PA     H4R15985   3.646   5.027   2.354
    1PA     H4S15986   3.809   5.049   2.402
    1PA     C1315987   3.740   4.834   2.373
    1PA     H3R15988   3.815   4.786   2.436
    1PA     H3S15989   3.640   4.794   2.385
    1PA     C1215990   3.788   4.845   2.227
    1PA     H2R15991   3.734   4.921   2.169
    1PA     H2S15992   3.894   4.867   2.218
    2PC     C1115993   3.770   4.716   2.150
    2PC     O1215994   3.708   4.621   2.194
    2PC     O1115995   3.846   4.711   2.040
    2PC      C115996   3.860   4.588   1.965
    2PC      HR15997   3.839   4.503   2.031
    2PC      HS15998   3.788   4.581   1.883
    2PC      C215999   3.998   4.566   1.903
    2PC      HX16000   4.038   4.649   1.843
    2PC      C316001   3.997   4.440   1.815
    2PC      HA16002   3.963   4.352   1.872
    2PC      HB16003   3.923   4.452   1.736
    2PC     O3116004   4.124   4.413   1.753
    2PC     P3116005   4.150   4.310   1.634
    2PC     O3216006   4.160   4.179   1.725
    2PC     C3116007   4.250   4.198   1.836
    2PC     H1A16008   4.346   4.234   1.799
    2PC     H1B16009   4.203   4.254   1.917
    2PC     C3216010   4.269   4.056   1.890
    2PC     H2A16011   4.312   4.065   1.989
    2PC     H2B16012   4.172   4.006   1.891
    2PC     N3116013   4.363   3.956   1.828
    2PC     C3316014   4.326   3.902   1.693
    2PC     H3A16015   4.218   3.889   1.706
    2PC     H3B16016   4.356   3.984   1.627
    2PC     H3C16017   4.378   3.808   1.676
    2PC     C3416018   4.502   4.013   1.822
    2PC     H4A16019   4.573   3.933   1.807
    2PC     H4B16020   4.514   4.074   1.732
    2PC     H4C16021   4.512   4.057   1.922
    2PC     C3516022   4.371   3.835   1.916
    2PC     H5A16023   4.449   3.767   1.883
    2PC     H5B16024   4.272   3.791   1.930
    2PC     H5C16025   4.407   3.864   2.014
    2PC     O3316026   4.046   4.324   1.530
    2PC     O3416027   4.274   4.322   1.553
    2PC     O2116028   4.089   4.543   2.011
    2PC     C2116029   4.152   4.649   2.064
    2PC     O2216030   4.186   4.746   1.999
    3OL     C1216031   4.207   4.623   2.202
    3OL     H2R16032   4.233   4.720   2.245
    3OL     H2S16033   4.302   4.569   2.197
    3OL     C1316034   4.120   4.546   2.303
    3OL     H3R16035   4.104   4.447   2.261
    3OL     H3S16036   4.027   4.601   2.318
    3OL     C1416037   4.195   4.534   2.436
    3OL     H4R16038   4.219   4.639   2.456
    3OL     H4S16039   4.283   4.471   2.428
    3OL     C1516040   4.114   4.481   2.555
    3OL     H5R16041   4.172   4.435   2.636
    3OL     H5S16042   4.058   4.396   2.516
    3OL     C1616043   4.004   4.575   2.605
    3OL     H6R16044   3.938   4.517   2.671
    3OL     H6S16045   3.936   4.597   2.523
    3OL     C1716046   4.065   4.694   2.680
    3OL     H7R16047   3.995   4.778   2.671
    3OL     H7S16048   4.148   4.726   2.617
    3OL     C1816049   4.112   4.662   2.822
    3OL     H8R16050   4.159   4.746   2.872
    3OL     H8S16051   4.193   4.589   2.819
    3OL     C1916052   4.009   4.595   2.910
    3OL     H9R16053   3.975   4.500   2.869
    3OL    C11016054   3.975   4.646   3.028
    3OL    H10R16055   3.901   4.595   3.089
    3OL    C11116056   4.023   4.772   3.094
    3OL    H11R16057   4.113   4.824   3.061
    3OL    H11S16058   4.059   4.746   3.194
    3OL    C11216059   3.914   4.877   3.117
    3OL    H12R16060   3.851   4.823   3.188
    3OL    H12S16061   3.863   4.891   3.021
    3OL    C11316062   3.965   5.009   3.176
    3OL    H13R16063   4.037   5.067   3.118
    3OL    H13S16064   4.016   4.979   3.267
    3OL    C11416065   3.844   5.093   3.218
    3OL    H14R16066   3.869   5.159   3.302
    3OL    H14S16067   3.769   5.022   3.252
    3OL    C11516068   3.779   5.168   3.100
    3OL    H15R16069   3.759   5.108   3.012
    3OL    H15S16070   3.850   5.244   3.066
    3OL    C11616071   3.653   5.246   3.137
    3OL    H16R16072   3.576   5.179   3.177
    3OL    H16S16073   3.615   5.285   3.042
    3OL    C11716074   3.700   5.362   3.226
    3OL    H17R16075   3.764   5.426   3.165
    3OL    H17S16076   3.756   5.323   3.311
    3OL    C11816077   3.578   5.445   3.266
    3OL    H18R16078   3.615   5.538   3.310
    3OL    H18S16079   3.525   5.383   3.339
    3OL    H18T16080   3.517   5.470   3.179
    1PA    C11616081   1.207   0.755   3.384
    1PA    H16R16082   1.206   0.772   3.492
    1PA    H16S16083   1.266   0.834   3.337
    1PA    H16T16084   1.272   0.669   3.364
    1PA    C11516085   1.065   0.745   3.327
    1PA    H15R16086   1.024   0.656   3.376
    1PA    H15S16087   1.005   0.832   3.357
    1PA    C11416088   1.067   0.721   3.176
    1PA    H14R16089   1.132   0.636   3.156
    1PA    H14S16090   0.965   0.703   3.139
    1PA    C11316091   1.128   0.837   3.097
    1PA    H13R16092   1.228   0.867   3.129
    1PA    H13S16093   1.150   0.799   2.997
    1PA    C11216094   1.034   0.959   3.102
    1PA    H12R16095   0.930   0.928   3.092
    1PA    H12S16096   1.048   0.996   3.204
    1PA    C11116097   1.075   1.072   3.006
    1PA    H11R16098   1.049   1.058   2.901
    1PA    H11S16099   1.012   1.157   3.032
    1PA    C11016100   1.217   1.129   3.013
    1PA    H10R16101   1.241   1.152   3.117
    1PA    H10S16102   1.283   1.045   2.989
    1PA     C1916103   1.228   1.246   2.915
    1PA     H9R16104   1.332   1.279   2.904
    1PA     H9S16105   1.190   1.219   2.816
    1PA     C1816106   1.153   1.373   2.959
    1PA     H8R16107   1.052   1.346   2.993
    1PA     H8S16108   1.209   1.417   3.042
    1PA     C1716109   1.139   1.482   2.852
    1PA     H7R16110   1.124   1.581   2.894
    1PA     H7S16111   1.237   1.501   2.809
    1PA     C1616112   1.043   1.440   2.740
    1PA     H6R16113   1.084   1.353   2.689
    1PA     H6S16114   0.939   1.423   2.770
    1PA     C1516115   1.053   1.544   2.627
    1PA     H5R16116   1.007   1.633   2.671
    1PA     H5S16117   1.150   1.568   2.584
    1PA     C1416118   0.967   1.511   2.504
    1PA     H4R16119   0.997   1.414   2.464
    1PA     H4S16120   0.863   1.521   2.533
    1PA     C1316121   0.999   1.602   2.384
    1PA     H3R16122   1.108   1.610   2.376
    1PA     H3S16123   0.961   1.555   2.293
    1PA     C1216124   0.951   1.747   2.396
    1PA     H2R16125   0.843   1.758   2.411
    1PA     H2S16126   1.005   1.803   2.472
    2PC     C1116127   0.980   1.830   2.274
    2PC     O1216128   0.894   1.867   2.196
    2PC     O1116129   1.105   1.880   2.274
    2PC      C116130   1.152   1.989   2.194
    2PC      HR16131   1.261   1.979   2.186
    2PC      HS16132   1.104   1.979   2.096
    2PC      C216133   1.120   2.123   2.262
    2PC      HX16134   1.036   2.106   2.330
    2PC      C316135   1.066   2.223   2.159
    2PC      HA16136   0.963   2.201   2.128
    2PC      HB16137   1.059   2.318   2.213
    2PC     O3116138   1.157   2.240   2.049
    2PC     P3116139   1.114   2.328   1.922
    2PC     O3216140   1.248   2.416   1.916
    2PC     C3116141   1.241   2.558   1.937
    2PC     H1A16142   1.178   2.606   1.862
    2PC     H1B16143   1.179   2.569   2.026
    2PC     C3216144   1.377   2.624   1.959
    2PC     H2A16145   1.353   2.727   1.933
    2PC     H2B16146   1.408   2.615   2.063
    2PC     N3116147   1.489   2.580   1.869
    2PC     C3316148   1.600   2.681   1.858
    2PC     H3A16149   1.648   2.697   1.954
    2PC     H3B16150   1.666   2.655   1.775
    2PC     H3C16151   1.549   2.774   1.831
    2PC     C3416152   1.538   2.449   1.923
    2PC     H4A16153   1.639   2.424   1.891
    2PC     H4B16154   1.541   2.454   2.032
    2PC     H4C16155   1.467   2.372   1.890
    2PC     C3516156   1.444   2.549   1.730
    2PC     H5A16157   1.377   2.630   1.700
    2PC     H5B16158   1.387   2.456   1.734
    2PC     H5C16159   1.520   2.518   1.658
    2PC     O3316160   1.090   2.251   1.798
    2PC     O3416161   0.985   2.398   1.936
    2PC     O2116162   1.241   2.155   2.334
    2PC     C2116163   1.246   2.246   2.432
    2PC     O2216164   1.144   2.300   2.468
    3OL     C1216165   1.377   2.234   2.506
    3OL     H2R16166   1.436   2.315   2.465
    3OL     H2S16167   1.425   2.140   2.477
    3OL     C1316168   1.365   2.264   2.656
    3OL     H3R16169   1.293   2.197   2.704
    3OL     H3S16170   1.321   2.364   2.667
    3OL     C1416171   1.506   2.266   2.716
    3OL     H4R16172   1.555   2.348   2.661
    3OL     H4S16173   1.561   2.177   2.685
    3OL     C1516174   1.510   2.300   2.866
    3OL     H5R16175   1.442   2.235   2.921
    3OL     H5S16176   1.474   2.401   2.888
    3OL     C1616177   1.655   2.285   2.914
    3OL     H6R16178   1.716   2.349   2.850
    3OL     H6S16179   1.693   2.185   2.893
    3OL     C1716180   1.681   2.309   3.064
    3OL     H7R16181   1.632   2.236   3.129
    3OL     H7S16182   1.643   2.405   3.097
    3OL     C1816183   1.832   2.303   3.089
    3OL     H8R16184   1.875   2.219   3.034
    3OL     H8S16185   1.867   2.302   3.193
    3OL     C1916186   1.887   2.433   3.035
    3OL     H9R16187   1.902   2.431   2.928
    3OL    C11016188   1.912   2.539   3.110
    3OL    H10R16189   1.956   2.625   3.060
    3OL    C11116190   1.907   2.554   3.260
    3OL    H11R16191   1.885   2.460   3.312
    3OL    H11S16192   1.828   2.623   3.291
    3OL    C11216193   2.044   2.609   3.300
    3OL    H12R16194   2.060   2.710   3.261
    3OL    H12S16195   2.115   2.542   3.252
    3OL    C11316196   2.056   2.599   3.453
    3OL    H13R16197   2.032   2.499   3.487
    3OL    H13S16198   1.977   2.656   3.503
    3OL    C11416199   2.189   2.656   3.505
    3OL    H14R16200   2.275   2.612   3.454
    3OL    H14S16201   2.198   2.625   3.609
    3OL    C11516202   2.197   2.809   3.498
    3OL    H15R16203   2.107   2.856   3.539
    3OL    H15S16204   2.200   2.847   3.396
    3OL    C11616205   2.322   2.862   3.570
    3OL    H16R16206   2.319   2.971   3.563
    3OL    H16S16207   2.408   2.828   3.511
    3OL    C11716208   2.344   2.811   3.713
    3OL    H17R16209   2.430   2.865   3.753
    3OL    H17S16210   2.357   2.703   3.720
    3OL    C11816211   2.223   2.860   3.795
    3OL    H18R16212   2.251   2.843   3.899
    3OL    H18S16213   2.130   2.815   3.760
    3OL    H18T16214   2.225   2.970   3.793
    1PA    C11616215   2.147   6.211   3.552
    1PA    H16R16216   2.054   6.267   3.568
    1PA    H16S16217   2.225   6.266   3.605
    1PA    H16T16218   2.145   6.115   3.604
    1PA    C11516219   2.188   6.209   3.405
    1PA    H15R16220   2.105   6.173   3.344
    1PA    H15S16221   2.202   6.311   3.369
    1PA    C11416222   2.312   6.122   3.377
    1PA    H14R16223   2.402   6.168   3.420
    1PA    H14S16224   2.309   6.021   3.417
    1PA    C11316225   2.340   6.097   3.228
    1PA    H13R16226   2.255   6.047   3.180
    1PA    H13S16227   2.366   6.190   3.176
    1PA    C11216228   2.468   6.013   3.221
    1PA    H12R16229   2.554   6.058   3.271
    1PA    H12S16230   2.437   5.927   3.280
    1PA    C11116231   2.499   5.956   3.082
    1PA    H11R16232   2.535   5.853   3.080
    1PA    H11S16233   2.398   5.951   3.041
    1PA    C11016234   2.576   6.050   2.989
    1PA    H10R16235   2.502   6.117   2.945
    1PA    H10S16236   2.650   6.107   3.045
    1PA     C1916237   2.641   5.963   2.880
    1PA     H9R16238   2.722   6.017   2.830
    1PA     H9S16239   2.690   5.880   2.931
    1PA     C1816240   2.546   5.914   2.771
    1PA     H8R16241   2.462   5.880   2.833
    1PA     H8S16242   2.523   5.998   2.704
    1PA     C1716243   2.605   5.812   2.672
    1PA     H7R16244   2.553   5.802   2.576
    1PA     H7S16245   2.704   5.843   2.636
    1PA     C1616246   2.614   5.676   2.742
    1PA     H6R16247   2.676   5.688   2.831
    1PA     H6S16248   2.517   5.630   2.761
    1PA     C1516249   2.686   5.589   2.638
    1PA     H5R16250   2.627   5.571   2.549
    1PA     H5S16251   2.780   5.631   2.601
    1PA     C1416252   2.709   5.448   2.696
    1PA     H4R16253   2.790   5.444   2.769
    1PA     H4S16254   2.617   5.417   2.746
    1PA     C1316255   2.737   5.356   2.577
    1PA     H3R16256   2.650   5.343   2.512
    1PA     H3S16257   2.807   5.397   2.505
    1PA     C1216258   2.772   5.215   2.629
    1PA     H2R16259   2.871   5.218   2.675
    1PA     H2S16260   2.701   5.168   2.698
    2PC     C1116261   2.795   5.122   2.514
    2PC     O1216262   2.815   5.163   2.401
    2PC     O1116263   2.784   4.992   2.547
    2PC      C116264   2.821   4.893   2.450
    2PC      HR16265   2.778   4.800   2.489
    2PC      HS16266   2.769   4.917   2.357
    2PC      C216267   2.975   4.890   2.442
    2PC      HX16268   3.002   4.996   2.444
    2PC      C316269   3.033   4.816   2.321
    2PC      HA16270   3.140   4.802   2.338
    2PC      HB16271   2.980   4.723   2.301
    2PC     O3116272   3.023   4.902   2.206
    2PC     P3116273   3.060   4.848   2.059
    2PC     O3216274   3.124   4.981   1.996
    2PC     C3116275   3.218   5.055   2.077
    2PC     H1A16276   3.165   5.082   2.169
    2PC     H1B16277   3.305   4.990   2.089
    2PC     C3216278   3.260   5.181   2.000
    2PC     H2A16279   3.179   5.224   1.941
    2PC     H2B16280   3.298   5.251   2.074
    2PC     N3116281   3.368   5.172   1.897
    2PC     C3316282   3.408   5.310   1.855
    2PC     H3A16283   3.511   5.316   1.819
    2PC     H3B16284   3.339   5.338   1.776
    2PC     H3C16285   3.379   5.365   1.945
    2PC     C3416286   3.490   5.104   1.951
    2PC     H4A16287   3.578   5.130   1.892
    2PC     H4B16288   3.499   5.145   2.052
    2PC     H4C16289   3.471   4.997   1.960
    2PC     C3516290   3.324   5.088   1.780
    2PC     H5A16291   3.222   5.106   1.747
    2PC     H5B16292   3.319   4.985   1.816
    2PC     H5C16293   3.399   5.094   1.701
    2PC     O3316294   3.167   4.746   2.048
    2PC     O3416295   2.949   4.792   1.978
    2PC     O2116296   3.028   4.827   2.560
    2PC     C2116297   3.143   4.871   2.614
    2PC     O2216298   3.215   4.951   2.559
    3OL     C1216299   3.182   4.796   2.740
    3OL     H2R16300   3.113   4.713   2.755
    3OL     H2S16301   3.195   4.868   2.821
    3OL     C1316302   3.319   4.733   2.710
    3OL     H3R16303   3.387   4.813   2.681
    3OL     H3S16304   3.313   4.657   2.633
    3OL     C1416305   3.387   4.663   2.828
    3OL     H4R16306   3.482   4.627   2.787
    3OL     H4S16307   3.333   4.578   2.871
    3OL     C1516308   3.420   4.751   2.949
    3OL     H5R16309   3.328   4.777   3.002
    3OL     H5S16310   3.465   4.841   2.908
    3OL     C1616311   3.508   4.681   3.054
    3OL     H6R16312   3.590   4.636   2.997
    3OL     H6S16313   3.445   4.604   3.097
    3OL     C1716314   3.552   4.785   3.158
    3OL     H7R16315   3.465   4.828   3.206
    3OL     H7S16316   3.603   4.866   3.105
    3OL     C1816317   3.648   4.716   3.257
    3OL     H8R16318   3.690   4.796   3.319
    3OL     H8S16319   3.730   4.668   3.204
    3OL     C1916320   3.580   4.616   3.347
    3OL     H9R16321   3.533   4.540   3.285
    3OL    C11016322   3.595   4.606   3.478
    3OL    H10R16323   3.551   4.521   3.529
    3OL    C11116324   3.657   4.708   3.571
    3OL    H11R16325   3.618   4.807   3.547
    3OL    H11S16326   3.763   4.711   3.547
    3OL    C11216327   3.637   4.673   3.719
    3OL    H12R16328   3.704   4.720   3.791
    3OL    H12S16329   3.667   4.568   3.723
    3OL    C11316330   3.495   4.686   3.774
    3OL    H13R16331   3.486   4.619   3.859
    3OL    H13S16332   3.421   4.661   3.697
    3OL    C11416333   3.473   4.829   3.825
    3OL    H14R16334   3.488   4.908   3.751
    3OL    H14S16335   3.539   4.852   3.910
    3OL    C11516336   3.328   4.843   3.874
    3OL    H15R16337   3.262   4.799   3.798
    3OL    H15S16338   3.300   4.948   3.879
    3OL    C11616339   3.300   4.776   4.009
    3OL    H16R16340   3.348   4.678   4.015
    3OL    H16S16341   3.194   4.749   4.011
    3OL    C11716342   3.334   4.874   4.122
    3OL    H17R16343   3.268   4.961   4.117
    3OL    H17S16344   3.441   4.894   4.118
    3OL    C11816345   3.316   4.816   4.264
    3OL    H18R16346   3.213   4.781   4.276
    3OL    H18S16347   3.338   4.892   4.339
    3OL    H18T16348   3.380   4.729   4.281
    1PA    C11616349   1.775   4.187   3.422
    1PA    H16R16350   1.787   4.216   3.317
    1PA    H16S16351   1.798   4.082   3.440
    1PA    H16T16352   1.833   4.251   3.488
    1PA    C11516353   1.628   4.208   3.460
    1PA    H15R16354   1.564   4.136   3.407
    1PA    H15S16355   1.614   4.203   3.568
    1PA    C11416356   1.595   4.352   3.417
    1PA    H14R16357   1.655   4.416   3.482
    1PA    H14S16358   1.612   4.369   3.311
    1PA    C11316359   1.450   4.387   3.451
    1PA    H13R16360   1.376   4.331   3.393
    1PA    H13S16361   1.436   4.368   3.557
    1PA    C11216362   1.430   4.537   3.428
    1PA    H12R16363   1.488   4.597   3.498
    1PA    H12S16364   1.459   4.557   3.325
    1PA    C11116365   1.281   4.566   3.452
    1PA    H11R16366   1.220   4.503   3.388
    1PA    H11S16367   1.249   4.551   3.555
    1PA    C11016368   1.260   4.711   3.405
    1PA    H10R16369   1.190   4.774   3.460
    1PA    H10S16370   1.358   4.759   3.411
    1PA     C1916371   1.221   4.708   3.257
    1PA     H9R16372   1.303   4.663   3.200
    1PA     H9S16373   1.131   4.646   3.249
    1PA     C1816374   1.181   4.848   3.212
    1PA     H8R16375   1.096   4.881   3.272
    1PA     H8S16376   1.262   4.919   3.229
    1PA     C1716377   1.148   4.851   3.061
    1PA     H7R16378   1.242   4.855   3.006
    1PA     H7S16379   1.100   4.762   3.021
    1PA     C1616380   1.067   4.974   3.020
    1PA     H6R16381   0.968   4.965   3.064
    1PA     H6S16382   1.117   5.057   3.072
    1PA     C1516383   1.063   4.992   2.868
    1PA     H5R16384   1.166   4.991   2.830
    1PA     H5S16385   1.012   4.911   2.815
    1PA     C1416386   0.991   5.118   2.818
    1PA     H4R16387   0.895   5.125   2.869
    1PA     H4S16388   1.059   5.201   2.842
    1PA     C1316389   0.964   5.117   2.667
    1PA     H3R16390   1.059   5.106   2.614
    1PA     H3S16391   0.903   5.028   2.649
    1PA     C1216392   0.889   5.240   2.615
    1PA     H2R16393   0.807   5.260   2.685
    1PA     H2S16394   0.951   5.327   2.638
    2PC     C1116395   0.848   5.229   2.471
    2PC     O1216396   0.900   5.305   2.391
    2PC     O1116397   0.751   5.143   2.436
    2PC      C116398   0.731   5.116   2.296
    2PC      HR16399   0.643   5.051   2.299
    2PC      HS16400   0.691   5.206   2.247
    2PC      C216401   0.852   5.045   2.234
    2PC      HX16402   0.933   5.116   2.254
    2PC      C316403   0.835   5.020   2.084
    2PC      HA16404   0.827   5.120   2.040
    2PC      HB16405   0.925   4.977   2.038
    2PC     O3116406   0.725   4.934   2.051
    2PC     P3116407   0.739   4.833   1.928
    2PC     O3216408   0.753   4.925   1.797
    2PC     C3116409   0.641   5.000   1.747
    2PC     H1A16410   0.576   4.937   1.686
    2PC     H1B16411   0.582   5.058   1.820
    2PC     C3216412   0.694   5.098   1.642
    2PC     H2A16413   0.776   5.049   1.589
    2PC     H2B16414   0.615   5.116   1.568
    2PC     N3116415   0.742   5.233   1.686
    2PC     C3316416   0.816   5.284   1.566
    2PC     H3A16417   0.836   5.390   1.584
    2PC     H3B16418   0.915   5.238   1.567
    2PC     H3C16419   0.766   5.272   1.470
    2PC     C3416420   0.629   5.327   1.715
    2PC     H4A16421   0.662   5.431   1.711
    2PC     H4B16422   0.544   5.318   1.646
    2PC     H4C16423   0.598   5.312   1.818
    2PC     C3516424   0.838   5.235   1.801
    2PC     H5A16425   0.901   5.147   1.787
    2PC     H5B16426   0.780   5.234   1.893
    2PC     H5C16427   0.900   5.325   1.795
    2PC     O3316428   0.851   4.737   1.931
    2PC     O3416429   0.624   4.739   1.920
    2PC     O2116430   0.873   4.926   2.312
    2PC     C2116431   0.989   4.860   2.299
    2PC     O2216432   1.077   4.892   2.222
    3OL     C1216433   0.992   4.736   2.386
    3OL     H2R16434   1.043   4.659   2.329
    3OL     H2S16435   0.890   4.699   2.395
    3OL     C1316436   1.064   4.759   2.519
    3OL     H3R16437   1.015   4.843   2.569
    3OL     H3S16438   1.167   4.786   2.495
    3OL     C1416439   1.065   4.633   2.607
    3OL     H4R16440   0.961   4.601   2.610
    3OL     H4S16441   1.098   4.660   2.707
    3OL     C1516442   1.146   4.515   2.552
    3OL     H5R16443   1.111   4.478   2.455
    3OL     H5S16444   1.121   4.435   2.622
    3OL     C1616445   1.299   4.529   2.538
    3OL     H6R16446   1.330   4.594   2.455
    3OL     H6S16447   1.340   4.433   2.507
    3OL     C1716448   1.365   4.569   2.670
    3OL     H7R16449   1.319   4.667   2.685
    3OL     H7S16450   1.473   4.581   2.654
    3OL     C1816451   1.338   4.468   2.782
    3OL     H8R16452   1.365   4.367   2.749
    3OL     H8S16453   1.230   4.468   2.799
    3OL     C1916454   1.403   4.511   2.912
    3OL     H9R16455   1.369   4.608   2.948
    3OL    C11016456   1.470   4.429   2.991
    3OL    H10R16457   1.504   4.465   3.088
    3OL    C11116458   1.544   4.305   2.949
    3OL    H11R16459   1.651   4.313   2.967
    3OL    H11S16460   1.534   4.282   2.842
    3OL    C11216461   1.483   4.184   3.022
    3OL    H12R16462   1.464   4.219   3.123
    3OL    H12S16463   1.557   4.105   3.026
    3OL    C11316464   1.348   4.140   2.963
    3OL    H13R16465   1.360   4.136   2.855
    3OL    H13S16466   1.272   4.216   2.982
    3OL    C11416467   1.307   4.002   3.018
    3OL    H14R16468   1.363   3.920   2.974
    3OL    H14S16469   1.205   3.985   2.982
    3OL    C11516470   1.312   4.003   3.171
    3OL    H15R16471   1.296   4.107   3.202
    3OL    H15S16472   1.416   3.993   3.201
    3OL    C11616473   1.223   3.894   3.233
    3OL    H16R16474   1.273   3.798   3.217
    3OL    H16S16475   1.126   3.889   3.184
    3OL    C11716476   1.209   3.903   3.386
    3OL    H17R16477   1.155   3.989   3.426
    3OL    H17S16478   1.311   3.905   3.426
    3OL    C11816479   1.144   3.778   3.445
    3OL    H18R16480   1.163   3.783   3.553
    3OL    H18S16481   1.201   3.690   3.416
    3OL    H18T16482   1.041   3.764   3.412
    1PA    C11616483   3.325   5.767   3.234
    1PA    H16R16484   3.233   5.754   3.292
    1PA    H16S16485   3.370   5.668   3.243
    1PA    H16T16486   3.301   5.806   3.135
    1PA    C11516487   3.409   5.872   3.309
    1PA    H15R16488   3.361   5.969   3.297
    1PA    H15S16489   3.406   5.859   3.417
    1PA    C11416490   3.553   5.872   3.256
    1PA    H14R16491   3.591   5.771   3.273
    1PA    H14S16492   3.551   5.901   3.150
    1PA    C11316493   3.650   5.962   3.333
    1PA    H13R16494   3.603   6.060   3.342
    1PA    H13S16495   3.666   5.925   3.434
    1PA    C11216496   3.785   5.984   3.263
    1PA    H12R16497   3.775   6.001   3.156
    1PA    H12S16498   3.819   6.080   3.302
    1PA    C11116499   3.897   5.881   3.289
    1PA    H11R16500   3.914   5.867   3.396
    1PA    H11S16501   3.863   5.781   3.261
    1PA    C11016502   4.020   5.916   3.204
    1PA    H10R16503   3.983   5.951   3.107
    1PA    H10S16504   4.080   5.998   3.243
    1PA     C1916505   4.104   5.790   3.179
    1PA     H9R16506   4.174   5.771   3.261
    1PA     H9S16507   4.044   5.702   3.158
    1PA     C1816508   4.192   5.820   3.057
    1PA     H8R16509   4.242   5.916   3.074
    1PA     H8S16510   4.275   5.749   3.058
    1PA     C1716511   4.126   5.809   2.918
    1PA     H7R16512   4.090   5.707   2.904
    1PA     H7S16513   4.046   5.881   2.903
    1PA     C1616514   4.228   5.818   2.804
    1PA     H6R16515   4.294   5.732   2.815
    1PA     H6S16516   4.173   5.811   2.709
    1PA     C1516517   4.318   5.942   2.813
    1PA     H5R16518   4.252   6.027   2.831
    1PA     H5S16519   4.390   5.925   2.894
    1PA     C1416520   4.393   5.955   2.680
    1PA     H4R16521   4.474   6.028   2.685
    1PA     H4S16522   4.447   5.862   2.659
    1PA     C1316523   4.307   5.983   2.556
    1PA     H3R16524   4.243   5.900   2.527
    1PA     H3S16525   4.250   6.070   2.588
    1PA     C1216526   4.400   6.017   2.438
    1PA     H2R16527   4.455   6.104   2.474
    1PA     H2S16528   4.469   5.934   2.423
    2PC     C1116529   4.323   6.040   2.310
    2PC     O1216530   4.376   6.023   2.202
    2PC     O1116531   4.206   6.101   2.332
    2PC      C116532   4.137   6.149   2.215
    2PC      HR16533   4.066   6.221   2.255
    2PC      HS16534   4.211   6.205   2.157
    2PC      C216535   4.063   6.035   2.145
    2PC      HX16536   4.128   5.947   2.136
    2PC      C316537   4.032   6.079   2.001
    2PC      HA16538   4.125   6.110   1.953
    2PC      HB16539   3.977   5.992   1.964
    2PC     O3116540   3.942   6.192   1.999
    2PC     P3116541   3.870   6.229   1.861
    2PC     O3216542   3.785   6.350   1.923
    2PC     C3116543   3.856   6.474   1.939
    2PC     H1A16544   3.936   6.466   2.013
    2PC     H1B16545   3.884   0.022   1.840
    2PC     C3216546   3.752   0.081   1.999
    2PC     H2A16547   3.684   0.034   2.070
    2PC     H2B16548   3.817   0.145   2.059
    2PC     N3116549   3.680   0.173   1.905
    2PC     C3316550   3.630   0.108   1.780
    2PC     H3A16551   3.708   0.053   1.727
    2PC     H3B16552   3.570   0.023   1.815
    2PC     H3C16553   3.566   0.169   1.717
    2PC     C3416554   3.561   0.222   1.982
    2PC     H4A16555   3.501   0.285   1.916
    2PC     H4B16556   3.491   0.142   2.010
    2PC     H4C16557   3.596   0.280   2.067
    2PC     C3516558   3.767   0.287   1.860
    2PC     H5A16559   3.848   0.261   1.793
    2PC     H5B16560   3.804   0.332   1.952
    2PC     H5C16561   3.708   0.368   1.817
    2PC     O3316562   3.967   6.261   1.753
    2PC     O3416563   3.790   6.117   1.808
    2PC     O2116564   3.940   5.983   2.197
    2PC     C2116565   3.947   5.893   2.297
    2PC     O2216566   4.051   5.846   2.339
    3OL     C1216567   3.807   5.850   2.331
    3OL     H2R16568   3.769   5.852   2.228
    3OL     H2S16569   3.748   5.925   2.383
    3OL     C1316570   3.782   5.708   2.385
    3OL     H3R16571   3.848   5.633   2.341
    3OL     H3S16572   3.677   5.685   2.366
    3OL     C1416573   3.807   5.693   2.535
    3OL     H4R16574   3.742   5.762   2.591
    3OL     H4S16575   3.912   5.717   2.551
    3OL     C1516576   3.767   5.549   2.572
    3OL     H5R16577   3.668   5.522   2.533
    3OL     H5S16578   3.750   5.537   2.680
    3OL     C1616579   3.864   5.438   2.530
    3OL     H6R16580   3.851   5.421   2.423
    3OL     H6S16581   3.843   5.353   2.594
    3OL     C1716582   4.011   5.458   2.570
    3OL     H7R16583   4.046   5.552   2.527
    3OL     H7S16584   4.067   5.367   2.545
    3OL     C1816585   4.025   5.470   2.722
    3OL     H8R16586   3.937   5.509   2.775
    3OL     H8S16587   4.109   5.538   2.739
    3OL     C1916588   4.054   5.329   2.766
    3OL     H9R16589   3.966   5.265   2.756
    3OL    C11016590   4.169   5.273   2.799
    3OL    H10R16591   4.161   5.168   2.828
    3OL    C11116592   4.299   5.343   2.830
    3OL    H11R16593   4.319   5.429   2.765
    3OL    H11S16594   4.386   5.280   2.812
    3OL    C11216595   4.302   5.400   2.972
    3OL    H12R16596   4.217   5.468   2.979
    3OL    H12S16597   4.387   5.464   2.995
    3OL    C11316598   4.296   5.290   3.080
    3OL    H13R16599   4.380   5.224   3.058
    3OL    H13S16600   4.203   5.233   3.075
    3OL    C11416601   4.300   5.354   3.220
    3OL    H14R16602   4.213   5.420   3.227
    3OL    H14S16603   4.395   5.408   3.233
    3OL    C11516604   4.302   5.243   3.326
    3OL    H15R16605   4.389   5.178   3.317
    3OL    H15S16606   4.212   5.184   3.314
    3OL    C11616607   4.299   5.294   3.471
    3OL    H16R16608   4.215   5.364   3.471
    3OL    H16S16609   4.389   5.350   3.497
    3OL    C11716610   4.294   5.170   3.560
    3OL    H17R16611   4.390   5.119   3.548
    3OL    H17S16612   4.216   5.096   3.541
    3OL    C11816613   4.282   5.222   3.704
    3OL    H18R16614   4.181   5.263   3.715
    3OL    H18S16615   4.361   5.292   3.732
    3OL    H18T16616   4.279   5.140   3.777
    1PA    C11616617   1.748   6.401   3.644
    1PA    H16R16618   1.815   6.487   3.643
    1PA    H16S16619   1.769   6.320   3.574
    1PA    H16T16620   1.750   6.359   3.745
    1PA    C11516621   1.608   6.454   3.610
    1PA    H15R16622   1.537   6.372   3.595
    1PA    H15S16623   1.579   0.028   3.695
    1PA    C11416624   1.609   0.054   3.484
    1PA    H14R16625   1.510   0.082   3.447
    1PA    H14S16626   1.654   0.149   3.515
    1PA    C11316627   1.699   6.488   3.372
    1PA    H13R16628   1.803   0.005   3.406
    1PA    H13S16629   1.679   6.384   3.349
    1PA    C11216630   1.675   0.070   3.238
    1PA    H12R16631   1.569   0.076   3.214
    1PA    H12S16632   1.693   0.177   3.249
    1PA    C11116633   1.758   0.013   3.122
    1PA    H11R16634   1.861   6.477   3.149
    1PA    H11S16635   1.715   6.404   3.099
    1PA    C11016636   1.756   0.097   2.994
    1PA    H10R16637   1.653   0.093   2.959
    1PA    H10S16638   1.776   0.202   3.016
    1PA     C1916639   1.845   0.038   2.884
    1PA     H9R16640   1.947   0.027   2.920
    1PA     H9S16641   1.805   6.427   2.865
    1PA     C1816642   1.844   0.128   2.759
    1PA     H8R16643   1.738   0.143   2.738
    1PA     H8S16644   1.906   0.212   2.790
    1PA     C1716645   1.900   0.065   2.631
    1PA     H7R16646   1.873   0.132   2.549
    1PA     H7S16647   2.009   0.070   2.631
    1PA     C1616648   1.865   6.406   2.609
    1PA     H6R16649   1.895   6.339   2.690
    1PA     H6S16650   1.757   6.388   2.601
    1PA     C1516651   1.927   6.359   2.476
    1PA     H5R16652   1.840   6.370   2.411
    1PA     H5S16653   1.991   6.436   2.432
    1PA     C1416654   1.974   6.213   2.469
    1PA     H4R16655   2.055   6.217   2.543
    1PA     H4S16656   1.892   6.153   2.507
    1PA     C1316657   2.032   6.167   2.335
    1PA     H3R16658   1.945   6.174   2.268
    1PA     H3S16659   2.115   6.231   2.306
    1PA     C1216660   2.078   6.022   2.350
    1PA     H2R16661   2.148   6.007   2.433
    1PA     H2S16662   1.998   5.948   2.361
    2PC     C1116663   2.137   5.975   2.220
    2PC     O1216664   2.105   6.017   2.111
    2PC     O1116665   2.229   5.878   2.235
    2PC      C116666   2.289   5.816   2.119
    2PC      HR16667   2.351   5.731   2.150
    2PC      HS16668   2.217   5.771   2.051
    2PC      C216669   2.382   5.904   2.034
    2PC      HX16670   2.311   5.977   1.995
    2PC      C316671   2.445   5.830   1.915
    2PC      HA16672   2.377   5.785   1.842
    2PC      HB16673   2.503   5.907   1.865
    2PC     O3116674   2.525   5.728   1.977
    2PC     P3116675   2.642   5.663   1.889
    2PC     O3216676   2.662   5.529   1.974
    2PC     C3116677   2.653   5.410   1.894
    2PC     H1A16678   2.554   5.421   1.847
    2PC     H1B16679   2.735   5.403   1.823
    2PC     C3216680   2.653   5.284   1.982
    2PC     H2A16681   2.588   5.303   2.068
    2PC     H2B16682   2.628   5.199   1.919
    2PC     N3116683   2.780   5.235   2.044
    2PC     C3316684   2.891   5.220   1.944
    2PC     H3A16685   2.855   5.142   1.877
    2PC     H3B16686   2.905   5.316   1.894
    2PC     H3C16687   2.975   5.188   2.006
    2PC     C3416688   2.822   5.339   2.143
    2PC     H4A16689   2.924   5.316   2.174
    2PC     H4B16690   2.816   5.438   2.098
    2PC     H4C16691   2.755   5.338   2.229
    2PC     C3516692   2.762   5.108   2.122
    2PC     H5A16693   2.689   5.137   2.197
    2PC     H5B16694   2.856   5.093   2.176
    2PC     H5C16695   2.741   5.025   2.053
    2PC     O3316696   2.583   5.639   1.756
    2PC     O3416697   2.765   5.745   1.874
    2PC     O2116698   2.482   5.963   2.119
    2PC     C2116699   2.536   6.074   2.067
    2PC     O2216700   2.498   6.133   1.968
    3OL     C1216701   2.662   6.118   2.138
    3OL     H2R16702   2.649   6.226   2.137
    3OL     H2S16703   2.750   6.088   2.081
    3OL     C1316704   2.668   6.080   2.287
    3OL     H3R16705   2.697   5.975   2.293
    3OL     H3S16706   2.574   6.107   2.335
    3OL     C1416707   2.774   6.170   2.354
    3OL     H4R16708   2.730   6.270   2.350
    3OL     H4S16709   2.864   6.170   2.293
    3OL     C1516710   2.791   6.126   2.499
    3OL     H5R16711   2.820   6.020   2.496
    3OL     H5S16712   2.699   6.124   2.558
    3OL     C1616713   2.903   6.208   2.566
    3OL     H6R16714   2.987   6.213   2.497
    3OL     H6S16715   2.934   6.153   2.655
    3OL     C1716716   2.854   6.345   2.614
    3OL     H7R16717   2.767   6.331   2.678
    3OL     H7S16718   2.823   6.400   2.524
    3OL     C1816719   2.960   6.413   2.701
    3OL     H8R16720   2.923   0.023   2.729
    3OL     H8S16721   3.053   6.439   2.649
    3OL     C1916722   2.985   6.355   2.838
    3OL     H9R16723   2.911   6.359   2.917
    3OL    C11016724   3.103   6.305   2.871
    3OL    H10R16725   3.116   6.265   2.971
    3OL    C11116726   3.206   6.263   2.769
    3OL    H11R16727   3.289   6.328   2.798
    3OL    H11S16728   3.193   6.287   2.663
    3OL    C11216729   3.245   6.115   2.780
    3OL    H12R16730   3.163   6.054   2.743
    3OL    H12S16731   3.242   6.081   2.884
    3OL    C11316732   3.378   6.090   2.708
    3OL    H13R16733   3.461   6.148   2.750
    3OL    H13S16734   3.375   6.122   2.604
    3OL    C11416735   3.407   5.939   2.703
    3OL    H14R16736   3.462   5.918   2.611
    3OL    H14S16737   3.309   5.890   2.709
    3OL    C11516738   3.494   5.896   2.822
    3OL    H15R16739   3.451   5.937   2.914
    3OL    H15S16740   3.594   5.938   2.810
    3OL    C11616741   3.505   5.743   2.828
    3OL    H16R16742   3.555   5.706   2.739
    3OL    H16S16743   3.401   5.710   2.841
    3OL    C11716744   3.571   5.689   2.956
    3OL    H17R16745   3.545   5.584   2.964
    3OL    H17S16746   3.514   5.739   3.035
    3OL    C11816747   3.724   5.699   2.952
    3OL    H18R16748   3.754   5.675   3.055
    3OL    H18S16749   3.763   5.799   2.934
    3OL    H18T16750   3.763   5.634   2.874
    1PA    C11616751   0.722   6.349   3.303
    1PA    H16R16752   0.751   6.285   3.387
    1PA    H16S16753   0.737   6.287   3.215
    1PA    H16T16754   0.617   6.379   3.309
    1PA    C11516755   0.816   6.468   3.280
    1PA    H15R16756   0.919   6.433   3.268
    1PA    H15S16757   0.785   0.031   3.188
    1PA    C11416758   0.819   0.088   3.389
    1PA    H14R16759   0.715   0.118   3.405
    1PA    H14S16760   0.858   0.042   3.480
    1PA    C11316761   0.909   0.206   3.350
    1PA    H13R16762   0.852   0.258   3.273
    1PA    H13S16763   0.918   0.275   3.434
    1PA    C11216764   1.050   0.177   3.297
    1PA    H12R16765   1.101   0.116   3.372
    1PA    H12S16766   1.041   0.131   3.198
    1PA    C11116767   1.134   0.303   3.275
    1PA    H11R16768   1.077   0.375   3.216
    1PA    H11S16769   1.145   0.358   3.369
    1PA    C11016770   1.267   0.272   3.204
    1PA    H10R16771   1.341   0.348   3.229
    1PA    H10S16772   1.300   0.173   3.236
    1PA     C1916773   1.260   0.267   3.051
    1PA     H9R16774   1.193   0.188   3.018
    1PA     H9S16775   1.219   0.365   3.027
    1PA     C1816776   1.399   0.239   2.991
    1PA     H8R16777   1.477   0.308   3.022
    1PA     H8S16778   1.432   0.140   3.025
    1PA     C1716779   1.394   0.235   2.838
    1PA     H7R16780   1.479   0.185   2.791
    1PA     H7S16781   1.303   0.181   2.812
    1PA     C1616782   1.372   0.375   2.778
    1PA     H6R16783   1.353   0.366   2.671
    1PA     H6S16784   1.287   0.424   2.824
    1PA     C1516785   1.493   0.468   2.793
    1PA     H5R16786   1.501   0.488   2.900
    1PA     H5S16787   1.579   0.411   2.758
    1PA     C1416788   1.477   0.605   2.726
    1PA     H4R16789   1.404   0.661   2.786
    1PA     H4S16790   1.571   0.660   2.737
    1PA     C1316791   1.440   0.595   2.578
    1PA     H3R16792   1.511   0.531   2.524
    1PA     H3S16793   1.339   0.557   2.565
    1PA     C1216794   1.448   0.736   2.517
    1PA     H2R16795   1.380   0.807   2.565
    1PA     H2S16796   1.552   0.768   2.530
    2PC     C1116797   1.423   0.730   2.369
    2PC     O1216798   1.438   0.628   2.305
    2PC     O1116799   1.368   0.846   2.331
    2PC      C116800   1.341   0.875   2.192
    2PC      HR16801   1.311   0.787   2.134
    2PC      HS16802   1.257   0.945   2.183
    2PC      C216803   1.472   0.923   2.129
    2PC      HX16804   1.516   1.008   2.183
    2PC      C316805   1.452   0.977   1.987
    2PC      HA16806   1.396   1.071   1.988
    2PC      HB16807   1.552   0.995   1.949
    2PC     O3116808   1.385   0.880   1.904
    2PC     P3116809   1.469   0.787   1.804
    2PC     O3216810   1.500   0.656   1.890
    2PC     C3116811   1.398   0.562   1.928
    2PC     H1A16812   1.333   0.602   2.007
    2PC     H1B16813   1.358   0.531   1.831
    2PC     C3216814   1.477   0.440   1.975
    2PC     H2A16815   1.568   0.470   2.027
    2PC     H2B16816   1.418   0.393   2.053
    2PC     N3116817   1.510   0.337   1.870
    2PC     C3316818   1.619   0.246   1.918
    2PC     H3A16819   1.700   0.315   1.944
    2PC     H3B16820   1.577   0.182   1.996
    2PC     H3C16821   1.666   0.189   1.838
    2PC     C3416822   1.381   0.272   1.832
    2PC     H4A16823   1.409   0.180   1.781
    2PC     H4B16824   1.332   0.256   1.928
    2PC     H4C16825   1.320   0.337   1.768
    2PC     C3516826   1.563   0.403   1.746
    2PC     H5A16827   1.656   0.457   1.762
    2PC     H5B16828   1.497   0.483   1.712
    2PC     H5C16829   1.584   0.336   1.663
    2PC     O3316830   1.421   0.752   1.668
    2PC     O3416831   1.597   0.852   1.766
    2PC     O2116832   1.561   0.810   2.132
    2PC     C2116833   1.691   0.833   2.108
    2PC     O2216834   1.737   0.943   2.084
    3OL     C1216835   1.781   0.713   2.115
    3OL     H2R16836   1.786   0.658   2.021
    3OL     H2S16837   1.745   0.638   2.186
    3OL     C1316838   1.924   0.747   2.160
    3OL     H3R16839   1.916   0.807   2.251
    3OL     H3S16840   1.975   0.803   2.082
    3OL     C1416841   2.013   0.624   2.184
    3OL     H4R16842   2.115   0.657   2.204
    3OL     H4S16843   2.023   0.564   2.093
    3OL     C1516844   1.984   0.526   2.298
    3OL     H5R16845   2.066   0.459   2.327
    3OL     H5S16846   1.902   0.458   2.271
    3OL     C1616847   1.932   0.587   2.429
    3OL     H6R16848   1.835   0.634   2.411
    3OL     H6S16849   2.003   0.663   2.461
    3OL     C1716850   1.902   0.474   2.528
    3OL     H7R16851   1.991   0.412   2.545
    3OL     H7S16852   1.828   0.413   2.476
    3OL     C1816853   1.852   0.520   2.666
    3OL     H8R16854   1.817   0.433   2.722
    3OL     H8S16855   1.767   0.586   2.648
    3OL     C1916856   1.962   0.587   2.744
    3OL     H9R16857   2.041   0.636   2.689
    3OL    C11016858   1.964   0.579   2.877
    3OL    H10R16859   2.051   0.615   2.932
    3OL    C11116860   1.857   0.516   2.962
    3OL    H11R16861   1.900   0.416   2.972
    3OL    H11S16862   1.758   0.509   2.918
    3OL    C11216863   1.839   0.575   3.103
    3OL    H12R16864   1.793   0.673   3.097
    3OL    H12S16865   1.933   0.590   3.156
    3OL    C11316866   1.749   0.473   3.174
    3OL    H13R16867   1.797   0.375   3.174
    3OL    H13S16868   1.659   0.462   3.113
    3OL    C11416869   1.723   0.526   3.316
    3OL    H14R16870   1.686   0.628   3.306
    3OL    H14S16871   1.814   0.533   3.377
    3OL    C11516872   1.619   0.445   3.394
    3OL    H15R16873   1.614   0.339   3.368
    3OL    H15S16874   1.522   0.490   3.373
    3OL    C11616875   1.634   0.453   3.547
    3OL    H16R16876   1.643   0.557   3.577
    3OL    H16S16877   1.732   0.411   3.571
    3OL    C11716878   1.522   0.384   3.625
    3OL    H17R16879   1.572   0.323   3.700
    3OL    H17S16880   1.468   0.314   3.560
    3OL    C11816881   1.439   0.492   3.696
    3OL    H18R16882   1.494   0.543   3.775
    3OL    H18S16883   1.351   0.447   3.741
    3OL    H18T16884   1.397   0.571   3.634
    1PA    C11616885   4.639   6.042   3.737
    1PA    H16R16886   4.611   6.053   3.842
    1PA    H16S16887   4.624   6.142   3.696
    1PA    H16T16888   4.743   6.009   3.738
    1PA    C11516889   4.556   5.939   3.659
    1PA    H15R16890   4.573   5.837   3.694
    1PA    H15S16891   4.450   5.958   3.679
    1PA    C11416892   4.582   5.949   3.508
    1PA    H14R16893   4.559   6.047   3.467
    1PA    H14S16894   4.684   5.922   3.478
    1PA    C11316895   4.496   5.851   3.427
    1PA    H13R16896   4.510   5.749   3.465
    1PA    H13S16897   4.395   5.875   3.460
    1PA    C11216898   4.511   5.856   3.274
    1PA    H12R16899   4.440   5.784   3.232
    1PA    H12S16900   4.491   5.959   3.242
    1PA    C11116901   4.657   5.825   3.237
    1PA    H11R16902   4.717   5.904   3.283
    1PA    H11S16903   4.697   5.736   3.285
    1PA    C11016904   4.679   5.824   3.085
    1PA    H10R16905   4.626   5.908   3.041
    1PA    H10S16906   4.785   5.833   3.063
    1PA     C1916907   4.627   5.693   3.022
    1PA     H9R16908   4.658   5.607   3.082
    1PA     H9S16909   4.519   5.683   3.029
    1PA     C1816910   4.661   5.700   2.872
    1PA     H8R16911   4.625   5.795   2.832
    1PA     H8S16912   4.769   5.690   2.873
    1PA     C1716913   4.598   5.595   2.779
    1PA     H7R16914   4.636   5.498   2.811
    1PA     H7S16915   4.490   5.592   2.795
    1PA     C1616916   4.639   5.626   2.634
    1PA     H6R16917   4.637   5.730   2.601
    1PA     H6S16918   4.746   5.606   2.631
    1PA     C1516919   4.571   5.531   2.536
    1PA     H5R16920   4.632   5.539   2.446
    1PA     H5S16921   4.565   5.432   2.582
    1PA     C1416922   4.431   5.586   2.504
    1PA     H4R16923   4.374   5.572   2.597
    1PA     H4S16924   4.410   5.690   2.480
    1PA     C1316925   4.366   5.496   2.398
    1PA     H3R16926   4.373   5.400   2.449
    1PA     H3S16927   4.261   5.525   2.387
    1PA     C1216928   4.434   5.510   2.261
    1PA     H2R16929   4.418   5.614   2.230
    1PA     H2S16930   4.542   5.494   2.261
    2PC     C1116931   4.375   5.422   2.154
    2PC     O1216932   4.294   5.335   2.179
    2PC     O1116933   4.433   5.451   2.036
    2PC      C116934   4.403   5.382   1.913
    2PC      HR16935   4.295   5.384   1.896
    2PC      HS16936   4.455   5.437   1.834
    2PC      C216937   4.458   5.239   1.910
    2PC      HX16938   4.566   5.247   1.914
    2PC      C316939   4.421   5.169   1.778
    2PC      HA16940   4.486   5.198   1.695
    2PC      HB16941   4.445   5.063   1.782
    2PC     O3116942   4.282   5.199   1.756
    2PC     P3116943   4.222   5.192   1.608
    2PC     O3216944   4.280   5.052   1.557
    2PC     C3116945   4.251   5.011   1.421
    2PC     H1A16946   4.145   5.019   1.399
    2PC     H1B16947   4.305   5.084   1.360
    2PC     C3216948   4.308   4.870   1.400
    2PC     H2A16949   4.294   4.841   1.296
    2PC     H2B16950   4.416   4.866   1.419
    2PC     N3116951   4.271   4.768   1.503
    2PC     C3316952   4.352   4.780   1.629
    2PC     H3A16953   4.345   4.680   1.672
    2PC     H3B16954   4.458   4.787   1.602
    2PC     H3C16955   4.319   4.868   1.683
    2PC     C3416956   4.126   4.753   1.540
    2PC     H4A16957   4.061   4.746   1.453
    2PC     H4B16958   4.114   4.669   1.608
    2PC     H4C16959   4.106   4.845   1.595
    2PC     C3516960   4.320   4.637   1.447
    2PC     H5A16961   4.428   4.631   1.454
    2PC     H5B16962   4.293   4.636   1.342
    2PC     H5C16963   4.261   4.557   1.493
    2PC     O3316964   4.074   5.191   1.596
    2PC     O3416965   4.274   5.307   1.531
    2PC     O2116966   4.415   5.152   2.017
    2PC     C2116967   4.461   5.031   2.050
    2PC     O2216968   4.553   4.972   1.994
    3OL     C1216969   4.382   4.974   2.165
    3OL     H2R16970   4.363   4.867   2.153
    3OL     H2S16971   4.283   5.020   2.161
    3OL     C1316972   4.445   5.021   2.297
    3OL     H3R16973   4.442   5.130   2.302
    3OL     H3S16974   4.553   5.004   2.294
    3OL     C1416975   4.384   4.960   2.424
    3OL     H4R16976   4.379   4.851   2.416
    3OL     H4S16977   4.281   4.993   2.440
    3OL     C1516978   4.464   5.003   2.547
    3OL     H5R16979   4.480   5.111   2.551
    3OL     H5S16980   4.558   4.947   2.547
    3OL     C1616981   4.402   4.959   2.680
    3OL     H6R16982   4.371   4.854   2.676
    3OL     H6S16983   4.317   5.026   2.699
    3OL     C1716984   4.503   4.970   2.795
    3OL     H7R16985   4.561   5.063   2.797
    3OL     H7S16986   4.581   4.901   2.761
    3OL     C1816987   4.435   4.954   2.931
    3OL     H8R16988   4.403   4.849   2.935
    3OL     H8S16989   4.344   5.013   2.942
    3OL     C1916990   4.518   4.996   3.049
    3OL     H9R16991   4.519   5.103   3.068
    3OL    C11016992   4.577   4.915   3.136
    3OL    H10R16993   4.641   4.961   3.211
    3OL    C11116994   4.597   4.767   3.122
    3OL    H11R16995   4.703   4.748   3.107
    3OL    H11S16996   4.542   4.728   3.036
    3OL    C11216997   4.538   4.684   3.238
    3OL    H12R16998   4.610   4.676   3.320
    3OL    H12S16999   4.526   4.579   3.209
    3OL    C11317000   4.405   4.729   3.299
    3OL    H13R17001   4.336   4.733   3.214
    3OL    H13S17002   4.419   4.830   3.336
    3OL    C11417003   4.348   4.631   3.402
    3OL    H14R17004   4.436   4.611   3.463
    3OL    H14S17005   4.340   4.532   3.358
    3OL    C11517006   4.219   4.670   3.477
    3OL    H15R17007   4.140   4.705   3.411
    3OL    H15S17008   4.257   4.753   3.538
    3OL    C11617009   4.170   4.552   3.562
    3OL    H16R17010   4.120   4.601   3.646
    3OL    H16S17011   4.250   4.490   3.603
    3OL    C11717012   4.055   4.476   3.495
    3OL    H17R17013   4.079   4.454   3.391
    3OL    H17S17014   3.969   4.542   3.509
    3OL    C11817015   4.024   4.336   3.550
    3OL    H18R17016   4.044   4.333   3.657
    3OL    H18S17017   4.091   4.263   3.505
    3OL    H18T17018   3.919   4.308   3.538
    1PA    C11617019   3.500   6.015   3.845
    1PA    H16R17020   3.456   5.945   3.915
    1PA    H16S17021   3.559   6.086   3.905
    1PA    H16T17022   3.576   5.963   3.786
    1PA    C11517023   3.392   6.081   3.758
    1PA    H15R17024   3.337   6.005   3.701
    1PA    H15S17025   3.331   6.135   3.830
    1PA    C11417026   3.460   6.181   3.663
    1PA    H14R17027   3.534   6.250   3.705
    1PA    H14S17028   3.504   6.115   3.588
    1PA    C11317029   3.359   6.257   3.576
    1PA    H13R17030   3.293   6.188   3.521
    1PA    H13S17031   3.303   6.318   3.647
    1PA    C11217032   3.421   6.352   3.473
    1PA    H12R17033   3.483   6.432   3.515
    1PA    H12S17034   3.490   6.296   3.409
    1PA    C11117035   3.314   6.413   3.382
    1PA    H11R17036   3.259   6.335   3.328
    1PA    H11S17037   3.243   6.475   3.437
    1PA    C11017038   3.362   0.028   3.279
    1PA    H10R17039   3.438   0.091   3.326
    1PA    H10S17040   3.425   6.459   3.212
    1PA     C1917041   3.262   0.116   3.203
    1PA     H9R17042   3.173   0.057   3.185
    1PA     H9S17043   3.235   0.203   3.263
    1PA     C1817044   3.326   0.156   3.068
    1PA     H8R17045   3.422   0.204   3.087
    1PA     H8S17046   3.355   0.073   3.004
    1PA     C1717047   3.228   0.244   2.989
    1PA     H7R17048   3.141   0.179   2.978
    1PA     H7S17049   3.197   0.329   3.050
    1PA     C1617050   3.295   0.285   2.857
    1PA     H6R17051   3.268   0.385   2.823
    1PA     H6S17052   3.403   0.284   2.871
    1PA     C1517053   3.257   0.185   2.747
    1PA     H5R17054   3.261   0.080   2.780
    1PA     H5S17055   3.157   0.205   2.709
    1PA     C1417056   3.352   0.207   2.629
    1PA     H4R17057   3.354   0.314   2.605
    1PA     H4S17058   3.459   0.189   2.639
    1PA     C1317059   3.308   0.125   2.507
    1PA     H3R17060   3.199   0.119   2.517
    1PA     H3S17061   3.329   0.174   2.412
    1PA     C1217062   3.361   6.469   2.507
    1PA     H2R17063   3.469   6.482   2.500
    1PA     H2S17064   3.337   6.422   2.602
    2PC     C1117065   3.303   6.390   2.392
    2PC     O1217066   3.237   6.436   2.302
    2PC     O1117067   3.331   6.259   2.407
    2PC      C117068   3.309   6.174   2.293
    2PC      HR17069   3.305   6.072   2.332
    2PC      HS17070   3.213   6.200   2.248
    2PC      C217071   3.429   6.201   2.202
    2PC      HX17072   3.405   6.303   2.171
    2PC      C317073   3.423   6.104   2.083
    2PC      HA17074   3.334   6.121   2.023
    2PC      HB17075   3.513   6.112   2.021
    2PC     O3117076   3.425   5.967   2.127
    2PC     P3117077   3.439   5.846   2.022
    2PC     O3217078   3.588   5.791   2.041
    2PC     C3117079   3.692   5.853   1.963
    2PC     H1A17080   3.663   5.874   1.859
    2PC     H1B17081   3.718   5.945   2.015
    2PC     C3217082   3.809   5.754   1.962
    2PC     H2A17083   3.870   5.792   1.880
    2PC     H2B17084   3.862   5.760   2.057
    2PC     N3117085   3.785   5.610   1.925
    2PC     C3317086   3.914   5.542   1.892
    2PC     H3A17087   3.991   5.614   1.863
    2PC     H3B17088   3.945   5.503   1.989
    2PC     H3C17089   3.902   5.463   1.817
    2PC     C3417090   3.713   5.529   2.028
    2PC     H4A17091   3.777   5.505   2.113
    2PC     H4B17092   3.627   5.590   2.056
    2PC     H4C17093   3.679   5.438   1.978
    2PC     C3517094   3.704   5.609   1.799
    2PC     H5A17095   3.673   5.505   1.787
    2PC     H5B17096   3.765   5.629   1.710
    2PC     H5C17097   3.626   5.685   1.806
    2PC     O3317098   3.350   5.736   2.066
    2PC     O3417099   3.399   5.882   1.884
    2PC     O2117100   3.549   6.171   2.276
    2PC     C2117101   3.628   6.270   2.322
    2PC     O2217102   3.614   6.387   2.295
    3OL     C1217103   3.733   6.218   2.417
    3OL     H2R17104   3.813   6.170   2.360
    3OL     H2S17105   3.690   6.146   2.488
    3OL     C1317106   3.791   6.326   2.509
    3OL     H3R17107   3.718   6.382   2.568
    3OL     H3S17108   3.815   6.415   2.449
    3OL     C1417109   3.914   6.284   2.590
    3OL     H4R17110   3.996   6.255   2.525
    3OL     H4S17111   3.889   6.195   2.648
    3OL     C1517112   3.972   6.391   2.684
    3OL     H5R17113   3.905   6.413   2.767
    3OL     H5S17114   4.000   6.480   2.628
    3OL     C1617115   4.088   6.328   2.762
    3OL     H6R17116   4.163   6.310   2.685
    3OL     H6S17117   4.061   6.230   2.802
    3OL     C1717118   4.165   6.412   2.865
    3OL     H7R17119   4.110   6.421   2.960
    3OL     H7S17120   4.190   0.021   2.822
    3OL     C1817121   4.293   6.336   2.900
    3OL     H8R17122   4.355   6.315   2.813
    3OL     H8S17123   4.280   6.233   2.935
    3OL     C1917124   4.382   6.417   2.991
    3OL     H9R17125   4.417   0.008   2.926
    3OL    C11017126   4.411   6.393   3.118
    3OL    H10R17127   4.479   6.460   3.172
    3OL    C11117128   4.353   6.276   3.193
    3OL    H11R17129   4.424   6.193   3.188
    3OL    H11S17130   4.268   6.248   3.131
    3OL    C11217131   4.311   6.320   3.334
    3OL    H12R17132   4.223   6.385   3.331
    3OL    H12S17133   4.393   6.359   3.393
    3OL    C11317134   4.254   6.200   3.412
    3OL    H13R17135   4.316   6.112   3.393
    3OL    H13S17136   4.155   6.173   3.375
    3OL    C11417137   4.259   6.240   3.561
    3OL    H14R17138   4.250   6.349   3.568
    3OL    H14S17139   4.356   6.207   3.600
    3OL    C11517140   4.149   6.172   3.644
    3OL    H15R17141   4.170   6.065   3.644
    3OL    H15S17142   4.049   6.194   3.605
    3OL    C11617143   4.163   6.227   3.787
    3OL    H16R17144   4.146   6.334   3.784
    3OL    H16S17145   4.263   6.199   3.822
    3OL    C11717146   4.051   6.179   3.880
    3OL    H17R17147   4.051   6.070   3.884
    3OL    H17S17148   3.956   6.218   3.843
    3OL    C11817149   4.071   6.222   4.026
    3OL    H18R17150   4.155   6.172   4.075
    3OL    H18S17151   3.984   6.198   4.088
    3OL    H18T17152   4.086   6.330   4.036
    4SOL     OW17153   4.497   4.737   5.876
    4SOL    HW117154   4.587   4.743   5.906
    4SOL    HW217155   4.477   4.824   5.841
    5SOL     OW17156   2.773   0.741   1.637
    5SOL    HW117157   2.742   0.808   1.576
    5SOL    HW217158   2.715   0.748   1.712
    6SOL     OW17159   3.182   4.967   5.608
    6SOL    HW117160   3.164   5.024   5.683
    6SOL    HW217161   3.100   4.963   5.560
    7SOL     OW17162   5.874   0.933   6.356
    7SOL    HW117163   5.926   0.882   6.293
    7SOL    HW217164   5.809   0.978   6.302
    8SOL     OW17165   1.166   4.029   1.052
    8SOL    HW117166   1.151   4.116   1.015
    8SOL    HW217167   1.102   3.972   1.008
    9SOL     OW17168   4.629   0.513   0.163
    9SOL    HW117169   4.590   0.531   0.248
    9SOL    HW217170   4.724   0.516   0.178
   10SOL     OW17171   5.349   2.164   1.074
   10SOL    HW117172   5.339   2.257   1.051
   10SOL    HW217173   5.278   2.120   1.029
   11SOL     OW17174   1.593   0.962   6.892
   11SOL    HW117175   1.559   0.874   6.909
   11SOL    HW217176   1.559   0.984   6.805
   12SOL     OW17177   3.187   2.739   6.090
   12SOL    HW117178   3.116   2.700   6.039
   12SOL    HW217179   3.233   2.796   6.027
   13SOL     OW17180   0.562   1.252   7.241
   13SOL    HW117181   0.629   1.260   7.173
   13SOL    HW217182   0.483   1.229   7.193
   14SOL     OW17183   3.764   4.208   5.915
   14SOL    HW117184   3.768   4.232   5.822
   14SOL    HW217185   3.856   4.210   5.944
   15SOL     OW17186   1.454   3.486   0.637
   15SOL    HW117187   1.494   3.462   0.553
   15SOL    HW217188   1.381   3.543   0.613
   16SOL     OW17189   3.678   2.741   0.792
   16SOL    HW117190   3.649   2.767   0.705
   16SOL    HW217191   3.692   2.647   0.787
   17SOL     OW17192   3.317   4.439   7.358
   17SOL    HW117193   3.294   4.508   7.420
   17SOL    HW217194   3.245   4.377   7.363
   18SOL     OW17195   4.689   5.850   6.384
   18SOL    HW117196   4.617   5.910   6.365
   18SOL    HW217197   4.766   5.892   6.346
   19SOL     OW17198   3.816   1.180   0.380
   19SOL    HW117199   3.843   1.262   0.339
   19SOL    HW217200   3.745   1.205   0.439
   20SOL     OW17201   0.621   0.042   7.491
   20SOL    HW117202   0.572   0.119   7.521
   20SOL    HW217203   0.604   0.038   7.397
   21SOL     OW17204   3.890   4.820   7.213
   21SOL    HW117205   3.806   4.847   7.251
   21SOL    HW217206   3.877   4.830   7.119
   22SOL     OW17207   2.262   1.892   1.948
   22SOL    HW117208   2.249   1.831   1.875
   22SOL    HW217209   2.225   1.975   1.918
   23SOL     OW17210   6.380   5.889   1.917
   23SOL    HW117211   6.384   5.959   1.851
   23SOL    HW217212   6.453   5.907   1.975
   24SOL     OW17213   2.519   0.338   0.881
   24SOL    HW117214   2.604   0.375   0.909
   24SOL    HW217215   2.454   0.398   0.918
   25SOL     OW17216   4.068   5.137   1.981
   25SOL    HW117217   4.075   5.174   2.069
   25SOL    HW217218   4.084   5.212   1.923
   26SOL     OW17219   3.132   1.468   6.406
   26SOL    HW117220   3.146   1.484   6.499
   26SOL    HW217221   3.107   1.376   6.401
   27SOL     OW17222   4.693   6.300   6.019
   27SOL    HW117223   4.752   6.271   5.950
   27SOL    HW217224   4.608   6.309   5.976
   28SOL     OW17225   5.948   2.384   6.753
   28SOL    HW117226   5.888   2.459   6.750
   28SOL    HW217227   6.033   2.422   6.772
   29SOL     OW17228   4.734   4.487   0.748
   29SOL    HW117229   4.690   4.511   0.667
   29SOL    HW217230   4.765   4.571   0.783
   30SOL     OW17231   2.988   0.968   6.357
   30SOL    HW117232   2.940   0.918   6.423
   30SOL    HW217233   3.026   0.902   6.299
   31SOL     OW17234   2.837   3.184   5.527
   31SOL    HW117235   2.877   3.206   5.443
   31SOL    HW217236   2.910   3.154   5.581
   32SOL     OW17237   3.843   2.465   1.010
   32SOL    HW117238   3.779   2.433   1.074
   32SOL    HW217239   3.790   2.494   0.936
   33SOL     OW17240   2.721   1.713   6.488
   33SOL    HW117241   2.781   1.788   6.494
   33SOL    HW217242   2.762   1.646   6.543
   34SOL     OW17243   1.980   1.457   7.606
   34SOL    HW117244   1.983   1.548   7.575
   34SOL    HW217245   1.979   1.404   7.526
   35SOL     OW17246   0.921   3.684   0.937
   35SOL    HW117247   0.939   3.778   0.941
   35SOL    HW217248   1.006   3.644   0.923
   36SOL     OW17249   2.511   4.984   7.385
   36SOL    HW117250   2.502   4.988   7.290
   36SOL    HW217251   2.515   5.076   7.412
   37SOL     OW17252   4.648   3.202   7.261
   37SOL    HW117253   4.638   3.268   7.330
   37SOL    HW217254   4.623   3.247   7.181
   38SOL     OW17255   2.671   0.169   6.145
   38SOL    HW117256   2.696   0.085   6.107
   38SOL    HW217257   2.613   0.208   6.079
   39SOL     OW17258   1.188   4.148   0.437
   39SOL    HW117259   1.093   4.154   0.425
   39SOL    HW217260   1.215   4.236   0.462
   40SOL     OW17261   3.682   6.277   0.338
   40SOL    HW117262   3.760   6.245   0.382
   40SOL    HW217263   3.688   6.240   0.249
   41SOL     OW17264   1.750   2.215   1.886
   41SOL    HW117265   1.809   2.288   1.903
   41SOL    HW217266   1.806   2.138   1.890
   42SOL     OW17267   0.331   5.885   7.342
   42SOL    HW117268   0.281   5.804   7.331
   42SOL    HW217269   0.362   5.906   7.253
   43SOL     OW17270   2.107   0.744   7.053
   43SOL    HW117271   2.180   0.696   7.092
   43SOL    HW217272   2.148   0.815   7.004
   44SOL     OW17273   3.325   5.164   2.396
   44SOL    HW117274   3.246   5.217   2.404
   44SOL    HW217275   3.306   5.085   2.447
   45SOL     OW17276   4.188   4.362   1.299
   45SOL    HW117277   4.187   4.326   1.387
   45SOL    HW217278   4.109   4.416   1.294
   46SOL     OW17279   2.200   5.502   1.368
   46SOL    HW117280   2.218   5.558   1.443
   46SOL    HW217281   2.162   5.561   1.303
   47SOL     OW17282   2.234   3.033   6.771
   47SOL    HW117283   2.198   2.948   6.798
   47SOL    HW217284   2.160   3.093   6.778
   48SOL     OW17285   2.477   4.295   1.467
   48SOL    HW117286   2.554   4.336   1.506
   48SOL    HW217287   2.410   4.363   1.468
   49SOL     OW17288   0.213   2.659   0.680
   49SOL    HW117289   0.240   2.751   0.682
   49SOL    HW217290   0.118   2.662   0.692
   50SOL     OW17291   0.048   5.556   1.398
   50SOL    HW117292   0.008   5.538   1.483
   50SOL    HW217293   6.482   5.623   1.359
   51SOL     OW17294   4.824   1.521   0.218
   51SOL    HW117295   4.870   1.506   0.135
   51SOL    HW217296   4.886   1.570   0.271
   52SOL     OW17297   0.129   0.567   6.346
   52SOL    HW117298   0.110   0.593   6.256
   52SOL    HW217299   0.212   0.520   6.341
   53SOL     OW17300   1.712   0.887   7.293
   53SOL    HW117301   1.676   0.943   7.361
   53SOL    HW217302   1.799   0.863   7.325
   54SOL     OW17303   0.133   0.131   1.118
   54SOL    HW117304   0.086   0.208   1.152
   54SOL    HW217305   0.217   0.134   1.162
   55SOL     OW17306   6.418   0.476   0.524
   55SOL    HW117307   6.411   0.391   0.569
   55SOL    HW217308   6.434   0.453   0.432
   56SOL     OW17309   5.066   2.204   6.819
   56SOL    HW117310   5.128   2.185   6.889
   56SOL    HW217311   5.111   2.179   6.739
   57SOL     OW17312   3.771   0.830   2.247
   57SOL    HW117313   3.705   0.771   2.284
   57SOL    HW217314   3.778   0.804   2.155
   58SOL     OW17315   2.447   5.379   1.319
   58SOL    HW117316   2.409   5.296   1.349
   58SOL    HW217317   2.371   5.435   1.304
   59SOL     OW17318   1.592   0.396   5.718
   59SOL    HW117319   1.513   0.444   5.691
   59SOL    HW217320   1.586   0.392   5.813
   60SOL     OW17321   3.891   3.636   1.818
   60SOL    HW117322   3.872   3.547   1.848
   60SOL    HW217323   3.868   3.692   1.892
   61SOL     OW17324   0.244   1.114   0.572
   61SOL    HW117325   0.207   1.065   0.499
   61SOL    HW217326   0.179   1.107   0.641
   62SOL     OW17327   2.626   5.658   4.858
   62SOL    HW117328   2.544   5.625   4.896
   62SOL    HW217329   2.694   5.630   4.919
   63SOL     OW17330   6.327   1.558   6.636
   63SOL    HW117331   6.378   1.638   6.645
   63SOL    HW217332   6.236   1.585   6.651
   64SOL     OW17333   6.321   5.869   7.310
   64SOL    HW117334   6.288   5.956   7.332
   64SOL    HW217335   6.335   5.826   7.394
   65SOL     OW17336   4.625   0.149   6.262
   65SOL    HW117337   4.597   0.149   6.171
   65SOL    HW217338   4.656   0.061   6.279
   66SOL     OW17339   3.213   5.849   6.247
   66SOL    HW117340   3.285   5.868   6.186
   66SOL    HW217341   3.137   5.837   6.190
   67SOL     OW17342   3.446   0.595   7.193
   67SOL    HW117343   3.450   0.500   7.179
   67SOL    HW217344   3.469   0.607   7.285
   68SOL     OW17345   2.577   2.733   0.395
   68SOL    HW117346   2.636   2.729   0.470
   68SOL    HW217347   2.597   2.817   0.353
   69SOL     OW17348   4.010   3.115   0.749
   69SOL    HW117349   3.927   3.145   0.785
   69SOL    HW217350   3.991   3.028   0.714
   70SOL     OW17351   1.061   5.000   1.628
   70SOL    HW117352   1.050   4.997   1.533
   70SOL    HW217353   1.058   4.908   1.655
   71SOL     OW17354   1.974   3.177   2.347
   71SOL    HW117355   1.969   3.220   2.262
   71SOL    HW217356   1.887   3.185   2.385
   72SOL     OW17357   3.557   3.516   6.963
   72SOL    HW117358   3.518   3.579   6.902
   72SOL    HW217359   3.535   3.430   6.926
   73SOL     OW17360   0.976   6.300   5.460
   73SOL    HW117361   1.037   6.249   5.407
   73SOL    HW217362   1.008   6.390   5.454
   74SOL     OW17363   2.310   0.543   0.945
   74SOL    HW117364   2.229   0.539   0.894
   74SOL    HW217365   2.281   0.560   1.035
   75SOL     OW17366   3.174   3.006   7.261
   75SOL    HW117367   3.082   3.033   7.259
   75SOL    HW217368   3.183   2.945   7.188
   76SOL     OW17369   4.541   4.272   6.701
   76SOL    HW117370   4.496   4.190   6.722
   76SOL    HW217371   4.510   4.293   6.612
   77SOL     OW17372   4.329   5.533   6.451
   77SOL    HW117373   4.410   5.500   6.488
   77SOL    HW217374   4.270   5.458   6.452
   78SOL     OW17375   1.159   1.964   1.412
   78SOL    HW117376   1.122   1.986   1.498
   78SOL    HW217377   1.250   1.996   1.416
   79SOL     OW17378   3.113   2.072   2.264
   79SOL    HW117379   3.188   2.013   2.269
   79SOL    HW217380   3.152   2.160   2.264
   80SOL     OW17381   3.237   3.637   5.736
   80SOL    HW117382   3.170   3.649   5.669
   80SOL    HW217383   3.297   3.711   5.723
   81SOL     OW17384   6.230   4.275   1.169
   81SOL    HW117385   6.319   4.308   1.185
   81SOL    HW217386   6.226   4.194   1.219
   82SOL     OW17387   1.623   0.016   0.384
   82SOL    HW117388   1.591   0.025   0.294
   82SOL    HW217389   1.714   6.477   0.375
   83SOL     OW17390   5.116   5.804   0.207
   83SOL    HW117391   5.041   5.844   0.252
   83SOL    HW217392   5.182   5.874   0.203
   84SOL     OW17393   2.213   5.141   6.008
   84SOL    HW117394   2.120   5.125   6.021
   84SOL    HW217395   2.255   5.105   6.085
   85SOL     OW17396   1.700   3.243   2.364
   85SOL    HW117397   1.638   3.265   2.434
   85SOL    HW217398   1.659   3.275   2.284
   86SOL     OW17399   5.279   0.727   7.230
   86SOL    HW117400   5.278   0.632   7.221
   86SOL    HW217401   5.346   0.756   7.169
   87SOL     OW17402   4.525   3.557   7.194
   87SOL    HW117403   4.563   3.492   7.135
   87SOL    HW217404   4.597   3.581   7.253
   88SOL     OW17405   5.565   5.197   5.636
   88SOL    HW117406   5.642   5.201   5.692
   88SOL    HW217407   5.582   5.124   5.576
   89SOL     OW17408   3.439   3.848   0.079
   89SOL    HW117409   3.373   3.798   0.128
   89SOL    HW217410   3.521   3.832   0.126
   90SOL     OW17411   0.944   6.405   2.327
   90SOL    HW117412   0.947   6.443   2.239
   90SOL    HW217413   0.882   6.460   2.375
   91SOL     OW17414   4.082   0.963   7.532
   91SOL    HW117415   4.166   0.945   7.574
   91SOL    HW217416   4.090   1.052   7.499
   92SOL     OW17417   3.906   2.538   6.955
   92SOL    HW117418   3.869   2.452   6.973
   92SOL    HW217419   4.000   2.527   6.963
   93SOL     OW17420   6.187   5.805   2.200
   93SOL    HW117421   6.215   5.896   2.203
   93SOL    HW217422   6.198   5.774   2.290
   94SOL     OW17423   5.800   2.414   1.969
   94SOL    HW117424   5.792   2.370   2.054
   94SOL    HW217425   5.721   2.388   1.921
   95SOL     OW17426   0.433   1.364   6.873
   95SOL    HW117427   0.456   1.272   6.864
   95SOL    HW217428   0.493   1.399   6.938
   96SOL     OW17429   5.049   1.361   1.280
   96SOL    HW117430   5.106   1.429   1.245
   96SOL    HW217431   5.093   1.279   1.258
   97SOL     OW17432   4.623   1.203   6.022
   97SOL    HW117433   4.606   1.132   5.960
   97SOL    HW217434   4.564   1.185   6.095
   98SOL     OW17435   1.764   4.609   6.765
   98SOL    HW117436   1.716   4.649   6.692
   98SOL    HW217437   1.775   4.680   6.828
   99SOL     OW17438   4.495   2.142   6.844
   99SOL    HW117439   4.581   2.184   6.833
   99SOL    HW217440   4.438   2.190   6.784
  100SOL     OW17441   4.080   1.254   5.973
  100SOL    HW117442   4.144   1.262   5.902
  100SOL    HW217443   4.132   1.228   6.049
  101SOL     OW17444   4.688   1.248   0.824
  101SOL    HW117445   4.682   1.328   0.876
  101SOL    HW217446   4.744   1.190   0.876
  102SOL     OW17447   1.109   3.807   1.882
  102SOL    HW117448   1.149   3.845   1.960
  102SOL    HW217449   1.166   3.837   1.810
  103SOL     OW17450   1.353   5.655   0.592
  103SOL    HW117451   1.405   5.621   0.664
  103SOL    HW217452   1.262   5.636   0.615
  104SOL     OW17453   5.979   5.662   0.920
  104SOL    HW117454   6.028   5.745   0.914
  104SOL    HW217455   6.038   5.597   0.883
  105SOL     OW17456   2.385   4.762   1.548
  105SOL    HW117457   2.413   4.783   1.637
  105SOL    HW217458   2.311   4.702   1.560
  106SOL     OW17459   0.131   3.873   0.351
  106SOL    HW117460   0.175   3.840   0.431
  106SOL    HW217461   0.072   3.941   0.382
  107SOL     OW17462   0.583   5.280   6.271
  107SOL    HW117463   0.630   5.252   6.192
  107SOL    HW217464   0.501   5.232   6.268
  108SOL     OW17465   2.797   6.422   7.531
  108SOL    HW117466   2.709   6.459   7.534
  108SOL    HW217467   2.790   6.338   7.575
  109SOL     OW17468   3.762   2.995   1.999
  109SOL    HW117469   3.783   3.047   2.077
  109SOL    HW217470   3.832   2.929   1.994
  110SOL     OW17471   2.052   0.868   1.251
  110SOL    HW117472   2.142   0.861   1.282
  110SOL    HW217473   1.999   0.828   1.320
  111SOL     OW17474   4.526   0.875   1.785
  111SOL    HW117475   4.447   0.927   1.793
  111SOL    HW217476   4.588   0.915   1.846
  112SOL     OW17477   4.030   0.129   6.416
  112SOL    HW117478   3.958   0.169   6.367
  112SOL    HW217479   4.020   0.035   6.401
  113SOL     OW17480   0.769   2.325   2.393
  113SOL    HW117481   0.761   2.231   2.380
  113SOL    HW217482   0.777   2.361   2.305
  114SOL     OW17483   0.187   1.491   5.592
  114SOL    HW117484   0.146   1.434   5.526
  114SOL    HW217485   0.114   1.534   5.635
  115SOL     OW17486   0.253   3.191   0.530
  115SOL    HW117487   0.324   3.190   0.594
  115SOL    HW217488   0.209   3.275   0.544
  116SOL     OW17489   3.647   5.920   5.911
  116SOL    HW117490   3.693   5.841   5.881
  116SOL    HW217491   3.716   5.987   5.914
  117SOL     OW17492   4.919   2.088   0.091
  117SOL    HW117493   4.843   2.144   0.105
  117SOL    HW217494   4.888   2.000   0.110
  118SOL     OW17495   3.472   1.465   1.074
  118SOL    HW117496   3.383   1.481   1.106
  118SOL    HW217497   3.520   1.544   1.096
  119SOL     OW17498   2.961   3.335   5.803
  119SOL    HW117499   2.914   3.338   5.886
  119SOL    HW217500   2.961   3.242   5.779
  120SOL     OW17501   0.749   5.520   7.747
  120SOL    HW117502   0.775   5.489   7.661
  120SOL    HW217503   0.757   5.615   7.742
  121SOL     OW17504   5.070   2.561   5.909
  121SOL    HW117505   4.990   2.508   5.911
  121SOL    HW217506   5.141   2.497   5.909
  122SOL     OW17507   0.933   1.814   1.757
  122SOL    HW117508   0.990   1.778   1.824
  122SOL    HW217509   0.865   1.861   1.805
  123SOL     OW17510   1.520   5.301   0.173
  123SOL    HW117511   1.506   5.388   0.210
  123SOL    HW217512   1.438   5.254   0.189
  124SOL     OW17513   4.351   0.979   7.661
  124SOL    HW117514   4.354   1.072   7.686
  124SOL    HW217515   4.316   0.935   7.739
  125SOL     OW17516   6.288   0.120   1.521
  125SOL    HW117517   6.253   0.204   1.550
  125SOL    HW217518   6.351   0.096   1.589
  126SOL     OW17519   5.076   0.868   7.563
  126SOL    HW117520   5.025   0.869   7.643
  126SOL    HW217521   5.016   0.837   7.496
  127SOL     OW17522   0.894   3.338   6.941
  127SOL    HW117523   0.820   3.284   6.967
  127SOL    HW217524   0.862   3.388   6.865
  128SOL     OW17525   0.815   3.280   6.231
  128SOL    HW117526   0.844   3.211   6.171
  128SOL    HW217527   0.743   3.240   6.280
  129SOL     OW17528   2.332   0.579   6.297
  129SOL    HW117529   2.300   0.623   6.375
  129SOL    HW217530   2.387   0.644   6.253
  130SOL     OW17531   3.210   3.945   2.394
  130SOL    HW117532   3.245   4.033   2.383
  130SOL    HW217533   3.116   3.954   2.381
  131SOL     OW17534   2.274   4.258   7.635
  131SOL    HW117535   2.179   4.267   7.642
  131SOL    HW217536   2.305   4.263   7.726
  132SOL     OW17537   5.928   3.967   2.103
  132SOL    HW117538   5.940   3.954   2.009
  132SOL    HW217539   5.886   4.053   2.110
  133SOL     OW17540   2.313   1.325   5.016
  133SOL    HW117541   2.400   1.286   5.002
  133SOL    HW217542   2.252   1.257   4.988
  134SOL     OW17543   5.574   1.482   1.057
  134SOL    HW117544   5.596   1.564   1.013
  134SOL    HW217545   5.597   1.414   0.994
  135SOL     OW17546   2.575   5.333   7.245
  135SOL    HW117547   2.668   5.355   7.235
  135SOL    HW217548   2.563   5.323   7.339
  136SOL     OW17549   4.718   2.293   0.563
  136SOL    HW117550   4.651   2.362   0.559
  136SOL    HW217551   4.668   2.213   0.577
  137SOL     OW17552   1.827   5.587   1.043
  137SOL    HW117553   1.861   5.606   0.955
  137SOL    HW217554   1.743   5.632   1.047
  138SOL     OW17555   5.242   0.231   0.539
  138SOL    HW117556   5.271   0.144   0.565
  138SOL    HW217557   5.176   0.215   0.472
  139SOL     OW17558   1.072   4.619   0.720
  139SOL    HW117559   1.085   4.709   0.688
  139SOL    HW217560   1.161   4.584   0.729
  140SOL     OW17561   3.859   5.403   6.924
  140SOL    HW117562   3.900   5.317   6.930
  140SOL    HW217563   3.860   5.424   6.830
  141SOL     OW17564   1.478   3.789   2.010
  141SOL    HW117565   1.474   3.694   2.019
  141SOL    HW217566   1.392   3.820   2.038
  142SOL     OW17567   0.431   6.191   7.060
  142SOL    HW117568   0.409   6.271   7.014
  142SOL    HW217569   0.371   6.125   7.025
  143SOL     OW17570   1.178   4.710   6.648
  143SOL    HW117571   1.209   4.794   6.682
  143SOL    HW217572   1.123   4.734   6.574
  144SOL     OW17573   0.511   1.958   0.586
  144SOL    HW117574   0.445   1.978   0.652
  144SOL    HW217575   0.552   2.043   0.566
  145SOL     OW17576   3.061   1.353   7.254
  145SOL    HW117577   2.966   1.351   7.242
  145SOL    HW217578   3.082   1.444   7.273
  146SOL     OW17579   0.370   6.412   1.318
  146SOL    HW117580   0.393   6.468   1.245
  146SOL    HW217581   0.449   6.407   1.372
  147SOL     OW17582   3.802   2.433   1.363
  147SOL    HW117583   3.770   2.509   1.411
  147SOL    HW217584   3.733   2.415   1.298
  148SOL     OW17585   0.004   3.660   7.406
  148SOL    HW117586   0.072   3.648   7.473
  148SOL    HW217587   0.009   3.753   7.384
  149SOL     OW17588   6.220   3.708   2.257
  149SOL    HW117589   6.233   3.614   2.253
  149SOL    HW217590   6.303   3.745   2.229
  150SOL     OW17591   1.279   6.462   1.829
  150SOL    HW117592   1.336   6.428   1.898
  150SOL    HW217593   1.279   6.394   1.762
  151SOL     OW17594   6.246   2.807   7.403
  151SOL    HW117595   6.283   2.807   7.492
  151SOL    HW217596   6.253   2.897   7.374
  152SOL     OW17597   2.181   5.832   1.070
  152SOL    HW117598   2.226   5.885   1.135
  152SOL    HW217599   2.233   5.751   1.065
  153SOL     OW17600   4.012   3.421   0.942
  153SOL    HW117601   4.001   3.328   0.965
  153SOL    HW217602   4.087   3.450   0.994
  154SOL     OW17603   4.987   2.974   2.074
  154SOL    HW117604   5.073   3.008   2.048
  154SOL    HW217605   4.985   2.985   2.169
  155SOL     OW17606   4.719   0.738   0.790
  155SOL    HW117607   4.645   0.780   0.748
  155SOL    HW217608   4.717   0.769   0.880
  156SOL     OW17609   5.032   4.391   7.348
  156SOL    HW117610   5.050   4.467   7.404
  156SOL    HW217611   4.978   4.333   7.402
  157SOL     OW17612   5.785   1.911   6.531
  157SOL    HW117613   5.862   1.869   6.493
  157SOL    HW217614   5.714   1.891   6.470
  158SOL     OW17615   5.891   4.846   0.227
  158SOL    HW117616   5.861   4.766   0.184
  158SOL    HW217617   5.841   4.848   0.309
  159SOL     OW17618   1.109   5.516   1.028
  159SOL    HW117619   1.192   5.489   1.067
  159SOL    HW217620   1.065   5.435   1.005
  160SOL     OW17621   4.220   2.919   7.672
  160SOL    HW117622   4.236   3.006   7.635
  160SOL    HW217623   4.167   2.875   7.605
  161SOL     OW17624   5.230   1.356   1.596
  161SOL    HW117625   5.269   1.435   1.558
  161SOL    HW217626   5.229   1.372   1.690
  162SOL     OW17627   3.963   6.487   7.408
  162SOL    HW117628   3.963   6.396   7.378
  162SOL    HW217629   3.975   0.050   7.329
  163SOL     OW17630   2.114   0.802   7.574
  163SOL    HW117631   2.181   0.821   7.508
  163SOL    HW217632   2.031   0.809   7.526
  164SOL     OW17633   5.978   5.253   1.276
  164SOL    HW117634   6.022   5.207   1.205
  164SOL    HW217635   6.007   5.208   1.355
  165SOL     OW17636   1.941   5.166   5.954
  165SOL    HW117637   1.921   5.207   6.038
  165SOL    HW217638   1.904   5.225   5.889
  166SOL     OW17639   4.960   3.449   6.865
  166SOL    HW117640   4.877   3.427   6.824
  166SOL    HW217641   4.940   3.452   6.959
  167SOL     OW17642   0.617   4.868   6.337
  167SOL    HW117643   0.621   4.773   6.336
  167SOL    HW217644   0.691   4.896   6.282
  168SOL     OW17645   1.548   2.576   6.923
  168SOL    HW117646   1.614   2.522   6.880
  168SOL    HW217647   1.596   2.653   6.954
  169SOL     OW17648   5.757   6.066   6.617
  169SOL    HW117649   5.724   6.051   6.528
  169SOL    HW217650   5.852   6.073   6.606
  170SOL     OW17651   2.261   3.583   6.591
  170SOL    HW117652   2.221   3.616   6.511
  170SOL    HW217653   2.312   3.507   6.562
  171SOL     OW17654   0.854   5.877   7.102
  171SOL    HW117655   0.844   5.797   7.051
  171SOL    HW217656   0.834   5.947   7.040
  172SOL     OW17657   4.378   4.093   6.150
  172SOL    HW117658   4.325   4.170   6.127
  172SOL    HW217659   4.467   4.118   6.128
  173SOL     OW17660   2.851   2.550   0.486
  173SOL    HW117661   2.917   2.499   0.533
  173SOL    HW217662   2.783   2.486   0.464
  174SOL     OW17663   3.255   0.716   7.035
  174SOL    HW117664   3.275   0.804   7.067
  174SOL    HW217665   3.328   0.662   7.065
  175SOL     OW17666   0.968   2.668   6.877
  175SOL    HW117667   0.878   2.679   6.909
  175SOL    HW217668   0.972   2.577   6.849
  176SOL     OW17669   6.218   3.783   7.010
  176SOL    HW117670   6.126   3.768   7.034
  176SOL    HW217671   6.242   3.863   7.057
  177SOL     OW17672   4.700   1.282   1.979
  177SOL    HW117673   4.778   1.239   1.945
  177SOL    HW217674   4.728   1.371   1.998
  178SOL     OW17675   0.813   5.916   1.685
  178SOL    HW117676   0.842   6.006   1.672
  178SOL    HW217677   0.871   5.863   1.630
  179SOL     OW17678   6.119   3.859   0.993
  179SOL    HW117679   6.088   3.772   1.018
  179SOL    HW217680   6.041   3.914   0.997
  180SOL     OW17681   5.903   5.847   7.027
  180SOL    HW117682   5.867   5.785   7.090
  180SOL    HW217683   5.998   5.834   7.032
  181SOL     OW17684   0.382   5.641   1.163
  181SOL    HW117685   0.404   5.591   1.242
  181SOL    HW217686   0.452   5.706   1.155
  182SOL     OW17687   3.021   5.743   0.726
  182SOL    HW117688   3.019   5.793   0.644
  182SOL    HW217689   2.953   5.783   0.780
  183SOL     OW17690   5.555   0.822   7.108
  183SOL    HW117691   5.645   0.841   7.133
  183SOL    HW217692   5.558   0.811   7.013
  184SOL     OW17693   0.223   6.370   1.008
  184SOL    HW117694   0.201   6.424   0.932
  184SOL    HW217695   0.253   6.432   1.074
  185SOL     OW17696   2.494   3.227   1.246
  185SOL    HW117697   2.511   3.226   1.152
  185SOL    HW217698   2.507   3.136   1.274
  186SOL     OW17699   0.859   5.615   0.511
  186SOL    HW117700   0.769   5.614   0.476
  186SOL    HW217701   0.911   5.653   0.440
  187SOL     OW17702   0.302   1.261   7.535
  187SOL    HW117703   0.282   1.303   7.451
  187SOL    HW217704   0.365   1.319   7.577
  188SOL     OW17705   4.027   5.871   5.764
  188SOL    HW117706   4.102   5.813   5.751
  188SOL    HW217707   4.002   5.900   5.676
  189SOL     OW17708   4.153   3.504   2.063
  189SOL    HW117709   4.150   3.599   2.050
  189SOL    HW217710   4.065   3.474   2.042
  190SOL     OW17711   1.471   4.381   6.786
  190SOL    HW117712   1.553   4.351   6.824
  190SOL    HW217713   1.404   4.328   6.828
  191SOL     OW17714   4.864   2.122   1.484
  191SOL    HW117715   4.933   2.129   1.550
  191SOL    HW217716   4.897   2.057   1.421
  192SOL     OW17717   4.595   1.200   1.217
  192SOL    HW117718   4.593   1.132   1.285
  192SOL    HW217719   4.667   1.258   1.243
  193SOL     OW17720   3.378   6.352   1.841
  193SOL    HW117721   3.349   6.385   1.756
  193SOL    HW217722   3.427   6.272   1.821
  194SOL     OW17723   1.267   4.475   0.217
  194SOL    HW117724   1.339   4.449   0.160
  194SOL    HW217725   1.270   4.413   0.290
  195SOL     OW17726   2.210   4.721   1.884
  195SOL    HW117727   2.239   4.647   1.938
  195SOL    HW217728   2.290   4.772   1.869
  196SOL     OW17729   1.849   2.881   0.651
  196SOL    HW117730   1.900   2.805   0.622
  196SOL    HW217731   1.758   2.855   0.637
  197SOL     OW17732   3.368   4.517   7.750
  197SOL    HW117733   3.276   4.512   7.726
  197SOL    HW217734   3.368   4.513   0.084
  198SOL     OW17735   0.803   0.262   0.736
  198SOL    HW117736   0.818   0.345   0.691
  198SOL    HW217737   0.721   0.274   0.784
  199SOL     OW17738   1.280   5.070   7.020
  199SOL    HW117739   1.357   5.020   6.993
  199SOL    HW217740   1.278   5.145   6.961
  200SOL     OW17741   0.418   0.419   1.541
  200SOL    HW117742   0.443   0.492   1.599
  200SOL    HW217743   0.322   0.418   1.544
  201SOL     OW17744   0.717   4.604   6.315
  201SOL    HW117745   0.802   4.561   6.304
  201SOL    HW217746   0.661   4.535   6.352
  202SOL     OW17747   5.044   4.581   6.198
  202SOL    HW117748   5.108   4.564   6.129
  202SOL    HW217749   5.004   4.665   6.173
  203SOL     OW17750   6.066   6.260   7.670
  203SOL    HW117751   6.060   6.297   7.583
  203SOL    HW217752   5.979   6.270   7.708
  204SOL     OW17753   5.099   0.754   0.409
  204SOL    HW117754   5.018   0.724   0.450
  204SOL    HW217755   5.156   0.777   0.483
  205SOL     OW17756   4.243   4.721   6.919
  205SOL    HW117757   4.198   4.704   7.002
  205SOL    HW217758   4.285   4.638   6.897
  206SOL     OW17759   3.473   4.167   6.144
  206SOL    HW117760   3.403   4.101   6.142
  206SOL    HW217761   3.430   4.248   6.118
  207SOL     OW17762   6.395   1.046   6.225
  207SOL    HW117763   6.478   1.085   6.200
  207SOL    HW217764   6.330   1.089   6.169
  208SOL     OW17765   2.718   5.283   0.912
  208SOL    HW117766   2.793   5.224   0.906
  208SOL    HW217767   2.719   5.332   0.829
  209SOL     OW17768   4.040   0.191   7.099
  209SOL    HW117769   3.954   0.157   7.125
  209SOL    HW217770   4.021   0.257   7.032
  210SOL     OW17771   1.892   4.726   2.058
  210SOL    HW117772   1.823   4.689   2.003
  210SOL    HW217773   1.875   4.820   2.059
  211SOL     OW17774   3.015   4.040   6.250
  211SOL    HW117775   2.999   3.946   6.248
  211SOL    HW217776   2.961   4.075   6.179
  212SOL     OW17777   2.025   4.156   2.490
  212SOL    HW117778   1.975   4.234   2.514
  212SOL    HW217779   1.972   4.083   2.521
  213SOL     OW17780   2.006   4.018   6.531
  213SOL    HW117781   2.089   4.065   6.541
  213SOL    HW217782   2.023   3.932   6.571
  214SOL     OW17783   0.992   5.018   0.746
  214SOL    HW117784   0.899   5.030   0.724
  214SOL    HW217785   1.028   4.972   0.670
  215SOL     OW17786   4.985   3.296   7.579
  215SOL    HW117787   4.972   3.203   7.559
  215SOL    HW217788   4.935   3.343   7.512
  216SOL     OW17789   6.285   3.385   0.083
  216SOL    HW117790   6.280   3.480   0.075
  216SOL    HW217791   6.322   3.371   0.170
  217SOL     OW17792   4.037   0.124   7.658
  217SOL    HW117793   4.046   0.085   7.572
  217SOL    HW217794   4.125   0.122   7.695
  218SOL     OW17795   5.797   1.481   1.641
  218SOL    HW117796   5.887   1.450   1.626
  218SOL    HW217797   5.742   1.408   1.611
  219SOL     OW17798   5.127   3.058   0.078
  219SOL    HW117799   5.194   3.127   0.081
  219SOL    HW217800   5.177   2.976   0.081
  220SOL     OW17801   0.764   4.326   7.735
  220SOL    HW117802   0.800   4.262   0.035
  220SOL    HW217803   0.795   4.298   7.649
  221SOL     OW17804   0.471   0.580   7.355
  221SOL    HW117805   0.552   0.534   7.336
  221SOL    HW217806   0.497   0.657   7.405
  222SOL     OW17807   1.230   6.347   6.653
  222SOL    HW117808   1.305   6.310   6.606
  222SOL    HW217809   1.193   6.273   6.701
  223SOL     OW17810   2.173   2.170   2.308
  223SOL    HW117811   2.124   2.134   2.234
  223SOL    HW217812   2.259   2.129   2.303
  224SOL     OW17813   3.327   4.857   0.799
  224SOL    HW117814   3.366   4.825   0.880
  224SOL    HW217815   3.331   4.953   0.807
  225SOL     OW17816   3.117   5.692   1.981
  225SOL    HW117817   3.083   5.699   2.071
  225SOL    HW217818   3.211   5.705   1.990
  226SOL     OW17819   0.649   2.084   6.959
  226SOL    HW117820   0.559   2.054   6.956
  226SOL    HW217821   0.701   2.011   6.926
  227SOL     OW17822   3.679   5.846   1.412
  227SOL    HW117823   3.757   5.858   1.467
  227SOL    HW217824   3.635   5.931   1.414
  228SOL     OW17825   4.407   5.671   1.181
  228SOL    HW117826   4.419   5.677   1.086
  228SOL    HW217827   4.430   5.581   1.203
  229SOL     OW17828   1.292   0.512   5.370
  229SOL    HW117829   1.231   0.449   5.410
  229SOL    HW217830   1.236   0.584   5.342
  230SOL     OW17831   6.231   4.498   1.845
  230SOL    HW117832   6.177   4.434   1.799
  230SOL    HW217833   6.179   4.525   1.920
  231SOL     OW17834   5.740   4.235   6.954
  231SOL    HW117835   5.686   4.169   6.910
  231SOL    HW217836   5.677   4.291   7.000
  232SOL     OW17837   2.970   0.886   7.396
  232SOL    HW117838   3.008   0.974   7.404
  232SOL    HW217839   3.045   0.828   7.404
  233SOL     OW17840   6.352   5.420   1.562
  233SOL    HW117841   6.351   5.380   1.475
  233SOL    HW217842   6.330   5.348   1.622
  234SOL     OW17843   4.146   0.193   6.652
  234SOL    HW117844   4.100   0.161   6.574
  234SOL    HW217845   4.080   0.190   6.721
  235SOL     OW17846   0.091   0.533   0.259
  235SOL    HW117847   0.049   0.448   0.242
  235SOL    HW217848   0.128   0.558   0.174
  236SOL     OW17849   2.400   2.328   1.069
  236SOL    HW117850   2.389   2.422   1.058
  236SOL    HW217851   2.330   2.289   1.017
  237SOL     OW17852   3.174   5.751   2.274
  237SOL    HW117853   3.153   5.840   2.303
  237SOL    HW217854   3.253   5.761   2.221
  238SOL     OW17855   4.481   4.160   1.522
  238SOL    HW117856   4.420   4.233   1.536
  238SOL    HW217857   4.568   4.198   1.535
  239SOL     OW17858   3.297   6.466   0.388
  239SOL    HW117859   3.340   6.475   0.303
  239SOL    HW217860   3.221   0.036   0.383
  240SOL     OW17861   1.157   3.856   0.516
  240SOL    HW117862   1.074   3.847   0.562
  240SOL    HW217863   1.145   3.932   0.459
  241SOL     OW17864   3.951   1.066   7.029
  241SOL    HW117865   3.872   1.027   6.991
  241SOL    HW217866   4.006   0.992   7.053
  242SOL     OW17867   0.097   6.050   6.098
  242SOL    HW117868   0.070   5.959   6.107
  242SOL    HW217869   0.157   6.050   6.023
  243SOL     OW17870   0.743   2.068   2.301
  243SOL    HW117871   0.797   1.997   2.266
  243SOL    HW217872   0.662   2.065   2.250
  244SOL     OW17873   6.231   2.832   2.044
  244SOL    HW117874   6.189   2.755   2.081
  244SOL    HW217875   6.222   2.899   2.112
  245SOL     OW17876   4.113   3.930   6.013
  245SOL    HW117877   4.103   3.914   5.919
  245SOL    HW217878   4.074   3.852   6.054
  246SOL     OW17879   1.192   0.588   5.895
  246SOL    HW117880   1.171   0.681   5.908
  246SOL    HW217881   1.190   0.551   5.983
  247SOL     OW17882   0.789   4.147   2.354
  247SOL    HW117883   0.852   4.203   2.309
  247SOL    HW217884   0.808   4.159   2.447
  248SOL     OW17885   3.306   2.088   0.181
  248SOL    HW117886   3.334   2.000   0.209
  248SOL    HW217887   3.238   2.072   0.116
  249SOL     OW17888   5.211   1.711   6.547
  249SOL    HW117889   5.218   1.671   6.460
  249SOL    HW217890   5.121   1.693   6.574
  250SOL     OW17891   5.030   6.422   6.428
  250SOL    HW117892   4.952   6.408   6.375
  250SOL    HW217893   5.092   6.356   6.397
  251SOL     OW17894   5.029   5.581   7.531
  251SOL    HW117895   5.057   5.492   7.550
  251SOL    HW217896   4.956   5.597   7.591
  252SOL     OW17897   4.008   1.787   7.538
  252SOL    HW117898   3.948   1.730   7.586
  252SOL    HW217899   4.013   1.867   7.591
  253SOL     OW17900   5.895   3.161   6.700
  253SOL    HW117901   5.904   3.067   6.686
  253SOL    HW217902   5.815   3.185   6.653
  254SOL     OW17903   2.675   0.620   7.754
  254SOL    HW117904   2.597   0.643   0.044
  254SOL    HW217905   2.703   0.536   0.029
  255SOL     OW17906   5.010   3.120   0.358
  255SOL    HW117907   4.996   3.026   0.363
  255SOL    HW217908   5.068   3.131   0.282
  256SOL     OW17909   3.958   0.665   6.961
  256SOL    HW117910   4.031   0.607   6.984
  256SOL    HW217911   3.913   0.681   7.044
  257SOL     OW17912   3.585   5.117   6.266
  257SOL    HW117913   3.532   5.197   6.260
  257SOL    HW217914   3.522   5.046   6.261
  258SOL     OW17915   0.779   1.127   0.260
  258SOL    HW117916   0.812   1.113   0.349
  258SOL    HW217917   0.754   1.039   0.231
  259SOL     OW17918   1.839   2.768   7.342
  259SOL    HW117919   1.883   2.683   7.337
  259SOL    HW217920   1.831   2.785   7.436
  260SOL     OW17921   2.717   5.967   7.458
  260SOL    HW117922   2.715   6.028   7.384
  260SOL    HW217923   2.626   5.958   7.485
  261SOL     OW17924   2.939   1.359   0.667
  261SOL    HW117925   2.935   1.329   0.758
  261SOL    HW217926   2.899   1.446   0.669
  262SOL     OW17927   6.117   6.317   2.169
  262SOL    HW117928   6.040   6.370   2.191
  262SOL    HW217929   6.150   6.355   2.088
  263SOL     OW17930   3.044   4.211   1.584
  263SOL    HW117931   3.047   4.132   1.530
  263SOL    HW217932   2.979   4.191   1.652
  264SOL     OW17933   0.068   5.930   1.040
  264SOL    HW117934   0.015   6.008   1.056
  264SOL    HW217935   0.052   5.908   0.949
  265SOL     OW17936   5.424   0.543   6.959
  265SOL    HW117937   5.386   0.508   7.040
  265SOL    HW217938   5.518   0.535   6.971
  266SOL     OW17939   2.883   2.159   7.482
  266SOL    HW117940   2.855   2.236   7.532
  266SOL    HW217941   2.969   2.183   7.449
  267SOL     OW17942   5.461   2.784   6.631
  267SOL    HW117943   5.434   2.727   6.704
  267SOL    HW217944   5.449   2.729   6.553
  268SOL     OW17945   4.567   3.405   0.490
  268SOL    HW117946   4.648   3.421   0.539
  268SOL    HW217947   4.592   3.339   0.425
  269SOL     OW17948   2.138   1.543   1.478
  269SOL    HW117949   2.063   1.484   1.469
  269SOL    HW217950   2.162   1.536   1.571
  270SOL     OW17951   2.024   3.299   7.166
  270SOL    HW117952   1.978   3.215   7.166
  270SOL    HW217953   2.093   3.289   7.231
  271SOL     OW17954   4.904   2.856   1.329
  271SOL    HW117955   4.824   2.875   1.378
  271SOL    HW217956   4.972   2.849   1.396
  272SOL     OW17957   5.917   4.506   0.346
  272SOL    HW117958   6.005   4.480   0.316
  272SOL    HW217959   5.928   4.524   0.439
  273SOL     OW17960   5.617   2.111   6.981
  273SOL    HW117961   5.695   2.164   6.966
  273SOL    HW217962   5.650   2.031   7.022
  274SOL     OW17963   0.458   4.350   7.315
  274SOL    HW117964   0.492   4.435   7.287
  274SOL    HW217965   0.474   4.347   7.409
  275SOL     OW17966   1.329   5.900   0.933
  275SOL    HW117967   1.256   5.847   0.964
  275SOL    HW217968   1.369   5.847   0.864
  276SOL     OW17969   4.058   5.159   6.760
  276SOL    HW117970   4.046   5.065   6.777
  276SOL    HW217971   3.983   5.184   6.707
  277SOL     OW17972   5.827   4.051   7.642
  277SOL    HW117973   5.895   3.990   7.669
  277SOL    HW217974   5.754   3.995   7.616
  278SOL     OW17975   3.180   4.719   1.782
  278SOL    HW117976   3.152   4.741   1.871
  278SOL    HW217977   3.235   4.641   1.793
  279SOL     OW17978   5.868   3.441   0.383
  279SOL    HW117979   5.938   3.420   0.444
  279SOL    HW217980   5.815   3.506   0.430
  280SOL     OW17981   2.524   1.477   5.260
  280SOL    HW117982   2.434   1.492   5.230
  280SOL    HW217983   2.558   1.410   5.202
  281SOL     OW17984   2.235   3.512   0.618
  281SOL    HW117985   2.169   3.446   0.638
  281SOL    HW217986   2.255   3.552   0.703
  282SOL     OW17987   2.867   5.327   6.247
  282SOL    HW117988   2.907   5.409   6.277
  282SOL    HW217989   2.775   5.335   6.273
  283SOL     OW17990   0.045   2.092   7.442
  283SOL    HW117991   0.122   2.068   7.493
  283SOL    HW217992   6.479   2.142   7.504
  284SOL     OW17993   5.384   6.240   1.335
  284SOL    HW117994   5.373   6.301   1.261
  284SOL    HW217995   5.317   6.267   1.398
  285SOL     OW17996   4.304   3.650   5.555
  285SOL    HW117997   4.342   3.580   5.608
  285SOL    HW217998   4.213   3.655   5.584
  286SOL     OW17999   3.373   4.505   0.253
  286SOL    HW118000   3.405   4.533   0.339
  286SOL    HW218001   3.310   4.436   0.273
  287SOL     OW18002   3.046   4.716   5.022
  287SOL    HW118003   3.110   4.762   4.968
  287SOL    HW218004   2.990   4.670   4.959
  288SOL     OW18005   6.194   1.847   5.968
  288SOL    HW118006   6.209   1.776   6.030
  288SOL    HW218007   6.224   1.812   5.884
  289SOL     OW18008   0.241   1.682   7.131
  289SOL    HW118009   0.226   1.679   7.037
  289SOL    HW218010   0.327   1.725   7.140
  290SOL     OW18011   5.958   1.061   6.876
  290SOL    HW118012   5.927   1.149   6.896
  290SOL    HW218013   5.911   1.036   6.797
  291SOL     OW18014   1.569   0.091   1.061
  291SOL    HW118015   1.626   0.160   1.026
  291SOL    HW218016   1.559   0.029   0.989
  292SOL     OW18017   0.051   4.487   6.975
  292SOL    HW118018   0.145   4.492   6.992
  292SOL    HW218019   0.045   4.439   6.892
  293SOL     OW18020   0.076   2.711   7.205
  293SOL    HW118021   0.084   2.629   7.253
  293SOL    HW218022   0.133   2.699   7.129
  294SOL     OW18023   2.804   3.823   1.263
  294SOL    HW118024   2.890   3.831   1.222
  294SOL    HW218025   2.743   3.815   1.189
  295SOL     OW18026   2.437   5.877   0.666
  295SOL    HW118027   2.348   5.883   0.701
  295SOL    HW218028   2.438   5.795   0.618
  296SOL     OW18029   3.675   0.161   6.887
  296SOL    HW118030   3.594   0.120   6.859
  296SOL    HW218031   3.693   0.124   6.973
  297SOL     OW18032   5.145   3.677   1.562
  297SOL    HW118033   5.154   3.657   1.656
  297SOL    HW218034   5.193   3.606   1.519
  298SOL     OW18035   4.679   4.338   2.226
  298SOL    HW118036   4.734   4.407   2.189
  298SOL    HW218037   4.598   4.341   2.174
  299SOL     OW18038   2.099   2.393   6.215
  299SOL    HW118039   2.167   2.387   6.148
  299SOL    HW218040   2.127   2.465   6.272
  300SOL     OW18041   1.076   6.279   1.439
  300SOL    HW118042   1.113   6.356   1.397
  300SOL    HW218043   1.056   6.308   1.528
  301SOL     OW18044   6.155   5.342   5.719
  301SOL    HW118045   6.165   5.337   5.624
  301SOL    HW218046   6.071   5.387   5.731
  302SOL     OW18047   3.765   0.905   6.542
  302SOL    HW118048   3.802   0.972   6.601
  302SOL    HW218049   3.676   0.892   6.574
  303SOL     OW18050   5.906   3.546   7.621
  303SOL    HW118051   5.831   3.487   7.614
  303SOL    HW218052   5.953   3.515   7.698
  304SOL     OW18053   3.401   5.037   5.959
  304SOL    HW118054   3.335   5.031   6.027
  304SOL    HW218055   3.466   5.099   5.994
  305SOL     OW18056   3.459   4.824   0.356
  305SOL    HW118057   3.384   4.782   0.314
  305SOL    HW218058   3.451   4.799   0.448
  306SOL     OW18059   5.353   5.504   6.278
  306SOL    HW118060   5.387   5.432   6.332
  306SOL    HW218061   5.405   5.500   6.198
  307SOL     OW18062   4.630   4.914   7.188
  307SOL    HW118063   4.635   4.828   7.146
  307SOL    HW218064   4.548   4.911   7.238
  308SOL     OW18065   0.680   1.671   7.359
  308SOL    HW118066   0.686   1.592   7.413
  308SOL    HW218067   0.621   1.729   7.407
  309SOL     OW18068   5.693   2.619   1.392
  309SOL    HW118069   5.733   2.626   1.478
  309SOL    HW218070   5.748   2.673   1.335
  310SOL     OW18071   6.437   2.495   0.136
  310SOL    HW118072   0.020   2.435   0.114
  310SOL    HW218073   6.378   2.444   0.191
  311SOL     OW18074   6.325   0.894   0.116
  311SOL    HW118075   6.418   0.873   0.109
  311SOL    HW218076   6.305   0.941   0.035
  312SOL     OW18077   4.428   1.212   1.013
  312SOL    HW118078   4.473   1.238   0.933
  312SOL    HW218079   4.495   1.218   1.081
  313SOL     OW18080   0.609   3.147   0.912
  313SOL    HW118081   0.576   3.060   0.889
  313SOL    HW218082   0.700   3.133   0.937
  314SOL     OW18083   2.289   3.389   1.246
  314SOL    HW118084   2.352   3.318   1.256
  314SOL    HW218085   2.343   3.468   1.234
  315SOL     OW18086   2.508   3.016   6.800
  315SOL    HW118087   2.519   3.068   6.720
  315SOL    HW218088   2.423   2.974   6.790
  316SOL     OW18089   4.099   4.692   5.856
  316SOL    HW118090   4.132   4.752   5.790
  316SOL    HW218091   4.051   4.626   5.807
  317SOL     OW18092   5.522   0.181   7.035
  317SOL    HW118093   5.539   0.265   7.077
  317SOL    HW218094   5.573   0.184   6.954
  318SOL     OW18095   0.552   2.193   0.101
  318SOL    HW118096   0.495   2.239   0.163
  318SOL    HW218097   0.628   2.167   0.153
  319SOL     OW18098   2.097   5.190   6.321
  319SOL    HW118099   2.042   5.240   6.261
  319SOL    HW218100   2.084   5.098   6.296
  320SOL     OW18101   6.293   4.193   6.433
  320SOL    HW118102   6.387   4.202   6.451
  320SOL    HW218103   6.275   4.100   6.450
  321SOL     OW18104   1.690   3.390   1.405
  321SOL    HW118105   1.748   3.322   1.372
  321SOL    HW218106   1.681   3.371   1.499
  322SOL     OW18107   0.618   1.685   7.669
  322SOL    HW118108   0.586   1.749   7.733
  322SOL    HW218109   0.713   1.693   7.672
  323SOL     OW18110   1.322   1.195   7.003
  323SOL    HW118111   1.242   1.186   6.952
  323SOL    HW218112   1.348   1.287   6.992
  324SOL     OW18113   5.802   2.414   7.136
  324SOL    HW118114   5.836   2.502   7.154
  324SOL    HW218115   5.806   2.369   7.220
  325SOL     OW18116   6.481   5.179   6.783
  325SOL    HW118117   0.045   5.100   6.768
  325SOL    HW218118   6.422   5.156   6.854
  326SOL     OW18119   3.085   0.807   6.172
  326SOL    HW118120   2.994   0.776   6.172
  326SOL    HW218121   3.137   0.727   6.160
  327SOL     OW18122   2.140   2.771   7.575
  327SOL    HW118123   2.201   2.757   7.647
  327SOL    HW218124   2.165   2.856   7.538
  328SOL     OW18125   2.852   1.724   0.381
  328SOL    HW118126   2.945   1.709   0.364
  328SOL    HW218127   2.840   1.818   0.372
  329SOL     OW18128   5.999   2.781   7.599
  329SOL    HW118129   6.079   2.756   7.644
  329SOL    HW218130   6.009   2.875   7.582
  330SOL     OW18131   4.819   4.336   6.932
  330SOL    HW118132   4.763   4.390   6.876
  330SOL    HW218133   4.890   4.308   6.874
  331SOL     OW18134   4.586   4.728   1.904
  331SOL    HW118135   4.622   4.706   1.818
  331SOL    HW218136   4.602   4.822   1.913
  332SOL     OW18137   2.961   4.903   5.189
  332SOL    HW118138   2.909   4.968   5.142
  332SOL    HW218139   2.967   4.829   5.129
  333SOL     OW18140   3.784   1.471   1.157
  333SOL    HW118141   3.850   1.540   1.147
  333SOL    HW218142   3.766   1.469   1.251
  334SOL     OW18143   0.028   4.248   7.224
  334SOL    HW118144   6.437   4.274   7.178
  334SOL    HW218145   0.001   4.174   7.278
  335SOL     OW18146   3.087   4.114   1.905
  335SOL    HW118147   3.136   4.164   1.970
  335SOL    HW218148   3.146   4.110   1.829
  336SOL     OW18149   2.978   3.336   7.215
  336SOL    HW118150   2.991   3.382   7.133
  336SOL    HW218151   2.955   3.404   7.278
  337SOL     OW18152   5.285   4.599   7.252
  337SOL    HW118153   5.355   4.604   7.317
  337SOL    HW218154   5.329   4.570   7.172
  338SOL     OW18155   2.750   4.520   6.395
  338SOL    HW118156   2.691   4.547   6.325
  338SOL    HW218157   2.733   4.581   6.466
  339SOL     OW18158   3.484   1.337   7.605
  339SOL    HW118159   3.508   1.248   7.581
  339SOL    HW218160   3.409   1.328   7.663
  340SOL     OW18161   3.849   4.664   6.571
  340SOL    HW118162   3.851   4.608   6.648
  340SOL    HW218163   3.940   4.671   6.544
  341SOL     OW18164   0.520   3.480   0.474
  341SOL    HW118165   0.533   3.387   0.493
  341SOL    HW218166   0.432   3.484   0.436
  342SOL     OW18167   2.802   5.308   6.727
  342SOL    HW118168   2.840   5.222   6.743
  342SOL    HW218169   2.710   5.298   6.752
  343SOL     OW18170   2.430   5.282   5.458
  343SOL    HW118171   2.357   5.340   5.476
  343SOL    HW218172   2.420   5.210   5.521
  344SOL     OW18173   3.279   3.981   6.139
  344SOL    HW118174   3.203   4.039   6.132
  344SOL    HW218175   3.256   3.905   6.085
  345SOL     OW18176   0.125   0.735   6.977
  345SOL    HW118177   0.128   0.639   6.973
  345SOL    HW218178   0.076   0.753   7.057
  346SOL     OW18179   1.909   6.276   6.524
  346SOL    HW118180   1.822   6.239   6.540
  346SOL    HW218181   1.892   6.368   6.500
  347SOL     OW18182   5.235   4.583   0.931
  347SOL    HW118183   5.176   4.566   1.005
  347SOL    HW218184   5.179   4.573   0.854
  348SOL     OW18185   1.334   2.232   7.065
  348SOL    HW118186   1.324   2.142   7.034
  348SOL    HW218187   1.404   2.227   7.131
  349SOL     OW18188   6.284   1.549   7.680
  349SOL    HW118189   6.223   1.569   7.609
  349SOL    HW218190   6.259   1.461   7.709
  350SOL     OW18191   3.216   0.296   1.701
  350SOL    HW118192   3.223   0.363   1.769
  350SOL    HW218193   3.255   0.217   1.741
  351SOL     OW18194   1.656   2.909   6.947
  351SOL    HW118195   1.569   2.872   6.960
  351SOL    HW218196   1.712   2.833   6.930
  352SOL     OW18197   1.628   6.443   1.783
  352SOL    HW118198   1.601   6.383   1.714
  352SOL    HW218199   1.578   6.416   1.860
  353SOL     OW18200   5.659   0.962   0.940
  353SOL    HW118201   5.658   1.034   0.876
  353SOL    HW218202   5.702   0.999   1.017
  354SOL     OW18203   0.976   2.191   0.332
  354SOL    HW118204   1.010   2.104   0.311
  354SOL    HW218205   1.015   2.212   0.417
  355SOL     OW18206   0.409   2.252   7.451
  355SOL    HW118207   0.330   2.236   7.400
  355SOL    HW218208   0.379   2.301   7.528
  356SOL     OW18209   1.013   0.519   7.117
  356SOL    HW118210   0.984   0.592   7.172
  356SOL    HW218211   1.107   0.536   7.103
  357SOL     OW18212   5.629   4.747   7.576
  357SOL    HW118213   5.724   4.754   7.586
  357SOL    HW218214   5.613   4.654   7.560
  358SOL     OW18215   2.416   0.079   5.449
  358SOL    HW118216   2.406   0.006   5.388
  358SOL    HW218217   2.501   0.063   5.491
  359SOL     OW18218   1.675   1.435   1.377
  359SOL    HW118219   1.732   1.406   1.448
  359SOL    HW218220   1.691   1.373   1.306
  360SOL     OW18221   6.392   1.802   0.621
  360SOL    HW118222   6.397   1.872   0.556
  360SOL    HW218223   6.483   1.781   0.642
  361SOL     OW18224   1.850   0.930   1.839
  361SOL    HW118225   1.755   0.926   1.826
  361SOL    HW218226   1.861   0.938   1.934
  362SOL     OW18227   6.265   1.646   6.920
  362SOL    HW118228   6.248   1.738   6.944
  362SOL    HW218229   6.360   1.637   6.926
  363SOL     OW18230   3.416   2.069   7.396
  363SOL    HW118231   3.382   2.118   7.471
  363SOL    HW218232   3.444   2.137   7.334
  364SOL     OW18233   3.301   4.242   0.594
  364SOL    HW118234   3.267   4.185   0.663
  364SOL    HW218235   3.357   4.185   0.542
  365SOL     OW18236   0.672   5.224   6.028
  365SOL    HW118237   0.707   5.139   6.001
  365SOL    HW218238   0.636   5.262   5.948
  366SOL     OW18239   5.818   0.867   7.520
  366SOL    HW118240   5.803   0.935   7.455
  366SOL    HW218241   5.910   0.877   7.544
  367SOL     OW18242   1.688   3.523   0.809
  367SOL    HW118243   1.750   3.586   0.771
  367SOL    HW218244   1.624   3.508   0.739
  368SOL     OW18245   4.725   4.239   1.624
  368SOL    HW118246   4.742   4.303   1.693
  368SOL    HW218247   4.809   4.196   1.610
  369SOL     OW18248   5.463   1.457   0.569
  369SOL    HW118249   5.497   1.538   0.532
  369SOL    HW218250   5.428   1.409   0.495
  370SOL     OW18251   0.551   2.597   1.967
  370SOL    HW118252   0.523   2.671   2.020
  370SOL    HW218253   0.642   2.617   1.946
  371SOL     OW18254   6.009   5.217   7.731
  371SOL    HW118255   6.026   5.199   0.062
  371SOL    HW218256   5.996   5.130   7.692
  372SOL     OW18257   0.187   4.786   7.303
  372SOL    HW118258   0.163   4.693   7.301
  372SOL    HW218259   0.174   4.815   7.213
  373SOL     OW18260   4.325   4.170   1.151
  373SOL    HW118261   4.289   4.231   1.216
  373SOL    HW218262   4.305   4.083   1.184
  374SOL     OW18263   2.242   5.410   1.035
  374SOL    HW118264   2.191   5.346   1.085
  374SOL    HW218265   2.316   5.361   1.001
  375SOL     OW18266   6.003   1.241   7.589
  375SOL    HW118267   5.912   1.214   7.599
  375SOL    HW218268   6.003   1.334   7.613
  376SOL     OW18269   2.060   2.129   6.620
  376SOL    HW118270   2.108   2.151   6.540
  376SOL    HW218271   2.128   2.113   6.686
  377SOL     OW18272   0.561   1.397   0.638
  377SOL    HW118273   0.544   1.413   0.731
  377SOL    HW218274   0.530   1.476   0.594
  378SOL     OW18275   0.317   5.803   6.163
  378SOL    HW118276   0.240   5.801   6.107
  378SOL    HW218277   0.293   5.862   6.234
  379SOL     OW18278   2.164   4.156   6.709
  379SOL    HW118279   2.089   4.214   6.698
  379SOL    HW218280   2.225   4.206   6.764
  380SOL     OW18281   1.010   5.043   1.362
  380SOL    HW118282   1.093   5.020   1.319
  380SOL    HW218283   0.982   5.124   1.318
  381SOL     OW18284   3.941   1.371   7.368
  381SOL    HW118285   4.030   1.339   7.384
  381SOL    HW218286   3.892   1.294   7.340
  382SOL     OW18287   0.364   3.135   1.941
  382SOL    HW118288   0.364   3.049   1.984
  382SOL    HW218289   0.302   3.187   1.991
  383SOL     OW18290   2.379   6.047   6.915
  383SOL    HW118291   2.323   6.101   6.970
  383SOL    HW218292   2.411   6.106   6.847
  384SOL     OW18293   1.456   3.734   7.571
  384SOL    HW118294   1.534   3.700   7.616
  384SOL    HW218295   1.392   3.663   7.578
  385SOL     OW18296   6.040   3.300   6.040
  385SOL    HW118297   6.062   3.387   6.072
  385SOL    HW218298   5.946   3.303   6.021
  386SOL     OW18299   5.961   2.680   6.561
  386SOL    HW118300   6.053   2.658   6.574
  386SOL    HW218301   5.951   2.687   6.466
  387SOL     OW18302   5.072   4.663   7.417
  387SOL    HW118303   5.055   4.737   7.359
  387SOL    HW218304   5.139   4.612   7.372
  388SOL     OW18305   3.882   1.412   7.001
  388SOL    HW118306   3.949   1.468   7.040
  388SOL    HW218307   3.930   1.336   6.968
  389SOL     OW18308   1.306   4.884   0.305
  389SOL    HW118309   1.316   4.945   0.378
  389SOL    HW218310   1.250   4.930   0.243
  390SOL     OW18311   1.869   3.014   6.146
  390SOL    HW118312   1.847   2.921   6.140
  390SOL    HW218313   1.928   3.030   6.072
  391SOL     OW18314   3.095   3.389   0.708
  391SOL    HW118315   3.185   3.393   0.678
  391SOL    HW218316   3.051   3.462   0.664
  392SOL     OW18317   3.615   2.758   7.692
  392SOL    HW118318   3.659   2.815   7.755
  392SOL    HW218319   3.686   2.719   7.642
  393SOL     OW18320   2.114   2.326   5.516
  393SOL    HW118321   2.052   2.254   5.525
  393SOL    HW218322   2.195   2.295   5.556
  394SOL     OW18323   0.597   4.544   2.095
  394SOL    HW118324   0.606   4.610   2.026
  394SOL    HW218325   0.503   4.528   2.101
  395SOL     OW18326   1.468   3.445   6.799
  395SOL    HW118327   1.410   3.391   6.746
  395SOL    HW218328   1.433   3.534   6.791
  396SOL     OW18329   2.434   2.717   6.855
  396SOL    HW118330   2.415   2.634   6.900
  396SOL    HW218331   2.349   2.747   6.823
  397SOL     OW18332   6.141   4.984   1.426
  397SOL    HW118333   6.103   4.998   1.340
  397SOL    HW218334   6.220   4.934   1.410
  398SOL     OW18335   5.640   2.445   6.921
  398SOL    HW118336   5.699   2.428   6.995
  398SOL    HW218337   5.685   2.511   6.869
  399SOL     OW18338   4.465   0.151   6.903
  399SOL    HW118339   4.483   0.066   6.861
  399SOL    HW218340   4.409   0.129   6.978
  400SOL     OW18341   1.253   4.447   6.379
  400SOL    HW118342   1.187   4.484   6.438
  400SOL    HW218343   1.332   4.440   6.433
  401SOL     OW18344   4.421   5.824   2.015
  401SOL    HW118345   4.400   5.877   2.091
  401SOL    HW218346   4.505   5.859   1.983
  402SOL     OW18347   4.495   4.836   6.247
  402SOL    HW118348   4.522   4.897   6.316
  402SOL    HW218349   4.446   4.889   6.184
  403SOL     OW18350   0.305   3.156   1.364
  403SOL    HW118351   0.342   3.071   1.339
  403SOL    HW218352   0.334   3.170   1.454
  404SOL     OW18353   0.059   4.644   6.647
  404SOL    HW118354   0.144   4.686   6.660
  404SOL    HW218355   0.063   4.565   6.701
  405SOL     OW18356   2.970   2.100   6.238
  405SOL    HW118357   3.049   2.059   6.201
  405SOL    HW218358   2.952   2.173   6.179
  406SOL     OW18359   3.200   3.038   0.039
  406SOL    HW118360   3.129   2.975   0.048
  406SOL    HW218361   3.239   3.018   7.716
  407SOL     OW18362   5.707   5.845   7.516
  407SOL    HW118363   5.708   5.863   7.422
  407SOL    HW218364   5.715   5.750   7.522
  408SOL     OW18365   1.169   3.038   0.336
  408SOL    HW118366   1.098   3.038   0.272
  408SOL    HW218367   1.170   3.127   0.371
  409SOL     OW18368   0.930   3.586   0.631
  409SOL    HW118369   0.856   3.550   0.680
  409SOL    HW218370   0.926   3.680   0.646
  410SOL     OW18371   4.995   6.242   6.628
  410SOL    HW118372   4.990   6.302   6.553
  410SOL    HW218373   5.071   6.272   6.678
  411SOL     OW18374   4.748   5.517   0.913
  411SOL    HW118375   4.783   5.500   1.001
  411SOL    HW218376   4.700   5.599   0.921
  412SOL     OW18377   6.081   3.993   0.043
  412SOL    HW118378   6.134   4.003   7.725
  412SOL    HW218379   6.062   3.900   0.047
  413SOL     OW18380   4.306   3.901   1.265
  413SOL    HW118381   4.269   3.826   1.312
  413SOL    HW218382   4.378   3.931   1.320
  414SOL     OW18383   2.084   4.374   1.643
  414SOL    HW118384   2.006   4.377   1.698
  414SOL    HW218385   2.106   4.466   1.629
  415SOL     OW18386   3.906   4.930   0.239
  415SOL    HW118387   3.926   4.847   0.196
  415SOL    HW218388   3.860   4.981   0.172
  416SOL     OW18389   3.065   3.924   1.161
  416SOL    HW118390   3.027   4.009   1.138
  416SOL    HW218391   3.098   3.937   1.250
  417SOL     OW18392   1.757   3.735   7.600
  417SOL    HW118393   1.733   3.826   7.585
  417SOL    HW218394   1.814   3.713   7.526
  418SOL     OW18395   4.471   2.416   0.506
  418SOL    HW118396   4.453   2.403   0.414
  418SOL    HW218397   4.391   2.456   0.541
  419SOL     OW18398   6.390   3.902   1.061
  419SOL    HW118399   6.304   3.925   1.025
  419SOL    HW218400   6.370   3.842   1.132
  420SOL     OW18401   1.408   5.569   6.924
  420SOL    HW118402   1.482   5.615   6.964
  420SOL    HW218403   1.424   5.477   6.944
  421SOL     OW18404   1.866   3.047   7.551
  421SOL    HW118405   1.887   3.050   7.645
  421SOL    HW218406   1.796   3.111   7.540
  422SOL     OW18407   0.511   0.586   6.062
  422SOL    HW118408   0.555   0.558   5.982
  422SOL    HW218409   0.581   0.588   6.128
  423SOL     OW18410   2.371   4.846   0.665
  423SOL    HW118411   2.402   4.877   0.750
  423SOL    HW218412   2.293   4.898   0.647
  424SOL     OW18413   2.299   0.716   6.617
  424SOL    HW118414   2.246   0.647   6.656
  424SOL    HW218415   2.344   0.756   6.691
  425SOL     OW18416   4.062   2.210   1.050
  425SOL    HW118417   4.063   2.148   0.978
  425SOL    HW218418   4.001   2.279   1.022
  426SOL     OW18419   6.098   2.972   5.559
  426SOL    HW118420   6.128   2.883   5.576
  426SOL    HW218421   6.166   3.028   5.596
  427SOL     OW18422   2.590   6.196   5.067
  427SOL    HW118423   2.678   6.218   5.099
  427SOL    HW218424   2.605   6.151   4.984
  428SOL     OW18425   5.437   3.636   0.750
  428SOL    HW118426   5.445   3.654   0.843
  428SOL    HW218427   5.403   3.717   0.712
  429SOL     OW18428   6.205   1.354   1.290
  429SOL    HW118429   6.253   1.362   1.372
  429SOL    HW218430   6.218   1.438   1.246
  430SOL     OW18431   1.413   0.739   6.848
  430SOL    HW118432   1.385   0.754   6.757
  430SOL    HW218433   1.448   0.650   6.847
  431SOL     OW18434   1.821   1.795   0.941
  431SOL    HW118435   1.821   1.737   0.865
  431SOL    HW218436   1.910   1.790   0.975
  432SOL     OW18437   0.682   3.719   6.889
  432SOL    HW118438   0.657   3.685   6.803
  432SOL    HW218439   0.707   3.810   6.872
  433SOL     OW18440   4.395   1.231   0.029
  433SOL    HW118441   4.383   1.214   0.122
  433SOL    HW218442   4.490   1.243   0.019
  434SOL     OW18443   0.290   4.886   1.699
  434SOL    HW118444   0.242   4.803   1.704
  434SOL    HW218445   0.339   4.890   1.782
  435SOL     OW18446   4.601   6.392   6.794
  435SOL    HW118447   4.693   6.377   6.774
  435SOL    HW218448   4.598   6.395   6.890
  436SOL     OW18449   5.042   5.221   0.693
  436SOL    HW118450   5.098   5.227   0.616
  436SOL    HW218451   4.988   5.143   0.677
  437SOL     OW18452   4.069   3.470   2.329
  437SOL    HW118453   4.017   3.484   2.250
  437SOL    HW218454   4.027   3.397   2.373
  438SOL     OW18455   6.191   6.363   1.461
  438SOL    HW118456   6.263   6.319   1.507
  438SOL    HW218457   6.218   6.455   1.458
  439SOL     OW18458   0.888   2.085   1.902
  439SOL    HW118459   0.808   2.129   1.933
  439SOL    HW218460   0.943   2.155   1.867
  440SOL     OW18461   1.401   0.267   5.997
  440SOL    HW118462   1.495   0.251   5.994
  440SOL    HW218463   1.393   0.362   5.985
  441SOL     OW18464   6.120   5.348   2.385
  441SOL    HW118465   6.130   5.442   2.369
  441SOL    HW218466   6.208   5.317   2.407
  442SOL     OW18467   5.965   3.961   6.991
  442SOL    HW118468   5.925   4.044   6.967
  442SOL    HW218469   6.028   3.983   7.059
  443SOL     OW18470   2.203   5.789   0.386
  443SOL    HW118471   2.194   5.736   0.306
  443SOL    HW218472   2.113   5.795   0.420
  444SOL     OW18473   4.513   5.276   1.430
  444SOL    HW118474   4.578   5.244   1.492
  444SOL    HW218475   4.433   5.285   1.482
  445SOL     OW18476   5.912   1.503   7.626
  445SOL    HW118477   5.828   1.468   7.594
  445SOL    HW218478   5.935   1.570   7.562
  446SOL     OW18479   0.090   5.859   5.759
  446SOL    HW118480   0.011   5.805   5.756
  446SOL    HW218481   0.070   5.933   5.701
  447SOL     OW18482   2.400   2.877   5.786
  447SOL    HW118483   2.350   2.814   5.838
  447SOL    HW218484   2.404   2.838   5.698
  448SOL     OW18485   1.525   3.601   1.367
  448SOL    HW118486   1.594   3.541   1.393
  448SOL    HW218487   1.481   3.559   1.294
  449SOL     OW18488   0.523   6.145   1.362
  449SOL    HW118489   0.477   6.150   1.278
  449SOL    HW218490   0.584   6.219   1.360
  450SOL     OW18491   3.413   4.752   1.995
  450SOL    HW118492   3.323   4.766   2.025
  450SOL    HW218493   3.447   4.683   2.053
  451SOL     OW18494   5.376   6.015   6.772
  451SOL    HW118495   5.325   6.019   6.853
  451SOL    HW218496   5.409   5.925   6.769
  452SOL     OW18497   3.703   3.631   1.275
  452SOL    HW118498   3.791   3.602   1.251
  452SOL    HW218499   3.665   3.555   1.320
  453SOL     OW18500   4.560   0.063   0.047
  453SOL    HW118501   4.619   0.102   7.744
  453SOL    HW218502   4.617   0.014   0.105
  454SOL     OW18503   0.903   1.413   7.285
  454SOL    HW118504   0.980   1.406   7.343
  454SOL    HW218505   0.900   1.329   7.239
  455SOL     OW18506   1.492   2.648   6.405
  455SOL    HW118507   1.579   2.653   6.443
  455SOL    HW218508   1.498   2.580   6.338
  456SOL     OW18509   5.196   2.149   7.067
  456SOL    HW118510   5.180   2.069   7.117
  456SOL    HW218511   5.284   2.177   7.093
  457SOL     OW18512   4.575   1.913   6.587
  457SOL    HW118513   4.591   1.855   6.662
  457SOL    HW218514   4.481   1.904   6.570
  458SOL     OW18515   0.564   5.952   7.490
  458SOL    HW118516   0.554   5.994   7.404
  458SOL    HW218517   0.476   5.919   7.511
  459SOL     OW18518   1.379   5.676   1.399
  459SOL    HW118519   1.291   5.684   1.435
  459SOL    HW218520   1.410   5.767   1.392
  460SOL     OW18521   2.007   0.784   7.293
  460SOL    HW118522   2.001   0.878   7.310
  460SOL    HW218523   2.049   0.777   7.207
  461SOL     OW18524   4.449   4.384   1.051
  461SOL    HW118525   4.503   4.391   0.973
  461SOL    HW218526   4.411   4.296   1.046
  462SOL     OW18527   0.436   1.656   0.142
  462SOL    HW118528   0.447   1.594   0.070
  462SOL    HW218529   0.380   1.725   0.106
  463SOL     OW18530   3.651   4.469   0.049
  463SOL    HW118531   3.702   4.516   7.744
  463SOL    HW218532   3.560   4.493   0.031
  464SOL     OW18533   1.476   5.667   0.875
  464SOL    HW118534   1.498   5.711   0.957
  464SOL    HW218535   1.499   5.575   0.890
  465SOL     OW18536   3.525   2.899   6.421
  465SOL    HW118537   3.580   2.844   6.477
  465SOL    HW218538   3.441   2.903   6.467
  466SOL     OW18539   2.127   4.589   6.660
  466SOL    HW118540   2.185   4.622   6.728
  466SOL    HW218541   2.184   4.572   6.585
  467SOL     OW18542   1.527   5.929   1.404
  467SOL    HW118543   1.506   6.015   1.370
  467SOL    HW218544   1.548   5.943   1.497
  468SOL     OW18545   4.285   3.399   7.507
  468SOL    HW118546   4.313   3.374   7.419
  468SOL    HW218547   4.211   3.341   7.525
  469SOL     OW18548   0.815   4.217   1.307
  469SOL    HW118549   0.876   4.227   1.234
  469SOL    HW218550   0.750   4.287   1.293
  470SOL     OW18551   2.595   3.333   0.637
  470SOL    HW118552   2.594   3.422   0.671
  470SOL    HW218553   2.684   3.301   0.657
  471SOL     OW18554   5.331   4.060   1.843
  471SOL    HW118555   5.412   4.109   1.853
  471SOL    HW218556   5.276   4.116   1.788
  472SOL     OW18557   4.348   2.917   0.582
  472SOL    HW118558   4.327   2.935   0.674
  472SOL    HW218559   4.268   2.938   0.535
  473SOL     OW18560   0.508   1.113   0.607
  473SOL    HW118561   0.522   1.208   0.613
  473SOL    HW218562   0.414   1.102   0.621
  474SOL     OW18563   4.672   4.104   6.931
  474SOL    HW118564   4.753   4.155   6.943
  474SOL    HW218565   4.672   4.042   7.003
  475SOL     OW18566   3.951   4.667   0.050
  475SOL    HW118567   3.863   4.689   0.021
  475SOL    HW218568   3.965   4.578   0.016
  476SOL     OW18569   4.670   5.962   0.389
  476SOL    HW118570   4.638   5.874   0.368
  476SOL    HW218571   4.765   5.953   0.389
  477SOL     OW18572   1.950   4.417   6.374
  477SOL    HW118573   1.905   4.342   6.337
  477SOL    HW218574   2.036   4.384   6.400
  478SOL     OW18575   3.020   1.242   6.185
  478SOL    HW118576   2.931   1.275   6.176
  478SOL    HW218577   3.014   1.150   6.160
  479SOL     OW18578   2.423   2.727   5.525
  479SOL    HW118579   2.352   2.765   5.474
  479SOL    HW218580   2.498   2.725   5.466
  480SOL     OW18581   2.883   1.808   5.780
  480SOL    HW118582   2.833   1.727   5.771
  480SOL    HW218583   2.819   1.877   5.760
  481SOL     OW18584   6.381   2.398   7.028
  481SOL    HW118585   6.326   2.462   6.982
  481SOL    HW218586   6.364   2.414   7.121
  482SOL     OW18587   4.534   3.938   1.394
  482SOL    HW118588   4.625   3.943   1.365
  482SOL    HW218589   4.518   4.023   1.436
  483SOL     OW18590   0.654   3.952   1.465
  483SOL    HW118591   0.750   3.960   1.459
  483SOL    HW218592   0.623   4.042   1.467
  484SOL     OW18593   1.597   1.869   1.069
  484SOL    HW118594   1.675   1.844   1.020
  484SOL    HW218595   1.595   1.809   1.144
  485SOL     OW18596   2.030   1.095   6.950
  485SOL    HW118597   1.984   1.064   6.872
  485SOL    HW218598   2.113   1.046   6.948
  486SOL     OW18599   0.865   2.929   6.562
  486SOL    HW118600   0.956   2.942   6.587
  486SOL    HW218601   0.815   2.948   6.642
  487SOL     OW18602   1.473   1.202   0.093
  487SOL    HW118603   1.498   1.269   0.157
  487SOL    HW218604   1.506   1.120   0.129
  488SOL     OW18605   5.281   5.938   0.484
  488SOL    HW118606   5.293   5.870   0.550
  488SOL    HW218607   5.228   6.004   0.527
  489SOL     OW18608   3.854   1.946   2.273
  489SOL    HW118609   3.826   1.997   2.349
  489SOL    HW218610   3.949   1.937   2.285
  490SOL     OW18611   5.637   0.500   7.343
  490SOL    HW118612   5.663   0.576   7.291
  490SOL    HW218613   5.616   0.535   7.429
  491SOL     OW18614   4.567   5.917   1.178
  491SOL    HW118615   4.644   5.951   1.133
  491SOL    HW218616   4.567   5.823   1.159
  492SOL     OW18617   1.074   0.159   7.457
  492SOL    HW118618   1.103   0.097   7.524
  492SOL    HW218619   1.146   0.161   7.394
  493SOL     OW18620   0.735   3.586   7.513
  493SOL    HW118621   0.673   3.622   7.576
  493SOL    HW218622   0.714   3.492   7.510
  494SOL     OW18623   3.307   2.372   6.013
  494SOL    HW118624   3.275   2.400   6.099
  494SOL    HW218625   3.345   2.286   6.028
  495SOL     OW18626   4.871   0.239   5.358
  495SOL    HW118627   4.916   0.198   5.433
  495SOL    HW218628   4.942   0.259   5.297
  496SOL     OW18629   2.173   5.033   7.343
  496SOL    HW118630   2.202   5.110   7.294
  496SOL    HW218631   2.209   4.959   7.295
  497SOL     OW18632   2.363   2.424   6.063
  497SOL    HW118633   2.434   2.443   6.124
  497SOL    HW218634   2.406   2.390   5.985
  498SOL     OW18635   3.691   1.880   5.871
  498SOL    HW118636   3.744   1.808   5.837
  498SOL    HW218637   3.746   1.958   5.860
  499SOL     OW18638   5.158   2.838   6.949
  499SOL    HW118639   5.130   2.756   6.989
  499SOL    HW218640   5.117   2.838   6.862
  500SOL     OW18641   5.165   2.144   6.572
  500SOL    HW118642   5.241   2.102   6.531
  500SOL    HW218643   5.155   2.227   6.524
  501SOL     OW18644   0.382   5.139   1.606
  501SOL    HW118645   0.339   5.059   1.636
  501SOL    HW218646   0.310   5.195   1.578
  502SOL     OW18647   1.316   1.563   5.687
  502SOL    HW118648   1.382   1.540   5.752
  502SOL    HW218649   1.363   1.617   5.623
  503SOL     OW18650   1.502   0.697   1.284
  503SOL    HW118651   1.529   0.742   1.205
  503SOL    HW218652   1.419   0.655   1.261
  504SOL     OW18653   2.537   5.252   7.509
  504SOL    HW118654   2.623   5.287   7.530
  504SOL    HW218655   2.498   5.230   7.594
  505SOL     OW18656   2.572   3.738   6.322
  505SOL    HW118657   2.612   3.802   6.381
  505SOL    HW218658   2.480   3.733   6.350
  506SOL     OW18659   3.179   2.398   6.241
  506SOL    HW118660   3.207   2.354   6.322
  506SOL    HW218661   3.103   2.347   6.212
  507SOL     OW18662   6.200   4.066   1.322
  507SOL    HW118663   6.242   3.980   1.325
  507SOL    HW218664   6.107   4.047   1.332
  508SOL     OW18665   4.048   2.809   7.491
  508SOL    HW118666   3.977   2.772   7.543
  508SOL    HW218667   4.007   2.880   7.441
  509SOL     OW18668   0.523   6.062   2.094
  509SOL    HW118669   0.430   6.081   2.104
  509SOL    HW218670   0.553   6.045   2.183
  510SOL     OW18671   3.629   3.521   0.775
  510SOL    HW118672   3.625   3.509   0.869
  510SOL    HW218673   3.715   3.559   0.759
  511SOL     OW18674   4.587   5.866   7.451
  511SOL    HW118675   4.499   5.850   7.485
  511SOL    HW218676   4.637   5.894   7.528
  512SOL     OW18677   1.278   4.971   7.591
  512SOL    HW118678   1.366   4.948   7.623
  512SOL    HW218679   1.248   5.039   7.651
  513SOL     OW18680   4.291   5.085   6.549
  513SOL    HW118681   4.320   4.994   6.561
  513SOL    HW218682   4.214   5.093   6.605
  514SOL     OW18683   3.125   2.796   1.969
  514SOL    HW118684   3.031   2.789   1.983
  514SOL    HW218685   3.155   2.706   1.959
  515SOL     OW18686   4.057   4.603   0.834
  515SOL    HW118687   4.112   4.606   0.913
  515SOL    HW218688   4.035   4.510   0.824
  516SOL     OW18689   6.094   0.564   6.429
  516SOL    HW118690   6.161   0.547   6.363
  516SOL    HW218691   6.084   0.659   6.429
  517SOL     OW18692   1.149   1.238   6.573
  517SOL    HW118693   1.106   1.323   6.560
  517SOL    HW218694   1.234   1.248   6.530
  518SOL     OW18695   3.913   4.788   1.135
  518SOL    HW118696   3.986   4.849   1.125
  518SOL    HW218697   3.884   4.800   1.226
  519SOL     OW18698   5.063   3.687   6.152
  519SOL    HW118699   5.054   3.652   6.063
  519SOL    HW218700   5.070   3.610   6.208
  520SOL     OW18701   3.564   5.811   7.289
  520SOL    HW118702   3.604   5.792   7.204
  520SOL    HW218703   3.498   5.878   7.269
  521SOL     OW18704   1.100   0.063   5.379
  521SOL    HW118705   1.046   0.130   5.337
  521SOL    HW218706   1.188   0.078   5.344
  522SOL     OW18707   2.678   1.569   1.301
  522SOL    HW118708   2.613   1.561   1.371
  522SOL    HW218709   2.654   1.648   1.254
  523SOL     OW18710   0.075   4.158   5.613
  523SOL    HW118711   0.100   4.066   5.602
  523SOL    HW218712   0.113   4.202   5.537
  524SOL     OW18713   5.871   6.184   7.226
  524SOL    HW118714   5.930   6.112   7.252
  524SOL    HW218715   5.828   6.152   7.147
  525SOL     OW18716   4.153   1.396   7.096
  525SOL    HW118717   4.245   1.373   7.096
  525SOL    HW218718   4.128   1.394   7.189
  526SOL     OW18719   2.552   6.236   0.516
  526SOL    HW118720   2.502   6.191   0.585
  526SOL    HW218721   2.485   6.276   0.461
  527SOL     OW18722   4.093   5.543   0.692
  527SOL    HW118723   4.025   5.601   0.726
  527SOL    HW218724   4.126   5.587   0.614
  528SOL     OW18725   3.264   4.716   5.698
  528SOL    HW118726   3.239   4.796   5.650
  528SOL    HW218727   3.273   4.649   5.630
  529SOL     OW18728   3.184   3.740   1.566
  529SOL    HW118729   3.144   3.670   1.514
  529SOL    HW218730   3.233   3.695   1.634
  530SOL     OW18731   0.202   2.237   6.369
  530SOL    HW118732   0.142   2.223   6.296
  530SOL    HW218733   0.284   2.263   6.328
  531SOL     OW18734   0.152   4.948   7.520
  531SOL    HW118735   0.214   4.944   7.593
  531SOL    HW218736   0.195   4.899   7.450
  532SOL     OW18737   5.134   5.215   6.666
  532SOL    HW118738   5.097   5.129   6.685
  532SOL    HW218739   5.058   5.268   6.641
  533SOL     OW18740   0.168   4.510   5.584
  533SOL    HW118741   0.223   4.449   5.633
  533SOL    HW218742   0.213   4.520   5.500
  534SOL     OW18743   3.066   6.466   6.552
  534SOL    HW118744   3.123   0.042   6.594
  534SOL    HW218745   2.986   0.026   6.532
  535SOL     OW18746   4.706   3.143   2.293
  535SOL    HW118747   4.720   3.222   2.346
  535SOL    HW218748   4.785   3.091   2.306
  536SOL     OW18749   2.931   5.693   6.731
  536SOL    HW118750   2.969   5.606   6.743
  536SOL    HW218751   2.945   5.737   6.815
  537SOL     OW18752   3.497   2.390   6.891
  537SOL    HW118753   3.509   2.296   6.877
  537SOL    HW218754   3.425   2.414   6.833
  538SOL     OW18755   2.056   4.757   0.345
  538SOL    HW118756   2.110   4.830   0.376
  538SOL    HW218757   2.094   4.733   0.261
  539SOL     OW18758   4.434   6.148   7.136
  539SOL    HW118759   4.373   6.177   7.068
  539SOL    HW218760   4.512   6.120   7.087
  540SOL     OW18761   1.339   5.485   1.159
  540SOL    HW118762   1.343   5.568   1.206
  540SOL    HW218763   1.332   5.418   1.227
  541SOL     OW18764   5.719   2.397   0.869
  541SOL    HW118765   5.791   2.354   0.915
  541SOL    HW218766   5.734   2.376   0.776
  542SOL     OW18767   4.084   3.831   2.069
  542SOL    HW118768   3.993   3.806   2.052
  542SOL    HW218769   4.093   3.825   2.164
  543SOL     OW18770   5.503   1.979   0.696
  543SOL    HW118771   5.413   1.983   0.729
  543SOL    HW218772   5.557   1.973   0.775
  544SOL     OW18773   5.057   5.383   5.754
  544SOL    HW118774   4.968   5.417   5.766
  544SOL    HW218775   5.045   5.297   5.714
  545SOL     OW18776   3.233   2.225   7.600
  545SOL    HW118777   3.179   2.243   7.522
  545SOL    HW218778   3.238   2.309   7.645
  546SOL     OW18779   1.324   4.964   7.313
  546SOL    HW118780   1.293   5.044   7.356
  546SOL    HW218781   1.293   4.893   7.369
  547SOL     OW18782   1.233   5.254   0.569
  547SOL    HW118783   1.235   5.222   0.659
  547SOL    HW218784   1.141   5.274   0.552
  548SOL     OW18785   1.395   1.773   0.319
  548SOL    HW118786   1.467   1.826   0.353
  548SOL    HW218787   1.370   1.817   0.237
  549SOL     OW18788   4.000   1.983   6.094
  549SOL    HW118789   3.983   1.985   6.000
  549SOL    HW218790   3.963   2.066   6.125
  550SOL     OW18791   5.025   6.116   7.071
  550SOL    HW118792   4.952   6.130   7.011
  550SOL    HW218793   5.059   6.205   7.088
  551SOL     OW18794   0.217   5.178   6.540
  551SOL    HW118795   0.124   5.174   6.560
  551SOL    HW218796   0.249   5.089   6.558
  552SOL     OW18797   0.437   4.492   6.671
  552SOL    HW118798   0.433   4.413   6.726
  552SOL    HW218799   0.402   4.464   6.586
  553SOL     OW18800   4.065   4.249   7.045
  553SOL    HW118801   4.036   4.319   7.104
  553SOL    HW218802   4.108   4.185   7.102
  554SOL     OW18803   1.114   4.313   5.895
  554SOL    HW118804   1.143   4.305   5.986
  554SOL    HW218805   1.146   4.234   5.852
  555SOL     OW18806   4.148   2.388   0.708
  555SOL    HW118807   4.143   2.400   0.803
  555SOL    HW218808   4.228   2.336   0.695
  556SOL     OW18809   6.022   0.461   0.479
  556SOL    HW118810   5.977   0.479   0.396
  556SOL    HW218811   5.974   0.512   0.543
  557SOL     OW18812   2.205   0.075   7.156
  557SOL    HW118813   2.228   0.168   7.158
  557SOL    HW218814   2.232   0.046   7.069
  558SOL     OW18815   1.025   1.698   7.316
  558SOL    HW118816   1.085   1.699   7.390
  558SOL    HW218817   0.945   1.657   7.351
  559SOL     OW18818   4.653   0.167   6.598
  559SOL    HW118819   4.669   0.106   6.525
  559SOL    HW218820   4.684   0.120   6.675
  560SOL     OW18821   0.293   3.802   1.190
  560SOL    HW118822   0.370   3.770   1.238
  560SOL    HW218823   0.324   3.882   1.147
  561SOL     OW18824   6.161   4.832   6.471
  561SOL    HW118825   6.217   4.908   6.488
  561SOL    HW218826   6.209   4.757   6.506
  562SOL     OW18827   5.295   5.009   5.539
  562SOL    HW118828   5.318   5.099   5.518
  562SOL    HW218829   5.313   4.960   5.459
  563SOL     OW18830   0.854   4.901   7.364
  563SOL    HW118831   0.801   4.972   7.328
  563SOL    HW218832   0.927   4.893   7.303
  564SOL     OW18833   1.869   0.267   0.172
  564SOL    HW118834   1.948   0.296   0.126
  564SOL    HW218835   1.849   0.338   0.232
  565SOL     OW18836   4.112   6.245   6.671
  565SOL    HW118837   4.199   6.277   6.694
  565SOL    HW218838   4.129   6.159   6.631
  566SOL     OW18839   4.744   1.627   7.013
  566SOL    HW118840   4.772   1.540   6.984
  566SOL    HW218841   4.761   1.627   7.107
  567SOL     OW18842   5.960   1.691   7.440
  567SOL    HW118843   6.037   1.740   7.412
  567SOL    HW218844   5.886   1.741   7.407
  568SOL     OW18845   1.572   2.523   1.442
  568SOL    HW118846   1.574   2.577   1.363
  568SOL    HW218847   1.647   2.552   1.494
  569SOL     OW18848   4.068   2.261   7.227
  569SOL    HW118849   4.031   2.194   7.284
  569SOL    HW218850   4.131   2.215   7.172
  570SOL     OW18851   3.178   2.589   0.397
  570SOL    HW118852   3.256   2.596   0.342
  570SOL    HW218853   3.120   2.529   0.349
  571SOL     OW18854   5.587   5.653   7.091
  571SOL    HW118855   5.640   5.613   7.021
  571SOL    HW218856   5.497   5.643   7.061
  572SOL     OW18857   3.609   0.197   2.301
  572SOL    HW118858   3.611   0.102   2.291
  572SOL    HW218859   3.694   0.226   2.268
  573SOL     OW18860   0.390   1.191   5.457
  573SOL    HW118861   0.464   1.223   5.508
  573SOL    HW218862   0.400   1.096   5.457
  574SOL     OW18863   6.416   6.374   2.243
  574SOL    HW118864   6.422   6.333   2.157
  574SOL    HW218865   6.323   6.391   2.256
  575SOL     OW18866   1.045   4.263   0.924
  575SOL    HW118867   1.013   4.225   0.842
  575SOL    HW218868   0.965   4.286   0.972
  576SOL     OW18869   4.490   6.151   6.367
  576SOL    HW118870   4.581   6.177   6.383
  576SOL    HW218871   4.439   6.229   6.385
  577SOL     OW18872   5.108   2.349   1.797
  577SOL    HW118873   5.110   2.279   1.732
  577SOL    HW218874   5.173   2.412   1.766
  578SOL     OW18875   1.333   1.398   0.566
  578SOL    HW118876   1.359   1.416   0.476
  578SOL    HW218877   1.408   1.424   0.619
  579SOL     OW18878   0.979   3.028   7.642
  579SOL    HW118879   0.974   3.048   7.736
  579SOL    HW218880   0.933   3.101   7.600
  580SOL     OW18881   0.807   5.726   0.889
  580SOL    HW118882   0.902   5.732   0.896
  580SOL    HW218883   0.775   5.812   0.917
  581SOL     OW18884   0.499   4.515   0.297
  581SOL    HW118885   0.449   4.563   0.363
  581SOL    HW218886   0.447   4.437   0.279
  582SOL     OW18887   6.119   2.978   7.761
  582SOL    HW118888   6.211   2.992   0.020
  582SOL    HW218889   6.074   2.986   0.084
  583SOL     OW18890   2.454   2.805   7.261
  583SOL    HW118891   2.404   2.878   7.226
  583SOL    HW218892   2.459   2.821   7.355
  584SOL     OW18893   1.881   1.956   1.882
  584SOL    HW118894   1.817   1.885   1.884
  584SOL    HW218895   1.951   1.923   1.825
  585SOL     OW18896   5.053   0.936   1.502
  585SOL    HW118897   4.983   0.909   1.562
  585SOL    HW218898   5.033   1.028   1.483
  586SOL     OW18899   6.301   4.268   0.443
  586SOL    HW118900   6.370   4.322   0.482
  586SOL    HW218901   6.242   4.248   0.516
  587SOL     OW18902   5.335   5.995   6.424
  587SOL    HW118903   5.309   5.905   6.402
  587SOL    HW218904   5.362   5.991   6.516
  588SOL     OW18905   4.817   3.972   5.448
  588SOL    HW118906   4.779   3.894   5.408
  588SOL    HW218907   4.904   3.943   5.477
  589SOL     OW18908   4.155   1.631   5.642
  589SOL    HW118909   4.167   1.720   5.608
  589SOL    HW218910   4.139   1.642   5.735
  590SOL     OW18911   3.383   0.818   7.595
  590SOL    HW118912   3.454   0.861   7.546
  590SOL    HW218913   3.427   0.780   7.671
  591SOL     OW18914   2.062   0.445   0.811
  591SOL    HW118915   2.034   0.354   0.824
  591SOL    HW218916   2.069   0.454   0.716
  592SOL     OW18917   3.723   1.378   1.424
  592SOL    HW118918   3.785   1.314   1.388
  592SOL    HW218919   3.712   1.351   1.515
  593SOL     OW18920   4.811   4.525   7.219
  593SOL    HW118921   4.814   4.522   7.314
  593SOL    HW218922   4.861   4.448   7.191
  594SOL     OW18923   1.880   3.067   0.063
  594SOL    HW118924   1.786   3.061   0.083
  594SOL    HW218925   1.923   3.055   0.147
  595SOL     OW18926   5.805   1.328   1.354
  595SOL    HW118927   5.710   1.336   1.346
  595SOL    HW218928   5.838   1.417   1.347
  596SOL     OW18929   4.534   5.310   5.829
  596SOL    HW118930   4.626   5.306   5.803
  596SOL    HW218931   4.535   5.301   5.924
  597SOL     OW18932   2.668   2.007   6.748
  597SOL    HW118933   2.696   1.963   6.668
  597SOL    HW218934   2.746   2.056   6.776
  598SOL     OW18935   5.822   5.136   5.727
  598SOL    HW118936   5.880   5.164   5.655
  598SOL    HW218937   5.879   5.089   5.787
  599SOL     OW18938   2.129   5.813   7.503
  599SOL    HW118939   2.183   5.735   7.489
  599SOL    HW218940   2.191   5.885   7.503
  600SOL     OW18941   2.496   5.333   6.727
  600SOL    HW118942   2.437   5.271   6.685
  600SOL    HW218943   2.470   5.418   6.693
  601SOL     OW18944   2.026   4.521   5.448
  601SOL    HW118945   2.052   4.598   5.498
  601SOL    HW218946   2.040   4.448   5.507
  602SOL     OW18947   5.906   4.024   1.044
  602SOL    HW118948   5.842   4.017   1.115
  602SOL    HW218949   5.888   4.109   1.004
  603SOL     OW18950   0.300   3.111   0.090
  603SOL    HW118951   0.351   3.066   0.022
  603SOL    HW218952   0.291   3.046   0.160
  604SOL     OW18953   2.616   6.106   6.033
  604SOL    HW118954   2.616   6.166   6.107
  604SOL    HW218955   2.553   6.144   5.972
  605SOL     OW18956   1.772   6.447   6.940
  605SOL    HW118957   1.752   0.027   7.003
  605SOL    HW218958   1.800   0.006   6.862
  606SOL     OW18959   0.075   1.303   7.008
  606SOL    HW118960   0.090   1.346   6.923
  606SOL    HW218961   6.484   1.251   6.995
  607SOL     OW18962   1.406   5.199   1.483
  607SOL    HW118963   1.343   5.245   1.428
  607SOL    HW218964   1.359   5.182   1.564
  608SOL     OW18965   6.299   4.804   6.782
  608SOL    HW118966   6.387   4.823   6.815
  608SOL    HW218967   6.307   4.720   6.738
  609SOL     OW18968   0.041   6.033   6.873
  609SOL    HW118969   0.064   6.021   6.965
  609SOL    HW218970   0.109   5.987   6.824
  610SOL     OW18971   1.309   2.870   1.077
  610SOL    HW118972   1.281   2.824   1.156
  610SOL    HW218973   1.227   2.899   1.036
  611SOL     OW18974   6.361   2.236   7.617
  611SOL    HW118975   6.363   2.325   7.652
  611SOL    HW218976   6.277   2.201   7.646
  612SOL     OW18977   3.500   0.150   6.181
  612SOL    HW118978   3.511   0.202   6.101
  612SOL    HW218979   3.549   0.070   6.165
  613SOL     OW18980   5.397   2.096   6.795
  613SOL    HW118981   5.490   2.105   6.813
  613SOL    HW218982   5.374   2.177   6.749
  614SOL     OW18983   3.949   1.998   1.227
  614SOL    HW118984   3.958   2.074   1.169
  614SOL    HW218985   3.898   2.030   1.301
  615SOL     OW18986   6.207   3.043   1.082
  615SOL    HW118987   6.113   3.053   1.066
  615SOL    HW218988   6.224   2.950   1.068
  616SOL     OW18989   5.242   3.293   1.912
  616SOL    HW118990   5.242   3.211   1.863
  616SOL    HW218991   5.247   3.266   2.004
  617SOL     OW18992   4.289   6.363   0.263
  617SOL    HW118993   4.283   6.417   0.342
  617SOL    HW218994   4.380   6.374   0.234
  618SOL     OW18995   2.486   3.837   6.962
  618SOL    HW118996   2.558   3.826   6.901
  618SOL    HW218997   2.454   3.749   6.979
  619SOL     OW18998   4.755   4.316   0.417
  619SOL    HW118999   4.695   4.390   0.412
  619SOL    HW219000   4.702   4.244   0.450
  620SOL     OW19001   3.450   3.784   6.246
  620SOL    HW119002   3.524   3.765   6.187
  620SOL    HW219003   3.398   3.850   6.199
  621SOL     OW19004   6.379   6.179   0.529
  621SOL    HW119005   6.384   6.193   0.624
  621SOL    HW219006   6.384   6.084   0.518
  622SOL     OW19007   5.728   3.518   1.823
  622SOL    HW119008   5.794   3.481   1.883
  622SOL    HW219009   5.778   3.543   1.745
  623SOL     OW19010   3.269   4.242   6.965
  623SOL    HW119011   3.297   4.201   6.883
  623SOL    HW219012   3.262   4.170   7.027
  624SOL     OW19013   5.192   6.338   7.079
  624SOL    HW119014   5.239   6.268   7.034
  624SOL    HW219015   5.227   6.418   7.040
  625SOL     OW19016   3.125   4.767   5.359
  625SOL    HW119017   3.047   4.796   5.312
  625SOL    HW219018   3.163   4.847   5.395
  626SOL     OW19019   0.470   2.885   0.890
  626SOL    HW119020   0.400   2.923   0.944
  626SOL    HW219021   0.428   2.863   0.807
  627SOL     OW19022   2.337   4.945   6.170
  627SOL    HW119023   2.398   4.918   6.102
  627SOL    HW219024   2.392   4.976   6.242
  628SOL     OW19025   3.033   5.431   0.815
  628SOL    HW119026   2.973   5.434   0.890
  628SOL    HW219027   3.042   5.523   0.788
  629SOL     OW19028   5.056   1.217   0.911
  629SOL    HW119029   5.045   1.156   0.985
  629SOL    HW219030   5.145   1.252   0.924
  630SOL     OW19031   2.361   1.457   0.695
  630SOL    HW119032   2.417   1.415   0.629
  630SOL    HW219033   2.275   1.418   0.680
  631SOL     OW19034   1.289   0.729   7.237
  631SOL    HW119035   1.336   0.765   7.313
  631SOL    HW219036   1.307   0.791   7.166
  632SOL     OW19037   4.689   2.414   7.298
  632SOL    HW119038   4.782   2.396   7.284
  632SOL    HW219039   4.683   2.445   7.389
  633SOL     OW19040   6.274   2.537   7.622
  633SOL    HW119041   6.247   2.569   7.536
  633SOL    HW219042   6.317   2.612   7.663
  634SOL     OW19043   2.617   5.337   5.250
  634SOL    HW119044   2.531   5.368   5.279
  634SOL    HW219045   2.638   5.266   5.310
  635SOL     OW19046   1.742   4.340   6.843
  635SOL    HW119047   1.731   4.435   6.841
  635SOL    HW219048   1.824   4.326   6.890
  636SOL     OW19049   4.795   0.944   7.426
  636SOL    HW119050   4.831   0.938   7.515
  636SOL    HW219051   4.702   0.923   7.437
  637SOL     OW19052   2.978   4.365   6.510
  637SOL    HW119053   2.915   4.382   6.440
  637SOL    HW219054   2.986   4.270   6.513
  638SOL     OW19055   2.657   0.059   5.571
  638SOL    HW119056   2.701   0.141   5.595
  638SOL    HW219057   2.710   6.479   5.610
  639SOL     OW19058   0.646   3.631   0.891
  639SOL    HW119059   0.740   3.623   0.904
  639SOL    HW219060   0.636   3.638   0.796
  640SOL     OW19061   0.936   2.120   6.942
  640SOL    HW119062   0.896   2.097   6.858
  640SOL    HW219063   0.863   2.125   7.003
  641SOL     OW19064   1.772   0.896   6.577
  641SOL    HW119065   1.744   0.988   6.581
  641SOL    HW219066   1.835   0.894   6.505
  642SOL     OW19067   5.365   5.573   6.768
  642SOL    HW119068   5.381   5.640   6.701
  642SOL    HW219069   5.279   5.537   6.744
  643SOL     OW19070   1.489   4.300   0.089
  643SOL    HW119071   1.488   4.210   0.058
  643SOL    HW219072   1.484   4.293   0.184
  644SOL     OW19073   0.582   4.248   1.512
  644SOL    HW119074   0.510   4.299   1.549
  644SOL    HW219075   0.661   4.298   1.534
  645SOL     OW19076   2.184   4.573   7.124
  645SOL    HW119077   2.254   4.521   7.085
  645SOL    HW219078   2.155   4.522   7.200
  646SOL     OW19079   5.352   3.564   7.361
  646SOL    HW119080   5.354   3.508   7.283
  646SOL    HW219081   5.435   3.611   7.360
  647SOL     OW19082   5.472   5.213   1.028
  647SOL    HW119083   5.521   5.295   1.018
  647SOL    HW219084   5.424   5.224   1.110
  648SOL     OW19085   4.822   2.053   2.994
  648SOL    HW119086   4.752   2.091   2.941
  648SOL    HW219087   4.809   1.959   2.988
  649SOL     OW19088   0.761   6.107   6.452
  649SOL    HW119089   0.804   6.137   6.372
  649SOL    HW219090   0.799   6.162   6.521
  650SOL     OW19091   2.076   3.801   5.965
  650SOL    HW119092   2.040   3.884   5.934
  650SOL    HW219093   2.019   3.775   6.037
  651SOL     OW19094   3.130   1.120   7.568
  651SOL    HW119095   3.112   1.030   7.594
  651SOL    HW219096   3.099   1.173   7.642
  652SOL     OW19097   1.465   5.453   6.620
  652SOL    HW119098   1.558   5.446   6.603
  652SOL    HW219099   1.453   5.541   6.658
  653SOL     OW19100   3.590   3.508   0.269
  653SOL    HW119101   3.509   3.527   0.222
  653SOL    HW219102   3.566   3.515   0.361
  654SOL     OW19103   1.476   3.923   1.455
  654SOL    HW119104   1.404   3.978   1.424
  654SOL    HW219105   1.553   3.956   1.408
  655SOL     OW19106   6.168   5.718   1.942
  655SOL    HW119107   6.149   5.737   2.034
  655SOL    HW219108   6.248   5.766   1.924
  656SOL     OW19109   5.480   1.728   0.542
  656SOL    HW119110   5.447   1.737   0.453
  656SOL    HW219111   5.497   1.818   0.571
  657SOL     OW19112   4.370   3.483   5.759
  657SOL    HW119113   4.287   3.458   5.800
  657SOL    HW219114   4.422   3.402   5.759
  658SOL     OW19115   2.772   2.924   1.547
  658SOL    HW119116   2.765   2.937   1.642
  658SOL    HW219117   2.801   2.833   1.538
  659SOL     OW19118   5.820   5.399   7.675
  659SOL    HW119119   5.879   5.327   7.696
  659SOL    HW219120   5.810   5.395   7.580
  660SOL     OW19121   1.977   4.049   5.896
  660SOL    HW119122   2.009   4.061   5.806
  660SOL    HW219123   1.934   4.131   5.917
  661SOL     OW19124   5.586   4.248   6.618
  661SOL    HW119125   5.647   4.211   6.554
  661SOL    HW219126   5.580   4.182   6.687
  662SOL     OW19127   5.995   0.730   0.274
  662SOL    HW119128   6.083   0.721   0.237
  662SOL    HW219129   6.008   0.731   0.368
  663SOL     OW19130   0.923   4.440   6.271
  663SOL    HW119131   0.912   4.389   6.352
  663SOL    HW219132   0.935   4.374   6.203
  664SOL     OW19133   3.328   2.342   7.207
  664SOL    HW119134   3.409   2.303   7.175
  664SOL    HW219135   3.305   2.407   7.141
  665SOL     OW19136   4.530   0.247   0.497
  665SOL    HW119137   4.542   0.153   0.508
  665SOL    HW219138   4.436   0.256   0.480
  666SOL     OW19139   2.670   2.397   0.747
  666SOL    HW119140   2.740   2.462   0.750
  666SOL    HW219141   2.610   2.422   0.817
  667SOL     OW19142   2.988   1.182   0.143
  667SOL    HW119143   2.961   1.172   0.234
  667SOL    HW219144   2.909   1.210   0.097
  668SOL     OW19145   3.691   2.656   1.542
  668SOL    HW119146   3.670   2.626   1.631
  668SOL    HW219147   3.704   2.750   1.551
  669SOL     OW19148   5.918   6.288   0.923
  669SOL    HW119149   5.862   6.293   0.846
  669SOL    HW219150   5.890   6.207   0.967
  670SOL     OW19151   1.481   3.364   6.079
  670SOL    HW119152   1.552   3.301   6.090
  670SOL    HW219153   1.482   3.415   6.160
  671SOL     OW19154   3.127   0.862   7.690
  671SOL    HW119155   3.062   0.793   7.690
  671SOL    HW219156   3.205   0.822   7.651
  672SOL     OW19157   6.062   1.175   6.599
  672SOL    HW119158   6.099   1.174   6.687
  672SOL    HW219159   6.089   1.093   6.560
  673SOL     OW19160   4.717   4.406   1.847
  673SOL    HW119161   4.645   4.428   1.789
  673SOL    HW219162   4.739   4.488   1.891
  674SOL     OW19163   2.624   6.113   1.366
  674SOL    HW119164   2.618   6.139   1.275
  674SOL    HW219165   2.624   6.017   1.364
  675SOL     OW19166   3.674   1.896   7.596
  675SOL    HW119167   3.604   1.840   7.562
  675SOL    HW219168   3.643   1.985   7.579
  676SOL     OW19169   0.651   3.280   7.687
  676SOL    HW119170   0.585   3.328   7.637
  676SOL    HW219171   0.721   3.262   7.624
  677SOL     OW19172   5.284   5.790   6.048
  677SOL    HW119173   5.338   5.719   6.082
  677SOL    HW219174   5.207   5.793   6.105
  678SOL     OW19175   6.221   0.359   1.203
  678SOL    HW119176   6.304   0.315   1.223
  678SOL    HW219177   6.211   0.424   1.273
  679SOL     OW19178   3.756   3.687   7.688
  679SOL    HW119179   3.741   3.598   7.656
  679SOL    HW219180   3.705   3.743   7.629
  680SOL     OW19181   1.148   2.425   7.215
  680SOL    HW119182   1.063   2.387   7.236
  680SOL    HW219183   1.192   2.357   7.164
  681SOL     OW19184   5.904   1.314   6.903
  681SOL    HW119185   5.852   1.384   6.864
  681SOL    HW219186   5.994   1.347   6.901
  682SOL     OW19187   1.945   4.095   1.460
  682SOL    HW119188   1.986   4.090   1.546
  682SOL    HW219189   1.947   4.006   1.426
  683SOL     OW19190   3.006   4.047   6.943
  683SOL    HW119191   2.957   3.991   7.003
  683SOL    HW219192   2.975   4.135   6.961
  684SOL     OW19193   3.447   2.993   7.035
  684SOL    HW119194   3.372   2.938   7.056
  684SOL    HW219195   3.522   2.950   7.076
  685SOL     OW19196   6.398   5.051   0.795
  685SOL    HW119197   6.382   4.960   0.768
  685SOL    HW219198   6.315   5.096   0.776
  686SOL     OW19199   1.274   0.246   6.781
  686SOL    HW119200   1.264   0.228   6.687
  686SOL    HW219201   1.187   0.233   6.817
  687SOL     OW19202   2.443   4.296   6.113
  687SOL    HW119203   2.521   4.278   6.061
  687SOL    HW219204   2.475   4.300   6.203
  688SOL     OW19205   0.188   5.873   1.276
  688SOL    HW119206   0.234   5.795   1.243
  688SOL    HW219207   0.131   5.899   1.203
  689SOL     OW19208   3.900   1.688   0.378
  689SOL    HW119209   3.970   1.679   0.313
  689SOL    HW219210   3.922   1.624   0.446
  690SOL     OW19211   2.551   6.472   0.675
  690SOL    HW119212   2.596   6.404   0.625
  690SOL    HW219213   2.572   6.453   0.766
  691SOL     OW19214   2.670   4.613   6.688
  691SOL    HW119215   2.714   4.687   6.730
  691SOL    HW219216   2.727   4.538   6.704
  692SOL     OW19217   0.623   2.267   6.526
  692SOL    HW119218   0.585   2.253   6.613
  692SOL    HW219219   0.704   2.215   6.527
  693SOL     OW19220   4.138   0.844   7.061
  693SOL    HW119221   4.140   0.751   7.084
  693SOL    HW219222   4.204   0.853   6.992
  694SOL     OW19223   2.356   2.592   0.988
  694SOL    HW119224   2.395   2.670   0.947
  694SOL    HW219225   2.282   2.570   0.931
  695SOL     OW19226   1.163   5.731   6.885
  695SOL    HW119227   1.225   5.664   6.914
  695SOL    HW219228   1.077   5.696   6.912
  696SOL     OW19229   1.241   3.877   1.648
  696SOL    HW119230   1.208   3.865   1.559
  696SOL    HW219231   1.331   3.905   1.637
  697SOL     OW19232   5.084   3.192   0.890
  697SOL    HW119233   5.172   3.197   0.852
  697SOL    HW219234   5.025   3.198   0.814
  698SOL     OW19235   2.723   3.970   6.524
  698SOL    HW119236   2.698   4.057   6.555
  698SOL    HW219237   2.818   3.975   6.512
  699SOL     OW19238   3.876   2.807   1.769
  699SOL    HW119239   3.972   2.799   1.771
  699SOL    HW219240   3.858   2.850   1.685
  700SOL     OW19241   6.260   1.367   6.438
  700SOL    HW119242   6.241   1.290   6.491
  700SOL    HW219243   6.281   1.435   6.501
  701SOL     OW19244   0.515   1.010   5.730
  701SOL    HW119245   0.485   0.992   5.641
  701SOL    HW219246   0.581   1.079   5.720
  702SOL     OW19247   2.222   4.335   2.399
  702SOL    HW119248   2.168   4.411   2.378
  702SOL    HW219249   2.159   4.267   2.421
  703SOL     OW19250   1.488   1.819   6.549
  703SOL    HW119251   1.527   1.752   6.605
  703SOL    HW219252   1.527   1.804   6.462
  704SOL     OW19253   3.455   5.827   6.640
  704SOL    HW119254   3.448   5.901   6.580
  704SOL    HW219255   3.546   5.798   6.631
  705SOL     OW19256   4.430   0.541   5.547
  705SOL    HW119257   4.436   0.555   5.453
  705SOL    HW219258   4.490   0.469   5.564
  706SOL     OW19259   4.913   3.683   1.809
  706SOL    HW119260   4.984   3.623   1.832
  706SOL    HW219261   4.904   3.739   1.887
  707SOL     OW19262   2.880   5.418   0.171
  707SOL    HW119263   2.973   5.422   0.149
  707SOL    HW219264   2.848   5.507   0.155
  708SOL     OW19265   6.024   2.659   0.445
  708SOL    HW119266   5.993   2.596   0.380
  708SOL    HW219267   5.948   2.713   0.465
  709SOL     OW19268   4.603   3.585   1.887
  709SOL    HW119269   4.652   3.649   1.938
  709SOL    HW219270   4.603   3.620   1.798
  710SOL     OW19271   1.991   0.500   0.264
  710SOL    HW119272   1.908   0.547   0.264
  710SOL    HW219273   2.056   0.567   0.244
  711SOL     OW19274   5.593   3.080   7.186
  711SOL    HW119275   5.622   3.101   7.097
  711SOL    HW219276   5.537   3.003   7.175
  712SOL     OW19277   4.406   6.059   1.671
  712SOL    HW119278   4.348   6.044   1.597
  712SOL    HW219279   4.374   6.140   1.711
  713SOL     OW19280   0.099   6.153   6.378
  713SOL    HW119281   0.032   6.113   6.433
  713SOL    HW219282   0.097   6.101   6.297
  714SOL     OW19283   2.063   3.303   0.701
  714SOL    HW119284   2.018   3.282   0.619
  714SOL    HW219285   2.110   3.222   0.724
  715SOL     OW19286   5.893   3.288   0.939
  715SOL    HW119287   5.809   3.284   0.893
  715SOL    HW219288   5.879   3.235   1.018
  716SOL     OW19289   1.793   4.625   0.288
  716SOL    HW119290   1.887   4.635   0.299
  716SOL    HW219291   1.756   4.710   0.311
  717SOL     OW19292   0.599   2.943   5.986
  717SOL    HW119293   0.581   2.857   5.950
  717SOL    HW219294   0.615   2.998   5.909
  718SOL     OW19295   3.265   1.279   7.399
  718SOL    HW119296   3.186   1.311   7.355
  718SOL    HW219297   3.236   1.207   7.454
  719SOL     OW19298   2.974   2.295   1.752
  719SOL    HW119299   3.043   2.230   1.766
  719SOL    HW219300   2.947   2.282   1.661
  720SOL     OW19301   5.434   0.557   6.330
  720SOL    HW119302   5.377   0.600   6.393
  720SOL    HW219303   5.483   0.628   6.289
  721SOL     OW19304   0.921   6.134   2.416
  721SOL    HW119305   1.004   6.097   2.446
  721SOL    HW219306   0.939   6.228   2.407
  722SOL     OW19307   4.647   2.154   2.748
  722SOL    HW119308   4.555   2.127   2.746
  722SOL    HW219309   4.667   2.176   2.657
  723SOL     OW19310   1.327   0.903   7.054
  723SOL    HW119311   1.369   0.874   6.973
  723SOL    HW219312   1.315   0.998   7.042
  724SOL     OW19313   0.299   4.694   0.101
  724SOL    HW119314   0.222   4.665   0.052
  724SOL    HW219315   0.348   4.613   0.118
  725SOL     OW19316   5.236   5.609   0.956
  725SOL    HW119317   5.322   5.644   0.978
  725SOL    HW219318   5.177   5.645   1.023
  726SOL     OW19319   0.158   5.503   1.016
  726SOL    HW119320   0.094   5.572   1.001
  726SOL    HW219321   0.225   5.544   1.071
  727SOL     OW19322   2.198   4.180   1.134
  727SOL    HW119323   2.124   4.212   1.185
  727SOL    HW219324   2.196   4.085   1.146
  728SOL     OW19325   3.642   1.187   5.441
  728SOL    HW119326   3.557   1.231   5.441
  728SOL    HW219327   3.632   1.115   5.379
  729SOL     OW19328   3.777   2.352   1.802
  729SOL    HW119329   3.724   2.380   1.877
  729SOL    HW219330   3.840   2.422   1.789
  730SOL     OW19331   0.502   5.274   1.394
  730SOL    HW119332   0.450   5.252   1.471
  730SOL    HW219333   0.509   5.369   1.395
  731SOL     OW19334   6.171   3.820   6.410
  731SOL    HW119335   6.178   3.845   6.318
  731SOL    HW219336   6.076   3.822   6.428
  732SOL     OW19337   3.449   2.683   6.737
  732SOL    HW119338   3.508   2.689   6.661
  732SOL    HW219339   3.371   2.640   6.703
  733SOL     OW19340   2.039   6.098   7.721
  733SOL    HW119341   1.980   6.070   7.652
  733SOL    HW219342   2.094   6.166   7.680
  734SOL     OW19343   2.992   6.057   5.754
  734SOL    HW119344   3.051   6.110   5.701
  734SOL    HW219345   2.904   6.077   5.720
  735SOL     OW19346   6.010   3.483   6.277
  735SOL    HW119347   6.082   3.526   6.232
  735SOL    HW219348   6.042   3.468   6.366
  736SOL     OW19349   2.320   4.419   0.582
  736SOL    HW119350   2.255   4.350   0.595
  736SOL    HW219351   2.320   4.468   0.664
  737SOL     OW19352   5.368   1.856   1.385
  737SOL    HW119353   5.386   1.822   1.297
  737SOL    HW219354   5.453   1.887   1.416
  738SOL     OW19355   5.564   4.836   0.060
  738SOL    HW119356   5.525   4.764   0.109
  738SOL    HW219357   5.546   4.816   7.730
  739SOL     OW19358   2.230   3.041   7.527
  739SOL    HW119359   2.183   3.124   7.534
  739SOL    HW219360   2.316   3.065   7.493
  740SOL     OW19361   3.573   1.776   6.533
  740SOL    HW119362   3.600   1.830   6.608
  740SOL    HW219363   3.624   1.809   6.460
  741SOL     OW19364   1.263   1.271   1.153
  741SOL    HW119365   1.220   1.190   1.124
  741SOL    HW219366   1.225   1.339   1.098
  742SOL     OW19367   4.414   0.078   7.191
  742SOL    HW119368   4.330   0.036   7.170
  742SOL    HW219369   4.393   0.139   7.262
  743SOL     OW19370   2.756   2.594   0.072
  743SOL    HW119371   2.815   2.593   0.147
  743SOL    HW219372   2.668   2.599   0.111
  744SOL     OW19373   6.355   2.460   1.693
  744SOL    HW119374   6.404   2.542   1.702
  744SOL    HW219375   6.396   2.416   1.619
  745SOL     OW19376   2.173   1.795   6.750
  745SOL    HW119377   2.098   1.782   6.692
  745SOL    HW219378   2.167   1.887   6.776
  746SOL     OW19379   3.404   2.618   7.034
  746SOL    HW119380   3.443   2.548   6.982
  746SOL    HW219381   3.393   2.690   6.972
  747SOL     OW19382   0.698   2.111   1.002
  747SOL    HW119383   0.733   2.134   1.088
  747SOL    HW219384   0.773   2.117   0.943
  748SOL     OW19385   0.378   2.325   0.267
  748SOL    HW119386   0.334   2.321   0.352
  748SOL    HW219387   0.392   2.418   0.251
  749SOL     OW19388   0.011   4.560   7.270
  749SOL    HW119389   6.439   4.571   7.344
  749SOL    HW219390   0.052   4.475   7.285
  750SOL     OW19391   3.071   1.860   6.762
  750SOL    HW119392   3.161   1.858   6.731
  750SOL    HW219393   3.069   1.797   6.834
  751SOL     OW19394   3.967   2.899   1.113
  751SOL    HW119395   3.887   2.846   1.114
  751SOL    HW219396   3.966   2.944   1.197
  752SOL     OW19397   3.585   2.251   6.212
  752SOL    HW119398   3.570   2.253   6.306
  752SOL    HW219399   3.518   2.192   6.178
  753SOL     OW19400   4.353   2.230   6.619
  753SOL    HW119401   4.332   2.177   6.542
  753SOL    HW219402   4.388   2.311   6.584
  754SOL     OW19403   0.034   4.368   6.725
  754SOL    HW119404   6.428   4.352   6.723
  754SOL    HW219405   0.063   4.349   6.636
  755SOL     OW19406   0.508   1.678   6.823
  755SOL    HW119407   0.484   1.670   6.731
  755SOL    HW219408   0.447   1.621   6.870
  756SOL     OW19409   2.598   5.962   7.025
  756SOL    HW119410   2.657   6.037   7.034
  756SOL    HW219411   2.514   6.000   7.001
  757SOL     OW19412   1.812   1.103   0.890
  757SOL    HW119413   1.727   1.060   0.889
  757SOL    HW219414   1.871   1.041   0.932
  758SOL     OW19415   2.366   6.280   0.342
  758SOL    HW119416   2.325   6.194   0.351
  758SOL    HW219417   2.324   6.319   0.266
  759SOL     OW19418   4.964   3.725   6.605
  759SOL    HW119419   4.991   3.807   6.564
  759SOL    HW219420   4.976   3.739   6.699
  760SOL     OW19421   4.498   2.730   7.547
  760SOL    HW119422   4.507   2.785   7.469
  760SOL    HW219423   4.419   2.679   7.532
  761SOL     OW19424   4.006   2.867   0.643
  761SOL    HW119425   4.018   2.919   0.563
  761SOL    HW219426   3.947   2.797   0.617
  762SOL     OW19427   1.463   0.457   6.816
  762SOL    HW119428   1.399   0.388   6.800
  762SOL    HW219429   1.528   0.446   6.746
  763SOL     OW19430   0.341   4.283   7.586
  763SOL    HW119431   0.283   4.264   7.512
  763SOL    HW219432   0.347   4.200   7.633
  764SOL     OW19433   0.790   5.437   0.840
  764SOL    HW119434   0.742   5.419   0.759
  764SOL    HW219435   0.803   5.532   0.840
  765SOL     OW19436   6.409   3.246   6.719
  765SOL    HW119437   6.315   3.264   6.725
  765SOL    HW219438   6.431   3.267   6.628
  766SOL     OW19439   4.368   2.605   1.746
  766SOL    HW119440   4.375   2.528   1.690
  766SOL    HW219441   4.303   2.661   1.703
  767SOL     OW19442   1.242   1.126   6.278
  767SOL    HW119443   1.179   1.059   6.307
  767SOL    HW219444   1.205   1.158   6.196
  768SOL     OW19445   1.586   4.706   1.022
  768SOL    HW119446   1.573   4.682   0.931
  768SOL    HW219447   1.594   4.802   1.021
  769SOL     OW19448   3.492   2.937   1.462
  769SOL    HW119449   3.429   3.003   1.432
  769SOL    HW219450   3.438   2.870   1.504
  770SOL     OW19451   1.582   6.334   6.051
  770SOL    HW119452   1.617   6.257   6.095
  770SOL    HW219453   1.525   6.299   5.983
  771SOL     OW19454   1.363   3.390   1.133
  771SOL    HW119455   1.455   3.409   1.114
  771SOL    HW219456   1.349   3.301   1.099
  772SOL     OW19457   6.359   5.777   7.559
  772SOL    HW119458   6.399   5.708   7.611
  772SOL    HW219459   6.351   5.852   7.619
  773SOL     OW19460   4.433   1.851   0.201
  773SOL    HW119461   4.473   1.850   0.287
  773SOL    HW219462   4.485   1.789   0.149
  774SOL     OW19463   2.632   2.035   6.267
  774SOL    HW119464   2.616   2.048   6.173
  774SOL    HW219465   2.717   1.990   6.270
  775SOL     OW19466   3.599   1.948   0.548
  775SOL    HW119467   3.694   1.946   0.561
  775SOL    HW219468   3.573   1.856   0.551
  776SOL     OW19469   2.841   1.835   2.050
  776SOL    HW119470   2.865   1.762   2.108
  776SOL    HW219471   2.811   1.904   2.110
  777SOL     OW19472   4.295   2.821   1.983
  777SOL    HW119473   4.381   2.784   1.962
  777SOL    HW219474   4.270   2.779   2.065
  778SOL     OW19475   1.791   5.300   0.666
  778SOL    HW119476   1.826   5.211   0.667
  778SOL    HW219477   1.869   5.355   0.676
  779SOL     OW19478   1.371   3.597   5.969
  779SOL    HW119479   1.393   3.607   6.062
  779SOL    HW219480   1.435   3.534   5.936
  780SOL     OW19481   4.934   5.306   7.305
  780SOL    HW119482   4.991   5.230   7.306
  780SOL    HW219483   4.923   5.328   7.398
  781SOL     OW19484   3.500   2.226   5.466
  781SOL    HW119485   3.541   2.295   5.519
  781SOL    HW219486   3.507   2.257   5.376
  782SOL     OW19487   3.895   0.021   5.671
  782SOL    HW119488   3.912   0.106   5.712
  782SOL    HW219489   3.853   0.042   5.588
  783SOL     OW19490   2.885   2.817   7.054
  783SOL    HW119491   2.877   2.906   7.087
  783SOL    HW219492   2.795   2.784   7.053
  784SOL     OW19493   1.643   5.645   5.918
  784SOL    HW119494   1.634   5.659   6.012
  784SOL    HW219495   1.554   5.654   5.883
  785SOL     OW19496   6.126   4.257   0.925
  785SOL    HW119497   6.161   4.237   1.012
  785SOL    HW219498   6.048   4.310   0.941
  786SOL     OW19499   5.347   0.472   0.342
  786SOL    HW119500   5.387   0.398   0.297
  786SOL    HW219501   5.404   0.489   0.417
  787SOL     OW19502   0.855   5.891   0.554
  787SOL    HW119503   0.775   5.942   0.538
  787SOL    HW219504   0.824   5.803   0.573
  788SOL     OW19505   5.254   1.869   7.708
  788SOL    HW119506   5.199   1.905   7.639
  788SOL    HW219507   5.224   1.912   0.027
  789SOL     OW19508   2.334   1.074   6.653
  789SOL    HW119509   2.264   1.139   6.657
  789SOL    HW219510   2.415   1.125   6.654
  790SOL     OW19511   4.157   5.440   7.617
  790SOL    HW119512   4.250   5.463   7.627
  790SOL    HW219513   4.112   5.493   7.682
  791SOL     OW19514   3.750   3.878   7.269
  791SOL    HW119515   3.750   3.832   7.185
  791SOL    HW219516   3.842   3.888   7.292
  792SOL     OW19517   3.744   1.851   7.004
  792SOL    HW119518   3.790   1.774   7.036
  792SOL    HW219519   3.674   1.865   7.068
  793SOL     OW19520   5.926   4.583   6.628
  793SOL    HW119521   5.995   4.563   6.564
  793SOL    HW219522   5.929   4.678   6.637
  794SOL     OW19523   2.531   6.309   5.834
  794SOL    HW119524   2.475   6.278   5.763
  794SOL    HW219525   2.620   6.288   5.805
  795SOL     OW19526   1.092   3.919   6.539
  795SOL    HW119527   1.086   3.850   6.606
  795SOL    HW219528   1.177   3.903   6.497
  796SOL     OW19529   1.688   0.442   1.201
  796SOL    HW119530   1.681   0.535   1.180
  796SOL    HW219531   1.620   0.427   1.267
  797SOL     OW19532   3.405   2.061   1.092
  797SOL    HW119533   3.373   2.112   1.017
  797SOL    HW219534   3.404   2.122   1.165
  798SOL     OW19535   2.195   2.430   1.692
  798SOL    HW119536   2.122   2.445   1.632
  798SOL    HW219537   2.154   2.418   1.778
  799SOL     OW19538   3.437   4.561   6.104
  799SOL    HW119539   3.526   4.529   6.120
  799SOL    HW219540   3.447   4.623   6.032
  800SOL     OW19541   4.431   5.253   7.359
  800SOL    HW119542   4.338   5.266   7.340
  800SOL    HW219543   4.475   5.277   7.278
  801SOL     OW19544   2.304   6.118   1.179
  801SOL    HW119545   2.390   6.079   1.161
  801SOL    HW219546   2.297   6.189   1.115
  802SOL     OW19547   3.184   5.364   7.285
  802SOL    HW119548   3.276   5.384   7.303
  802SOL    HW219549   3.176   5.374   7.190
  803SOL     OW19550   1.911   6.294   6.062
  803SOL    HW119551   1.941   6.347   6.136
  803SOL    HW219552   1.820   6.319   6.049
  804SOL     OW19553   5.904   0.366   0.072
  804SOL    HW119554   5.814   0.383   0.045
  804SOL    HW219555   5.945   0.453   0.073
  805SOL     OW19556   4.533   4.032   0.814
  805SOL    HW119557   4.470   3.972   0.855
  805SOL    HW219558   4.558   4.093   0.884
  806SOL     OW19559   3.759   4.918   6.561
  806SOL    HW119560   3.773   4.949   6.472
  806SOL    HW219561   3.784   4.825   6.558
  807SOL     OW19562   3.652   6.197   0.084
  807SOL    HW119563   3.638   6.108   0.052
  807SOL    HW219564   3.566   6.238   0.080
  808SOL     OW19565   4.125   0.135   1.443
  808SOL    HW119566   4.125   0.152   1.349
  808SOL    HW219567   4.214   0.157   1.471
  809SOL     OW19568   3.568   3.250   6.930
  809SOL    HW119569   3.531   3.220   6.847
  809SOL    HW219570   3.536   3.187   6.995
  810SOL     OW19571   2.875   0.170   6.451
  810SOL    HW119572   2.880   0.246   6.393
  810SOL    HW219573   2.819   0.108   6.405
  811SOL     OW19574   4.475   5.775   6.657
  811SOL    HW119575   4.432   5.707   6.709
  811SOL    HW219576   4.446   5.858   6.696
  812SOL     OW19577   6.400   0.313   0.281
  812SOL    HW119578   6.385   0.318   0.187
  812SOL    HW219579   6.334   0.252   0.314
  813SOL     OW19580   3.957   3.293   6.277
  813SOL    HW119581   3.987   3.345   6.202
  813SOL    HW219582   4.036   3.278   6.329
  814SOL     OW19583   6.454   3.027   6.382
  814SOL    HW119584   6.413   3.093   6.326
  814SOL    HW219585   6.386   2.961   6.395
  815SOL     OW19586   1.292   6.164   1.737
  815SOL    HW119587   1.336   6.172   1.821
  815SOL    HW219588   1.253   6.076   1.739
  816SOL     OW19589   5.803   0.053   0.482
  816SOL    HW119590   5.757   0.124   0.437
  816SOL    HW219591   5.823   6.478   0.413
  817SOL     OW19592   4.256   5.202   5.795
  817SOL    HW119593   4.209   5.278   5.830
  817SOL    HW219594   4.348   5.227   5.800
  818SOL     OW19595   3.790   6.066   1.178
  818SOL    HW119596   3.847   6.139   1.202
  818SOL    HW219597   3.827   5.991   1.226
  819SOL     OW19598   3.408   4.976   1.214
  819SOL    HW119599   3.450   5.030   1.147
  819SOL    HW219600   3.474   4.969   1.283
  820SOL     OW19601   2.525   5.406   5.812
  820SOL    HW119602   2.450   5.405   5.753
  820SOL    HW219603   2.493   5.365   5.892
  821SOL     OW19604   6.360   3.422   0.381
  821SOL    HW119605   6.299   3.461   0.445
  821SOL    HW219606   6.376   3.493   0.319
  822SOL     OW19607   4.124   4.094   6.784
  822SOL    HW119608   4.134   4.172   6.729
  822SOL    HW219609   4.179   4.112   6.860
  823SOL     OW19610   0.341   0.769   0.174
  823SOL    HW119611   0.389   0.777   0.257
  823SOL    HW219612   0.341   0.675   0.155
  824SOL     OW19613   1.425   6.393   7.498
  824SOL    HW119614   1.355   6.402   7.434
  824SOL    HW219615   1.408   6.308   7.540
  825SOL     OW19616   2.410   3.131   5.835
  825SOL    HW119617   2.369   3.144   5.921
  825SOL    HW219618   2.402   3.037   5.819
  826SOL     OW19619   4.736   6.361   0.185
  826SOL    HW119620   4.820   6.367   0.232
  826SOL    HW219621   4.750   6.292   0.121
  827SOL     OW19622   2.156   3.493   0.969
  827SOL    HW119623   2.079   3.485   1.026
  827SOL    HW219624   2.196   3.406   0.971
  828SOL     OW19625   0.409   2.599   1.334
  828SOL    HW119626   0.478   2.562   1.389
  828SOL    HW219627   0.448   2.605   1.247
  829SOL     OW19628   5.361   5.657   1.566
  829SOL    HW119629   5.435   5.616   1.611
  829SOL    HW219630   5.290   5.655   1.631
  830SOL     OW19631   4.140   4.041   7.231
  830SOL    HW119632   4.228   4.055   7.265
  830SOL    HW219633   4.110   3.962   7.276
  831SOL     OW19634   2.533   1.435   7.632
  831SOL    HW119635   2.517   1.350   7.675
  831SOL    HW219636   2.534   1.414   7.539
  832SOL     OW19637   2.180   4.394   0.341
  832SOL    HW119638   2.260   4.404   0.392
  832SOL    HW219639   2.110   4.387   0.407
  833SOL     OW19640   2.447   3.617   1.315
  833SOL    HW119641   2.504   3.542   1.328
  833SOL    HW219642   2.480   3.684   1.374
  834SOL     OW19643   1.911   4.473   0.840
  834SOL    HW119644   1.939   4.449   0.928
  834SOL    HW219645   1.836   4.416   0.822
  835SOL     OW19646   0.764   1.822   6.867
  835SOL    HW119647   0.687   1.771   6.843
  835SOL    HW219648   0.805   1.773   6.938
  836SOL     OW19649   6.328   0.228   6.256
  836SOL    HW119650   6.396   0.161   6.253
  836SOL    HW219651   6.317   0.247   6.349
  837SOL     OW19652   3.231   4.321   6.295
  837SOL    HW119653   3.197   4.393   6.348
  837SOL    HW219654   3.295   4.278   6.352
  838SOL     OW19655   2.579   1.572   6.239
  838SOL    HW119656   2.609   1.630   6.309
  838SOL    HW219657   2.615   1.486   6.263
  839SOL     OW19658   1.898   5.668   6.362
  839SOL    HW119659   1.967   5.709   6.311
  839SOL    HW219660   1.907   5.705   6.449
  840SOL     OW19661   4.614   5.586   6.553
  840SOL    HW119662   4.567   5.660   6.592
  840SOL    HW219663   4.670   5.626   6.487
  841SOL     OW19664   0.713   3.934   6.069
  841SOL    HW119665   0.668   3.978   5.997
  841SOL    HW219666   0.803   3.964   6.063
  842SOL     OW19667   3.807   4.824   6.952
  842SOL    HW119668   3.758   4.888   6.900
  842SOL    HW219669   3.885   4.805   6.900
  843SOL     OW19670   2.410   4.565   6.726
  843SOL    HW119671   2.502   4.586   6.711
  843SOL    HW219672   2.375   4.642   6.771
  844SOL     OW19673   1.768   5.324   1.067
  844SOL    HW119674   1.799   5.415   1.071
  844SOL    HW219675   1.838   5.277   1.023
  845SOL     OW19676   2.568   3.304   7.123
  845SOL    HW119677   2.662   3.288   7.114
  845SOL    HW219678   2.536   3.312   7.033
  846SOL     OW19679   3.303   4.600   1.013
  846SOL    HW119680   3.320   4.647   1.094
  846SOL    HW219681   3.364   4.527   1.015
  847SOL     OW19682   2.006   1.259   0.221
  847SOL    HW119683   1.968   1.246   0.135
  847SOL    HW219684   1.941   1.308   0.270
  848SOL     OW19685   0.297   0.681   0.714
  848SOL    HW119686   0.368   0.735   0.677
  848SOL    HW219687   0.227   0.686   0.650
  849SOL     OW19688   0.311   1.011   5.975
  849SOL    HW119689   0.390   1.045   5.933
  849SOL    HW219690   0.307   0.919   5.947
  850SOL     OW19691   3.417   1.934   5.920
  850SOL    HW119692   3.493   1.877   5.929
  850SOL    HW219693   3.391   1.925   5.828
  851SOL     OW19694   3.007   5.643   5.867
  851SOL    HW119695   2.953   5.628   5.790
  851SOL    HW219696   3.006   5.559   5.913
  852SOL     OW19697   2.425   1.663   0.842
  852SOL    HW119698   2.440   1.634   0.932
  852SOL    HW219699   2.392   1.585   0.797
  853SOL     OW19700   2.492   1.870   6.398
  853SOL    HW119701   2.547   1.807   6.445
  853SOL    HW219702   2.553   1.921   6.345
  854SOL     OW19703   6.096   5.195   0.257
  854SOL    HW119704   6.116   5.131   0.325
  854SOL    HW219705   6.111   5.280   0.298
  855SOL     OW19706   0.385   2.017   6.918
  855SOL    HW119707   0.388   1.979   6.830
  855SOL    HW219708   0.295   2.003   6.947
  856SOL     OW19709   6.294   3.193   5.988
  856SOL    HW119710   6.201   3.214   5.995
  856SOL    HW219711   6.334   3.275   5.960
  857SOL     OW19712   4.451   5.060   6.934
  857SOL    HW119713   4.485   4.978   6.971
  857SOL    HW219714   4.372   5.033   6.887
  858SOL     OW19715   1.230   6.110   6.188
  858SOL    HW119716   1.176   6.120   6.267
  858SOL    HW219717   1.208   6.187   6.135
  859SOL     OW19718   1.107   2.426   0.110
  859SOL    HW119719   1.103   2.342   0.063
  859SOL    HW219720   1.035   2.477   0.073
  860SOL     OW19721   0.797   3.071   7.268
  860SOL    HW119722   0.889   3.060   7.245
  860SOL    HW219723   0.781   3.006   7.336
  861SOL     OW19724   3.081   6.259   5.578
  861SOL    HW119725   3.029   6.270   5.498
  861SOL    HW219726   3.096   6.348   5.609
  862SOL     OW19727   1.609   4.871   0.622
  862SOL    HW119728   1.629   4.821   0.542
  862SOL    HW219729   1.653   4.824   0.692
  863SOL     OW19730   5.642   5.895   7.246
  863SOL    HW119731   5.648   5.808   7.205
  863SOL    HW219732   5.676   5.955   7.179
  864SOL     OW19733   5.868   5.444   5.791
  864SOL    HW119734   5.832   5.359   5.766
  864SOL    HW219735   5.820   5.469   5.870
  865SOL     OW19736   2.818   0.007   1.369
  865SOL    HW119737   2.778   0.092   1.387
  865SOL    HW219738   2.778   6.437   1.434
  866SOL     OW19739   0.889   0.452   5.696
  866SOL    HW119740   0.803   0.411   5.687
  866SOL    HW219741   0.930   0.407   5.770
  867SOL     OW19742   6.133   6.458   6.722
  867SOL    HW119743   6.126   0.032   6.794
  867SOL    HW219744   6.105   0.018   6.645
  868SOL     OW19745   3.486   3.599   0.513
  868SOL    HW119746   3.561   3.632   0.563
  868SOL    HW219747   3.420   3.667   0.520
  869SOL     OW19748   4.062   2.003   7.673
  869SOL    HW119749   4.089   2.003   0.003
  869SOL    HW219750   4.135   2.044   7.626
  870SOL     OW19751   2.899   0.999   6.041
  870SOL    HW119752   2.896   0.917   6.091
  870SOL    HW219753   2.812   1.004   6.000
  871SOL     OW19754   5.536   3.346   2.244
  871SOL    HW119755   5.601   3.399   2.197
  871SOL    HW219756   5.457   3.401   2.245
  872SOL     OW19757   0.212   3.969   6.535
  872SOL    HW119758   0.254   3.905   6.476
  872SOL    HW219759   0.234   3.938   6.623
  873SOL     OW19760   4.867   3.179   6.189
  873SOL    HW119761   4.850   3.237   6.114
  873SOL    HW219762   4.852   3.234   6.266
  874SOL     OW19763   2.707   5.946   0.696
  874SOL    HW119764   2.724   5.940   0.602
  874SOL    HW219765   2.611   5.939   0.703
  875SOL     OW19766   1.071   1.259   0.851
  875SOL    HW119767   1.060   1.231   0.761
  875SOL    HW219768   0.986   1.296   0.876
  876SOL     OW19769   5.059   3.750   2.035
  876SOL    HW119770   5.142   3.797   2.044
  876SOL    HW219771   5.055   3.693   2.112
  877SOL     OW19772   5.864   6.110   0.459
  877SOL    HW119773   5.816   6.085   0.538
  877SOL    HW219774   5.955   6.119   0.488
  878SOL     OW19775   0.865   5.398   0.233
  878SOL    HW119776   0.950   5.442   0.238
  878SOL    HW219777   0.824   5.433   0.155
  879SOL     OW19778   5.686   1.973   0.904
  879SOL    HW119779   5.775   1.961   0.872
  879SOL    HW219780   5.696   1.993   0.997
  880SOL     OW19781   0.475   3.511   6.443
  880SOL    HW119782   0.433   3.563   6.512
  880SOL    HW219783   0.503   3.431   6.487
  881SOL     OW19784   0.959   0.913   0.884
  881SOL    HW119785   0.929   0.990   0.837
  881SOL    HW219786   0.988   0.853   0.815
  882SOL     OW19787   3.900   5.405   0.970
  882SOL    HW119788   3.847   5.332   0.938
  882SOL    HW219789   3.882   5.408   1.064
  883SOL     OW19790   6.187   2.063   1.024
  883SOL    HW119791   6.259   2.124   1.014
  883SOL    HW219792   6.159   2.072   1.115
  884SOL     OW19793   6.010   1.197   1.510
  884SOL    HW119794   5.934   1.208   1.453
  884SOL    HW219795   6.058   1.279   1.503
  885SOL     OW19796   1.358   0.146   5.296
  885SOL    HW119797   1.435   0.089   5.287
  885SOL    HW219798   1.390   0.234   5.278
  886SOL     OW19799   3.347   1.602   7.761
  886SOL    HW119800   3.382   1.617   0.088
  886SOL    HW219801   3.317   1.511   0.000
  887SOL     OW19802   4.672   4.072   2.123
  887SOL    HW119803   4.659   4.166   2.140
  887SOL    HW219804   4.665   4.031   2.209
  888SOL     OW19805   3.390   4.487   6.971
  888SOL    HW119806   3.339   4.406   6.978
  888SOL    HW219807   3.463   4.474   7.032
  889SOL     OW19808   3.507   4.515   0.470
  889SOL    HW119809   3.493   4.585   0.535
  889SOL    HW219810   3.584   4.543   0.421
  890SOL     OW19811   5.253   2.650   0.269
  890SOL    HW119812   5.186   2.618   0.208
  890SOL    HW219813   5.290   2.728   0.226
  891SOL     OW19814   4.638   2.586   6.592
  891SOL    HW119815   4.667   2.597   6.682
  891SOL    HW219816   4.657   2.670   6.550
  892SOL     OW19817   3.659   5.562   6.287
  892SOL    HW119818   3.629   5.653   6.279
  892SOL    HW219819   3.736   5.557   6.230
  893SOL     OW19820   3.607   6.059   6.509
  893SOL    HW119821   3.590   6.149   6.481
  893SOL    HW219822   3.680   6.030   6.454
  894SOL     OW19823   6.351   1.183   6.872
  894SOL    HW119824   6.328   1.097   6.908
  894SOL    HW219825   6.344   1.172   6.777
  895SOL     OW19826   5.246   1.305   7.553
  895SOL    HW119827   5.331   1.343   7.578
  895SOL    HW219828   5.211   1.367   7.489
  896SOL     OW19829   5.397   4.829   6.270
  896SOL    HW119830   5.365   4.825   6.180
  896SOL    HW219831   5.486   4.862   6.262
  897SOL     OW19832   5.050   1.465   6.823
  897SOL    HW119833   5.043   1.502   6.911
  897SOL    HW219834   5.075   1.374   6.837
  898SOL     OW19835   0.520   1.971   5.973
  898SOL    HW119836   0.501   2.002   5.884
  898SOL    HW219837   0.454   2.013   6.028
  899SOL     OW19838   1.897   3.721   5.314
  899SOL    HW119839   1.838   3.646   5.315
  899SOL    HW219840   1.846   3.792   5.355
  900SOL     OW19841   4.483   5.040   7.703
  900SOL    HW119842   4.441   4.954   7.694
  900SOL    HW219843   4.436   5.082   0.013
  901SOL     OW19844   5.657   3.181   7.444
  901SOL    HW119845   5.641   3.152   7.355
  901SOL    HW219846   5.571   3.208   7.476
  902SOL     OW19847   0.216   2.470   1.620
  902SOL    HW119848   0.172   2.386   1.630
  902SOL    HW219849   0.283   2.471   1.689
  903SOL     OW19850   5.285   3.020   6.604
  903SOL    HW119851   5.306   3.056   6.690
  903SOL    HW219852   5.348   2.949   6.592
  904SOL     OW19853   4.481   1.153   6.662
  904SOL    HW119854   4.513   1.243   6.661
  904SOL    HW219855   4.484   1.127   6.754
  905SOL     OW19856   3.068   3.481   6.163
  905SOL    HW119857   3.152   3.477   6.116
  905SOL    HW219858   3.045   3.389   6.177
  906SOL     OW19859   2.303   2.661   5.942
  906SOL    HW119860   2.301   2.594   6.011
  906SOL    HW219861   2.334   2.615   5.865
  907SOL     OW19862   5.088   3.304   7.228
  907SOL    HW119863   5.018   3.246   7.197
  907SOL    HW219864   5.043   3.378   7.267
  908SOL     OW19865   1.448   2.689   0.397
  908SOL    HW119866   1.420   2.599   0.379
  908SOL    HW219867   1.395   2.743   0.337
  909SOL     OW19868   1.934   1.315   6.450
  909SOL    HW119869   1.947   1.410   6.449
  909SOL    HW219870   1.856   1.300   6.397
  910SOL     OW19871   0.531   3.518   7.141
  910SOL    HW119872   0.489   3.495   7.058
  910SOL    HW219873   0.621   3.539   7.117
  911SOL     OW19874   6.225   4.002   7.165
  911SOL    HW119875   6.195   4.045   7.245
  911SOL    HW219876   6.249   4.075   7.107
  912SOL     OW19877   5.419   3.079   2.477
  912SOL    HW119878   5.497   3.091   2.422
  912SOL    HW219879   5.452   3.084   2.567
  913SOL     OW19880   0.483   0.068   0.763
  913SOL    HW119881   0.390   0.045   0.756
  913SOL    HW219882   0.484   0.163   0.767
  914SOL     OW19883   4.945   0.274   0.065
  914SOL    HW119884   4.909   0.357   0.033
  914SOL    HW219885   4.893   0.207   0.022
  915SOL     OW19886   1.180   5.200   6.709
  915SOL    HW119887   1.094   5.158   6.707
  915SOL    HW219888   1.217   5.184   6.622
  916SOL     OW19889   0.617   1.794   6.178
  916SOL    HW119890   0.589   1.846   6.103
  916SOL    HW219891   0.685   1.736   6.142
  917SOL     OW19892   6.285   1.640   6.122
  917SOL    HW119893   6.353   1.596   6.173
  917SOL    HW219894   6.269   1.582   6.048
  918SOL     OW19895   4.372   1.353   7.513
  918SOL    HW119896   4.430   1.417   7.474
  918SOL    HW219897   4.384   1.363   7.608
  919SOL     OW19898   2.722   2.026   6.006
  919SOL    HW119899   2.718   2.019   5.911
  919SOL    HW219900   2.768   1.947   6.034
  920SOL     OW19901   2.580   0.768   7.056
  920SOL    HW119902   2.578   0.839   7.120
  920SOL    HW219903   2.647   0.708   7.088
  921SOL     OW19904   0.378   2.145   5.779
  921SOL    HW119905   0.386   2.229   5.824
  921SOL    HW219906   0.284   2.134   5.765
  922SOL     OW19907   2.093   3.646   7.543
  922SOL    HW119908   2.038   3.650   7.465
  922SOL    HW219909   2.181   3.628   7.510
  923SOL     OW19910   3.057   0.110   0.857
  923SOL    HW119911   3.136   0.136   0.904
  923SOL    HW219912   3.019   0.192   0.826
  924SOL     OW19913   3.614   6.304   5.686
  924SOL    HW119914   3.676   6.241   5.649
  924SOL    HW219915   3.531   6.257   5.687
  925SOL     OW19916   2.926   5.800   6.476
  925SOL    HW119917   2.940   5.737   6.547
  925SOL    HW219918   2.896   5.747   6.402
  926SOL     OW19919   1.517   4.258   0.357
  926SOL    HW119920   1.613   4.255   0.360
  926SOL    HW219921   1.491   4.276   0.447
  927SOL     OW19922   0.634   6.044   0.473
  927SOL    HW119923   0.638   6.139   0.461
  927SOL    HW219924   0.549   6.018   0.438
  928SOL     OW19925   4.992   1.530   7.711
  928SOL    HW119926   5.081   1.542   7.743
  928SOL    HW219927   4.977   1.606   7.654
  929SOL     OW19928   4.259   3.768   6.651
  929SOL    HW119929   4.312   3.751   6.572
  929SOL    HW219930   4.175   3.798   6.617
  930SOL     OW19931   1.351   2.482   0.235
  930SOL    HW119932   1.402   2.504   0.157
  930SOL    HW219933   1.268   2.449   0.201
  931SOL     OW19934   0.383   2.021   0.313
  931SOL    HW119935   0.356   2.031   0.404
  931SOL    HW219936   0.474   2.050   0.312
  932SOL     OW19937   1.660   6.428   1.290
  932SOL    HW119938   1.651   6.333   1.288
  932SOL    HW219939   1.603   6.459   1.220
  933SOL     OW19940   0.368   3.728   7.493
  933SOL    HW119941   0.438   3.663   7.499
  933SOL    HW219942   0.301   3.697   7.554
  934SOL     OW19943   4.123   1.151   5.550
  934SOL    HW119944   4.066   1.094   5.500
  934SOL    HW219945   4.088   1.239   5.534
  935SOL     OW19946   6.099   6.400   7.450
  935SOL    HW119947   6.067   6.424   7.363
  935SOL    HW219948   6.190   6.426   7.451
  936SOL     OW19949   1.909   2.687   7.723
  936SOL    HW119950   1.850   2.741   7.671
  936SOL    HW219951   1.995   2.701   7.685
  937SOL     OW19952   2.914   1.311   0.945
  937SOL    HW119953   2.890   1.219   0.955
  937SOL    HW219954   2.889   1.352   1.028
  938SOL     OW19955   1.613   5.313   7.414
  938SOL    HW119956   1.696   5.281   7.448
  938SOL    HW219957   1.595   5.258   7.337
  939SOL     OW19958   4.915   0.255   6.279
  939SOL    HW119959   4.820   0.244   6.281
  939SOL    HW219960   4.944   0.204   6.203
  940SOL     OW19961   5.820   2.375   0.613
  940SOL    HW119962   5.893   2.314   0.600
  940SOL    HW219963   5.784   2.388   0.525
  941SOL     OW19964   2.879   0.012   2.154
  941SOL    HW119965   2.937   0.078   2.191
  941SOL    HW219966   2.938   6.438   2.111
  942SOL     OW19967   1.246   3.084   1.320
  942SOL    HW119968   1.215   3.003   1.361
  942SOL    HW219969   1.336   3.093   1.349
  943SOL     OW19970   5.106   0.527   5.572
  943SOL    HW119971   5.082   0.591   5.506
  943SOL    HW219972   5.093   0.572   5.656
  944SOL     OW19973   3.835   0.303   5.790
  944SOL    HW119974   3.749   0.332   5.760
  944SOL    HW219975   3.893   0.376   5.769
  945SOL     OW19976   5.082   4.835   0.101
  945SOL    HW119977   5.019   4.769   0.132
  945SOL    HW219978   5.118   4.798   0.021
  946SOL     OW19979   2.995   5.456   7.467
  946SOL    HW119980   2.921   5.443   7.408
  946SOL    HW219981   3.072   5.455   7.410
  947SOL     OW19982   1.224   2.951   5.757
  947SOL    HW119983   1.187   3.033   5.791
  947SOL    HW219984   1.152   2.888   5.764
  948SOL     OW19985   2.654   4.525   7.500
  948SOL    HW119986   2.645   4.494   7.590
  948SOL    HW219987   2.697   4.452   7.455
  949SOL     OW19988   2.682   4.442   1.597
  949SOL    HW119989   2.761   4.444   1.543
  949SOL    HW219990   2.712   4.468   1.685
  950SOL     OW19991   2.536   1.586   1.552
  950SOL    HW119992   2.567   1.670   1.587
  950SOL    HW219993   2.460   1.564   1.606
  951SOL     OW19994   0.025   1.338   5.394
  951SOL    HW119995   0.005   1.395   5.320
  951SOL    HW219996   0.059   1.258   5.353
  952SOL     OW19997   4.573   6.235   0.375
  952SOL    HW119998   4.589   6.141   0.378
  952SOL    HW219999   4.628   6.266   0.302
  953SOL     OW20000   2.085   3.272   5.697
  953SOL    HW120001   2.005   3.237   5.735
  953SOL    HW220002   2.055   3.325   5.622
  954SOL     OW20003   3.597   5.033   7.431
  954SOL    HW120004   3.508   5.064   7.414
  954SOL    HW220005   3.585   4.944   7.463
  955SOL     OW20006   4.763   2.040   2.298
  955SOL    HW120007   4.688   1.980   2.296
  955SOL    HW220008   4.839   1.984   2.281
  956SOL     OW20009   2.549   1.218   6.556
  956SOL    HW120010   2.502   1.198   6.475
  956SOL    HW220011   2.641   1.219   6.530
  957SOL     OW20012   2.498   0.204   6.548
  957SOL    HW120013   2.438   0.138   6.514
  957SOL    HW220014   2.522   0.257   6.472
  958SOL     OW20015   3.068   5.300   5.567
  958SOL    HW120016   3.006   5.232   5.541
  958SOL    HW220017   3.018   5.381   5.564
  959SOL     OW20018   2.061   2.889   1.004
  959SOL    HW120019   2.039   2.799   1.027
  959SOL    HW220020   2.150   2.901   1.036
  960SOL     OW20021   1.220   0.843   6.120
  960SOL    HW120022   1.161   0.879   6.186
  960SOL    HW220023   1.169   0.839   6.040
  961SOL     OW20024   3.443   2.386   5.770
  961SOL    HW120025   3.421   2.412   5.860
  961SOL    HW220026   3.499   2.309   5.781
  962SOL     OW20027   2.733   2.825   6.735
  962SOL    HW120028   2.788   2.882   6.789
  962SOL    HW220029   2.649   2.871   6.730
  963SOL     OW20030   2.893   5.348   0.457
  963SOL    HW120031   2.983   5.320   0.477
  963SOL    HW220032   2.889   5.345   0.361
  964SOL     OW20033   1.587   4.276   5.093
  964SOL    HW120034   1.523   4.205   5.096
  964SOL    HW220035   1.564   4.332   5.167
  965SOL     OW20036   3.799   4.325   6.567
  965SOL    HW120037   3.752   4.360   6.492
  965SOL    HW220038   3.731   4.312   6.633
  966SOL     OW20039   2.005   4.392   0.557
  966SOL    HW120040   1.924   4.347   0.534
  966SOL    HW220041   1.981   4.448   0.631
  967SOL     OW20042   3.120   2.202   7.347
  967SOL    HW120043   3.109   2.123   7.295
  967SOL    HW220044   3.185   2.254   7.298
  968SOL     OW20045   4.507   1.503   1.284
  968SOL    HW120046   4.448   1.428   1.284
  968SOL    HW220047   4.593   1.466   1.266
  969SOL     OW20048   2.433   0.772   5.501
  969SOL    HW120049   2.518   0.807   5.474
  969SOL    HW220050   2.379   0.776   5.422
  970SOL     OW20051   6.292   0.035   0.441
  970SOL    HW120052   6.259   0.060   0.527
  970SOL    HW220053   6.225   6.466   0.405
  971SOL     OW20054   2.001   5.101   1.968
  971SOL    HW120055   2.022   5.059   1.885
  971SOL    HW220056   1.923   5.055   1.999
  972SOL     OW20057   3.693   2.151   6.616
  972SOL    HW120058   3.664   2.230   6.571
  972SOL    HW220059   3.780   2.174   6.651
  973SOL     OW20060   3.924   5.861   6.800
  973SOL    HW120061   3.974   5.793   6.754
  973SOL    HW220062   3.966   5.867   6.886
  974SOL     OW20063   5.843   4.412   6.000
  974SOL    HW120064   5.845   4.396   5.905
  974SOL    HW220065   5.789   4.491   6.009
  975SOL     OW20066   1.803   6.161   1.544
  975SOL    HW120067   1.839   6.116   1.621
  975SOL    HW220068   1.734   6.103   1.513
  976SOL     OW20069   4.164   3.390   1.188
  976SOL    HW120070   4.196   3.430   1.107
  976SOL    HW220071   4.234   3.406   1.252
  977SOL     OW20072   4.003   5.130   0.496
  977SOL    HW120073   3.909   5.127   0.512
  977SOL    HW220074   4.040   5.175   0.572
  978SOL     OW20075   2.335   2.109   0.031
  978SOL    HW120076   2.267   2.134   0.094
  978SOL    HW220077   2.290   2.110   7.708
  979SOL     OW20078   0.783   1.134   6.782
  979SOL    HW120079   0.838   1.085   6.722
  979SOL    HW220080   0.762   1.072   6.852
  980SOL     OW20081   0.417   6.268   0.564
  980SOL    HW120082   0.339   6.237   0.609
  980SOL    HW220083   0.489   6.243   0.622
  981SOL     OW20084   1.445   2.569   2.531
  981SOL    HW120085   1.383   2.640   2.516
  981SOL    HW220086   1.518   2.609   2.577
  982SOL     OW20087   0.206   6.347   1.511
  982SOL    HW120088   0.155   6.274   1.477
  982SOL    HW220089   0.277   6.358   1.449
  983SOL     OW20090   2.450   5.239   0.986
  983SOL    HW120091   2.448   5.174   1.056
  983SOL    HW220092   2.538   5.277   0.991
  984SOL     OW20093   0.076   3.463   7.173
  984SOL    HW120094   0.143   3.531   7.166
  984SOL    HW220095   0.016   3.496   7.240
  985SOL     OW20096   0.876   6.181   1.718
  985SOL    HW120097   0.942   6.232   1.672
  985SOL    HW220098   0.813   6.245   1.751
  986SOL     OW20099   5.578   1.301   1.544
  986SOL    HW120100   5.570   1.206   1.556
  986SOL    HW220101   5.539   1.318   1.458
  987SOL     OW20102   2.492   3.134   7.471
  987SOL    HW120103   2.564   3.071   7.460
  987SOL    HW220104   2.507   3.172   7.557
  988SOL     OW20105   4.673   3.842   2.310
  988SOL    HW120106   4.603   3.796   2.357
  988SOL    HW220107   4.734   3.773   2.285
  989SOL     OW20108   0.823   3.592   7.094
  989SOL    HW120109   0.797   3.611   7.004
  989SOL    HW220110   0.875   3.667   7.120
  990SOL     OW20111   1.492   4.208   5.853
  990SOL    HW120112   1.482   4.189   5.947
  990SOL    HW220113   1.502   4.303   5.849
  991SOL     OW20114   0.946   2.800   1.192
  991SOL    HW120115   0.857   2.779   1.165
  991SOL    HW220116   0.948   2.896   1.196
  992SOL     OW20117   5.519   5.788   6.663
  992SOL    HW120118   5.525   5.771   6.569
  992SOL    HW220119   5.610   5.782   6.694
  993SOL     OW20120   5.272   5.254   1.190
  993SOL    HW120121   5.217   5.290   1.120
  993SOL    HW220122   5.293   5.330   1.245
  994SOL     OW20123   0.522   1.150   0.899
  994SOL    HW120124   0.471   1.230   0.893
  994SOL    HW220125   0.589   1.168   0.965
  995SOL     OW20126   3.315   6.473   1.315
  995SOL    HW120127   3.307   6.381   1.339
  995SOL    HW220128   3.361   6.472   1.231
  996SOL     OW20129   1.345   5.901   2.022
  996SOL    HW120130   1.364   5.841   1.950
  996SOL    HW220131   1.367   5.987   1.988
  997SOL     OW20132   4.757   0.163   1.007
  997SOL    HW120133   4.689   0.198   1.064
  997SOL    HW220134   4.742   0.205   0.923
  998SOL     OW20135   0.865   0.923   7.755
  998SOL    HW120136   0.784   0.935   0.042
  998SOL    HW220137   0.906   0.846   0.033
  999SOL     OW20138   0.809   5.358   5.768
  999SOL    HW120139   0.844   5.269   5.779
  999SOL    HW220140   0.715   5.345   5.758
 1000SOL     OW20141   4.892   3.692   1.080
 1000SOL    HW120142   4.819   3.749   1.058
 1000SOL    HW220143   4.909   3.709   1.173
 1001SOL     OW20144   1.867   0.255   7.324
 1001SOL    HW120145   1.899   0.330   7.376
 1001SOL    HW220146   1.912   0.179   7.362
 1002SOL     OW20147   3.690   2.282   7.555
 1002SOL    HW120148   3.662   2.261   7.644
 1002SOL    HW220149   3.622   2.340   7.521
 1003SOL     OW20150   4.983   4.969   6.679
 1003SOL    HW120151   4.940   4.919   6.749
 1003SOL    HW220152   5.028   4.902   6.627
 1004SOL     OW20153   0.265   2.474   6.126
 1004SOL    HW120154   0.270   2.507   6.215
 1004SOL    HW220155   0.173   2.449   6.114
 1005SOL     OW20156   1.177   5.895   1.688
 1005SOL    HW120157   1.119   5.867   1.616
 1005SOL    HW220158   1.216   5.813   1.720
 1006SOL     OW20159   5.298   1.709   1.748
 1006SOL    HW120160   5.375   1.762   1.733
 1006SOL    HW220161   5.234   1.740   1.684
 1007SOL     OW20162   1.044   3.721   6.270
 1007SOL    HW120163   1.033   3.737   6.364
 1007SOL    HW220164   1.040   3.625   6.262
 1008SOL     OW20165   0.553   5.897   0.764
 1008SOL    HW120166   0.559   5.974   0.821
 1008SOL    HW220167   0.624   5.908   0.701
 1009SOL     OW20168   4.252   6.025   7.592
 1009SOL    HW120169   4.184   6.039   7.658
 1009SOL    HW220170   4.324   6.082   7.620
 1010SOL     OW20171   1.805   0.010   6.411
 1010SOL    HW120172   1.726   0.010   6.356
 1010SOL    HW220173   1.869   0.059   6.360
 1011SOL     OW20174   2.667   5.792   6.741
 1011SOL    HW120175   2.751   5.818   6.702
 1011SOL    HW220176   2.686   5.711   6.788
 1012SOL     OW20177   2.705   5.272   1.335
 1012SOL    HW120178   2.620   5.313   1.320
 1012SOL    HW220179   2.754   5.289   1.255
 1013SOL     OW20180   0.906   6.398   6.979
 1013SOL    HW120181   0.865   6.444   7.052
 1013SOL    HW220182   0.833   6.357   6.933
 1014SOL     OW20183   5.507   5.466   0.101
 1014SOL    HW120184   5.445   5.425   0.040
 1014SOL    HW220185   5.553   5.392   0.141
 1015SOL     OW20186   1.778   4.710   7.489
 1015SOL    HW120187   1.866   4.673   7.478
 1015SOL    HW220188   1.766   4.715   7.583
 1016SOL     OW20189   5.675   2.278   7.412
 1016SOL    HW120190   5.614   2.327   7.467
 1016SOL    HW220191   5.758   2.324   7.421
 1017SOL     OW20192   6.404   1.317   5.876
 1017SOL    HW120193   6.353   1.396   5.857
 1017SOL    HW220194   6.343   1.259   5.921
 1018SOL     OW20195   1.190   6.045   1.407
 1018SOL    HW120196   1.138   6.126   1.412
 1018SOL    HW220197   1.150   5.988   1.472
 1019SOL     OW20198   1.071   4.623   0.086
 1019SOL    HW120199   1.088   4.568   0.009
 1019SOL    HW220200   1.139   4.598   0.148
 1020SOL     OW20201   2.859   2.095   1.551
 1020SOL    HW120202   2.811   2.053   1.480
 1020SOL    HW220203   2.791   2.140   1.602
 1021SOL     OW20204   4.695   5.977   6.632
 1021SOL    HW120205   4.626   5.925   6.673
 1021SOL    HW220206   4.726   5.924   6.559
 1022SOL     OW20207   1.517   4.139   2.170
 1022SOL    HW120208   1.525   4.233   2.155
 1022SOL    HW220209   1.424   4.120   2.158
 1023SOL     OW20210   0.447   3.882   0.761
 1023SOL    HW120211   0.442   3.874   0.856
 1023SOL    HW220212   0.519   3.943   0.746
 1024SOL     OW20213   5.723   3.787   1.862
 1024SOL    HW120214   5.651   3.814   1.804
 1024SOL    HW220215   5.706   3.695   1.880
 1025SOL     OW20216   6.388   1.846   1.328
 1025SOL    HW120217   6.452   1.776   1.318
 1025SOL    HW220218   6.315   1.806   1.376
 1026SOL     OW20219   4.774   0.468   7.454
 1026SOL    HW120220   4.805   0.530   7.388
 1026SOL    HW220221   4.681   0.490   7.466
 1027SOL     OW20222   6.424   3.296   7.624
 1027SOL    HW120223   0.025   3.304   7.657
 1027SOL    HW220224   6.369   3.330   7.694
 1028SOL     OW20225   3.366   4.026   0.885
 1028SOL    HW120226   3.446   4.076   0.900
 1028SOL    HW220227   3.385   3.970   0.810
 1029SOL     OW20228   2.112   2.793   5.516
 1029SOL    HW120229   2.075   2.777   5.603
 1029SOL    HW220230   2.143   2.884   5.519
 1030SOL     OW20231   5.604   1.636   7.750
 1030SOL    HW120232   5.594   1.641   0.083
 1030SOL    HW220233   5.663   1.707   7.727
 1031SOL     OW20234   3.094   4.230   0.925
 1031SOL    HW120235   3.037   4.229   1.002
 1031SOL    HW220236   3.179   4.199   0.958
 1032SOL     OW20237   2.348   0.947   0.016
 1032SOL    HW120238   2.355   0.924   0.109
 1032SOL    HW220239   2.324   0.865   7.734
 1033SOL     OW20240   5.333   4.201   7.735
 1033SOL    HW120241   5.426   4.187   7.751
 1033SOL    HW220242   5.311   4.137   7.667
 1034SOL     OW20243   3.939   1.581   7.731
 1034SOL    HW120244   3.844   1.590   7.742
 1034SOL    HW220245   3.951   1.492   7.699
 1035SOL     OW20246   2.450   5.857   6.481
 1035SOL    HW120247   2.480   5.769   6.503
 1035SOL    HW220248   2.523   5.914   6.503
 1036SOL     OW20249   0.877   4.357   6.013
 1036SOL    HW120250   0.963   4.382   5.979
 1036SOL    HW220251   0.844   4.293   5.950
 1037SOL     OW20252   5.346   4.920   0.670
 1037SOL    HW120253   5.357   5.014   0.652
 1037SOL    HW220254   5.254   4.912   0.697
 1038SOL     OW20255   5.125   6.267   0.889
 1038SOL    HW120256   5.074   6.212   0.949
 1038SOL    HW220257   5.090   6.355   0.902
 1039SOL     OW20258   3.113   3.984   1.432
 1039SOL    HW120259   3.112   3.910   1.494
 1039SOL    HW220260   3.202   4.018   1.436
 1040SOL     OW20261   4.433   1.757   6.255
 1040SOL    HW120262   4.395   1.671   6.236
 1040SOL    HW220263   4.408   1.775   6.345
 1041SOL     OW20264   0.528   4.824   1.150
 1041SOL    HW120265   0.546   4.812   1.057
 1041SOL    HW220266   0.612   4.808   1.194
 1042SOL     OW20267   2.999   5.182   7.220
 1042SOL    HW120268   3.064   5.243   7.255
 1042SOL    HW220269   2.955   5.231   7.151
 1043SOL     OW20270   4.657   0.041   1.569
 1043SOL    HW120271   4.618   0.081   1.647
 1043SOL    HW220272   4.734   6.483   1.603
 1044SOL     OW20273   2.592   0.359   7.348
 1044SOL    HW120274   2.632   0.420   7.410
 1044SOL    HW220275   2.660   0.344   7.282
 1045SOL     OW20276   1.984   5.604   6.621
 1045SOL    HW120277   2.026   5.590   6.706
 1045SOL    HW220278   2.050   5.577   6.557
 1046SOL     OW20279   2.723   4.797   1.171
 1046SOL    HW120280   2.676   4.735   1.226
 1046SOL    HW220281   2.808   4.756   1.155
 1047SOL     OW20282   3.898   3.082   6.871
 1047SOL    HW120283   3.856   2.998   6.887
 1047SOL    HW220284   3.894   3.094   6.776
 1048SOL     OW20285   2.376   2.480   1.321
 1048SOL    HW120286   2.312   2.418   1.355
 1048SOL    HW220287   2.430   2.428   1.261
 1049SOL     OW20288   2.476   1.042   5.215
 1049SOL    HW120289   2.536   1.024   5.287
 1049SOL    HW220290   2.424   0.962   5.206
 1050SOL     OW20291   1.634   1.918   0.346
 1050SOL    HW120292   1.601   2.007   0.338
 1050SOL    HW220293   1.727   1.925   0.324
 1051SOL     OW20294   0.926   3.952   1.478
 1051SOL    HW120295   0.911   3.910   1.563
 1051SOL    HW220296   0.987   3.894   1.433
 1052SOL     OW20297   4.097   3.795   7.350
 1052SOL    HW120298   4.070   3.747   7.428
 1052SOL    HW220299   4.061   3.745   7.277
 1053SOL     OW20300   1.128   4.099   0.174
 1053SOL    HW120301   1.182   4.107   0.253
 1053SOL    HW220302   1.084   4.183   0.166
 1054SOL     OW20303   4.483   4.417   1.652
 1054SOL    HW120304   4.537   4.418   1.573
 1054SOL    HW220305   4.398   4.386   1.624
 1055SOL     OW20306   0.997   2.692   1.641
 1055SOL    HW120307   0.924   2.747   1.668
 1055SOL    HW220308   0.962   2.603   1.644
 1056SOL     OW20309   4.127   5.702   6.642
 1056SOL    HW120310   4.162   5.709   6.553
 1056SOL    HW220311   4.159   5.617   6.674
 1057SOL     OW20312   0.844   0.487   0.603
 1057SOL    HW120313   0.840   0.544   0.680
 1057SOL    HW220314   0.847   0.547   0.528
 1058SOL     OW20315   6.052   1.629   6.707
 1058SOL    HW120316   5.966   1.589   6.717
 1058SOL    HW220317   6.046   1.712   6.755
 1059SOL     OW20318   3.548   5.261   5.439
 1059SOL    HW120319   3.604   5.250   5.362
 1059SOL    HW220320   3.491   5.184   5.438
 1060SOL     OW20321   6.146   1.273   1.978
 1060SOL    HW120322   6.232   1.261   1.939
 1060SOL    HW220323   6.086   1.228   1.918
 1061SOL     OW20324   1.481   0.957   0.626
 1061SOL    HW120325   1.538   1.005   0.566
 1061SOL    HW220326   1.435   1.025   0.675
 1062SOL     OW20327   3.980   1.535   0.582
 1062SOL    HW120328   3.899   1.496   0.613
 1062SOL    HW220329   4.048   1.498   0.639
 1063SOL     OW20330   4.974   6.263   7.536
 1063SOL    HW120331   5.041   6.267   7.468
 1063SOL    HW220332   5.000   6.190   7.592
 1064SOL     OW20333   5.058   0.161   7.015
 1064SOL    HW120334   5.130   0.107   6.984
 1064SOL    HW220335   5.034   0.215   6.939
 1065SOL     OW20336   0.664   4.633   6.766
 1065SOL    HW120337   0.646   4.625   6.859
 1065SOL    HW220338   0.600   4.575   6.724
 1066SOL     OW20339   0.830   4.358   1.030
 1066SOL    HW120340   0.739   4.385   1.013
 1066SOL    HW220341   0.883   4.427   0.991
 1067SOL     OW20342   2.842   3.228   0.650
 1067SOL    HW120343   2.876   3.143   0.679
 1067SOL    HW220344   2.918   3.285   0.649
 1068SOL     OW20345   3.374   1.121   0.240
 1068SOL    HW120346   3.399   1.043   0.190
 1068SOL    HW220347   3.419   1.113   0.324
 1069SOL     OW20348   0.865   5.607   5.684
 1069SOL    HW120349   0.772   5.616   5.665
 1069SOL    HW220350   0.875   5.517   5.716
 1070SOL     OW20351   0.646   4.989   7.561
 1070SOL    HW120352   0.739   5.002   7.578
 1070SOL    HW220353   0.628   4.901   7.595
 1071SOL     OW20354   2.385   3.753   0.167
 1071SOL    HW120355   2.438   3.696   0.112
 1071SOL    HW220356   2.384   3.709   0.252
 1072SOL     OW20357   6.442   4.614   0.952
 1072SOL    HW120358   6.407   4.678   1.015
 1072SOL    HW220359   0.046   4.606   0.975
 1073SOL     OW20360   2.583   5.878   1.231
 1073SOL    HW120361   2.499   5.837   1.253
 1073SOL    HW220362   2.634   5.807   1.193
 1074SOL     OW20363   2.936   4.733   0.739
 1074SOL    HW120364   3.015   4.696   0.700
 1074SOL    HW220365   2.927   4.820   0.700
 1075SOL     OW20366   0.093   4.573   2.130
 1075SOL    HW120367   0.040   4.648   2.158
 1075SOL    HW220368   0.104   4.521   2.210
 1076SOL     OW20369   3.682   2.127   0.951
 1076SOL    HW120370   3.628   2.149   1.027
 1076SOL    HW220371   3.724   2.044   0.974
 1077SOL     OW20372   5.676   4.873   6.242
 1077SOL    HW120373   5.722   4.880   6.159
 1077SOL    HW220374   5.745   4.876   6.309
 1078SOL     OW20375   3.922   2.147   7.460
 1078SOL    HW120376   3.845   2.202   7.477
 1078SOL    HW220377   3.931   2.094   7.539
 1079SOL     OW20378   1.721   0.175   7.133
 1079SOL    HW120379   1.686   0.253   7.090
 1079SOL    HW220380   1.783   0.209   7.198
 1080SOL     OW20381   2.858   1.404   1.197
 1080SOL    HW120382   2.797   1.465   1.239
 1080SOL    HW220383   2.880   1.342   1.266
 1081SOL     OW20384   3.344   0.559   1.462
 1081SOL    HW120385   3.326   0.595   1.548
 1081SOL    HW220386   3.267   0.582   1.409
 1082SOL     OW20387   2.251   3.301   6.360
 1082SOL    HW120388   2.210   3.384   6.334
 1082SOL    HW220389   2.320   3.326   6.420
 1083SOL     OW20390   2.306   0.314   5.498
 1083SOL    HW120391   2.333   0.226   5.473
 1083SOL    HW220392   2.382   0.369   5.480
 1084SOL     OW20393   3.318   0.600   5.601
 1084SOL    HW120394   3.345   0.509   5.607
 1084SOL    HW220395   3.400   0.649   5.594
 1085SOL     OW20396   2.420   6.199   0.743
 1085SOL    HW120397   2.448   6.121   0.789
 1085SOL    HW220398   2.381   6.255   0.811
 1086SOL     OW20399   3.325   3.566   5.413
 1086SOL    HW120400   3.274   3.639   5.448
 1086SOL    HW220401   3.261   3.497   5.398
 1087SOL     OW20402   5.496   2.686   2.417
 1087SOL    HW120403   5.448   2.728   2.345
 1087SOL    HW220404   5.428   2.653   2.476
 1088SOL     OW20405   5.023   5.697   1.437
 1088SOL    HW120406   4.988   5.646   1.510
 1088SOL    HW220407   5.001   5.787   1.457
 1089SOL     OW20408   6.026   5.476   6.972
 1089SOL    HW120409   6.103   5.456   6.918
 1089SOL    HW220410   6.046   5.560   7.012
 1090SOL     OW20411   2.440   1.029   6.120
 1090SOL    HW120412   2.406   1.065   6.202
 1090SOL    HW220413   2.376   1.054   6.054
 1091SOL     OW20414   1.934   5.294   6.534
 1091SOL    HW120415   1.961   5.291   6.626
 1091SOL    HW220416   1.991   5.230   6.491
 1092SOL     OW20417   5.508   2.222   0.490
 1092SOL    HW120418   5.593   2.189   0.521
 1092SOL    HW220419   5.472   2.270   0.565
 1093SOL     OW20420   1.014   0.241   6.385
 1093SOL    HW120421   1.057   0.244   6.299
 1093SOL    HW220422   1.086   0.236   6.447
 1094SOL     OW20423   0.015   4.095   0.837
 1094SOL    HW120424   0.005   4.169   0.778
 1094SOL    HW220425   0.000   4.018   0.782
 1095SOL     OW20426   1.018   0.919   7.247
 1095SOL    HW120427   0.968   0.840   7.265
 1095SOL    HW220428   1.110   0.894   7.260
 1096SOL     OW20429   1.940   4.002   6.940
 1096SOL    HW120430   2.019   3.949   6.927
 1096SOL    HW220431   1.973   4.089   6.962
 1097SOL     OW20432   1.953   5.640   0.813
 1097SOL    HW120433   2.027   5.700   0.807
 1097SOL    HW220434   1.897   5.663   0.738
 1098SOL     OW20435   4.920   4.545   5.476
 1098SOL    HW120436   4.873   4.492   5.412
 1098SOL    HW220437   4.932   4.629   5.433
 1099SOL     OW20438   2.270   3.230   0.928
 1099SOL    HW120439   2.349   3.278   0.902
 1099SOL    HW220440   2.272   3.150   0.875
 1100SOL     OW20441   4.652   2.210   6.180
 1100SOL    HW120442   4.604   2.130   6.161
 1100SOL    HW220443   4.743   2.191   6.155
 1101SOL     OW20444   4.840   0.959   7.701
 1101SOL    HW120445   4.846   0.991   0.030
 1101SOL    HW220446   4.776   0.888   7.705
 1102SOL     OW20447   3.683   3.259   6.653
 1102SOL    HW120448   3.709   3.169   6.636
 1102SOL    HW220449   3.747   3.312   6.606
 1103SOL     OW20450   0.707   2.358   1.816
 1103SOL    HW120451   0.735   2.445   1.844
 1103SOL    HW220452   0.692   2.311   1.897
 1104SOL     OW20453   4.049   2.612   6.363
 1104SOL    HW120454   4.120   2.629   6.301
 1104SOL    HW220455   4.047   2.516   6.371
 1105SOL     OW20456   5.064   2.613   7.140
 1105SOL    HW120457   5.127   2.548   7.110
 1105SOL    HW220458   4.978   2.574   7.121
 1106SOL     OW20459   1.150   1.091   0.331
 1106SOL    HW120460   1.125   1.152   0.400
 1106SOL    HW220461   1.115   1.129   0.250
 1107SOL     OW20462   5.805   2.724   0.137
 1107SOL    HW120463   5.816   2.769   0.053
 1107SOL    HW220464   5.713   2.698   0.137
 1108SOL     OW20465   3.714   2.736   6.644
 1108SOL    HW120466   3.774   2.789   6.697
 1108SOL    HW220467   3.729   2.646   6.673
 1109SOL     OW20468   2.049   5.174   0.997
 1109SOL    HW120469   2.098   5.092   0.997
 1109SOL    HW220470   2.070   5.215   0.913
 1110SOL     OW20471   0.407   5.525   0.589
 1110SOL    HW120472   0.331   5.475   0.620
 1110SOL    HW220473   0.423   5.589   0.658
 1111SOL     OW20474   3.975   4.080   7.657
 1111SOL    HW120475   3.956   4.099   7.749
 1111SOL    HW220476   4.001   3.988   7.656
 1112SOL     OW20477   3.853   5.130   6.202
 1112SOL    HW120478   3.858   5.038   6.229
 1112SOL    HW220479   3.768   5.160   6.236
 1113SOL     OW20480   1.129   3.645   0.240
 1113SOL    HW120481   1.176   3.688   0.169
 1113SOL    HW220482   1.173   3.674   0.320
 1114SOL     OW20483   1.626   0.697   1.517
 1114SOL    HW120484   1.574   0.706   1.437
 1114SOL    HW220485   1.569   0.729   1.587
 1115SOL     OW20486   0.006   1.851   6.425
 1115SOL    HW120487   6.401   1.837   6.411
 1115SOL    HW220488   0.022   1.822   6.514
 1116SOL     OW20489   2.957   0.051   5.410
 1116SOL    HW120490   2.946   6.452   5.376
 1116SOL    HW220491   2.998   0.039   5.496
 1117SOL     OW20492   0.573   1.072   1.706
 1117SOL    HW120493   0.544   1.156   1.670
 1117SOL    HW220494   0.665   1.087   1.730
 1118SOL     OW20495   6.258   5.176   1.706
 1118SOL    HW120496   6.227   5.144   1.790
 1118SOL    HW220497   6.245   5.102   1.646
 1119SOL     OW20498   2.347   2.594   0.295
 1119SOL    HW120499   2.399   2.651   0.352
 1119SOL    HW220500   2.277   2.562   0.352
 1120SOL     OW20501   3.435   1.061   6.447
 1120SOL    HW120502   3.456   1.091   6.536
 1120SOL    HW220503   3.410   0.970   6.458
 1121SOL     OW20504   1.690   0.471   5.486
 1121SOL    HW120505   1.659   0.431   5.568
 1121SOL    HW220506   1.756   0.409   5.453
 1122SOL     OW20507   6.156   1.355   7.173
 1122SOL    HW120508   6.250   1.377   7.177
 1122SOL    HW220509   6.119   1.421   7.115
 1123SOL     OW20510   5.062   3.683   7.110
 1123SOL    HW120511   4.991   3.701   7.172
 1123SOL    HW220512   5.127   3.636   7.162
 1124SOL     OW20513   1.817   1.500   1.139
 1124SOL    HW120514   1.787   1.411   1.156
 1124SOL    HW220515   1.901   1.489   1.095
 1125SOL     OW20516   0.289   0.259   5.584
 1125SOL    HW120517   0.316   0.264   5.676
 1125SOL    HW220518   0.274   0.350   5.559
 1126SOL     OW20519   0.784   3.373   0.786
 1126SOL    HW120520   0.703   3.377   0.836
 1126SOL    HW220521   0.769   3.303   0.722
 1127SOL     OW20522   2.722   4.754   2.078
 1127SOL    HW120523   2.808   4.762   2.035
 1127SOL    HW220524   2.659   4.774   2.008
 1128SOL     OW20525   3.037   3.295   6.593
 1128SOL    HW120526   3.070   3.365   6.537
 1128SOL    HW220527   3.094   3.295   6.669
 1129SOL     OW20528   1.285   4.679   0.995
 1129SOL    HW120529   1.372   4.641   1.008
 1129SOL    HW220530   1.301   4.768   0.964
 1130SOL     OW20531   4.687   1.941   1.286
 1130SOL    HW120532   4.637   2.020   1.307
 1130SOL    HW220533   4.620   1.876   1.264
 1131SOL     OW20534   3.527   0.035   0.539
 1131SOL    HW120535   3.565   6.436   0.547
 1131SOL    HW220536   3.451   0.023   0.481
 1132SOL     OW20537   1.481   0.558   5.946
 1132SOL    HW120538   1.532   0.635   5.973
 1132SOL    HW220539   1.407   0.593   5.897
 1133SOL     OW20540   5.846   0.553   0.641
 1133SOL    HW120541   5.798   0.472   0.659
 1133SOL    HW220542   5.807   0.618   0.699
 1134SOL     OW20543   2.973   6.463   1.089
 1134SOL    HW120544   3.002   0.014   1.007
 1134SOL    HW220545   2.998   6.371   1.082
 1135SOL     OW20546   3.157   4.229   7.740
 1135SOL    HW120547   3.136   4.317   0.009
 1135SOL    HW220548   3.239   4.207   0.021
 1136SOL     OW20549   3.682   4.664   0.283
 1136SOL    HW120550   3.674   4.612   0.203
 1136SOL    HW220551   3.602   4.717   0.286
 1137SOL     OW20552   4.815   0.836   0.331
 1137SOL    HW120553   4.842   0.837   0.423
 1137SOL    HW220554   4.820   0.743   0.307
 1138SOL     OW20555   1.055   5.523   6.558
 1138SOL    HW120556   1.081   5.518   6.650
 1138SOL    HW220557   1.124   5.575   6.517
 1139SOL     OW20558   4.514   6.451   0.516
 1139SOL    HW120559   4.543   6.371   0.472
 1139SOL    HW220560   4.420   6.439   0.527
 1140SOL     OW20561   2.965   2.988   0.669
 1140SOL    HW120562   2.951   2.923   0.600
 1140SOL    HW220563   3.004   2.939   0.741
 1141SOL     OW20564   0.350   0.360   1.254
 1141SOL    HW120565   0.401   0.295   1.207
 1141SOL    HW220566   0.386   0.360   1.342
 1142SOL     OW20567   2.430   3.542   7.007
 1142SOL    HW120568   2.521   3.557   6.979
 1142SOL    HW220569   2.438   3.513   7.098
 1143SOL     OW20570   4.870   0.808   0.580
 1143SOL    HW120571   4.872   0.903   0.591
 1143SOL    HW220572   4.853   0.774   0.668
 1144SOL     OW20573   4.709   4.056   6.579
 1144SOL    HW120574   4.706   4.115   6.655
 1144SOL    HW220575   4.734   3.971   6.616
 1145SOL     OW20576   5.705   0.710   0.833
 1145SOL    HW120577   5.690   0.787   0.888
 1145SOL    HW220578   5.694   0.635   0.893
 1146SOL     OW20579   6.026   2.915   0.256
 1146SOL    HW120580   6.028   2.833   0.206
 1146SOL    HW220581   5.937   2.920   0.291
 1147SOL     OW20582   3.449   5.514   0.337
 1147SOL    HW120583   3.374   5.572   0.332
 1147SOL    HW220584   3.417   5.430   0.302
 1148SOL     OW20585   5.177   1.472   7.338
 1148SOL    HW120586   5.153   1.386   7.303
 1148SOL    HW220587   5.230   1.513   7.270
 1149SOL     OW20588   5.065   4.715   0.412
 1149SOL    HW120589   5.017   4.687   0.334
 1149SOL    HW220590   5.079   4.809   0.399
 1150SOL     OW20591   5.452   2.335   7.623
 1150SOL    HW120592   5.457   2.326   7.719
 1150SOL    HW220593   5.416   2.252   7.593
 1151SOL     OW20594   5.427   2.541   1.150
 1151SOL    HW120595   5.398   2.606   1.213
 1151SOL    HW220596   5.469   2.473   1.204
 1152SOL     OW20597   2.391   4.315   6.809
 1152SOL    HW120598   2.454   4.311   6.881
 1152SOL    HW220599   2.375   4.408   6.796
 1153SOL     OW20600   4.599   2.190   7.177
 1153SOL    HW120601   4.620   2.278   7.207
 1153SOL    HW220602   4.536   2.157   7.241
 1154SOL     OW20603   1.911   0.058   1.345
 1154SOL    HW120604   1.945   0.096   1.264
 1154SOL    HW220605   1.834   0.007   1.317
 1155SOL     OW20606   5.947   5.426   0.653
 1155SOL    HW120607   5.856   5.406   0.630
 1155SOL    HW220608   5.984   5.465   0.574
 1156SOL     OW20609   6.277   3.935   1.649
 1156SOL    HW120610   6.352   3.923   1.708
 1156SOL    HW220611   6.228   3.854   1.657
 1157SOL     OW20612   3.298   4.260   2.043
 1157SOL    HW120613   3.362   4.250   1.973
 1157SOL    HW220614   3.251   4.340   2.022
 1158SOL     OW20615   2.123   4.635   1.205
 1158SOL    HW120616   2.137   4.672   1.117
 1158SOL    HW220617   2.099   4.710   1.259
 1159SOL     OW20618   5.801   1.126   1.135
 1159SOL    HW120619   5.802   1.175   1.218
 1159SOL    HW220620   5.870   1.061   1.145
 1160SOL     OW20621   2.876   1.053   0.951
 1160SOL    HW120622   2.867   0.980   1.012
 1160SOL    HW220623   2.839   1.021   0.869
 1161SOL     OW20624   5.810   0.650   7.202
 1161SOL    HW120625   5.840   0.741   7.198
 1161SOL    HW220626   5.890   0.598   7.193
 1162SOL     OW20627   1.426   3.391   2.435
 1162SOL    HW120628   1.350   3.431   2.478
 1162SOL    HW220629   1.389   3.341   2.363
 1163SOL     OW20630   1.406   4.049   6.068
 1163SOL    HW120631   1.499   4.029   6.068
 1163SOL    HW220632   1.364   3.970   6.101
 1164SOL     OW20633   0.447   3.118   1.621
 1164SOL    HW120634   0.534   3.147   1.595
 1164SOL    HW220635   0.444   3.132   1.716
 1165SOL     OW20636   1.880   5.852   1.396
 1165SOL    HW120637   1.835   5.915   1.339
 1165SOL    HW220638   1.912   5.784   1.337
 1166SOL     OW20639   5.617   2.653   0.985
 1166SOL    HW120640   5.563   2.608   1.051
 1166SOL    HW220641   5.656   2.582   0.933
 1167SOL     OW20642   0.435   2.040   7.644
 1167SOL    HW120643   0.492   2.085   7.706
 1167SOL    HW220644   0.434   2.096   7.566
 1168SOL     OW20645   2.498   3.508   1.665
 1168SOL    HW120646   2.511   3.489   1.758
 1168SOL    HW220647   2.509   3.603   1.658
 1169SOL     OW20648   2.104   0.487   5.425
 1169SOL    HW120649   2.153   0.564   5.395
 1169SOL    HW220650   2.171   0.422   5.446
 1170SOL     OW20651   2.709   6.232   6.997
 1170SOL    HW120652   2.739   6.307   7.048
 1170SOL    HW220653   2.766   6.231   6.920
 1171SOL     OW20654   3.267   2.992   7.529
 1171SOL    HW120655   3.220   2.991   7.445
 1171SOL    HW220656   3.352   3.032   7.508
 1172SOL     OW20657   0.182   3.714   5.779
 1172SOL    HW120658   0.262   3.759   5.804
 1172SOL    HW220659   0.183   3.632   5.829
 1173SOL     OW20660   4.401   6.419   1.557
 1173SOL    HW120661   4.481   6.448   1.602
 1173SOL    HW220662   4.344   6.388   1.627
 1174SOL     OW20663   5.677   0.492   7.039
 1174SOL    HW120664   5.755   0.477   6.985
 1174SOL    HW220665   5.710   0.535   7.117
 1175SOL     OW20666   1.795   0.533   0.908
 1175SOL    HW120667   1.863   0.562   0.847
 1175SOL    HW220668   1.712   0.553   0.863
 1176SOL     OW20669   5.450   2.588   6.370
 1176SOL    HW120670   5.441   2.676   6.333
 1176SOL    HW220671   5.457   2.531   6.294
 1177SOL     OW20672   4.487   6.462   5.304
 1177SOL    HW120673   4.497   0.048   5.363
 1177SOL    HW220674   4.568   6.411   5.316
 1178SOL     OW20675   5.740   2.448   0.362
 1178SOL    HW120676   5.657   2.492   0.343
 1178SOL    HW220677   5.774   2.423   0.276
 1179SOL     OW20678   1.518   4.579   0.504
 1179SOL    HW120679   1.507   4.488   0.478
 1179SOL    HW220680   1.522   4.628   0.421
 1180SOL     OW20681   0.308   3.190   6.859
 1180SOL    HW120682   0.301   3.194   6.764
 1180SOL    HW220683   0.217   3.186   6.889
 1181SOL     OW20684   4.245   0.222   0.449
 1181SOL    HW120685   4.235   0.314   0.475
 1181SOL    HW220686   4.167   0.203   0.398
 1182SOL     OW20687   0.576   4.051   0.195
 1182SOL    HW120688   0.648   4.028   0.136
 1182SOL    HW220689   0.498   4.047   0.140
 1183SOL     OW20690   4.984   5.091   0.013
 1183SOL    HW120691   4.976   5.000   0.042
 1183SOL    HW220692   5.072   5.117   0.040
 1184SOL     OW20693   3.507   6.312   7.469
 1184SOL    HW120694   3.569   6.385   7.480
 1184SOL    HW220695   3.477   6.293   7.558
 1185SOL     OW20696   5.174   6.280   1.487
 1185SOL    HW120697   5.168   6.375   1.494
 1185SOL    HW220698   5.083   6.250   1.481
 1186SOL     OW20699   0.087   6.430   6.304
 1186SOL    HW120700   0.113   6.337   6.306
 1186SOL    HW220701   6.486   6.430   6.337
 1187SOL     OW20702   2.381   5.655   1.060
 1187SOL    HW120703   2.343   5.573   1.027
 1187SOL    HW220704   2.465   5.662   1.016
 1188SOL     OW20705   1.276   6.102   0.537
 1188SOL    HW120706   1.237   6.027   0.584
 1188SOL    HW220707   1.217   6.117   0.463
 1189SOL     OW20708   3.510   3.734   6.735
 1189SOL    HW120709   3.583   3.681   6.703
 1189SOL    HW220710   3.482   3.784   6.659
 1190SOL     OW20711   4.125   3.983   0.134
 1190SOL    HW120712   4.049   3.927   0.120
 1190SOL    HW220713   4.175   3.977   0.053
 1191SOL     OW20714   4.171   3.124   7.477
 1191SOL    HW120715   4.078   3.148   7.478
 1191SOL    HW220716   4.204   3.162   7.396
 1192SOL     OW20717   2.080   3.564   1.351
 1192SOL    HW120718   2.062   3.530   1.438
 1192SOL    HW220719   2.155   3.514   1.320
 1193SOL     OW20720   2.940   6.138   6.030
 1193SOL    HW120721   3.019   6.087   6.008
 1193SOL    HW220722   2.870   6.073   6.034
 1194SOL     OW20723   0.277   2.809   1.855
 1194SOL    HW120724   0.233   2.885   1.816
 1194SOL    HW220725   0.268   2.823   1.950
 1195SOL     OW20726   3.738   1.407   0.755
 1195SOL    HW120727   3.743   1.343   0.826
 1195SOL    HW220728   3.727   1.354   0.676
 1196SOL     OW20729   4.920   2.270   6.384
 1196SOL    HW120730   4.904   2.228   6.299
 1196SOL    HW220731   4.870   2.218   6.446
 1197SOL     OW20732   3.235   5.750   0.397
 1197SOL    HW120733   3.158   5.806   0.406
 1197SOL    HW220734   3.295   5.781   0.465
 1198SOL     OW20735   0.266   3.464   0.390
 1198SOL    HW120736   0.220   3.461   0.306
 1198SOL    HW220737   0.196   3.456   0.455
 1199SOL     OW20738   3.025   1.120   1.179
 1199SOL    HW120739   2.974   1.060   1.234
 1199SOL    HW220740   2.993   1.102   1.090
 1200SOL     OW20741   4.071   1.674   0.178
 1200SOL    HW120742   4.031   1.650   0.094
 1200SOL    HW220743   4.154   1.628   0.179
 1201SOL     OW20744   6.308   4.178   6.960
 1201SOL    HW120745   6.291   4.179   6.866
 1201SOL    HW220746   6.291   4.267   6.989
 1202SOL     OW20747   5.289   3.899   2.062
 1202SOL    HW120748   5.292   3.951   1.982
 1202SOL    HW220749   5.371   3.848   2.061
 1203SOL     OW20750   6.303   3.023   0.584
 1203SOL    HW120751   6.317   3.076   0.506
 1203SOL    HW220752   6.386   3.028   0.632
 1204SOL     OW20753   5.420   3.818   6.512
 1204SOL    HW120754   5.357   3.886   6.534
 1204SOL    HW220755   5.483   3.819   6.584
 1205SOL     OW20756   1.721   0.134   1.581
 1205SOL    HW120757   1.746   0.062   1.638
 1205SOL    HW220758   1.759   0.111   1.496
 1206SOL     OW20759   2.119   3.029   0.725
 1206SOL    HW120760   2.082   2.965   0.665
 1206SOL    HW220761   2.096   2.996   0.812
 1207SOL     OW20762   1.400   4.899   0.827
 1207SOL    HW120763   1.380   4.953   0.751
 1207SOL    HW220764   1.484   4.933   0.859
 1208SOL     OW20765   2.817   4.714   7.396
 1208SOL    HW120766   2.750   4.663   7.443
 1208SOL    HW220767   2.865   4.760   7.466
 1209SOL     OW20768   4.790   4.008   1.360
 1209SOL    HW120769   4.880   4.018   1.331
 1209SOL    HW220770   4.797   3.972   1.448
 1210SOL     OW20771   4.891   2.503   2.337
 1210SOL    HW120772   4.799   2.489   2.359
 1210SOL    HW220773   4.896   2.596   2.315
 1211SOL     OW20774   3.605   2.831   5.902
 1211SOL    HW120775   3.585   2.921   5.879
 1211SOL    HW220776   3.590   2.826   5.996
 1212SOL     OW20777   5.391   6.198   0.998
 1212SOL    HW120778   5.312   6.185   0.946
 1212SOL    HW220779   5.375   6.279   1.046
 1213SOL     OW20780   5.369   3.176   6.926
 1213SOL    HW120781   5.394   3.123   7.002
 1213SOL    HW220782   5.280   3.148   6.905
 1214SOL     OW20783   1.482   5.279   1.046
 1214SOL    HW120784   1.499   5.227   1.124
 1214SOL    HW220785   1.446   5.362   1.080
 1215SOL     OW20786   1.078   1.233   6.078
 1215SOL    HW120787   1.049   1.166   6.016
 1215SOL    HW220788   1.004   1.244   6.138
 1216SOL     OW20789   0.267   0.997   7.327
 1216SOL    HW120790   0.201   0.962   7.268
 1216SOL    HW220791   0.297   1.077   7.284
 1217SOL     OW20792   1.589   1.534   0.963
 1217SOL    HW120793   1.514   1.514   1.019
 1217SOL    HW220794   1.663   1.543   1.024
 1218SOL     OW20795   5.949   0.911   1.250
 1218SOL    HW120796   6.020   0.847   1.241
 1218SOL    HW220797   5.877   0.861   1.289
 1219SOL     OW20798   3.355   5.518   1.128
 1219SOL    HW120799   3.412   5.577   1.177
 1219SOL    HW220800   3.292   5.485   1.192
 1220SOL     OW20801   3.671   1.952   2.033
 1220SOL    HW120802   3.697   1.870   1.990
 1220SOL    HW220803   3.735   1.964   2.103
 1221SOL     OW20804   0.199   6.311   7.633
 1221SOL    HW120805   0.217   6.252   7.559
 1221SOL    HW220806   0.276   6.304   7.689
 1222SOL     OW20807   3.033   4.849   6.480
 1222SOL    HW120808   3.068   4.845   6.569
 1222SOL    HW220809   3.062   4.767   6.440
 1223SOL     OW20810   3.700   0.364   0.438
 1223SOL    HW120811   3.617   0.372   0.391
 1223SOL    HW220812   3.691   0.424   0.512
 1224SOL     OW20813   6.082   5.568   1.240
 1224SOL    HW120814   6.080   5.540   1.148
 1224SOL    HW220815   6.132   5.500   1.284
 1225SOL     OW20816   0.314   4.731   6.659
 1225SOL    HW120817   0.384   4.665   6.658
 1225SOL    HW220818   0.346   4.801   6.602
 1226SOL     OW20819   3.529   1.569   7.137
 1226SOL    HW120820   3.474   1.550   7.213
 1226SOL    HW220821   3.587   1.494   7.131
 1227SOL     OW20822   3.990   3.487   7.231
 1227SOL    HW120823   4.020   3.396   7.223
 1227SOL    HW220824   4.046   3.536   7.171
 1228SOL     OW20825   4.436   5.814   5.835
 1228SOL    HW120826   4.361   5.782   5.784
 1228SOL    HW220827   4.507   5.822   5.770
 1229SOL     OW20828   4.988   4.014   7.592
 1229SOL    HW120829   4.906   3.985   7.630
 1229SOL    HW220830   4.981   4.109   7.589
 1230SOL     OW20831   5.431   0.962   6.828
 1230SOL    HW120832   5.493   0.902   6.787
 1230SOL    HW220833   5.345   0.936   6.794
 1231SOL     OW20834   5.169   2.833   0.495
 1231SOL    HW120835   5.200   2.776   0.425
 1231SOL    HW220836   5.074   2.838   0.482
 1232SOL     OW20837   1.986   0.409   1.192
 1232SOL    HW120838   1.987   0.438   1.101
 1232SOL    HW220839   1.894   0.395   1.213
 1233SOL     OW20840   5.299   5.508   5.787
 1233SOL    HW120841   5.317   5.504   5.880
 1233SOL    HW220842   5.205   5.492   5.780
 1234SOL     OW20843   3.535   5.450   1.586
 1234SOL    HW120844   3.487   5.389   1.531
 1234SOL    HW220845   3.476   5.524   1.597
 1235SOL     OW20846   1.604   2.137   0.884
 1235SOL    HW120847   1.584   2.046   0.862
 1235SOL    HW220848   1.658   2.131   0.963
 1236SOL     OW20849   0.522   5.397   7.047
 1236SOL    HW120850   0.530   5.384   7.142
 1236SOL    HW220851   0.571   5.478   7.030
 1237SOL     OW20852   1.205   1.863   0.557
 1237SOL    HW120853   1.265   1.818   0.498
 1237SOL    HW220854   1.188   1.947   0.516
 1238SOL     OW20855   0.706   3.251   0.186
 1238SOL    HW120856   0.690   3.279   0.096
 1238SOL    HW220857   0.783   3.302   0.213
 1239SOL     OW20858   1.471   2.906   7.749
 1239SOL    HW120859   1.377   2.902   7.734
 1239SOL    HW220860   1.506   2.830   7.703
 1240SOL     OW20861   5.227   1.610   6.296
 1240SOL    HW120862   5.289   1.620   6.223
 1240SOL    HW220863   5.219   1.515   6.307
 1241SOL     OW20864   1.105   5.732   0.857
 1241SOL    HW120865   1.108   5.683   0.939
 1241SOL    HW220866   1.109   5.664   0.789
 1242SOL     OW20867   3.170   4.200   7.424
 1242SOL    HW120868   3.151   4.182   7.516
 1242SOL    HW220869   3.085   4.216   7.384
 1243SOL     OW20870   1.259   1.539   0.311
 1243SOL    HW120871   1.187   1.550   0.373
 1243SOL    HW220872   1.309   1.620   0.318
 1244SOL     OW20873   0.876   5.291   5.471
 1244SOL    HW120874   0.972   5.298   5.473
 1244SOL    HW220875   0.853   5.258   5.558
 1245SOL     OW20876   2.702   2.417   1.523
 1245SOL    HW120877   2.633   2.420   1.589
 1245SOL    HW220878   2.678   2.484   1.460
 1246SOL     OW20879   3.659   3.477   7.521
 1246SOL    HW120880   3.564   3.475   7.507
 1246SOL    HW220881   3.696   3.480   7.433
 1247SOL     OW20882   1.570   5.999   1.660
 1247SOL    HW120883   1.519   6.080   1.671
 1247SOL    HW220884   1.523   5.934   1.712
 1248SOL     OW20885   0.635   6.266   1.924
 1248SOL    HW120886   0.715   6.287   1.973
 1248SOL    HW220887   0.594   6.196   1.974
 1249SOL     OW20888   6.048   0.309   0.940
 1249SOL    HW120889   6.008   0.253   1.007
 1249SOL    HW220890   5.980   0.317   0.873
 1250SOL     OW20891   4.408   5.276   0.993
 1250SOL    HW120892   4.389   5.193   0.948
 1250SOL    HW220893   4.344   5.338   0.957
 1251SOL     OW20894   3.676   1.027   2.406
 1251SOL    HW120895   3.618   0.975   2.462
 1251SOL    HW220896   3.683   0.976   2.326
 1252SOL     OW20897   4.389   0.483   1.210
 1252SOL    HW120898   4.437   0.552   1.255
 1252SOL    HW220899   4.321   0.529   1.161
 1253SOL     OW20900   1.725   0.589   0.301
 1253SOL    HW120901   1.725   0.635   0.384
 1253SOL    HW220902   1.640   0.545   0.297
 1254SOL     OW20903   3.555   0.896   1.126
 1254SOL    HW120904   3.603   0.972   1.093
 1254SOL    HW220905   3.467   0.928   1.144
 1255SOL     OW20906   0.649   4.260   6.146
 1255SOL    HW120907   0.673   4.167   6.140
 1255SOL    HW220908   0.727   4.307   6.115
 1256SOL     OW20909   4.621   1.542   6.625
 1256SOL    HW120910   4.650   1.623   6.668
 1256SOL    HW220911   4.549   1.511   6.679
 1257SOL     OW20912   3.994   1.572   1.937
 1257SOL    HW120913   3.976   1.632   2.009
 1257SOL    HW220914   3.934   1.599   1.867
 1258SOL     OW20915   1.794   4.351   0.372
 1258SOL    HW120916   1.853   4.325   0.302
 1258SOL    HW220917   1.771   4.442   0.352
 1259SOL     OW20918   6.471   3.751   2.152
 1259SOL    HW120919   0.030   3.684   2.103
 1259SOL    HW220920   0.031   3.759   2.234
 1260SOL     OW20921   3.022   0.356   5.924
 1260SOL    HW120922   3.036   0.318   5.838
 1260SOL    HW220923   3.109   0.356   5.965
 1261SOL     OW20924   0.818   5.947   1.047
 1261SOL    HW120925   0.908   5.978   1.041
 1261SOL    HW220926   0.766   6.027   1.051
 1262SOL     OW20927   1.190   6.318   7.021
 1262SOL    HW120928   1.188   6.225   7.000
 1262SOL    HW220929   1.100   6.349   7.006
 1263SOL     OW20930   5.040   2.095   0.937
 1263SOL    HW120931   4.989   2.094   1.018
 1263SOL    HW220932   4.984   2.138   0.873
 1264SOL     OW20933   0.205   3.280   1.147
 1264SOL    HW120934   0.234   3.259   1.236
 1264SOL    HW220935   0.131   3.221   1.132
 1265SOL     OW20936   0.114   0.330   6.775
 1265SOL    HW120937   0.047   0.392   6.746
 1265SOL    HW220938   0.089   0.247   6.734
 1266SOL     OW20939   5.239   3.666   2.466
 1266SOL    HW120940   5.204   3.632   2.384
 1266SOL    HW220941   5.332   3.678   2.450
 1267SOL     OW20942   3.073   5.142   1.140
 1267SOL    HW120943   2.995   5.184   1.105
 1267SOL    HW220944   3.102   5.200   1.211
 1268SOL     OW20945   6.274   0.671   0.666
 1268SOL    HW120946   6.321   0.610   0.608
 1268SOL    HW220947   6.255   0.619   0.744
 1269SOL     OW20948   0.431   2.412   7.670
 1269SOL    HW120949   0.526   2.399   7.663
 1269SOL    HW220950   0.421   2.504   7.692
 1270SOL     OW20951   3.423   3.173   7.755
 1270SOL    HW120952   3.490   3.189   0.060
 1270SOL    HW220953   3.350   3.134   0.041
 1271SOL     OW20954   1.042   3.896   0.015
 1271SOL    HW120955   1.096   3.906   7.699
 1271SOL    HW220956   1.068   3.968   0.073
 1272SOL     OW20957   2.253   5.509   7.190
 1272SOL    HW120958   2.257   5.519   7.286
 1272SOL    HW220959   2.173   5.554   7.165
 1273SOL     OW20960   2.023   5.458   2.107
 1273SOL    HW120961   1.988   5.439   2.020
 1273SOL    HW220962   2.117   5.462   2.094
 1274SOL     OW20963   4.948   3.617   0.207
 1274SOL    HW120964   4.935   3.523   0.196
 1274SOL    HW220965   4.942   3.631   0.302
 1275SOL     OW20966   6.012   4.860   1.960
 1275SOL    HW120967   6.041   4.770   1.947
 1275SOL    HW220968   6.093   4.909   1.977
 1276SOL     OW20969   1.609   3.140   7.108
 1276SOL    HW120970   1.688   3.176   7.068
 1276SOL    HW220971   1.599   3.054   7.068
 1277SOL     OW20972   3.337   4.850   6.599
 1277SOL    HW120973   3.351   4.775   6.657
 1277SOL    HW220974   3.362   4.817   6.513
 1278SOL     OW20975   2.524   2.349   7.652
 1278SOL    HW120976   2.598   2.396   7.615
 1278SOL    HW220977   2.538   2.258   7.628
 1279SOL     OW20978   4.614   2.531   7.708
 1279SOL    HW120979   4.594   2.540   0.040
 1279SOL    HW220980   4.576   2.610   7.668
 1280SOL     OW20981   2.802   5.803   0.908
 1280SOL    HW120982   2.762   5.858   0.841
 1280SOL    HW220983   2.731   5.747   0.939
 1281SOL     OW20984   0.359   2.709   7.669
 1281SOL    HW120985   0.433   2.724   7.728
 1281SOL    HW220986   0.286   2.754   7.710
 1282SOL     OW20987   3.785   2.615   2.021
 1282SOL    HW120988   3.769   2.545   2.085
 1282SOL    HW220989   3.880   2.629   2.025
 1283SOL     OW20990   2.721   5.483   6.519
 1283SOL    HW120991   2.748   5.422   6.588
 1283SOL    HW220992   2.799   5.495   6.466
 1284SOL     OW20993   4.826   2.031   6.818
 1284SOL    HW120994   4.786   2.044   6.732
 1284SOL    HW220995   4.908   2.081   6.814
 1285SOL     OW20996   1.022   0.198   6.902
 1285SOL    HW120997   0.963   0.273   6.913
 1285SOL    HW220998   0.978   0.126   6.947
 1286SOL     OW20999   1.229   4.944   1.263
 1286SOL    HW121000   1.249   4.904   1.179
 1286SOL    HW221001   1.277   4.890   1.327
 1287SOL     OW21002   4.581   2.586   1.228
 1287SOL    HW121003   4.526   2.534   1.169
 1287SOL    HW221004   4.667   2.546   1.222
 1288SOL     OW21005   5.101   0.190   0.292
 1288SOL    HW121006   5.046   0.233   0.225
 1288SOL    HW221007   5.180   0.165   0.246
 1289SOL     OW21008   1.258   0.201   6.241
 1289SOL    HW121009   1.319   0.225   6.171
 1289SOL    HW221010   1.314   0.178   6.315
 1290SOL     OW21011   2.537   2.471   6.274
 1290SOL    HW121012   2.536   2.387   6.321
 1290SOL    HW221013   2.630   2.491   6.262
 1291SOL     OW21014   2.011   4.048   0.652
 1291SOL    HW121015   2.007   4.013   0.563
 1291SOL    HW221016   2.103   4.070   0.664
 1292SOL     OW21017   4.626   2.788   2.075
 1292SOL    HW121018   4.618   2.778   1.980
 1292SOL    HW221019   4.594   2.877   2.092
 1293SOL     OW21020   2.197   3.551   6.843
 1293SOL    HW121021   2.205   3.543   6.748
 1293SOL    HW221022   2.286   3.536   6.875
 1294SOL     OW21023   1.940   1.321   1.584
 1294SOL    HW121024   1.991   1.300   1.662
 1294SOL    HW221025   1.929   1.238   1.538
 1295SOL     OW21026   1.266   1.470   0.911
 1295SOL    HW121027   1.221   1.394   0.874
 1295SOL    HW221028   1.332   1.493   0.846
 1296SOL     OW21029   5.175   1.528   0.682
 1296SOL    HW121030   5.183   1.495   0.593
 1296SOL    HW221031   5.094   1.489   0.715
 1297SOL     OW21032   3.851   4.881   6.296
 1297SOL    HW121033   3.930   4.829   6.309
 1297SOL    HW221034   3.797   4.828   6.237
 1298SOL     OW21035   0.552   2.520   6.063
 1298SOL    HW121036   0.466   2.495   6.096
 1298SOL    HW221037   0.537   2.603   6.019
 1299SOL     OW21038   4.255   2.631   7.432
 1299SOL    HW121039   4.233   2.544   7.399
 1299SOL    HW221040   4.171   2.678   7.435
 1300SOL     OW21041   1.691   3.918   2.148
 1300SOL    HW121042   1.624   3.851   2.129
 1300SOL    HW221043   1.642   4.000   2.150
 1301SOL     OW21044   2.915   4.888   6.085
 1301SOL    HW121045   2.852   4.957   6.066
 1301SOL    HW221046   2.973   4.926   6.151
 1302SOL     OW21047   0.555   1.429   1.292
 1302SOL    HW121048   0.638   1.424   1.244
 1302SOL    HW221049   0.491   1.453   1.225
 1303SOL     OW21050   3.420   2.607   0.767
 1303SOL    HW121051   3.467   2.690   0.778
 1303SOL    HW221052   3.398   2.604   0.674
 1304SOL     OW21053   5.188   4.699   7.650
 1304SOL    HW121054   5.208   4.617   7.695
 1304SOL    HW221055   5.147   4.673   7.568
 1305SOL     OW21056   4.028   6.396   6.210
 1305SOL    HW121057   3.997   6.341   6.283
 1305SOL    HW221058   3.949   6.437   6.177
 1306SOL     OW21059   2.951   5.748   6.124
 1306SOL    HW121060   2.980   5.719   6.037
 1306SOL    HW221061   2.866   5.789   6.107
 1307SOL     OW21062   4.304   4.525   5.949
 1307SOL    HW121063   4.370   4.593   5.942
 1307SOL    HW221064   4.226   4.563   5.908
 1308SOL     OW21065   2.806   4.144   1.379
 1308SOL    HW121066   2.810   4.050   1.394
 1308SOL    HW221067   2.777   4.181   1.463
 1309SOL     OW21068   0.596   1.522   1.549
 1309SOL    HW121069   0.654   1.451   1.575
 1309SOL    HW221070   0.571   1.502   1.458
 1310SOL     OW21071   5.834   4.155   7.292
 1310SOL    HW121072   5.774   4.114   7.230
 1310SOL    HW221073   5.889   4.084   7.324
 1311SOL     OW21074   2.603   2.619   1.372
 1311SOL    HW121075   2.586   2.709   1.345
 1311SOL    HW221076   2.517   2.578   1.375
 1312SOL     OW21077   2.805   3.315   6.040
 1312SOL    HW121078   2.712   3.314   6.018
 1312SOL    HW221079   2.817   3.239   6.098
 1313SOL     OW21080   1.397   2.021   0.125
 1313SOL    HW121081   1.322   2.045   0.069
 1313SOL    HW221082   1.434   2.105   0.152
 1314SOL     OW21083   0.284   5.732   7.606
 1314SOL    HW121084   0.253   5.823   7.600
 1314SOL    HW221085   0.257   5.703   7.693
 1315SOL     OW21086   2.556   4.251   1.860
 1315SOL    HW121087   2.494   4.178   1.862
 1315SOL    HW221088   2.505   4.327   1.887
 1316SOL     OW21089   2.366   1.741   0.361
 1316SOL    HW121090   2.275   1.711   0.366
 1316SOL    HW221091   2.379   1.761   0.268
 1317SOL     OW21092   2.832   0.599   0.710
 1317SOL    HW121093   2.785   0.570   0.788
 1317SOL    HW221094   2.771   0.657   0.665
 1318SOL     OW21095   5.183   2.086   1.378
 1318SOL    HW121096   5.273   2.054   1.370
 1318SOL    HW221097   5.171   2.142   1.301
 1319SOL     OW21098   2.744   5.127   5.442
 1319SOL    HW121099   2.669   5.074   5.465
 1319SOL    HW221100   2.730   5.211   5.486
 1320SOL     OW21101   4.608   4.033   0.168
 1320SOL    HW121102   4.513   4.028   0.175
 1320SOL    HW221103   4.636   4.069   0.252
 1321SOL     OW21104   0.338   4.557   2.003
 1321SOL    HW121105   0.365   4.469   1.979
 1321SOL    HW221106   0.249   4.546   2.037
 1322SOL     OW21107   4.351   3.401   6.610
 1322SOL    HW121108   4.443   3.423   6.622
 1322SOL    HW221109   4.352   3.329   6.546
 1323SOL     OW21110   2.207   4.374   1.362
 1323SOL    HW121111   2.146   4.380   1.435
 1323SOL    HW221112   2.197   4.457   1.314
 1324SOL     OW21113   2.820   0.471   7.450
 1324SOL    HW121114   2.914   0.491   7.449
 1324SOL    HW221115   2.809   0.407   7.520
 1325SOL     OW21116   5.742   6.035   0.705
 1325SOL    HW121117   5.763   5.977   0.779
 1325SOL    HW221118   5.668   6.088   0.736
 1326SOL     OW21119   5.738   6.402   0.724
 1326SOL    HW121120   5.657   6.353   0.710
 1326SOL    HW221121   5.756   6.445   0.640
 1327SOL     OW21122   3.475   2.144   2.098
 1327SOL    HW121123   3.521   2.063   2.122
 1327SOL    HW221124   3.391   2.115   2.064
 1328SOL     OW21125   0.244   3.628   7.706
 1328SOL    HW121126   0.261   3.702   0.003
 1328SOL    HW221127   0.250   3.551   0.001
 1329SOL     OW21128   4.310   5.788   7.466
 1329SOL    HW121129   4.271   5.871   7.493
 1329SOL    HW221130   4.290   5.782   7.372
 1330SOL     OW21131   0.401   1.608   5.735
 1330SOL    HW121132   0.444   1.649   5.660
 1330SOL    HW221133   0.355   1.532   5.699
 1331SOL     OW21134   6.430   0.497   6.564
 1331SOL    HW121135   6.475   0.516   6.481
 1331SOL    HW221136   6.420   0.582   6.606
 1332SOL     OW21137   4.587   3.382   7.450
 1332SOL    HW121138   4.597   3.343   7.536
 1332SOL    HW221139   4.549   3.469   7.467
 1333SOL     OW21140   1.591   3.531   1.081
 1333SOL    HW121141   1.633   3.518   0.996
 1333SOL    HW221142   1.649   3.592   1.127
 1334SOL     OW21143   0.073   1.094   5.290
 1334SOL    HW121144   0.071   1.001   5.266
 1334SOL    HW221145   0.144   1.131   5.237
 1335SOL     OW21146   2.965   2.145   6.519
 1335SOL    HW121147   2.908   2.216   6.548
 1335SOL    HW221148   2.944   2.134   6.426
 1336SOL     OW21149   4.286   2.031   5.962
 1336SOL    HW121150   4.232   2.040   6.041
 1336SOL    HW221151   4.224   2.043   5.890
 1337SOL     OW21152   5.112   1.951   0.344
 1337SOL    HW121153   5.192   1.970   0.394
 1337SOL    HW221154   5.129   1.989   0.258
 1338SOL     OW21155   5.429   3.592   1.968
 1338SOL    HW121156   5.436   3.665   1.907
 1338SOL    HW221157   5.507   3.599   2.023
 1339SOL     OW21158   2.857   4.123   5.739
 1339SOL    HW121159   2.869   4.211   5.704
 1339SOL    HW221160   2.791   4.083   5.682
 1340SOL     OW21161   0.257   6.158   7.405
 1340SOL    HW121162   0.269   6.064   7.407
 1340SOL    HW221163   0.345   6.194   7.406
 1341SOL     OW21164   5.317   1.695   0.868
 1341SOL    HW121165   5.289   1.619   0.817
 1341SOL    HW221166   5.278   1.770   0.822
 1342SOL     OW21167   5.495   1.037   1.528
 1342SOL    HW121168   5.511   0.995   1.443
 1342SOL    HW221169   5.516   0.969   1.592
 1343SOL     OW21170   0.218   2.713   1.518
 1343SOL    HW121171   0.195   2.624   1.546
 1343SOL    HW221172   0.292   2.701   1.459
 1344SOL     OW21173   1.013   6.458   0.481
 1344SOL    HW121174   1.090   6.405   0.458
 1344SOL    HW221175   0.948   6.434   0.415
 1345SOL     OW21176   3.066   3.095   5.713
 1345SOL    HW121177   3.083   3.001   5.719
 1345SOL    HW221178   3.128   3.134   5.775
 1346SOL     OW21179   5.403   2.935   7.035
 1346SOL    HW121180   5.434   2.905   6.949
 1346SOL    HW221181   5.315   2.899   7.042
 1347SOL     OW21182   4.754   2.770   7.416
 1347SOL    HW121183   4.768   2.729   7.331
 1347SOL    HW221184   4.691   2.840   7.399
 1348SOL     OW21185   5.322   3.289   2.980
 1348SOL    HW121186   5.333   3.196   2.960
 1348SOL    HW221187   5.411   3.324   2.981
 1349SOL     OW21188   0.696   6.345   1.324
 1349SOL    HW121189   0.668   6.419   1.379
 1349SOL    HW221190   0.704   6.383   1.236
 1350SOL     OW21191   3.990   5.674   7.007
 1350SOL    HW121192   4.019   5.690   7.096
 1350SOL    HW221193   4.040   5.598   6.979
 1351SOL     OW21194   2.371   5.635   0.522
 1351SOL    HW121195   2.318   5.695   0.469
 1351SOL    HW221196   2.396   5.566   0.462
 1352SOL     OW21197   5.694   1.138   0.204
 1352SOL    HW121198   5.763   1.081   0.171
 1352SOL    HW221199   5.733   1.180   0.281
 1353SOL     OW21200   2.957   5.604   1.779
 1353SOL    HW121201   3.027   5.627   1.840
 1353SOL    HW221202   2.880   5.652   1.811
 1354SOL     OW21203   0.076   0.242   7.035
 1354SOL    HW121204   6.485   0.296   7.031
 1354SOL    HW221205   0.116   0.254   6.949
 1355SOL     OW21206   3.664   2.463   7.121
 1355SOL    HW121207   3.633   2.428   7.038
 1355SOL    HW221208   3.752   2.426   7.132
 1356SOL     OW21209   4.775   1.534   1.945
 1356SOL    HW121210   4.779   1.630   1.953
 1356SOL    HW221211   4.833   1.514   1.871
 1357SOL     OW21212   4.816   1.045   0.989
 1357SOL    HW121213   4.887   0.988   0.961
 1357SOL    HW221214   4.748   0.985   1.021
 1358SOL     OW21215   3.650   0.902   7.147
 1358SOL    HW121216   3.692   0.908   7.061
 1358SOL    HW221217   3.563   0.867   7.128
 1359SOL     OW21218   4.896   0.561   7.759
 1359SOL    HW121219   4.845   0.639   7.736
 1359SOL    HW221220   4.975   0.567   7.705
 1360SOL     OW21221   1.505   1.145   6.326
 1360SOL    HW121222   1.568   1.096   6.273
 1360SOL    HW221223   1.420   1.108   6.303
 1361SOL     OW21224   2.204   3.030   5.628
 1361SOL    HW121225   2.278   3.061   5.680
 1361SOL    HW221226   2.140   3.101   5.632
 1362SOL     OW21227   2.426   0.653   0.136
 1362SOL    HW121228   2.360   0.585   0.144
 1362SOL    HW221229   2.446   0.678   0.227
 1363SOL     OW21230   5.013   4.525   1.084
 1363SOL    HW121231   5.059   4.467   1.144
 1363SOL    HW221232   5.012   4.610   1.128
 1364SOL     OW21233   4.170   6.070   1.533
 1364SOL    HW121234   4.182   6.044   1.441
 1364SOL    HW221235   4.133   6.158   1.527
 1365SOL     OW21236   0.127   0.096   0.235
 1365SOL    HW121237   0.080   0.030   0.285
 1365SOL    HW221238   0.215   0.099   0.274
 1366SOL     OW21239   6.320   4.317   0.135
 1366SOL    HW121240   6.234   4.351   0.111
 1366SOL    HW221241   6.330   4.341   0.227
 1367SOL     OW21242   4.177   4.779   6.129
 1367SOL    HW121243   4.152   4.735   6.048
 1367SOL    HW221244   4.218   4.861   6.100
 1368SOL     OW21245   2.782   4.089   7.157
 1368SOL    HW121246   2.754   4.034   7.230
 1368SOL    HW221247   2.838   4.155   7.198
 1369SOL     OW21248   0.066   5.262   1.119
 1369SOL    HW121249   0.098   5.343   1.078
 1369SOL    HW221250   0.065   5.198   1.048
 1370SOL     OW21251   4.064   1.857   6.334
 1370SOL    HW121252   4.088   1.768   6.309
 1370SOL    HW221253   4.052   1.903   6.251
 1371SOL     OW21254   2.366   4.191   7.160
 1371SOL    HW121255   2.446   4.153   7.125
 1371SOL    HW221256   2.395   4.270   7.205
 1372SOL     OW21257   0.075   4.221   6.448
 1372SOL    HW121258   0.157   4.271   6.446
 1372SOL    HW221259   0.103   4.130   6.439
 1373SOL     OW21260   5.827   0.428   5.380
 1373SOL    HW121261   5.850   0.419   5.287
 1373SOL    HW221262   5.837   0.522   5.398
 1374SOL     OW21263   4.332   6.396   6.406
 1374SOL    HW121264   4.299   6.382   6.317
 1374SOL    HW221265   4.340   0.002   6.414
 1375SOL     OW21266   1.782   4.024   0.284
 1375SOL    HW121267   1.776   4.116   0.308
 1375SOL    HW221268   1.852   3.989   0.340
 1376SOL     OW21269   0.005   6.391   7.064
 1376SOL    HW121270   0.093   6.413   7.034
 1376SOL    HW221271   0.017   6.355   7.151
 1377SOL     OW21272   1.394   2.859   7.100
 1377SOL    HW121273   1.442   2.879   7.180
 1377SOL    HW221274   1.317   2.810   7.130
 1378SOL     OW21275   2.704   5.121   6.108
 1378SOL    HW121276   2.647   5.165   6.172
 1378SOL    HW221277   2.750   5.193   6.064
 1379SOL     OW21278   5.739   3.337   1.376
 1379SOL    HW121279   5.796   3.359   1.302
 1379SOL    HW221280   5.783   3.264   1.419
 1380SOL     OW21281   4.052   5.456   0.123
 1380SOL    HW121282   4.003   5.506   0.188
 1380SOL    HW221283   4.049   5.366   0.155
 1381SOL     OW21284   3.042   5.231   6.543
 1381SOL    HW121285   3.111   5.214   6.606
 1381SOL    HW221286   2.962   5.200   6.586
 1382SOL     OW21287   4.260   4.195   6.377
 1382SOL    HW121288   4.176   4.177   6.336
 1382SOL    HW221289   4.323   4.143   6.327
 1383SOL     OW21290   2.691   4.537   5.946
 1383SOL    HW121291   2.767   4.596   5.946
 1383SOL    HW221292   2.648   4.552   6.030
 1384SOL     OW21293   0.980   3.408   7.241
 1384SOL    HW121294   0.890   3.391   7.213
 1384SOL    HW221295   1.010   3.480   7.186
 1385SOL     OW21296   5.681   5.070   0.918
 1385SOL    HW121297   5.624   5.079   0.842
 1385SOL    HW221298   5.658   5.144   0.975
 1386SOL     OW21299   2.127   2.451   0.403
 1386SOL    HW121300   2.170   2.377   0.360
 1386SOL    HW221301   2.052   2.412   0.448
 1387SOL     OW21302   1.464   5.560   0.310
 1387SOL    HW121303   1.519   5.514   0.373
 1387SOL    HW221304   1.420   5.628   0.362
 1388SOL     OW21305   5.720   3.077   6.961
 1388SOL    HW121306   5.751   3.141   6.897
 1388SOL    HW221307   5.692   3.002   6.909
 1389SOL     OW21308   5.871   3.721   6.733
 1389SOL    HW121309   5.855   3.630   6.707
 1389SOL    HW221310   5.965   3.733   6.724
 1390SOL     OW21311   3.961   6.321   6.468
 1390SOL    HW121312   3.904   6.376   6.523
 1390SOL    HW221313   4.018   6.277   6.531
 1391SOL     OW21314   3.248   1.846   7.354
 1391SOL    HW121315   3.218   1.816   7.439
 1391SOL    HW221316   3.299   1.924   7.373
 1392SOL     OW21317   4.776   5.074   6.254
 1392SOL    HW121318   4.757   5.120   6.336
 1392SOL    HW221319   4.846   5.012   6.277
 1393SOL     OW21320   4.705   5.360   5.509
 1393SOL    HW121321   4.751   5.332   5.588
 1393SOL    HW221322   4.673   5.448   5.530
 1394SOL     OW21323   5.670   5.434   0.968
 1394SOL    HW121324   5.697   5.508   1.022
 1394SOL    HW221325   5.672   5.468   0.878
 1395SOL     OW21326   5.984   2.546   0.195
 1395SOL    HW121327   6.066   2.593   0.181
 1395SOL    HW221328   5.917   2.604   0.158
 1396SOL     OW21329   5.918   1.583   1.292
 1396SOL    HW121330   5.975   1.640   1.240
 1396SOL    HW221331   5.976   1.545   1.358
 1397SOL     OW21332   2.597   1.348   7.398
 1397SOL    HW121333   2.652   1.382   7.328
 1397SOL    HW221334   2.517   1.318   7.354
 1398SOL     OW21335   4.648   1.942   1.853
 1398SOL    HW121336   4.702   1.875   1.896
 1398SOL    HW221337   4.558   1.909   1.862
 1399SOL     OW21338   2.303   4.918   5.878
 1399SOL    HW121339   2.256   4.932   5.795
 1399SOL    HW221340   2.302   5.004   5.921
 1400SOL     OW21341   5.588   4.047   6.816
 1400SOL    HW121342   5.620   3.967   6.774
 1400SOL    HW221343   5.504   4.021   6.854
 1401SOL     OW21344   2.625   3.356   0.236
 1401SOL    HW121345   2.592   3.287   0.292
 1401SOL    HW221346   2.669   3.311   0.165
 1402SOL     OW21347   4.836   5.550   5.793
 1402SOL    HW121348   4.780   5.562   5.717
 1402SOL    HW221349   4.784   5.585   5.866
 1403SOL     OW21350   4.871   3.531   0.867
 1403SOL    HW121351   4.889   3.585   0.944
 1403SOL    HW221352   4.885   3.441   0.896
 1404SOL     OW21353   3.699   0.062   6.614
 1404SOL    HW121354   3.732   0.076   6.703
 1404SOL    HW221355   3.707   0.148   6.572
 1405SOL     OW21356   3.274   5.556   5.602
 1405SOL    HW121357   3.305   5.615   5.671
 1405SOL    HW221358   3.322   5.474   5.619
 1406SOL     OW21359   1.412   0.532   6.339
 1406SOL    HW121360   1.477   0.463   6.353
 1406SOL    HW221361   1.443   0.579   6.261
 1407SOL     OW21362   2.103   5.831   1.522
 1407SOL    HW121363   2.021   5.860   1.483
 1407SOL    HW221364   2.170   5.880   1.475
 1408SOL     OW21365   3.168   6.154   0.660
 1408SOL    HW121366   3.104   6.211   0.701
 1408SOL    HW221367   3.222   6.212   0.606
 1409SOL     OW21368   2.166   2.780   6.840
 1409SOL    HW121369   2.154   2.765   6.934
 1409SOL    HW221370   2.082   2.758   6.801
 1410SOL     OW21371   4.551   0.471   5.273
 1410SOL    HW121372   4.559   0.388   5.319
 1410SOL    HW221373   4.624   0.472   5.211
 1411SOL     OW21374   5.295   2.497   7.068
 1411SOL    HW121375   5.342   2.415   7.053
 1411SOL    HW221376   5.356   2.551   7.119
 1412SOL     OW21377   4.817   5.651   7.709
 1412SOL    HW121378   4.863   5.612   0.022
 1412SOL    HW221379   4.726   5.623   7.719
 1413SOL     OW21380   2.952   0.925   6.771
 1413SOL    HW121381   2.988   0.975   6.844
 1413SOL    HW221382   2.858   0.941   6.774
 1414SOL     OW21383   1.771   0.271   0.988
 1414SOL    HW121384   1.719   0.304   1.061
 1414SOL    HW221385   1.802   0.350   0.944
 1415SOL     OW21386   6.393   3.214   2.081
 1415SOL    HW121387   6.449   3.137   2.093
 1415SOL    HW221388   6.448   3.278   2.037
 1416SOL     OW21389   2.217   6.297   0.117
 1416SOL    HW121390   2.129   6.282   0.151
 1416SOL    HW221391   2.206   6.361   0.047
 1417SOL     OW21392   4.930   0.086   6.092
 1417SOL    HW121393   4.884   0.015   6.137
 1417SOL    HW221394   4.887   0.093   6.007
 1418SOL     OW21395   5.794   5.353   7.415
 1418SOL    HW121396   5.856   5.298   7.367
 1418SOL    HW221397   5.713   5.348   7.364
 1419SOL     OW21398   1.359   3.289   2.193
 1419SOL    HW121399   1.297   3.282   2.121
 1419SOL    HW221400   1.427   3.224   2.174
 1420SOL     OW21401   3.602   2.979   0.871
 1420SOL    HW121402   3.655   3.009   0.945
 1420SOL    HW221403   3.623   2.886   0.863
 1421SOL     OW21404   1.859   3.389   5.883
 1421SOL    HW121405   1.816   3.344   5.810
 1421SOL    HW221406   1.928   3.441   5.842
 1422SOL     OW21407   2.946   4.101   0.349
 1422SOL    HW121408   2.906   4.186   0.369
 1422SOL    HW221409   2.911   4.042   0.416
 1423SOL     OW21410   2.825   2.523   6.354
 1423SOL    HW121411   2.782   2.607   6.368
 1423SOL    HW221412   2.913   2.546   6.325
 1424SOL     OW21413   1.517   3.080   1.461
 1424SOL    HW121414   1.561   3.114   1.383
 1424SOL    HW221415   1.562   3.121   1.534
 1425SOL     OW21416   6.428   2.929   1.896
 1425SOL    HW121417   6.347   2.889   1.928
 1425SOL    HW221418   6.478   2.950   1.975
 1426SOL     OW21419   6.019   6.082   6.661
 1426SOL    HW121420   6.047   6.000   6.700
 1426SOL    HW221421   6.100   6.133   6.651
 1427SOL     OW21422   1.923   5.863   6.626
 1427SOL    HW121423   1.909   5.770   6.646
 1427SOL    HW221424   2.016   5.877   6.640
 1428SOL     OW21425   0.307   3.655   7.201
 1428SOL    HW121426   0.327   3.734   7.251
 1428SOL    HW221427   0.391   3.609   7.193
 1429SOL     OW21428   1.914   1.727   0.641
 1429SOL    HW121429   1.927   1.778   0.561
 1429SOL    HW221430   1.825   1.693   0.634
 1430SOL     OW21431   4.094   1.520   6.417
 1430SOL    HW121432   4.008   1.482   6.396
 1430SOL    HW221433   4.104   1.507   6.511
 1431SOL     OW21434   6.192   6.218   0.859
 1431SOL    HW121435   6.138   6.295   0.841
 1431SOL    HW221436   6.170   6.194   0.949
 1432SOL     OW21437   4.209   1.082   1.119
 1432SOL    HW121438   4.145   1.146   1.087
 1432SOL    HW221439   4.292   1.111   1.083
 1433SOL     OW21440   1.606   0.458   7.032
 1433SOL    HW121441   1.556   0.432   6.954
 1433SOL    HW221442   1.669   0.523   7.000
 1434SOL     OW21443   3.428   2.790   2.207
 1434SOL    HW121444   3.385   2.715   2.167
 1434SOL    HW221445   3.383   2.801   2.291
 1435SOL     OW21446   3.233   5.961   1.360
 1435SOL    HW121447   3.291   6.010   1.418
 1435SOL    HW221448   3.234   6.011   1.278
 1436SOL     OW21449   1.158   3.877   6.073
 1436SOL    HW121450   1.138   3.833   5.990
 1436SOL    HW221451   1.162   3.806   6.137
 1437SOL     OW21452   0.954   5.888   0.001
 1437SOL    HW121453   0.997   5.845   0.075
 1437SOL    HW221454   1.015   5.877   7.689
 1438SOL     OW21455   4.492   4.447   6.921
 1438SOL    HW121456   4.532   4.397   6.850
 1438SOL    HW221457   4.398   4.443   6.903
 1439SOL     OW21458   4.499   2.111   7.659
 1439SOL    HW121459   4.440   2.036   7.651
 1439SOL    HW221460   4.539   2.101   7.745
 1440SOL     OW21461   3.588   1.559   6.262
 1440SOL    HW121462   3.586   1.640   6.312
 1440SOL    HW221463   3.576   1.490   6.327
 1441SOL     OW21464   4.602   4.927   5.621
 1441SOL    HW121465   4.628   4.978   5.698
 1441SOL    HW221466   4.669   4.946   5.555
 1442SOL     OW21467   3.962   2.132   0.536
 1442SOL    HW121468   3.964   2.178   0.620
 1442SOL    HW221469   3.937   2.042   0.558
 1443SOL     OW21470   4.143   6.126   0.513
 1443SOL    HW121471   4.116   6.140   0.422
 1443SOL    HW221472   4.237   6.106   0.507
 1444SOL     OW21473   0.552   0.030   7.206
 1444SOL    HW121474   0.521   0.066   7.123
 1444SOL    HW221475   0.647   0.033   7.201
 1445SOL     OW21476   0.581   0.486   1.139
 1445SOL    HW121477   0.527   0.564   1.132
 1445SOL    HW221478   0.639   0.504   1.213
 1446SOL     OW21479   5.003   4.234   5.738
 1446SOL    HW121480   5.060   4.231   5.660
 1446SOL    HW221481   5.052   4.286   5.801
 1447SOL     OW21482   1.615   3.288   7.650
 1447SOL    HW121483   1.627   3.376   7.684
 1447SOL    HW221484   1.641   3.294   7.558
 1448SOL     OW21485   1.587   1.957   7.462
 1448SOL    HW121486   1.632   1.891   7.409
 1448SOL    HW221487   1.594   1.923   7.552
 1449SOL     OW21488   6.005   4.162   0.260
 1449SOL    HW121489   6.092   4.169   0.301
 1449SOL    HW221490   6.019   4.103   0.186
 1450SOL     OW21491   6.182   1.208   7.408
 1450SOL    HW121492   6.173   1.271   7.337
 1450SOL    HW221493   6.112   1.231   7.469
 1451SOL     OW21494   2.241   6.156   5.791
 1451SOL    HW121495   2.299   6.098   5.840
 1451SOL    HW221496   2.211   6.103   5.717
 1452SOL     OW21497   5.878   2.570   2.468
 1452SOL    HW121498   5.954   2.628   2.458
 1452SOL    HW221499   5.900   2.493   2.416
 1453SOL     OW21500   3.753   2.035   0.231
 1453SOL    HW121501   3.712   1.952   0.204
 1453SOL    HW221502   3.842   2.010   0.258
 1454SOL     OW21503   0.896   5.288   1.190
 1454SOL    HW121504   0.939   5.292   1.105
 1454SOL    HW221505   0.815   5.241   1.174
 1455SOL     OW21506   1.688   4.454   7.709
 1455SOL    HW121507   1.661   4.427   7.622
 1455SOL    HW221508   1.632   4.404   0.007
 1456SOL     OW21509   3.027   0.040   1.552
 1456SOL    HW121510   2.939   0.009   1.571
 1456SOL    HW221511   3.017   0.095   1.474
 1457SOL     OW21512   3.701   1.804   0.140
 1457SOL    HW121513   3.720   1.710   0.139
 1457SOL    HW221514   3.689   1.827   0.048
 1458SOL     OW21515   0.827   0.648   0.359
 1458SOL    HW121516   0.851   0.661   0.267
 1458SOL    HW221517   0.853   0.730   0.402
 1459SOL     OW21518   1.795   3.437   0.521
 1459SOL    HW121519   1.762   3.347   0.513
 1459SOL    HW221520   1.868   3.441   0.459
 1460SOL     OW21521   1.573   2.444   6.235
 1460SOL    HW121522   1.570   2.452   6.139
 1460SOL    HW221523   1.556   2.351   6.251
 1461SOL     OW21524   5.209   2.443   7.462
 1461SOL    HW121525   5.237   2.482   7.379
 1461SOL    HW221526   5.165   2.514   7.508
 1462SOL     OW21527   3.401   0.593   0.654
 1462SOL    HW121528   3.352   0.551   0.724
 1462SOL    HW221529   3.368   0.682   0.651
 1463SOL     OW21530   3.280   0.647   6.070
 1463SOL    HW121531   3.342   0.677   6.136
 1463SOL    HW221532   3.298   0.701   5.993
 1464SOL     OW21533   3.096   3.520   6.431
 1464SOL    HW121534   3.154   3.596   6.429
 1464SOL    HW221535   3.058   3.516   6.343
 1465SOL     OW21536   5.550   5.749   6.406
 1465SOL    HW121537   5.545   5.690   6.331
 1465SOL    HW221538   5.537   5.836   6.370
 1466SOL     OW21539   0.077   4.477   0.327
 1466SOL    HW121540   0.131   4.479   0.248
 1466SOL    HW221541   0.059   4.569   0.346
 1467SOL     OW21542   3.306   3.151   1.348
 1467SOL    HW121543   3.222   3.116   1.319
 1467SOL    HW221544   3.349   3.178   1.267
 1468SOL     OW21545   1.543   5.940   6.957
 1468SOL    HW121546   1.557   5.855   6.997
 1468SOL    HW221547   1.621   5.955   6.904
 1469SOL     OW21548   4.105   4.534   0.568
 1469SOL    HW121549   4.069   4.533   0.657
 1469SOL    HW221550   4.042   4.584   0.517
 1470SOL     OW21551   5.960   3.888   7.326
 1470SOL    HW121552   5.916   3.809   7.357
 1470SOL    HW221553   5.946   3.888   7.231
 1471SOL     OW21554   4.271   2.276   7.673
 1471SOL    HW121555   4.239   2.308   7.589
 1471SOL    HW221556   4.361   2.249   7.655
 1472SOL     OW21557   3.319   0.280   7.748
 1472SOL    HW121558   3.318   0.322   7.662
 1472SOL    HW221559   3.272   0.341   0.044
 1473SOL     OW21560   5.178   6.004   1.287
 1473SOL    HW121561   5.205   6.092   1.316
 1473SOL    HW221562   5.117   5.974   1.354
 1474SOL     OW21563   4.985   4.081   7.001
 1474SOL    HW121564   4.983   4.139   6.925
 1474SOL    HW221565   5.066   4.104   7.047
 1475SOL     OW21566   3.423   5.317   0.115
 1475SOL    HW121567   3.416   5.408   0.087
 1475SOL    HW221568   3.334   5.283   0.107
 1476SOL     OW21569   1.809   2.489   1.101
 1476SOL    HW121570   1.835   2.474   1.010
 1476SOL    HW221571   1.714   2.482   1.100
 1477SOL     OW21572   2.760   2.353   6.571
 1477SOL    HW121573   2.761   2.428   6.512
 1477SOL    HW221574   2.670   2.320   6.567
 1478SOL     OW21575   0.000   2.235   1.054
 1478SOL    HW121576   0.006   2.189   1.137
 1478SOL    HW221577   0.067   2.304   1.060
 1479SOL     OW21578   0.235   0.923   6.294
 1479SOL    HW121579   0.191   0.993   6.245
 1479SOL    HW221580   0.207   0.843   6.250
 1480SOL     OW21581   2.028   4.716   0.956
 1480SOL    HW121582   1.982   4.660   0.893
 1480SOL    HW221583   1.962   4.782   0.980
 1481SOL     OW21584   6.383   1.324   1.804
 1481SOL    HW121585   6.408   1.306   1.714
 1481SOL    HW221586   6.354   1.415   1.805
 1482SOL     OW21587   1.743   4.759   7.756
 1482SOL    HW121588   1.753   4.820   0.068
 1482SOL    HW221589   1.757   4.672   0.033
 1483SOL     OW21590   3.989   2.741   1.466
 1483SOL    HW121591   4.001   2.683   1.391
 1483SOL    HW221592   3.996   2.683   1.542
 1484SOL     OW21593   3.661   0.560   0.612
 1484SOL    HW121594   3.679   0.654   0.612
 1484SOL    HW221595   3.568   0.553   0.633
 1485SOL     OW21596   2.726   5.353   5.580
 1485SOL    HW121597   2.779   5.414   5.528
 1485SOL    HW221598   2.678   5.409   5.640
 1486SOL     OW21599   2.498   5.245   1.632
 1486SOL    HW121600   2.476   5.156   1.661
 1486SOL    HW221601   2.594   5.248   1.635
 1487SOL     OW21602   3.283   6.101   1.607
 1487SOL    HW121603   3.219   6.045   1.651
 1487SOL    HW221604   3.365   6.083   1.653
 1488SOL     OW21605   2.189   0.104   7.576
 1488SOL    HW121606   2.136   0.181   7.598
 1488SOL    HW221607   2.243   0.132   7.503
 1489SOL     OW21608   2.050   0.877   0.984
 1489SOL    HW121609   2.037   0.910   1.073
 1489SOL    HW221610   2.134   0.833   0.986
 1490SOL     OW21611   5.890   3.635   7.380
 1490SOL    HW121612   5.914   3.611   7.470
 1490SOL    HW221613   5.810   3.585   7.363
 1491SOL     OW21614   5.461   0.289   0.126
 1491SOL    HW121615   5.388   0.233   0.096
 1491SOL    HW221616   5.530   0.227   0.148
 1492SOL     OW21617   2.227   5.933   6.634
 1492SOL    HW121618   2.302   5.917   6.578
 1492SOL    HW221619   2.250   5.894   6.718
 1493SOL     OW21620   5.022   4.180   6.733
 1493SOL    HW121621   5.082   4.249   6.705
 1493SOL    HW221622   4.994   4.138   6.651
 1494SOL     OW21623   2.022   1.215   7.460
 1494SOL    HW121624   2.024   1.164   7.379
 1494SOL    HW221625   2.098   1.186   7.509
 1495SOL     OW21626   5.914   5.317   0.912
 1495SOL    HW121627   5.824   5.329   0.942
 1495SOL    HW221628   5.919   5.363   0.829
 1496SOL     OW21629   1.387   4.906   6.613
 1496SOL    HW121630   1.401   4.894   6.707
 1496SOL    HW221631   1.438   4.836   6.573
 1497SOL     OW21632   2.516   2.166   6.940
 1497SOL    HW121633   2.564   2.216   7.005
 1497SOL    HW221634   2.582   2.109   6.900
 1498SOL     OW21635   3.700   5.995   0.919
 1498SOL    HW121636   3.636   5.931   0.952
 1498SOL    HW221637   3.753   6.017   0.996
 1499SOL     OW21638   3.533   0.909   6.753
 1499SOL    HW121639   3.440   0.908   6.776
 1499SOL    HW221640   3.560   0.817   6.758
 1500SOL     OW21641   1.141   6.270   0.211
 1500SOL    HW121642   1.092   6.241   0.288
 1500SOL    HW221643   1.088   6.240   0.137
 1501SOL     OW21644   6.190   1.081   1.204
 1501SOL    HW121645   6.200   1.172   1.232
 1501SOL    HW221646   6.097   1.063   1.214
 1502SOL     OW21647   3.493   6.454   6.997
 1502SOL    HW121648   3.520   0.009   7.078
 1502SOL    HW221649   3.531   6.367   7.003
 1503SOL     OW21650   5.146   2.882   7.269
 1503SOL    HW121651   5.163   2.956   7.211
 1503SOL    HW221652   5.110   2.814   7.211
 1504SOL     OW21653   2.849   2.055   2.211
 1504SOL    HW121654   2.856   2.134   2.157
 1504SOL    HW221655   2.937   2.041   2.244
 1505SOL     OW21656   3.894   5.423   1.225
 1505SOL    HW121657   3.824   5.471   1.269
 1505SOL    HW221658   3.975   5.461   1.260
 1506SOL     OW21659   6.238   2.041   1.694
 1506SOL    HW121660   6.146   2.056   1.675
 1506SOL    HW221661   6.274   2.128   1.710
 1507SOL     OW21662   2.196   1.154   0.367
 1507SOL    HW121663   2.273   1.200   0.398
 1507SOL    HW221664   2.162   1.208   0.296
 1508SOL     OW21665   1.718   1.587   7.705
 1508SOL    HW121666   1.628   1.579   7.672
 1508SOL    HW221667   1.765   1.632   7.636
 1509SOL     OW21668   6.449   2.783   6.642
 1509SOL    HW121669   6.465   2.826   6.558
 1509SOL    HW221670   6.472   2.848   6.708
 1510SOL     OW21671   3.949   1.716   7.150
 1510SOL    HW121672   3.977   1.639   7.198
 1510SOL    HW221673   4.022   1.778   7.159
 1511SOL     OW21674   0.516   5.776   0.153
 1511SOL    HW121675   0.439   5.726   0.126
 1511SOL    HW221676   0.570   5.779   0.074
 1512SOL     OW21677   1.232   5.179   0.003
 1512SOL    HW121678   1.281   5.260   7.749
 1512SOL    HW221679   1.228   5.171   0.098
 1513SOL     OW21680   2.411   6.447   6.873
 1513SOL    HW121681   2.464   6.481   6.945
 1513SOL    HW221682   2.412   0.028   6.807
 1514SOL     OW21683   4.893   5.966   6.250
 1514SOL    HW121684   4.923   6.029   6.185
 1514SOL    HW221685   4.894   5.881   6.205
 1515SOL     OW21686   5.028   2.663   7.747
 1515SOL    HW121687   5.002   2.573   7.727
 1515SOL    HW221688   5.089   2.687   7.676
 1516SOL     OW21689   4.913   3.175   0.641
 1516SOL    HW121690   4.956   3.148   0.560
 1516SOL    HW221691   4.852   3.103   0.661
 1517SOL     OW21692   0.348   5.181   6.274
 1517SOL    HW121693   0.293   5.105   6.254
 1517SOL    HW221694   0.298   5.231   6.338
 1518SOL     OW21695   0.810   0.455   1.555
 1518SOL    HW121696   0.902   0.466   1.580
 1518SOL    HW221697   0.761   0.497   1.626
 1519SOL     OW21698   2.904   2.043   6.882
 1519SOL    HW121699   2.954   1.978   6.832
 1519SOL    HW221700   2.971   2.098   6.922
 1520SOL     OW21701   2.173   1.430   2.053
 1520SOL    HW121702   2.254   1.393   2.017
 1520SOL    HW221703   2.200   1.471   2.135
 1521SOL     OW21704   5.815   2.606   6.765
 1521SOL    HW121705   5.881   2.630   6.830
 1521SOL    HW221706   5.840   2.654   6.686
 1522SOL     OW21707   1.503   0.403   5.265
 1522SOL    HW121708   1.573   0.407   5.330
 1522SOL    HW221709   1.429   0.447   5.307
 1523SOL     OW21710   3.090   2.038   7.747
 1523SOL    HW121711   3.124   2.096   7.679
 1523SOL    HW221712   3.131   1.953   7.729
 1524SOL     OW21713   2.584   2.452   6.840
 1524SOL    HW121714   2.602   2.361   6.816
 1524SOL    HW221715   2.592   2.500   6.757
 1525SOL     OW21716   3.121   3.032   6.474
 1525SOL    HW121717   3.182   2.976   6.523
 1525SOL    HW221718   3.123   3.115   6.521
 1526SOL     OW21719   5.680   4.644   6.050
 1526SOL    HW121720   5.720   4.724   6.084
 1526SOL    HW221721   5.590   4.669   6.028
 1527SOL     OW21722   5.513   5.355   0.415
 1527SOL    HW121723   5.591   5.313   0.452
 1527SOL    HW221724   5.506   5.319   0.326
 1528SOL     OW21725   3.165   2.497   7.655
 1528SOL    HW121726   3.151   2.550   7.576
 1528SOL    HW221727   3.260   2.501   7.670
 1529SOL     OW21728   3.018   6.032   6.600
 1529SOL    HW121729   3.093   6.049   6.544
 1529SOL    HW221730   3.006   5.937   6.596
 1530SOL     OW21731   4.110   0.673   5.944
 1530SOL    HW121732   4.081   0.637   5.860
 1530SOL    HW221733   4.045   0.644   6.007
 1531SOL     OW21734   4.238   0.844   0.119
 1531SOL    HW121735   4.166   0.890   0.161
 1531SOL    HW221736   4.273   0.787   0.187
 1532SOL     OW21737   3.549   0.415   6.893
 1532SOL    HW121738   3.534   0.397   6.986
 1532SOL    HW221739   3.585   0.333   6.858
 1533SOL     OW21740   6.059   4.343   1.727
 1533SOL    HW121741   6.046   4.249   1.716
 1533SOL    HW221742   5.977   4.374   1.765
 1534SOL     OW21743   4.654   5.873   7.163
 1534SOL    HW121744   4.743   5.839   7.175
 1534SOL    HW221745   4.618   5.879   7.251
 1535SOL     OW21746   5.065   4.739   5.960
 1535SOL    HW121747   4.991   4.687   5.932
 1535SOL    HW221748   5.140   4.680   5.955
 1536SOL     OW21749   2.952   2.833   6.463
 1536SOL    HW121750   2.992   2.774   6.399
 1536SOL    HW221751   3.013   2.906   6.469
 1537SOL     OW21752   1.245   2.403   1.153
 1537SOL    HW121753   1.321   2.410   1.096
 1537SOL    HW221754   1.277   2.429   1.239
 1538SOL     OW21755   5.269   4.056   7.497
 1538SOL    HW121756   5.313   3.971   7.493
 1538SOL    HW221757   5.176   4.034   7.501
 1539SOL     OW21758   5.125   1.181   6.724
 1539SOL    HW121759   5.179   1.177   6.802
 1539SOL    HW221760   5.056   1.116   6.739
 1540SOL     OW21761   6.158   5.181   5.959
 1540SOL    HW121762   6.078   5.130   5.949
 1540SOL    HW221763   6.152   5.247   5.890
 1541SOL     OW21764   4.489   3.041   1.800
 1541SOL    HW121765   4.492   2.950   1.770
 1541SOL    HW221766   4.494   3.036   1.895
 1542SOL     OW21767   3.358   0.967   7.101
 1542SOL    HW121768   3.348   1.057   7.132
 1542SOL    HW221769   3.343   0.972   7.006
 1543SOL     OW21770   2.978   0.011   7.172
 1543SOL    HW121771   2.996   6.468   7.083
 1543SOL    HW221772   2.992   6.423   7.228
 1544SOL     OW21773   0.875   6.079   1.418
 1544SOL    HW121774   0.794   6.079   1.367
 1544SOL    HW221775   0.913   6.166   1.403
 1545SOL     OW21776   0.640   4.852   0.868
 1545SOL    HW121777   0.672   4.942   0.877
 1545SOL    HW221778   0.626   4.841   0.774
 1546SOL     OW21779   5.463   0.987   0.196
 1546SOL    HW121780   5.487   0.905   0.152
 1546SOL    HW221781   5.546   1.034   0.205
 1547SOL     OW21782   5.730   3.339   6.032
 1547SOL    HW121783   5.711   3.423   6.073
 1547SOL    HW221784   5.679   3.339   5.951
 1548SOL     OW21785   1.129   6.404   7.652
 1548SOL    HW121786   1.057   6.358   7.695
 1548SOL    HW221787   1.148   6.478   7.709
 1549SOL     OW21788   5.533   6.298   7.367
 1549SOL    HW121789   5.495   6.228   7.315
 1549SOL    HW221790   5.594   6.254   7.426
 1550SOL     OW21791   4.052   6.061   6.115
 1550SOL    HW121792   4.136   6.014   6.118
 1550SOL    HW221793   4.072   6.148   6.148
 1551SOL     OW21794   5.479   1.715   7.403
 1551SOL    HW121795   5.479   1.652   7.475
 1551SOL    HW221796   5.461   1.662   7.325
 1552SOL     OW21797   5.573   1.479   7.140
 1552SOL    HW121798   5.586   1.504   7.049
 1552SOL    HW221799   5.502   1.536   7.170
 1553SOL     OW21800   0.688   1.477   6.249
 1553SOL    HW121801   0.698   1.552   6.190
 1553SOL    HW221802   0.620   1.424   6.207
 1554SOL     OW21803   0.660   4.462   1.242
 1554SOL    HW121804   0.716   4.452   1.164
 1554SOL    HW221805   0.704   4.529   1.294
 1555SOL     OW21806   0.195   5.643   0.088
 1555SOL    HW121807   0.200   5.622   0.182
 1555SOL    HW221808   0.106   5.678   0.076
 1556SOL     OW21809   1.378   1.901   0.761
 1556SOL    HW121810   1.342   1.874   0.846
 1556SOL    HW221811   1.309   1.883   0.698
 1557SOL     OW21812   1.113   0.191   1.623
 1557SOL    HW121813   1.204   0.161   1.621
 1557SOL    HW221814   1.118   0.282   1.650
 1558SOL     OW21815   4.886   3.853   0.775
 1558SOL    HW121816   4.959   3.793   0.763
 1558SOL    HW221817   4.821   3.825   0.711
 1559SOL     OW21818   4.596   0.509   1.001
 1559SOL    HW121819   4.603   0.497   0.906
 1559SOL    HW221820   4.520   0.457   1.026
 1560SOL     OW21821   5.114   3.474   6.293
 1560SOL    HW121822   5.099   3.490   6.387
 1560SOL    HW221823   5.110   3.379   6.284
 1561SOL     OW21824   1.221   4.078   5.778
 1561SOL    HW121825   1.302   4.129   5.771
 1561SOL    HW221826   1.241   4.011   5.843
 1562SOL     OW21827   0.673   0.502   7.162
 1562SOL    HW121828   0.700   0.456   7.242
 1562SOL    HW221829   0.755   0.528   7.121
 1563SOL     OW21830   1.794   2.348   0.328
 1563SOL    HW121831   1.843   2.417   0.284
 1563SOL    HW221832   1.842   2.332   0.409
 1564SOL     OW21833   3.085   2.527   1.894
 1564SOL    HW121834   2.996   2.528   1.929
 1564SOL    HW221835   3.126   2.451   1.935
 1565SOL     OW21836   2.354   6.417   1.339
 1565SOL    HW121837   2.387   0.009   1.299
 1565SOL    HW221838   2.334   6.360   1.265
 1566SOL     OW21839   4.012   0.449   0.381
 1566SOL    HW121840   3.935   0.397   0.402
 1566SOL    HW221841   4.030   0.429   0.289
 1567SOL     OW21842   2.319   6.363   0.946
 1567SOL    HW121843   2.379   6.432   0.976
 1567SOL    HW221844   2.235   6.407   0.936
 1568SOL     OW21845   5.349   0.427   1.066
 1568SOL    HW121846   5.344   0.342   1.023
 1568SOL    HW221847   5.413   0.414   1.136
 1569SOL     OW21848   5.262   2.600   2.246
 1569SOL    HW121849   5.225   2.569   2.163
 1569SOL    HW221850   5.268   2.695   2.235
 1570SOL     OW21851   4.396   4.588   6.265
 1570SOL    HW121852   4.418   4.681   6.254
 1570SOL    HW221853   4.351   4.564   6.183
 1571SOL     OW21854   5.367   1.306   6.487
 1571SOL    HW121855   5.406   1.230   6.444
 1571SOL    HW221856   5.292   1.329   6.432
 1572SOL     OW21857   1.099   4.605   7.137
 1572SOL    HW121858   1.098   4.589   7.042
 1572SOL    HW221859   1.076   4.697   7.146
 1573SOL     OW21860   3.745   5.721   1.069
 1573SOL    HW121861   3.721   5.645   1.121
 1573SOL    HW221862   3.667   5.741   1.017
 1574SOL     OW21863   4.654   5.528   6.083
 1574SOL    HW121864   4.585   5.463   6.094
 1574SOL    HW221865   4.619   5.607   6.125
 1575SOL     OW21866   0.363   1.614   0.997
 1575SOL    HW121867   0.346   1.678   1.065
 1575SOL    HW221868   0.443   1.644   0.954
 1576SOL     OW21869   4.965   0.462   5.990
 1576SOL    HW121870   4.899   0.507   5.937
 1576SOL    HW221871   4.922   0.447   6.075
 1577SOL     OW21872   1.235   6.431   2.304
 1577SOL    HW121873   1.270   6.486   2.374
 1577SOL    HW221874   1.142   6.423   2.324
 1578SOL     OW21875   1.602   6.105   7.676
 1578SOL    HW121876   1.560   6.020   7.684
 1578SOL    HW221877   1.566   6.156   7.749
 1579SOL     OW21878   5.352   5.369   5.565
 1579SOL    HW121879   5.333   5.419   5.644
 1579SOL    HW221880   5.417   5.304   5.592
 1580SOL     OW21881   2.813   1.151   6.429
 1580SOL    HW121882   2.762   1.075   6.455
 1580SOL    HW221883   2.892   1.115   6.389
 1581SOL     OW21884   5.887   0.685   5.457
 1581SOL    HW121885   5.840   0.767   5.442
 1581SOL    HW221886   5.969   0.712   5.498
 1582SOL     OW21887   5.619   3.020   0.119
 1582SOL    HW121888   5.631   3.112   0.142
 1582SOL    HW221889   5.673   3.007   0.042
 1583SOL     OW21890   3.474   4.696   5.239
 1583SOL    HW121891   3.460   4.601   5.245
 1583SOL    HW221892   3.468   4.714   5.145
 1584SOL     OW21893   1.564   0.296   6.381
 1584SOL    HW121894   1.623   0.262   6.314
 1584SOL    HW221895   1.531   0.218   6.426
 1585SOL     OW21896   4.171   2.364   6.918
 1585SOL    HW121897   4.209   2.308   6.986
 1585SOL    HW221898   4.190   2.317   6.836
 1586SOL     OW21899   6.236   0.945   6.928
 1586SOL    HW121900   6.145   0.918   6.916
 1586SOL    HW221901   6.246   0.956   7.023
 1587SOL     OW21902   3.129   6.459   0.012
 1587SOL    HW121903   3.110   6.366   7.757
 1587SOL    HW221904   3.087   6.478   0.095
 1588SOL     OW21905   4.468   3.140   6.953
 1588SOL    HW121906   4.373   3.126   6.950
 1588SOL    HW221907   4.501   3.069   7.007
 1589SOL     OW21908   4.077   5.289   6.135
 1589SOL    HW121909   4.010   5.223   6.120
 1589SOL    HW221910   4.131   5.253   6.205
 1590SOL     OW21911   1.232   3.242   6.902
 1590SOL    HW121912   1.248   3.149   6.885
 1590SOL    HW221913   1.151   3.243   6.953
 1591SOL     OW21914   3.559   5.753   0.891
 1591SOL    HW121915   3.587   5.764   0.800
 1591SOL    HW221916   3.470   5.718   0.884
 1592SOL     OW21917   3.713   3.726   6.132
 1592SOL    HW121918   3.807   3.718   6.148
 1592SOL    HW221919   3.703   3.712   6.038
 1593SOL     OW21920   1.926   1.563   0.177
 1593SOL    HW121921   1.867   1.529   0.110
 1593SOL    HW221922   1.871   1.618   0.233
 1594SOL     OW21923   0.152   5.861   6.662
 1594SOL    HW121924   0.117   5.782   6.702
 1594SOL    HW221925   0.228   5.831   6.612
 1595SOL     OW21926   2.476   5.575   6.461
 1595SOL    HW121927   2.419   5.510   6.419
 1595SOL    HW221928   2.559   5.529   6.472
 1596SOL     OW21929   2.606   4.356   2.554
 1596SOL    HW121930   2.610   4.278   2.609
 1596SOL    HW221931   2.691   4.397   2.564
 1597SOL     OW21932   3.713   3.741   5.869
 1597SOL    HW121933   3.777   3.674   5.893
 1597SOL    HW221934   3.756   3.794   5.803
 1598SOL     OW21935   2.191   6.239   6.523
 1598SOL    HW121936   2.101   6.273   6.523
 1598SOL    HW221937   2.180   6.144   6.525
 1599SOL     OW21938   4.583   2.742   1.812
 1599SOL    HW121939   4.651   2.729   1.745
 1599SOL    HW221940   4.510   2.687   1.783
 1600SOL     OW21941   5.494   2.115   1.283
 1600SOL    HW121942   5.438   2.140   1.209
 1600SOL    HW221943   5.566   2.067   1.243
 1601SOL     OW21944   2.443   1.542   7.010
 1601SOL    HW121945   2.354   1.576   6.995
 1601SOL    HW221946   2.500   1.610   6.974
 1602SOL     OW21947   6.064   5.734   0.427
 1602SOL    HW121948   6.123   5.794   0.382
 1602SOL    HW221949   6.032   5.784   0.502
 1603SOL     OW21950   0.850   5.197   6.966
 1603SOL    HW121951   0.826   5.191   6.873
 1603SOL    HW221952   0.819   5.115   7.004
 1604SOL     OW21953   1.610   2.774   0.578
 1604SOL    HW121954   1.551   2.759   0.651
 1604SOL    HW221955   1.561   2.744   0.501
 1605SOL     OW21956   5.036   2.766   5.755
 1605SOL    HW121957   5.091   2.750   5.678
 1605SOL    HW221958   5.050   2.690   5.811
 1606SOL     OW21959   3.091   5.077   5.875
 1606SOL    HW121960   3.159   5.143   5.865
 1606SOL    HW221961   3.126   5.015   5.940
 1607SOL     OW21962   2.613   4.646   1.396
 1607SOL    HW121963   2.617   4.561   1.440
 1607SOL    HW221964   2.533   4.686   1.429
 1608SOL     OW21965   3.127   4.454   2.419
 1608SOL    HW121966   3.134   4.510   2.342
 1608SOL    HW221967   3.188   4.382   2.401
 1609SOL     OW21968   4.603   3.717   7.467
 1609SOL    HW121969   4.694   3.745   7.471
 1609SOL    HW221970   4.577   3.707   7.559
 1610SOL     OW21971   1.600   2.389   0.816
 1610SOL    HW121972   1.595   2.295   0.799
 1610SOL    HW221973   1.541   2.404   0.890
 1611SOL     OW21974   5.981   5.827   7.660
 1611SOL    HW121975   6.022   5.747   7.626
 1611SOL    HW221976   5.918   5.852   7.592
 1612SOL     OW21977   5.901   4.888   6.410
 1612SOL    HW121978   5.864   4.876   6.498
 1612SOL    HW221979   5.992   4.857   6.418
 1613SOL     OW21980   3.526   6.085   1.752
 1613SOL    HW121981   3.618   6.090   1.777
 1613SOL    HW221982   3.485   6.031   1.819
 1614SOL     OW21983   0.159   1.962   0.480
 1614SOL    HW121984   0.110   2.045   0.482
 1614SOL    HW221985   0.146   1.929   0.391
 1615SOL     OW21986   1.578   5.873   6.435
 1615SOL    HW121987   1.490   5.903   6.409
 1615SOL    HW221988   1.563   5.825   6.516
 1616SOL     OW21989   3.585   0.853   7.406
 1616SOL    HW121990   3.648   0.897   7.463
 1616SOL    HW221991   3.609   0.881   7.318
 1617SOL     OW21992   4.657   1.316   0.028
 1617SOL    HW121993   4.725   1.312   7.722
 1617SOL    HW221994   4.699   1.282   0.107
 1618SOL     OW21995   4.425   5.474   5.623
 1618SOL    HW121996   4.433   5.442   5.713
 1618SOL    HW221997   4.501   5.530   5.611
 1619SOL     OW21998   4.240   1.627   6.992
 1619SOL    HW121999   4.279   1.666   7.071
 1619SOL    HW222000   4.202   1.544   7.022
 1620SOL     OW22001   0.956   5.250   7.215
 1620SOL    HW122002   0.875   5.263   7.266
 1620SOL    HW222003   0.927   5.248   7.124
 1621SOL     OW22004   5.599   0.606   5.272
 1621SOL    HW122005   5.663   0.588   5.204
 1621SOL    HW222006   5.535   0.535   5.264
 1622SOL     OW22007   0.555   4.199   1.019
 1622SOL    HW122008   0.611   4.135   1.062
 1622SOL    HW222009   0.466   4.169   1.039
 1623SOL     OW22010   5.816   4.881   6.663
 1623SOL    HW122011   5.789   4.967   6.693
 1623SOL    HW222012   5.882   4.854   6.727
 1624SOL     OW22013   0.319   5.579   0.329
 1624SOL    HW122014   0.330   5.494   0.287
 1624SOL    HW222015   0.347   5.565   0.419
 1625SOL     OW22016   3.432   3.821   5.740
 1625SOL    HW122017   3.478   3.886   5.792
 1625SOL    HW222018   3.473   3.826   5.654
 1626SOL     OW22019   4.688   6.458   0.746
 1626SOL    HW122020   4.645   0.018   0.816
 1626SOL    HW222021   4.619   6.443   0.681
 1627SOL     OW22022   3.456   4.740   5.869
 1627SOL    HW122023   3.384   4.727   5.807
 1627SOL    HW222024   3.440   4.825   5.908
 1628SOL     OW22025   4.006   0.538   1.428
 1628SOL    HW122026   4.002   0.458   1.375
 1628SOL    HW222027   4.082   0.525   1.485
 1629SOL     OW22028   2.323   4.055   1.849
 1629SOL    HW122029   2.316   4.015   1.936
 1629SOL    HW222030   2.398   4.010   1.808
 1630SOL     OW22031   3.536   5.621   6.904
 1630SOL    HW122032   3.603   5.624   6.971
 1630SOL    HW222033   3.560   5.690   6.842
 1631SOL     OW22034   5.346   5.561   7.454
 1631SOL    HW122035   5.290   5.619   7.403
 1631SOL    HW222036   5.419   5.616   7.482
 1632SOL     OW22037   2.135   2.125   1.874
 1632SOL    HW122038   2.069   2.094   1.937
 1632SOL    HW222039   2.130   2.221   1.880
 1633SOL     OW22040   6.077   0.693   7.333
 1633SOL    HW122041   6.084   0.637   7.255
 1633SOL    HW222042   6.038   0.636   7.399
 1634SOL     OW22043   0.034   2.190   6.857
 1634SOL    HW122044   0.118   2.204   6.812
 1634SOL    HW222045   0.012   2.276   6.892
 1635SOL     OW22046   2.233   1.766   1.343
 1635SOL    HW122047   2.158   1.821   1.366
 1635SOL    HW222048   2.227   1.692   1.404
 1636SOL     OW22049   5.558   5.207   0.156
 1636SOL    HW122050   5.545   5.166   0.071
 1636SOL    HW222051   5.621   5.150   0.201
 1637SOL     OW22052   5.198   2.905   0.754
 1637SOL    HW122053   5.234   2.994   0.760
 1637SOL    HW222054   5.219   2.877   0.665
 1638SOL     OW22055   3.183   1.204   6.771
 1638SOL    HW122056   3.174   1.262   6.847
 1638SOL    HW222057   3.094   1.184   6.745
 1639SOL     OW22058   3.095   4.472   1.909
 1639SOL    HW122059   3.131   4.469   1.820
 1639SOL    HW222060   3.027   4.539   1.905
 1640SOL     OW22061   2.852   4.390   5.693
 1640SOL    HW122062   2.843   4.441   5.774
 1640SOL    HW222063   2.888   4.453   5.630
 1641SOL     OW22064   4.237   6.143   1.013
 1641SOL    HW122065   4.192   6.080   0.958
 1641SOL    HW222066   4.316   6.167   0.964
 1642SOL     OW22067   0.761   2.276   6.054
 1642SOL    HW122068   0.743   2.226   6.134
 1642SOL    HW222069   0.685   2.334   6.045
 1643SOL     OW22070   1.505   1.746   6.976
 1643SOL    HW122071   1.463   1.740   7.062
 1643SOL    HW222072   1.598   1.732   6.995
 1644SOL     OW22073   1.384   2.239   0.513
 1644SOL    HW122074   1.429   2.298   0.452
 1644SOL    HW222075   1.360   2.295   0.586
 1645SOL     OW22076   5.316   0.700   7.510
 1645SOL    HW122077   5.247   0.766   7.521
 1645SOL    HW222078   5.335   0.701   7.417
 1646SOL     OW22079   4.926   1.750   1.712
 1646SOL    HW122080   5.019   1.757   1.691
 1646SOL    HW222081   4.881   1.772   1.630
 1647SOL     OW22082   2.553   4.096   0.528
 1647SOL    HW122083   2.563   4.191   0.526
 1647SOL    HW222084   2.642   4.063   0.537
 1648SOL     OW22085   6.159   5.858   0.919
 1648SOL    HW122086   6.200   5.934   0.877
 1648SOL    HW222087   6.135   5.889   1.006
 1649SOL     OW22088   1.710   5.689   7.702
 1649SOL    HW122089   1.775   5.693   0.011
 1649SOL    HW222090   1.753   5.641   7.632
 1650SOL     OW22091   5.987   3.116   0.513
 1650SOL    HW122092   6.004   3.112   0.607
 1650SOL    HW222093   6.028   3.037   0.477
 1651SOL     OW22094   5.976   4.699   0.873
 1651SOL    HW122095   6.032   4.662   0.805
 1651SOL    HW222096   5.895   4.648   0.868
 1652SOL     OW22097   2.848   1.732   7.392
 1652SOL    HW122098   2.831   1.701   7.481
 1652SOL    HW222099   2.772   1.786   7.370
 1653SOL     OW22100   6.235   6.237   7.096
 1653SOL    HW122101   6.321   6.262   7.061
 1653SOL    HW222102   6.248   6.235   7.191
 1654SOL     OW22103   4.171   5.761   1.977
 1654SOL    HW122104   4.143   5.790   1.890
 1654SOL    HW222105   4.264   5.784   1.981
 1655SOL     OW22106   2.138   5.780   6.297
 1655SOL    HW122107   2.234   5.770   6.297
 1655SOL    HW222108   2.122   5.858   6.244
 1656SOL     OW22109   1.281   3.507   7.592
 1656SOL    HW122110   1.334   3.451   7.648
 1656SOL    HW222111   1.194   3.505   7.631
 1657SOL     OW22112   4.381   1.235   5.578
 1657SOL    HW122113   4.290   1.219   5.553
 1657SOL    HW222114   4.381   1.324   5.612
 1658SOL     OW22115   3.149   6.440   2.022
 1658SOL    HW122116   3.216   6.386   1.980
 1658SOL    HW222117   3.186   6.460   2.108
 1659SOL     OW22118   3.474   5.294   1.353
 1659SOL    HW122119   3.389   5.253   1.337
 1659SOL    HW222120   3.538   5.231   1.318
 1660SOL     OW22121   0.896   1.213   5.688
 1660SOL    HW122122   0.922   1.131   5.729
 1660SOL    HW222123   0.972   1.271   5.699
 1661SOL     OW22124   5.922   1.591   0.128
 1661SOL    HW122125   6.004   1.639   0.118
 1661SOL    HW222126   5.919   1.533   0.052
 1662SOL     OW22127   4.492   5.558   7.214
 1662SOL    HW122128   4.541   5.476   7.223
 1662SOL    HW222129   4.476   5.586   7.303
 1663SOL     OW22130   1.925   4.357   5.838
 1663SOL    HW122131   1.835   4.391   5.833
 1663SOL    HW222132   1.978   4.434   5.859
 1664SOL     OW22133   5.621   5.023   2.081
 1664SOL    HW122134   5.632   5.001   2.174
 1664SOL    HW222135   5.623   4.939   2.036
 1665SOL     OW22136   2.967   4.896   7.160
 1665SOL    HW122137   2.909   4.874   7.232
 1665SOL    HW222138   2.984   4.990   7.170
 1666SOL     OW22139   2.040   2.670   1.441
 1666SOL    HW122140   1.995   2.588   1.423
 1666SOL    HW222141   2.111   2.672   1.377
 1667SOL     OW22142   1.992   0.416   0.514
 1667SOL    HW122143   2.019   0.503   0.545
 1667SOL    HW222144   1.986   0.425   0.419
 1668SOL     OW22145   4.991   5.690   6.372
 1668SOL    HW122146   4.909   5.678   6.323
 1668SOL    HW222147   4.964   5.730   6.454
 1669SOL     OW22148   2.307   2.554   6.629
 1669SOL    HW122149   2.392   2.511   6.637
 1669SOL    HW222150   2.265   2.540   6.714
 1670SOL     OW22151   1.234   1.451   6.078
 1670SOL    HW122152   1.184   1.528   6.053
 1670SOL    HW222153   1.169   1.381   6.088
 1671SOL     OW22154   3.799   3.584   6.764
 1671SOL    HW122155   3.766   3.504   6.806
 1671SOL    HW222156   3.888   3.562   6.736
 1672SOL     OW22157   2.978   6.296   7.355
 1672SOL    HW122158   2.924   6.339   7.421
 1672SOL    HW222159   3.024   6.227   7.403
 1673SOL     OW22160   4.427   6.320   5.946
 1673SOL    HW122161   4.342   6.314   5.989
 1673SOL    HW222162   4.427   6.406   5.905
 1674SOL     OW22163   2.629   3.968   0.875
 1674SOL    HW122164   2.723   3.953   0.870
 1674SOL    HW222165   2.619   4.063   0.875
 1675SOL     OW22166   3.522   2.693   0.210
 1675SOL    HW122167   3.568   2.723   0.131
 1675SOL    HW222168   3.587   2.640   0.257
 1676SOL     OW22169   5.220   6.052   7.417
 1676SOL    HW122170   5.131   6.022   7.433
 1676SOL    HW222171   5.263   5.977   7.375
 1677SOL     OW22172   1.196   3.069   6.533
 1677SOL    HW122173   1.173   2.998   6.593
 1677SOL    HW222174   1.142   3.054   6.456
 1678SOL     OW22175   5.739   0.776   5.878
 1678SOL    HW122176   5.827   0.752   5.849
 1678SOL    HW222177   5.726   0.865   5.844
 1679SOL     OW22178   2.771   4.630   0.453
 1679SOL    HW122179   2.809   4.659   0.536
 1679SOL    HW222180   2.677   4.624   0.471
 1680SOL     OW22181   0.763   0.471   7.711
 1680SOL    HW122182   0.732   0.392   7.757
 1680SOL    HW222183   0.694   0.536   7.727
 1681SOL     OW22184   3.799   1.443   5.566
 1681SOL    HW122185   3.745   1.420   5.642
 1681SOL    HW222186   3.753   1.405   5.491
 1682SOL     OW22187   2.348   5.381   0.139
 1682SOL    HW122188   2.279   5.413   0.197
 1682SOL    HW222189   2.415   5.449   0.142
 1683SOL     OW22190   3.648   3.417   2.645
 1683SOL    HW122191   3.663   3.511   2.637
 1683SOL    HW222192   3.694   3.379   2.570
 1684SOL     OW22193   3.286   6.451   7.289
 1684SOL    HW122194   3.288   6.476   7.381
 1684SOL    HW222195   3.252   6.362   7.289
 1685SOL     OW22196   5.934   1.166   5.429
 1685SOL    HW122197   6.012   1.219   5.414
 1685SOL    HW222198   5.877   1.186   5.354
 1686SOL     OW22199   4.872   4.236   1.112
 1686SOL    HW122200   4.920   4.313   1.141
 1686SOL    HW222201   4.877   4.176   1.186
 1687SOL     OW22202   0.846   1.857   0.022
 1687SOL    HW122203   0.911   1.820   0.082
 1687SOL    HW222204   0.797   1.919   0.076
 1688SOL     OW22205   5.719   2.155   7.746
 1688SOL    HW122206   5.787   2.197   7.694
 1688SOL    HW222207   5.653   2.129   7.683
 1689SOL     OW22208   2.740   5.794   0.424
 1689SOL    HW122209   2.705   5.710   0.455
 1689SOL    HW222210   2.675   5.826   0.362
 1690SOL     OW22211   5.606   5.561   1.659
 1690SOL    HW122212   5.599   5.511   1.740
 1690SOL    HW222213   5.685   5.527   1.617
 1691SOL     OW22214   0.958   0.511   6.430
 1691SOL    HW122215   0.986   0.420   6.431
 1691SOL    HW222216   1.040   0.561   6.422
 1692SOL     OW22217   1.564   4.775   6.248
 1692SOL    HW122218   1.538   4.760   6.156
 1692SOL    HW222219   1.486   4.814   6.288
 1693SOL     OW22220   5.120   1.805   6.910
 1693SOL    HW122221   5.051   1.837   6.851
 1693SOL    HW222222   5.199   1.806   6.857
 1694SOL     OW22223   6.424   2.686   0.779
 1694SOL    HW122224   6.405   2.769   0.822
 1694SOL    HW222225   6.355   2.675   0.715
 1695SOL     OW22226   0.572   0.658   0.011
 1695SOL    HW122227   0.496   0.606   0.038
 1695SOL    HW222228   0.540   0.713   7.701
 1696SOL     OW22229   0.516   5.569   1.455
 1696SOL    HW122230   0.523   5.659   1.423
 1696SOL    HW222231   0.475   5.577   1.541
 1697SOL     OW22232   0.754   2.507   0.140
 1697SOL    HW122233   0.737   2.589   0.185
 1697SOL    HW222234   0.725   2.522   0.050
 1698SOL     OW22235   0.173   6.486   2.328
 1698SOL    HW122236   0.226   6.411   2.354
 1698SOL    HW222237   0.088   6.448   2.304
 1699SOL     OW22238   3.448   2.339   1.696
 1699SOL    HW122239   3.369   2.390   1.713
 1699SOL    HW222240   3.516   2.379   1.750
 1700SOL     OW22241   2.257   1.132   5.921
 1700SOL    HW122242   2.285   1.099   5.836
 1700SOL    HW222243   2.168   1.097   5.932
 1701SOL     OW22244   0.215   1.838   1.153
 1701SOL    HW122245   0.161   1.811   1.227
 1701SOL    HW222246   0.233   1.931   1.169
 1702SOL     OW22247   3.132   2.815   1.117
 1702SOL    HW122248   3.127   2.791   1.210
 1702SOL    HW222249   3.213   2.866   1.111
 1703SOL     OW22250   4.276   0.251   6.298
 1703SOL    HW122251   4.287   0.206   6.215
 1703SOL    HW222252   4.197   0.213   6.336
 1704SOL     OW22253   3.061   0.252   5.249
 1704SOL    HW122254   3.013   0.203   5.316
 1704SOL    HW222255   3.125   0.303   5.298
 1705SOL     OW22256   2.784   1.462   7.226
 1705SOL    HW122257   2.789   1.526   7.297
 1705SOL    HW222258   2.789   1.515   7.146
 1706SOL     OW22259   5.841   1.879   0.443
 1706SOL    HW122260   5.817   1.817   0.512
 1706SOL    HW222261   5.934   1.863   0.427
 1707SOL     OW22262   5.665   0.343   0.688
 1707SOL    HW122263   5.627   0.255   0.681
 1707SOL    HW222264   5.672   0.359   0.782
 1708SOL     OW22265   3.576   1.074   7.744
 1708SOL    HW122266   3.650   1.040   0.034
 1708SOL    HW222267   3.536   1.140   0.039
 1709SOL     OW22268   2.480   2.837   7.559
 1709SOL    HW122269   2.443   2.905   7.615
 1709SOL    HW222270   2.553   2.802   7.610
 1710SOL     OW22271   0.273   2.938   0.700
 1710SOL    HW122272   0.197   2.993   0.714
 1710SOL    HW222273   0.339   2.996   0.662
 1711SOL     OW22274   2.109   1.900   7.539
 1711SOL    HW122275   2.113   1.810   7.570
 1711SOL    HW222276   2.175   1.905   7.470
 1712SOL     OW22277   2.044   2.700   0.606
 1712SOL    HW122278   2.139   2.701   0.608
 1712SOL    HW222279   2.019   2.626   0.661
 1713SOL     OW22280   2.183   0.984   5.675
 1713SOL    HW122281   2.114   1.026   5.625
 1713SOL    HW222282   2.191   0.897   5.637
 1714SOL     OW22283   2.007   5.381   0.807
 1714SOL    HW122284   2.099   5.393   0.786
 1714SOL    HW222285   1.973   5.469   0.821
 1715SOL     OW22286   1.367   5.571   6.199
 1715SOL    HW122287   1.286   5.526   6.222
 1715SOL    HW222288   1.369   5.571   6.104
 1716SOL     OW22289   2.863   3.763   0.231
 1716SOL    HW122290   2.795   3.821   0.265
 1716SOL    HW222291   2.832   3.739   0.143
 1717SOL     OW22292   3.725   4.881   1.596
 1717SOL    HW122293   3.767   4.957   1.636
 1717SOL    HW222294   3.670   4.845   1.666
 1718SOL     OW22295   1.049   5.077   0.281
 1718SOL    HW122296   1.016   5.162   0.254
 1718SOL    HW222297   1.113   5.097   0.349
 1719SOL     OW22298   0.229   2.108   1.193
 1719SOL    HW122299   0.189   2.180   1.241
 1719SOL    HW222300   0.307   2.146   1.153
 1720SOL     OW22301   4.475   5.328   6.166
 1720SOL    HW122302   4.399   5.301   6.216
 1720SOL    HW222303   4.526   5.248   6.154
 1721SOL     OW22304   1.351   3.673   6.739
 1721SOL    HW122305   1.273   3.667   6.796
 1721SOL    HW222306   1.318   3.713   6.659
 1722SOL     OW22307   1.972   4.473   7.746
 1722SOL    HW122308   1.877   4.478   7.745
 1722SOL    HW222309   1.992   4.382   7.725
 1723SOL     OW22310   1.599   0.275   7.547
 1723SOL    HW122311   1.596   0.181   7.528
 1723SOL    HW222312   1.524   0.311   7.498
 1724SOL     OW22313   0.384   2.691   6.386
 1724SOL    HW122314   0.325   2.763   6.407
 1724SOL    HW222315   0.410   2.656   6.472
 1725SOL     OW22316   4.764   6.176   0.736
 1725SOL    HW122317   4.753   6.270   0.747
 1725SOL    HW222318   4.831   6.168   0.668
 1726SOL     OW22319   4.400   2.102   7.398
 1726SOL    HW122320   4.364   2.016   7.378
 1726SOL    HW222321   4.420   2.099   7.492
 1727SOL     OW22322   5.015   0.068   7.395
 1727SOL    HW122323   5.074   6.482   7.386
 1727SOL    HW222324   5.074   0.144   7.403
 1728SOL     OW22325   5.792   4.052   2.361
 1728SOL    HW122326   5.796   4.145   2.384
 1728SOL    HW222327   5.734   4.049   2.285
 1729SOL     OW22328   6.451   0.281   1.317
 1729SOL    HW122329   6.463   0.339   1.392
 1729SOL    HW222330   6.400   0.207   1.352
 1730SOL     OW22331   5.363   1.825   6.737
 1730SOL    HW122332   5.356   1.920   6.735
 1730SOL    HW222333   5.320   1.796   6.657
 1731SOL     OW22334   4.390   5.007   6.086
 1731SOL    HW122335   4.353   4.962   6.009
 1731SOL    HW222336   4.479   5.029   6.060
 1732SOL     OW22337   3.056   6.028   2.321
 1732SOL    HW122338   2.987   5.962   2.315
 1732SOL    HW222339   3.018   6.107   2.283
 1733SOL     OW22340   0.146   1.491   1.111
 1733SOL    HW122341   0.065   1.473   1.063
 1733SOL    HW222342   0.205   1.529   1.045
 1734SOL     OW22343   3.381   5.242   0.574
 1734SOL    HW122344   3.380   5.331   0.538
 1734SOL    HW222345   3.375   5.185   0.496
 1735SOL     OW22346   0.362   6.165   6.677
 1735SOL    HW122347   0.418   6.130   6.746
 1735SOL    HW222348   0.327   6.088   6.632
 1736SOL     OW22349   4.628   3.134   7.700
 1736SOL    HW122350   4.679   3.110   0.016
 1736SOL    HW222351   4.621   3.052   7.650
 1737SOL     OW22352   1.386   0.912   1.081
 1737SOL    HW122353   1.371   0.860   1.002
 1737SOL    HW222354   1.299   0.936   1.112
 1738SOL     OW22355   4.461   3.165   0.698
 1738SOL    HW122356   4.390   3.128   0.751
 1738SOL    HW222357   4.417   3.197   0.619
 1739SOL     OW22358   0.533   3.932   6.676
 1739SOL    HW122359   0.600   3.939   6.744
 1739SOL    HW222360   0.451   3.951   6.721
 1740SOL     OW22361   3.680   5.767   0.614
 1740SOL    HW122362   3.771   5.788   0.631
 1740SOL    HW222363   3.683   5.696   0.550
 1741SOL     OW22364   5.392   1.708   1.123
 1741SOL    HW122365   5.467   1.651   1.142
 1741SOL    HW222366   5.387   1.710   1.028
 1742SOL     OW22367   3.024   5.117   6.265
 1742SOL    HW122368   3.048   5.136   6.356
 1742SOL    HW222369   2.965   5.188   6.240
 1743SOL     OW22370   4.831   3.549   1.538
 1743SOL    HW122371   4.876   3.592   1.610
 1743SOL    HW222372   4.845   3.606   1.463
 1744SOL     OW22373   4.375   3.789   7.312
 1744SOL    HW122374   4.437   3.734   7.360
 1744SOL    HW222375   4.293   3.778   7.360
 1745SOL     OW22376   5.537   0.925   6.411
 1745SOL    HW122377   5.462   0.866   6.417
 1745SOL    HW222378   5.505   0.999   6.360
 1746SOL     OW22379   1.348   4.543   7.557
 1746SOL    HW122380   1.304   4.467   7.596
 1746SOL    HW222381   1.437   4.540   7.592
 1747SOL     OW22382   2.530   1.836   6.912
 1747SOL    HW122383   2.588   1.899   6.871
 1747SOL    HW222384   2.489   1.791   6.838
 1748SOL     OW22385   0.963   4.569   6.772
 1748SOL    HW122386   0.880   4.606   6.743
 1748SOL    HW222387   1.030   4.623   6.730
 1749SOL     OW22388   0.384   1.386   0.861
 1749SOL    HW122389   0.383   1.470   0.907
 1749SOL    HW222390   0.314   1.393   0.797
 1750SOL     OW22391   5.521   3.343   7.024
 1750SOL    HW122392   5.454   3.389   7.075
 1750SOL    HW222393   5.471   3.294   6.958
 1751SOL     OW22394   2.341   3.946   7.425
 1751SOL    HW122395   2.358   3.861   7.465
 1751SOL    HW222396   2.254   3.938   7.386
 1752SOL     OW22397   5.603   1.446   0.792
 1752SOL    HW122398   5.609   1.541   0.794
 1752SOL    HW222399   5.561   1.426   0.709
 1753SOL     OW22400   3.120   4.557   5.925
 1753SOL    HW122401   3.030   4.581   5.902
 1753SOL    HW222402   3.161   4.639   5.951
 1754SOL     OW22403   0.609   3.903   7.574
 1754SOL    HW122404   0.546   3.965   7.612
 1754SOL    HW222405   0.568   3.818   7.586
 1755SOL     OW22406   4.537   4.315   0.796
 1755SOL    HW122407   4.601   4.386   0.794
 1755SOL    HW222408   4.585   4.238   0.764
 1756SOL     OW22409   3.961   3.096   0.035
 1756SOL    HW122410   4.040   3.119   7.748
 1756SOL    HW222411   3.911   3.177   0.039
 1757SOL     OW22412   5.799   6.330   1.796
 1757SOL    HW122413   5.825   6.251   1.749
 1757SOL    HW222414   5.729   6.302   1.854
 1758SOL     OW22415   3.358   2.997   1.086
 1758SOL    HW122416   3.350   3.035   0.999
 1758SOL    HW222417   3.452   2.997   1.104
 1759SOL     OW22418   4.776   0.240   0.369
 1759SOL    HW122419   4.815   0.313   0.321
 1759SOL    HW222420   4.719   0.282   0.434
 1760SOL     OW22421   6.364   0.041   6.882
 1760SOL    HW122422   6.415   6.479   6.944
 1760SOL    HW222423   6.342   6.467   6.813
 1761SOL     OW22424   2.484   2.796   0.804
 1761SOL    HW122425   2.438   2.862   0.856
 1761SOL    HW222426   2.576   2.809   0.824
 1762SOL     OW22427   4.619   2.850   1.155
 1762SOL    HW122428   4.611   2.755   1.159
 1762SOL    HW222429   4.709   2.867   1.184
 1763SOL     OW22430   2.210   3.907   1.228
 1763SOL    HW122431   2.137   3.884   1.286
 1763SOL    HW222432   2.254   3.824   1.210
 1764SOL     OW22433   0.239   4.872   0.600
 1764SOL    HW122434   0.214   4.863   0.508
 1764SOL    HW222435   0.248   4.966   0.614
 1765SOL     OW22436   1.736   5.064   6.254
 1765SOL    HW122437   1.791   4.996   6.294
 1765SOL    HW222438   1.673   5.087   6.323
 1766SOL     OW22439   4.618   0.353   7.109
 1766SOL    HW122440   4.603   0.277   7.053
 1766SOL    HW222441   4.709   0.345   7.137
 1767SOL     OW22442   3.150   5.438   0.102
 1767SOL    HW122443   3.153   5.532   0.121
 1767SOL    HW222444   3.152   5.433   0.006
 1768SOL     OW22445   5.118   2.863   1.160
 1768SOL    HW122446   5.033   2.845   1.200
 1768SOL    HW222447   5.097   2.883   1.069
 1769SOL     OW22448   1.145   5.431   6.212
 1769SOL    HW122449   1.097   5.418   6.130
 1769SOL    HW222450   1.094   5.383   6.277
 1770SOL     OW22451   0.900   3.855   0.633
 1770SOL    HW122452   0.894   3.918   0.705
 1770SOL    HW222453   0.830   3.882   0.573
 1771SOL     OW22454   6.361   0.192   7.332
 1771SOL    HW122455   6.333   0.274   7.373
 1771SOL    HW222456   6.387   0.217   7.243
 1772SOL     OW22457   5.957   1.317   0.475
 1772SOL    HW122458   5.864   1.338   0.474
 1772SOL    HW222459   5.961   1.222   0.472
 1773SOL     OW22460   5.378   3.912   6.927
 1773SOL    HW122461   5.366   3.818   6.913
 1773SOL    HW222462   5.325   3.932   7.004
 1774SOL     OW22463   1.607   4.781   7.044
 1774SOL    HW122464   1.609   4.837   7.122
 1774SOL    HW222465   1.655   4.703   7.069
 1775SOL     OW22466   4.139   2.788   1.756
 1775SOL    HW122467   4.199   2.795   1.830
 1775SOL    HW222468   4.163   2.860   1.698
 1776SOL     OW22469   4.042   2.805   0.107
 1776SOL    HW122470   3.960   2.850   0.088
 1776SOL    HW222471   4.105   2.845   0.048
 1777SOL     OW22472   2.403   5.803   6.812
 1777SOL    HW122473   2.400   5.878   6.871
 1777SOL    HW222474   2.492   5.804   6.777
 1778SOL     OW22475   5.940   2.767   0.866
 1778SOL    HW122476   5.900   2.700   0.810
 1778SOL    HW222477   5.872   2.832   0.878
 1779SOL     OW22478   5.981   0.037   1.063
 1779SOL    HW122479   5.910   0.080   1.015
 1779SOL    HW222480   5.984   6.437   1.027
 1780SOL     OW22481   6.077   0.264   7.617
 1780SOL    HW122482   6.008   0.304   7.670
 1780SOL    HW222483   6.049   0.277   7.526
 1781SOL     OW22484   3.097   5.077   6.931
 1781SOL    HW122485   3.167   5.098   6.869
 1781SOL    HW222486   3.020   5.059   6.876
 1782SOL     OW22487   2.293   0.836   0.686
 1782SOL    HW122488   2.330   0.814   0.772
 1782SOL    HW222489   2.283   0.931   0.688
 1783SOL     OW22490   5.431   3.545   5.933
 1783SOL    HW122491   5.408   3.556   6.025
 1783SOL    HW222492   5.401   3.626   5.891
 1784SOL     OW22493   1.885   2.432   6.615
 1784SOL    HW122494   1.929   2.348   6.620
 1784SOL    HW222495   1.843   2.432   6.528
 1785SOL     OW22496   1.273   4.381   0.789
 1785SOL    HW122497   1.317   4.456   0.828
 1785SOL    HW222498   1.217   4.346   0.858
 1786SOL     OW22499   2.416   5.200   0.688
 1786SOL    HW122500   2.496   5.153   0.663
 1786SOL    HW222501   2.409   5.187   0.782
 1787SOL     OW22502   2.856   3.594   5.783
 1787SOL    HW122503   2.859   3.651   5.707
 1787SOL    HW222504   2.915   3.522   5.761
 1788SOL     OW22505   0.797   3.779   6.348
 1788SOL    HW122506   0.859   3.763   6.277
 1788SOL    HW222507   0.769   3.869   6.335
 1789SOL     OW22508   0.586   5.321   7.752
 1789SOL    HW122509   0.650   5.255   0.018
 1789SOL    HW222510   0.636   5.402   7.747
 1790SOL     OW22511   2.897   4.706   5.902
 1790SOL    HW122512   2.913   4.754   5.983
 1790SOL    HW222513   2.846   4.766   5.848
 1791SOL     OW22514   0.064   5.525   6.264
 1791SOL    HW122515   0.115   5.529   6.344
 1791SOL    HW222516   6.476   5.472   6.287
 1792SOL     OW22517   1.311   0.501   7.051
 1792SOL    HW122518   1.386   0.503   6.991
 1792SOL    HW222519   1.326   0.574   7.110
 1793SOL     OW22520   4.605   6.432   7.066
 1793SOL    HW122521   4.688   6.461   7.105
 1793SOL    HW222522   4.537   6.466   7.124
 1794SOL     OW22523   2.135   4.983   0.617
 1794SOL    HW122524   2.071   4.992   0.547
 1794SOL    HW222525   2.145   5.072   0.652
 1795SOL     OW22526   6.104   3.760   0.396
 1795SOL    HW122527   6.068   3.756   0.484
 1795SOL    HW222528   6.194   3.728   0.406
 1796SOL     OW22529   0.124   3.722   6.675
 1796SOL    HW122530   0.096   3.722   6.583
 1796SOL    HW222531   0.044   3.708   6.725
 1797SOL     OW22532   5.514   4.759   1.359
 1797SOL    HW122533   5.420   4.749   1.375
 1797SOL    HW222534   5.521   4.778   1.266
 1798SOL     OW22535   4.061   4.923   6.884
 1798SOL    HW122536   4.104   4.838   6.888
 1798SOL    HW222537   4.090   4.970   6.962
 1799SOL     OW22538   0.559   5.101   0.170
 1799SOL    HW122539   0.583   5.011   0.191
 1799SOL    HW222540   0.618   5.126   0.100
 1800SOL     OW22541   0.247   0.590   5.196
 1800SOL    HW122542   0.199   0.509   5.213
 1800SOL    HW222543   0.319   0.588   5.260
 1801SOL     OW22544   3.961   6.257   7.243
 1801SOL    HW122545   4.038   6.207   7.270
 1801SOL    HW222546   3.899   6.191   7.212
 1802SOL     OW22547   5.605   3.790   6.699
 1802SOL    HW122548   5.699   3.770   6.703
 1802SOL    HW222549   5.571   3.761   6.783
 1803SOL     OW22550   4.999   4.662   6.998
 1803SOL    HW122551   4.996   4.694   7.088
 1803SOL    HW222552   4.934   4.716   6.952
 1804SOL     OW22553   0.829   2.979   0.420
 1804SOL    HW122554   0.900   2.919   0.443
 1804SOL    HW222555   0.872   3.064   0.412
 1805SOL     OW22556   6.436   0.309   0.722
 1805SOL    HW122557   6.450   0.226   0.767
 1805SOL    HW222558   6.364   0.350   0.770
 1806SOL     OW22559   5.712   3.372   7.613
 1806SOL    HW122560   5.721   3.290   7.563
 1806SOL    HW222561   5.622   3.372   7.644
 1807SOL     OW22562   3.584   2.162   5.820
 1807SOL    HW122563   3.677   2.149   5.836
 1807SOL    HW222564   3.543   2.079   5.845
 1808SOL     OW22565   4.620   5.812   0.857
 1808SOL    HW122566   4.642   5.804   0.764
 1808SOL    HW222567   4.684   5.875   0.890
 1809SOL     OW22568   0.598   1.303   0.144
 1809SOL    HW122569   0.660   1.238   0.178
 1809SOL    HW222570   0.512   1.268   0.169
 1810SOL     OW22571   4.893   4.659   5.747
 1810SOL    HW122572   4.911   4.636   5.656
 1810SOL    HW222573   4.880   4.575   5.791
 1811SOL     OW22574   3.429   3.891   6.513
 1811SOL    HW122575   3.513   3.932   6.490
 1811SOL    HW222576   3.412   3.829   6.443
 1812SOL     OW22577   3.974   5.892   0.579
 1812SOL    HW122578   4.035   5.962   0.602
 1812SOL    HW222579   4.010   5.853   0.500
 1813SOL     OW22580   6.109   2.150   7.677
 1813SOL    HW122581   6.080   2.185   7.761
 1813SOL    HW222582   6.044   2.084   7.654
 1814SOL     OW22583   5.815   3.646   6.363
 1814SOL    HW122584   5.831   3.722   6.306
 1814SOL    HW222585   5.868   3.576   6.324
 1815SOL     OW22586   2.001   3.912   0.420
 1815SOL    HW122587   2.043   3.885   0.339
 1815SOL    HW222588   2.026   3.845   0.483
 1816SOL     OW22589   1.796   2.043   1.365
 1816SOL    HW122590   1.870   2.052   1.304
 1816SOL    HW222591   1.816   1.963   1.415
 1817SOL     OW22592   1.582   5.163   5.688
 1817SOL    HW122593   1.651   5.229   5.676
 1817SOL    HW222594   1.519   5.205   5.746
 1818SOL     OW22595   0.210   2.577   6.871
 1818SOL    HW122596   0.229   2.561   6.963
 1818SOL    HW222597   0.114   2.569   6.865
 1819SOL     OW22598   5.661   0.992   6.086
 1819SOL    HW122599   5.720   1.066   6.070
 1819SOL    HW222600   5.594   0.999   6.017
 1820SOL     OW22601   1.799   1.363   7.149
 1820SOL    HW122602   1.771   1.299   7.083
 1820SOL    HW222603   1.890   1.381   7.128
 1821SOL     OW22604   2.505   3.721   7.254
 1821SOL    HW122605   2.412   3.702   7.244
 1821SOL    HW222606   2.530   3.763   7.171
 1822SOL     OW22607   4.289   4.049   5.129
 1822SOL    HW122608   4.224   4.093   5.075
 1822SOL    HW222609   4.239   3.984   5.178
 1823SOL     OW22610   3.797   0.048   6.107
 1823SOL    HW122611   3.858   0.113   6.071
 1823SOL    HW222612   3.752   0.013   6.030
 1824SOL     OW22613   3.402   5.104   0.328
 1824SOL    HW122614   3.449   5.020   0.326
 1824SOL    HW222615   3.456   5.163   0.276
 1825SOL     OW22616   6.194   0.933   6.524
 1825SOL    HW122617   6.125   0.874   6.554
 1825SOL    HW222618   6.235   0.886   6.451
 1826SOL     OW22619   0.741   3.930   0.425
 1826SOL    HW122620   0.816   3.985   0.401
 1826SOL    HW222621   0.674   3.952   0.361
 1827SOL     OW22622   5.410   3.264   7.564
 1827SOL    HW122623   5.335   3.211   7.539
 1827SOL    HW222624   5.371   3.341   7.606
 1828SOL     OW22625   1.294   6.065   7.414
 1828SOL    HW122626   1.206   6.077   7.379
 1828SOL    HW222627   1.283   6.071   7.509
 1829SOL     OW22628   3.512   1.578   5.382
 1829SOL    HW122629   3.541   1.616   5.464
 1829SOL    HW222630   3.480   1.491   5.406
 1830SOL     OW22631   0.053   1.936   0.187
 1830SOL    HW122632   0.016   2.012   0.141
 1830SOL    HW222633   0.138   1.922   0.145
 1831SOL     OW22634   3.202   1.514   1.091
 1831SOL    HW122635   3.195   1.440   1.032
 1831SOL    HW222636   3.152   1.584   1.048
 1832SOL     OW22637   3.603   5.148   1.095
 1832SOL    HW122638   3.694   5.143   1.064
 1832SOL    HW222639   3.573   5.234   1.066
 1833SOL     OW22640   1.060   2.615   1.020
 1833SOL    HW122641   1.116   2.564   1.079
 1833SOL    HW222642   1.007   2.668   1.079
 1834SOL     OW22643   1.799   2.905   6.411
 1834SOL    HW122644   1.874   2.954   6.443
 1834SOL    HW222645   1.831   2.861   6.332
 1835SOL     OW22646   3.495   0.265   5.929
 1835SOL    HW122647   3.523   0.346   5.886
 1835SOL    HW222648   3.531   0.195   5.875
 1836SOL     OW22649   0.473   5.028   0.484
 1836SOL    HW122650   0.486   4.977   0.404
 1836SOL    HW222651   0.380   5.053   0.481
 1837SOL     OW22652   0.680   3.344   7.313
 1837SOL    HW122653   0.665   3.412   7.248
 1837SOL    HW222654   0.675   3.262   7.263
 1838SOL     OW22655   2.485   3.402   0.901
 1838SOL    HW122656   2.464   3.451   0.981
 1838SOL    HW222657   2.512   3.469   0.839
 1839SOL     OW22658   5.208   1.189   7.250
 1839SOL    HW122659   5.146   1.121   7.278
 1839SOL    HW222660   5.293   1.159   7.282
 1840SOL     OW22661   4.551   3.673   1.327
 1840SOL    HW122662   4.628   3.695   1.274
 1840SOL    HW222663   4.516   3.758   1.353
 1841SOL     OW22664   6.076   0.645   6.025
 1841SOL    HW122665   6.099   0.586   6.098
 1841SOL    HW222666   6.032   0.719   6.067
 1842SOL     OW22667   1.844   5.290   1.876
 1842SOL    HW122668   1.771   5.250   1.925
 1842SOL    HW222669   1.918   5.232   1.894
 1843SOL     OW22670   4.237   0.869   1.432
 1843SOL    HW122671   4.186   0.832   1.504
 1843SOL    HW222672   4.274   0.950   1.468
 1844SOL     OW22673   0.162   2.433   0.884
 1844SOL    HW122674   0.182   2.482   0.805
 1844SOL    HW222675   0.204   2.483   0.954
 1845SOL     OW22676   4.496   5.419   1.211
 1845SOL    HW122677   4.520   5.358   1.281
 1845SOL    HW222678   4.469   5.363   1.138
 1846SOL     OW22679   4.324   1.604   2.147
 1846SOL    HW122680   4.413   1.576   2.124
 1846SOL    HW222681   4.327   1.700   2.140
 1847SOL     OW22682   1.200   3.592   1.165
 1847SOL    HW122683   1.175   3.593   1.072
 1847SOL    HW222684   1.247   3.509   1.176
 1848SOL     OW22685   4.307   3.509   0.975
 1848SOL    HW122686   4.280   3.550   0.893
 1848SOL    HW222687   4.377   3.449   0.950
 1849SOL     OW22688   5.563   6.135   6.075
 1849SOL    HW122689   5.590   6.133   5.984
 1849SOL    HW222690   5.595   6.219   6.108
 1850SOL     OW22691   3.282   6.277   6.616
 1850SOL    HW122692   3.274   6.201   6.559
 1850SOL    HW222693   3.195   6.316   6.618
 1851SOL     OW22694   0.990   6.301   6.026
 1851SOL    HW122695   0.961   6.389   6.003
 1851SOL    HW222696   0.945   6.244   5.963
 1852SOL     OW22697   0.737   5.215   0.384
 1852SOL    HW122698   0.772   5.291   0.337
 1852SOL    HW222699   0.670   5.179   0.326
 1853SOL     OW22700   4.711   4.617   6.443
 1853SOL    HW122701   4.785   4.653   6.394
 1853SOL    HW222702   4.641   4.611   6.378
 1854SOL     OW22703   2.422   3.689   1.971
 1854SOL    HW122704   2.468   3.752   2.027
 1854SOL    HW222705   2.469   3.607   1.984
 1855SOL     OW22706   5.613   5.763   0.588
 1855SOL    HW122707   5.684   5.733   0.531
 1855SOL    HW222708   5.657   5.784   0.671
 1856SOL     OW22709   0.388   4.424   1.318
 1856SOL    HW122710   0.483   4.432   1.327
 1856SOL    HW222711   0.376   4.360   1.247
 1857SOL     OW22712   4.729   4.683   1.656
 1857SOL    HW122713   4.791   4.615   1.631
 1857SOL    HW222714   4.768   4.764   1.625
 1858SOL     OW22715   5.183   2.093   0.130
 1858SOL    HW122716   5.090   2.096   0.108
 1858SOL    HW222717   5.213   2.183   0.119
 1859SOL     OW22718   1.784   0.713   6.200
 1859SOL    HW122719   1.765   0.746   6.112
 1859SOL    HW222720   1.697   0.703   6.241
 1860SOL     OW22721   0.738   4.634   1.008
 1860SOL    HW122722   0.715   4.697   0.940
 1860SOL    HW222723   0.828   4.657   1.033
 1861SOL     OW22724   1.531   1.487   1.799
 1861SOL    HW122725   1.457   1.548   1.802
 1861SOL    HW222726   1.514   1.427   1.872
 1862SOL     OW22727   0.785   6.327   5.648
 1862SOL    HW122728   0.852   6.328   5.580
 1862SOL    HW222729   0.765   6.420   5.663
 1863SOL     OW22730   3.844   2.266   7.008
 1863SOL    HW122731   3.923   2.236   6.963
 1863SOL    HW222732   3.854   2.234   7.098
 1864SOL     OW22733   2.177   1.440   0.040
 1864SOL    HW122734   2.099   1.456   0.093
 1864SOL    HW222735   2.144   1.440   7.711
 1865SOL     OW22736   1.522   3.108   0.484
 1865SOL    HW122737   1.452   3.045   0.503
 1865SOL    HW222738   1.493   3.153   0.405
 1866SOL     OW22739   4.114   1.914   2.310
 1866SOL    HW122740   4.158   1.959   2.382
 1866SOL    HW222741   4.185   1.882   2.254
 1867SOL     OW22742   2.146   1.227   1.831
 1867SOL    HW122743   2.226   1.269   1.863
 1867SOL    HW222744   2.140   1.146   1.882
 1868SOL     OW22745   6.002   5.568   6.541
 1868SOL    HW122746   6.005   5.473   6.547
 1868SOL    HW222747   6.093   5.596   6.555
 1869SOL     OW22748   5.902   4.886   1.270
 1869SOL    HW122749   5.846   4.905   1.345
 1869SOL    HW222750   5.858   4.815   1.223
 1870SOL     OW22751   5.813   3.470   6.585
 1870SOL    HW122752   5.879   3.403   6.569
 1870SOL    HW222753   5.825   3.534   6.515
 1871SOL     OW22754   2.396   4.663   5.925
 1871SOL    HW122755   2.490   4.676   5.931
 1871SOL    HW222756   2.360   4.749   5.905
 1872SOL     OW22757   0.035   0.251   7.554
 1872SOL    HW122758   0.046   0.217   7.465
 1872SOL    HW222759   0.076   0.337   7.552
 1873SOL     OW22760   2.012   4.460   6.907
 1873SOL    HW122761   1.989   4.534   6.963
 1873SOL    HW222762   2.023   4.498   6.820
 1874SOL     OW22763   0.886   1.749   0.973
 1874SOL    HW122764   0.807   1.735   0.922
 1874SOL    HW222765   0.855   1.784   1.057
 1875SOL     OW22766   5.636   1.959   0.136
 1875SOL    HW122767   5.715   1.919   0.171
 1875SOL    HW222768   5.666   2.037   0.091
 1876SOL     OW22769   4.590   1.655   0.733
 1876SOL    HW122770   4.555   1.742   0.750
 1876SOL    HW222771   4.517   1.606   0.695
 1877SOL     OW22772   1.700   3.213   1.138
 1877SOL    HW122773   1.762   3.243   1.071
 1877SOL    HW222774   1.663   3.293   1.174
 1878SOL     OW22775   3.847   4.109   0.840
 1878SOL    HW122776   3.877   4.058   0.915
 1878SOL    HW222777   3.883   4.063   0.764
 1879SOL     OW22778   4.445   1.771   1.292
 1879SOL    HW122779   4.462   1.680   1.267
 1879SOL    HW222780   4.352   1.784   1.271
 1880SOL     OW22781   4.094   2.575   0.233
 1880SOL    HW122782   4.189   2.565   0.224
 1880SOL    HW222783   4.072   2.647   0.174
 1881SOL     OW22784   1.791   0.425   6.180
 1881SOL    HW122785   1.881   0.428   6.214
 1881SOL    HW222786   1.767   0.517   6.167
 1882SOL     OW22787   2.646   0.438   6.825
 1882SOL    HW122788   2.729   0.483   6.845
 1882SOL    HW222789   2.671   0.371   6.761
 1883SOL     OW22790   3.713   2.970   0.087
 1883SOL    HW122791   3.716   2.989   0.181
 1883SOL    HW222792   3.782   3.023   0.049
 1884SOL     OW22793   2.280   4.857   0.075
 1884SOL    HW122794   2.247   4.768   0.064
 1884SOL    HW222795   2.357   4.861   0.019
 1885SOL     OW22796   0.233   4.190   7.059
 1885SOL    HW122797   0.150   4.203   7.105
 1885SOL    HW222798   0.260   4.278   7.033
 1886SOL     OW22799   0.910   0.453   1.094
 1886SOL    HW122800   0.902   0.536   1.140
 1886SOL    HW222801   0.836   0.401   1.125
 1887SOL     OW22802   5.104   5.034   7.228
 1887SOL    HW122803   5.122   5.023   7.321
 1887SOL    HW222804   5.188   5.061   7.190
 1888SOL     OW22805   3.667   3.843   0.748
 1888SOL    HW122806   3.719   3.875   0.674
 1888SOL    HW222807   3.577   3.865   0.725
 1889SOL     OW22808   2.606   4.904   5.796
 1889SOL    HW122809   2.542   4.937   5.732
 1889SOL    HW222810   2.673   4.972   5.800
 1890SOL     OW22811   3.019   2.994   1.444
 1890SOL    HW122812   3.075   2.991   1.522
 1890SOL    HW222813   2.934   2.963   1.476
 1891SOL     OW22814   2.893   6.021   0.110
 1891SOL    HW122815   2.964   6.036   0.172
 1891SOL    HW222816   2.936   5.982   0.033
 1892SOL     OW22817   5.204   1.462   1.864
 1892SOL    HW122818   5.181   1.479   1.955
 1892SOL    HW222819   5.229   1.547   1.829
 1893SOL     OW22820   2.337   2.452   6.966
 1893SOL    HW122821   2.431   2.452   6.948
 1893SOL    HW222822   2.329   2.497   7.050
 1894SOL     OW22823   5.503   0.115   0.620
 1894SOL    HW122824   5.457   0.060   0.683
 1894SOL    HW222825   5.485   0.075   0.535
 1895SOL     OW22826   1.597   5.751   1.153
 1895SOL    HW122827   1.635   5.809   1.086
 1895SOL    HW222828   1.560   5.810   1.218
 1896SOL     OW22829   1.215   0.843   0.318
 1896SOL    HW122830   1.214   0.936   0.338
 1896SOL    HW222831   1.292   0.831   0.263
 1897SOL     OW22832   1.976   5.862   0.501
 1897SOL    HW122833   1.947   5.943   0.457
 1897SOL    HW222834   1.983   5.886   0.593
 1898SOL     OW22835   3.621   2.350   1.145
 1898SOL    HW122836   3.551   2.411   1.120
 1898SOL    HW222837   3.578   2.288   1.205
 1899SOL     OW22838   1.923   6.306   0.158
 1899SOL    HW122839   1.870   6.236   0.120
 1899SOL    HW222840   1.885   6.386   0.122
 1900SOL     OW22841   2.905   4.430   1.452
 1900SOL    HW122842   2.947   4.470   1.376
 1900SOL    HW222843   2.950   4.346   1.462
 1901SOL     OW22844   1.309   1.538   6.343
 1901SOL    HW122845   1.400   1.526   6.316
 1901SOL    HW222846   1.258   1.493   6.276
 1902SOL     OW22847   4.638   2.437   2.434
 1902SOL    HW122848   4.596   2.509   2.481
 1902SOL    HW222849   4.593   2.433   2.350
 1903SOL     OW22850   2.282   1.762   7.343
 1903SOL    HW122851   2.244   1.682   7.309
 1903SOL    HW222852   2.288   1.821   7.267
 1904SOL     OW22853   1.410   4.742   1.350
 1904SOL    HW122854   1.465   4.736   1.428
 1904SOL    HW222855   1.442   4.673   1.292
 1905SOL     OW22856   4.730   0.299   0.780
 1905SOL    HW122857   4.690   0.323   0.697
 1905SOL    HW222858   4.795   0.367   0.797
 1906SOL     OW22859   3.049   4.505   5.218
 1906SOL    HW122860   3.039   4.573   5.151
 1906SOL    HW222861   3.108   4.543   5.283
 1907SOL     OW22862   1.758   2.487   1.657
 1907SOL    HW122863   1.802   2.472   1.740
 1907SOL    HW222864   1.770   2.406   1.608
 1908SOL     OW22865   4.034   1.232   0.926
 1908SOL    HW122866   3.947   1.257   0.958
 1908SOL    HW222867   4.065   1.309   0.878
 1909SOL     OW22868   0.483   5.944   6.856
 1909SOL    HW122869   0.508   5.864   6.810
 1909SOL    HW222870   0.427   5.914   6.928
 1910SOL     OW22871   4.938   5.848   7.148
 1910SOL    HW122872   4.971   5.837   7.237
 1910SOL    HW222873   4.947   5.941   7.130
 1911SOL     OW22874   5.221   0.481   5.879
 1911SOL    HW122875   5.240   0.414   5.813
 1911SOL    HW222876   5.132   0.460   5.908
 1912SOL     OW22877   1.025   0.141   5.620
 1912SOL    HW122878   0.939   0.105   5.639
 1912SOL    HW222879   1.038   0.123   5.526
 1913SOL     OW22880   0.907   3.074   1.824
 1913SOL    HW122881   0.926   3.157   1.868
 1913SOL    HW222882   0.827   3.042   1.866
 1914SOL     OW22883   4.699   4.948   1.394
 1914SOL    HW122884   4.767   4.894   1.434
 1914SOL    HW222885   4.683   5.017   1.459
 1915SOL     OW22886   2.601   3.817   0.408
 1915SOL    HW122887   2.557   3.733   0.403
 1915SOL    HW222888   2.579   3.851   0.495
 1916SOL     OW22889   0.668   0.385   7.410
 1916SOL    HW122890   0.753   0.345   7.425
 1916SOL    HW222891   0.606   0.325   7.451
 1917SOL     OW22892   1.689   2.792   6.621
 1917SOL    HW122893   1.694   2.865   6.559
 1917SOL    HW222894   1.777   2.787   6.659
 1918SOL     OW22895   1.633   1.314   7.346
 1918SOL    HW122896   1.700   1.329   7.280
 1918SOL    HW222897   1.580   1.242   7.311
 1919SOL     OW22898   3.313   2.591   5.657
 1919SOL    HW122899   3.337   2.505   5.692
 1919SOL    HW222900   3.220   2.601   5.677
 1920SOL     OW22901   6.314   1.464   5.533
 1920SOL    HW122902   6.355   1.541   5.572
 1920SOL    HW222903   6.387   1.416   5.492
 1921SOL     OW22904   2.211   2.695   1.236
 1921SOL    HW122905   2.162   2.655   1.165
 1921SOL    HW222906   2.285   2.636   1.251
 1922SOL     OW22907   4.396   0.379   1.823
 1922SOL    HW122908   4.478   0.398   1.777
 1922SOL    HW222909   4.381   0.455   1.878
 1923SOL     OW22910   2.017   4.627   7.525
 1923SOL    HW122911   2.016   4.604   7.618
 1923SOL    HW222912   2.032   4.544   7.480
 1924SOL     OW22913   4.887   5.432   1.144
 1924SOL    HW122914   4.874   5.416   1.237
 1924SOL    HW222915   4.982   5.436   1.133
 1925SOL     OW22916   2.493   4.985   7.104
 1925SOL    HW122917   2.507   4.986   7.009
 1925SOL    HW222918   2.400   5.004   7.115
 1926SOL     OW22919   6.377   3.036   0.050
 1926SOL    HW122920   6.406   3.126   0.033
 1926SOL    HW222921   6.406   3.018   0.139
 1927SOL     OW22922   3.763   4.884   0.941
 1927SOL    HW122923   3.819   4.858   0.868
 1927SOL    HW222924   3.803   4.842   1.017
 1928SOL     OW22925   4.029   5.208   0.222
 1928SOL    HW122926   3.980   5.203   0.304
 1928SOL    HW222927   4.091   5.135   0.226
 1929SOL     OW22928   5.370   0.112   7.343
 1929SOL    HW122929   5.438   0.067   7.392
 1929SOL    HW222930   5.330   0.044   7.289
 1930SOL     OW22931   5.953   1.943   2.457
 1930SOL    HW122932   5.976   1.851   2.472
 1930SOL    HW222933   6.027   1.992   2.493
 1931SOL     OW22934   1.526   6.147   0.449
 1931SOL    HW122935   1.444   6.110   0.484
 1931SOL    HW222936   1.497   6.219   0.393
 1932SOL     OW22937   2.822   5.060   5.753
 1932SOL    HW122938   2.892   5.078   5.815
 1932SOL    HW222939   2.866   5.021   5.678
 1933SOL     OW22940   1.593   2.814   7.299
 1933SOL    HW122941   1.569   2.897   7.340
 1933SOL    HW222942   1.689   2.815   7.297
 1934SOL     OW22943   1.994   3.594   0.034
 1934SOL    HW122944   2.031   3.611   7.709
 1934SOL    HW222945   1.961   3.504   0.029
 1935SOL     OW22946   3.238   2.514   1.642
 1935SOL    HW122947   3.218   2.434   1.593
 1935SOL    HW222948   3.157   2.534   1.690
 1936SOL     OW22949   0.772   6.421   0.358
 1936SOL    HW122950   0.734   6.414   0.270
 1936SOL    HW222951   0.708   6.471   0.408
 1937SOL     OW22952   2.810   1.244   7.593
 1937SOL    HW122953   2.765   1.269   7.512
 1937SOL    HW222954   2.805   1.148   7.594
 1938SOL     OW22955   4.200   0.522   7.038
 1938SOL    HW122956   4.258   0.491   7.108
 1938SOL    HW222957   4.203   0.452   6.972
 1939SOL     OW22958   3.587   2.175   7.184
 1939SOL    HW122959   3.661   2.116   7.196
 1939SOL    HW222960   3.624   2.253   7.142
 1940SOL     OW22961   5.317   2.781   6.077
 1940SOL    HW122962   5.259   2.857   6.071
 1940SOL    HW222963   5.279   2.727   6.146
 1941SOL     OW22964   2.203   2.959   7.201
 1941SOL    HW122965   2.163   3.012   7.270
 1941SOL    HW222966   2.246   3.023   7.144
 1942SOL     OW22967   4.166   1.029   5.782
 1942SOL    HW122968   4.145   1.080   5.704
 1942SOL    HW222969   4.162   0.938   5.754
 1943SOL     OW22970   6.133   1.325   5.353
 1943SOL    HW122971   6.171   1.404   5.391
 1943SOL    HW222972   6.207   1.281   5.311
 1944SOL     OW22973   0.930   3.953   0.932
 1944SOL    HW122974   0.897   4.032   0.888
 1944SOL    HW222975   0.882   3.950   1.015
 1945SOL     OW22976   1.250   1.911   7.309
 1945SOL    HW122977   1.219   1.898   7.219
 1945SOL    HW222978   1.334   1.956   7.299
 1946SOL     OW22979   1.590   0.638   7.278
 1946SOL    HW122980   1.599   0.728   7.245
 1946SOL    HW222981   1.615   0.583   7.204
 1947SOL     OW22982   4.543   3.346   0.922
 1947SOL    HW122983   4.510   3.278   0.863
 1947SOL    HW222984   4.564   3.420   0.864
 1948SOL     OW22985   2.450   4.204   0.856
 1948SOL    HW122986   2.529   4.258   0.850
 1948SOL    HW222987   2.408   4.231   0.937
 1949SOL     OW22988   0.615   2.396   6.961
 1949SOL    HW122989   0.642   2.312   6.925
 1949SOL    HW222990   0.522   2.385   6.981
 1950SOL     OW22991   6.471   0.061   5.841
 1950SOL    HW122992   6.467   0.147   5.882
 1950SOL    HW222993   0.063   0.062   5.791
 1951SOL     OW22994   2.075   0.040   6.730
 1951SOL    HW122995   1.984   0.071   6.723
 1951SOL    HW222996   2.117   0.101   6.790
 1952SOL     OW22997   3.044   6.303   1.392
 1952SOL    HW122998   3.035   6.287   1.486
 1952SOL    HW222999   2.981   6.373   1.373
 1953SOL     OW23000   3.553   5.245   6.680
 1953SOL    HW123001   3.605   5.311   6.634
 1953SOL    HW223002   3.516   5.291   6.754
 1954SOL     OW23003   3.134   6.118   7.519
 1954SOL    HW123004   3.224   6.085   7.522
 1954SOL    HW223005   3.083   6.050   7.562
 1955SOL     OW23006   2.400   6.118   0.014
 1955SOL    HW123007   2.372   6.210   0.016
 1955SOL    HW223008   2.332   6.071   0.061
 1956SOL     OW23009   2.220   6.407   5.293
 1956SOL    HW123010   2.141   6.386   5.245
 1956SOL    HW223011   2.197   6.393   5.385
 1957SOL     OW23012   2.133   1.605   0.350
 1957SOL    HW123013   2.079   1.580   0.275
 1957SOL    HW223014   2.119   1.535   0.414
 1958SOL     OW23015   0.250   1.638   7.581
 1958SOL    HW123016   0.176   1.658   7.639
 1958SOL    HW223017   0.309   1.586   7.635
 1959SOL     OW23018   3.802   6.087   5.603
 1959SOL    HW123019   3.840   6.022   5.544
 1959SOL    HW223020   3.878   6.134   5.639
 1960SOL     OW23021   2.164   3.785   0.616
 1960SOL    HW123022   2.235   3.731   0.580
 1960SOL    HW223023   2.179   3.785   0.710
 1961SOL     OW23024   4.779   1.862   0.196
 1961SOL    HW123025   4.779   1.877   0.291
 1961SOL    HW223026   4.822   1.778   0.185
 1962SOL     OW23027   5.142   1.346   6.069
 1962SOL    HW123028   5.214   1.292   6.035
 1962SOL    HW223029   5.136   1.419   6.007
 1963SOL     OW23030   5.772   3.013   7.630
 1963SOL    HW123031   5.864   3.026   7.607
 1963SOL    HW223032   5.723   3.063   7.565
 1964SOL     OW23033   1.321   5.331   5.672
 1964SOL    HW123034   1.377   5.403   5.644
 1964SOL    HW223035   1.239   5.373   5.698
 1965SOL     OW23036   0.925   0.211   1.245
 1965SOL    HW123037   0.980   0.143   1.286
 1965SOL    HW223038   0.983   0.287   1.237
 1966SOL     OW23039   4.931   5.110   0.939
 1966SOL    HW123040   4.998   5.156   0.989
 1966SOL    HW223041   4.849   5.131   0.985
 1967SOL     OW23042   4.691   2.342   1.482
 1967SOL    HW123043   4.738   2.419   1.449
 1967SOL    HW223044   4.755   2.271   1.478
 1968SOL     OW23045   0.436   6.414   1.793
 1968SOL    HW123046   0.352   6.378   1.820
 1968SOL    HW223047   0.501   6.360   1.838
 1969SOL     OW23048   0.529   6.220   7.325
 1969SOL    HW123049   0.485   6.212   7.241
 1969SOL    HW223050   0.558   6.311   7.328
 1970SOL     OW23051   2.713   0.652   5.396
 1970SOL    HW123052   2.687   0.744   5.394
 1970SOL    HW223053   2.801   0.650   5.358
 1971SOL     OW23054   2.778   5.330   5.858
 1971SOL    HW123055   2.795   5.261   5.794
 1971SOL    HW223056   2.692   5.364   5.833
 1972SOL     OW23057   2.965   6.235   6.435
 1972SOL    HW123058   2.996   6.314   6.480
 1972SOL    HW223059   2.937   6.176   6.505
 1973SOL     OW23060   1.708   2.841   7.568
 1973SOL    HW123061   1.631   2.871   7.520
 1973SOL    HW223062   1.758   2.920   7.586
 1974SOL     OW23063   5.189   3.379   5.919
 1974SOL    HW123064   5.113   3.437   5.909
 1974SOL    HW223065   5.158   3.309   5.976
 1975SOL     OW23066   3.912   5.626   0.295
 1975SOL    HW123067   3.830   5.604   0.340
 1975SOL    HW223068   3.895   5.712   0.257
 1976SOL     OW23069   0.395   0.471   7.078
 1976SOL    HW123070   0.486   0.490   7.099
 1976SOL    HW223071   0.344   0.521   7.142
 1977SOL     OW23072   0.666   4.065   0.774
 1977SOL    HW123073   0.703   4.124   0.709
 1977SOL    HW223074   0.627   4.123   0.840
 1978SOL     OW23075   2.749   1.491   5.396
 1978SOL    HW123076   2.659   1.500   5.366
 1978SOL    HW223077   2.776   1.580   5.418
 1979SOL     OW23078   2.240   5.184   1.421
 1979SOL    HW123079   2.174   5.123   1.389
 1979SOL    HW223080   2.206   5.270   1.398
 1980SOL     OW23081   3.830   5.391   5.049
 1980SOL    HW123082   3.916   5.356   5.025
 1980SOL    HW223083   3.806   5.343   5.128
 1981SOL     OW23084   4.362   1.026   0.597
 1981SOL    HW123085   4.408   0.942   0.592
 1981SOL    HW223086   4.309   1.019   0.676
 1982SOL     OW23087   4.606   2.918   7.046
 1982SOL    HW123088   4.616   2.829   7.080
 1982SOL    HW223089   4.683   2.931   6.991
 1983SOL     OW23090   3.523   0.791   1.912
 1983SOL    HW123091   3.489   0.876   1.940
 1983SOL    HW223092   3.613   0.788   1.944
 1984SOL     OW23093   2.070   1.620   6.260
 1984SOL    HW123094   2.118   1.611   6.177
 1984SOL    HW223095   1.980   1.638   6.233
 1985SOL     OW23096   3.330   4.714   1.530
 1985SOL    HW123097   3.391   4.659   1.580
 1985SOL    HW223098   3.262   4.738   1.594
 1986SOL     OW23099   1.372   2.853   0.730
 1986SOL    HW123100   1.350   2.871   0.821
 1986SOL    HW223101   1.294   2.880   0.681
 1987SOL     OW23102   0.335   0.390   0.708
 1987SOL    HW123103   0.294   0.476   0.717
 1987SOL    HW223104   0.300   0.356   0.625
 1988SOL     OW23105   0.185   6.150   0.641
 1988SOL    HW123106   0.170   6.055   0.640
 1988SOL    HW223107   0.104   6.187   0.676
 1989SOL     OW23108   4.193   1.710   6.699
 1989SOL    HW123109   4.218   1.680   6.787
 1989SOL    HW223110   4.101   1.686   6.691
 1990SOL     OW23111   6.062   3.004   0.752
 1990SOL    HW123112   6.151   2.984   0.722
 1990SOL    HW223113   6.022   2.919   0.769
 1991SOL     OW23114   5.170   3.526   1.797
 1991SOL    HW123115   5.184   3.435   1.822
 1991SOL    HW223116   5.251   3.570   1.823
 1992SOL     OW23117   5.755   1.550   6.117
 1992SOL    HW123118   5.727   1.557   6.026
 1992SOL    HW223119   5.840   1.506   6.113
 1993SOL     OW23120   4.120   0.250   1.741
 1993SOL    HW123121   4.181   0.315   1.775
 1993SOL    HW223122   4.136   0.249   1.646
 1994SOL     OW23123   2.200   4.096   6.164
 1994SOL    HW123124   2.217   4.007   6.195
 1994SOL    HW223125   2.234   4.097   6.074
 1995SOL     OW23126   5.424   4.878   7.008
 1995SOL    HW123127   5.436   4.830   7.090
 1995SOL    HW223128   5.405   4.968   7.035
 1996SOL     OW23129   0.474   0.722   1.353
 1996SOL    HW123130   0.522   0.683   1.426
 1996SOL    HW223131   0.383   0.722   1.383
 1997SOL     OW23132   1.360   0.799   0.818
 1997SOL    HW123133   1.276   0.759   0.794
 1997SOL    HW223134   1.398   0.827   0.735
 1998SOL     OW23135   0.159   2.213   1.959
 1998SOL    HW123136   0.251   2.235   1.974
 1998SOL    HW223137   0.145   2.133   2.009
 1999SOL     OW23138   0.899   0.294   7.261
 1999SOL    HW123139   0.963   0.294   7.332
 1999SOL    HW223140   0.929   0.362   7.201
 2000SOL     OW23141   0.203   5.804   0.469
 2000SOL    HW123142   0.226   5.714   0.447
 2000SOL    HW223143   0.230   5.814   0.561
 2001SOL     OW23144   2.345   1.822   0.104
 2001SOL    HW123145   2.398   1.794   0.029
 2001SOL    HW223146   2.334   1.916   0.092
 2002SOL     OW23147   5.398   3.823   7.539
 2002SOL    HW123148   5.453   3.798   7.465
 2002SOL    HW223149   5.442   3.788   7.616
 2003SOL     OW23150   1.971   5.563   7.132
 2003SOL    HW123151   1.906   5.493   7.118
 2003SOL    HW223152   1.955   5.592   7.222
 2004SOL     OW23153   1.682   3.823   6.707
 2004SOL    HW123154   1.702   3.761   6.777
 2004SOL    HW223155   1.687   3.909   6.748
 2005SOL     OW23156   2.771   1.327   0.081
 2005SOL    HW123157   2.782   1.299   7.751
 2005SOL    HW223158   2.743   1.418   0.074
 2006SOL     OW23159   3.544   5.268   2.247
 2006SOL    HW123160   3.500   5.353   2.246
 2006SOL    HW223161   3.492   5.215   2.307
 2007SOL     OW23162   5.923   1.356   6.445
 2007SOL    HW123163   5.956   1.280   6.492
 2007SOL    HW223164   5.973   1.356   6.363
 2008SOL     OW23165   2.997   1.784   6.462
 2008SOL    HW123166   3.060   1.833   6.408
 2008SOL    HW223167   3.037   1.781   6.549
 2009SOL     OW23168   3.621   0.654   1.010
 2009SOL    HW123169   3.538   0.608   1.021
 2009SOL    HW223170   3.605   0.741   1.048
 2010SOL     OW23171   6.142   3.700   6.667
 2010SOL    HW123172   6.213   3.722   6.728
 2010SOL    HW223173   6.173   3.730   6.582
 2011SOL     OW23174   4.369   5.890   6.400
 2011SOL    HW123175   4.394   5.981   6.388
 2011SOL    HW223176   4.409   5.865   6.484
 2012SOL     OW23177   5.720   0.815   6.841
 2012SOL    HW123178   5.742   0.726   6.812
 2012SOL    HW223179   5.714   0.867   6.761
 2013SOL     OW23180   3.212   0.204   7.170
 2013SOL    HW123181   3.246   0.126   7.214
 2013SOL    HW223182   3.118   0.190   7.164
 2014SOL     OW23183   5.706   1.814   7.513
 2014SOL    HW123184   5.632   1.843   7.567
 2014SOL    HW223185   5.666   1.776   7.435
 2015SOL     OW23186   2.524   0.769   6.183
 2015SOL    HW123187   2.501   0.860   6.164
 2015SOL    HW223188   2.569   0.774   6.267
 2016SOL     OW23189   0.278   2.354   0.537
 2016SOL    HW123190   0.263   2.280   0.595
 2016SOL    HW223191   0.195   2.402   0.536
 2017SOL     OW23192   0.189   5.852   0.772
 2017SOL    HW123193   0.129   5.786   0.805
 2017SOL    HW223194   0.276   5.820   0.796
 2018SOL     OW23195   3.075   2.629   6.307
 2018SOL    HW123196   3.121   2.682   6.243
 2018SOL    HW223197   3.111   2.541   6.296
 2019SOL     OW23198   3.335   5.637   6.474
 2019SOL    HW123199   3.392   5.700   6.518
 2019SOL    HW223200   3.304   5.683   6.396
 2020SOL     OW23201   5.003   0.726   1.876
 2020SOL    HW123202   4.995   0.648   1.931
 2020SOL    HW223203   4.995   0.799   1.937
 2021SOL     OW23204   0.571   0.810   0.624
 2021SOL    HW123205   0.573   0.904   0.642
 2021SOL    HW223206   0.615   0.770   0.699
 2022SOL     OW23207   4.614   4.090   0.436
 2022SOL    HW123208   4.663   4.053   0.509
 2022SOL    HW223209   4.530   4.117   0.475
 2023SOL     OW23210   2.203   3.376   5.925
 2023SOL    HW123211   2.175   3.459   5.886
 2023SOL    HW223212   2.177   3.310   5.862
 2024SOL     OW23213   4.158   1.583   1.091
 2024SOL    HW123214   4.140   1.522   1.162
 2024SOL    HW223215   4.079   1.637   1.086
 2025SOL     OW23216   1.777   2.094   7.180
 2025SOL    HW123217   1.689   2.105   7.217
 2025SOL    HW223218   1.818   2.027   7.235
 2026SOL     OW23219   4.449   3.097   0.381
 2026SOL    HW123220   4.526   3.150   0.359
 2026SOL    HW223221   4.475   3.048   0.459
 2027SOL     OW23222   1.146   5.843   7.146
 2027SOL    HW123223   1.169   5.857   7.054
 2027SOL    HW223224   1.230   5.847   7.193
 2028SOL     OW23225   2.563   3.992   0.191
 2028SOL    HW123226   2.483   3.959   0.150
 2028SOL    HW223227   2.570   3.942   0.273
 2029SOL     OW23228   1.583   0.970   0.207
 2029SOL    HW123229   1.636   0.963   0.286
 2029SOL    HW223230   1.526   0.893   0.209
 2030SOL     OW23231   0.454   5.238   7.484
 2030SOL    HW123232   0.514   5.251   7.558
 2030SOL    HW223233   0.423   5.149   7.494
 2031SOL     OW23234   4.709   2.288   0.089
 2031SOL    HW123235   4.626   2.244   0.110
 2031SOL    HW223236   4.689   2.340   0.011
 2032SOL     OW23237   2.344   2.893   2.126
 2032SOL    HW123238   2.381   2.982   2.124
 2032SOL    HW223239   2.344   2.865   2.035
 2033SOL     OW23240   3.428   4.177   6.469
 2033SOL    HW123241   3.372   4.125   6.526
 2033SOL    HW223242   3.500   4.119   6.446
 2034SOL     OW23243   6.182   0.683   1.191
 2034SOL    HW123244   6.193   0.715   1.101
 2034SOL    HW223245   6.271   0.662   1.220
 2035SOL     OW23246   5.928   4.979   7.308
 2035SOL    HW123247   5.862   4.987   7.238
 2035SOL    HW223248   6.008   5.012   7.268
 2036SOL     OW23249   5.267   0.649   0.167
 2036SOL    HW123250   5.231   0.705   0.236
 2036SOL    HW223251   5.328   0.591   0.212
 2037SOL     OW23252   0.907   1.054   1.274
 2037SOL    HW123253   0.908   1.142   1.312
 2037SOL    HW223254   0.880   0.998   1.347
 2038SOL     OW23255   4.583   3.659   1.596
 2038SOL    HW123256   4.669   3.617   1.594
 2038SOL    HW223257   4.554   3.657   1.504
 2039SOL     OW23258   3.487   0.421   6.327
 2039SOL    HW123259   3.573   0.446   6.360
 2039SOL    HW223260   3.503   0.338   6.281
 2040SOL     OW23261   1.610   2.227   0.172
 2040SOL    HW123262   1.677   2.275   0.221
 2040SOL    HW223263   1.591   2.282   0.096
 2041SOL     OW23264   4.224   4.284   6.065
 2041SOL    HW123265   4.148   4.271   6.008
 2041SOL    HW223266   4.267   4.362   6.030
 2042SOL     OW23267   1.214   3.586   0.564
 2042SOL    HW123268   1.119   3.589   0.574
 2042SOL    HW223269   1.238   3.672   0.531
 2043SOL     OW23270   2.403   4.201   6.544
 2043SOL    HW123271   2.366   4.112   6.542
 2043SOL    HW223272   2.384   4.233   6.631
 2044SOL     OW23273   4.191   4.891   0.897
 2044SOL    HW123274   4.235   4.808   0.918
 2044SOL    HW223275   4.252   4.936   0.838
 2045SOL     OW23276   3.697   5.563   1.349
 2045SOL    HW123277   3.632   5.497   1.372
 2045SOL    HW223278   3.654   5.647   1.365
 2046SOL     OW23279   3.293   0.883   1.525
 2046SOL    HW123280   3.222   0.866   1.462
 2046SOL    HW223281   3.323   0.971   1.503
 2047SOL     OW23282   3.164   0.362   6.916
 2047SOL    HW123283   3.204   0.283   6.952
 2047SOL    HW223284   3.069   0.346   6.924
 2048SOL     OW23285   2.464   3.665   1.044
 2048SOL    HW123286   2.452   3.639   1.135
 2048SOL    HW223287   2.463   3.760   1.045
 2049SOL     OW23288   4.675   3.323   1.496
 2049SOL    HW123289   4.710   3.264   1.430
 2049SOL    HW223290   4.738   3.395   1.500
 2050SOL     OW23291   5.761   0.946   5.468
 2050SOL    HW123292   5.697   0.971   5.534
 2050SOL    HW223293   5.817   1.023   5.458
 2051SOL     OW23294   5.942   3.451   1.975
 2051SOL    HW123295   6.020   3.396   1.981
 2051SOL    HW223296   5.924   3.477   2.065
 2052SOL     OW23297   5.941   5.301   7.163
 2052SOL    HW123298   5.957   5.219   7.117
 2052SOL    HW223299   5.977   5.369   7.105
 2053SOL     OW23300   0.550   3.000   7.727
 2053SOL    HW123301   0.621   2.950   7.686
 2053SOL    HW223302   0.577   3.091   7.718
 2054SOL     OW23303   2.580   5.024   1.185
 2054SOL    HW123304   2.643   4.952   1.183
 2054SOL    HW223305   2.570   5.045   1.278
 2055SOL     OW23306   3.832   0.011   7.087
 2055SOL    HW123307   3.838   6.459   7.174
 2055SOL    HW223308   3.843   6.426   7.026
 2056SOL     OW23309   3.592   5.463   7.382
 2056SOL    HW123310   3.631   5.545   7.413
 2056SOL    HW223311   3.666   5.413   7.348
 2057SOL     OW23312   2.717   3.364   7.529
 2057SOL    HW123313   2.736   3.448   7.486
 2057SOL    HW223314   2.670   3.313   7.463
 2058SOL     OW23315   2.632   2.202   1.775
 2058SOL    HW123316   2.577   2.279   1.760
 2058SOL    HW223317   2.693   2.229   1.844
 2059SOL     OW23318   4.692   0.585   6.933
 2059SOL    HW123319   4.662   0.500   6.966
 2059SOL    HW223320   4.665   0.585   6.841
 2060SOL     OW23321   1.805   2.103   6.419
 2060SOL    HW123322   1.834   2.032   6.362
 2060SOL    HW223323   1.860   2.177   6.395
 2061SOL     OW23324   1.595   2.172   6.229
 2061SOL    HW123325   1.635   2.144   6.311
 2061SOL    HW223326   1.586   2.092   6.177
 2062SOL     OW23327   5.545   4.574   6.370
 2062SOL    HW123328   5.558   4.646   6.432
 2062SOL    HW223329   5.548   4.616   6.284
 2063SOL     OW23330   0.704   5.121   0.873
 2063SOL    HW123331   0.640   5.166   0.928
 2063SOL    HW223332   0.680   5.144   0.783
 2064SOL     OW23333   6.193   1.871   7.580
 2064SOL    HW123334   6.235   1.914   7.655
 2064SOL    HW223335   6.247   1.894   7.505
 2065SOL     OW23336   2.579   1.209   5.030
 2065SOL    HW123337   2.551   1.146   5.097
 2065SOL    HW223338   2.620   1.156   4.962
 2066SOL     OW23339   1.153   1.783   0.981
 2066SOL    HW123340   1.061   1.774   0.958
 2066SOL    HW223341   1.188   1.694   0.975
 2067SOL     OW23342   2.251   4.453   6.028
 2067SOL    HW123343   2.318   4.392   6.058
 2067SOL    HW223344   2.297   4.515   5.971
 2068SOL     OW23345   2.716   5.834   6.015
 2068SOL    HW123346   2.672   5.919   6.010
 2068SOL    HW223347   2.650   5.771   5.986
 2069SOL     OW23348   2.438   3.224   7.722
 2069SOL    HW123349   2.401   3.237   0.048
 2069SOL    HW223350   2.372   3.259   7.662
 2070SOL     OW23351   1.221   3.871   7.508
 2070SOL    HW123352   1.293   3.826   7.551
 2070SOL    HW223353   1.224   3.839   7.417
 2071SOL     OW23354   3.521   4.805   1.022
 2071SOL    HW123355   3.614   4.826   1.013
 2071SOL    HW223356   3.490   4.864   1.090
 2072SOL     OW23357   4.078   1.524   2.256
 2072SOL    HW123358   4.135   1.503   2.330
 2072SOL    HW223359   4.130   1.585   2.203
 2073SOL     OW23360   3.625   3.517   1.890
 2073SOL    HW123361   3.648   3.557   1.974
 2073SOL    HW223362   3.620   3.423   1.908
 2074SOL     OW23363   5.389   2.379   2.039
 2074SOL    HW123364   5.399   2.423   2.124
 2074SOL    HW223365   5.299   2.395   2.014
 2075SOL     OW23366   3.013   2.799   0.447
 2075SOL    HW123367   2.947   2.729   0.448
 2075SOL    HW223368   3.097   2.753   0.447
 2076SOL     OW23369   3.214   2.232   5.327
 2076SOL    HW123370   3.174   2.316   5.347
 2076SOL    HW223371   3.307   2.252   5.317
 2077SOL     OW23372   5.738   0.111   7.200
 2077SOL    HW123373   5.729   0.093   7.294
 2077SOL    HW223374   5.648   0.110   7.167
 2078SOL     OW23375   5.481   1.076   7.231
 2078SOL    HW123376   5.567   1.117   7.224
 2078SOL    HW223377   5.485   1.003   7.169
 2079SOL     OW23378   5.452   4.856   5.728
 2079SOL    HW123379   5.443   4.892   5.640
 2079SOL    HW223380   5.489   4.927   5.780
 2080SOL     OW23381   2.904   0.773   6.536
 2080SOL    HW123382   2.933   0.682   6.531
 2080SOL    HW223383   2.926   0.800   6.626
 2081SOL     OW23384   4.056   3.013   0.390
 2081SOL    HW123385   4.003   3.091   0.404
 2081SOL    HW223386   4.114   3.035   0.318
 2082SOL     OW23387   5.225   3.372   1.101
 2082SOL    HW123388   5.232   3.406   1.012
 2082SOL    HW223389   5.256   3.281   1.094
 2083SOL     OW23390   6.232   5.475   6.788
 2083SOL    HW123391   6.271   5.468   6.701
 2083SOL    HW223392   6.307   5.470   6.848
 2084SOL     OW23393   5.514   1.070   0.488
 2084SOL    HW123394   5.422   1.057   0.512
 2084SOL    HW223395   5.516   1.158   0.451
 2085SOL     OW23396   6.074   2.478   0.754
 2085SOL    HW123397   6.047   2.432   0.833
 2085SOL    HW223398   5.996   2.479   0.699
 2086SOL     OW23399   4.399   1.495   0.555
 2086SOL    HW123400   4.379   1.416   0.606
 2086SOL    HW223401   4.474   1.472   0.502
 2087SOL     OW23402   5.584   3.878   2.091
 2087SOL    HW123403   5.648   3.872   2.020
 2087SOL    HW223404   5.581   3.971   2.113
 2088SOL     OW23405   3.829   3.331   6.955
 2088SOL    HW123406   3.860   3.240   6.947
 2088SOL    HW223407   3.734   3.324   6.953
 2089SOL     OW23408   4.433   6.230   0.865
 2089SOL    HW123409   4.439   6.204   0.773
 2089SOL    HW223410   4.451   6.324   0.865
 2090SOL     OW23411   5.940   3.021   1.019
 2090SOL    HW123412   5.984   3.029   0.934
 2090SOL    HW223413   5.850   3.000   0.998
 2091SOL     OW23414   6.468   0.051   1.743
 2091SOL    HW123415   6.479   0.030   1.835
 2091SOL    HW223416   0.065   0.086   1.716
 2092SOL     OW23417   1.204   0.465   0.599
 2092SOL    HW123418   1.286   0.425   0.628
 2092SOL    HW223419   1.159   0.395   0.551
 2093SOL     OW23420   4.773   6.006   0.953
 2093SOL    HW123421   4.764   6.062   0.876
 2093SOL    HW223422   4.856   6.034   0.993
 2094SOL     OW23423   5.467   0.802   1.015
 2094SOL    HW123424   5.424   0.790   0.931
 2094SOL    HW223425   5.545   0.855   0.995
 2095SOL     OW23426   1.085   0.730   0.700
 2095SOL    HW123427   1.125   0.652   0.661
 2095SOL    HW223428   1.024   0.762   0.633
 2096SOL     OW23429   3.141   0.353   6.290
 2096SOL    HW123430   3.191   0.346   6.209
 2096SOL    HW223431   3.207   0.354   6.360
 2097SOL     OW23432   0.195   5.466   6.500
 2097SOL    HW123433   0.238   5.545   6.531
 2097SOL    HW223434   0.259   5.396   6.518
 2098SOL     OW23435   4.907   3.802   6.897
 2098SOL    HW123436   4.975   3.746   6.935
 2098SOL    HW223437   4.923   3.888   6.935
 2099SOL     OW23438   3.405   4.132   0.061
 2099SOL    HW123439   3.411   4.039   0.039
 2099SOL    HW223440   3.493   4.154   0.094
 2100SOL     OW23441   2.962   4.317   5.401
 2100SOL    HW123442   2.947   4.406   5.431
 2100SOL    HW223443   3.019   4.326   5.324
 2101SOL     OW23444   1.479   0.427   0.620
 2101SOL    HW123445   1.544   0.357   0.624
 2101SOL    HW223446   1.529   0.504   0.595
 2102SOL     OW23447   4.115   2.884   6.217
 2102SOL    HW123448   4.149   2.798   6.190
 2102SOL    HW223449   4.136   2.942   6.144
 2103SOL     OW23450   2.294   1.496   6.346
 2103SOL    HW123451   2.214   1.540   6.316
 2103SOL    HW223452   2.364   1.537   6.296
 2104SOL     OW23453   3.637   5.172   1.577
 2104SOL    HW123454   3.638   5.224   1.657
 2104SOL    HW223455   3.723   5.187   1.537
 2105SOL     OW23456   0.259   0.228   7.756
 2105SOL    HW123457   0.198   0.194   7.690
 2105SOL    HW223458   0.220   0.203   0.078
 2106SOL     OW23459   1.166   1.447   7.448
 2106SOL    HW123460   1.206   1.376   7.499
 2106SOL    HW223461   1.108   1.492   7.510
 2107SOL     OW23462   1.784   5.047   7.486
 2107SOL    HW123463   1.742   4.975   7.440
 2107SOL    HW223464   1.862   5.008   7.526
 2108SOL     OW23465   1.929   4.949   6.689
 2108SOL    HW123466   1.854   4.979   6.638
 2108SOL    HW223467   1.925   4.854   6.684
 2109SOL     OW23468   1.791   2.912   0.913
 2109SOL    HW123469   1.881   2.893   0.939
 2109SOL    HW223470   1.796   2.928   0.819
 2110SOL     OW23471   1.987   6.023   1.692
 2110SOL    HW123472   2.057   6.025   1.757
 2110SOL    HW223473   2.012   5.953   1.632
 2111SOL     OW23474   2.570   0.287   1.532
 2111SOL    HW123475   2.528   0.373   1.543
 2111SOL    HW223476   2.651   0.306   1.486
 2112SOL     OW23477   2.819   1.898   7.095
 2112SOL    HW123478   2.815   1.952   7.016
 2112SOL    HW223479   2.796   1.958   7.166
 2113SOL     OW23480   4.274   2.459   1.333
 2113SOL    HW123481   4.317   2.448   1.248
 2113SOL    HW223482   4.186   2.491   1.311
 2114SOL     OW23483   4.172   0.650   5.554
 2114SOL    HW123484   4.232   0.646   5.480
 2114SOL    HW223485   4.220   0.698   5.621
 2115SOL     OW23486   0.632   4.837   0.307
 2115SOL    HW123487   0.597   4.749   0.293
 2115SOL    HW223488   0.727   4.826   0.303
 2116SOL     OW23489   2.142   1.723   0.787
 2116SOL    HW123490   2.062   1.734   0.736
 2116SOL    HW223491   2.208   1.697   0.723
 2117SOL     OW23492   5.060   2.231   7.477
 2117SOL    HW123493   4.982   2.284   7.492
 2117SOL    HW223494   5.133   2.292   7.493
 2118SOL     OW23495   2.245   5.556   5.450
 2118SOL    HW123496   2.166   5.592   5.491
 2118SOL    HW223497   2.316   5.611   5.482
 2119SOL     OW23498   5.101   1.117   0.109
 2119SOL    HW123499   5.123   1.076   0.193
 2119SOL    HW223500   5.160   1.077   0.046
 2120SOL     OW23501   1.239   2.174   0.796
 2120SOL    HW123502   1.322   2.126   0.800
 2120SOL    HW223503   1.241   2.230   0.874
 2121SOL     OW23504   3.556   0.515   2.025
 2121SOL    HW123505   3.497   0.502   1.951
 2121SOL    HW223506   3.603   0.596   2.005
 2122SOL     OW23507   5.595   3.359   5.800
 2122SOL    HW123508   5.668   3.421   5.788
 2122SOL    HW223509   5.519   3.415   5.813
 2123SOL     OW23510   1.651   0.063   6.199
 2123SOL    HW123511   1.609   6.478   6.154
 2123SOL    HW223512   1.631   0.139   6.144
 2124SOL     OW23513   5.082   5.353   1.597
 2124SOL    HW123514   5.037   5.273   1.569
 2124SOL    HW223515   5.012   5.416   1.611
 2125SOL     OW23516   5.089   5.388   6.335
 2125SOL    HW123517   5.148   5.463   6.335
 2125SOL    HW223518   5.038   5.397   6.254
 2126SOL     OW23519   0.795   6.254   0.611
 2126SOL    HW123520   0.813   6.312   0.536
 2126SOL    HW223521   0.803   6.312   0.687
 2127SOL     OW23522   1.462   1.889   1.400
 2127SOL    HW123523   1.480   1.951   1.329
 2127SOL    HW223524   1.517   1.813   1.380
 2128SOL     OW23525   0.406   4.014   7.703
 2128SOL    HW123526   0.314   4.041   7.694
 2128SOL    HW223527   0.403   3.934   7.755
 2129SOL     OW23528   1.734   1.247   1.794
 2129SOL    HW123529   1.650   1.285   1.821
 2129SOL    HW223530   1.783   1.236   1.876
 2130SOL     OW23531   4.924   0.034   0.642
 2130SOL    HW123532   4.844   6.481   0.675
 2130SOL    HW223533   4.924   0.014   0.548
 2131SOL     OW23534   4.505   5.480   0.744
 2131SOL    HW123535   4.582   5.474   0.801
 2131SOL    HW223536   4.439   5.525   0.797
 2132SOL     OW23537   2.990   3.901   5.753
 2132SOL    HW123538   2.953   3.989   5.747
 2132SOL    HW223539   2.948   3.853   5.681
 2133SOL     OW23540   3.169   1.491   6.679
 2133SOL    HW123541   3.181   1.547   6.755
 2133SOL    HW223542   3.210   1.408   6.704
 2134SOL     OW23543   0.051   5.175   7.107
 2134SOL    HW123544   0.045   5.131   7.192
 2134SOL    HW223545   0.130   5.139   7.067
 2135SOL     OW23546   4.599   3.347   1.180
 2135SOL    HW123547   4.513   3.306   1.189
 2135SOL    HW223548   4.606   3.368   1.087
 2136SOL     OW23549   0.907   2.218   7.734
 2136SOL    HW123550   0.818   2.224   0.007
 2136SOL    HW223551   0.896   2.188   7.643
 2137SOL     OW23552   1.685   6.310   7.478
 2137SOL    HW123553   1.672   6.240   7.542
 2137SOL    HW223554   1.597   6.341   7.459
 2138SOL     OW23555   0.039   3.056   0.745
 2138SOL    HW123556   0.022   2.998   0.820
 2138SOL    HW223557   6.478   3.135   0.765
 2139SOL     OW23558   6.363   3.299   0.809
 2139SOL    HW123559   6.272   3.329   0.804
 2139SOL    HW223560   6.412   3.379   0.828
 2140SOL     OW23561   1.806   5.365   7.088
 2140SOL    HW123562   1.761   5.311   7.023
 2140SOL    HW223563   1.834   5.302   7.155
 2141SOL     OW23564   3.777   2.582   7.370
 2141SOL    HW123565   3.729   2.665   7.370
 2141SOL    HW223566   3.708   2.515   7.371
 2142SOL     OW23567   4.718   1.483   0.917
 2142SOL    HW123568   4.669   1.529   0.849
 2142SOL    HW223569   4.717   1.543   0.992
 2143SOL     OW23570   6.231   2.540   6.856
 2143SOL    HW123571   6.239   2.555   6.762
 2143SOL    HW223572   6.215   2.627   6.893
 2144SOL     OW23573   2.179   0.273   6.367
 2144SOL    HW123574   2.127   0.331   6.311
 2144SOL    HW223575   2.258   0.323   6.386
 2145SOL     OW23576   0.073   1.461   6.760
 2145SOL    HW123577   0.132   1.416   6.699
 2145SOL    HW223578   6.478   1.466   6.714
 2146SOL     OW23579   4.487   3.575   0.280
 2146SOL    HW123580   4.497   3.553   0.372
 2146SOL    HW223581   4.577   3.589   0.249
 2147SOL     OW23582   4.917   3.594   0.462
 2147SOL    HW123583   4.894   3.523   0.522
 2147SOL    HW223584   4.845   3.656   0.470
 2148SOL     OW23585   5.851   3.746   1.459
 2148SOL    HW123586   5.844   3.702   1.374
 2148SOL    HW223587   5.885   3.679   1.518
 2149SOL     OW23588   2.722   2.065   7.304
 2149SOL    HW123589   2.634   2.066   7.341
 2149SOL    HW223590   2.778   2.094   7.377
 2150SOL     OW23591   1.658   2.217   1.191
 2150SOL    HW123592   1.721   2.159   1.233
 2150SOL    HW223593   1.573   2.181   1.214
 2151SOL     OW23594   4.735   5.116   0.394
 2151SOL    HW123595   4.803   5.175   0.364
 2151SOL    HW223596   4.675   5.171   0.444
 2152SOL     OW23597   4.634   0.766   2.069
 2152SOL    HW123598   4.578   0.804   2.137
 2152SOL    HW223599   4.660   0.841   2.015
 2153SOL     OW23600   2.556   5.557   0.163
 2153SOL    HW123601   2.519   5.640   0.133
 2153SOL    HW223602   2.650   5.566   0.146
 2154SOL     OW23603   4.926   4.834   1.103
 2154SOL    HW123604   4.983   4.907   1.127
 2154SOL    HW223605   4.889   4.804   1.186
 2155SOL     OW23606   4.549   2.890   0.873
 2155SOL    HW123607   4.593   2.868   0.955
 2155SOL    HW223608   4.561   2.812   0.818
 2156SOL     OW23609   6.275   0.445   0.902
 2156SOL    HW123610   6.283   0.462   0.995
 2156SOL    HW223611   6.193   0.396   0.893
 2157SOL     OW23612   5.268   1.558   7.733
 2157SOL    HW123613   5.258   1.652   7.717
 2157SOL    HW223614   5.271   1.519   7.646
 2158SOL     OW23615   0.907   4.839   0.191
 2158SOL    HW123616   0.966   4.909   0.217
 2158SOL    HW223617   0.964   4.763   0.180
 2159SOL     OW23618   0.443   3.423   6.922
 2159SOL    HW123619   0.434   3.486   6.850
 2159SOL    HW223620   0.404   3.343   6.888
 2160SOL     OW23621   1.182   2.266   1.551
 2160SOL    HW123622   1.108   2.207   1.538
 2160SOL    HW223623   1.172   2.297   1.641
 2161SOL     OW23624   1.754   0.056   2.204
 2161SOL    HW123625   1.740   6.450   2.207
 2161SOL    HW223626   1.840   0.067   2.164
 2162SOL     OW23627   4.030   3.682   6.131
 2162SOL    HW123628   4.035   3.593   6.097
 2162SOL    HW223629   4.095   3.685   6.201
 2163SOL     OW23630   4.711   3.804   2.013
 2163SOL    HW123631   4.722   3.745   2.088
 2163SOL    HW223632   4.682   3.886   2.052
 2164SOL     OW23633   0.426   5.418   6.677
 2164SOL    HW123634   0.474   5.357   6.733
 2164SOL    HW223635   0.371   5.467   6.737
 2165SOL     OW23636   2.222   6.104   1.445
 2165SOL    HW123637   2.259   6.091   1.357
 2165SOL    HW223638   2.163   6.178   1.436
 2166SOL     OW23639   1.506   4.410   7.086
 2166SOL    HW123640   1.466   4.442   7.166
 2166SOL    HW223641   1.494   4.481   7.023
 2167SOL     OW23642   5.502   3.173   6.337
 2167SOL    HW123643   5.452   3.214   6.407
 2167SOL    HW223644   5.460   3.204   6.256
 2168SOL     OW23645   2.449   1.098   1.828
 2168SOL    HW123646   2.432   1.185   1.866
 2168SOL    HW223647   2.534   1.072   1.865
 2169SOL     OW23648   4.106   5.726   6.348
 2169SOL    HW123649   4.195   5.691   6.349
 2169SOL    HW223650   4.105   5.786   6.273
 2170SOL     OW23651   5.098   4.396   6.404
 2170SOL    HW123652   5.097   4.464   6.336
 2170SOL    HW223653   5.188   4.398   6.438
 2171SOL     OW23654   1.654   4.293   1.138
 2171SOL    HW123655   1.699   4.302   1.053
 2171SOL    HW223656   1.590   4.224   1.124
 2172SOL     OW23657   2.892   1.168   0.405
 2172SOL    HW123658   2.854   1.207   0.483
 2172SOL    HW223659   2.970   1.123   0.436
 2173SOL     OW23660   3.751   2.758   1.258
 2173SOL    HW123661   3.786   2.732   1.343
 2173SOL    HW223662   3.670   2.709   1.250
 2174SOL     OW23663   1.060   1.097   0.054
 2174SOL    HW123664   0.994   1.029   0.040
 2174SOL    HW223665   1.035   1.168   7.756
 2175SOL     OW23666   4.670   5.456   6.768
 2175SOL    HW123667   4.634   5.523   6.827
 2175SOL    HW223668   4.665   5.496   6.681
 2176SOL     OW23669   6.142   0.146   6.971
 2176SOL    HW123670   6.098   0.106   7.046
 2176SOL    HW223671   6.223   0.096   6.962
 2177SOL     OW23672   0.374   4.634   0.498
 2177SOL    HW123673   0.333   4.702   0.551
 2177SOL    HW223674   0.367   4.555   0.551
 2178SOL     OW23675   0.494   1.520   0.384
 2178SOL    HW123676   0.470   1.569   0.306
 2178SOL    HW223677   0.493   1.586   0.454
 2179SOL     OW23678   2.907   4.149   6.008
 2179SOL    HW123679   2.973   4.218   6.018
 2179SOL    HW223680   2.895   4.142   5.913
 2180SOL     OW23681   3.626   0.681   6.826
 2180SOL    HW123682   3.592   0.602   6.866
 2180SOL    HW223683   3.719   0.683   6.851
 2181SOL     OW23684   4.624   4.167   6.329
 2181SOL    HW123685   4.620   4.130   6.417
 2181SOL    HW223686   4.715   4.193   6.317
 2182SOL     OW23687   4.459   0.760   0.633
 2182SOL    HW123688   4.452   0.705   0.555
 2182SOL    HW223689   4.440   0.700   0.706
 2183SOL     OW23690   3.689   4.204   1.218
 2183SOL    HW123691   3.644   4.282   1.250
 2183SOL    HW223692   3.778   4.211   1.253
 2184SOL     OW23693   3.220   6.351   6.976
 2184SOL    HW123694   3.203   6.425   6.918
 2184SOL    HW223695   3.315   6.341   6.975
 2185SOL     OW23696   1.763   4.987   1.386
 2185SOL    HW123697   1.756   5.040   1.466
 2185SOL    HW223698   1.776   4.898   1.418
 2186SOL     OW23699   4.267   1.687   0.423
 2186SOL    HW123700   4.316   1.610   0.452
 2186SOL    HW223701   4.175   1.658   0.422
 2187SOL     OW23702   4.873   4.022   2.373
 2187SOL    HW123703   4.803   3.957   2.372
 2187SOL    HW223704   4.953   3.970   2.378
 2188SOL     OW23705   4.941   1.434   0.773
 2188SOL    HW123706   4.876   1.464   0.838
 2188SOL    HW223707   4.964   1.346   0.801
 2189SOL     OW23708   3.017   0.551   6.421
 2189SOL    HW123709   2.930   0.534   6.386
 2189SOL    HW223710   3.069   0.475   6.394
 2190SOL     OW23711   2.967   4.684   1.093
 2190SOL    HW123712   3.036   4.713   1.152
 2190SOL    HW223713   3.012   4.628   1.029
 2191SOL     OW23714   1.796   4.711   1.471
 2191SOL    HW123715   1.838   4.660   1.540
 2191SOL    HW223716   1.722   4.658   1.443
 2192SOL     OW23717   3.943   1.884   6.630
 2192SOL    HW123718   3.928   1.901   6.537
 2192SOL    HW223719   3.859   1.904   6.671
 2193SOL     OW23720   4.114   1.206   1.557
 2193SOL    HW123721   4.085   1.183   1.645
 2193SOL    HW223722   4.203   1.172   1.551
 2194SOL     OW23723   2.494   6.102   5.629
 2194SOL    HW123724   2.584   6.128   5.612
 2194SOL    HW223725   2.457   6.084   5.543
 2195SOL     OW23726   2.931   6.444   5.002
 2195SOL    HW123727   3.020   6.426   5.033
 2195SOL    HW223728   2.881   6.367   5.030
 2196SOL     OW23729   5.351   0.396   0.740
 2196SOL    HW123730   5.434   0.422   0.698
 2196SOL    HW223731   5.317   0.326   0.684
 2197SOL     OW23732   3.317   0.986   6.118
 2197SOL    HW123733   3.286   0.982   6.027
 2197SOL    HW223734   3.253   0.933   6.167
 2198SOL     OW23735   3.226   3.732   0.518
 2198SOL    HW123736   3.148   3.691   0.554
 2198SOL    HW223737   3.212   3.731   0.423
 2199SOL     OW23738   1.965   2.486   7.268
 2199SOL    HW123739   2.055   2.468   7.292
 2199SOL    HW223740   1.948   2.432   7.191
 2200SOL     OW23741   4.172   0.510   6.456
 2200SOL    HW123742   4.209   0.428   6.421
 2200SOL    HW223743   4.210   0.578   6.400
 2201SOL     OW23744   4.547   1.178   7.236
 2201SOL    HW123745   4.582   1.170   7.324
 2201SOL    HW223746   4.475   1.115   7.233
 2202SOL     OW23747   6.470   3.246   1.754
 2202SOL    HW123748   0.023   3.289   1.828
 2202SOL    HW223749   0.040   3.174   1.732
 2203SOL     OW23750   5.586   6.208   1.982
 2203SOL    HW123751   5.646   6.173   2.047
 2203SOL    HW223752   5.499   6.187   2.015
 2204SOL     OW23753   5.598   5.006   5.910
 2204SOL    HW123754   5.665   5.061   5.868
 2204SOL    HW223755   5.648   4.947   5.967
 2205SOL     OW23756   0.389   4.900   1.965
 2205SOL    HW123757   0.399   4.941   2.051
 2205SOL    HW223758   0.451   4.827   1.966
 2206SOL     OW23759   2.837   0.874   1.142
 2206SOL    HW123760   2.841   0.911   1.230
 2206SOL    HW223761   2.880   0.789   1.150
 2207SOL     OW23762   0.860   0.857   7.504
 2207SOL    HW123763   0.888   0.874   7.594
 2207SOL    HW223764   0.901   0.927   7.453
 2208SOL     OW23765   5.467   3.090   1.028
 2208SOL    HW123766   5.534   3.033   1.067
 2208SOL    HW223767   5.400   3.096   1.096
 2209SOL     OW23768   2.523   3.124   0.972
 2209SOL    HW123769   2.588   3.057   0.953
 2209SOL    HW223770   2.536   3.190   0.904
 2210SOL     OW23771   5.974   3.970   6.275
 2210SOL    HW123772   6.027   3.915   6.217
 2210SOL    HW223773   5.950   4.046   6.221
 2211SOL     OW23774   6.176   5.779   7.088
 2211SOL    HW123775   6.241   5.786   7.158
 2211SOL    HW223776   6.203   5.844   7.023
 2212SOL     OW23777   5.580   5.347   7.257
 2212SOL    HW123778   5.504   5.337   7.314
 2212SOL    HW223779   5.553   5.412   7.192
 2213SOL     OW23780   2.581   4.886   6.054
 2213SOL    HW123781   2.623   4.971   6.067
 2213SOL    HW223782   2.605   4.861   5.964
 2214SOL     OW23783   4.426   1.501   5.711
 2214SOL    HW123784   4.347   1.554   5.701
 2214SOL    HW223785   4.497   1.565   5.720
 2215SOL     OW23786   3.924   4.836   0.695
 2215SOL    HW123787   4.006   4.800   0.731
 2215SOL    HW223788   3.926   4.813   0.602
 2216SOL     OW23789   0.626   5.218   1.163
 2216SOL    HW123790   0.543   5.197   1.121
 2216SOL    HW223791   0.602   5.247   1.251
 2217SOL     OW23792   1.811   3.904   7.147
 2217SOL    HW123793   1.757   3.845   7.094
 2217SOL    HW223794   1.877   3.937   7.086
 2218SOL     OW23795   1.870   3.790   1.118
 2218SOL    HW123796   1.918   3.818   1.041
 2218SOL    HW223797   1.789   3.841   1.115
 2219SOL     OW23798   1.388   0.228   0.800
 2219SOL    HW123799   1.300   0.265   0.809
 2219SOL    HW223800   1.440   0.300   0.765
 2220SOL     OW23801   0.354   4.306   1.865
 2220SOL    HW123802   0.319   4.366   1.799
 2220SOL    HW223803   0.311   4.222   1.846
 2221SOL     OW23804   2.050   1.987   2.135
 2221SOL    HW123805   1.995   1.976   2.213
 2221SOL    HW223806   2.091   1.901   2.122
 2222SOL     OW23807   1.452   0.747   0.200
 2222SOL    HW123808   1.424   0.719   0.113
 2222SOL    HW223809   1.436   0.670   0.256
 2223SOL     OW23810   5.990   4.258   7.546
 2223SOL    HW123811   5.954   4.178   7.584
 2223SOL    HW223812   5.923   4.288   7.484
 2224SOL     OW23813   5.636   1.240   6.673
 2224SOL    HW123814   5.689   1.161   6.680
 2224SOL    HW223815   5.609   1.242   6.580
 2225SOL     OW23816   1.904   2.557   0.189
 2225SOL    HW123817   1.837   2.618   0.218
 2225SOL    HW223818   1.916   2.577   0.096
 2226SOL     OW23819   6.196   3.378   5.569
 2226SOL    HW123820   6.269   3.316   5.565
 2226SOL    HW223821   6.211   3.428   5.649
 2227SOL     OW23822   0.837   5.653   6.921
 2227SOL    HW123823   0.880   5.570   6.944
 2227SOL    HW223824   0.817   5.644   6.828
 2228SOL     OW23825   3.303   2.903   6.657
 2228SOL    HW123826   3.229   2.883   6.714
 2228SOL    HW223827   3.372   2.843   6.686
 2229SOL     OW23828   0.497   2.741   1.724
 2229SOL    HW123829   0.415   2.779   1.755
 2229SOL    HW223830   0.539   2.706   1.803
 2230SOL     OW23831   0.323   0.432   6.163
 2230SOL    HW123832   0.390   0.494   6.135
 2230SOL    HW223833   0.251   0.445   6.102
 2231SOL     OW23834   1.722   3.767   5.825
 2231SOL    HW123835   1.803   3.763   5.774
 2231SOL    HW223836   1.664   3.703   5.784
 2232SOL     OW23837   5.933   3.783   0.147
 2232SOL    HW123838   5.984   3.797   0.227
 2232SOL    HW223839   5.923   3.688   0.141
 2233SOL     OW23840   1.025   3.773   7.136
 2233SOL    HW123841   1.066   3.844   7.086
 2233SOL    HW223842   1.098   3.717   7.161
 2234SOL     OW23843   4.279   2.329   0.215
 2234SOL    HW123844   4.187   2.318   0.238
 2234SOL    HW223845   4.288   2.286   0.130
 2235SOL     OW23846   6.218   1.046   0.908
 2235SOL    HW123847   6.223   1.060   1.003
 2235SOL    HW223848   6.140   1.095   0.880
 2236SOL     OW23849   5.732   3.967   1.578
 2236SOL    HW123850   5.775   3.882   1.573
 2236SOL    HW223851   5.738   3.992   1.670
 2237SOL     OW23852   6.011   6.026   6.394
 2237SOL    HW123853   5.968   5.941   6.387
 2237SOL    HW223854   6.013   6.045   6.488
 2238SOL     OW23855   5.817   0.236   1.936
 2238SOL    HW123856   5.796   0.291   2.012
 2238SOL    HW223857   5.765   0.273   1.865
 2239SOL     OW23858   5.081   6.109   7.708
 2239SOL    HW123859   5.064   6.023   7.747
 2239SOL    HW223860   5.170   6.101   7.673
 2240SOL     OW23861   3.286   2.947   0.515
 2240SOL    HW123862   3.285   2.940   0.419
 2240SOL    HW223863   3.194   2.954   0.540
 2241SOL     OW23864   0.397   6.260   2.299
 2241SOL    HW123865   0.342   6.223   2.230
 2241SOL    HW223866   0.479   6.210   2.293
 2242SOL     OW23867   3.345   0.011   1.603
 2242SOL    HW123868   3.414   0.021   1.538
 2242SOL    HW223869   3.267   6.477   1.552
 2243SOL     OW23870   0.465   3.441   7.529
 2243SOL    HW123871   0.371   3.426   7.521
 2243SOL    HW223872   0.499   3.433   7.440
 2244SOL     OW23873   2.905   4.524   0.224
 2244SOL    HW123874   2.910   4.429   0.238
 2244SOL    HW223875   2.892   4.560   0.312
 2245SOL     OW23876   6.462   1.469   6.244
 2245SOL    HW123877   0.046   1.506   6.295
 2245SOL    HW223878   6.417   1.410   6.305
 2246SOL     OW23879   3.282   5.824   6.858
 2246SOL    HW123880   3.247   5.742   6.891
 2246SOL    HW223881   3.304   5.806   6.767
 2247SOL     OW23882   1.406   3.753   2.327
 2247SOL    HW123883   1.397   3.678   2.268
 2247SOL    HW223884   1.343   3.817   2.294
 2248SOL     OW23885   3.619   1.241   0.556
 2248SOL    HW123886   3.591   1.150   0.556
 2248SOL    HW223887   3.539   1.291   0.542
 2249SOL     OW23888   6.182   5.545   6.162
 2249SOL    HW123889   6.092   5.568   6.137
 2249SOL    HW223890   6.234   5.622   6.140
 2250SOL     OW23891   4.270   3.815   7.064
 2250SOL    HW123892   4.248   3.908   7.055
 2250SOL    HW223893   4.301   3.806   7.154
 2251SOL     OW23894   3.258   4.850   4.910
 2251SOL    HW123895   3.327   4.798   4.868
 2251SOL    HW223896   3.304   4.902   4.976
 2252SOL     OW23897   5.892   4.520   7.356
 2252SOL    HW123898   5.851   4.588   7.302
 2252SOL    HW223899   5.821   4.458   7.372
 2253SOL     OW23900   3.952   1.527   5.984
 2253SOL    HW123901   4.015   1.599   5.983
 2253SOL    HW223902   4.005   1.449   5.998
 2254SOL     OW23903   2.169   5.552   6.082
 2254SOL    HW123904   2.097   5.531   6.023
 2254SOL    HW223905   2.146   5.508   6.165
 2255SOL     OW23906   1.198   3.923   6.994
 2255SOL    HW123907   1.192   4.010   6.956
 2255SOL    HW223908   1.292   3.906   7.000
 2256SOL     OW23909   2.567   3.567   7.737
 2256SOL    HW123910   2.655   3.598   7.719
 2256SOL    HW223911   2.579   3.483   0.019
 2257SOL     OW23912   0.984   4.147   6.417
 2257SOL    HW123913   1.015   4.078   6.476
 2257SOL    HW223914   1.004   4.114   6.329
 2258SOL     OW23915   4.585   0.314   1.418
 2258SOL    HW123916   4.628   0.239   1.378
 2258SOL    HW223917   4.634   0.390   1.386
 2259SOL     OW23918   2.415   2.167   0.436
 2259SOL    HW123919   2.463   2.229   0.381
 2259SOL    HW223920   2.331   2.156   0.392
 2260SOL     OW23921   0.950   2.903   7.084
 2260SOL    HW123922   0.936   2.911   6.990
 2260SOL    HW223923   0.995   2.985   7.108
 2261SOL     OW23924   1.521   1.121   7.225
 2261SOL    HW123925   1.566   1.037   7.226
 2261SOL    HW223926   1.468   1.120   7.145
 2262SOL     OW23927   3.730   1.404   1.776
 2262SOL    HW123928   3.643   1.436   1.802
 2262SOL    HW223929   3.781   1.483   1.761
 2263SOL     OW23930   1.196   3.756   5.838
 2263SOL    HW123931   1.235   3.753   5.750
 2263SOL    HW223932   1.257   3.706   5.892
 2264SOL     OW23933   6.158   2.616   1.215
 2264SOL    HW123934   6.111   2.533   1.209
 2264SOL    HW223935   6.232   2.598   1.272
 2265SOL     OW23936   3.936   5.448   1.560
 2265SOL    HW123937   3.870   5.412   1.501
 2265SOL    HW223938   3.992   5.373   1.582
 2266SOL     OW23939   3.273   0.359   6.040
 2266SOL    HW123940   3.302   0.447   6.064
 2266SOL    HW223941   3.349   0.319   5.998
 2267SOL     OW23942   2.237   4.851   7.180
 2267SOL    HW123943   2.172   4.850   7.110
 2267SOL    HW223944   2.239   4.760   7.211
 2268SOL     OW23945   6.319   5.371   6.300
 2268SOL    HW123946   6.334   5.290   6.250
 2268SOL    HW223947   6.262   5.424   6.244
 2269SOL     OW23948   4.566   4.499   0.331
 2269SOL    HW123949   4.600   4.587   0.348
 2269SOL    HW223950   4.553   4.496   0.236
 2270SOL     OW23951   2.019   0.297   7.614
 2270SOL    HW123952   2.055   0.383   7.594
 2270SOL    HW223953   1.926   0.312   7.627
 2271SOL     OW23954   2.533   0.242   0.625
 2271SOL    HW123955   2.528   0.152   0.655
 2271SOL    HW223956   2.551   0.293   0.705
 2272SOL     OW23957   0.176   4.676   1.497
 2272SOL    HW123958   0.198   4.650   1.587
 2272SOL    HW223959   0.255   4.721   1.466
 2273SOL     OW23960   2.042   0.887   1.650
 2273SOL    HW123961   1.968   0.898   1.709
 2273SOL    HW223962   2.060   0.793   1.651
 2274SOL     OW23963   5.501   1.825   6.309
 2274SOL    HW123964   5.492   1.755   6.374
 2274SOL    HW223965   5.590   1.814   6.275
 2275SOL     OW23966   3.834   2.475   6.691
 2275SOL    HW123967   3.916   2.427   6.683
 2275SOL    HW223968   3.841   2.522   6.774
 2276SOL     OW23969   3.363   4.094   1.195
 2276SOL    HW123970   3.337   4.167   1.139
 2276SOL    HW223971   3.347   4.016   1.141
 2277SOL     OW23972   4.772   1.133   1.662
 2277SOL    HW123973   4.808   1.118   1.750
 2277SOL    HW223974   4.845   1.169   1.612
 2278SOL     OW23975   2.212   5.984   0.136
 2278SOL    HW123976   2.179   5.898   0.111
 2278SOL    HW223977   2.163   6.045   0.080
 2279SOL     OW23978   1.282   2.775   7.470
 2279SOL    HW123979   1.349   2.707   7.482
 2279SOL    HW223980   1.232   2.746   7.393
 2280SOL     OW23981   4.329   2.213   1.748
 2280SOL    HW123982   4.408   2.162   1.728
 2280SOL    HW223983   4.336   2.291   1.693
 2281SOL     OW23984   5.503   5.723   1.016
 2281SOL    HW123985   5.454   5.805   1.025
 2281SOL    HW223986   5.531   5.702   1.105
 2282SOL     OW23987   2.951   0.377   0.322
 2282SOL    HW123988   2.863   0.415   0.330
 2282SOL    HW223989   2.990   0.388   0.409
 2283SOL     OW23990   4.411   2.452   6.486
 2283SOL    HW123991   4.392   2.478   6.396
 2283SOL    HW223992   4.494   2.494   6.506
 2284SOL     OW23993   4.133   1.117   0.458
 2284SOL    HW123994   4.224   1.088   0.461
 2284SOL    HW223995   4.108   1.129   0.550
 2285SOL     OW23996   3.370   0.515   1.031
 2285SOL    HW123997   3.362   0.459   1.108
 2285SOL    HW223998   3.294   0.573   1.036
 2286SOL     OW23999   3.290   1.813   1.640
 2286SOL    HW124000   3.262   1.802   1.549
 2286SOL    HW224001   3.312   1.724   1.669
 2287SOL     OW24002   4.370   4.986   7.312
 2287SOL    HW124003   4.311   5.000   7.238
 2287SOL    HW224004   4.411   5.071   7.327
 2288SOL     OW24005   6.020   5.682   1.703
 2288SOL    HW124006   6.049   5.706   1.791
 2288SOL    HW224007   5.965   5.756   1.675
 2289SOL     OW24008   3.833   2.154   1.425
 2289SOL    HW124009   3.802   2.241   1.400
 2289SOL    HW224010   3.797   2.140   1.512
 2290SOL     OW24011   0.224   4.900   0.264
 2290SOL    HW124012   0.228   4.970   0.199
 2290SOL    HW224013   0.255   4.822   0.217
 2291SOL     OW24014   2.706   6.204   7.276
 2291SOL    HW124015   2.796   6.229   7.300
 2291SOL    HW224016   2.707   6.201   7.181
 2292SOL     OW24017   4.862   3.408   7.372
 2292SOL    HW124018   4.771   3.389   7.395
 2292SOL    HW224019   4.866   3.504   7.369
 2293SOL     OW24020   6.415   6.242   2.010
 2293SOL    HW124021   6.339   6.226   1.954
 2293SOL    HW224022   6.451   6.155   2.027
 2294SOL     OW24023   4.258   1.980   1.563
 2294SOL    HW124024   4.334   2.005   1.615
 2294SOL    HW224025   4.214   2.063   1.544
 2295SOL     OW24026   1.203   3.096   7.437
 2295SOL    HW124027   1.192   3.190   7.423
 2295SOL    HW224028   1.127   3.071   7.489
 2296SOL     OW24029   0.732   5.016   0.594
 2296SOL    HW124030   0.639   5.011   0.571
 2296SOL    HW224031   0.764   5.095   0.551
 2297SOL     OW24032   4.049   4.337   0.191
 2297SOL    HW124033   4.093   4.410   0.235
 2297SOL    HW224034   4.063   4.262   0.249
 2298SOL     OW24035   1.495   2.146   7.298
 2298SOL    HW124036   1.463   2.219   7.351
 2298SOL    HW224037   1.540   2.089   7.360
 2299SOL     OW24038   5.335   4.222   6.925
 2299SOL    HW124039   5.329   4.245   6.832
 2299SOL    HW224040   5.246   4.234   6.958
 2300SOL     OW24041   2.948   0.181   7.611
 2300SOL    HW124042   2.897   0.113   7.566
 2300SOL    HW224043   3.017   0.133   7.657
 2301SOL     OW24044   1.866   5.945   6.370
 2301SOL    HW124045   1.777   5.910   6.372
 2301SOL    HW224046   1.902   5.923   6.456
 2302SOL     OW24047   1.978   3.027   5.895
 2302SOL    HW124048   1.983   2.941   5.853
 2302SOL    HW224049   1.923   3.079   5.836
 2303SOL     OW24050   1.131   2.767   0.157
 2303SOL    HW124051   1.141   2.824   0.080
 2303SOL    HW224052   1.182   2.688   0.134
 2304SOL     OW24053   2.875   2.816   1.242
 2304SOL    HW124054   2.924   2.800   1.323
 2304SOL    HW224055   2.943   2.832   1.177
 2305SOL     OW24056   4.599   3.919   7.131
 2305SOL    HW124057   4.528   3.885   7.185
 2305SOL    HW224058   4.593   3.869   7.049
 2306SOL     OW24059   0.387   5.342   0.199
 2306SOL    HW124060   0.443   5.384   0.134
 2306SOL    HW224061   0.427   5.256   0.214
 2307SOL     OW24062   2.685   0.842   7.331
 2307SOL    HW124063   2.775   0.814   7.315
 2307SOL    HW224064   2.664   0.809   7.419
 2308SOL     OW24065   0.869   1.100   0.518
 2308SOL    HW124066   0.919   1.178   0.495
 2308SOL    HW224067   0.822   1.123   0.598
 2309SOL     OW24068   0.539   6.482   1.522
 2309SOL    HW124069   0.568   0.083   1.506
 2309SOL    HW224070   0.527   6.477   1.617
 2310SOL     OW24071   1.226   3.359   7.367
 2310SOL    HW124072   1.254   3.425   7.430
 2310SOL    HW224073   1.140   3.389   7.336
 2311SOL     OW24074   5.696   0.853   0.055
 2311SOL    HW124075   5.781   0.861   0.098
 2311SOL    HW224076   5.706   0.903   7.735
 2312SOL     OW24077   3.174   0.610   1.201
 2312SOL    HW124078   3.103   0.568   1.153
 2312SOL    HW224079   3.131   0.680   1.251
 2313SOL     OW24080   1.886   1.914   6.230
 2313SOL    HW124081   1.849   1.829   6.204
 2313SOL    HW224082   1.967   1.921   6.181
 2314SOL     OW24083   3.819   3.164   1.768
 2314SOL    HW124084   3.838   3.093   1.829
 2314SOL    HW224085   3.896   3.167   1.710
 2315SOL     OW24086   2.842   4.137   0.860
 2315SOL    HW124087   2.791   4.218   0.853
 2315SOL    HW224088   2.933   4.166   0.866
 2316SOL     OW24089   4.955   5.249   0.247
 2316SOL    HW124090   5.031   5.227   0.194
 2316SOL    HW224091   4.883   5.254   0.184
 2317SOL     OW24092   1.751   1.192   6.607
 2317SOL    HW124093   1.823   1.251   6.584
 2317SOL    HW224094   1.717   1.227   6.689
 2318SOL     OW24095   3.205   2.014   6.449
 2318SOL    HW124096   3.278   2.022   6.510
 2318SOL    HW224097   3.130   2.050   6.497
 2319SOL     OW24098   1.011   5.658   1.229
 2319SOL    HW124099   0.916   5.652   1.235
 2319SOL    HW224100   1.034   5.598   1.157
 2320SOL     OW24101   3.169   5.737   0.102
 2320SOL    HW124102   3.209   5.813   0.061
 2320SOL    HW224103   3.190   5.745   0.195
 2321SOL     OW24104   5.273   2.420   0.968
 2321SOL    HW124105   5.313   2.481   1.030
 2321SOL    HW224106   5.248   2.475   0.893
 2322SOL     OW24107   2.876   5.003   0.961
 2322SOL    HW124108   2.937   4.929   0.965
 2322SOL    HW224109   2.814   4.986   1.031
 2323SOL     OW24110   5.603   2.175   6.591
 2323SOL    HW124111   5.537   2.242   6.607
 2323SOL    HW224112   5.669   2.189   6.658
 2324SOL     OW24113   2.180   2.502   0.802
 2324SOL    HW124114   2.238   2.551   0.743
 2324SOL    HW224115   2.165   2.419   0.757
 2325SOL     OW24116   0.955   1.568   1.338
 2325SOL    HW124117   1.043   1.606   1.347
 2325SOL    HW224118   0.896   1.641   1.360
 2326SOL     OW24119   5.810   2.993   5.580
 2326SOL    HW124120   5.904   2.997   5.559
 2326SOL    HW224121   5.767   3.009   5.496
 2327SOL     OW24122   0.697   0.932   6.950
 2327SOL    HW124123   0.675   0.953   7.041
 2327SOL    HW224124   0.623   0.879   6.920
 2328SOL     OW24125   5.843   5.368   2.266
 2328SOL    HW124126   5.873   5.322   2.345
 2328SOL    HW224127   5.899   5.446   2.262
 2329SOL     OW24128   1.469   3.721   0.913
 2329SOL    HW124129   1.478   3.642   0.966
 2329SOL    HW224130   1.493   3.793   0.972
 2330SOL     OW24131   4.647   0.991   0.235
 2330SOL    HW124132   4.697   1.071   0.217
 2330SOL    HW224133   4.710   0.933   0.278
 2331SOL     OW24134   0.064   5.081   1.641
 2331SOL    HW124135   0.118   5.002   1.643
 2331SOL    HW224136   6.482   5.063   1.703
 2332SOL     OW24137   2.363   0.918   0.977
 2332SOL    HW124138   2.374   1.004   1.020
 2332SOL    HW224139   2.449   0.877   0.983
 2333SOL     OW24140   0.481   0.829   7.185
 2333SOL    HW124141   0.417   0.862   7.248
 2333SOL    HW224142   0.523   0.756   7.229
 2334SOL     OW24143   4.467   0.674   7.366
 2334SOL    HW124144   4.436   0.613   7.299
 2334SOL    HW224145   4.454   0.628   7.448
 2335SOL     OW24146   5.652   1.779   6.727
 2335SOL    HW124147   5.688   1.837   6.660
 2335SOL    HW224148   5.558   1.799   6.728
 2336SOL     OW24149   3.318   3.783   7.601
 2336SOL    HW124150   3.394   3.800   7.544
 2336SOL    HW224151   3.348   3.810   7.688
 2337SOL     OW24152   0.708   0.035   6.760
 2337SOL    HW124153   0.626   0.059   6.718
 2337SOL    HW224154   0.774   0.091   6.719
 2338SOL     OW24155   1.035   6.082   7.308
 2338SOL    HW124156   0.942   6.104   7.299
 2338SOL    HW224157   1.052   6.021   7.237
 2339SOL     OW24158   4.208   0.683   0.348
 2339SOL    HW124159   4.144   0.754   0.341
 2339SOL    HW224160   4.293   0.725   0.336
 2340SOL     OW24161   4.602   5.261   7.561
 2340SOL    HW124162   4.536   5.282   7.495
 2340SOL    HW224163   4.573   5.177   7.598
 2341SOL     OW24164   0.198   0.024   5.697
 2341SOL    HW124165   0.271   6.452   5.686
 2341SOL    HW224166   0.218   0.097   5.638
 2342SOL     OW24167   3.867   5.877   7.685
 2342SOL    HW124168   3.885   5.945   7.619
 2342SOL    HW224169   3.823   5.808   7.636
 2343SOL     OW24170   5.175   6.339   7.344
 2343SOL    HW124171   5.256   6.290   7.358
 2343SOL    HW224172   5.165   6.343   7.249
 2344SOL     OW24173   0.444   5.614   1.702
 2344SOL    HW124174   0.505   5.565   1.756
 2344SOL    HW224175   0.362   5.564   1.707
 2345SOL     OW24176   5.334   0.470   6.682
 2345SOL    HW124177   5.339   0.481   6.777
 2345SOL    HW224178   5.269   0.536   6.654
 2346SOL     OW24179   1.498   1.188   1.036
 2346SOL    HW124180   1.490   1.093   1.034
 2346SOL    HW224181   1.420   1.218   1.083
 2347SOL     OW24182   4.092   1.430   1.302
 2347SOL    HW124183   4.163   1.366   1.300
 2347SOL    HW224184   4.012   1.378   1.297
 2348SOL     OW24185   1.470   4.245   0.628
 2348SOL    HW124186   1.449   4.152   0.630
 2348SOL    HW224187   1.428   4.281   0.706
 2349SOL     OW24188   2.212   4.942   6.664
 2349SOL    HW124189   2.245   4.867   6.616
 2349SOL    HW224190   2.119   4.946   6.642
 2350SOL     OW24191   1.319   4.071   1.303
 2350SOL    HW124192   1.291   4.162   1.311
 2350SOL    HW224193   1.285   4.044   1.217
 2351SOL     OW24194   1.502   4.056   7.721
 2351SOL    HW124195   1.592   4.039   7.691
 2351SOL    HW224196   1.447   4.007   7.660
 2352SOL     OW24197   1.608   3.788   0.667
 2352SOL    HW124198   1.701   3.779   0.646
 2352SOL    HW224199   1.598   3.741   0.749
 2353SOL     OW24200   4.835   3.374   5.994
 2353SOL    HW124201   4.896   3.444   5.972
 2353SOL    HW224202   4.765   3.418   6.043
 2354SOL     OW24203   4.191   3.151   6.952
 2354SOL    HW124204   4.116   3.107   6.912
 2354SOL    HW224205   4.168   3.244   6.949
 2355SOL     OW24206   2.640   2.285   1.191
 2355SOL    HW124207   2.551   2.281   1.155
 2355SOL    HW224208   2.633   2.242   1.276
 2356SOL     OW24209   4.042   3.172   1.595
 2356SOL    HW124210   4.081   3.258   1.611
 2356SOL    HW224211   4.108   3.109   1.625
 2357SOL     OW24212   3.688   3.197   7.337
 2357SOL    HW124213   3.679   3.277   7.285
 2357SOL    HW224214   3.598   3.173   7.359
 2358SOL     OW24215   4.230   0.133   0.700
 2358SOL    HW124216   4.140   0.165   0.700
 2358SOL    HW224217   4.264   0.156   0.613
 2359SOL     OW24218   1.147   5.064   6.421
 2359SOL    HW124219   1.233   5.105   6.431
 2359SOL    HW224220   1.086   5.137   6.411
 2360SOL     OW24221   3.452   5.021   5.651
 2360SOL    HW124222   3.381   4.983   5.600
 2360SOL    HW224223   3.419   5.023   5.741
 2361SOL     OW24224   4.543   1.505   7.398
 2361SOL    HW124225   4.609   1.446   7.360
 2361SOL    HW224226   4.552   1.586   7.348
 2362SOL     OW24227   1.714   1.530   0.701
 2362SOL    HW124228   1.655   1.460   0.673
 2362SOL    HW224229   1.703   1.535   0.796
 2363SOL     OW24230   4.988   0.451   1.972
 2363SOL    HW124231   4.950   0.394   1.904
 2363SOL    HW224232   5.042   0.392   2.024
 2364SOL     OW24233   6.061   2.095   0.329
 2364SOL    HW124234   6.031   2.050   0.250
 2364SOL    HW224235   6.065   2.027   0.395
 2365SOL     OW24236   1.731   5.635   6.754
 2365SOL    HW124237   1.731   5.541   6.736
 2365SOL    HW224238   1.819   5.653   6.787
 2366SOL     OW24239   3.084   0.194   2.259
 2366SOL    HW124240   3.121   0.118   2.304
 2366SOL    HW224241   3.158   0.236   2.216
 2367SOL     OW24242   0.497   0.244   7.610
 2367SOL    HW124243   0.544   0.245   7.693
 2367SOL    HW224244   0.404   0.243   7.634
 2368SOL     OW24245   5.247   3.994   6.694
 2368SOL    HW124246   5.281   3.979   6.782
 2368SOL    HW224247   5.161   4.034   6.708
 2369SOL     OW24248   1.997   1.867   0.418
 2369SOL    HW124249   1.989   1.915   0.335
 2369SOL    HW224250   2.063   1.799   0.401
 2370SOL     OW24251   2.593   4.762   0.094
 2370SOL    HW124252   2.568   4.802   0.011
 2370SOL    HW224253   2.552   4.818   0.160
 2371SOL     OW24254   2.273   5.695   5.801
 2371SOL    HW124255   2.196   5.681   5.856
 2371SOL    HW224256   2.246   5.763   5.739
 2372SOL     OW24257   6.249   6.333   0.084
 2372SOL    HW124258   6.205   6.295   0.008
 2372SOL    HW224259   6.329   6.372   0.049
 2373SOL     OW24260   1.546   1.302   1.994
 2373SOL    HW124261   1.616   1.312   2.059
 2373SOL    HW224262   1.469   1.279   2.045
 2374SOL     OW24263   5.666   1.180   0.764
 2374SOL    HW124264   5.660   1.275   0.769
 2374SOL    HW224265   5.653   1.160   0.671
 2375SOL     OW24266   0.667   3.172   7.049
 2375SOL    HW124267   0.574   3.160   7.069
 2375SOL    HW224268   0.710   3.103   7.100
 2376SOL     OW24269   3.773   3.934   5.671
 2376SOL    HW124270   3.782   4.029   5.675
 2376SOL    HW224271   3.710   3.919   5.601
 2377SOL     OW24272   4.675   1.784   7.286
 2377SOL    HW124273   4.721   1.857   7.245
 2377SOL    HW224274   4.744   1.730   7.324
 2378SOL     OW24275   3.286   3.685   2.352
 2378SOL    HW124276   3.209   3.661   2.301
 2378SOL    HW224277   3.284   3.780   2.357
 2379SOL     OW24278   5.163   6.198   6.380
 2379SOL    HW124279   5.138   6.148   6.302
 2379SOL    HW224280   5.218   6.139   6.431
 2380SOL     OW24281   4.652   4.447   7.558
 2380SOL    HW124282   4.679   4.538   7.546
 2380SOL    HW224283   4.586   4.432   7.490
 2381SOL     OW24284   5.890   2.714   7.029
 2381SOL    HW124285   5.885   2.742   7.120
 2381SOL    HW224286   5.923   2.790   6.982
 2382SOL     OW24287   1.876   2.437   0.828
 2382SOL    HW124288   1.781   2.431   0.814
 2382SOL    HW224289   1.902   2.348   0.853
 2383SOL     OW24290   4.367   2.895   0.125
 2383SOL    HW124291   4.328   2.970   0.170
 2383SOL    HW224292   4.310   2.880   0.050
 2384SOL     OW24293   5.793   2.149   2.478
 2384SOL    HW124294   5.846   2.069   2.480
 2384SOL    HW224295   5.856   2.219   2.462
 2385SOL     OW24296   4.701   5.058   6.753
 2385SOL    HW124297   4.724   4.972   6.717
 2385SOL    HW224298   4.609   5.049   6.779
 2386SOL     OW24299   1.010   3.045   2.186
 2386SOL    HW124300   1.045   3.117   2.134
 2386SOL    HW224301   1.087   2.992   2.209
 2387SOL     OW24302   3.622   1.838   5.249
 2387SOL    HW124303   3.713   1.831   5.278
 2387SOL    HW224304   3.580   1.761   5.287
 2388SOL     OW24305   3.527   1.881   7.202
 2388SOL    HW124306   3.505   1.790   7.220
 2388SOL    HW224307   3.497   1.929   7.279
 2389SOL     OW24308   1.952   3.036   0.324
 2389SOL    HW124309   1.906   3.063   0.403
 2389SOL    HW224310   1.968   2.942   0.337
 2390SOL     OW24311   1.946   3.033   7.270
 2390SOL    HW124312   1.923   3.050   7.362
 2390SOL    HW224313   1.910   2.946   7.253
 2391SOL     OW24314   3.945   3.294   7.432
 2391SOL    HW124315   3.924   3.381   7.398
 2391SOL    HW224316   3.863   3.245   7.426
 2392SOL     OW24317   4.589   5.203   0.677
 2392SOL    HW124318   4.501   5.209   0.716
 2392SOL    HW224319   4.608   5.292   0.647
 2393SOL     OW24320   6.264   6.077   2.232
 2393SOL    HW124321   6.325   6.087   2.159
 2393SOL    HW224322   6.222   6.163   2.240
 2394SOL     OW24323   3.689   1.352   7.167
 2394SOL    HW124324   3.730   1.282   7.219
 2394SOL    HW224325   3.758   1.381   7.108
 2395SOL     OW24326   3.347   4.549   6.677
 2395SOL    HW124327   3.375   4.560   6.768
 2395SOL    HW224328   3.427   4.527   6.630
 2396SOL     OW24329   0.151   3.909   1.440
 2396SOL    HW124330   0.227   3.926   1.385
 2396SOL    HW224331   0.187   3.902   1.528
 2397SOL     OW24332   3.839   2.202   6.134
 2397SOL    HW124333   3.808   2.152   6.058
 2397SOL    HW224334   3.760   2.238   6.173
 2398SOL     OW24335   3.583   0.564   6.058
 2398SOL    HW124336   3.601   0.655   6.079
 2398SOL    HW224337   3.488   0.556   6.066
 2399SOL     OW24338   6.379   4.830   7.531
 2399SOL    HW124339   6.324   4.896   7.489
 2399SOL    HW224340   6.467   4.868   7.529
 2400SOL     OW24341   4.172   3.311   0.637
 2400SOL    HW124342   4.113   3.343   0.569
 2400SOL    HW224343   4.117   3.254   0.691
 2401SOL     OW24344   3.500   0.847   2.522
 2401SOL    HW124345   3.413   0.817   2.547
 2401SOL    HW224346   3.541   0.771   2.481
 2402SOL     OW24347   2.469   2.915   1.589
 2402SOL    HW124348   2.423   2.906   1.506
 2402SOL    HW224349   2.486   3.009   1.598
 2403SOL     OW24350   1.900   0.248   1.782
 2403SOL    HW124351   1.921   0.335   1.816
 2403SOL    HW224352   1.855   0.266   1.699
 2404SOL     OW24353   6.320   6.419   6.390
 2404SOL    HW124354   6.271   0.010   6.411
 2404SOL    HW224355   6.270   6.348   6.431
 2405SOL     OW24356   4.266   1.055   7.186
 2405SOL    HW124357   4.217   0.973   7.187
 2405SOL    HW224358   4.261   1.085   7.096
 2406SOL     OW24359   0.372   3.838   0.143
 2406SOL    HW124360   0.451   3.789   0.164
 2406SOL    HW224361   0.336   3.865   0.227
 2407SOL     OW24362   6.012   3.599   7.137
 2407SOL    HW124363   5.993   3.596   7.230
 2407SOL    HW224364   5.955   3.532   7.098
 2408SOL     OW24365   5.211   0.279   5.635
 2408SOL    HW124366   5.213   0.215   5.565
 2408SOL    HW224367   5.163   0.353   5.599
 2409SOL     OW24368   4.795   6.388   6.251
 2409SOL    HW124369   4.792   6.314   6.311
 2409SOL    HW224370   4.746   6.360   6.174
 2410SOL     OW24371   5.284   3.453   7.119
 2410SOL    HW124372   5.221   3.384   7.138
 2410SOL    HW224373   5.291   3.454   7.024
 2411SOL     OW24374   5.705   0.487   1.436
 2411SOL    HW124375   5.679   0.548   1.505
 2411SOL    HW224376   5.794   0.460   1.461
 2412SOL     OW24377   0.204   5.321   1.491
 2412SOL    HW124378   0.179   5.372   1.415
 2412SOL    HW224379   0.121   5.307   1.538
 2413SOL     OW24380   4.313   3.832   0.289
 2413SOL    HW124381   4.263   3.867   0.215
 2413SOL    HW224382   4.387   3.786   0.248
 2414SOL     OW24383   6.369   5.980   1.407
 2414SOL    HW124384   6.284   6.021   1.420
 2414SOL    HW224385   6.349   5.897   1.364
 2415SOL     OW24386   5.513   0.972   7.505
 2415SOL    HW124387   5.482   0.988   7.416
 2415SOL    HW224388   5.440   1.000   7.561
 2416SOL     OW24389   5.643   0.602   1.109
 2416SOL    HW124390   5.639   0.567   1.198
 2416SOL    HW224391   5.561   0.651   1.100
 2417SOL     OW24392   1.542   2.675   1.218
 2417SOL    HW124393   1.448   2.693   1.213
 2417SOL    HW224394   1.583   2.759   1.197
 2418SOL     OW24395   5.412   5.147   7.076
 2418SOL    HW124396   5.413   5.215   7.143
 2418SOL    HW224397   5.385   5.193   6.996
 2419SOL     OW24398   3.270   6.035   6.429
 2419SOL    HW124399   3.247   5.957   6.379
 2419SOL    HW224400   3.333   6.081   6.373
 2420SOL     OW24401   6.167   5.199   0.662
 2420SOL    HW124402   6.082   5.236   0.686
 2420SOL    HW224403   6.148   5.137   0.592
 2421SOL     OW24404   1.695   2.334   6.819
 2421SOL    HW124405   1.646   2.252   6.811
 2421SOL    HW224406   1.693   2.371   6.731
 2422SOL     OW24407   3.102   5.516   1.573
 2422SOL    HW124408   3.036   5.544   1.637
 2422SOL    HW224409   3.148   5.596   1.549
 2423SOL     OW24410   5.945   0.053   2.176
 2423SOL    HW124411   5.944   0.084   2.085
 2423SOL    HW224412   5.873   6.478   2.180
 2424SOL     OW24413   5.525   2.259   0.154
 2424SOL    HW124414   5.601   2.218   0.113
 2424SOL    HW224415   5.551   2.273   0.245
 2425SOL     OW24416   1.422   2.741   6.681
 2425SOL    HW124417   1.518   2.738   6.673
 2425SOL    HW224418   1.391   2.684   6.611
 2426SOL     OW24419   1.618   1.933   7.747
 2426SOL    HW124420   1.634   2.027   7.739
 2426SOL    HW224421   1.551   1.926   0.054
 2427SOL     OW24422   1.636   5.525   7.261
 2427SOL    HW124423   1.591   5.461   7.317
 2427SOL    HW224424   1.705   5.475   7.218
 2428SOL     OW24425   2.022   3.549   7.050
 2428SOL    HW124426   2.019   3.459   7.082
 2428SOL    HW224427   2.071   3.545   6.968
 2429SOL     OW24428   2.283   5.332   5.715
 2429SOL    HW124429   2.249   5.311   5.802
 2429SOL    HW224430   2.247   5.418   5.694
 2430SOL     OW24431   3.286   1.254   6.182
 2430SOL    HW124432   3.312   1.163   6.197
 2430SOL    HW224433   3.197   1.260   6.217
 2431SOL     OW24434   5.758   0.562   6.416
 2431SOL    HW124435   5.688   0.522   6.468
 2431SOL    HW224436   5.715   0.635   6.372
 2432SOL     OW24437   1.852   5.302   5.525
 2432SOL    HW124438   1.943   5.276   5.539
 2432SOL    HW224439   1.853   5.397   5.526
 2433SOL     OW24440   5.607   4.001   0.140
 2433SOL    HW124441   5.684   4.038   0.184
 2433SOL    HW224442   5.536   4.060   0.165
 2434SOL     OW24443   4.739   1.307   6.668
 2434SOL    HW124444   4.707   1.392   6.638
 2434SOL    HW224445   4.828   1.303   6.635
 2435SOL     OW24446   3.273   5.827   0.801
 2435SOL    HW124447   3.335   5.847   0.731
 2435SOL    HW224448   3.206   5.774   0.758
 2436SOL     OW24449   0.584   5.594   5.679
 2436SOL    HW124450   0.498   5.625   5.653
 2436SOL    HW224451   0.574   5.499   5.689
 2437SOL     OW24452   1.091   1.396   5.795
 2437SOL    HW124453   1.057   1.423   5.880
 2437SOL    HW224454   1.149   1.468   5.769
 2438SOL     OW24455   3.032   0.663   1.616
 2438SOL    HW124456   2.938   0.676   1.630
 2438SOL    HW224457   3.070   0.666   1.704
 2439SOL     OW24458   1.825   1.666   6.108
 2439SOL    HW124459   1.742   1.677   6.063
 2439SOL    HW224460   1.869   1.595   6.061
 2440SOL     OW24461   1.609   4.866   7.366
 2440SOL    HW124462   1.679   4.816   7.409
 2440SOL    HW224463   1.551   4.892   7.437
 2441SOL     OW24464   0.274   5.319   0.764
 2441SOL    HW124465   0.224   5.363   0.833
 2441SOL    HW224466   0.208   5.268   0.716
 2442SOL     OW24467   1.546   3.880   6.278
 2442SOL    HW124468   1.627   3.894   6.328
 2442SOL    HW224469   1.567   3.909   6.189
 2443SOL     OW24470   2.630   3.300   5.374
 2443SOL    HW124471   2.689   3.273   5.444
 2443SOL    HW224472   2.585   3.220   5.347
 2444SOL     OW24473   3.031   3.497   0.968
 2444SOL    HW124474   3.078   3.567   0.922
 2444SOL    HW224475   3.063   3.416   0.926
 2445SOL     OW24476   6.226   3.195   2.352
 2445SOL    HW124477   6.316   3.187   2.383
 2445SOL    HW224478   6.206   3.110   2.313
 2446SOL     OW24479   1.737   0.053   0.075
 2446SOL    HW124480   1.775   0.050   7.748
 2446SOL    HW224481   1.770   0.135   0.112
 2447SOL     OW24482   5.801   2.814   0.438
 2447SOL    HW124483   5.736   2.805   0.369
 2447SOL    HW224484   5.750   2.819   0.519
 2448SOL     OW24485   1.093   1.210   6.850
 2448SOL    HW124486   1.133   1.208   6.763
 2448SOL    HW224487   1.011   1.160   6.839
 2449SOL     OW24488   3.598   2.364   2.022
 2449SOL    HW124489   3.614   2.394   2.112
 2449SOL    HW224490   3.571   2.272   2.033
 2450SOL     OW24491   0.050   1.658   0.011
 2450SOL    HW124492   6.466   1.596   7.759
 2450SOL    HW224493   0.078   1.642   0.101
 2451SOL     OW24494   4.605   4.114   1.077
 2451SOL    HW124495   4.543   4.150   1.140
 2451SOL    HW224496   4.688   4.155   1.099
 2452SOL     OW24497   0.194   2.987   1.603
 2452SOL    HW124498   0.287   3.007   1.610
 2452SOL    HW224499   0.191   2.897   1.570
 2453SOL     OW24500   0.291   6.440   6.946
 2453SOL    HW124501   0.310   0.042   6.973
 2453SOL    HW224502   0.278   6.445   6.852
 2454SOL     OW24503   1.228   2.351   6.210
 2454SOL    HW124504   1.280   2.325   6.134
 2454SOL    HW224505   1.139   2.360   6.177
 2455SOL     OW24506   0.135   3.809   0.864
 2455SOL    HW124507   0.185   3.861   0.800
 2455SOL    HW224508   0.090   3.874   0.918
 2456SOL     OW24509   5.175   3.177   6.385
 2456SOL    HW124510   5.235   3.130   6.443
 2456SOL    HW224511   5.224   3.186   6.303
 2457SOL     OW24512   5.276   6.012   0.129
 2457SOL    HW124513   5.312   6.047   0.048
 2457SOL    HW224514   5.351   5.968   0.171
 2458SOL     OW24515   2.445   4.458   7.071
 2458SOL    HW124516   2.505   4.385   7.060
 2458SOL    HW224517   2.502   4.535   7.081
 2459SOL     OW24518   5.398   3.806   1.779
 2459SOL    HW124519   5.363   3.891   1.807
 2459SOL    HW224520   5.382   3.804   1.684
 2460SOL     OW24521   5.336   3.130   0.766
 2460SOL    HW124522   5.380   3.146   0.850
 2460SOL    HW224523   5.349   3.211   0.716
 2461SOL     OW24524   6.026   2.969   6.919
 2461SOL    HW124525   6.063   2.989   6.833
 2461SOL    HW224526   5.992   3.052   6.951
 2462SOL     OW24527   0.527   5.423   7.308
 2462SOL    HW124528   0.506   5.512   7.337
 2462SOL    HW224529   0.518   5.369   7.386
 2463SOL     OW24530   6.108   3.307   7.437
 2463SOL    HW124531   6.124   3.333   7.346
 2463SOL    HW224532   6.171   3.358   7.488
 2464SOL     OW24533   6.356   1.946   0.400
 2464SOL    HW124534   6.362   2.025   0.454
 2464SOL    HW224535   6.407   1.966   0.322
 2465SOL     OW24536   3.094   0.541   7.468
 2465SOL    HW124537   3.170   0.483   7.467
 2465SOL    HW224538   3.095   0.582   7.381
 2466SOL     OW24539   4.764   5.167   6.997
 2466SOL    HW124540   4.757   5.101   7.066
 2466SOL    HW224541   4.739   5.121   6.917
 2467SOL     OW24542   3.909   1.312   7.661
 2467SOL    HW124543   3.948   1.225   7.662
 2467SOL    HW224544   3.867   1.318   7.575
 2468SOL     OW24545   2.563   6.331   1.513
 2468SOL    HW124546   2.577   6.241   1.483
 2468SOL    HW224547   2.476   6.354   1.480
 2469SOL     OW24548   3.037   2.882   6.744
 2469SOL    HW124549   2.991   2.857   6.665
 2469SOL    HW224550   2.976   2.939   6.791
 2470SOL     OW24551   5.276   5.274   0.528
 2470SOL    HW124552   5.337   5.336   0.486
 2470SOL    HW224553   5.315   5.257   0.614
 2471SOL     OW24554   2.754   3.267   0.017
 2471SOL    HW124555   2.731   3.307   7.695
 2471SOL    HW224556   2.847   3.289   0.029
 2472SOL     OW24557   1.832   5.000   6.939
 2472SOL    HW124558   1.748   5.046   6.939
 2472SOL    HW224559   1.865   5.011   6.849
 2473SOL     OW24560   4.697   0.808   1.080
 2473SOL    HW124561   4.647   0.731   1.055
 2473SOL    HW224562   4.720   0.793   1.172
 2474SOL     OW24563   4.370   5.194   0.164
 2474SOL    HW124564   4.431   5.234   0.227
 2474SOL    HW224565   4.308   5.146   0.218
 2475SOL     OW24566   0.834   3.521   5.343
 2475SOL    HW124567   0.742   3.507   5.363
 2475SOL    HW224568   0.866   3.435   5.315
 2476SOL     OW24569   1.774   4.353   7.273
 2476SOL    HW124570   1.854   4.301   7.283
 2476SOL    HW224571   1.719   4.326   7.346
 2477SOL     OW24572   1.369   3.840   6.514
 2477SOL    HW124573   1.413   3.886   6.443
 2477SOL    HW224574   1.391   3.891   6.592
 2478SOL     OW24575   5.291   1.670   2.740
 2478SOL    HW124576   5.327   1.669   2.651
 2478SOL    HW224577   5.197   1.673   2.727
 2479SOL     OW24578   6.386   5.581   0.215
 2479SOL    HW124579   6.369   5.577   0.121
 2479SOL    HW224580   6.408   5.673   0.232
 2480SOL     OW24581   3.166   1.903   6.209
 2480SOL    HW124582   3.216   1.822   6.205
 2480SOL    HW224583   3.172   1.931   6.300
 2481SOL     OW24584   5.986   1.806   7.027
 2481SOL    HW124585   6.021   1.890   6.997
 2481SOL    HW224586   6.020   1.796   7.116
 2482SOL     OW24587   4.580   4.685   0.095
 2482SOL    HW124588   4.531   4.674   0.013
 2482SOL    HW224589   4.576   4.779   0.113
 2483SOL     OW24590   2.850   3.869   7.584
 2483SOL    HW124591   2.929   3.868   7.531
 2483SOL    HW224592   2.782   3.906   7.527
 2484SOL     OW24593   3.799   4.707   6.085
 2484SOL    HW124594   3.874   4.657   6.117
 2484SOL    HW224595   3.773   4.662   6.005
 2485SOL     OW24596   6.334   1.133   0.474
 2485SOL    HW124597   6.266   1.100   0.414
 2485SOL    HW224598   6.371   1.055   0.514
 2486SOL     OW24599   2.370   5.798   1.372
 2486SOL    HW124600   2.359   5.703   1.373
 2486SOL    HW224601   2.437   5.816   1.438
 2487SOL     OW24602   2.821   2.327   0.199
 2487SOL    HW124603   2.727   2.343   0.202
 2487SOL    HW224604   2.829   2.237   0.166
 2488SOL     OW24605   2.708   2.908   0.978
 2488SOL    HW124606   2.698   2.872   1.066
 2488SOL    HW224607   2.792   2.954   0.981
 2489SOL     OW24608   5.646   4.708   6.903
 2489SOL    HW124609   5.646   4.628   6.850
 2489SOL    HW224610   5.555   4.738   6.899
 2490SOL     OW24611   1.459   2.486   2.280
 2490SOL    HW124612   1.450   2.484   2.375
 2490SOL    HW224613   1.412   2.565   2.253
 2491SOL     OW24614   1.717   1.097   0.568
 2491SOL    HW124615   1.806   1.066   0.589
 2491SOL    HW224616   1.726   1.139   0.483
 2492SOL     OW24617   3.727   4.268   5.221
 2492SOL    HW124618   3.700   4.198   5.280
 2492SOL    HW224619   3.779   4.224   5.153
 2493SOL     OW24620   4.871   1.835   0.926
 2493SOL    HW124621   4.789   1.795   0.898
 2493SOL    HW224622   4.937   1.799   0.866
 2494SOL     OW24623   3.176   1.327   0.853
 2494SOL    HW124624   3.139   1.337   0.765
 2494SOL    HW224625   3.099   1.321   0.910
 2495SOL     OW24626   0.431   1.941   6.666
 2495SOL    HW124627   0.362   1.939   6.600
 2495SOL    HW224628   0.508   1.904   6.622
 2496SOL     OW24629   3.854   2.075   7.203
 2496SOL    HW124630   3.902   2.064   7.285
 2496SOL    HW224631   3.857   1.989   7.161
 2497SOL     OW24632   0.596   2.921   6.769
 2497SOL    HW124633   0.506   2.954   6.774
 2497SOL    HW224634   0.587   2.827   6.784
 2498SOL     OW24635   5.729   2.080   0.579
 2498SOL    HW124636   5.647   2.034   0.598
 2498SOL    HW224637   5.775   2.024   0.518
 2499SOL     OW24638   3.169   2.955   1.711
 2499SOL    HW124639   3.213   2.872   1.695
 2499SOL    HW224640   3.115   2.939   1.789
 2500SOL     OW24641   0.279   1.267   5.221
 2500SOL    HW124642   0.314   1.355   5.211
 2500SOL    HW224643   0.293   1.246   5.313
 2501SOL     OW24644   3.414   5.706   4.867
 2501SOL    HW124645   3.375   5.738   4.949
 2501SOL    HW224646   3.484   5.646   4.896
 2502SOL     OW24647   0.775   5.550   6.639
 2502SOL    HW124648   0.774   5.454   6.645
 2502SOL    HW224649   0.852   5.570   6.586
 2503SOL     OW24650   1.790   1.833   1.537
 2503SOL    HW124651   1.866   1.812   1.592
 2503SOL    HW224652   1.734   1.756   1.541
 2504SOL     OW24653   4.805   0.066   5.856
 2504SOL    HW124654   4.824   6.464   5.830
 2504SOL    HW224655   4.813   0.116   5.775
 2505SOL     OW24656   3.122   2.069   1.280
 2505SOL    HW124657   3.192   2.109   1.229
 2505SOL    HW224658   3.042   2.109   1.245
 2506SOL     OW24659   5.578   6.177   6.817
 2506SOL    HW124660   5.634   6.175   6.739
 2506SOL    HW224661   5.501   6.126   6.791
 2507SOL     OW24662   0.154   5.075   0.942
 2507SOL    HW124663   0.162   5.009   1.012
 2507SOL    HW224664   0.076   5.048   0.893
 2508SOL     OW24665   1.775   1.714   1.860
 2508SOL    HW124666   1.769   1.648   1.929
 2508SOL    HW224667   1.788   1.663   1.780
 2509SOL     OW24668   4.707   3.598   6.833
 2509SOL    HW124669   4.636   3.652   6.868
 2509SOL    HW224670   4.786   3.633   6.873
 2510SOL     OW24671   5.889   2.719   1.240
 2510SOL    HW124672   5.984   2.716   1.229
 2510SOL    HW224673   5.855   2.688   1.156
 2511SOL     OW24674   5.782   0.251   6.562
 2511SOL    HW124675   5.729   0.329   6.551
 2511SOL    HW224676   5.870   0.285   6.580
 2512SOL     OW24677   0.876   5.583   2.382
 2512SOL    HW124678   0.881   5.489   2.398
 2512SOL    HW224679   0.944   5.601   2.317
 2513SOL     OW24680   2.750   0.551   1.243
 2513SOL    HW124681   2.713   0.611   1.308
 2513SOL    HW224682   2.749   0.465   1.287
 2514SOL     OW24683   3.138   1.462   0.488
 2514SOL    HW124684   3.070   1.406   0.525
 2514SOL    HW224685   3.118   1.550   0.522
 2515SOL     OW24686   1.611   0.057   5.143
 2515SOL    HW124687   1.637   0.001   5.071
 2515SOL    HW224688   1.636   0.009   5.222
 2516SOL     OW24689   1.312   4.734   6.042
 2516SOL    HW124690   1.227   4.701   6.073
 2516SOL    HW224691   1.301   4.829   6.039
 2517SOL     OW24692   5.474   6.234   0.641
 2517SOL    HW124693   5.459   6.218   0.548
 2517SOL    HW224694   5.434   6.159   0.685
 2518SOL     OW24695   2.662   0.916   6.825
 2518SOL    HW124696   2.621   0.867   6.897
 2518SOL    HW224697   2.632   0.873   6.746
 2519SOL     OW24698   0.273   2.999   0.330
 2519SOL    HW124699   0.261   3.065   0.398
 2519SOL    HW224700   0.357   2.958   0.350
 2520SOL     OW24701   0.480   1.825   7.483
 2520SOL    HW124702   0.452   1.908   7.522
 2520SOL    HW224703   0.491   1.766   7.558
 2521SOL     OW24704   1.248   3.689   7.287
 2521SOL    HW124705   1.250   3.622   7.355
 2521SOL    HW224706   1.324   3.671   7.232
 2522SOL     OW24707   4.324   0.350   0.877
 2522SOL    HW124708   4.370   0.291   0.817
 2522SOL    HW224709   4.262   0.293   0.922
 2523SOL     OW24710   0.211   0.248   7.263
 2523SOL    HW124711   0.168   0.230   7.180
 2523SOL    HW224712   0.302   0.264   7.240
 2524SOL     OW24713   4.190   1.023   0.828
 2524SOL    HW124714   4.136   1.098   0.854
 2524SOL    HW224715   4.212   0.980   0.911
 2525SOL     OW24716   2.794   2.541   1.063
 2525SOL    HW124717   2.798   2.572   1.153
 2525SOL    HW224718   2.741   2.607   1.018
 2526SOL     OW24719   0.919   2.107   0.809
 2526SOL    HW124720   0.964   2.189   0.790
 2526SOL    HW224721   0.983   2.055   0.857
 2527SOL     OW24722   5.955   5.659   6.053
 2527SOL    HW124723   6.006   5.740   6.049
 2527SOL    HW224724   5.867   5.687   6.075
 2528SOL     OW24725   1.959   5.715   6.909
 2528SOL    HW124726   1.967   5.656   6.984
 2528SOL    HW224727   1.998   5.797   6.939
 2529SOL     OW24728   2.716   6.001   6.445
 2529SOL    HW124729   2.725   6.037   6.356
 2529SOL    HW224730   2.790   5.941   6.454
 2530SOL     OW24731   6.286   4.778   0.510
 2530SOL    HW124732   6.348   4.756   0.441
 2530SOL    HW224733   6.336   4.771   0.591
 2531SOL     OW24734   2.882   1.516   6.631
 2531SOL    HW124735   2.891   1.430   6.672
 2531SOL    HW224736   2.970   1.553   6.636
 2532SOL     OW24737   4.843   2.140   1.140
 2532SOL    HW124738   4.780   2.082   1.181
 2532SOL    HW224739   4.909   2.156   1.207
 2533SOL     OW24740   4.695   3.214   0.326
 2533SOL    HW124741   4.711   3.193   0.234
 2533SOL    HW224742   4.778   3.253   0.356
 2534SOL     OW24743   6.438   0.333   5.906
 2534SOL    HW124744   6.446   0.424   5.878
 2534SOL    HW224745   6.344   0.317   5.908
 2535SOL     OW24746   2.836   1.621   0.111
 2535SOL    HW124747   2.821   1.650   0.201
 2535SOL    HW224748   2.930   1.634   0.096
 2536SOL     OW24749   1.587   4.699   6.518
 2536SOL    HW124750   1.585   4.603   6.521
 2536SOL    HW224751   1.595   4.720   6.425
 2537SOL     OW24752   6.321   0.277   7.746
 2537SOL    HW124753   6.251   0.256   7.683
 2537SOL    HW224754   6.400   0.241   7.707
 2538SOL     OW24755   3.128   2.158   7.006
 2538SOL    HW124756   3.095   2.112   7.083
 2538SOL    HW224757   3.215   2.121   6.991
 2539SOL     OW24758   1.091   2.220   1.058
 2539SOL    HW124759   1.112   2.129   1.080
 2539SOL    HW224760   1.159   2.272   1.100
 2540SOL     OW24761   1.900   0.519   1.821
 2540SOL    HW124762   1.852   0.528   1.739
 2540SOL    HW224763   1.963   0.591   1.820
 2541SOL     OW24764   1.528   3.998   7.425
 2541SOL    HW124765   1.551   4.032   7.338
 2541SOL    HW224766   1.535   3.903   7.417
 2542SOL     OW24767   2.786   4.925   6.390
 2542SOL    HW124768   2.865   4.886   6.429
 2542SOL    HW224769   2.814   4.953   6.303
 2543SOL     OW24770   6.413   1.715   1.655
 2543SOL    HW124771   6.327   1.733   1.618
 2543SOL    HW224772   6.395   1.671   1.738
 2544SOL     OW24773   1.582   4.540   1.223
 2544SOL    HW124774   1.589   4.583   1.138
 2544SOL    HW224775   1.611   4.450   1.207
 2545SOL     OW24776   1.570   4.155   2.465
 2545SOL    HW124777   1.511   4.090   2.503
 2545SOL    HW224778   1.554   4.151   2.371
 2546SOL     OW24779   2.369   4.236   0.166
 2546SOL    HW124780   2.347   4.302   0.231
 2546SOL    HW224781   2.463   4.220   0.178
 2547SOL     OW24782   0.494   1.795   7.079
 2547SOL    HW124783   0.522   1.814   6.990
 2547SOL    HW224784   0.549   1.721   7.106
 2548SOL     OW24785   3.175   5.492   6.655
 2548SOL    HW124786   3.117   5.432   6.607
 2548SOL    HW224787   3.199   5.558   6.591
 2549SOL     OW24788   4.722   4.753   0.402
 2549SOL    HW124789   4.779   4.811   0.453
 2549SOL    HW224790   4.686   4.809   0.334
 2550SOL     OW24791   5.172   3.837   6.361
 2550SOL    HW124792   5.250   3.797   6.397
 2550SOL    HW224793   5.154   3.789   6.280
 2551SOL     OW24794   2.792   6.426   1.647
 2551SOL    HW124795   2.794   6.413   1.742
 2551SOL    HW224796   2.708   6.389   1.619
 2552SOL     OW24797   3.350   2.079   6.123
 2552SOL    HW124798   3.284   2.018   6.157
 2552SOL    HW224799   3.387   2.033   6.047
 2553SOL     OW24800   4.901   4.459   5.913
 2553SOL    HW124801   4.857   4.463   5.997
 2553SOL    HW224802   4.983   4.413   5.931
 2554SOL     OW24803   0.547   3.559   2.048
 2554SOL    HW124804   0.464   3.514   2.029
 2554SOL    HW224805   0.606   3.489   2.075
 2555SOL     OW24806   2.596   1.331   7.057
 2555SOL    HW124807   2.534   1.403   7.054
 2555SOL    HW224808   2.674   1.368   7.099
 2556SOL     OW24809   5.496   0.117   6.375
 2556SOL    HW124810   5.551   0.039   6.377
 2556SOL    HW224811   5.526   0.170   6.448
 2557SOL     OW24812   5.711   2.006   1.198
 2557SOL    HW124813   5.684   1.917   1.220
 2557SOL    HW224814   5.798   2.015   1.236
 2558SOL     OW24815   0.513   5.619   6.125
 2558SOL    HW124816   0.439   5.679   6.139
 2558SOL    HW224817   0.529   5.581   6.211
 2559SOL     OW24818   3.284   3.629   0.903
 2559SOL    HW124819   3.334   3.665   0.977
 2559SOL    HW224820   3.341   3.562   0.866
 2560SOL     OW24821   1.667   6.225   6.733
 2560SOL    HW124822   1.708   6.145   6.767
 2560SOL    HW224823   1.679   6.290   6.803
 2561SOL     OW24824   4.395   2.457   1.068
 2561SOL    HW124825   4.311   2.494   1.041
 2561SOL    HW224826   4.447   2.454   0.987
 2562SOL     OW24827   0.484   3.218   0.331
 2562SOL    HW124828   0.426   3.218   0.255
 2562SOL    HW224829   0.571   3.237   0.296
 2563SOL     OW24830   5.209   1.165   0.564
 2563SOL    HW124831   5.189   1.141   0.473
 2563SOL    HW224832   5.201   1.260   0.566
 2564SOL     OW24833   0.789   4.395   7.225
 2564SOL    HW124834   0.797   4.467   7.288
 2564SOL    HW224835   0.865   4.339   7.243
 2565SOL     OW24836   3.412   1.327   5.446
 2565SOL    HW124837   3.318   1.339   5.431
 2565SOL    HW224838   3.418   1.295   5.536
 2566SOL     OW24839   4.375   4.138   7.344
 2566SOL    HW124840   4.402   4.149   7.435
 2566SOL    HW224841   4.413   4.213   7.298
 2567SOL     OW24842   2.332   1.991   6.214
 2567SOL    HW124843   2.364   1.962   6.300
 2567SOL    HW224844   2.376   1.933   6.152
 2568SOL     OW24845   4.564   1.705   0.430
 2568SOL    HW124846   4.599   1.619   0.410
 2568SOL    HW224847   4.474   1.689   0.457
 2569SOL     OW24848   0.755   0.931   6.537
 2569SOL    HW124849   0.683   0.941   6.600
 2569SOL    HW224850   0.731   0.854   6.486
 2570SOL     OW24851   6.054   4.283   6.363
 2570SOL    HW124852   6.009   4.250   6.441
 2570SOL    HW224853   6.147   4.278   6.386
 2571SOL     OW24854   3.809   6.021   7.456
 2571SOL    HW124855   3.777   6.075   7.383
 2571SOL    HW224856   3.743   5.951   7.465
 2572SOL     OW24857   4.437   0.782   6.383
 2572SOL    HW124858   4.341   0.782   6.376
 2572SOL    HW224859   4.459   0.872   6.407
 2573SOL     OW24860   5.010   5.828   7.400
 2573SOL    HW124861   4.920   5.823   7.431
 2573SOL    HW224862   5.045   5.740   7.417
 2574SOL     OW24863   1.004   4.551   5.781
 2574SOL    HW124864   1.066   4.622   5.762
 2574SOL    HW224865   1.058   4.479   5.814
 2575SOL     OW24866   4.968   1.781   7.611
 2575SOL    HW124867   5.031   1.838   7.566
 2575SOL    HW224868   4.899   1.841   7.641
 2576SOL     OW24869   3.902   5.040   1.706
 2576SOL    HW124870   3.956   4.983   1.761
 2576SOL    HW224871   3.965   5.093   1.657
 2577SOL     OW24872   2.835   5.609   6.307
 2577SOL    HW124873   2.891   5.644   6.237
 2577SOL    HW224874   2.746   5.624   6.276
 2578SOL     OW24875   1.308   2.981   6.860
 2578SOL    HW124876   1.329   2.903   6.808
 2578SOL    HW224877   1.341   2.961   6.948
 2579SOL     OW24878   4.480   1.202   6.251
 2579SOL    HW124879   4.529   1.148   6.313
 2579SOL    HW224880   4.391   1.170   6.257
 2580SOL     OW24881   3.048   0.953   7.098
 2580SOL    HW124882   3.003   0.966   7.181
 2580SOL    HW224883   3.118   0.891   7.117
 2581SOL     OW24884   1.526   3.134   6.678
 2581SOL    HW124885   1.475   3.199   6.630
 2581SOL    HW224886   1.460   3.076   6.718
 2582SOL     OW24887   2.888   5.483   5.329
 2582SOL    HW124888   2.858   5.409   5.276
 2582SOL    HW224889   2.938   5.537   5.267
 2583SOL     OW24890   2.444   1.265   0.454
 2583SOL    HW124891   2.436   1.358   0.437
 2583SOL    HW224892   2.506   1.233   0.388
 2584SOL     OW24893   4.934   1.264   7.667
 2584SOL    HW124894   4.957   1.356   7.656
 2584SOL    HW224895   5.012   1.224   7.705
 2585SOL     OW24896   1.549   0.245   2.318
 2585SOL    HW124897   1.526   0.210   2.233
 2585SOL    HW224898   1.639   0.215   2.333
 2586SOL     OW24899   0.697   4.321   0.379
 2586SOL    HW124900   0.637   4.386   0.341
 2586SOL    HW224901   0.656   4.297   0.462
 2587SOL     OW24902   2.686   4.629   2.328
 2587SOL    HW124903   2.613   4.579   2.293
 2587SOL    HW224904   2.730   4.666   2.251
 2588SOL     OW24905   4.399   4.891   0.593
 2588SOL    HW124906   4.387   4.905   0.500
 2588SOL    HW224907   4.383   4.798   0.606
 2589SOL     OW24908   6.301   5.198   0.051
 2589SOL    HW124909   6.375   5.154   0.094
 2589SOL    HW224910   6.238   5.211   0.122
 2590SOL     OW24911   5.133   0.322   7.431
 2590SOL    HW124912   5.122   0.417   7.438
 2590SOL    HW224913   5.225   0.307   7.454
 2591SOL     OW24914   3.397   4.098   1.453
 2591SOL    HW124915   3.413   4.008   1.482
 2591SOL    HW224916   3.390   4.091   1.358
 2592SOL     OW24917   5.561   3.354   2.890
 2592SOL    HW124918   5.655   3.338   2.895
 2592SOL    HW224919   5.553   3.425   2.827
 2593SOL     OW24920   0.602   0.544   5.811
 2593SOL    HW124921   0.636   0.466   5.768
 2593SOL    HW224922   0.547   0.586   5.745
 2594SOL     OW24923   6.236   2.623   6.599
 2594SOL    HW124924   6.244   2.612   6.504
 2594SOL    HW224925   6.293   2.697   6.619
 2595SOL     OW24926   5.730   1.763   6.998
 2595SOL    HW124927   5.821   1.795   6.995
 2595SOL    HW224928   5.703   1.760   6.906
 2596SOL     OW24929   4.662   2.858   7.722
 2596SOL    HW124930   4.642   2.805   7.645
 2596SOL    HW224931   4.578   2.872   0.004
 2597SOL     OW24932   0.349   5.723   5.603
 2597SOL    HW124933   0.262   5.762   5.609
 2597SOL    HW224934   0.374   5.734   5.512
 2598SOL     OW24935   5.811   0.905   7.087
 2598SOL    HW124936   5.793   0.874   6.997
 2598SOL    HW224937   5.884   0.966   7.077
 2599SOL     OW24938   5.822   4.662   1.148
 2599SOL    HW124939   5.908   4.621   1.164
 2599SOL    HW224940   5.794   4.625   1.064
 2600SOL     OW24941   5.014   4.613   0.687
 2600SOL    HW124942   4.993   4.644   0.599
 2600SOL    HW224943   4.970   4.675   0.745
 2601SOL     OW24944   4.289   0.201   7.718
 2601SOL    HW124945   4.302   0.254   0.035
 2601SOL    HW224946   4.322   0.114   7.743
 2602SOL     OW24947   5.782   6.338   0.287
 2602SOL    HW124948   5.858   6.312   0.234
 2602SOL    HW224949   5.772   6.267   0.350
 2603SOL     OW24950   3.224   3.286   7.303
 2603SOL    HW124951   3.186   3.206   7.341
 2603SOL    HW224952   3.160   3.314   7.238
 2604SOL     OW24953   6.293   0.508   6.229
 2604SOL    HW124954   6.346   0.434   6.261
 2604SOL    HW224955   6.335   0.533   6.146
 2605SOL     OW24956   4.705   5.195   1.595
 2605SOL    HW124957   4.794   5.161   1.586
 2605SOL    HW224958   4.715   5.275   1.647
 2606SOL     OW24959   1.746   5.884   2.265
 2606SOL    HW124960   1.712   5.890   2.354
 2606SOL    HW224961   1.833   5.846   2.274
 2607SOL     OW24962   1.939   5.668   2.252
 2607SOL    HW124963   1.952   5.587   2.203
 2607SOL    HW224964   1.905   5.640   2.337
 2608SOL     OW24965   6.442   3.522   6.191
 2608SOL    HW124966   6.367   3.577   6.169
 2608SOL    HW224967   6.458   3.470   6.112
 2609SOL     OW24968   0.378   2.427   1.848
 2609SOL    HW124969   0.373   2.348   1.902
 2609SOL    HW224970   0.451   2.476   1.885
 2610SOL     OW24971   2.545   3.820   1.485
 2610SOL    HW124972   2.472   3.880   1.471
 2610SOL    HW224973   2.622   3.876   1.495
 2611SOL     OW24974   5.028   3.848   5.565
 2611SOL    HW124975   4.972   3.772   5.552
 2611SOL    HW224976   5.047   3.849   5.659
 2612SOL     OW24977   0.691   3.244   6.765
 2612SOL    HW124978   0.635   3.235   6.842
 2612SOL    HW224979   0.723   3.334   6.769
 2613SOL     OW24980   1.232   4.140   7.539
 2613SOL    HW124981   1.229   4.044   7.541
 2613SOL    HW224982   1.250   4.161   7.448
 2614SOL     OW24983   1.972   0.510   7.428
 2614SOL    HW124984   1.939   0.579   7.371
 2614SOL    HW224985   1.899   0.491   7.487
 2615SOL     OW24986   1.888   3.732   5.634
 2615SOL    HW124987   1.973   3.775   5.627
 2615SOL    HW224988   1.900   3.647   5.592
 2616SOL     OW24989   4.162   6.438   7.131
 2616SOL    HW124990   4.121   0.034   7.109
 2616SOL    HW224991   4.090   6.383   7.161
 2617SOL     OW24992   6.273   0.431   7.424
 2617SOL    HW124993   6.206   0.449   7.490
 2617SOL    HW224994   6.231   0.456   7.341
 2618SOL     OW24995   3.922   0.693   6.425
 2618SOL    HW124996   4.001   0.667   6.473
 2618SOL    HW224997   3.871   0.743   6.489
 2619SOL     OW24998   2.799   4.008   0.589
 2619SOL    HW124999   2.813   3.923   0.629
 2619SOL    HW225000   2.851   4.069   0.641
 2620SOL     OW25001   2.126   2.560   5.660
 2620SOL    HW125002   2.142   2.479   5.612
 2620SOL    HW225003   2.154   2.629   5.601
 2621SOL     OW25004   0.920   4.234   7.537
 2621SOL    HW125005   1.001   4.190   7.563
 2621SOL    HW225006   0.929   4.248   7.443
 2622SOL     OW25007   1.557   5.123   1.260
 2622SOL    HW125008   1.628   5.063   1.279
 2622SOL    HW225009   1.513   5.138   1.344
 2623SOL     OW25010   2.628   5.306   6.964
 2623SOL    HW125011   2.559   5.314   6.898
 2623SOL    HW225012   2.582   5.283   7.044
 2624SOL     OW25013   6.213   1.322   0.055
 2624SOL    HW125014   6.130   1.298   0.097
 2624SOL    HW225015   6.239   1.242   0.009
 2625SOL     OW25016   2.303   3.138   0.573
 2625SOL    HW125017   2.252   3.202   0.523
 2625SOL    HW225018   2.238   3.080   0.612
 2626SOL     OW25019   3.353   3.591   0.165
 2626SOL    HW125020   3.338   3.547   0.081
 2626SOL    HW225021   3.280   3.652   0.174
 2627SOL     OW25022   1.780   3.689   6.905
 2627SOL    HW125023   1.864   3.677   6.950
 2627SOL    HW225024   1.749   3.600   6.887
 2628SOL     OW25025   1.321   2.494   0.630
 2628SOL    HW125026   1.239   2.533   0.662
 2628SOL    HW225027   1.389   2.543   0.676
 2629SOL     OW25028   5.852   2.974   7.285
 2629SOL    HW125029   5.771   3.011   7.251
 2629SOL    HW225030   5.877   3.033   7.356
 2630SOL     OW25031   3.939   6.213   7.644
 2630SOL    HW125032   3.982   6.259   7.572
 2630SOL    HW225033   3.870   6.161   7.602
 2631SOL     OW25034   5.043   1.594   7.077
 2631SOL    HW125035   5.002   1.624   7.159
 2631SOL    HW225036   5.069   1.674   7.032
 2632SOL     OW25037   3.786   4.548   5.868
 2632SOL    HW125038   3.698   4.541   5.829
 2632SOL    HW225039   3.845   4.543   5.793
 2633SOL     OW25040   2.680   2.979   0.311
 2633SOL    HW125041   2.774   2.999   0.315
 2633SOL    HW225042   2.639   3.048   0.363
 2634SOL     OW25043   1.428   3.973   0.636
 2634SOL    HW125044   1.366   3.930   0.578
 2634SOL    HW225045   1.494   3.907   0.656
 2635SOL     OW25046   0.691   2.583   7.645
 2635SOL    HW125047   0.763   2.575   7.582
 2635SOL    HW225048   0.612   2.581   7.591
 2636SOL     OW25049   1.673   5.492   0.497
 2636SOL    HW125050   1.732   5.434   0.544
 2636SOL    HW225051   1.671   5.572   0.549
 2637SOL     OW25052   5.658   3.487   7.286
 2637SOL    HW125053   5.686   3.463   7.198
 2637SOL    HW225054   5.621   3.406   7.323
 2638SOL     OW25055   1.520   1.522   7.515
 2638SOL    HW125056   1.549   1.449   7.460
 2638SOL    HW225057   1.453   1.484   7.571
 2639SOL     OW25058   5.869   3.498   1.586
 2639SOL    HW125059   5.959   3.469   1.600
 2639SOL    HW225060   5.823   3.420   1.556
 2640SOL     OW25061   1.427   6.184   1.364
 2640SOL    HW125062   1.352   6.138   1.402
 2640SOL    HW225063   1.394   6.218   1.281
 2641SOL     OW25064   0.462   1.102   6.905
 2641SOL    HW125065   0.481   1.057   6.823
 2641SOL    HW225066   0.393   1.049   6.945
 2642SOL     OW25067   3.063   1.631   7.278
 2642SOL    HW125068   2.993   1.676   7.326
 2642SOL    HW225069   3.138   1.689   7.287
 2643SOL     OW25070   6.359   1.137   6.596
 2643SOL    HW125071   6.306   1.061   6.574
 2643SOL    HW225072   6.434   1.132   6.537
 2644SOL     OW25073   5.162   1.349   6.334
 2644SOL    HW125074   5.138   1.355   6.242
 2644SOL    HW225075   5.079   1.333   6.380
 2645SOL     OW25076   0.367   4.881   6.442
 2645SOL    HW125077   0.304   4.919   6.382
 2645SOL    HW225078   0.452   4.899   6.402
 2646SOL     OW25079   0.396   0.194   6.985
 2646SOL    HW125080   0.408   0.284   7.015
 2646SOL    HW225081   0.417   0.197   6.891
 2647SOL     OW25082   1.279   3.286   6.645
 2647SOL    HW125083   1.257   3.280   6.738
 2647SOL    HW225084   1.253   3.201   6.609
 2648SOL     OW25085   3.780   1.281   0.989
 2648SOL    HW125086   3.771   1.355   1.049
 2648SOL    HW225087   3.733   1.209   1.033
 2649SOL     OW25088   5.235   3.431   6.871
 2649SOL    HW125089   5.143   3.452   6.856
 2649SOL    HW225090   5.243   3.339   6.846
 2650SOL     OW25091   3.624   0.417   5.708
 2650SOL    HW125092   3.626   0.512   5.717
 2650SOL    HW225093   3.571   0.402   5.630
 2651SOL     OW25094   4.213   4.789   7.746
 2651SOL    HW125095   4.203   4.882   0.005
 2651SOL    HW225096   4.126   4.752   0.001
 2652SOL     OW25097   3.399   1.852   0.363
 2652SOL    HW125098   3.426   1.793   0.433
 2652SOL    HW225099   3.461   1.924   0.367
 2653SOL     OW25100   4.535   5.006   6.465
 2653SOL    HW125101   4.475   5.060   6.516
 2653SOL    HW225102   4.620   5.051   6.473
 2654SOL     OW25103   0.846   3.971   7.156
 2654SOL    HW125104   0.788   3.939   7.225
 2654SOL    HW225105   0.894   3.894   7.127
 2655SOL     OW25106   2.421   0.039   2.007
 2655SOL    HW125107   2.341   0.003   2.045
 2655SOL    HW225108   2.468   6.451   1.972
 2656SOL     OW25109   6.005   1.957   6.744
 2656SOL    HW125110   5.980   2.040   6.784
 2656SOL    HW225111   5.922   1.920   6.713
 2657SOL     OW25112   1.644   1.414   0.162
 2657SOL    HW125113   1.636   1.498   0.116
 2657SOL    HW225114   1.692   1.358   0.101
 2658SOL     OW25115   4.764   1.349   6.971
 2658SOL    HW125116   4.748   1.319   6.881
 2658SOL    HW225117   4.800   1.272   7.015
 2659SOL     OW25118   4.533   3.997   5.225
 2659SOL    HW125119   4.487   3.945   5.291
 2659SOL    HW225120   4.462   4.037   5.174
 2660SOL     OW25121   0.369   4.083   1.419
 2660SOL    HW125122   0.450   4.132   1.430
 2660SOL    HW225123   0.351   4.047   1.507
 2661SOL     OW25124   5.945   1.929   0.145
 2661SOL    HW125125   5.993   1.847   0.138
 2661SOL    HW225126   5.909   1.943   0.058
 2662SOL     OW25127   1.824   4.985   0.236
 2662SOL    HW125128   1.770   5.055   0.200
 2662SOL    HW225129   1.913   5.007   0.210
 2663SOL     OW25130   3.718   5.009   0.403
 2663SOL    HW125131   3.658   4.949   0.359
 2663SOL    HW225132   3.799   5.004   0.351
 2664SOL     OW25133   4.760   4.807   5.927
 2664SOL    HW125134   4.740   4.891   5.887
 2664SOL    HW225135   4.797   4.755   5.856
 2665SOL     OW25136   4.434   4.690   7.618
 2665SOL    HW125137   4.351   4.723   7.651
 2665SOL    HW225138   4.417   4.666   7.528
 2666SOL     OW25139   2.325   6.380   7.301
 2666SOL    HW125140   2.280   6.440   7.242
 2666SOL    HW225141   2.415   6.414   7.305
 2667SOL     OW25142   6.262   4.593   6.583
 2667SOL    HW125143   6.248   4.529   6.653
 2667SOL    HW225144   6.350   4.575   6.551
 2668SOL     OW25145   4.756   5.175   6.517
 2668SOL    HW125146   4.804   5.258   6.517
 2668SOL    HW225147   4.749   5.152   6.610
 2669SOL     OW25148   3.844   3.398   6.502
 2669SOL    HW125149   3.894   3.478   6.516
 2669SOL    HW225150   3.894   3.349   6.436
 2670SOL     OW25151   0.827   3.494   0.394
 2670SOL    HW125152   0.754   3.444   0.432
 2670SOL    HW225153   0.881   3.518   0.470
 2671SOL     OW25154   6.043   3.728   0.715
 2671SOL    HW125155   5.982   3.800   0.697
 2671SOL    HW225156   6.004   3.681   0.789
 2672SOL     OW25157   0.191   0.965   0.347
 2672SOL    HW125158   0.155   0.889   0.301
 2672SOL    HW225159   0.286   0.956   0.336
 2673SOL     OW25160   4.060   0.913   0.313
 2673SOL    HW125161   4.071   0.994   0.362
 2673SOL    HW225162   3.998   0.861   0.364
 2674SOL     OW25163   6.104   4.769   7.064
 2674SOL    HW125164   6.111   4.706   7.135
 2674SOL    HW225165   6.012   4.795   7.064
 2675SOL     OW25166   0.543   3.354   1.093
 2675SOL    HW125167   0.564   3.304   1.014
 2675SOL    HW225168   0.450   3.338   1.108
 2676SOL     OW25169   0.017   2.184   0.554
 2676SOL    HW125170   6.475   2.275   0.562
 2676SOL    HW225171   6.480   2.142   0.636
 2677SOL     OW25172   4.954   6.248   0.472
 2677SOL    HW125173   4.972   6.191   0.398
 2677SOL    HW225174   4.960   6.337   0.436
 2678SOL     OW25175   0.662   3.680   0.617
 2678SOL    HW125176   0.637   3.607   0.560
 2678SOL    HW225177   0.680   3.752   0.557
 2679SOL     OW25178   4.833   3.013   6.887
 2679SOL    HW125179   4.792   3.062   6.815
 2679SOL    HW225180   4.864   2.932   6.846
 2680SOL     OW25181   0.635   1.676   0.867
 2680SOL    HW125182   0.579   1.753   0.874
 2680SOL    HW225183   0.667   1.677   0.777
 2681SOL     OW25184   2.564   4.728   6.449
 2681SOL    HW125185   2.471   4.718   6.468
 2681SOL    HW225186   2.607   4.712   6.533
 2682SOL     OW25187   3.974   0.478   6.670
 2682SOL    HW125188   4.045   0.490   6.607
 2682SOL    HW225189   3.974   0.558   6.722
 2683SOL     OW25190   5.399   1.348   6.803
 2683SOL    HW125191   5.350   1.350   6.720
 2683SOL    HW225192   5.475   1.294   6.785
 2684SOL     OW25193   0.808   4.886   6.156
 2684SOL    HW125194   0.891   4.848   6.184
 2684SOL    HW225195   0.819   4.900   6.062
 2685SOL     OW25196   3.126   1.741   0.529
 2685SOL    HW125197   3.194   1.791   0.574
 2685SOL    HW225198   3.044   1.784   0.555
 2686SOL     OW25199   5.315   0.809   0.579
 2686SOL    HW125200   5.337   0.863   0.654
 2686SOL    HW225201   5.398   0.796   0.533
 2687SOL     OW25202   4.749   6.299   7.394
 2687SOL    HW125203   4.787   6.377   7.353
 2687SOL    HW225204   4.821   6.262   7.445
 2688SOL     OW25205   2.710   0.409   5.756
 2688SOL    HW125206   2.637   0.433   5.700
 2688SOL    HW225207   2.766   0.354   5.700
 2689SOL     OW25208   2.892   3.788   0.736
 2689SOL    HW125209   2.982   3.819   0.748
 2689SOL    HW225210   2.861   3.769   0.824
 2690SOL     OW25211   0.458   3.918   7.320
 2690SOL    HW125212   0.422   3.862   7.388
 2690SOL    HW225213   0.535   3.871   7.289
 2691SOL     OW25214   5.610   5.463   6.507
 2691SOL    HW125215   5.673   5.468   6.579
 2691SOL    HW225216   5.587   5.555   6.489
 2692SOL     OW25217   1.388   3.795   1.190
 2692SOL    HW125218   1.321   3.728   1.180
 2692SOL    HW225219   1.398   3.807   1.284
 2693SOL     OW25220   4.743   3.143   1.280
 2693SOL    HW125221   4.813   3.112   1.223
 2693SOL    HW225222   4.710   3.222   1.237
 2694SOL     OW25223   4.450   0.319   0.144
 2694SOL    HW125224   4.502   0.243   0.119
 2694SOL    HW225225   4.514   0.390   0.151
 2695SOL     OW25226   4.565   0.389   6.478
 2695SOL    HW125227   4.515   0.336   6.415
 2695SOL    HW225228   4.602   0.325   6.539
 2696SOL     OW25229   0.721   2.604   1.397
 2696SOL    HW125230   0.672   2.586   1.477
 2696SOL    HW225231   0.811   2.619   1.427
 2697SOL     OW25232   4.834   4.358   0.126
 2697SOL    HW125233   4.820   4.356   0.221
 2697SOL    HW225234   4.756   4.316   0.089
 2698SOL     OW25235   1.574   3.588   6.504
 2698SOL    HW125236   1.628   3.573   6.582
 2698SOL    HW225237   1.510   3.653   6.532
 2699SOL     OW25238   2.792   0.602   7.171
 2699SOL    HW125239   2.791   0.551   7.252
 2699SOL    HW225240   2.802   0.536   7.102
 2700SOL     OW25241   2.202   3.721   0.862
 2700SOL    HW125242   2.178   3.641   0.910
 2700SOL    HW225243   2.264   3.765   0.920
 2701SOL     OW25244   5.706   4.389   0.479
 2701SOL    HW125245   5.732   4.461   0.422
 2701SOL    HW225246   5.673   4.432   0.558
 2702SOL     OW25247   4.279   1.880   6.509
 2702SOL    HW125248   4.200   1.884   6.455
 2702SOL    HW225249   4.257   1.816   6.577
 2703SOL     OW25250   4.488   0.107   1.774
 2703SOL    HW125251   4.466   0.200   1.783
 2703SOL    HW225252   4.431   0.062   1.837
 2704SOL     OW25253   2.868   5.832   2.114
 2704SOL    HW125254   2.935   5.896   2.090
 2704SOL    HW225255   2.839   5.795   2.030
 2705SOL     OW25256   2.742   3.525   6.366
 2705SOL    HW125257   2.674   3.591   6.350
 2705SOL    HW225258   2.808   3.542   6.298
 2706SOL     OW25259   0.683   1.490   6.682
 2706SOL    HW125260   0.591   1.482   6.705
 2706SOL    HW225261   0.729   1.448   6.755
 2707SOL     OW25262   5.041   0.188   6.538
 2707SOL    HW125263   4.997   0.219   6.459
 2707SOL    HW225264   5.064   0.097   6.518
 2708SOL     OW25265   3.097   4.515   0.017
 2708SOL    HW125266   3.036   4.521   7.705
 2708SOL    HW225267   3.048   4.548   0.092
 2709SOL     OW25268   6.017   1.492   6.031
 2709SOL    HW125269   6.072   1.498   6.109
 2709SOL    HW225270   6.031   1.404   5.998
 2710SOL     OW25271   4.414   2.259   0.785
 2710SOL    HW125272   4.468   2.336   0.799
 2710SOL    HW225273   4.396   2.225   0.873
 2711SOL     OW25274   2.397   5.063   5.625
 2711SOL    HW125275   2.307   5.032   5.625
 2711SOL    HW225276   2.449   4.986   5.600
 2712SOL     OW25277   4.167   1.771   1.719
 2712SOL    HW125278   4.095   1.735   1.667
 2712SOL    HW225279   4.196   1.847   1.669
 2713SOL     OW25280   4.225   5.005   0.326
 2713SOL    HW125281   4.202   4.912   0.323
 2713SOL    HW225282   4.180   5.039   0.403
 2714SOL     OW25283   3.818   5.129   0.830
 2714SOL    HW125284   3.730   5.094   0.815
 2714SOL    HW225285   3.870   5.054   0.858
 2715SOL     OW25286   4.095   2.390   6.590
 2715SOL    HW125287   4.186   2.361   6.589
 2715SOL    HW225288   4.051   2.335   6.525
 2716SOL     OW25289   4.877   3.324   0.083
 2716SOL    HW125290   4.935   3.319   0.007
 2716SOL    HW225291   4.865   3.233   0.110
 2717SOL     OW25292   3.462   1.395   6.870
 2717SOL    HW125293   3.401   1.366   6.938
 2717SOL    HW225294   3.448   1.334   6.798
 2718SOL     OW25295   5.918   1.016   0.120
 2718SOL    HW125296   5.965   0.997   0.201
 2718SOL    HW225297   5.959   1.096   0.087
 2719SOL     OW25298   2.701   3.772   2.292
 2719SOL    HW125299   2.745   3.707   2.238
 2719SOL    HW225300   2.641   3.817   2.233
 2720SOL     OW25301   4.226   4.412   6.857
 2720SOL    HW125302   4.220   4.392   6.764
 2720SOL    HW225303   4.159   4.356   6.897
 2721SOL     OW25304   3.436   2.524   7.720
 2721SOL    HW125305   3.486   2.484   0.030
 2721SOL    HW225306   3.469   2.614   7.716
 2722SOL     OW25307   0.514   5.185   6.891
 2722SOL    HW125308   0.515   5.268   6.939
 2722SOL    HW225309   0.562   5.124   6.947
 2723SOL     OW25310   1.085   6.453   6.249
 2723SOL    HW125311   1.110   6.416   6.165
 2723SOL    HW225312   1.150   0.033   6.266
 2724SOL     OW25313   3.165   5.335   7.015
 2724SOL    HW125314   3.167   5.239   7.013
 2724SOL    HW225315   3.220   5.362   6.941
 2725SOL     OW25316   6.174   1.797   7.244
 2725SOL    HW125317   6.231   1.869   7.272
 2725SOL    HW225318   6.232   1.721   7.239
 2726SOL     OW25319   5.197   0.297   7.716
 2726SOL    HW125320   5.124   0.290   0.016
 2726SOL    HW225321   5.187   0.383   7.675
 2727SOL     OW25322   1.700   1.015   1.363
 2727SOL    HW125323   1.694   1.020   1.458
 2727SOL    HW225324   1.681   0.923   1.343
 2728SOL     OW25325   1.628   3.549   7.747
 2728SOL    HW125326   1.615   3.592   0.071
 2728SOL    HW225327   1.685   3.608   7.698
 2729SOL     OW25328   5.324   5.633   7.046
 2729SOL    HW125329   5.247   5.583   7.073
 2729SOL    HW225330   5.340   5.605   6.956
 2730SOL     OW25331   0.198   0.119   1.606
 2730SOL    HW125332   0.210   0.029   1.575
 2730SOL    HW225333   0.183   0.170   1.526
 2731SOL     OW25334   2.098   2.738   7.085
 2731SOL    HW125335   2.120   2.801   7.154
 2731SOL    HW225336   2.160   2.666   7.098
 2732SOL     OW25337   2.635   2.733   7.050
 2732SOL    HW125338   2.580   2.734   6.972
 2732SOL    HW225339   2.579   2.767   7.120
 2733SOL     OW25340   2.941   4.481   7.551
 2733SOL    HW125341   2.897   4.536   7.486
 2733SOL    HW225342   2.875   4.416   7.576
 2734SOL     OW25343   3.246   2.100   1.920
 2734SOL    HW125344   3.212   2.013   1.943
 2734SOL    HW225345   3.315   2.082   1.856
 2735SOL     OW25346   4.517   0.922   7.470
 2735SOL    HW125347   4.460   0.947   7.543
 2735SOL    HW225348   4.483   0.838   7.440
 2736SOL     OW25349   0.512   2.611   7.379
 2736SOL    HW125350   0.512   2.652   7.293
 2736SOL    HW225351   0.420   2.595   7.399
 2737SOL     OW25352   2.774   5.096   5.077
 2737SOL    HW125353   2.713   5.077   5.148
 2737SOL    HW225354   2.736   5.173   5.034
 2738SOL     OW25355   2.084   1.365   7.029
 2738SOL    HW125356   2.115   1.410   6.951
 2738SOL    HW225357   2.063   1.277   7.000
 2739SOL     OW25358   5.336   0.162   0.911
 2739SOL    HW125359   5.249   0.123   0.904
 2739SOL    HW225360   5.346   0.215   0.832
 2740SOL     OW25361   0.624   5.799   1.170
 2740SOL    HW125362   0.679   5.861   1.123
 2740SOL    HW225363   0.671   5.716   1.164
 2741SOL     OW25364   1.888   5.536   1.771
 2741SOL    HW125365   1.981   5.540   1.749
 2741SOL    HW225366   1.875   5.446   1.800
 2742SOL     OW25367   1.964   6.180   7.021
 2742SOL    HW125368   1.913   6.232   7.083
 2742SOL    HW225369   2.030   6.240   6.988
 2743SOL     OW25370   0.208   2.299   6.634
 2743SOL    HW125371   0.209   2.394   6.626
 2743SOL    HW225372   0.206   2.267   6.543
 2744SOL     OW25373   2.825   6.403   6.264
 2744SOL    HW125374   2.743   6.354   6.261
 2744SOL    HW225375   2.883   6.350   6.318
 2745SOL     OW25376   3.490   5.387   6.144
 2745SOL    HW125377   3.534   5.410   6.062
 2745SOL    HW225378   3.526   5.448   6.209
 2746SOL     OW25379   2.607   1.984   1.063
 2746SOL    HW125380   2.564   1.995   0.979
 2746SOL    HW225381   2.701   1.984   1.042
 2747SOL     OW25382   6.087   3.209   0.245
 2747SOL    HW125383   6.083   3.114   0.245
 2747SOL    HW225384   6.030   3.235   0.318
 2748SOL     OW25385   1.017   4.338   0.148
 2748SOL    HW125386   0.987   4.421   0.185
 2748SOL    HW225387   1.094   4.361   0.097
 2749SOL     OW25388   6.245   1.277   0.754
 2749SOL    HW125389   6.162   1.251   0.795
 2749SOL    HW225390   6.233   1.255   0.661
 2750SOL     OW25391   4.204   3.979   0.615
 2750SOL    HW125392   4.280   3.926   0.590
 2750SOL    HW225393   4.237   4.035   0.686
 2751SOL     OW25394   3.544   3.784   7.455
 2751SOL    HW125395   3.567   3.709   7.400
 2751SOL    HW225396   3.590   3.858   7.416
 2752SOL     OW25397   1.402   6.319   1.122
 2752SOL    HW125398   1.468   6.256   1.095
 2752SOL    HW225399   1.346   6.330   1.045
 2753SOL     OW25400   4.142   5.147   5.099
 2753SOL    HW125401   4.060   5.148   5.148
 2753SOL    HW225402   4.159   5.239   5.077
 2754SOL     OW25403   6.435   5.969   6.531
 2754SOL    HW125404   6.419   5.883   6.494
 2754SOL    HW225405   0.008   5.954   6.603
 2755SOL     OW25406   6.197   3.894   7.527
 2755SOL    HW125407   6.143   3.899   7.449
 2755SOL    HW225408   6.177   3.808   7.565
 2756SOL     OW25409   2.450   1.898   5.837
 2756SOL    HW125410   2.477   1.831   5.900
 2756SOL    HW225411   2.527   1.953   5.825
 2757SOL     OW25412   2.065   5.858   5.972
 2757SOL    HW125413   2.157   5.881   5.960
 2757SOL    HW225414   2.037   5.909   6.048
 2758SOL     OW25415   6.309   0.577   7.717
 2758SOL    HW125416   6.247   0.521   7.670
 2758SOL    HW225417   6.260   0.657   7.735
 2759SOL     OW25418   0.558   2.957   0.432
 2759SOL    HW125419   0.515   3.039   0.408
 2759SOL    HW225420   0.645   2.963   0.392
 2760SOL     OW25421   3.032   2.440   6.993
 2760SOL    HW125422   3.004   2.467   6.905
 2760SOL    HW225423   3.067   2.352   6.981
 2761SOL     OW25424   1.004   2.756   0.407
 2761SOL    HW125425   1.049   2.776   0.325
 2761SOL    HW225426   1.009   2.661   0.414
 2762SOL     OW25427   5.907   1.035   0.458
 2762SOL    HW125428   5.986   1.005   0.413
 2762SOL    HW225429   5.895   0.973   0.530
 2763SOL     OW25430   4.590   6.048   6.952
 2763SOL    HW125431   4.667   6.096   6.921
 2763SOL    HW225432   4.623   5.992   7.023
 2764SOL     OW25433   6.383   5.283   7.565
 2764SOL    HW125434   6.336   5.243   7.639
 2764SOL    HW225435   6.475   5.278   7.589
 2765SOL     OW25436   4.960   1.847   0.632
 2765SOL    HW125437   4.948   1.753   0.619
 2765SOL    HW225438   4.886   1.888   0.587
 2766SOL     OW25439   3.352   6.186   5.640
 2766SOL    HW125440   3.387   6.099   5.622
 2766SOL    HW225441   3.262   6.183   5.608
 2767SOL     OW25442   3.157   2.498   5.401
 2767SOL    HW125443   3.062   2.509   5.411
 2767SOL    HW225444   3.194   2.537   5.480
 2768SOL     OW25445   4.586   2.462   0.856
 2768SOL    HW125446   4.657   2.411   0.893
 2768SOL    HW225447   4.627   2.543   0.825
 2769SOL     OW25448   2.858   6.354   5.738
 2769SOL    HW125449   2.944   6.395   5.724
 2769SOL    HW225450   2.844   6.361   5.832
 2770SOL     OW25451   4.028   2.548   7.238
 2770SOL    HW125452   4.032   2.453   7.241
 2770SOL    HW225453   3.946   2.570   7.282
 2771SOL     OW25454   1.872   6.406   0.411
 2771SOL    HW125455   1.918   6.379   0.331
 2771SOL    HW225456   1.930   6.472   0.450
 2772SOL     OW25457   3.459   3.402   6.605
 2772SOL    HW125458   3.483   3.491   6.576
 2772SOL    HW225459   3.542   3.364   6.635
 2773SOL     OW25460   1.865   6.028   1.173
 2773SOL    HW125461   1.849   6.112   1.132
 2773SOL    HW225462   1.961   6.019   1.174
 2774SOL     OW25463   5.530   0.513   0.541
 2774SOL    HW125464   5.562   0.596   0.506
 2774SOL    HW225465   5.607   0.473   0.581
 2775SOL     OW25466   1.716   6.271   0.759
 2775SOL    HW125467   1.752   6.268   0.670
 2775SOL    HW225468   1.651   6.341   0.756
 2776SOL     OW25469   5.217   2.481   6.645
 2776SOL    HW125470   5.261   2.552   6.691
 2776SOL    HW225471   5.191   2.519   6.561
 2777SOL     OW25472   1.051   4.500   1.594
 2777SOL    HW125473   1.008   4.417   1.573
 2777SOL    HW225474   1.089   4.529   1.512
 2778SOL     OW25475   2.383   2.236   7.265
 2778SOL    HW125476   2.456   2.182   7.297
 2778SOL    HW225477   2.414   2.271   7.181
 2779SOL     OW25478   1.100   1.698   7.045
 2779SOL    HW125479   1.020   1.704   7.097
 2779SOL    HW225480   1.162   1.653   7.102
 2780SOL     OW25481   5.356   2.035   6.438
 2780SOL    HW125482   5.348   1.948   6.399
 2780SOL    HW225483   5.448   2.059   6.428
 2781SOL     OW25484   4.037   4.082   6.257
 2781SOL    HW125485   4.076   4.043   6.179
 2781SOL    HW225486   3.944   4.092   6.236
 2782SOL     OW25487   4.152   1.214   7.381
 2782SOL    HW125488   4.207   1.158   7.327
 2782SOL    HW225489   4.214   1.263   7.436
 2783SOL     OW25490   0.253   0.724   1.506
 2783SOL    HW125491   0.322   0.741   1.570
 2783SOL    HW225492   0.225   0.635   1.525
 2784SOL     OW25493   3.284   5.477   5.986
 2784SOL    HW125494   3.355   5.455   6.047
 2784SOL    HW225495   3.210   5.424   6.015
 2785SOL     OW25496   2.175   0.148   0.112
 2785SOL    HW125497   2.221   0.231   0.129
 2785SOL    HW225498   2.165   0.146   0.017
 2786SOL     OW25499   2.555   5.850   1.561
 2786SOL    HW125500   2.573   5.781   1.625
 2786SOL    HW225501   2.618   5.919   1.581
 2787SOL     OW25502   1.996   4.238   0.208
 2787SOL    HW125503   2.039   4.163   0.166
 2787SOL    HW225504   2.068   4.295   0.235
 2788SOL     OW25505   4.248   1.903   5.659
 2788SOL    HW125506   4.299   1.946   5.591
 2788SOL    HW225507   4.187   1.971   5.689
 2789SOL     OW25508   5.731   3.212   0.538
 2789SOL    HW125509   5.817   3.175   0.521
 2789SOL    HW225510   5.719   3.280   0.472
 2790SOL     OW25511   2.535   0.552   1.550
 2790SOL    HW125512   2.587   0.608   1.493
 2790SOL    HW225513   2.444   0.570   1.526
 2791SOL     OW25514   5.631   2.248   5.658
 2791SOL    HW125515   5.657   2.281   5.744
 2791SOL    HW225516   5.704   2.193   5.630
 2792SOL     OW25517   6.238   5.670   1.561
 2792SOL    HW125518   6.261   5.578   1.566
 2792SOL    HW225519   6.152   5.676   1.603
 2793SOL     OW25520   3.333   2.540   2.127
 2793SOL    HW125521   3.285   2.466   2.089
 2793SOL    HW225522   3.415   2.542   2.077
 2794SOL     OW25523   5.210   1.224   6.988
 2794SOL    HW125524   5.282   1.276   6.953
 2794SOL    HW225525   5.215   1.236   7.083
 2795SOL     OW25526   6.042   0.018   6.470
 2795SOL    HW125527   5.980   0.067   6.416
 2795SOL    HW225528   5.988   6.441   6.515
 2796SOL     OW25529   5.122   1.973   7.474
 2796SOL    HW125530   5.151   1.953   7.385
 2796SOL    HW225531   5.123   2.069   7.478
 2797SOL     OW25532   4.410   2.704   0.282
 2797SOL    HW125533   4.382   2.776   0.226
 2797SOL    HW225534   4.501   2.687   0.257
 2798SOL     OW25535   0.023   1.956   1.665
 2798SOL    HW125536   6.426   1.983   1.632
 2798SOL    HW225537   0.012   1.864   1.687
 2799SOL     OW25538   5.859   5.986   0.206
 2799SOL    HW125539   5.859   6.033   0.289
 2799SOL    HW225540   5.815   5.903   0.226
 2800SOL     OW25541   5.069   2.302   1.182
 2800SOL    HW125542   5.097   2.332   1.095
 2800SOL    HW225543   5.048   2.383   1.230
 2801SOL     OW25544   0.399   4.166   5.957
 2801SOL    HW125545   0.475   4.164   5.900
 2801SOL    HW225546   0.407   4.087   6.011
 2802SOL     OW25547   2.184   2.000   5.876
 2802SOL    HW125548   2.143   1.964   5.955
 2802SOL    HW225549   2.257   1.941   5.858
 2803SOL     OW25550   1.560   4.419   6.491
 2803SOL    HW125551   1.577   4.332   6.454
 2803SOL    HW225552   1.540   4.402   6.583
 2804SOL     OW25553   6.430   6.295   1.617
 2804SOL    HW125554   6.385   6.363   1.667
 2804SOL    HW225555   0.029   6.332   1.601
 2805SOL     OW25556   4.129   5.412   5.894
 2805SOL    HW125557   4.188   5.471   5.941
 2805SOL    HW225558   4.094   5.355   5.963
 2806SOL     OW25559   4.564   2.754   0.641
 2806SOL    HW125560   4.552   2.679   0.582
 2806SOL    HW225561   4.487   2.809   0.625
 2807SOL     OW25562   0.619   3.652   7.749
 2807SOL    HW125563   0.563   3.616   0.056
 2807SOL    HW225564   0.704   3.665   0.030
 2808SOL     OW25565   4.013   3.905   6.508
 2808SOL    HW125566   4.028   3.954   6.427
 2808SOL    HW225567   3.944   3.954   6.553
 2809SOL     OW25568   0.017   6.221   1.081
 2809SOL    HW125569   6.486   6.263   1.165
 2809SOL    HW225570   0.099   6.260   1.053
 2810SOL     OW25571   4.531   3.658   0.853
 2810SOL    HW125572   4.458   3.669   0.914
 2810SOL    HW225573   4.516   3.724   0.785
 2811SOL     OW25574   0.669   0.827   5.865
 2811SOL    HW125575   0.591   0.864   5.824
 2811SOL    HW225576   0.661   0.733   5.853
 2812SOL     OW25577   4.411   4.028   6.644
 2812SOL    HW125578   4.487   3.996   6.597
 2812SOL    HW225579   4.352   3.953   6.649
 2813SOL     OW25580   2.012   0.948   0.028
 2813SOL    HW125581   2.033   1.036   7.759
 2813SOL    HW225582   2.047   0.890   7.721
 2814SOL     OW25583   3.564   5.056   0.019
 2814SOL    HW125584   3.483   5.089   7.742
 2814SOL    HW225585   3.626   5.129   0.014
 2815SOL     OW25586   0.962   4.226   1.542
 2815SOL    HW125587   0.918   4.227   1.457
 2815SOL    HW225588   0.966   4.133   1.565
 2816SOL     OW25589   5.372   4.486   7.004
 2816SOL    HW125590   5.395   4.408   6.954
 2816SOL    HW225591   5.279   4.499   6.987
 2817SOL     OW25592   2.680   4.292   1.162
 2817SOL    HW125593   2.606   4.232   1.155
 2817SOL    HW225594   2.732   4.258   1.235
 2818SOL     OW25595   5.723   1.195   7.632
 2818SOL    HW125596   5.731   1.155   7.546
 2818SOL    HW225597   5.629   1.203   7.647
 2819SOL     OW25598   2.474   2.441   1.716
 2819SOL    HW125599   2.512   2.528   1.727
 2819SOL    HW225600   2.380   2.456   1.708
 2820SOL     OW25601   5.685   0.391   0.954
 2820SOL    HW125602   5.685   0.461   1.020
 2820SOL    HW225603   5.740   0.323   0.992
 2821SOL     OW25604   4.796   0.228   7.579
 2821SOL    HW125605   4.851   0.171   7.525
 2821SOL    HW225606   4.796   0.312   7.534
 2822SOL     OW25607   1.946   4.529   6.113
 2822SOL    HW125608   1.934   4.510   6.206
 2822SOL    HW225609   2.040   4.539   6.103
 2823SOL     OW25610   0.775   0.091   1.023
 2823SOL    HW125611   0.829   0.139   1.086
 2823SOL    HW225612   0.802   0.124   0.938
 2824SOL     OW25613   3.803   4.288   0.317
 2824SOL    HW125614   3.880   4.322   0.271
 2824SOL    HW225615   3.827   4.292   0.410
 2825SOL     OW25616   0.113   5.112   2.006
 2825SOL    HW125617   0.143   5.075   1.923
 2825SOL    HW225618   0.029   5.070   2.022
 2826SOL     OW25619   0.648   3.582   1.643
 2826SOL    HW125620   0.609   3.665   1.669
 2826SOL    HW225621   0.675   3.542   1.726
 2827SOL     OW25622   0.530   5.627   7.534
 2827SOL    HW125623   0.574   5.669   7.608
 2827SOL    HW225624   0.438   5.648   7.547
 2828SOL     OW25625   0.928   3.691   1.334
 2828SOL    HW125626   0.954   3.634   1.261
 2828SOL    HW225627   0.858   3.643   1.378
 2829SOL     OW25628   5.815   6.145   7.761
 2829SOL    HW125629   5.850   6.083   0.063
 2829SOL    HW225630   5.763   6.207   0.052
 2830SOL     OW25631   6.367   2.881   0.290
 2830SOL    HW125632   6.419   2.940   0.345
 2830SOL    HW225633   6.290   2.861   0.344
 2831SOL     OW25634   0.054   3.282   6.966
 2831SOL    HW125635   0.010   3.310   6.886
 2831SOL    HW225636   0.045   3.356   7.026
 2832SOL     OW25637   1.822   0.097   6.674
 2832SOL    HW125638   1.738   0.125   6.710
 2832SOL    HW225639   1.802   0.065   6.586
 2833SOL     OW25640   3.785   5.226   2.093
 2833SOL    HW125641   3.853   5.258   2.152
 2833SOL    HW225642   3.706   5.223   2.146
 2834SOL     OW25643   1.840   2.383   6.359
 2834SOL    HW125644   1.760   2.412   6.313
 2834SOL    HW225645   1.910   2.397   6.295
 2835SOL     OW25646   0.044   6.410   0.432
 2835SOL    HW125647   6.455   6.465   0.422
 2835SOL    HW225648   0.012   6.329   0.471
 2836SOL     OW25649   3.903   1.269   6.363
 2836SOL    HW125650   3.866   1.344   6.316
 2836SOL    HW225651   3.987   1.253   6.319
 2837SOL     OW25652   1.646   2.935   1.178
 2837SOL    HW125653   1.670   2.921   1.087
 2837SOL    HW225654   1.680   3.022   1.199
 2838SOL     OW25655   4.717   1.797   6.805
 2838SOL    HW125656   4.727   1.757   6.891
 2838SOL    HW225657   4.757   1.884   6.814
 2839SOL     OW25658   3.421   4.431   5.265
 2839SOL    HW125659   3.369   4.363   5.222
 2839SOL    HW225660   3.506   4.391   5.280
 2840SOL     OW25661   6.089   1.479   1.578
 2840SOL    HW125662   6.179   1.496   1.552
 2840SOL    HW225663   6.089   1.490   1.674
 2841SOL     OW25664   0.223   6.017   7.710
 2841SOL    HW125665   0.132   6.048   7.714
 2841SOL    HW225666   0.273   6.085   7.755
 2842SOL     OW25667   5.215   4.354   6.699
 2842SOL    HW125668   5.186   4.435   6.740
 2842SOL    HW225669   5.266   4.382   6.623
 2843SOL     OW25670   0.238   1.975   6.488
 2843SOL    HW125671   0.242   2.048   6.426
 2843SOL    HW225672   0.163   1.923   6.459
 2844SOL     OW25673   0.403   5.679   0.832
 2844SOL    HW125674   0.449   5.655   0.912
 2844SOL    HW225675   0.460   5.742   0.789
 2845SOL     OW25676   5.680   3.591   1.019
 2845SOL    HW125677   5.674   3.512   0.965
 2845SOL    HW225678   5.594   3.631   1.015
 2846SOL     OW25679   6.450   1.693   7.253
 2846SOL    HW125680   6.470   1.756   7.323
 2846SOL    HW225681   0.047   1.675   7.212
 2847SOL     OW25682   5.298   3.151   5.766
 2847SOL    HW125683   5.300   3.154   5.671
 2847SOL    HW225684   5.300   3.242   5.793
 2848SOL     OW25685   3.696   3.260   0.606
 2848SOL    HW125686   3.633   3.193   0.632
 2848SOL    HW225687   3.660   3.342   0.641
 2849SOL     OW25688   3.575   3.979   5.926
 2849SOL    HW125689   3.642   4.033   5.968
 2849SOL    HW225690   3.624   3.908   5.884
 2850SOL     OW25691   5.904   1.722   5.866
 2850SOL    HW125692   5.989   1.753   5.834
 2850SOL    HW225693   5.926   1.645   5.919
 2851SOL     OW25694   0.763   2.862   7.637
 2851SOL    HW125695   0.851   2.870   7.601
 2851SOL    HW225696   0.751   2.768   7.652
 2852SOL     OW25697   5.290   5.608   0.320
 2852SOL    HW125698   5.238   5.675   0.276
 2852SOL    HW225699   5.344   5.570   0.251
 2853SOL     OW25700   4.575   4.960   0.253
 2853SOL    HW125701   4.626   5.014   0.313
 2853SOL    HW225702   4.547   5.020   0.184
 2854SOL     OW25703   1.744   4.326   6.120
 2854SOL    HW125704   1.784   4.253   6.168
 2854SOL    HW225705   1.817   4.369   6.076
 2855SOL     OW25706   1.194   4.257   6.162
 2855SOL    HW125707   1.204   4.340   6.209
 2855SOL    HW225708   1.282   4.237   6.130
 2856SOL     OW25709   0.182   5.328   7.375
 2856SOL    HW125710   0.245   5.257   7.387
 2856SOL    HW225711   0.097   5.284   7.369
 2857SOL     OW25712   2.562   4.316   6.343
 2857SOL    HW125713   2.619   4.381   6.384
 2857SOL    HW225714   2.508   4.283   6.416
 2858SOL     OW25715   3.583   1.431   5.769
 2858SOL    HW125716   3.515   1.375   5.734
 2858SOL    HW225717   3.593   1.404   5.860
 2859SOL     OW25718   1.360   4.895   6.330
 2859SOL    HW125719   1.364   4.922   6.421
 2859SOL    HW225720   1.267   4.905   6.306
 2860SOL     OW25721   4.972   5.594   0.157
 2860SOL    HW125722   4.956   5.569   0.248
 2860SOL    HW225723   5.026   5.673   0.164
 2861SOL     OW25724   3.593   6.190   6.020
 2861SOL    HW125725   3.604   6.242   5.940
 2861SOL    HW225726   3.651   6.115   6.009
 2862SOL     OW25727   6.088   1.500   1.854
 2862SOL    HW125728   6.176   1.534   1.870
 2862SOL    HW225729   6.084   1.420   1.906
 2863SOL     OW25730   5.874   4.353   1.015
 2863SOL    HW125731   5.816   4.424   1.042
 2863SOL    HW225732   5.816   4.289   0.973
 2864SOL     OW25733   2.150   0.215   6.917
 2864SOL    HW125734   2.212   0.258   6.858
 2864SOL    HW225735   2.130   0.283   6.982
 2865SOL     OW25736   1.943   3.892   2.256
 2865SOL    HW125737   1.954   3.905   2.350
 2865SOL    HW225738   1.849   3.893   2.241
 2866SOL     OW25739   4.252   3.032   0.824
 2866SOL    HW125740   4.259   2.955   0.881
 2866SOL    HW225741   4.158   3.037   0.803
 2867SOL     OW25742   2.576   1.789   7.323
 2867SOL    HW125743   2.491   1.752   7.345
 2867SOL    HW225744   2.558   1.849   7.250
 2868SOL     OW25745   2.481   4.943   7.666
 2868SOL    HW125746   2.473   5.030   7.706
 2868SOL    HW225747   2.514   4.961   7.578
 2869SOL     OW25748   3.945   1.740   1.135
 2869SOL    HW125749   4.000   1.791   1.195
 2869SOL    HW225750   3.885   1.805   1.098
 2870SOL     OW25751   4.507   6.219   7.391
 2870SOL    HW125752   4.600   6.238   7.386
 2870SOL    HW225753   4.485   6.181   7.306
 2871SOL     OW25754   6.226   6.224   6.619
 2871SOL    HW125755   6.187   6.303   6.656
 2871SOL    HW225756   6.319   6.230   6.642
 2872SOL     OW25757   2.237   2.234   7.544
 2872SOL    HW125758   2.214   2.264   7.456
 2872SOL    HW225759   2.268   2.313   7.589
 2873SOL     OW25760   2.168   6.345   0.558
 2873SOL    HW125761   2.255   6.305   0.554
 2873SOL    HW225762   2.159   6.390   0.474
 2874SOL     OW25763   2.088   3.849   2.025
 2874SOL    HW125764   2.034   3.847   2.104
 2874SOL    HW225765   2.176   3.869   2.058
 2875SOL     OW25766   3.146   4.294   6.035
 2875SOL    HW125767   3.168   4.377   5.993
 2875SOL    HW225768   3.179   4.302   6.125
 2876SOL     OW25769   4.585   4.242   6.073
 2876SOL    HW125770   4.677   4.265   6.060
 2876SOL    HW225771   4.569   4.259   6.166
 2877SOL     OW25772   3.505   6.144   0.504
 2877SOL    HW125773   3.551   6.174   0.425
 2877SOL    HW225774   3.573   6.103   0.558
 2878SOL     OW25775   2.936   2.350   6.121
 2878SOL    HW125776   2.854   2.333   6.168
 2878SOL    HW225777   2.913   2.418   6.057
 2879SOL     OW25778   6.372   5.428   6.552
 2879SOL    HW125779   6.452   5.385   6.583
 2879SOL    HW225780   6.353   5.386   6.468
 2880SOL     OW25781   4.340   5.879   0.368
 2880SOL    HW125782   4.408   5.911   0.426
 2880SOL    HW225783   4.349   5.932   0.288
 2881SOL     OW25784   3.252   5.089   6.701
 2881SOL    HW125785   3.288   5.004   6.675
 2881SOL    HW225786   3.326   5.149   6.697
 2882SOL     OW25787   4.866   0.504   0.261
 2882SOL    HW125788   4.897   0.496   0.171
 2882SOL    HW225789   4.944   0.489   0.314
 2883SOL     OW25790   3.865   1.513   6.251
 2883SOL    HW125791   3.778   1.552   6.242
 2883SOL    HW225792   3.913   1.544   6.174
 2884SOL     OW25793   3.275   0.954   6.815
 2884SOL    HW125794   3.269   1.045   6.787
 2884SOL    HW225795   3.199   0.912   6.775
 2885SOL     OW25796   2.696   1.203   6.842
 2885SOL    HW125797   2.667   1.112   6.850
 2885SOL    HW225798   2.627   1.254   6.886
 2886SOL     OW25799   4.115   2.534   0.975
 2886SOL    HW125800   4.024   2.506   0.968
 2886SOL    HW225801   4.119   2.615   0.924
 2887SOL     OW25802   1.516   5.520   5.620
 2887SOL    HW125803   1.477   5.589   5.672
 2887SOL    HW225804   1.610   5.541   5.618
 2888SOL     OW25805   3.509   1.678   6.904
 2888SOL    HW125806   3.519   1.657   6.997
 2888SOL    HW225807   3.514   1.593   6.860
 2889SOL     OW25808   5.810   0.111   0.874
 2889SOL    HW125809   5.781   0.022   0.853
 2889SOL    HW225810   5.846   0.144   0.792
 2890SOL     OW25811   3.908   0.612   1.017
 2890SOL    HW125812   3.822   0.647   0.996
 2890SOL    HW225813   3.946   0.675   1.079
 2891SOL     OW25814   5.860   2.477   7.433
 2891SOL    HW125815   5.905   2.474   7.517
 2891SOL    HW225816   5.838   2.570   7.421
 2892SOL     OW25817   6.480   2.597   6.321
 2892SOL    HW125818   0.011   2.514   6.279
 2892SOL    HW225819   6.387   2.613   6.301
 2893SOL     OW25820   3.977   0.189   5.983
 2893SOL    HW125821   3.942   0.228   5.904
 2893SOL    HW225822   4.064   0.157   5.957
 2894SOL     OW25823   0.850   0.819   6.090
 2894SOL    HW125824   0.932   0.844   6.047
 2894SOL    HW225825   0.786   0.817   6.018
 2895SOL     OW25826   1.840   0.224   5.781
 2895SOL    HW125827   1.912   0.223   5.718
 2895SOL    HW225828   1.764   0.196   5.730
 2896SOL     OW25829   2.212   2.085   6.821
 2896SOL    HW125830   2.304   2.109   6.813
 2896SOL    HW225831   2.181   2.133   6.898
 2897SOL     OW25832   1.719   3.597   6.078
 2897SOL    HW125833   1.726   3.668   6.014
 2897SOL    HW225834   1.658   3.535   6.038
 2898SOL     OW25835   0.485   2.809   7.173
 2898SOL    HW125836   0.580   2.812   7.176
 2898SOL    HW225837   0.462   2.831   7.083
 2899SOL     OW25838   5.193   1.547   5.891
 2899SOL    HW125839   5.183   1.595   5.809
 2899SOL    HW225840   5.283   1.513   5.889
 2900SOL     OW25841   3.911   5.204   1.406
 2900SOL    HW125842   3.978   5.203   1.474
 2900SOL    HW225843   3.947   5.260   1.337
 2901SOL     OW25844   2.344   5.320   6.382
 2901SOL    HW125845   2.253   5.292   6.366
 2901SOL    HW225846   2.369   5.274   6.462
 2902SOL     OW25847   4.294   4.935   5.853
 2902SOL    HW125848   4.269   4.907   5.765
 2902SOL    HW225849   4.283   5.031   5.852
 2903SOL     OW25850   4.832   3.886   1.583
 2903SOL    HW125851   4.887   3.938   1.643
 2903SOL    HW225852   4.818   3.804   1.630
 2904SOL     OW25853   2.074   5.040   0.089
 2904SOL    HW125854   2.158   5.077   0.116
 2904SOL    HW225855   2.097   4.962   0.039
 2905SOL     OW25856   4.836   2.529   1.085
 2905SOL    HW125857   4.823   2.451   1.032
 2905SOL    HW225858   4.833   2.602   1.023
 2906SOL     OW25859   1.697   0.319   5.048
 2906SOL    HW125860   1.633   0.364   5.103
 2906SOL    HW225861   1.699   0.230   5.082
 2907SOL     OW25862   6.186   5.875   0.232
 2907SOL    HW125863   6.125   5.888   0.160
 2907SOL    HW225864   6.254   5.941   0.219
 2908SOL     OW25865   5.754   4.163   0.357
 2908SOL    HW125866   5.742   4.253   0.388
 2908SOL    HW225867   5.846   4.158   0.332
 2909SOL     OW25868   2.096   1.414   0.586
 2909SOL    HW125869   2.072   1.349   0.652
 2909SOL    HW225870   2.019   1.471   0.580
 2910SOL     OW25871   6.266   1.051   7.657
 2910SOL    HW125872   6.360   1.064   7.646
 2910SOL    HW225873   6.226   1.112   7.595
 2911SOL     OW25874   6.018   3.107   6.387
 2911SOL    HW125875   5.929   3.134   6.363
 2911SOL    HW225876   6.016   3.097   6.482
 2912SOL     OW25877   4.541   3.045   2.083
 2912SOL    HW125878   4.452   3.058   2.117
 2912SOL    HW225879   4.598   3.079   2.152
 2913SOL     OW25880   5.996   1.992   6.114
 2913SOL    HW125881   5.965   2.044   6.040
 2913SOL    HW225882   6.060   1.932   6.076
 2914SOL     OW25883   3.595   2.632   1.787
 2914SOL    HW125884   3.659   2.601   1.851
 2914SOL    HW225885   3.560   2.712   1.826
 2915SOL     OW25886   3.482   0.964   0.479
 2915SOL    HW125887   3.422   0.918   0.538
 2915SOL    HW225888   3.532   0.894   0.437
 2916SOL     OW25889   4.573   2.953   7.359
 2916SOL    HW125890   4.491   2.950   7.310
 2916SOL    HW225891   4.620   3.028   7.322
 2917SOL     OW25892   6.123   1.329   6.210
 2917SOL    HW125893   6.178   1.348   6.286
 2917SOL    HW225894   6.151   1.243   6.180
 2918SOL     OW25895   3.854   5.167   7.354
 2918SOL    HW125896   3.803   5.102   7.402
 2918SOL    HW225897   3.791   5.211   7.298
 2919SOL     OW25898   6.316   6.134   0.250
 2919SOL    HW125899   6.316   6.150   0.345
 2919SOL    HW225900   6.282   6.215   0.212
 2920SOL     OW25901   4.097   3.603   5.751
 2920SOL    HW125902   4.031   3.578   5.816
 2920SOL    HW225903   4.121   3.693   5.774
 2921SOL     OW25904   3.183   1.816   1.391
 2921SOL    HW125905   3.182   1.902   1.350
 2921SOL    HW225906   3.110   1.769   1.350
 2922SOL     OW25907   3.064   3.257   0.093
 2922SOL    HW125908   3.103   3.178   0.057
 2922SOL    HW225909   3.110   3.271   0.176
 2923SOL     OW25910   3.887   4.277   0.568
 2923SOL    HW125911   3.960   4.216   0.579
 2923SOL    HW225912   3.885   4.327   0.650
 2924SOL     OW25913   2.983   6.342   0.772
 2924SOL    HW125914   2.994   6.432   0.801
 2924SOL    HW225915   2.909   6.344   0.712
 2925SOL     OW25916   4.969   3.225   6.653
 2925SOL    HW125917   5.038   3.179   6.700
 2925SOL    HW225918   4.992   3.215   6.561
 2926SOL     OW25919   4.427   1.268   0.691
 2926SOL    HW125920   4.502   1.246   0.746
 2926SOL    HW225921   4.394   1.183   0.661
 2927SOL     OW25922   4.376   3.466   0.694
 2927SOL    HW125923   4.434   3.448   0.619
 2927SOL    HW225924   4.311   3.396   0.692
 2928SOL     OW25925   5.640   5.683   0.232
 2928SOL    HW125926   5.614   5.591   0.238
 2928SOL    HW225927   5.601   5.714   0.150
 2929SOL     OW25928   0.887   3.473   5.676
 2929SOL    HW125929   0.893   3.510   5.588
 2929SOL    HW225930   0.823   3.402   5.668
 2930SOL     OW25931   5.293   4.096   1.502
 2930SOL    HW125932   5.212   4.053   1.477
 2930SOL    HW225933   5.265   4.175   1.549
 2931SOL     OW25934   4.268   0.011   1.927
 2931SOL    HW125935   4.245   0.039   2.016
 2931SOL    HW225936   4.209   0.062   1.871
 2932SOL     OW25937   2.451   1.944   7.146
 2932SOL    HW125938   2.467   1.881   7.076
 2932SOL    HW225939   2.395   2.011   7.107
 2933SOL     OW25940   3.411   5.983   1.041
 2933SOL    HW125941   3.420   6.064   0.990
 2933SOL    HW225942   3.381   5.919   0.977
 2934SOL     OW25943   0.847   1.847   6.585
 2934SOL    HW125944   0.844   1.824   6.677
 2934SOL    HW225945   0.832   1.764   6.539
 2935SOL     OW25946   5.577   5.848   0.017
 2935SOL    HW125947   5.526   5.923   7.750
 2935SOL    HW225948   5.650   5.842   7.716
 2936SOL     OW25949   1.237   3.001   1.975
 2936SOL    HW125950   1.189   3.083   1.984
 2936SOL    HW225951   1.229   2.960   2.061
 2937SOL     OW25952   4.564   6.054   6.058
 2937SOL    HW125953   4.489   6.106   6.032
 2937SOL    HW225954   4.625   6.117   6.096
 2938SOL     OW25955   2.878   2.306   5.363
 2938SOL    HW125956   2.855   2.269   5.448
 2938SOL    HW225957   2.913   2.231   5.314
 2939SOL     OW25958   0.616   5.619   0.400
 2939SOL    HW125959   0.565   5.665   0.333
 2939SOL    HW225960   0.551   5.573   0.452
 2940SOL     OW25961   6.382   0.760   6.671
 2940SOL    HW125962   6.314   0.809   6.625
 2940SOL    HW225963   6.460   0.815   6.662
 2941SOL     OW25964   2.722   5.186   0.138
 2941SOL    HW125965   2.752   5.134   0.213
 2941SOL    HW225966   2.779   5.263   0.139
 2942SOL     OW25967   6.075   3.308   0.745
 2942SOL    HW125968   6.089   3.216   0.769
 2942SOL    HW225969   6.019   3.342   0.815
 2943SOL     OW25970   2.316   2.756   0.044
 2943SOL    HW125971   2.379   2.823   0.069
 2943SOL    HW225972   2.303   2.704   0.123
 2944SOL     OW25973   0.328   3.537   6.684
 2944SOL    HW125974   0.274   3.616   6.676
 2944SOL    HW225975   0.288   3.474   6.624
 2945SOL     OW25976   0.025   6.220   7.306
 2945SOL    HW125977   0.108   6.243   7.348
 2945SOL    HW225978   6.447   6.256   7.364
 2946SOL     OW25979   0.745   2.834   1.627
 2946SOL    HW125980   0.736   2.886   1.547
 2946SOL    HW225981   0.655   2.820   1.656
 2947SOL     OW25982   2.068   0.646   0.613
 2947SOL    HW125983   2.123   0.713   0.654
 2947SOL    HW225984   1.992   0.694   0.581
 2948SOL     OW25985   3.197   5.179   0.850
 2948SOL    HW125986   3.157   5.167   0.936
 2948SOL    HW225987   3.146   5.249   0.809
 2949SOL     OW25988   1.871   0.298   5.366
 2949SOL    HW125989   1.886   0.234   5.296
 2949SOL    HW225990   1.941   0.362   5.354
 2950SOL     OW25991   5.885   3.990   0.738
 2950SOL    HW125992   5.883   3.976   0.832
 2950SOL    HW225993   5.793   3.987   0.711
 2951SOL     OW25994   0.408   2.369   2.212
 2951SOL    HW125995   0.422   2.309   2.138
 2951SOL    HW225996   0.443   2.452   2.182
 2952SOL     OW25997   4.627   0.560   6.673
 2952SOL    HW125998   4.621   0.489   6.609
 2952SOL    HW225999   4.538   0.592   6.682
 2953SOL     OW26000   5.203   1.586   1.249
 2953SOL    HW126001   5.240   1.568   1.335
 2953SOL    HW226002   5.273   1.632   1.202
 2954SOL     OW26003   0.509   2.722   5.873
 2954SOL    HW126004   0.450   2.722   5.798
 2954SOL    HW226005   0.592   2.689   5.839
 2955SOL     OW26006   2.045   0.220   5.606
 2955SOL    HW126007   2.010   0.190   5.522
 2955SOL    HW226008   2.135   0.244   5.587
 2956SOL     OW26009   3.148   5.453   0.549
 2956SOL    HW126010   3.168   5.546   0.538
 2956SOL    HW226011   3.109   5.447   0.637
 2957SOL     OW26012   4.285   2.631   0.501
 2957SOL    HW126013   4.280   2.721   0.533
 2957SOL    HW226014   4.328   2.639   0.415
 2958SOL     OW26015   3.285   3.434   5.953
 2958SOL    HW126016   3.272   3.350   5.910
 2958SOL    HW226017   3.244   3.498   5.894
 2959SOL     OW26018   1.425   3.212   0.235
 2959SOL    HW126019   1.405   3.302   0.210
 2959SOL    HW226020   1.340   3.171   0.248
 2960SOL     OW26021   4.083   5.262   0.708
 2960SOL    HW126022   4.095   5.357   0.713
 2960SOL    HW226023   4.005   5.245   0.761
 2961SOL     OW26024   1.883   0.720   5.405
 2961SOL    HW126025   1.798   0.738   5.364
 2961SOL    HW226026   1.899   0.628   5.386
 2962SOL     OW26027   5.544   5.465   1.905
 2962SOL    HW126028   5.478   5.424   1.849
 2962SOL    HW226029   5.568   5.397   1.967
 2963SOL     OW26030   1.467   5.682   0.043
 2963SOL    HW126031   1.556   5.675   0.007
 2963SOL    HW226032   1.477   5.658   0.135
 2964SOL     OW26033   3.932   4.524   1.328
 2964SOL    HW126034   3.853   4.566   1.362
 2964SOL    HW226035   3.954   4.457   1.392
 2965SOL     OW26036   6.275   2.876   1.486
 2965SOL    HW126037   6.291   2.786   1.456
 2965SOL    HW226038   6.362   2.917   1.485
 2966SOL     OW26039   1.120   0.537   0.285
 2966SOL    HW126040   1.137   0.614   0.339
 2966SOL    HW226041   1.141   0.463   0.342
 2967SOL     OW26042   2.039   1.531   0.968
 2967SOL    HW126043   2.125   1.523   1.009
 2967SOL    HW226044   2.051   1.598   0.901
 2968SOL     OW26045   5.086   1.628   2.086
 2968SOL    HW126046   5.074   1.651   2.178
 2968SOL    HW226047   5.068   1.709   2.038
 2969SOL     OW26048   5.886   0.877   0.731
 2969SOL    HW126049   5.898   0.787   0.761
 2969SOL    HW226050   5.791   0.890   0.729
 2970SOL     OW26051   5.272   5.333   7.266
 2970SOL    HW126052   5.196   5.358   7.215
 2970SOL    HW226053   5.256   5.368   7.354
 2971SOL     OW26054   4.281   5.919   6.141
 2971SOL    HW126055   4.335   5.859   6.089
 2971SOL    HW226056   4.313   5.909   6.231
 2972SOL     OW26057   5.165   2.769   7.516
 2972SOL    HW126058   5.145   2.786   7.424
 2972SOL    HW226059   5.234   2.832   7.538
 2973SOL     OW26060   4.873   0.029   6.822
 2973SOL    HW126061   4.876   0.124   6.815
 2973SOL    HW226062   4.962   0.000   6.802
 2974SOL     OW26063   3.276   0.859   0.189
 2974SOL    HW126064   3.259   0.915   0.113
 2974SOL    HW226065   3.281   0.771   0.152
 2975SOL     OW26066   6.149   3.457   6.512
 2975SOL    HW126067   6.164   3.394   6.583
 2975SOL    HW226068   6.108   3.532   6.555
 2976SOL     OW26069   3.224   4.687   6.197
 2976SOL    HW126070   3.281   4.617   6.169
 2976SOL    HW226071   3.180   4.652   6.275
 2977SOL     OW26072   2.087   5.344   7.517
 2977SOL    HW126073   2.133   5.269   7.478
 2977SOL    HW226074   2.040   5.307   7.592
 2978SOL     OW26075   2.311   2.599   7.187
 2978SOL    HW126076   2.361   2.677   7.211
 2978SOL    HW226077   2.275   2.567   7.269
 2979SOL     OW26078   2.568   4.587   1.885
 2979SOL    HW126079   2.518   4.541   1.952
 2979SOL    HW226080   2.505   4.647   1.845
 2980SOL     OW26081   0.676   4.525   5.504
 2980SOL    HW126082   0.764   4.516   5.467
 2980SOL    HW226083   0.687   4.503   5.597
 2981SOL     OW26084   2.650   4.269   5.902
 2981SOL    HW126085   2.661   4.364   5.900
 2981SOL    HW226086   2.733   4.235   5.935
 2982SOL     OW26087   5.707   4.486   6.746
 2982SOL    HW126088   5.788   4.510   6.700
 2982SOL    HW226089   5.670   4.415   6.694
 2983SOL     OW26090   5.513   1.999   7.597
 2983SOL    HW126091   5.479   2.019   7.510
 2983SOL    HW226092   5.435   1.984   7.651
 2984SOL     OW26093   3.041   0.401   1.535
 2984SOL    HW126094   3.121   0.359   1.569
 2984SOL    HW226095   3.053   0.494   1.555
 2985SOL     OW26096   4.578   0.121   5.993
 2985SOL    HW126097   4.524   0.092   5.919
 2985SOL    HW226098   4.668   0.100   5.966
 2986SOL     OW26099   5.325   6.413   1.120
 2986SOL    HW126100   5.407   6.454   1.091
 2986SOL    HW226101   5.262   6.485   1.122
 2987SOL     OW26102   4.947   5.381   6.912
 2987SOL    HW126103   4.865   5.426   6.892
 2987SOL    HW226104   4.922   5.291   6.931
 2988SOL     OW26105   4.266   0.517   0.114
 2988SOL    HW126106   4.320   0.448   0.154
 2988SOL    HW226107   4.228   0.564   0.188
 2989SOL     OW26108   4.570   1.580   0.121
 2989SOL    HW126109   4.584   1.516   0.052
 2989SOL    HW226110   4.654   1.587   0.166
 2990SOL     OW26111   6.351   5.157   6.138
 2990SOL    HW126112   6.289   5.144   6.067
 2990SOL    HW226113   6.412   5.084   6.130
 2991SOL     OW26114   4.524   4.977   1.174
 2991SOL    HW126115   4.579   4.995   1.251
 2991SOL    HW226116   4.571   5.017   1.101
 2992SOL     OW26117   2.523   6.474   0.145
 2992SOL    HW126118   2.595   0.037   0.181
 2992SOL    HW226119   2.540   6.385   0.175
 2993SOL     OW26120   5.190   0.270   5.250
 2993SOL    HW126121   5.206   0.197   5.310
 2993SOL    HW226122   5.118   0.240   5.194
 2994SOL     OW26123   3.282   2.867   5.840
 2994SOL    HW126124   3.221   2.835   5.773
 2994SOL    HW226125   3.365   2.877   5.794
 2995SOL     OW26126   5.588   4.956   0.319
 2995SOL    HW126127   5.576   4.918   0.232
 2995SOL    HW226128   5.502   4.990   0.342
 2996SOL     OW26129   5.438   4.419   0.980
 2996SOL    HW126130   5.489   4.433   0.900
 2996SOL    HW226131   5.363   4.478   0.971
 2997SOL     OW26132   2.331   0.660   7.189
 2997SOL    HW126133   2.299   0.614   7.267
 2997SOL    HW226134   2.403   0.607   7.157
 2998SOL     OW26135   2.267   5.912   7.208
 2998SOL    HW126136   2.186   5.896   7.256
 2998SOL    HW226137   2.302   5.992   7.246
 2999SOL     OW26138   1.200   4.732   5.735
 2999SOL    HW126139   1.158   4.817   5.754
 2999SOL    HW226140   1.293   4.753   5.727
 3000SOL     OW26141   0.762   4.619   0.070
 3000SOL    HW126142   0.855   4.638   0.080
 3000SOL    HW226143   0.760   4.532   0.030
 3001SOL     OW26144   2.553   5.894   0.256
 3001SOL    HW126145   2.545   5.880   0.161
 3001SOL    HW226146   2.463   5.906   0.285
 3002SOL     OW26147   5.143   4.037   0.142
 3002SOL    HW126148   5.170   4.110   0.086
 3002SOL    HW226149   5.048   4.044   0.146
 3003SOL     OW26150   1.522   0.605   0.895
 3003SOL    HW126151   1.482   0.676   0.843
 3003SOL    HW226152   1.456   0.584   0.961
 3004SOL     OW26153   0.663   0.867   1.192
 3004SOL    HW126154   0.657   0.949   1.241
 3004SOL    HW226155   0.602   0.808   1.235
 3005SOL     OW26156   1.717   0.137   5.514
 3005SOL    HW126157   1.777   0.183   5.456
 3005SOL    HW226158   1.718   0.047   5.482
 3006SOL     OW26159   2.624   1.147   0.278
 3006SOL    HW126160   2.693   1.093   0.317
 3006SOL    HW226161   2.669   1.196   0.209
 3007SOL     OW26162   3.640   2.374   6.475
 3007SOL    HW126163   3.712   2.405   6.529
 3007SOL    HW226164   3.613   2.451   6.425
 3008SOL     OW26165   2.011   1.580   6.518
 3008SOL    HW126166   2.060   1.600   6.438
 3008SOL    HW226167   1.988   1.665   6.554
 3009SOL     OW26168   2.796   3.336   6.966
 3009SOL    HW126169   2.884   3.362   6.941
 3009SOL    HW226170   2.741   3.412   6.946
 3010SOL     OW26171   3.030   6.013   2.001
 3010SOL    HW126172   3.085   5.983   1.929
 3010SOL    HW226173   3.009   6.104   1.980
 3011SOL     OW26174   4.933   3.958   1.924
 3011SOL    HW126175   4.979   3.887   1.968
 3011SOL    HW226176   4.855   3.973   1.976
 3012SOL     OW26177   2.014   0.015   7.350
 3012SOL    HW126178   1.973   6.429   7.306
 3012SOL    HW226179   2.093   0.033   7.299
 3013SOL     OW26180   1.589   5.377   6.230
 3013SOL    HW126181   1.509   5.426   6.214
 3013SOL    HW226182   1.623   5.413   6.312
 3014SOL     OW26183   2.990   5.560   2.289
 3014SOL    HW126184   2.906   5.602   2.269
 3014SOL    HW226185   3.050   5.633   2.301
 3015SOL     OW26186   1.239   0.375   6.505
 3015SOL    HW126187   1.299   0.416   6.443
 3015SOL    HW226188   1.224   0.442   6.572
 3016SOL     OW26189   3.986   0.563   5.717
 3016SOL    HW126190   3.912   0.605   5.674
 3016SOL    HW226191   4.060   0.578   5.658
 3017SOL     OW26192   4.229   5.700   5.682
 3017SOL    HW126193   4.184   5.723   5.601
 3017SOL    HW226194   4.251   5.607   5.672
 3018SOL     OW26195   0.610   1.146   6.152
 3018SOL    HW126196   0.631   1.081   6.218
 3018SOL    HW226197   0.663   1.121   6.076
 3019SOL     OW26198   1.772   4.605   7.174
 3019SOL    HW126199   1.747   4.514   7.192
 3019SOL    HW226200   1.772   4.646   7.261
 3020SOL     OW26201   4.389   2.120   6.366
 3020SOL    HW126202   4.463   2.084   6.318
 3020SOL    HW226203   4.340   2.043   6.397
 3021SOL     OW26204   5.872   3.179   1.529
 3021SOL    HW126205   5.870   3.084   1.534
 3021SOL    HW226206   5.964   3.202   1.543
 3022SOL     OW26207   2.245   0.532   1.247
 3022SOL    HW126208   2.254   0.548   1.340
 3022SOL    HW226209   2.164   0.482   1.239
 3023SOL     OW26210   4.930   6.015   5.909
 3023SOL    HW126211   4.858   5.952   5.903
 3023SOL    HW226212   4.899   6.091   5.860
 3024SOL     OW26213   4.952   2.307   7.220
 3024SOL    HW126214   4.956   2.254   7.140
 3024SOL    HW226215   4.989   2.251   7.288
 3025SOL     OW26216   0.955   0.846   0.490
 3025SOL    HW126217   1.030   0.888   0.449
 3025SOL    HW226218   0.897   0.919   0.515
 3026SOL     OW26219   3.907   4.720   0.447
 3026SOL    HW126220   3.908   4.807   0.407
 3026SOL    HW226221   3.832   4.676   0.407
 3027SOL     OW26222   2.925   2.468   1.340
 3027SOL    HW126223   2.953   2.426   1.260
 3027SOL    HW226224   2.857   2.410   1.376
 3028SOL     OW26225   2.484   0.984   5.683
 3028SOL    HW126226   2.421   0.939   5.627
 3028SOL    HW226227   2.557   1.006   5.625
 3029SOL     OW26228   2.094   6.482   6.305
 3029SOL    HW126229   2.182   6.445   6.291
 3029SOL    HW226230   2.110   0.075   6.353
 3030SOL     OW26231   0.796   2.082   0.528
 3030SOL    HW126232   0.747   2.164   0.518
 3030SOL    HW226233   0.841   2.092   0.612
 3031SOL     OW26234   5.572   0.867   5.277
 3031SOL    HW126235   5.582   0.775   5.303
 3031SOL    HW226236   5.631   0.915   5.335
 3032SOL     OW26237   0.865   0.210   1.765
 3032SOL    HW126238   0.950   0.226   1.724
 3032SOL    HW226239   0.803   0.257   1.710
 3033SOL     OW26240   2.039   4.288   5.609
 3033SOL    HW126241   2.069   4.198   5.621
 3033SOL    HW226242   2.004   4.313   5.695
 3034SOL     OW26243   4.506   4.428   1.375
 3034SOL    HW126244   4.440   4.409   1.307
 3034SOL    HW226245   4.577   4.471   1.327
 3035SOL     OW26246   0.182   1.694   6.856
 3035SOL    HW126247   0.228   1.727   6.779
 3035SOL    HW226248   0.153   1.607   6.831
 3036SOL     OW26249   2.826   4.864   6.939
 3036SOL    HW126250   2.884   4.877   7.014
 3036SOL    HW226251   2.742   4.840   6.978
 3037SOL     OW26252   5.572   4.857   1.099
 3037SOL    HW126253   5.518   4.803   1.041
 3037SOL    HW226254   5.614   4.920   1.040
 3038SOL     OW26255   4.669   2.937   1.454
 3038SOL    HW126256   4.673   3.015   1.398
 3038SOL    HW226257   4.577   2.910   1.450
 3039SOL     OW26258   2.524   5.421   0.414
 3039SOL    HW126259   2.491   5.332   0.400
 3039SOL    HW226260   2.556   5.448   0.328
 3040SOL     OW26261   2.006   4.702   0.637
 3040SOL    HW126262   2.049   4.788   0.642
 3040SOL    HW226263   2.006   4.680   0.544
 3041SOL     OW26264   2.433   5.961   7.537
 3041SOL    HW126265   2.373   6.002   7.475
 3041SOL    HW226266   2.445   6.026   7.606
 3042SOL     OW26267   5.118   4.949   0.829
 3042SOL    HW126268   5.178   4.940   0.903
 3042SOL    HW226269   5.042   4.996   0.864
 3043SOL     OW26270   5.818   0.338   7.456
 3043SOL    HW126271   5.742   0.371   7.409
 3043SOL    HW226272   5.797   0.247   7.475
 3044SOL     OW26273   0.788   3.501   6.685
 3044SOL    HW126274   0.730   3.567   6.648
 3044SOL    HW226275   0.848   3.478   6.614
 3045SOL     OW26276   4.387   0.616   0.836
 3045SOL    HW126277   4.373   0.523   0.850
 3045SOL    HW226278   4.338   0.659   0.906
 3046SOL     OW26279   5.126   2.472   2.049
 3046SOL    HW126280   5.114   2.450   1.956
 3046SOL    HW226281   5.070   2.548   2.063
 3047SOL     OW26282   6.405   5.915   0.506
 3047SOL    HW126283   6.376   5.857   0.436
 3047SOL    HW226284   0.005   5.884   0.527
 3048SOL     OW26285   2.278   1.635   1.107
 3048SOL    HW126286   2.242   1.639   1.196
 3048SOL    HW226287   2.354   1.693   1.109
 3049SOL     OW26288   3.651   2.789   7.115
 3049SOL    HW126289   3.622   2.704   7.083
 3049SOL    HW226290   3.633   2.787   7.209
 3050SOL     OW26291   4.624   4.665   7.069
 3050SOL    HW126292   4.678   4.620   7.134
 3050SOL    HW226293   4.600   4.597   7.006
 3051SOL     OW26294   5.578   2.870   1.166
 3051SOL    HW126295   5.661   2.878   1.212
 3051SOL    HW226296   5.573   2.777   1.142
 3052SOL     OW26297   4.448   5.343   6.821
 3052SOL    HW126298   4.538   5.375   6.811
 3052SOL    HW226299   4.452   5.278   6.890
 3053SOL     OW26300   1.285   2.362   6.479
 3053SOL    HW126301   1.336   2.443   6.485
 3053SOL    HW226302   1.281   2.343   6.386
 3054SOL     OW26303   0.328   2.420   5.846
 3054SOL    HW126304   0.300   2.460   5.928
 3054SOL    HW226305   0.414   2.457   5.828
 3055SOL     OW26306   2.078   3.355   1.901
 3055SOL    HW126307   2.024   3.346   1.979
 3055SOL    HW226308   2.083   3.449   1.886
 3056SOL     OW26309   1.688   6.139   6.218
 3056SOL    HW126310   1.764   6.133   6.275
 3056SOL    HW226311   1.629   6.069   6.248
 3057SOL     OW26312   2.070   4.583   5.840
 3057SOL    HW126313   2.079   4.640   5.764
 3057SOL    HW226314   2.148   4.601   5.893
 3058SOL     OW26315   2.123   3.750   0.210
 3058SOL    HW126316   2.086   3.704   0.135
 3058SOL    HW226317   2.212   3.771   0.184
 3059SOL     OW26318   0.821   4.884   1.251
 3059SOL    HW126319   0.870   4.936   1.315
 3059SOL    HW226320   0.840   4.925   1.167
 3060SOL     OW26321   6.002   5.844   1.353
 3060SOL    HW126322   5.978   5.844   1.446
 3060SOL    HW226323   5.977   5.757   1.322
 3061SOL     OW26324   2.336   5.444   5.216
 3061SOL    HW126325   2.308   5.497   5.291
 3061SOL    HW226326   2.310   5.354   5.239
 3062SOL     OW26327   2.469   3.048   6.357
 3062SOL    HW126328   2.429   2.983   6.415
 3062SOL    HW226329   2.410   3.054   6.283
 3063SOL     OW26330   1.081   0.251   5.939
 3063SOL    HW126331   1.051   0.342   5.927
 3063SOL    HW226332   1.165   0.260   5.984
 3064SOL     OW26333   5.903   2.154   6.905
 3064SOL    HW126334   5.894   2.245   6.877
 3064SOL    HW226335   5.955   2.158   6.985
 3065SOL     OW26336   4.855   2.520   1.362
 3065SOL    HW126337   4.852   2.517   1.267
 3065SOL    HW226338   4.931   2.574   1.382
 3066SOL     OW26339   4.713   4.185   5.326
 3066SOL    HW126340   4.657   4.136   5.267
 3066SOL    HW226341   4.764   4.118   5.372
 3067SOL     OW26342   3.733   1.381   6.730
 3067SOL    HW126343   3.705   1.399   6.820
 3067SOL    HW226344   3.794   1.452   6.709
 3068SOL     OW26345   5.707   1.623   0.306
 3068SOL    HW126346   5.690   1.717   0.310
 3068SOL    HW226347   5.785   1.614   0.251
 3069SOL     OW26348   3.999   1.199   6.790
 3069SOL    HW126349   3.994   1.162   6.878
 3069SOL    HW226350   3.930   1.154   6.741
 3070SOL     OW26351   0.516   6.355   6.443
 3070SOL    HW126352   0.602   6.392   6.464
 3070SOL    HW226353   0.536   6.267   6.411
 3071SOL     OW26354   5.031   0.933   0.889
 3071SOL    HW126355   5.099   0.999   0.873
 3071SOL    HW226356   5.080   0.855   0.914
 3072SOL     OW26357   0.278   0.061   6.448
 3072SOL    HW126358   0.353   0.002   6.439
 3072SOL    HW226359   0.207   0.016   6.402
 3073SOL     OW26360   1.017   2.049   1.626
 3073SOL    HW126361   0.970   1.976   1.665
 3073SOL    HW226362   1.034   2.108   1.699
 3074SOL     OW26363   1.722   5.702   0.659
 3074SOL    HW126364   1.721   5.797   0.646
 3074SOL    HW226365   1.674   5.688   0.740
 3075SOL     OW26366   3.246   4.651   1.286
 3075SOL    HW126367   3.292   4.679   1.365
 3075SOL    HW226368   3.214   4.732   1.246
 3076SOL     OW26369   2.769   1.540   0.567
 3076SOL    HW126370   2.809   1.591   0.496
 3076SOL    HW226371   2.675   1.541   0.546
 3077SOL     OW26372   6.272   0.644   0.312
 3077SOL    HW126373   6.366   0.645   0.329
 3077SOL    HW226374   6.251   0.551   0.302
 3078SOL     OW26375   4.825   1.509   1.553
 3078SOL    HW126376   4.860   1.479   1.637
 3078SOL    HW226377   4.858   1.598   1.544
 3079SOL     OW26378   6.487   5.121   7.362
 3079SOL    HW126379   6.403   5.143   7.401
 3079SOL    HW226380   0.024   5.038   7.403
 3080SOL     OW26381   2.793   5.671   0.089
 3080SOL    HW126382   2.791   5.764   0.110
 3080SOL    HW226383   2.826   5.667   7.761
 3081SOL     OW26384   1.122   5.509   1.574
 3081SOL    HW126385   1.044   5.529   1.626
 3081SOL    HW226386   1.193   5.557   1.617
 3082SOL     OW26387   4.360   3.882   0.970
 3082SOL    HW126388   4.382   3.913   1.058
 3082SOL    HW226389   4.273   3.844   0.979
 3083SOL     OW26390   0.754   2.669   5.741
 3083SOL    HW126391   0.795   2.721   5.810
 3083SOL    HW226392   0.825   2.651   5.679
 3084SOL     OW26393   4.251   3.931   7.601
 3084SOL    HW126394   4.264   3.972   7.516
 3084SOL    HW226395   4.255   3.837   7.583
 3085SOL     OW26396   3.394   5.896   0.567
 3085SOL    HW126397   3.385   5.988   0.542
 3085SOL    HW226398   3.488   5.879   0.566
 3086SOL     OW26399   3.652   3.999   6.433
 3086SOL    HW126400   3.713   4.011   6.506
 3086SOL    HW226401   3.702   4.023   6.355
 3087SOL     OW26402   3.203   4.634   7.542
 3087SOL    HW126403   3.140   4.704   7.524
 3087SOL    HW226404   3.155   4.573   7.598
 3088SOL     OW26405   4.588   5.470   7.719
 3088SOL    HW126406   4.505   5.452   0.001
 3088SOL    HW226407   4.603   5.393   7.664
 3089SOL     OW26408   2.505   4.997   6.389
 3089SOL    HW126409   2.549   4.912   6.389
 3089SOL    HW226410   2.573   5.060   6.410
 3090SOL     OW26411   4.337   4.643   0.974
 3090SOL    HW126412   4.370   4.699   1.044
 3090SOL    HW226413   4.355   4.554   1.005
 3091SOL     OW26414   0.359   1.331   6.167
 3091SOL    HW126415   0.413   1.257   6.140
 3091SOL    HW226416   0.395   1.405   6.117
 3092SOL     OW26417   0.528   1.019   1.403
 3092SOL    HW126418   0.550   0.939   1.451
 3092SOL    HW226419   0.536   1.089   1.468
 3093SOL     OW26420   2.645   5.062   0.599
 3093SOL    HW126421   2.651   5.041   0.506
 3093SOL    HW226422   2.736   5.063   0.629
 3094SOL     OW26423   4.402   6.269   6.671
 3094SOL    HW126424   4.405   6.312   6.586
 3094SOL    HW226425   4.454   6.325   6.729
 3095SOL     OW26426   4.932   3.011   7.539
 3095SOL    HW126427   4.889   2.975   7.616
 3095SOL    HW226428   4.952   2.935   7.484
 3096SOL     OW26429   5.517   3.445   0.344
 3096SOL    HW126430   5.540   3.512   0.408
 3096SOL    HW226431   5.476   3.494   0.272
 3097SOL     OW26432   1.630   0.897   0.933
 3097SOL    HW126433   1.659   0.831   0.997
 3097SOL    HW226434   1.547   0.862   0.899
 3098SOL     OW26435   2.792   3.001   7.668
 3098SOL    HW126436   2.873   2.977   7.714
 3098SOL    HW226437   2.753   3.070   7.723
 3099SOL     OW26438   1.897   2.450   1.377
 3099SOL    HW126439   1.861   2.443   1.288
 3099SOL    HW226440   1.874   2.366   1.418
 3100SOL     OW26441   5.358   4.276   1.235
 3100SOL    HW126442   5.415   4.217   1.284
 3100SOL    HW226443   5.414   4.311   1.165
 3101SOL     OW26444   4.112   2.788   0.900
 3101SOL    HW126445   4.068   2.817   0.821
 3101SOL    HW226446   4.062   2.828   0.971
 3102SOL     OW26447   4.434   5.668   6.218
 3102SOL    HW126448   4.452   5.748   6.266
 3102SOL    HW226449   4.398   5.608   6.283
 3103SOL     OW26450   4.460   1.515   6.394
 3103SOL    HW126451   4.545   1.518   6.437
 3103SOL    HW226452   4.414   1.441   6.434
 3104SOL     OW26453   4.693   5.889   7.728
 3104SOL    HW126454   4.613   5.848   7.761
 3104SOL    HW226455   4.761   5.822   7.739
 3105SOL     OW26456   1.074   1.710   7.610
 3105SOL    HW126457   1.011   1.761   7.661
 3105SOL    HW226458   1.155   1.714   7.662
 3106SOL     OW26459   0.700   1.355   6.963
 3106SOL    HW126460   0.782   1.356   7.012
 3106SOL    HW226461   0.704   1.276   6.910
 3107SOL     OW26462   0.581   0.431   6.753
 3107SOL    HW126463   0.496   0.472   6.738
 3107SOL    HW226464   0.643   0.486   6.706
 3108SOL     OW26465   0.729   4.980   5.869
 3108SOL    HW126466   0.655   5.015   5.819
 3108SOL    HW226467   0.767   4.914   5.811
 3109SOL     OW26468   5.451   4.638   0.596
 3109SOL    HW126469   5.433   4.728   0.623
 3109SOL    HW226470   5.380   4.617   0.536
 3110SOL     OW26471   5.365   1.543   1.466
 3110SOL    HW126472   5.329   1.616   1.516
 3110SOL    HW226473   5.460   1.560   1.464
 3111SOL     OW26474   1.867   3.200   1.716
 3111SOL    HW126475   1.949   3.239   1.744
 3111SOL    HW226476   1.889   3.111   1.691
 3112SOL     OW26477   5.664   0.497   0.044
 3112SOL    HW126478   5.654   0.568   7.742
 3112SOL    HW226479   5.575   0.466   0.058
 3113SOL     OW26480   4.132   0.837   1.678
 3113SOL    HW126481   4.166   0.919   1.714
 3113SOL    HW226482   4.096   0.791   1.753
 3114SOL     OW26483   0.642   6.247   7.584
 3114SOL    HW126484   0.661   6.334   7.547
 3114SOL    HW226485   0.643   6.188   7.508
 3115SOL     OW26486   5.987   3.857   1.876
 3115SOL    HW126487   5.901   3.821   1.856
 3115SOL    HW226488   6.048   3.796   1.835
 3116SOL     OW26489   4.481   4.742   5.483
 3116SOL    HW126490   4.510   4.804   5.550
 3116SOL    HW226491   4.386   4.738   5.493
 3117SOL     OW26492   4.312   3.089   1.378
 3117SOL    HW126493   4.375   3.083   1.306
 3117SOL    HW226494   4.227   3.080   1.337
 3118SOL     OW26495   4.503   4.713   1.209
 3118SOL    HW126496   4.519   4.807   1.215
 3118SOL    HW226497   4.583   4.678   1.170
 3119SOL     OW26498   4.922   1.140   7.068
 3119SOL    HW126499   4.947   1.110   7.155
 3119SOL    HW226500   5.006   1.154   7.023
 3120SOL     OW26501   3.520   2.900   1.948
 3120SOL    HW126502   3.499   2.864   2.034
 3120SOL    HW226503   3.606   2.940   1.959
 3121SOL     OW26504   3.519   2.792   0.563
 3121SOL    HW126505   3.440   2.840   0.538
 3121SOL    HW226506   3.590   2.838   0.520
 3122SOL     OW26507   0.745   5.609   7.381
 3122SOL    HW126508   0.671   5.605   7.442
 3122SOL    HW226509   0.822   5.594   7.436
 3123SOL     OW26510   5.080   2.657   1.456
 3123SOL    HW126511   5.145   2.587   1.465
 3123SOL    HW226512   5.133   2.736   1.441
 3124SOL     OW26513   1.017   3.383   6.520
 3124SOL    HW126514   1.013   3.385   6.424
 3124SOL    HW226515   1.089   3.324   6.539
 3125SOL     OW26516   0.240   5.582   7.369
 3125SOL    HW126517   0.231   5.488   7.382
 3125SOL    HW226518   0.256   5.617   7.456
 3126SOL     OW26519   3.200   4.533   2.187
 3126SOL    HW126520   3.294   4.539   2.203
 3126SOL    HW226521   3.180   4.609   2.131
 3127SOL     OW26522   6.239   2.293   0.581
 3127SOL    HW126523   6.176   2.348   0.628
 3127SOL    HW226524   6.246   2.333   0.494
 3128SOL     OW26525   1.145   4.658   1.387
 3128SOL    HW126526   1.095   4.681   1.309
 3128SOL    HW226527   1.229   4.702   1.376
 3129SOL     OW26528   2.485   5.174   0.007
 3129SOL    HW126529   2.424   5.241   0.038
 3129SOL    HW226530   2.558   5.175   0.069
 3130SOL     OW26531   6.031   0.348   6.573
 3130SOL    HW126532   6.119   0.312   6.568
 3130SOL    HW226533   6.029   0.417   6.506
 3131SOL     OW26534   5.127   3.720   0.023
 3131SOL    HW126535   5.062   3.694   0.088
 3131SOL    HW226536   5.104   3.809   0.000
 3132SOL     OW26537   5.573   4.213   1.808
 3132SOL    HW126538   5.588   4.284   1.871
 3132SOL    HW226539   5.657   4.167   1.804
 3133SOL     OW26540   4.917   1.640   7.313
 3133SOL    HW126541   4.911   1.544   7.314
 3133SOL    HW226542   4.956   1.663   7.397
 3134SOL     OW26543   0.344   1.000   6.538
 3134SOL    HW126544   0.439   1.004   6.549
 3134SOL    HW226545   0.331   0.992   6.444
 3135SOL     OW26546   5.281   3.509   2.211
 3135SOL    HW126547   5.190   3.532   2.197
 3135SOL    HW226548   5.325   3.534   2.130
 3136SOL     OW26549   3.881   5.656   7.338
 3136SOL    HW126550   3.833   5.717   7.393
 3136SOL    HW226551   3.892   5.578   7.393
 3137SOL     OW26552   3.552   0.071   7.250
 3137SOL    HW126553   3.473   0.027   7.282
 3137SOL    HW226554   3.609   0.077   7.327
 3138SOL     OW26555   0.095   4.467   6.050
 3138SOL    HW126556   0.100   4.560   6.071
 3138SOL    HW226557   0.185   4.435   6.060
 3139SOL     OW26558   2.322   6.358   6.141
 3139SOL    HW126559   2.254   6.372   6.075
 3139SOL    HW226560   2.401   6.394   6.102
 3140SOL     OW26561   3.866   1.652   1.651
 3140SOL    HW126562   3.931   1.619   1.588
 3140SOL    HW226563   3.809   1.708   1.599
 3141SOL     OW26564   3.596   0.622   2.303
 3141SOL    HW126565   3.530   0.559   2.333
 3141SOL    HW226566   3.618   0.593   2.215
 3142SOL     OW26567   4.806   2.008   7.122
 3142SOL    HW126568   4.727   2.050   7.154
 3142SOL    HW226569   4.822   2.049   7.037
 3143SOL     OW26570   0.911   5.036   6.691
 3143SOL    HW126571   0.852   5.070   6.624
 3143SOL    HW226572   0.901   4.941   6.686
 3144SOL     OW26573   0.491   3.829   1.686
 3144SOL    HW126574   0.405   3.870   1.696
 3144SOL    HW226575   0.520   3.856   1.598
 3145SOL     OW26576   2.997   2.398   0.942
 3145SOL    HW126577   2.911   2.418   0.979
 3145SOL    HW226578   2.988   2.419   0.849
 3146SOL     OW26579   5.373   4.776   6.732
 3146SOL    HW126580   5.297   4.717   6.738
 3146SOL    HW226581   5.378   4.818   6.817
 3147SOL     OW26582   1.152   3.410   5.979
 3147SOL    HW126583   1.224   3.473   5.983
 3147SOL    HW226584   1.073   3.463   5.982
 3148SOL     OW26585   2.451   0.294   6.023
 3148SOL    HW126586   2.416   0.226   5.965
 3148SOL    HW226587   2.423   0.377   5.983
 3149SOL     OW26588   3.101   1.673   0.223
 3149SOL    HW126589   3.192   1.697   0.239
 3149SOL    HW226590   3.103   1.577   0.216
 3150SOL     OW26591   2.984   3.605   0.566
 3150SOL    HW126592   2.931   3.568   0.495
 3150SOL    HW226593   2.921   3.630   0.633
 3151SOL     OW26594   5.524   1.332   1.279
 3151SOL    HW126595   5.519   1.378   1.195
 3151SOL    HW226596   5.434   1.312   1.301
 3152SOL     OW26597   5.962   1.138   0.822
 3152SOL    HW126598   5.874   1.176   0.831
 3152SOL    HW226599   5.947   1.049   0.791
 3153SOL     OW26600   0.996   1.434   6.960
 3153SOL    HW126601   1.045   1.515   6.946
 3153SOL    HW226602   1.044   1.368   6.911
 3154SOL     OW26603   2.449   0.943   1.604
 3154SOL    HW126604   2.442   0.998   1.682
 3154SOL    HW226605   2.538   0.955   1.573
 3155SOL     OW26606   3.532   1.195   6.667
 3155SOL    HW126607   3.602   1.259   6.669
 3155SOL    HW226608   3.572   1.114   6.698
 3156SOL     OW26609   4.550   1.021   6.444
 3156SOL    HW126610   4.522   1.072   6.520
 3156SOL    HW226611   4.641   0.999   6.461
 3157SOL     OW26612   4.206   3.405   1.705
 3157SOL    HW126613   4.203   3.346   1.780
 3157SOL    HW226614   4.278   3.372   1.651
 3158SOL     OW26615   2.721   0.556   0.353
 3158SOL    HW126616   2.674   0.614   0.413
 3158SOL    HW226617   2.774   0.616   0.299
 3159SOL     OW26618   1.841   2.041   6.758
 3159SOL    HW126619   1.758   2.065   6.717
 3159SOL    HW226620   1.905   2.101   6.720
 3160SOL     OW26621   4.051   0.982   6.389
 3160SOL    HW126622   4.094   1.005   6.471
 3160SOL    HW226623   3.959   0.973   6.412
 3161SOL     OW26624   5.131   2.646   6.273
 3161SOL    HW126625   5.189   2.571   6.286
 3161SOL    HW226626   5.045   2.614   6.301
 3162SOL     OW26627   0.631   5.853   5.798
 3162SOL    HW126628   0.585   5.873   5.879
 3162SOL    HW226629   0.583   5.778   5.761
 3163SOL     OW26630   3.587   3.956   1.066
 3163SOL    HW126631   3.577   3.994   0.979
 3163SOL    HW226632   3.611   4.030   1.122
 3164SOL     OW26633   4.803   1.204   7.444
 3164SOL    HW126634   4.826   1.113   7.423
 3164SOL    HW226635   4.851   1.223   7.524
 3165SOL     OW26636   1.246   4.400   0.494
 3165SOL    HW126637   1.294   4.384   0.575
 3165SOL    HW226638   1.183   4.469   0.516
 3166SOL     OW26639   3.330   2.891   0.250
 3166SOL    HW126640   3.404   2.838   0.219
 3166SOL    HW226641   3.294   2.931   0.171
 3167SOL     OW26642   4.331   4.092   6.974
 3167SOL    HW126643   4.397   4.153   7.007
 3167SOL    HW226644   4.375   4.046   6.902
 3168SOL     OW26645   5.759   0.816   5.080
 3168SOL    HW126646   5.698   0.847   5.147
 3168SOL    HW226647   5.802   0.896   5.048
 3169SOL     OW26648   4.427   3.743   2.409
 3169SOL    HW126649   4.348   3.765   2.459
 3169SOL    HW226650   4.424   3.648   2.398
 3170SOL     OW26651   3.245   5.287   5.785
 3170SOL    HW126652   3.179   5.285   5.716
 3170SOL    HW226653   3.234   5.373   5.826
 3171SOL     OW26654   0.434   1.987   7.264
 3171SOL    HW126655   0.469   1.921   7.324
 3171SOL    HW226656   0.451   1.951   7.177
 3172SOL     OW26657   5.204   4.846   6.534
 3172SOL    HW126658   5.242   4.811   6.454
 3172SOL    HW226659   5.277   4.854   6.595
 3173SOL     OW26660   0.629   5.652   7.121
 3173SOL    HW126661   0.655   5.668   7.212
 3173SOL    HW226662   0.711   5.627   7.077
 3174SOL     OW26663   0.178   5.495   1.699
 3174SOL    HW126664   0.200   5.480   1.607
 3174SOL    HW226665   0.122   5.573   1.697
 3175SOL     OW26666   5.433   2.066   1.665
 3175SOL    HW126667   5.473   1.981   1.685
 3175SOL    HW226668   5.353   2.068   1.717
 3176SOL     OW26669   4.829   4.756   6.832
 3176SOL    HW126670   4.804   4.696   6.762
 3176SOL    HW226671   4.746   4.785   6.871
 3177SOL     OW26672   3.352   6.080   6.954
 3177SOL    HW126673   3.357   5.996   6.909
 3177SOL    HW226674   3.311   6.139   6.891
 3178SOL     OW26675   4.886   4.300   7.576
 3178SOL    HW126676   4.802   4.320   7.534
 3178SOL    HW226677   4.870   4.317   7.669
 3179SOL     OW26678   1.883   5.553   7.542
 3179SOL    HW126679   1.884   5.618   7.472
 3179SOL    HW226680   1.938   5.482   7.510
 3180SOL     OW26681   4.842   1.005   6.500
 3180SOL    HW126682   4.853   0.923   6.453
 3180SOL    HW226683   4.864   0.984   6.591
 3181SOL     OW26684   4.302   0.350   6.792
 3181SOL    HW126685   4.361   0.287   6.833
 3181SOL    HW226686   4.248   0.297   6.733
 3182SOL     OW26687   2.062   5.762   0.025
 3182SOL    HW126688   2.072   5.786   7.695
 3182SOL    HW226689   2.053   5.667   0.024
 3183SOL     OW26690   4.793   6.146   0.026
 3183SOL    HW126691   4.752   6.061   0.013
 3183SOL    HW226692   4.887   6.129   0.019
 3184SOL     OW26693   1.207   2.883   7.692
 3184SOL    HW126694   1.133   2.933   7.657
 3184SOL    HW226695   1.230   2.822   7.622
 3185SOL     OW26696   1.337   0.513   1.069
 3185SOL    HW126697   1.267   0.483   1.011
 3185SOL    HW226698   1.309   0.484   1.156
 3186SOL     OW26699   3.170   4.008   0.229
 3186SOL    HW126700   3.081   4.036   0.253
 3186SOL    HW226701   3.182   4.042   0.140
 3187SOL     OW26702   0.855   2.109   6.512
 3187SOL    HW126703   0.837   2.028   6.560
 3187SOL    HW226704   0.949   2.123   6.525
 3188SOL     OW26705   2.657   0.797   6.422
 3188SOL    HW126706   2.752   0.792   6.414
 3188SOL    HW226707   2.638   0.767   6.511
 3189SOL     OW26708   5.469   3.763   0.400
 3189SOL    HW126709   5.382   3.802   0.399
 3189SOL    HW226710   5.475   3.714   0.318
 3190SOL     OW26711   2.994   3.768   6.236
 3190SOL    HW126712   2.916   3.740   6.188
 3190SOL    HW226713   3.067   3.744   6.179
 3191SOL     OW26714   5.850   5.685   7.261
 3191SOL    HW126715   5.914   5.643   7.319
 3191SOL    HW226716   5.767   5.641   7.280
 3192SOL     OW26717   5.492   3.323   0.633
 3192SOL    HW126718   5.556   3.272   0.584
 3192SOL    HW226719   5.471   3.396   0.575
 3193SOL     OW26720   5.607   0.735   6.230
 3193SOL    HW126721   5.608   0.810   6.290
 3193SOL    HW226722   5.633   0.772   6.145
 3194SOL     OW26723   4.301   4.941   5.091
 3194SOL    HW126724   4.254   5.024   5.085
 3194SOL    HW226725   4.236   4.875   5.072
 3195SOL     OW26726   3.132   3.392   5.402
 3195SOL    HW126727   3.046   3.400   5.361
 3195SOL    HW226728   3.136   3.301   5.431
 3196SOL     OW26729   1.932   3.413   5.507
 3196SOL    HW126730   1.856   3.394   5.561
 3196SOL    HW226731   1.895   3.440   5.423
 3197SOL     OW26732   2.417   0.572   6.009
 3197SOL    HW126733   2.429   0.617   5.925
 3197SOL    HW226734   2.439   0.638   6.075
 3198SOL     OW26735   0.576   3.374   5.392
 3198SOL    HW126736   0.600   3.359   5.483
 3198SOL    HW226737   0.514   3.446   5.394
 3199SOL     OW26738   0.381   4.811   1.375
 3199SOL    HW126739   0.430   4.802   1.294
 3199SOL    HW226740   0.344   4.899   1.372
 3200SOL     OW26741   5.960   3.698   2.160
 3200SOL    HW126742   5.938   3.777   2.110
 3200SOL    HW226743   6.053   3.684   2.145
 3201SOL     OW26744   4.934   1.674   6.661
 3201SOL    HW126745   4.950   1.614   6.734
 3201SOL    HW226746   4.863   1.731   6.691
 3202SOL     OW26747   2.006   6.030   6.169
 3202SOL    HW126748   1.951   6.006   6.244
 3202SOL    HW226749   1.985   6.121   6.152
 3203SOL     OW26750   1.696   2.736   0.214
 3203SOL    HW126751   1.719   2.820   0.174
 3203SOL    HW226752   1.640   2.759   0.288
 3204SOL     OW26753   3.189   2.326   2.028
 3204SOL    HW126754   3.206   2.241   1.987
 3204SOL    HW226755   3.164   2.306   2.118
 3205SOL     OW26756   0.225   2.926   6.441
 3205SOL    HW126757   0.271   2.986   6.500
 3205SOL    HW226758   0.148   2.974   6.412
 3206SOL     OW26759   0.472   3.202   0.697
 3206SOL    HW126760   0.559   3.197   0.736
 3206SOL    HW226761   0.427   3.270   0.746
 3207SOL     OW26762   5.992   0.582   1.429
 3207SOL    HW126763   6.017   0.620   1.345
 3207SOL    HW226764   6.062   0.520   1.449
 3208SOL     OW26765   0.055   3.875   0.083
 3208SOL    HW126766   6.466   3.931   0.076
 3208SOL    HW226767   0.087   3.891   0.172
 3209SOL     OW26768   1.672   3.952   1.108
 3209SOL    HW126769   1.651   3.989   1.194
 3209SOL    HW226770   1.590   3.960   1.059
 3210SOL     OW26771   4.486   5.739   0.042
 3210SOL    HW126772   4.441   5.654   0.040
 3210SOL    HW226773   4.418   5.802   0.065
 3211SOL     OW26774   0.626   3.529   1.278
 3211SOL    HW126775   0.620   3.465   1.207
 3211SOL    HW226776   0.679   3.485   1.345
 3212SOL     OW26777   2.764   5.367   7.591
 3212SOL    HW126778   2.767   5.405   7.679
 3212SOL    HW226779   2.851   5.382   7.555
 3213SOL     OW26780   1.834   2.247   1.550
 3213SOL    HW126781   1.875   2.182   1.607
 3213SOL    HW226782   1.794   2.196   1.480
 3214SOL     OW26783   1.715   3.439   6.891
 3214SOL    HW126784   1.750   3.351   6.878
 3214SOL    HW226785   1.624   3.433   6.863
 3215SOL     OW26786   1.641   4.584   1.812
 3215SOL    HW126787   1.661   4.677   1.809
 3215SOL    HW226788   1.605   4.570   1.900
 3216SOL     OW26789   5.561   0.796   0.472
 3216SOL    HW126790   5.568   0.891   0.482
 3216SOL    HW226791   5.629   0.773   0.409
 3217SOL     OW26792   1.431   1.440   6.920
 3217SOL    HW126793   1.442   1.522   6.967
 3217SOL    HW226794   1.393   1.466   6.835
 3218SOL     OW26795   4.089   1.425   5.489
 3218SOL    HW126796   4.143   1.495   5.527
 3218SOL    HW226797   3.999   1.455   5.501
 3219SOL     OW26798   1.295   6.060   6.986
 3219SOL    HW126799   1.311   6.104   7.070
 3219SOL    HW226800   1.372   6.005   6.973
 3220SOL     OW26801   6.441   2.955   7.087
 3220SOL    HW126802   6.391   3.025   7.129
 3220SOL    HW226803   6.442   2.884   7.151
 3221SOL     OW26804   4.047   4.289   5.866
 3221SOL    HW126805   4.031   4.366   5.810
 3221SOL    HW226806   4.070   4.220   5.805
 3222SOL     OW26807   4.522   2.136   1.339
 3222SOL    HW126808   4.550   2.206   1.398
 3222SOL    HW226809   4.483   2.181   1.264
 3223SOL     OW26810   0.996   3.085   1.186
 3223SOL    HW126811   0.981   3.174   1.152
 3223SOL    HW226812   1.084   3.088   1.222
 3224SOL     OW26813   4.783   1.370   1.297
 3224SOL    HW126814   4.784   1.431   1.370
 3224SOL    HW226815   4.874   1.366   1.268
 3225SOL     OW26816   4.918   4.719   1.367
 3225SOL    HW126817   4.896   4.754   1.453
 3225SOL    HW226818   4.885   4.630   1.367
 3226SOL     OW26819   2.869   3.490   0.325
 3226SOL    HW126820   2.800   3.440   0.282
 3226SOL    HW226821   2.865   3.577   0.284
 3227SOL     OW26822   5.252   4.688   1.423
 3227SOL    HW126823   5.180   4.740   1.458
 3227SOL    HW226824   5.225   4.597   1.438
 3228SOL     OW26825   4.180   3.248   7.218
 3228SOL    HW126826   4.161   3.196   7.140
 3228SOL    HW226827   4.214   3.330   7.184
 3229SOL     OW26828   6.000   0.252   7.208
 3229SOL    HW126829   6.041   0.176   7.249
 3229SOL    HW226830   5.907   0.242   7.224
 3230SOL     OW26831   4.767   4.108   0.662
 3230SOL    HW126832   4.849   4.136   0.704
 3230SOL    HW226833   4.721   4.060   0.731
 3231SOL     OW26834   6.445   5.067   0.240
 3231SOL    HW126835   6.395   4.989   0.261
 3231SOL    HW226836   0.024   5.037   0.178
 3232SOL     OW26837   2.914   4.308   7.234
 3232SOL    HW126838   2.950   4.396   7.225
 3232SOL    HW226839   2.859   4.312   7.312
 3233SOL     OW26840   4.829   3.065   0.118
 3233SOL    HW126841   4.923   3.079   0.109
 3233SOL    HW226842   4.821   2.986   0.170
 3234SOL     OW26843   2.995   5.884   0.505
 3234SOL    HW126844   2.906   5.848   0.502
 3234SOL    HW226845   2.982   5.978   0.519
 3235SOL     OW26846   0.507   2.582   1.057
 3235SOL    HW126847   0.502   2.577   0.961
 3235SOL    HW226848   0.600   2.572   1.077
 3236SOL     OW26849   0.669   5.109   7.309
 3236SOL    HW126850   0.668   5.082   7.400
 3236SOL    HW226851   0.604   5.179   7.304
 3237SOL     OW26852   2.828   1.614   7.006
 3237SOL    HW126853   2.826   1.621   6.911
 3237SOL    HW226854   2.829   1.705   7.037
 3238SOL     OW26855   0.718   3.074   6.404
 3238SOL    HW126856   0.771   3.034   6.474
 3238SOL    HW226857   0.705   3.003   6.341
 3239SOL     OW26858   6.442   6.385   5.634
 3239SOL    HW126859   0.045   6.412   5.629
 3239SOL    HW226860   6.407   6.432   5.709
 3240SOL     OW26861   5.767   0.776   1.401
 3240SOL    HW126862   5.792   0.705   1.460
 3240SOL    HW226863   5.673   0.786   1.414
 3241SOL     OW26864   0.101   2.864   7.430
 3241SOL    HW126865   0.089   2.820   7.346
 3241SOL    HW226866   0.193   2.891   7.429
 3242SOL     OW26867   0.227   4.638   0.920
 3242SOL    HW126868   0.289   4.586   0.971
 3242SOL    HW226869   0.241   4.728   0.948
 3243SOL     OW26870   0.554   4.661   7.340
 3243SOL    HW126871   0.642   4.630   7.361
 3243SOL    HW226872   0.556   4.755   7.359
 3244SOL     OW26873   0.022   4.974   1.229
 3244SOL    HW126874   0.066   5.046   1.275
 3244SOL    HW226875   0.092   4.927   1.185
 3245SOL     OW26876   6.004   1.581   5.523
 3245SOL    HW126877   5.919   1.596   5.484
 3245SOL    HW226878   6.067   1.599   5.453
 3246SOL     OW26879   3.931   4.203   1.319
 3246SOL    HW126880   3.982   4.238   1.392
 3246SOL    HW226881   3.989   4.138   1.278
 3247SOL     OW26882   6.214   2.159   6.948
 3247SOL    HW126883   6.261   2.239   6.969
 3247SOL    HW226884   6.162   2.140   7.026
 3248SOL     OW26885   3.811   0.968   0.071
 3248SOL    HW126886   3.875   0.986   0.140
 3248SOL    HW226887   3.828   0.877   0.046
 3249SOL     OW26888   4.591   4.307   0.042
 3249SOL    HW126889   4.527   4.238   0.030
 3249SOL    HW226890   4.583   4.362   7.725
 3250SOL     OW26891   3.885   3.210   0.404
 3250SOL    HW126892   3.896   3.293   0.358
 3250SOL    HW226893   3.854   3.235   0.491
 3251SOL     OW26894   4.978   1.708   0.334
 3251SOL    HW126895   5.052   1.768   0.323
 3251SOL    HW226896   4.944   1.727   0.422
 3252SOL     OW26897   3.038   1.529   7.640
 3252SOL    HW126898   2.943   1.525   7.629
 3252SOL    HW226899   3.071   1.455   7.589
 3253SOL     OW26900   2.960   0.309   0.675
 3253SOL    HW126901   2.953   0.398   0.641
 3253SOL    HW226902   2.907   0.257   0.616
 3254SOL     OW26903   1.568   5.082   7.222
 3254SOL    HW126904   1.600   5.012   7.280
 3254SOL    HW226905   1.473   5.069   7.220
 3255SOL     OW26906   2.484   0.421   1.215
 3255SOL    HW126907   2.429   0.487   1.172
 3255SOL    HW226908   2.559   0.470   1.248
 3256SOL     OW26909   0.047   0.099   6.652
 3256SOL    HW126910   0.028   0.050   6.732
 3256SOL    HW226911   0.134   0.071   6.625
 3257SOL     OW26912   0.838   0.389   2.008
 3257SOL    HW126913   0.824   0.469   1.957
 3257SOL    HW226914   0.884   0.330   1.948
 3258SOL     OW26915   1.994   1.266   1.255
 3258SOL    HW126916   2.010   1.199   1.322
 3258SOL    HW226917   1.924   1.229   1.200
 3259SOL     OW26918   1.133   2.689   7.222
 3259SOL    HW126919   1.148   2.594   7.230
 3259SOL    HW226920   1.078   2.698   7.145
 3260SOL     OW26921   3.534   2.994   7.577
 3260SOL    HW126922   3.506   3.058   7.643
 3260SOL    HW226923   3.559   2.917   7.628
 3261SOL     OW26924   1.395   0.113   1.561
 3261SOL    HW126925   1.406   0.092   1.468
 3261SOL    HW226926   1.474   0.078   1.603
 3262SOL     OW26927   2.328   0.917   0.312
 3262SOL    HW126928   2.401   0.978   0.319
 3262SOL    HW226929   2.250   0.972   0.320
 3263SOL     OW26930   1.885   2.888   1.411
 3263SOL    HW126931   1.901   2.898   1.317
 3263SOL    HW226932   1.923   2.803   1.433
 3264SOL     OW26933   5.121   5.339   0.937
 3264SOL    HW126934   5.145   5.431   0.923
 3264SOL    HW226935   5.056   5.321   0.869
 3265SOL     OW26936   5.495   2.717   2.787
 3265SOL    HW126937   5.517   2.768   2.865
 3265SOL    HW226938   5.579   2.686   2.754
 3266SOL     OW26939   5.091   2.019   2.095
 3266SOL    HW126940   5.054   2.105   2.116
 3266SOL    HW226941   5.053   1.961   2.161
 3267SOL     OW26942   0.130   4.625   6.334
 3267SOL    HW126943   0.110   4.695   6.395
 3267SOL    HW226944   0.108   4.661   6.248
 3268SOL     OW26945   5.752   0.127   0.049
 3268SOL    HW126946   5.844   0.115   0.027
 3268SOL    HW226947   5.751   0.200   0.111
 3269SOL     OW26948   6.046   4.102   1.638
 3269SOL    HW126949   6.125   4.050   1.650
 3269SOL    HW226950   6.007   4.070   1.557
 3270SOL     OW26951   1.930   2.736   5.774
 3270SOL    HW126952   1.864   2.691   5.827
 3270SOL    HW226953   1.996   2.670   5.755
 3271SOL     OW26954   4.149   1.731   5.897
 3271SOL    HW126955   4.216   1.724   5.965
 3271SOL    HW226956   4.158   1.820   5.864
 3272SOL     OW26957   1.686   5.678   6.185
 3272SOL    HW126958   1.623   5.714   6.248
 3272SOL    HW226959   1.764   5.659   6.238
 3273SOL     OW26960   3.256   1.524   1.470
 3273SOL    HW126961   3.349   1.546   1.464
 3273SOL    HW226962   3.211   1.608   1.460
 3274SOL     OW26963   2.781   6.379   6.005
 3274SOL    HW126964   2.793   6.284   6.004
 3274SOL    HW226965   2.794   6.404   6.097
 3275SOL     OW26966   3.721   6.087   6.762
 3275SOL    HW126967   3.773   6.017   6.802
 3275SOL    HW226968   3.675   6.044   6.690
 3276SOL     OW26969   4.512   0.573   0.443
 3276SOL    HW126970   4.434   0.522   0.466
 3276SOL    HW226971   4.584   0.526   0.486
 3277SOL     OW26972   4.817   2.755   2.290
 3277SOL    HW126973   4.758   2.775   2.217
 3277SOL    HW226974   4.844   2.841   2.323
 3278SOL     OW26975   5.590   4.787   6.537
 3278SOL    HW126976   5.516   4.790   6.599
 3278SOL    HW226977   5.667   4.794   6.593
 3279SOL     OW26978   2.911   0.232   5.009
 3279SOL    HW126979   2.902   0.137   5.005
 3279SOL    HW226980   2.964   0.247   5.088
 3280SOL     OW26981   1.903   5.971   0.144
 3280SOL    HW126982   1.957   6.028   0.090
 3280SOL    HW226983   1.935   5.883   0.126
 3281SOL     OW26984   2.026   4.434   5.199
 3281SOL    HW126985   2.114   4.398   5.208
 3281SOL    HW226986   2.010   4.479   5.282
 3282SOL     OW26987   0.054   2.103   7.098
 3282SOL    HW126988   0.025   2.122   7.009
 3282SOL    HW226989   6.470   2.054   7.137
 3283SOL     OW26990   1.528   4.558   0.781
 3283SOL    HW126991   1.503   4.583   0.692
 3283SOL    HW226992   1.584   4.481   0.770
 3284SOL     OW26993   0.904   2.990   5.741
 3284SOL    HW126994   0.905   2.924   5.811
 3284SOL    HW226995   0.830   3.047   5.762
 3285SOL     OW26996   1.608   3.301   5.274
 3285SOL    HW126997   1.575   3.231   5.330
 3285SOL    HW226998   1.669   3.257   5.215
 3286SOL     OW26999   2.691   2.775   6.363
 3286SOL    HW127000   2.608   2.812   6.392
 3286SOL    HW227001   2.757   2.821   6.415
 3287SOL     OW27002   2.771   5.258   1.603
 3287SOL    HW127003   2.734   5.254   1.515
 3287SOL    HW227004   2.807   5.347   1.610
 3288SOL     OW27005   5.364   4.235   0.610
 3288SOL    HW127006   5.320   4.155   0.639
 3288SOL    HW227007   5.293   4.298   0.599
 3289SOL     OW27008   4.856   2.393   5.962
 3289SOL    HW127009   4.902   2.324   6.010
 3289SOL    HW227010   4.807   2.346   5.894
 3290SOL     OW27011   1.586   4.829   0.314
 3290SOL    HW127012   1.625   4.915   0.299
 3290SOL    HW227013   1.500   4.834   0.274
 3291SOL     OW27014   2.558   5.607   7.504
 3291SOL    HW127015   2.615   5.532   7.487
 3291SOL    HW227016   2.519   5.627   7.418
 3292SOL     OW27017   4.420   3.444   2.157
 3292SOL    HW127018   4.452   3.473   2.072
 3292SOL    HW227019   4.330   3.478   2.162
 3293SOL     OW27020   3.897   3.462   0.288
 3293SOL    HW127021   3.806   3.492   0.282
 3293SOL    HW227022   3.930   3.470   0.198
 3294SOL     OW27023   1.261   0.458   0.036
 3294SOL    HW127024   1.196   0.488   0.100
 3294SOL    HW227025   1.215   0.389   7.748
 3295SOL     OW27026   5.804   4.611   0.117
 3295SOL    HW127027   5.839   4.570   0.196
 3295SOL    HW227028   5.716   4.576   0.109
 3296SOL     OW27029   5.467   5.902   0.298
 3296SOL    HW127030   5.418   5.893   0.380
 3296SOL    HW227031   5.534   5.834   0.302
 3297SOL     OW27032   2.650   0.357   0.191
 3297SOL    HW127033   2.693   0.429   0.237
 3297SOL    HW227034   2.581   0.327   0.250
 3298SOL     OW27035   0.722   5.171   6.481
 3298SOL    HW127036   0.636   5.148   6.515
 3298SOL    HW227037   0.704   5.230   6.408
 3299SOL     OW27038   5.996   5.585   2.249
 3299SOL    HW127039   6.064   5.650   2.231
 3299SOL    HW227040   5.914   5.631   2.232
 3300SOL     OW27041   4.969   4.038   0.429
 3300SOL    HW127042   4.911   4.053   0.354
 3300SOL    HW227043   4.912   4.046   0.506
 3301SOL     OW27044   4.033   5.323   2.210
 3301SOL    HW127045   4.125   5.301   2.224
 3301SOL    HW227046   4.029   5.418   2.222
 3302SOL     OW27047   5.601   3.748   0.054
 3302SOL    HW127048   5.606   3.839   0.084
 3302SOL    HW227049   5.692   3.720   0.048
 3303SOL     OW27050   1.257   6.079   7.711
 3303SOL    HW127051   1.267   6.001   0.004
 3303SOL    HW227052   1.194   6.134   7.759
 3304SOL     OW27053   4.426   0.618   1.950
 3304SOL    HW127054   4.504   0.654   1.993
 3304SOL    HW227055   4.360   0.688   1.959
 3305SOL     OW27056   0.565   0.748   6.390
 3305SOL    HW127057   0.498   0.777   6.329
 3305SOL    HW227058   0.519   0.690   6.450
 3306SOL     OW27059   2.112   4.637   1.592
 3306SOL    HW127060   2.095   4.698   1.520
 3306SOL    HW227061   2.095   4.687   1.671
 3307SOL     OW27062   0.947   5.337   2.121
 3307SOL    HW127063   0.863   5.359   2.080
 3307SOL    HW227064   0.933   5.354   2.214
 3308SOL     OW27065   2.582   3.376   5.858
 3308SOL    HW127066   2.634   3.428   5.797
 3308SOL    HW227067   2.561   3.296   5.811
 3309SOL     OW27068   3.052   5.104   7.504
 3309SOL    HW127069   3.034   5.111   7.598
 3309SOL    HW227070   2.999   5.173   7.465
 3310SOL     OW27071   5.432   2.413   6.140
 3310SOL    HW127072   5.377   2.371   6.074
 3310SOL    HW227073   5.509   2.443   6.093
 3311SOL     OW27074   1.871   0.719   1.366
 3311SOL    HW127075   1.782   0.712   1.401
 3311SOL    HW227076   1.921   0.653   1.413
 3312SOL     OW27077   0.869   3.485   1.162
 3312SOL    HW127078   0.941   3.482   1.099
 3312SOL    HW227079   0.790   3.493   1.109
 3313SOL     OW27080   3.863   0.991   1.785
 3313SOL    HW127081   3.931   1.051   1.816
 3313SOL    HW227082   3.894   0.904   1.813
 3314SOL     OW27083   1.744   1.364   6.275
 3314SOL    HW127084   1.697   1.428   6.220
 3314SOL    HW227085   1.719   1.279   6.238
 3315SOL     OW27086   3.519   0.313   6.607
 3315SOL    HW127087   3.460   0.325   6.682
 3315SOL    HW227088   3.470   0.347   6.533
 3316SOL     OW27089   0.953   3.230   0.424
 3316SOL    HW127090   1.011   3.258   0.354
 3316SOL    HW227091   0.998   3.255   0.505
 3317SOL     OW27092   0.852   1.964   7.246
 3317SOL    HW127093   0.936   1.932   7.215
 3317SOL    HW227094   0.797   1.885   7.250
 3318SOL     OW27095   6.383   3.689   6.812
 3318SOL    HW127096   6.370   3.740   6.892
 3318SOL    HW227097   6.335   3.608   6.827
 3319SOL     OW27098   0.214   2.268   2.380
 3319SOL    HW127099   0.247   2.196   2.435
 3319SOL    HW227100   0.286   2.289   2.321
 3320SOL     OW27101   3.976   3.492   0.022
 3320SOL    HW127102   4.045   3.429   0.043
 3320SOL    HW227103   3.910   3.440   7.737
 3321SOL     OW27104   0.035   5.236   0.646
 3321SOL    HW127105   6.473   5.314   0.667
 3321SOL    HW227106   0.002   5.169   0.705
 3322SOL     OW27107   4.778   4.241   7.191
 3322SOL    HW127108   4.810   4.301   7.124
 3322SOL    HW227109   4.684   4.259   7.196
 3323SOL     OW27110   5.496   2.887   6.381
 3323SOL    HW127111   5.494   2.983   6.374
 3323SOL    HW227112   5.585   2.864   6.354
 3324SOL     OW27113   3.049   6.211   1.020
 3324SOL    HW127114   3.042   6.121   0.990
 3324SOL    HW227115   3.032   6.264   0.942
 3325SOL     OW27116   3.325   2.121   1.543
 3325SOL    HW127117   3.347   2.033   1.574
 3325SOL    HW227118   3.351   2.179   1.615
 3326SOL     OW27119   3.967   0.388   7.595
 3326SOL    HW127120   4.044   0.431   7.632
 3326SOL    HW227121   3.993   0.296   7.586
 3327SOL     OW27122   5.962   0.905   5.730
 3327SOL    HW127123   5.931   0.985   5.688
 3327SOL    HW227124   6.028   0.870   5.670
 3328SOL     OW27125   5.541   2.660   0.192
 3328SOL    HW127126   5.491   2.597   0.245
 3328SOL    HW227127   5.504   2.652   0.104
 3329SOL     OW27128   1.834   6.260   1.039
 3329SOL    HW127129   1.820   6.261   0.944
 3329SOL    HW227130   1.839   6.353   1.063
 3330SOL     OW27131   1.076   6.137   5.704
 3330SOL    HW127132   1.022   6.195   5.651
 3330SOL    HW227133   1.018   6.066   5.729
 3331SOL     OW27134   2.183   1.676   7.637
 3331SOL    HW127135   2.243   1.616   7.593
 3331SOL    HW227136   2.206   1.669   7.730
 3332SOL     OW27137   3.159   3.215   0.924
 3332SOL    HW127138   3.243   3.251   0.952
 3332SOL    HW227139   3.157   3.230   0.830
 3333SOL     OW27140   5.548   3.441   6.706
 3333SOL    HW127141   5.552   3.423   6.800
 3333SOL    HW227142   5.639   3.444   6.679
 3334SOL     OW27143   1.042   0.837   2.050
 3334SOL    HW127144   1.050   0.903   1.981
 3334SOL    HW227145   1.052   0.753   2.004
 3335SOL     OW27146   3.791   3.736   0.980
 3335SOL    HW127147   3.754   3.791   0.911
 3335SOL    HW227148   3.743   3.760   1.059
 3336SOL     OW27149   6.398   4.933   7.002
 3336SOL    HW127150   6.308   4.915   6.976
 3336SOL    HW227151   6.403   5.029   7.005
 3337SOL     OW27152   4.179   1.845   1.330
 3337SOL    HW127153   4.221   1.895   1.400
 3337SOL    HW227154   4.113   1.904   1.294
 3338SOL     OW27155   5.640   3.571   6.159
 3338SOL    HW127156   5.658   3.579   6.253
 3338SOL    HW227157   5.551   3.605   6.149
 3339SOL     OW27158   5.806   1.117   7.373
 3339SOL    HW127159   5.896   1.109   7.342
 3339SOL    HW227160   5.754   1.127   7.294
 3340SOL     OW27161   6.113   3.275   1.602
 3340SOL    HW127162   6.175   3.301   1.534
 3340SOL    HW227163   6.167   3.228   1.666
 3341SOL     OW27164   1.132   3.166   5.888
 3341SOL    HW127165   1.038   3.153   5.902
 3341SOL    HW227166   1.151   3.250   5.931
 3342SOL     OW27167   6.129   1.740   1.172
 3342SOL    HW127168   6.101   1.701   1.089
 3342SOL    HW227169   6.223   1.755   1.162
 3343SOL     OW27170   5.832   0.090   1.704
 3343SOL    HW127171   5.852   0.143   1.781
 3343SOL    HW227172   5.832   6.488   1.737
 3344SOL     OW27173   1.766   5.116   1.646
 3344SOL    HW127174   1.690   5.090   1.699
 3344SOL    HW227175   1.816   5.174   1.703
 3345SOL     OW27176   2.240   0.932   6.903
 3345SOL    HW127177   2.310   0.974   6.953
 3345SOL    HW227178   2.250   0.966   6.814
 3346SOL     OW27179   3.564   2.659   5.716
 3346SOL    HW127180   3.586   2.733   5.773
 3346SOL    HW227181   3.469   2.666   5.702
 3347SOL     OW27182   5.247   4.516   0.470
 3347SOL    HW127183   5.192   4.443   0.443
 3347SOL    HW227184   5.191   4.593   0.459
 3348SOL     OW27185   3.168   5.843   5.846
 3348SOL    HW127186   3.135   5.760   5.879
 3348SOL    HW227187   3.089   5.896   5.831
 3349SOL     OW27188   1.444   3.346   7.066
 3349SOL    HW127189   1.490   3.265   7.087
 3349SOL    HW227190   1.369   3.318   7.014
 3350SOL     OW27191   5.838   5.626   1.140
 3350SOL    HW127192   5.903   5.625   1.069
 3350SOL    HW227193   5.882   5.582   1.213
 3351SOL     OW27194   4.244   5.525   7.143
 3351SOL    HW127195   4.337   5.528   7.166
 3351SOL    HW227196   4.204   5.469   7.210
 3352SOL     OW27197   1.479   2.322   5.686
 3352SOL    HW127198   1.551   2.381   5.665
 3352SOL    HW227199   1.428   2.316   5.605
 3353SOL     OW27200   0.819   6.259   6.232
 3353SOL    HW127201   0.835   6.336   6.287
 3353SOL    HW227202   0.895   6.256   6.174
 3354SOL     OW27203   0.412   1.019   7.544
 3354SOL    HW127204   0.349   1.023   7.473
 3354SOL    HW227205   0.415   1.109   7.578
 3355SOL     OW27206   5.813   5.628   0.466
 3355SOL    HW127207   5.751   5.631   0.393
 3355SOL    HW227208   5.895   5.662   0.429
 3356SOL     OW27209   6.465   6.255   6.719
 3356SOL    HW127210   0.035   6.220   6.652
 3356SOL    HW227211   6.473   6.194   6.793
 3357SOL     OW27212   2.132   1.166   6.313
 3357SOL    HW127213   2.079   1.213   6.248
 3357SOL    HW227214   2.104   1.202   6.397
 3358SOL     OW27215   2.822   2.958   1.828
 3358SOL    HW127216   2.752   3.020   1.851
 3358SOL    HW227217   2.848   2.920   1.912
 3359SOL     OW27218   1.216   4.251   6.613
 3359SOL    HW127219   1.304   4.290   6.607
 3359SOL    HW227220   1.195   4.225   6.523
 3360SOL     OW27221   1.953   5.625   5.912
 3360SOL    HW127222   1.991   5.699   5.958
 3360SOL    HW227223   1.859   5.632   5.928
 3361SOL     OW27224   4.655   4.935   0.711
 3361SOL    HW127225   4.639   5.028   0.726
 3361SOL    HW227226   4.579   4.904   0.663
 3362SOL     OW27227   6.422   3.713   6.417
 3362SOL    HW127228   6.332   3.738   6.396
 3362SOL    HW227229   6.441   3.640   6.358
 3363SOL     OW27230   1.845   4.391   1.759
 3363SOL    HW127231   1.771   4.442   1.791
 3363SOL    HW227232   1.805   4.310   1.727
 3364SOL     OW27233   4.854   2.778   0.143
 3364SOL    HW127234   4.805   2.824   0.075
 3364SOL    HW227235   4.922   2.731   0.096
 3365SOL     OW27236   1.884   3.709   0.750
 3365SOL    HW127237   1.975   3.680   0.740
 3365SOL    HW227238   1.890   3.790   0.800
 3366SOL     OW27239   1.465   1.033   6.653
 3366SOL    HW127240   1.512   0.997   6.578
 3366SOL    HW227241   1.442   1.122   6.627
 3367SOL     OW27242   0.418   0.560   6.538
 3367SOL    HW127243   0.361   0.595   6.607
 3367SOL    HW227244   0.371   0.483   6.505
 3368SOL     OW27245   4.817   3.417   0.625
 3368SOL    HW127246   4.805   3.455   0.711
 3368SOL    HW227247   4.852   3.329   0.642
 3369SOL     OW27248   6.335   4.059   0.233
 3369SOL    HW127249   6.338   4.054   0.329
 3369SOL    HW227250   6.349   4.152   0.214
 3370SOL     OW27251   5.584   2.347   1.850
 3370SOL    HW127252   5.526   2.342   1.927
 3370SOL    HW227253   5.534   2.304   1.781
 3371SOL     OW27254   3.142   1.066   0.471
 3371SOL    HW127255   3.181   1.091   0.387
 3371SOL    HW227256   3.182   1.125   0.535
 3372SOL     OW27257   1.028   3.014   6.332
 3372SOL    HW127258   0.935   3.010   6.355
 3372SOL    HW227259   1.030   2.998   6.238
 3373SOL     OW27260   3.825   2.791   6.880
 3373SOL    HW127261   3.882   2.723   6.916
 3373SOL    HW227262   3.756   2.802   6.946
 3374SOL     OW27263   2.208   2.539   7.435
 3374SOL    HW127264   2.167   2.612   7.481
 3374SOL    HW227265   2.248   2.486   7.504
 3375SOL     OW27266   3.531   1.611   1.463
 3375SOL    HW127267   3.608   1.554   1.462
 3375SOL    HW227268   3.559   1.687   1.513
 3376SOL     OW27269   4.121   5.774   7.247
 3376SOL    HW127270   4.075   5.707   7.298
 3376SOL    HW227271   4.051   5.827   7.208
 3377SOL     OW27272   0.138   4.722   2.520
 3377SOL    HW127273   0.146   4.640   2.471
 3377SOL    HW227274   0.142   4.790   2.453
 3378SOL     OW27275   2.519   2.699   1.731
 3378SOL    HW127276   2.506   2.777   1.676
 3378SOL    HW227277   2.613   2.698   1.750
 3379SOL     OW27278   2.833   5.668   7.587
 3379SOL    HW127279   2.769   5.701   7.524
 3379SOL    HW227280   2.874   5.594   7.541
 3380SOL     OW27281   5.371   0.423   7.246
 3380SOL    HW127282   5.389   0.333   7.275
 3380SOL    HW227283   5.457   0.465   7.245
 3381SOL     OW27284   1.812   3.154   1.379
 3381SOL    HW127285   1.828   3.066   1.411
 3381SOL    HW227286   1.883   3.170   1.317
 3382SOL     OW27287   5.872   6.335   6.573
 3382SOL    HW127288   5.816   6.351   6.649
 3382SOL    HW227289   5.894   6.242   6.579
 3383SOL     OW27290   3.689   4.407   6.120
 3383SOL    HW127291   3.769   4.436   6.075
 3383SOL    HW227292   3.656   4.334   6.068
 3384SOL     OW27293   1.141   5.603   5.520
 3384SOL    HW127294   1.215   5.659   5.546
 3384SOL    HW227295   1.064   5.652   5.548
 3385SOL     OW27296   5.870   2.112   5.878
 3385SOL    HW127297   5.906   2.125   5.791
 3385SOL    HW227298   5.815   2.188   5.893
 3386SOL     OW27299   5.807   5.356   1.810
 3386SOL    HW127300   5.858   5.275   1.810
 3386SOL    HW227301   5.781   5.368   1.901
 3387SOL     OW27302   6.224   3.466   6.925
 3387SOL    HW127303   6.241   3.390   6.981
 3387SOL    HW227304   6.156   3.514   6.972
 3388SOL     OW27305   3.308   0.379   7.481
 3388SOL    HW127306   3.350   0.464   7.493
 3388SOL    HW227307   3.333   0.352   7.393
 3389SOL     OW27308   4.687   3.005   0.653
 3389SOL    HW127309   4.618   3.072   0.659
 3389SOL    HW227310   4.643   2.923   0.676
 3390SOL     OW27311   0.855   2.958   0.858
 3390SOL    HW127312   0.940   3.000   0.845
 3390SOL    HW227313   0.869   2.868   0.828
 3391SOL     OW27314   2.452   5.715   5.570
 3391SOL    HW127315   2.417   5.757   5.649
 3391SOL    HW227316   2.542   5.693   5.594
 3392SOL     OW27317   0.434   1.675   0.608
 3392SOL    HW127318   0.353   1.715   0.640
 3392SOL    HW227319   0.495   1.748   0.600
 3393SOL     OW27320   3.603   3.289   1.599
 3393SOL    HW127321   3.656   3.302   1.678
 3393SOL    HW227322   3.534   3.228   1.627
 3394SOL     OW27323   0.243   1.754   1.751
 3394SOL    HW127324   0.187   1.701   1.694
 3394SOL    HW227325   0.186   1.778   1.825
 3395SOL     OW27326   4.412   1.846   7.280
 3395SOL    HW127327   4.423   1.881   7.191
 3395SOL    HW227328   4.501   1.834   7.312
 3396SOL     OW27329   3.280   4.338   1.490
 3396SOL    HW127330   3.196   4.295   1.502
 3396SOL    HW227331   3.335   4.270   1.449
 3397SOL     OW27332   2.556   3.442   1.957
 3397SOL    HW127333   2.475   3.394   1.942
 3397SOL    HW227334   2.610   3.382   2.009
 3398SOL     OW27335   1.803   1.398   5.841
 3398SOL    HW127336   1.864   1.448   5.896
 3398SOL    HW227337   1.844   1.312   5.831
 3399SOL     OW27338   0.906   4.947   7.644
 3399SOL    HW127339   0.950   4.919   7.563
 3399SOL    HW227340   0.930   4.881   7.709
 3400SOL     OW27341   4.108   0.650   7.711
 3400SOL    HW127342   4.168   0.606   0.009
 3400SOL    HW227343   4.116   0.743   7.734
 3401SOL     OW27344   4.545   0.620   1.682
 3401SOL    HW127345   4.581   0.705   1.657
 3401SOL    HW227346   4.507   0.633   1.768
 3402SOL     OW27347   4.221   2.133   7.052
 3402SOL    HW127348   4.169   2.081   6.991
 3402SOL    HW227349   4.308   2.093   7.050
 3403SOL     OW27350   5.992   4.156   6.631
 3403SOL    HW127351   5.977   4.225   6.696
 3403SOL    HW227352   6.067   4.107   6.666
 3404SOL     OW27353   0.552   5.920   6.056
 3404SOL    HW127354   0.477   5.865   6.080
 3404SOL    HW227355   0.564   5.978   6.131
 3405SOL     OW27356   2.430   5.896   6.198
 3405SOL    HW127357   2.436   5.990   6.218
 3405SOL    HW227358   2.421   5.854   6.284
 3406SOL     OW27359   6.068   0.866   7.611
 3406SOL    HW127360   6.096   0.840   7.523
 3406SOL    HW227361   6.141   0.918   7.644
 3407SOL     OW27362   2.038   6.173   7.355
 3407SOL    HW127363   1.991   6.152   7.435
 3407SOL    HW227364   1.977   6.224   7.303
 3408SOL     OW27365   3.997   5.976   7.115
 3408SOL    HW127366   4.075   6.014   7.155
 3408SOL    HW227367   4.000   6.006   7.024
 3409SOL     OW27368   2.957   5.933   7.616
 3409SOL    HW127369   2.999   5.849   7.600
 3409SOL    HW227370   2.872   5.926   7.572
 3410SOL     OW27371   0.114   0.607   7.730
 3410SOL    HW127372   0.111   0.696   0.006
 3410SOL    HW227373   0.024   0.591   7.700
 3411SOL     OW27374   1.905   4.443   1.134
 3411SOL    HW127375   1.878   4.434   1.225
 3411SOL    HW227376   1.954   4.525   1.131
 3412SOL     OW27377   1.319   4.497   7.260
 3412SOL    HW127378   1.240   4.537   7.224
 3412SOL    HW227379   1.339   4.551   7.337
 3413SOL     OW27380   1.119   2.091   7.462
 3413SOL    HW127381   1.160   2.017   7.417
 3413SOL    HW227382   1.043   2.113   7.408
 3414SOL     OW27383   2.155   4.739   6.146
 3414SOL    HW127384   2.214   4.679   6.190
 3414SOL    HW227385   2.207   4.819   6.134
 3415SOL     OW27386   6.094   2.640   2.159
 3415SOL    HW127387   6.140   2.561   2.186
 3415SOL    HW227388   6.077   2.687   2.241
 3416SOL     OW27389   3.312   4.486   1.730
 3416SOL    HW127390   3.315   4.446   1.643
 3416SOL    HW227391   3.380   4.442   1.780
 3417SOL     OW27392   5.331   0.992   0.771
 3417SOL    HW127393   5.365   1.047   0.842
 3417SOL    HW227394   5.303   1.054   0.704
 3418SOL     OW27395   0.788   2.039   1.376
 3418SOL    HW127396   0.788   2.080   1.463
 3418SOL    HW227397   0.839   2.098   1.321
 3419SOL     OW27398   5.467   1.256   7.747
 3419SOL    HW127399   5.417   1.176   7.736
 3419SOL    HW227400   5.493   1.256   0.078
 3420SOL     OW27401   5.238   2.416   1.470
 3420SOL    HW127402   5.254   2.328   1.436
 3420SOL    HW227403   5.324   2.446   1.499
 3421SOL     OW27404   3.760   0.103   0.877
 3421SOL    HW127405   3.750   0.162   0.952
 3421SOL    HW227406   3.808   0.028   0.911
 3422SOL     OW27407   1.358   6.274   0.748
 3422SOL    HW127408   1.320   6.232   0.671
 3422SOL    HW227409   1.283   6.310   0.795
 3423SOL     OW27410   1.689   0.176   0.602
 3423SOL    HW127411   1.698   0.117   0.676
 3423SOL    HW227412   1.679   0.118   0.526
 3424SOL     OW27413   5.143   5.769   0.739
 3424SOL    HW127414   5.174   5.711   0.808
 3424SOL    HW227415   5.195   5.745   0.662
 3425SOL     OW27416   1.639   1.038   1.607
 3425SOL    HW127417   1.625   0.967   1.669
 3425SOL    HW227418   1.709   1.091   1.647
 3426SOL     OW27419   1.804   6.030   6.877
 3426SOL    HW127420   1.869   6.073   6.933
 3426SOL    HW227421   1.854   5.963   6.831
 3427SOL     OW27422   5.939   3.996   1.360
 3427SOL    HW127423   5.866   4.033   1.311
 3427SOL    HW227424   5.905   3.914   1.395
 3428SOL     OW27425   0.941   5.357   6.056
 3428SOL    HW127426   0.883   5.432   6.040
 3428SOL    HW227427   0.883   5.288   6.087
 3429SOL     OW27428   5.808   4.213   2.029
 3429SOL    HW127429   5.845   4.289   2.074
 3429SOL    HW227430   5.726   4.196   2.076
 3430SOL     OW27431   3.479   1.711   7.539
 3430SOL    HW127432   3.439   1.656   7.472
 3430SOL    HW227433   3.449   1.674   7.622
 3431SOL     OW27434   1.827   4.306   2.547
 3431SOL    HW127435   1.741   4.273   2.520
 3431SOL    HW227436   1.808   4.378   2.607
 3432SOL     OW27437   3.342   2.282   0.672
 3432SOL    HW127438   3.438   2.284   0.675
 3432SOL    HW227439   3.321   2.271   0.579
 3433SOL     OW27440   2.448   4.861   0.966
 3433SOL    HW127441   2.485   4.924   1.028
 3433SOL    HW227442   2.524   4.821   0.923
 3434SOL     OW27443   0.218   2.657   1.049
 3434SOL    HW127444   0.263   2.736   1.017
 3434SOL    HW227445   0.279   2.618   1.111
 3435SOL     OW27446   2.075   4.227   7.044
 3435SOL    HW127447   2.165   4.196   7.053
 3435SOL    HW227448   2.082   4.304   6.988
 3436SOL     OW27449   4.047   2.867   6.493
 3436SOL    HW127450   4.058   2.904   6.405
 3436SOL    HW227451   4.035   2.773   6.478
 3437SOL     OW27452   5.441   2.456   2.667
 3437SOL    HW127453   5.381   2.480   2.596
 3437SOL    HW227454   5.433   2.529   2.729
 3438SOL     OW27455   0.309   2.814   6.791
 3438SOL    HW127456   0.243   2.883   6.791
 3438SOL    HW227457   0.267   2.740   6.835
 3439SOL     OW27458   2.337   2.049   0.673
 3439SOL    HW127459   2.380   2.090   0.598
 3439SOL    HW227460   2.409   2.017   0.727
 3440SOL     OW27461   0.486   2.570   0.793
 3440SOL    HW127462   0.542   2.612   0.728
 3440SOL    HW227463   0.402   2.559   0.749
 3441SOL     OW27464   0.180   4.631   1.750
 3441SOL    HW127465   0.119   4.570   1.791
 3441SOL    HW227466   0.257   4.630   1.808
 3442SOL     OW27467   4.845   1.611   0.562
 3442SOL    HW127468   4.755   1.618   0.592
 3442SOL    HW227469   4.868   1.520   0.578
 3443SOL     OW27470   1.040   3.359   0.967
 3443SOL    HW127471   1.129   3.384   0.942
 3443SOL    HW227472   0.987   3.377   0.890
 3444SOL     OW27473   5.340   3.213   0.124
 3444SOL    HW127474   5.330   3.297   0.079
 3444SOL    HW227475   5.427   3.183   0.099
 3445SOL     OW27476   2.124   4.625   0.123
 3445SOL    HW127477   2.136   4.545   0.173
 3445SOL    HW227478   2.049   4.607   0.066
 3446SOL     OW27479   2.906   4.334   0.462
 3446SOL    HW127480   2.812   4.351   0.462
 3446SOL    HW227481   2.938   4.376   0.542
 3447SOL     OW27482   2.965   4.826   7.573
 3447SOL    HW127483   2.920   4.812   7.657
 3447SOL    HW227484   2.967   4.921   7.563
 3448SOL     OW27485   3.078   2.816   0.847
 3448SOL    HW127486   3.128   2.813   0.928
 3448SOL    HW227487   3.092   2.730   0.808
 3449SOL     OW27488   0.572   3.667   0.282
 3449SOL    HW127489   0.559   3.597   0.346
 3449SOL    HW227490   0.665   3.689   0.289
 3450SOL     OW27491   6.347   5.203   2.382
 3450SOL    HW127492   6.371   5.121   2.424
 3450SOL    HW227493   6.306   5.176   2.300
 3451SOL     OW27494   5.509   3.359   1.779
 3451SOL    HW127495   5.424   3.385   1.816
 3451SOL    HW227496   5.571   3.422   1.816
 3452SOL     OW27497   4.929   5.885   0.442
 3452SOL    HW127498   4.990   5.902   0.514
 3452SOL    HW227499   4.875   5.812   0.474
 3453SOL     OW27500   2.070   6.133   0.701
 3453SOL    HW127501   2.138   6.198   0.685
 3453SOL    HW227502   2.023   6.127   0.618
 3454SOL     OW27503   5.768   0.090   5.761
 3454SOL    HW127504   5.729   0.134   5.686
 3454SOL    HW227505   5.779   0.160   5.826
 3455SOL     OW27506   4.349   1.492   0.943
 3455SOL    HW127507   4.409   1.433   0.987
 3455SOL    HW227508   4.291   1.524   1.011
 3456SOL     OW27509   3.995   2.318   6.345
 3456SOL    HW127510   4.073   2.320   6.289
 3456SOL    HW227511   3.928   2.278   6.289
 3457SOL     OW27512   0.637   0.259   1.537
 3457SOL    HW127513   0.561   0.313   1.559
 3457SOL    HW227514   0.712   0.319   1.546
 3458SOL     OW27515   0.930   0.641   1.804
 3458SOL    HW127516   0.835   0.624   1.799
 3458SOL    HW227517   0.938   0.735   1.792
 3459SOL     OW27518   4.348   4.621   0.698
 3459SOL    HW127519   4.347   4.613   0.794
 3459SOL    HW227520   4.257   4.606   0.672
 3460SOL     OW27521   0.872   5.606   1.685
 3460SOL    HW127522   0.803   5.638   1.743
 3460SOL    HW227523   0.867   5.662   1.608
 3461SOL     OW27524   1.483   4.982   5.505
 3461SOL    HW127525   1.447   5.023   5.426
 3461SOL    HW227526   1.519   5.055   5.556
 3462SOL     OW27527   2.920   3.565   7.429
 3462SOL    HW127528   2.929   3.660   7.426
 3462SOL    HW227529   2.951   3.540   7.516
 3463SOL     OW27530   4.654   5.359   7.162
 3463SOL    HW127531   4.741   5.346   7.201
 3463SOL    HW227532   4.650   5.295   7.091
 3464SOL     OW27533   3.976   3.881   6.866
 3464SOL    HW127534   4.011   3.803   6.822
 3464SOL    HW227535   4.027   3.954   6.830
 3465SOL     OW27536   3.332   3.450   7.700
 3465SOL    HW127537   3.380   3.476   7.621
 3465SOL    HW227538   3.345   3.355   7.705
 3466SOL     OW27539   1.747   5.939   7.239
 3466SOL    HW127540   1.666   5.990   7.246
 3466SOL    HW227541   1.782   5.961   7.153
 3467SOL     OW27542   1.744   3.148   6.846
 3467SOL    HW127543   1.693   3.149   6.766
 3467SOL    HW227544   1.747   3.056   6.872
 3468SOL     OW27545   2.030   5.676   1.235
 3468SOL    HW127546   2.074   5.741   1.181
 3468SOL    HW227547   1.968   5.633   1.175
 3469SOL     OW27548   0.818   4.607   7.389
 3469SOL    HW127549   0.894   4.568   7.433
 3469SOL    HW227550   0.831   4.701   7.398
 3470SOL     OW27551   3.981   5.706   1.562
 3470SOL    HW127552   3.974   5.611   1.554
 3470SOL    HW227553   3.942   5.741   1.483
 3471SOL     OW27554   4.190   3.643   0.757
 3471SOL    HW127555   4.127   3.643   0.685
 3471SOL    HW227556   4.262   3.588   0.726
 3472SOL     OW27557   4.827   4.770   0.873
 3472SOL    HW127558   4.772   4.842   0.842
 3472SOL    HW227559   4.863   4.800   0.956
 3473SOL     OW27560   2.510   4.088   5.503
 3473SOL    HW127561   2.597   4.054   5.524
 3473SOL    HW227562   2.449   4.028   5.545
 3474SOL     OW27563   4.762   2.101   6.543
 3474SOL    HW127564   4.680   2.053   6.532
 3474SOL    HW227565   4.736   2.183   6.587
 3475SOL     OW27566   1.309   0.429   1.327
 3475SOL    HW127567   1.395   0.393   1.348
 3475SOL    HW227568   1.277   0.464   1.410
 3476SOL     OW27569   2.802   2.651   0.788
 3476SOL    HW127570   2.818   2.730   0.840
 3476SOL    HW227571   2.847   2.669   0.705
 3477SOL     OW27572   3.747   5.244   1.833
 3477SOL    HW127573   3.804   5.190   1.777
 3477SOL    HW227574   3.777   5.225   1.922
 3478SOL     OW27575   5.902   0.311   1.504
 3478SOL    HW127576   5.987   0.352   1.520
 3478SOL    HW227577   5.884   0.261   1.584
 3479SOL     OW27578   3.087   3.708   5.535
 3479SOL    HW127579   3.001   3.710   5.578
 3479SOL    HW227580   3.067   3.704   5.441
 3480SOL     OW27581   0.452   1.451   7.685
 3480SOL    HW127582   0.507   1.399   7.743
 3480SOL    HW227583   0.514   1.499   7.630
 3481SOL     OW27584   5.558   0.423   6.538
 3481SOL    HW127585   5.493   0.420   6.609
 3481SOL    HW227586   5.506   0.440   6.460
 3482SOL     OW27587   5.655   0.367   1.726
 3482SOL    HW127588   5.651   0.460   1.704
 3482SOL    HW227589   5.622   0.322   1.649
 3483SOL     OW27590   3.357   0.800   5.851
 3483SOL    HW127591   3.375   0.891   5.829
 3483SOL    HW227592   3.408   0.749   5.789
 3484SOL     OW27593   4.672   1.688   1.082
 3484SOL    HW127594   4.619   1.765   1.059
 3484SOL    HW227595   4.650   1.671   1.173
 3485SOL     OW27596   0.948   5.348   0.538
 3485SOL    HW127597   0.885   5.414   0.567
 3485SOL    HW227598   0.904   5.301   0.467
 3486SOL     OW27599   3.161   5.903   1.768
 3486SOL    HW127600   3.245   5.918   1.812
 3486SOL    HW227601   3.148   5.809   1.773
 3487SOL     OW27602   3.596   5.937   0.038
 3487SOL    HW127603   3.538   5.902   0.106
 3487SOL    HW227604   3.664   5.871   0.028
 3488SOL     OW27605   1.090   3.414   5.171
 3488SOL    HW127606   1.110   3.393   5.080
 3488SOL    HW227607   1.057   3.332   5.207
 3489SOL     OW27608   1.657   4.997   1.000
 3489SOL    HW127609   1.661   5.070   1.062
 3489SOL    HW227610   1.741   5.000   0.955
 3490SOL     OW27611   2.720   6.287   1.167
 3490SOL    HW127612   2.725   6.338   1.248
 3490SOL    HW227613   2.810   6.262   1.148
 3491SOL     OW27614   2.179   1.116   5.281
 3491SOL    HW127615   2.215   1.037   5.321
 3491SOL    HW227616   2.219   1.119   5.193
 3492SOL     OW27617   3.658   1.539   7.729
 3492SOL    HW127618   3.575   1.491   7.724
 3492SOL    HW227619   3.694   1.534   7.640
 3493SOL     OW27620   2.609   3.163   6.597
 3493SOL    HW127621   2.704   3.149   6.601
 3493SOL    HW227622   2.584   3.125   6.512
 3494SOL     OW27623   5.583   1.708   0.881
 3494SOL    HW127624   5.590   1.804   0.878
 3494SOL    HW227625   5.498   1.689   0.842
 3495SOL     OW27626   2.206   2.290   1.377
 3495SOL    HW127627   2.199   2.265   1.469
 3495SOL    HW227628   2.134   2.243   1.334
 3496SOL     OW27629   5.705   1.367   0.378
 3496SOL    HW127630   5.720   1.462   0.381
 3496SOL    HW227631   5.614   1.358   0.352
 3497SOL     OW27632   5.081   5.475   7.146
 3497SOL    HW127633   5.041   5.485   7.059
 3497SOL    HW227634   5.023   5.415   7.193
 3498SOL     OW27635   3.876   1.850   0.588
 3498SOL    HW127636   3.857   1.781   0.652
 3498SOL    HW227637   3.873   1.805   0.503
 3499SOL     OW27638   5.692   2.938   0.888
 3499SOL    HW127639   5.659   2.941   0.798
 3499SOL    HW227640   5.630   2.881   0.934
 3500SOL     OW27641   3.385   2.647   7.310
 3500SOL    HW127642   3.393   2.627   7.217
 3500SOL    HW227643   3.292   2.633   7.330
 3501SOL     OW27644   2.901   5.021   0.686
 3501SOL    HW127645   2.918   5.026   0.780
 3501SOL    HW227646   2.987   5.037   0.645
 3502SOL     OW27647   0.312   5.069   1.307
 3502SOL    HW127648   0.389   5.121   1.331
 3502SOL    HW227649   0.275   5.115   1.231
 3503SOL     OW27650   5.638   6.130   7.526
 3503SOL    HW127651   5.692   6.121   7.605
 3503SOL    HW227652   5.659   6.053   7.474
 3504SOL     OW27653   3.386   2.749   1.621
 3504SOL    HW127654   3.361   2.656   1.623
 3504SOL    HW227655   3.460   2.755   1.682
 3505SOL     OW27656   2.558   5.627   0.834
 3505SOL    HW127657   2.595   5.573   0.765
 3505SOL    HW227658   2.496   5.684   0.789
 3506SOL     OW27659   4.979   4.145   1.666
 3506SOL    HW127660   4.984   4.083   1.738
 3506SOL    HW227661   5.055   4.201   1.677
 3507SOL     OW27662   3.295   4.539   0.748
 3507SOL    HW127663   3.330   4.452   0.726
 3507SOL    HW227664   3.295   4.541   0.843
 3508SOL     OW27665   5.663   3.475   2.495
 3508SOL    HW127666   5.681   3.548   2.435
 3508SOL    HW227667   5.623   3.408   2.440
 3509SOL     OW27668   4.722   1.912   0.486
 3509SOL    HW127669   4.663   1.975   0.527
 3509SOL    HW227670   4.665   1.845   0.449
 3510SOL     OW27671   0.789   6.135   5.888
 3510SOL    HW127672   0.719   6.069   5.885
 3510SOL    HW227673   0.766   6.197   5.818
 3511SOL     OW27674   2.021   6.304   1.386
 3511SOL    HW127675   1.991   6.380   1.336
 3511SOL    HW227676   1.941   6.261   1.416
 3512SOL     OW27677   1.006   1.554   0.448
 3512SOL    HW127678   1.003   1.588   0.538
 3512SOL    HW227679   0.916   1.531   0.428
 3513SOL     OW27680   2.627   0.854   0.984
 3513SOL    HW127681   2.686   0.850   1.059
 3513SOL    HW227682   2.678   0.899   0.916
 3514SOL     OW27683   3.013   1.627   1.294
 3514SOL    HW127684   3.062   1.556   1.253
 3514SOL    HW227685   2.935   1.637   1.240
 3515SOL     OW27686   3.992   4.498   5.675
 3515SOL    HW127687   4.002   4.426   5.612
 3515SOL    HW227688   4.016   4.576   5.625
 3516SOL     OW27689   4.349   5.470   0.095
 3516SOL    HW127690   4.256   5.462   0.115
 3516SOL    HW227691   4.394   5.440   0.173
 3517SOL     OW27692   6.006   6.356   5.573
 3517SOL    HW127693   6.062   6.286   5.540
 3517SOL    HW227694   5.948   6.376   5.499
 3518SOL     OW27695   2.947   5.570   5.570
 3518SOL    HW127696   2.943   5.547   5.477
 3518SOL    HW227697   2.996   5.652   5.573
 3519SOL     OW27698   2.031   3.297   0.023
 3519SOL    HW127699   2.101   3.257   0.075
 3519SOL    HW227700   1.963   3.230   0.020
 3520SOL     OW27701   2.161   3.142   1.428
 3520SOL    HW127702   2.103   3.170   1.357
 3520SOL    HW227703   2.170   3.221   1.483
 3521SOL     OW27704   5.198   2.384   0.161
 3521SOL    HW127705   5.260   2.430   0.218
 3521SOL    HW227706   5.118   2.377   0.213
 3522SOL     OW27707   6.120   0.274   5.146
 3522SOL    HW127708   6.025   0.266   5.155
 3522SOL    HW227709   6.133   0.366   5.121
 3523SOL     OW27710   3.718   0.032   7.524
 3523SOL    HW127711   3.735   0.015   7.616
 3523SOL    HW227712   3.805   0.036   7.484
 3524SOL     OW27713   5.204   0.992   0.329
 3524SOL    HW127714   5.285   0.973   0.280
 3524SOL    HW227715   5.165   0.906   0.345
 3525SOL     OW27716   0.662   2.322   7.364
 3525SOL    HW127717   0.579   2.275   7.371
 3525SOL    HW227718   0.637   2.414   7.369
 3526SOL     OW27719   5.534   5.094   7.649
 3526SOL    HW127720   5.481   5.022   7.615
 3526SOL    HW227721   5.622   5.057   7.659
 3527SOL     OW27722   3.167   3.465   1.372
 3527SOL    HW127723   3.155   3.545   1.320
 3527SOL    HW227724   3.091   3.411   1.352
 3528SOL     OW27725   0.984   1.697   0.683
 3528SOL    HW127726   1.058   1.752   0.657
 3528SOL    HW227727   0.907   1.751   0.668
 3529SOL     OW27728   5.157   1.773   1.521
 3529SOL    HW127729   5.071   1.799   1.487
 3529SOL    HW227730   5.219   1.817   1.463
 3530SOL     OW27731   0.125   0.955   6.674
 3530SOL    HW127732   0.141   0.979   6.765
 3530SOL    HW227733   0.211   0.958   6.633
 3531SOL     OW27734   5.786   4.255   0.077
 3531SOL    HW127735   5.788   4.210   7.754
 3531SOL    HW227736   5.867   4.227   0.121
 3532SOL     OW27737   2.936   4.574   5.501
 3532SOL    HW127738   2.858   4.628   5.493
 3532SOL    HW227739   3.003   4.620   5.450
 3533SOL     OW27740   3.105   1.409   0.229
 3533SOL    HW127741   3.096   1.316   0.206
 3533SOL    HW227742   3.085   1.412   0.323
 3534SOL     OW27743   2.824   3.578   1.479
 3534SOL    HW127744   2.852   3.629   1.404
 3534SOL    HW227745   2.766   3.511   1.442
 3535SOL     OW27746   4.162   2.802   7.098
 3535SOL    HW127747   4.194   2.873   7.154
 3535SOL    HW227748   4.124   2.739   7.159
 3536SOL     OW27749   1.969   1.078   1.467
 3536SOL    HW127750   1.891   1.036   1.431
 3536SOL    HW227751   2.012   1.008   1.517
 3537SOL     OW27752   3.479   3.104   0.671
 3537SOL    HW127753   3.427   3.054   0.609
 3537SOL    HW227754   3.500   3.042   0.741
 3538SOL     OW27755   2.213   3.933   6.898
 3538SOL    HW127756   2.299   3.894   6.910
 3538SOL    HW227757   2.227   4.005   6.837
 3539SOL     OW27758   3.711   5.250   0.518
 3539SOL    HW127759   3.687   5.177   0.461
 3539SOL    HW227760   3.681   5.224   0.605
 3540SOL     OW27761   0.818   4.359   6.859
 3540SOL    HW127762   0.877   4.340   6.932
 3540SOL    HW227763   0.865   4.423   6.806
 3541SOL     OW27764   0.079   4.294   0.532
 3541SOL    HW127765   0.070   4.354   0.458
 3541SOL    HW227766   0.115   4.348   0.603
 3542SOL     OW27767   0.937   0.677   0.083
 3542SOL    HW127768   0.897   0.624   0.015
 3542SOL    HW227769   1.004   0.621   0.121
 3543SOL     OW27770   1.196   0.672   6.426
 3543SOL    HW127771   1.289   0.649   6.420
 3543SOL    HW227772   1.194   0.750   6.482
 3544SOL     OW27773   3.788   4.199   5.626
 3544SOL    HW127774   3.863   4.224   5.572
 3544SOL    HW227775   3.723   4.165   5.563
 3545SOL     OW27776   4.961   4.244   0.856
 3545SOL    HW127777   4.964   4.333   0.822
 3545SOL    HW227778   4.903   4.249   0.932
 3546SOL     OW27779   6.137   3.260   1.984
 3546SOL    HW127780   6.158   3.218   1.901
 3546SOL    HW227781   6.220   3.260   2.032
 3547SOL     OW27782   6.286   0.793   6.290
 3547SOL    HW127783   6.352   0.725   6.276
 3547SOL    HW227784   6.332   0.875   6.270
 3548SOL     OW27785   3.669   4.477   7.233
 3548SOL    HW127786   3.641   4.412   7.297
 3548SOL    HW227787   3.644   4.561   7.271
 3549SOL     OW27788   3.511   6.193   0.902
 3549SOL    HW127789   3.526   6.205   0.808
 3549SOL    HW227790   3.580   6.133   0.930
 3550SOL     OW27791   0.220   5.533   6.816
 3550SOL    HW127792   0.128   5.511   6.798
 3550SOL    HW227793   0.228   5.524   6.911
 3551SOL     OW27794   6.402   3.388   6.470
 3551SOL    HW127795   6.331   3.451   6.476
 3551SOL    HW227796   6.388   3.344   6.386
 3552SOL     OW27797   3.696   2.126   1.680
 3552SOL    HW127798   3.604   2.117   1.705
 3552SOL    HW227799   3.723   2.210   1.718
 3553SOL     OW27800   4.146   2.211   1.487
 3553SOL    HW127801   4.173   2.303   1.486
 3553SOL    HW227802   4.076   2.204   1.422
 3554SOL     OW27803   3.389   3.370   0.961
 3554SOL    HW127804   3.469   3.415   0.989
 3554SOL    HW227805   3.402   3.353   0.867
 3555SOL     OW27806   3.854   1.686   2.142
 3555SOL    HW127807   3.895   1.624   2.203
 3555SOL    HW227808   3.847   1.768   2.192
 3556SOL     OW27809   0.271   3.780   0.565
 3556SOL    HW127810   0.338   3.809   0.626
 3556SOL    HW227811   0.266   3.685   0.578
 3557SOL     OW27812   5.683   3.169   2.404
 3557SOL    HW127813   5.775   3.182   2.426
 3557SOL    HW227814   5.671   3.215   2.321
 3558SOL     OW27815   2.005   4.187   7.316
 3558SOL    HW127816   2.057   4.264   7.338
 3558SOL    HW227817   2.033   4.163   7.228
 3559SOL     OW27818   1.462   3.621   7.148
 3559SOL    HW127819   1.555   3.624   7.174
 3559SOL    HW227820   1.449   3.533   7.114
 3560SOL     OW27821   2.438   1.739   6.683
 3560SOL    HW127822   2.419   1.658   6.635
 3560SOL    HW227823   2.351   1.775   6.704
 3561SOL     OW27824   4.528   0.237   1.135
 3561SOL    HW127825   4.495   0.319   1.172
 3561SOL    HW227826   4.459   0.208   1.076
 3562SOL     OW27827   0.868   3.280   7.513
 3562SOL    HW127828   0.936   3.345   7.531
 3562SOL    HW227829   0.820   3.316   7.438
 3563SOL     OW27830   5.974   4.302   6.851
 3563SOL    HW127831   6.017   4.309   6.936
 3563SOL    HW227832   5.884   4.276   6.873
 3564SOL     OW27833   3.659   0.774   0.371
 3564SOL    HW127834   3.746   0.750   0.403
 3564SOL    HW227835   3.675   0.807   0.283
 3565SOL     OW27836   1.895   2.673   6.766
 3565SOL    HW127837   1.902   2.597   6.707
 3565SOL    HW227838   1.892   2.635   6.854
 3566SOL     OW27839   1.438   0.503   0.315
 3566SOL    HW127840   1.448   0.419   0.269
 3566SOL    HW227841   1.418   0.478   0.405
 3567SOL     OW27842   2.173   2.148   0.332
 3567SOL    HW127843   2.136   2.145   0.420
 3567SOL    HW227844   2.103   2.116   0.275
 3568SOL     OW27845   2.391   5.495   1.654
 3568SOL    HW127846   2.455   5.549   1.701
 3568SOL    HW227847   2.435   5.412   1.641
 3569SOL     OW27848   4.061   0.474   0.722
 3569SOL    HW127849   4.001   0.524   0.777
 3569SOL    HW227850   4.014   0.393   0.702
 3570SOL     OW27851   4.923   4.640   0.179
 3570SOL    HW127852   4.829   4.648   0.188
 3570SOL    HW227853   4.936   4.549   0.152
 3571SOL     OW27854   1.155   3.798   1.407
 3571SOL    HW127855   1.199   3.763   1.329
 3571SOL    HW227856   1.063   3.770   1.397
 3572SOL     OW27857   4.008   0.041   0.283
 3572SOL    HW127858   3.965   6.454   0.243
 3572SOL    HW227859   3.946   0.070   0.351
 3573SOL     OW27860   3.498   4.734   0.620
 3573SOL    HW127861   3.582   4.701   0.652
 3573SOL    HW227862   3.461   4.781   0.695
 3574SOL     OW27863   6.412   1.387   0.940
 3574SOL    HW127864   6.479   1.407   0.875
 3574SOL    HW227865   6.339   1.351   0.890
 3575SOL     OW27866   1.488   6.251   6.533
 3575SOL    HW127867   1.553   6.236   6.601
 3575SOL    HW227868   1.475   6.165   6.492
 3576SOL     OW27869   2.746   3.796   1.977
 3576SOL    HW127870   2.782   3.720   2.023
 3576SOL    HW227871   2.668   3.820   2.027
 3577SOL     OW27872   4.415   4.281   0.556
 3577SOL    HW127873   4.320   4.289   0.547
 3577SOL    HW227874   4.432   4.301   0.648
 3578SOL     OW27875   5.266   5.441   1.372
 3578SOL    HW127876   5.301   5.425   1.459
 3578SOL    HW227877   5.194   5.502   1.386
 3579SOL     OW27878   2.633   4.370   0.569
 3579SOL    HW127879   2.650   4.385   0.662
 3579SOL    HW227880   2.562   4.430   0.547
 3580SOL     OW27881   1.662   3.543   0.299
 3580SOL    HW127882   1.699   3.520   0.384
 3580SOL    HW227883   1.719   3.613   0.266
 3581SOL     OW27884   4.832   0.595   2.145
 3581SOL    HW127885   4.847   0.549   2.062
 3581SOL    HW227886   4.762   0.657   2.125
 3582SOL     OW27887   3.583   3.605   1.646
 3582SOL    HW127888   3.568   3.533   1.585
 3582SOL    HW227889   3.604   3.562   1.729
 3583SOL     OW27890   4.114   3.734   2.311
 3583SOL    HW127891   4.192   3.780   2.341
 3583SOL    HW227892   4.126   3.644   2.342
 3584SOL     OW27893   1.766   4.014   7.692
 3584SOL    HW127894   1.855   3.987   7.673
 3584SOL    HW227895   1.759   4.010   0.026
 3585SOL     OW27896   6.221   1.785   6.345
 3585SOL    HW127897   6.129   1.763   6.357
 3585SOL    HW227898   6.257   1.712   6.296
 3586SOL     OW27899   0.647   6.147   2.319
 3586SOL    HW127900   0.736   6.154   2.353
 3586SOL    HW227901   0.614   6.065   2.357
 3587SOL     OW27902   4.142   5.713   1.110
 3587SOL    HW127903   4.138   5.622   1.080
 3587SOL    HW227904   4.227   5.720   1.154
 3588SOL     OW27905   5.795   4.323   2.376
 3588SOL    HW127906   5.854   4.367   2.315
 3588SOL    HW227907   5.708   4.333   2.336
 3589SOL     OW27908   3.613   5.003   6.780
 3589SOL    HW127909   3.578   5.086   6.748
 3589SOL    HW227910   3.655   4.964   6.704
 3590SOL     OW27911   5.512   3.717   2.448
 3590SOL    HW127912   5.599   3.737   2.413
 3590SOL    HW227913   5.515   3.750   2.538
 3591SOL     OW27914   0.883   4.564   0.340
 3591SOL    HW127915   0.835   4.592   0.262
 3591SOL    HW227916   0.818   4.520   0.394
 3592SOL     OW27917   6.337   1.492   1.478
 3592SOL    HW127918   6.401   1.564   1.476
 3592SOL    HW227919   6.387   1.418   1.514
 3593SOL     OW27920   5.905   2.746   1.562
 3593SOL    HW127921   5.987   2.705   1.591
 3593SOL    HW227922   5.926   2.839   1.556
 3594SOL     OW27923   0.675   2.394   1.215
 3594SOL    HW127924   0.756   2.348   1.237
 3594SOL    HW227925   0.672   2.466   1.278
 3595SOL     OW27926   6.064   1.525   0.978
 3595SOL    HW127927   6.060   1.574   0.896
 3595SOL    HW227928   6.124   1.453   0.960
 3596SOL     OW27929   2.132   1.868   6.103
 3596SOL    HW127930   2.168   1.786   6.070
 3596SOL    HW227931   2.202   1.907   6.155
 3597SOL     OW27932   5.420   1.321   0.339
 3597SOL    HW127933   5.393   1.236   0.304
 3597SOL    HW227934   5.382   1.384   0.279
 3598SOL     OW27935   3.717   5.317   7.164
 3598SOL    HW127936   3.626   5.317   7.133
 3598SOL    HW227937   3.763   5.376   7.103
 3599SOL     OW27938   5.034   2.732   1.757
 3599SOL    HW127939   5.110   2.683   1.726
 3599SOL    HW227940   4.996   2.770   1.678
 3600SOL     OW27941   1.349   3.293   7.736
 3600SOL    HW127942   1.340   3.241   0.055
 3600SOL    HW227943   1.431   3.264   7.697
 3601SOL     OW27944   4.993   2.383   7.723
 3601SOL    HW127945   4.957   2.294   7.723
 3601SOL    HW227946   5.080   2.373   0.001
 3602SOL     OW27947   0.770   3.989   0.004
 3602SOL    HW127948   0.859   3.955   0.008
 3602SOL    HW227949   0.743   3.976   7.674
 3603SOL     OW27950   3.930   5.449   5.665
 3603SOL    HW127951   3.967   5.410   5.586
 3603SOL    HW227952   4.004   5.456   5.725
 3604SOL     OW27953   0.418   5.226   1.001
 3604SOL    HW127954   0.360   5.165   0.955
 3604SOL    HW227955   0.419   5.304   0.946
 3605SOL     OW27956   4.483   2.498   2.208
 3605SOL    HW127957   4.539   2.572   2.186
 3605SOL    HW227958   4.399   2.519   2.169
 3606SOL     OW27959   3.671   1.532   0.331
 3606SOL    HW127960   3.742   1.597   0.333
 3606SOL    HW227961   3.703   1.464   0.272
 3607SOL     OW27962   5.700   2.689   2.639
 3607SOL    HW127963   5.757   2.640   2.581
 3607SOL    HW227964   5.625   2.713   2.585
 3608SOL     OW27965   5.765   5.537   6.868
 3608SOL    HW127966   5.800   5.604   6.810
 3608SOL    HW227967   5.842   5.488   6.897
 3609SOL     OW27968   6.343   1.708   0.977
 3609SOL    HW127969   6.364   1.615   0.975
 3609SOL    HW227970   6.267   1.716   0.919
 3610SOL     OW27971   1.754   3.945   6.469
 3610SOL    HW127972   1.835   3.983   6.504
 3610SOL    HW227973   1.724   3.886   6.538
 3611SOL     OW27974   3.809   6.367   1.560
 3611SOL    HW127975   3.873   6.315   1.607
 3611SOL    HW227976   3.734   6.308   1.546
 3612SOL     OW27977   0.037   0.218   5.414
 3612SOL    HW127978   0.114   0.220   5.472
 3612SOL    HW227979   0.065   0.266   5.336
 3613SOL     OW27980   1.310   1.044   7.668
 3613SOL    HW127981   1.375   1.073   7.731
 3613SOL    HW227982   1.230   1.031   7.720
 3614SOL     OW27983   2.049   1.816   1.688
 3614SOL    HW127984   2.142   1.796   1.677
 3614SOL    HW227985   2.013   1.738   1.732
 3615SOL     OW27986   3.411   3.896   0.640
 3615SOL    HW127987   3.399   3.949   0.561
 3615SOL    HW227988   3.338   3.834   0.638
 3616SOL     OW27989   5.835   1.656   0.662
 3616SOL    HW127990   5.919   1.619   0.691
 3616SOL    HW227991   5.778   1.649   0.739
 3617SOL     OW27992   5.359   5.944   1.090
 3617SOL    HW127993   5.304   5.968   1.165
 3617SOL    HW227994   5.414   6.021   1.076
 3618SOL     OW27995   5.753   5.467   1.362
 3618SOL    HW127996   5.796   5.394   1.318
 3618SOL    HW227997   5.802   5.478   1.444
 3619SOL     OW27998   5.231   4.048   5.729
 3619SOL    HW127999   5.159   4.087   5.778
 3619SOL    HW228000   5.275   4.122   5.688
 3620SOL     OW28001   0.813   4.420   0.664
 3620SOL    HW128002   0.851   4.505   0.640
 3620SOL    HW228003   0.725   4.442   0.697
 3621SOL     OW28004   3.576   4.409   0.735
 3621SOL    HW128005   3.650   4.470   0.743
 3621SOL    HW228006   3.565   4.397   0.641
 3622SOL     OW28007   5.590   2.922   1.483
 3622SOL    HW128008   5.663   2.965   1.439
 3622SOL    HW228009   5.617   2.830   1.489
 3623SOL     OW28010   3.506   1.572   0.794
 3623SOL    HW128011   3.471   1.525   0.870
 3623SOL    HW228012   3.597   1.544   0.788
 3624SOL     OW28013   2.392   0.052   5.864
 3624SOL    HW128014   2.306   0.011   5.863
 3624SOL    HW228015   2.452   6.473   5.832
 3625SOL     OW28016   4.289   2.136   0.469
 3625SOL    HW128017   4.241   2.194   0.528
 3625SOL    HW228018   4.243   2.143   0.386
 3626SOL     OW28019   6.433   3.573   1.343
 3626SOL    HW128020   0.000   3.595   1.268
 3626SOL    HW228021   6.398   3.657   1.372
 3627SOL     OW28022   3.775   1.007   7.538
 3627SOL    HW128023   3.739   1.039   7.621
 3627SOL    HW228024   3.857   0.964   7.562
 3628SOL     OW28025   3.407   6.332   7.757
 3628SOL    HW128026   3.311   6.337   7.755
 3628SOL    HW228027   3.435   6.412   0.040
 3629SOL     OW28028   2.015   5.498   0.109
 3629SOL    HW128029   2.074   5.459   0.174
 3629SOL    HW228030   1.974   5.423   0.066
 3630SOL     OW28031   4.145   5.255   7.025
 3630SOL    HW128032   4.151   5.351   7.027
 3630SOL    HW228033   4.127   5.234   6.933
 3631SOL     OW28034   4.639   0.763   7.141
 3631SOL    HW128035   4.565   0.737   7.197
 3631SOL    HW228036   4.647   0.691   7.078
 3632SOL     OW28037   3.238   0.903   1.803
 3632SOL    HW128038   3.249   0.900   1.708
 3632SOL    HW228039   3.222   0.813   1.828
 3633SOL     OW28040   2.151   2.234   7.022
 3633SOL    HW128041   2.214   2.306   7.031
 3633SOL    HW228042   2.069   2.277   7.001
 3634SOL     OW28043   3.645   4.812   0.019
 3634SOL    HW128044   3.604   4.897   0.037
 3634SOL    HW228045   3.633   4.800   7.686
 3635SOL     OW28046   0.397   0.430   0.408
 3635SOL    HW128047   0.491   0.430   0.420
 3635SOL    HW228048   0.377   0.517   0.371
 3636SOL     OW28049   4.279   3.399   0.177
 3636SOL    HW128050   4.313   3.395   0.266
 3636SOL    HW228051   4.316   3.479   0.140
 3637SOL     OW28052   4.577   2.000   0.979
 3637SOL    HW128053   4.658   2.041   0.949
 3637SOL    HW228054   4.512   2.070   0.974
 3638SOL     OW28055   5.332   2.871   2.261
 3638SOL    HW128056   5.385   2.903   2.333
 3638SOL    HW228057   5.250   2.920   2.268
 3639SOL     OW28058   4.719   0.409   1.659
 3639SOL    HW128059   4.665   0.359   1.598
 3639SOL    HW228060   4.677   0.494   1.665
 3640SOL     OW28061   0.353   5.663   7.139
 3640SOL    HW128062   0.330   5.604   7.211
 3640SOL    HW228063   0.447   5.650   7.127
 3641SOL     OW28064   3.890   5.443   7.517
 3641SOL    HW128065   3.976   5.448   7.558
 3641SOL    HW228066   3.873   5.349   7.506
 3642SOL     OW28067   4.933   2.203   0.724
 3642SOL    HW128068   4.991   2.152   0.667
 3642SOL    HW228069   4.863   2.233   0.667
 3643SOL     OW28070   4.885   0.640   6.622
 3643SOL    HW128071   4.847   0.704   6.560
 3643SOL    HW228072   4.810   0.600   6.664
 3644SOL     OW28073   6.227   2.040   0.665
 3644SOL    HW128074   6.232   2.135   0.656
 3644SOL    HW228075   6.294   2.018   0.730
 3645SOL     OW28076   2.416   6.221   6.684
 3645SOL    HW128077   2.417   6.302   6.736
 3645SOL    HW228078   2.350   6.237   6.617
 3646SOL     OW28079   5.704   5.062   7.140
 3646SOL    HW128080   5.677   5.096   7.054
 3646SOL    HW228081   5.681   5.132   7.201
 3647SOL     OW28082   5.197   3.408   7.698
 3647SOL    HW128083   5.172   3.498   7.716
 3647SOL    HW228084   5.122   3.370   7.652
 3648SOL     OW28085   2.779   3.073   6.838
 3648SOL    HW128086   2.795   3.155   6.886
 3648SOL    HW228087   2.684   3.060   6.843
 3649SOL     OW28088   4.895   5.287   7.585
 3649SOL    HW128089   4.934   5.212   7.630
 3649SOL    HW228090   4.804   5.261   7.570
 3650SOL     OW28091   2.564   3.947   1.784
 3650SOL    HW128092   2.564   3.880   1.715
 3650SOL    HW228093   2.616   3.909   1.855
 3651SOL     OW28094   0.560   0.791   7.507
 3651SOL    HW128095   0.520   0.873   7.537
 3651SOL    HW228096   0.653   0.813   7.496
 3652SOL     OW28097   6.292   4.451   7.107
 3652SOL    HW128098   6.267   4.505   7.181
 3652SOL    HW228099   6.376   4.487   7.078
 3653SOL     OW28100   1.589   5.406   0.814
 3653SOL    HW128101   1.664   5.371   0.767
 3653SOL    HW228102   1.577   5.348   0.888
 3654SOL     OW28103   0.795   1.660   7.096
 3654SOL    HW128104   0.823   1.571   7.075
 3654SOL    HW228105   0.754   1.653   7.182
 3655SOL     OW28106   1.221   2.767   1.311
 3655SOL    HW128107   1.133   2.772   1.273
 3655SOL    HW228108   1.207   2.725   1.396
 3656SOL     OW28109   1.358   3.744   0.149
 3656SOL    HW128110   1.331   3.817   0.094
 3656SOL    HW228111   1.408   3.785   0.220
 3657SOL     OW28112   0.312   3.196   7.470
 3657SOL    HW128113   0.372   3.122   7.470
 3657SOL    HW228114   0.313   3.229   7.380
 3658SOL     OW28115   4.174   6.124   7.311
 3658SOL    HW128116   4.252   6.125   7.256
 3658SOL    HW228117   4.206   6.112   7.400
 3659SOL     OW28118   0.556   3.894   1.051
 3659SOL    HW128119   0.584   3.857   1.135
 3659SOL    HW228120   0.593   3.835   0.985
 3660SOL     OW28121   2.889   1.957   1.095
 3660SOL    HW128122   2.936   1.922   1.170
 3660SOL    HW228123   2.950   2.020   1.056
 3661SOL     OW28124   6.054   6.398   1.864
 3661SOL    HW128125   6.107   6.361   1.794
 3661SOL    HW228126   5.964   6.390   1.833
 3662SOL     OW28127   4.071   3.790   0.938
 3662SOL    HW128128   4.105   3.739   0.865
 3662SOL    HW228129   3.985   3.751   0.957
 3663SOL     OW28130   3.014   4.810   0.393
 3663SOL    HW128131   3.084   4.844   0.337
 3663SOL    HW228132   3.059   4.757   0.459
 3664SOL     OW28133   1.673   4.971   6.594
 3664SOL    HW128134   1.623   4.890   6.580
 3664SOL    HW228135   1.612   5.041   6.574
 3665SOL     OW28136   5.376   4.376   6.473
 3665SOL    HW128137   5.427   4.444   6.428
 3665SOL    HW228138   5.433   4.348   6.544
 3666SOL     OW28139   5.711   4.601   0.911
 3666SOL    HW128140   5.693   4.543   0.837
 3666SOL    HW228141   5.629   4.650   0.922
 3667SOL     OW28142   4.055   2.564   1.252
 3667SOL    HW128143   3.972   2.517   1.246
 3667SOL    HW228144   4.089   2.564   1.162
 3668SOL     OW28145   6.166   4.375   5.762
 3668SOL    HW128146   6.131   4.429   5.692
 3668SOL    HW228147   6.260   4.394   5.763
 3669SOL     OW28148   3.412   1.039   1.963
 3669SOL    HW128149   3.407   1.134   1.952
 3669SOL    HW228150   3.346   1.004   1.903
 3670SOL     OW28151   3.430   5.573   0.027
 3670SOL    HW128152   3.523   5.575   0.006
 3670SOL    HW228153   3.386   5.602   7.709
 3671SOL     OW28154   0.908   0.652   7.313
 3671SOL    HW128155   0.915   0.573   7.368
 3671SOL    HW228156   0.862   0.715   7.368
 3672SOL     OW28157   1.743   3.258   6.390
 3672SOL    HW128158   1.739   3.214   6.305
 3672SOL    HW228159   1.660   3.305   6.396
 3673SOL     OW28160   3.384   5.882   6.033
 3673SOL    HW128161   3.473   5.894   5.998
 3673SOL    HW228162   3.331   5.864   5.956
 3674SOL     OW28163   5.547   5.653   1.294
 3674SOL    HW128164   5.499   5.655   1.376
 3674SOL    HW228165   5.597   5.571   1.296
 3675SOL     OW28166   0.122   2.522   7.643
 3675SOL    HW128167   0.065   2.548   7.715
 3675SOL    HW228168   0.209   2.554   7.669
 3676SOL     OW28169   4.052   6.255   1.163
 3676SOL    HW128170   4.096   6.237   1.246
 3676SOL    HW228171   4.113   6.224   1.096
 3677SOL     OW28172   3.354   1.991   7.009
 3677SOL    HW128173   3.342   1.921   6.945
 3677SOL    HW228174   3.389   1.948   7.087
 3678SOL     OW28175   3.433   2.648   6.160
 3678SOL    HW128176   3.347   2.658   6.119
 3678SOL    HW228177   3.465   2.737   6.169
 3679SOL     OW28178   1.139   4.633   0.418
 3679SOL    HW128179   1.183   4.570   0.361
 3679SOL    HW228180   1.056   4.651   0.375
 3680SOL     OW28181   0.648   3.753   5.694
 3680SOL    HW128182   0.700   3.822   5.736
 3680SOL    HW228183   0.697   3.730   5.615
 3681SOL     OW28184   1.487   3.015   7.471
 3681SOL    HW128185   1.484   3.097   7.520
 3681SOL    HW228186   1.395   2.994   7.454
 3682SOL     OW28187   3.609   4.626   6.427
 3682SOL    HW128188   3.615   4.534   6.401
 3682SOL    HW228189   3.688   4.643   6.478
 3683SOL     OW28190   4.389   5.538   7.533
 3683SOL    HW128191   4.476   5.545   7.574
 3683SOL    HW228192   4.369   5.627   7.505
 3684SOL     OW28193   6.088   1.371   5.674
 3684SOL    HW128194   6.178   1.358   5.643
 3684SOL    HW228195   6.051   1.434   5.612
 3685SOL     OW28196   2.159   6.324   7.572
 3685SOL    HW128197   2.168   6.410   7.612
 3685SOL    HW228198   2.206   6.331   7.488
 3686SOL     OW28199   4.160   3.208   1.910
 3686SOL    HW128200   4.158   3.225   2.004
 3686SOL    HW228201   4.098   3.137   1.897
 3687SOL     OW28202   0.836   2.474   7.122
 3687SOL    HW128203   0.760   2.465   7.064
 3687SOL    HW228204   0.843   2.389   7.166
 3688SOL     OW28205   1.057   0.672   2.296
 3688SOL    HW128206   1.080   0.750   2.246
 3688SOL    HW228207   0.967   0.652   2.271
 3689SOL     OW28208   2.308   0.394   7.626
 3689SOL    HW128209   2.344   0.319   7.672
 3689SOL    HW228210   2.240   0.428   7.685
 3690SOL     OW28211   1.890   0.039   5.283
 3690SOL    HW128212   1.926   6.471   5.215
 3690SOL    HW228213   1.815   6.480   5.317
 3691SOL     OW28214   3.196   2.842   6.999
 3691SOL    HW128215   3.166   2.776   7.061
 3691SOL    HW228216   3.115   2.875   6.959
 3692SOL     OW28217   5.332   1.564   0.234
 3692SOL    HW128218   5.364   1.651   0.260
 3692SOL    HW228219   5.325   1.569   0.138
 3693SOL     OW28220   1.901   0.933   6.334
 3693SOL    HW128221   1.994   0.931   6.359
 3693SOL    HW228222   1.890   0.854   6.281
 3694SOL     OW28223   0.883   5.828   7.472
 3694SOL    HW128224   0.810   5.788   7.425
 3694SOL    HW228225   0.913   5.898   7.414
 3695SOL     OW28226   5.391   3.638   1.045
 3695SOL    HW128227   5.312   3.684   1.074
 3695SOL    HW228228   5.370   3.545   1.058
 3696SOL     OW28229   3.158   3.799   6.486
 3696SOL    HW128230   3.217   3.833   6.554
 3696SOL    HW228231   3.152   3.869   6.422
 3697SOL     OW28232   1.633   1.631   6.694
 3697SOL    HW128233   1.713   1.581   6.676
 3697SOL    HW228234   1.609   1.605   6.783
 3698SOL     OW28235   3.498   4.960   5.351
 3698SOL    HW128236   3.569   4.956   5.415
 3698SOL    HW228237   3.466   4.870   5.345
 3699SOL     OW28238   0.411   6.157   1.117
 3699SOL    HW128239   0.361   6.216   1.061
 3699SOL    HW228240   0.346   6.096   1.152
 3700SOL     OW28241   2.587   1.833   1.660
 3700SOL    HW128242   2.611   1.887   1.585
 3700SOL    HW228243   2.663   1.840   1.719
 3701SOL     OW28244   5.914   4.968   0.765
 3701SOL    HW128245   5.928   4.880   0.800
 3701SOL    HW228246   5.875   5.017   0.838
 3702SOL     OW28247   4.206   0.924   6.023
 3702SOL    HW128248   4.200   0.959   5.934
 3702SOL    HW228249   4.166   0.837   6.017
 3703SOL     OW28250   5.422   1.837   0.248
 3703SOL    HW128251   5.486   1.884   0.195
 3703SOL    HW228252   5.387   1.902   0.309
 3704SOL     OW28253   4.225   4.315   7.538
 3704SOL    HW128254   4.159   4.303   7.469
 3704SOL    HW228255   4.185   4.376   7.599
 3705SOL     OW28256   0.886   0.854   1.475
 3705SOL    HW128257   0.809   0.817   1.518
 3705SOL    HW228258   0.935   0.896   1.546
 3706SOL     OW28259   3.159   4.885   1.199
 3706SOL    HW128260   3.245   4.922   1.215
 3706SOL    HW228261   3.105   4.960   1.173
 3707SOL     OW28262   3.184   4.729   0.601
 3707SOL    HW128263   3.223   4.795   0.659
 3707SOL    HW228264   3.236   4.651   0.616
 3708SOL     OW28265   2.932   3.907   1.810
 3708SOL    HW128266   2.874   3.871   1.878
 3708SOL    HW228267   2.946   3.998   1.837
 3709SOL     OW28268   4.696   4.021   7.663
 3709SOL    HW128269   4.676   4.052   7.575
 3709SOL    HW228270   4.627   4.059   7.718
 3710SOL     OW28271   0.326   0.493   6.820
 3710SOL    HW128272   0.342   0.457   6.907
 3710SOL    HW228273   0.251   0.444   6.787
 3711SOL     OW28274   1.425   0.448   7.394
 3711SOL    HW128275   1.350   0.500   7.424
 3711SOL    HW228276   1.491   0.513   7.371
 3712SOL     OW28277   5.886   4.185   6.121
 3712SOL    HW128278   5.864   4.274   6.093
 3712SOL    HW228279   5.910   4.193   6.213
 3713SOL     OW28280   3.704   4.566   6.942
 3713SOL    HW128281   3.694   4.546   7.036
 3713SOL    HW228282   3.709   4.661   6.939
 3714SOL     OW28283   5.198   3.354   0.594
 3714SOL    HW128284   5.148   3.292   0.540
 3714SOL    HW228285   5.215   3.428   0.537
 3715SOL     OW28286   0.795   0.283   6.222
 3715SOL    HW128287   0.864   0.251   6.281
 3715SOL    HW228288   0.800   0.379   6.230
 3716SOL     OW28289   3.815   5.683   5.740
 3716SOL    HW128290   3.890   5.742   5.748
 3716SOL    HW228291   3.851   5.602   5.705
 3717SOL     OW28292   5.278   6.456   0.693
 3717SOL    HW128293   5.352   6.395   0.699
 3717SOL    HW228294   5.212   6.420   0.752
 3718SOL     OW28295   3.513   2.447   1.465
 3718SOL    HW128296   3.473   2.401   1.539
 3718SOL    HW228297   3.579   2.504   1.504
 3719SOL     OW28298   3.400   2.502   1.023
 3719SOL    HW128299   3.413   2.549   0.940
 3719SOL    HW228300   3.394   2.571   1.089
 3720SOL     OW28301   4.572   3.866   6.296
 3720SOL    HW128302   4.651   3.866   6.241
 3720SOL    HW228303   4.544   3.957   6.299
 3721SOL     OW28304   5.583   5.150   6.673
 3721SOL    HW128305   5.519   5.167   6.742
 3721SOL    HW228306   5.535   5.097   6.609
 3722SOL     OW28307   6.345   6.465   7.504
 3722SOL    HW128308   6.360   0.045   7.439
 3722SOL    HW228309   6.408   6.484   7.574
 3723SOL     OW28310   5.151   5.988   0.890
 3723SOL    HW128311   5.120   5.919   0.832
 3723SOL    HW228312   5.221   5.947   0.942
 3724SOL     OW28313   0.144   1.152   6.159
 3724SOL    HW128314   0.185   1.238   6.167
 3724SOL    HW228315   0.201   1.105   6.098
 3725SOL     OW28316   3.881   3.061   6.587
 3725SOL    HW128317   3.891   3.115   6.509
 3725SOL    HW228318   3.947   2.992   6.578
 3726SOL     OW28319   2.525   5.683   5.876
 3726SOL    HW128320   2.430   5.674   5.872
 3726SOL    HW228321   2.557   5.593   5.868
 3727SOL     OW28322   2.080   1.051   7.225
 3727SOL    HW128323   2.166   1.083   7.199
 3727SOL    HW228324   2.032   1.043   7.142
 3728SOL     OW28325   3.058   5.251   1.617
 3728SOL    HW128326   3.079   5.341   1.591
 3728SOL    HW228327   2.963   5.244   1.604
 3729SOL     OW28328   2.271   2.570   6.355
 3729SOL    HW128329   2.288   2.579   6.448
 3729SOL    HW228330   2.358   2.571   6.315
 3730SOL     OW28331   3.759   1.572   7.485
 3730SOL    HW128332   3.819   1.523   7.429
 3730SOL    HW228333   3.740   1.652   7.435
 3731SOL     OW28334   3.041   4.409   0.710
 3731SOL    HW128335   3.131   4.421   0.680
 3731SOL    HW228336   3.050   4.358   0.791
 3732SOL     OW28337   4.408   1.515   6.050
 3732SOL    HW128338   4.466   1.483   6.119
 3732SOL    HW228339   4.404   1.444   5.986
 3733SOL     OW28340   0.267   6.011   5.871
 3733SOL    HW128341   0.281   6.062   5.791
 3733SOL    HW228342   0.200   5.947   5.848
 3734SOL     OW28343   4.246   6.323   0.005
 3734SOL    HW128344   4.258   6.358   0.094
 3734SOL    HW228345   4.328   6.278   7.747
 3735SOL     OW28346   6.101   4.457   7.704
 3735SOL    HW128347   6.063   4.374   7.675
 3735SOL    HW228348   6.161   4.482   7.634
 3736SOL     OW28349   4.687   2.619   7.101
 3736SOL    HW128350   4.607   2.661   7.132
 3736SOL    HW228351   4.695   2.540   7.155
 3737SOL     OW28352   0.995   4.119   6.749
 3737SOL    HW128353   1.079   4.157   6.723
 3737SOL    HW228354   0.989   4.038   6.698
 3738SOL     OW28355   4.273   6.315   5.250
 3738SOL    HW128356   4.359   6.356   5.254
 3738SOL    HW228357   4.215   6.384   5.215
 3739SOL     OW28358   3.292   5.642   7.568
 3739SOL    HW128359   3.252   5.724   7.538
 3739SOL    HW228360   3.283   5.583   7.493
 3740SOL     OW28361   5.454   4.405   0.318
 3740SOL    HW128362   5.510   4.338   0.357
 3740SOL    HW228363   5.388   4.424   0.385
 3741SOL     OW28364   0.298   6.430   6.699
 3741SOL    HW128365   0.331   6.349   6.662
 3741SOL    HW228366   0.333   0.011   6.643
 3742SOL     OW28367   4.001   6.262   5.737
 3742SOL    HW128368   3.963   6.339   5.694
 3742SOL    HW228369   4.050   6.298   5.812
 3743SOL     OW28370   3.721   5.706   7.082
 3743SOL    HW128371   3.808   5.731   7.051
 3743SOL    HW228372   3.738   5.642   7.152
 3744SOL     OW28373   0.651   1.542   1.993
 3744SOL    HW128374   0.632   1.568   1.902
 3744SOL    HW228375   0.733   1.585   2.014
 3745SOL     OW28376   0.281   3.184   6.592
 3745SOL    HW128377   0.238   3.262   6.557
 3745SOL    HW228378   0.374   3.199   6.577
 3746SOL     OW28379   3.903   0.639   7.238
 3746SOL    HW128380   3.965   0.653   7.308
 3746SOL    HW228381   3.817   0.652   7.278
 3747SOL     OW28382   2.313   2.498   7.684
 3747SOL    HW128383   2.338   2.586   7.714
 3747SOL    HW228384   2.397   2.453   7.672
 3748SOL     OW28385   2.681   4.243   5.345
 3748SOL    HW128386   2.627   4.177   5.388
 3748SOL    HW228387   2.762   4.245   5.395
 3749SOL     OW28388   6.164   0.377   5.865
 3749SOL    HW128389   6.107   0.323   5.921
 3749SOL    HW228390   6.139   0.467   5.886
 3750SOL     OW28391   4.420   3.704   6.432
 3750SOL    HW128392   4.489   3.756   6.391
 3750SOL    HW228393   4.467   3.635   6.479
 3751SOL     OW28394   4.256   2.284   6.206
 3751SOL    HW128395   4.285   2.376   6.207
 3751SOL    HW228396   4.332   2.235   6.235
 3752SOL     OW28397   4.931   0.966   6.751
 3752SOL    HW128398   4.857   0.980   6.810
 3752SOL    HW228399   4.985   0.900   6.795
 3753SOL     OW28400   1.433   4.464   1.658
 3753SOL    HW128401   1.386   4.419   1.729
 3753SOL    HW228402   1.491   4.526   1.703
 3754SOL     OW28403   3.549   1.085   0.811
 3754SOL    HW128404   3.550   1.181   0.801
 3754SOL    HW228405   3.467   1.067   0.857
 3755SOL     OW28406   1.323   0.396   2.326
 3755SOL    HW128407   1.393   0.337   2.298
 3755SOL    HW228408   1.361   0.484   2.319
 3756SOL     OW28409   5.497   3.115   2.746
 3756SOL    HW128410   5.544   3.188   2.786
 3756SOL    HW228411   5.434   3.088   2.812
 3757SOL     OW28412   4.394   4.148   7.692
 3757SOL    HW128413   4.341   4.070   7.711
 3757SOL    HW228414   4.339   4.201   7.635
 3758SOL     OW28415   4.179   0.752   6.319
 3758SOL    HW128416   4.138   0.690   6.259
 3758SOL    HW228417   4.116   0.824   6.325
 3759SOL     OW28418   4.029   3.967   1.180
 3759SOL    HW128419   4.113   3.960   1.225
 3759SOL    HW228420   4.037   3.908   1.105
 3760SOL     OW28421   1.249   4.207   6.930
 3760SOL    HW128422   1.293   4.250   7.003
 3760SOL    HW228423   1.157   4.205   6.956
 3761SOL     OW28424   0.208   2.779   0.134
 3761SOL    HW128425   0.165   2.718   0.195
 3761SOL    HW228426   0.219   2.860   0.185
 3762SOL     OW28427   4.674   4.532   6.702
 3762SOL    HW128428   4.627   4.450   6.692
 3762SOL    HW228429   4.671   4.572   6.615
 3763SOL     OW28430   4.663   0.599   6.329
 3763SOL    HW128431   4.636   0.514   6.365
 3763SOL    HW228432   4.588   0.657   6.345
 3764SOL     OW28433   1.812   6.299   7.226
 3764SOL    HW128434   1.767   6.323   7.145
 3764SOL    HW228435   1.744   6.260   7.281
 3765SOL     OW28436   0.344   4.384   6.113
 3765SOL    HW128437   0.376   4.300   6.081
 3765SOL    HW228438   0.386   4.395   6.198
 3766SOL     OW28439   1.642   4.455   5.737
 3766SOL    HW128440   1.629   4.489   5.648
 3766SOL    HW228441   1.560   4.475   5.782
 3767SOL     OW28442   5.928   1.952   7.624
 3767SOL    HW128443   5.854   1.906   7.584
 3767SOL    HW228444   6.005   1.904   7.594
 3768SOL     OW28445   2.594   1.074   7.218
 3768SOL    HW128446   2.624   0.997   7.265
 3768SOL    HW228447   2.669   1.102   7.166
 3769SOL     OW28448   3.906   5.558   6.142
 3769SOL    HW128449   3.958   5.480   6.123
 3769SOL    HW228450   3.937   5.624   6.080
 3770SOL     OW28451   4.069   5.590   2.163
 3770SOL    HW128452   4.115   5.646   2.100
 3770SOL    HW228453   4.058   5.645   2.240
 3771SOL     OW28454   6.006   0.828   1.858
 3771SOL    HW128455   6.030   0.759   1.921
 3771SOL    HW228456   5.983   0.781   1.779
 3772SOL     OW28457   2.945   0.679   7.672
 3772SOL    HW128458   2.986   0.640   7.595
 3772SOL    HW228459   2.851   0.661   7.661
 3773SOL     OW28460   3.282   5.956   7.760
 3773SOL    HW128461   3.355   5.974   7.700
 3773SOL    HW228462   3.276   6.035   0.052
 3774SOL     OW28463   3.322   1.047   1.219
 3774SOL    HW128464   3.356   1.091   1.297
 3774SOL    HW228465   3.228   1.064   1.222
 3775SOL     OW28466   1.587   0.136   6.809
 3775SOL    HW128467   1.551   0.049   6.827
 3775SOL    HW228468   1.515   0.196   6.830
 3776SOL     OW28469   5.787   0.953   2.039
 3776SOL    HW128470   5.806   1.047   2.042
 3776SOL    HW228471   5.828   0.923   1.958
 3777SOL     OW28472   3.741   2.945   1.572
 3777SOL    HW128473   3.658   2.942   1.525
 3777SOL    HW228474   3.735   3.023   1.627
 3778SOL     OW28475   0.565   2.242   0.518
 3778SOL    HW128476   0.482   2.282   0.543
 3778SOL    HW228477   0.585   2.280   0.433
 3779SOL     OW28478   3.292   4.217   2.318
 3779SOL    HW128479   3.291   4.219   2.222
 3779SOL    HW228480   3.385   4.217   2.341
 3780SOL     OW28481   1.042   5.489   7.008
 3780SOL    HW128482   1.111   5.425   7.027
 3780SOL    HW228483   1.031   5.538   7.090
 3781SOL     OW28484   4.987   2.927   0.922
 3781SOL    HW128485   5.052   2.917   0.852
 3781SOL    HW228486   4.988   3.021   0.942
 3782SOL     OW28487   4.416   1.218   0.301
 3782SOL    HW128488   4.433   1.124   0.308
 3782SOL    HW228489   4.468   1.257   0.371
 3783SOL     OW28490   4.679   0.740   7.711
 3783SOL    HW128491   4.629   0.671   7.754
 3783SOL    HW228492   4.659   0.729   7.618
 3784SOL     OW28493   3.403   0.610   0.047
 3784SOL    HW128494   3.477   0.549   0.052
 3784SOL    HW228495   3.327   0.558   0.073
 3785SOL     OW28496   6.042   2.405   1.492
 3785SOL    HW128497   6.083   2.473   1.544
 3785SOL    HW228498   5.957   2.389   1.534
 3786SOL     OW28499   4.912   0.489   0.804
 3786SOL    HW128500   4.862   0.566   0.830
 3786SOL    HW228501   4.986   0.523   0.754
 3787SOL     OW28502   3.761   4.042   6.171
 3787SOL    HW128503   3.756   3.975   6.103
 3787SOL    HW228504   3.671   4.073   6.181
 3788SOL     OW28505   3.124   1.260   2.049
 3788SOL    HW128506   3.214   1.278   2.020
 3788SOL    HW228507   3.135   1.216   2.133
 3789SOL     OW28508   1.122   0.403   5.555
 3789SOL    HW128509   1.043   0.439   5.597
 3789SOL    HW228510   1.092   0.324   5.511
 3790SOL     OW28511   1.737   1.122   7.502
 3790SOL    HW128512   1.681   1.195   7.476
 3790SOL    HW228513   1.826   1.155   7.490
 3791SOL     OW28514   6.045   4.510   1.206
 3791SOL    HW128515   6.082   4.431   1.169
 3791SOL    HW228516   6.119   4.555   1.248
 3792SOL     OW28517   1.635   3.004   0.157
 3792SOL    HW128518   1.565   2.968   0.103
 3792SOL    HW228519   1.592   3.072   0.210
 3793SOL     OW28520   1.251   5.836   0.078
 3793SOL    HW128521   1.307   5.784   0.020
 3793SOL    HW228522   1.294   5.830   0.163
 3794SOL     OW28523   3.353   3.162   1.629
 3794SOL    HW128524   3.316   3.160   1.540
 3794SOL    HW228525   3.314   3.086   1.672
 3795SOL     OW28526   4.387   3.852   5.422
 3795SOL    HW128527   4.304   3.877   5.381
 3795SOL    HW228528   4.366   3.773   5.472
 3796SOL     OW28529   4.457   0.994   5.463
 3796SOL    HW128530   4.395   1.012   5.393
 3796SOL    HW228531   4.463   1.076   5.512
 3797SOL     OW28532   4.896   2.530   6.406
 3797SOL    HW128533   4.919   2.437   6.401
 3797SOL    HW228534   4.804   2.533   6.378
 3798SOL     OW28535   4.973   2.458   6.786
 3798SOL    HW128536   5.051   2.474   6.733
 3798SOL    HW228537   4.982   2.367   6.814
 3799SOL     OW28538   2.629   0.069   0.415
 3799SOL    HW128539   2.555   0.017   0.447
 3799SOL    HW228540   2.615   0.157   0.450
 3800SOL     OW28541   2.728   6.201   7.690
 3800SOL    HW128542   2.779   6.143   7.746
 3800SOL    HW228543   2.641   6.201   7.729
 3801SOL     OW28544   2.728   4.288   7.429
 3801SOL    HW128545   2.790   4.233   7.476
 3801SOL    HW228546   2.644   4.242   7.437
 3802SOL     OW28547   6.287   4.647   1.288
 3802SOL    HW128548   6.332   4.689   1.361
 3802SOL    HW228549   6.310   4.700   1.212
 3803SOL     OW28550   4.553   4.800   6.780
 3803SOL    HW128551   4.571   4.706   6.785
 3803SOL    HW228552   4.511   4.812   6.695
 3804SOL     OW28553   5.779   3.215   6.304
 3804SOL    HW128554   5.783   3.289   6.245
 3804SOL    HW228555   5.688   3.185   6.300
 3805SOL     OW28556   2.095   0.570   7.692
 3805SOL    HW128557   2.105   0.653   7.646
 3805SOL    HW228558   2.005   0.570   7.724
 3806SOL     OW28559   6.238   4.432   6.830
 3806SOL    HW128560   6.143   4.447   6.826
 3806SOL    HW228561   6.262   4.456   6.919
 3807SOL     OW28562   5.064   4.046   1.273
 3807SOL    HW128563   5.109   4.129   1.260
 3807SOL    HW228564   5.056   4.009   1.185
 3808SOL     OW28565   2.723   2.981   7.405
 3808SOL    HW128566   2.729   2.886   7.398
 3808SOL    HW228567   2.758   3.000   7.492
 3809SOL     OW28568   2.247   1.084   7.528
 3809SOL    HW128569   2.294   1.054   7.605
 3809SOL    HW228570   2.247   1.009   7.469
 3810SOL     OW28571   6.179   4.223   7.362
 3810SOL    HW128572   6.122   4.248   7.434
 3810SOL    HW228573   6.262   4.199   7.404
 3811SOL     OW28574   0.847   0.075   7.610
 3811SOL    HW128575   0.907   0.034   7.547
 3811SOL    HW228576   0.761   0.071   7.567
 3812SOL     OW28577   3.942   3.947   0.647
 3812SOL    HW128578   4.035   3.932   0.664
 3812SOL    HW228579   3.930   3.925   0.555
 3813SOL     OW28580   4.420   6.030   0.156
 3813SOL    HW128581   4.471   6.067   0.228
 3813SOL    HW228582   4.441   6.085   0.081
 3814SOL     OW28583   4.364   0.223   1.529
 3814SOL    HW128584   4.442   0.248   1.480
 3814SOL    HW228585   4.392   0.149   1.583
 3815SOL     OW28586   0.551   4.464   7.587
 3815SOL    HW128587   0.595   4.390   7.629
 3815SOL    HW228588   0.458   4.440   7.590
 3816SOL     OW28589   6.302   5.083   6.574
 3816SOL    HW128590   6.209   5.104   6.567
 3816SOL    HW228591   6.336   5.143   6.640
 3817SOL     OW28592   0.011   4.741   0.338
 3817SOL    HW128593   6.454   4.748   0.255
 3817SOL    HW228594   0.098   4.779   0.322
 3818SOL     OW28595   2.193   5.092   1.684
 3818SOL    HW128596   2.199   5.138   1.600
 3818SOL    HW228597   2.283   5.082   1.713
 3819SOL     OW28598   1.059   3.713   5.503
 3819SOL    HW128599   1.144   3.740   5.538
 3819SOL    HW228600   1.078   3.681   5.415
 3820SOL     OW28601   3.044   0.081   0.322
 3820SOL    HW128602   2.974   0.018   0.305
 3820SOL    HW228603   2.999   0.165   0.333
 3821SOL     OW28604   5.804   3.360   2.712
 3821SOL    HW128605   5.884   3.317   2.680
 3821SOL    HW228606   5.770   3.406   2.635
 3822SOL     OW28607   5.768   3.767   2.378
 3822SOL    HW128608   5.836   3.766   2.310
 3822SOL    HW228609   5.778   3.852   2.420
 3823SOL     OW28610   4.871   5.708   6.934
 3823SOL    HW128611   4.907   5.747   7.013
 3823SOL    HW228612   4.776   5.718   6.943
 3824SOL     OW28613   0.759   2.102   6.248
 3824SOL    HW128614   0.695   2.031   6.245
 3824SOL    HW228615   0.788   2.105   6.339
 3825SOL     OW28616   6.461   5.671   0.840
 3825SOL    HW128617   6.443   5.580   0.816
 3825SOL    HW228618   6.374   5.711   0.850
 3826SOL     OW28619   5.003   2.262   2.172
 3826SOL    HW128620   4.959   2.330   2.222
 3826SOL    HW228621   5.079   2.305   2.133
 3827SOL     OW28622   2.250   2.914   0.258
 3827SOL    HW128623   2.290   2.891   0.174
 3827SOL    HW228624   2.178   2.852   0.268
 3828SOL     OW28625   5.509   2.676   1.901
 3828SOL    HW128626   5.525   2.599   1.955
 3828SOL    HW228627   5.593   2.694   1.860
 3829SOL     OW28628   5.523   0.029   7.712
 3829SOL    HW128629   5.601   0.054   7.761
 3829SOL    HW228630   5.502   6.429   7.742
 3830SOL     OW28631   2.366   1.316   6.096
 3830SOL    HW128632   2.411   1.380   6.042
 3830SOL    HW228633   2.307   1.270   6.036
 3831SOL     OW28634   1.869   1.687   7.497
 3831SOL    HW128635   1.807   1.707   7.427
 3831SOL    HW228636   1.949   1.735   7.473
 3832SOL     OW28637   1.862   0.404   1.555
 3832SOL    HW128638   1.874   0.354   1.474
 3832SOL    HW228639   1.915   0.482   1.543
 3833SOL     OW28640   0.146   1.502   0.745
 3833SOL    HW128641   0.154   1.592   0.715
 3833SOL    HW228642   0.125   1.452   0.666
 3834SOL     OW28643   3.534   6.052   1.275
 3834SOL    HW128644   3.617   6.057   1.229
 3834SOL    HW228645   3.468   6.048   1.206
 3835SOL     OW28646   0.874   2.369   0.622
 3835SOL    HW128647   0.940   2.358   0.553
 3835SOL    HW228648   0.794   2.391   0.575
 3836SOL     OW28649   2.718   3.766   6.739
 3836SOL    HW128650   2.686   3.839   6.686
 3836SOL    HW228651   2.800   3.739   6.698
 3837SOL     OW28652   1.261   0.247   7.256
 3837SOL    HW128653   1.328   0.296   7.302
 3837SOL    HW228654   1.270   0.275   7.164
 3838SOL     OW28655   3.917   0.001   1.104
 3838SOL    HW128656   3.948   6.406   1.137
 3838SOL    HW228657   3.858   0.034   1.172
 3839SOL     OW28658   5.446   2.235   7.147
 3839SOL    HW128659   5.471   2.162   7.203
 3839SOL    HW228660   5.505   2.228   7.072
 3840SOL     OW28661   3.812   0.125   0.447
 3840SOL    HW128662   3.748   0.056   0.462
 3840SOL    HW228663   3.764   0.206   0.459
 3841SOL     OW28664   0.800   6.179   7.232
 3841SOL    HW128665   0.708   6.183   7.257
 3841SOL    HW228666   0.818   6.263   7.191
 3842SOL     OW28667   1.865   0.846   0.781
 3842SOL    HW128668   1.941   0.840   0.839
 3842SOL    HW228669   1.794   0.878   0.837
 3843SOL     OW28670   2.166   4.039   0.101
 3843SOL    HW128671   2.249   4.086   0.104
 3843SOL    HW228672   2.166   3.986   0.181
 3844SOL     OW28673   3.294   5.074   7.125
 3844SOL    HW128674   3.294   5.038   7.214
 3844SOL    HW228675   3.206   5.058   7.092
 3845SOL     OW28676   3.334   1.171   1.461
 3845SOL    HW128677   3.267   1.238   1.448
 3845SOL    HW228678   3.375   1.194   1.544
 3846SOL     OW28679   2.010   3.946   0.920
 3846SOL    HW128680   2.016   4.001   0.842
 3846SOL    HW228681   2.088   3.967   0.971
 3847SOL     OW28682   2.104   1.989   1.480
 3847SOL    HW128683   2.174   2.031   1.531
 3847SOL    HW228684   2.063   1.929   1.542
 3848SOL     OW28685   3.822   0.440   6.068
 3848SOL    HW128686   3.836   0.371   6.003
 3848SOL    HW228687   3.733   0.470   6.052
 3849SOL     OW28688   2.695   4.675   0.908
 3849SOL    HW128689   2.703   4.665   1.003
 3849SOL    HW228690   2.769   4.729   0.883
 3850SOL     OW28691   4.702   4.733   5.311
 3850SOL    HW128692   4.720   4.643   5.284
 3850SOL    HW228693   4.614   4.730   5.348
 3851SOL     OW28694   1.833   0.786   0.508
 3851SOL    HW128695   1.861   0.844   0.438
 3851SOL    HW228696   1.835   0.840   0.587
 3852SOL     OW28697   1.127   5.881   0.633
 3852SOL    HW128698   1.033   5.887   0.619
 3852SOL    HW228699   1.137   5.829   0.713
 3853SOL     OW28700   3.724   2.982   0.365
 3853SOL    HW128701   3.766   2.900   0.392
 3853SOL    HW228702   3.791   3.048   0.379
 3854SOL     OW28703   6.481   0.639   7.433
 3854SOL    HW128704   0.071   0.591   7.458
 3854SOL    HW228705   6.413   0.572   7.425
 3855SOL     OW28706   3.730   6.064   0.632
 3855SOL    HW128707   3.713   6.037   0.722
 3855SOL    HW228708   3.800   6.005   0.602
 3856SOL     OW28709   2.496   4.632   0.526
 3856SOL    HW128710   2.429   4.564   0.521
 3856SOL    HW228711   2.453   4.703   0.574
 3857SOL     OW28712   4.194   1.356   0.284
 3857SOL    HW128713   4.127   1.321   0.342
 3857SOL    HW228714   4.276   1.321   0.317
 3858SOL     OW28715   2.200   4.949   0.993
 3858SOL    HW128716   2.294   4.930   0.996
 3858SOL    HW228717   2.162   4.878   0.942
 3859SOL     OW28718   5.332   1.632   7.167
 3859SOL    HW128719   5.385   1.705   7.135
 3859SOL    HW228720   5.261   1.623   7.104
 3860SOL     OW28721   4.874   6.373   1.666
 3860SOL    HW128722   4.941   6.403   1.727
 3860SOL    HW228723   4.913   6.295   1.625
 3861SOL     OW28724   0.428   2.583   0.281
 3861SOL    HW128725   0.450   2.660   0.228
 3861SOL    HW228726   0.355   2.613   0.336
 3862SOL     OW28727   1.093   2.824   6.686
 3862SOL    HW128728   1.042   2.795   6.762
 3862SOL    HW228729   1.170   2.767   6.685
 3863SOL     OW28730   1.325   4.585   6.877
 3863SOL    HW128731   1.383   4.517   6.842
 3863SOL    HW228732   1.264   4.604   6.806
 3864SOL     OW28733   2.870   6.153   0.513
 3864SOL    HW128734   2.776   6.149   0.530
 3864SOL    HW228735   2.888   6.245   0.496
 3865SOL     OW28736   5.662   6.235   5.816
 3865SOL    HW128737   5.708   6.310   5.853
 3865SOL    HW228738   5.722   6.201   5.750
 3866SOL     OW28739   4.735   1.805   2.067
 3866SOL    HW128740   4.809   1.808   2.127
 3866SOL    HW228741   4.658   1.811   2.123
 3867SOL     OW28742   4.775   4.461   6.150
 3867SOL    HW128743   4.836   4.435   6.219
 3867SOL    HW228744   4.762   4.555   6.163
 3868SOL     OW28745   1.956   0.442   6.971
 3868SOL    HW128746   1.925   0.527   7.004
 3868SOL    HW228747   1.937   0.381   7.043
 3869SOL     OW28748   0.369   6.229   0.072
 3869SOL    HW128749   0.455   6.265   0.095
 3869SOL    HW228750   0.314   6.246   0.148
 3870SOL     OW28751   5.344   2.884   0.131
 3870SOL    HW128752   5.420   2.926   0.171
 3870SOL    HW228753   5.368   2.874   0.039
 3871SOL     OW28754   4.885   1.310   0.487
 3871SOL    HW128755   4.968   1.356   0.478
 3871SOL    HW228756   4.904   1.237   0.547
 3872SOL     OW28757   4.111   4.705   6.403
 3872SOL    HW128758   4.178   4.638   6.389
 3872SOL    HW228759   4.121   4.764   6.328
 3873SOL     OW28760   1.490   3.866   6.987
 3873SOL    HW128761   1.485   3.773   7.007
 3873SOL    HW228762   1.493   3.871   6.892
 3874SOL     OW28763   1.643   5.990   0.675
 3874SOL    HW128764   1.659   6.073   0.721
 3874SOL    HW228765   1.631   6.015   0.583
 3875SOL     OW28766   2.003   5.140   1.288
 3875SOL    HW128767   1.927   5.082   1.279
 3875SOL    HW228768   2.012   5.181   1.202
 3876SOL     OW28769   4.290   3.667   7.569
 3876SOL    HW128770   4.292   3.572   7.557
 3876SOL    HW228771   4.371   3.688   7.614
 3877SOL     OW28772   0.107   0.861   0.054
 3877SOL    HW128773   0.199   0.851   0.078
 3877SOL    HW228774   0.106   0.931   7.750
 3878SOL     OW28775   6.160   6.284   1.202
 3878SOL    HW128776   6.152   6.295   1.297
 3878SOL    HW228777   6.207   6.362   1.173
 3879SOL     OW28778   0.067   1.326   0.506
 3879SOL    HW128779   0.141   1.269   0.527
 3879SOL    HW228780   6.480   1.268   0.504
 3880SOL     OW28781   6.008   0.097   0.079
 3880SOL    HW128782   6.079   0.053   0.033
 3880SOL    HW228783   6.029   0.191   0.074
 3881SOL     OW28784   0.289   5.437   1.956
 3881SOL    HW128785   0.371   5.481   1.935
 3881SOL    HW228786   0.246   5.423   1.871
 3882SOL     OW28787   2.644   3.942   7.343
 3882SOL    HW128788   2.585   3.993   7.398
 3882SOL    HW228789   2.588   3.877   7.301
 3883SOL     OW28790   3.802   6.422   0.047
 3883SOL    HW128791   3.768   6.332   0.051
 3883SOL    HW228792   3.893   6.412   0.018
 3884SOL     OW28793   0.710   4.484   1.583
 3884SOL    HW128794   0.731   4.514   1.671
 3884SOL    HW228795   0.770   4.533   1.526
 3885SOL     OW28796   3.405   4.136   6.769
 3885SOL    HW128797   3.421   4.174   6.682
 3885SOL    HW228798   3.492   4.130   6.809
 3886SOL     OW28799   6.292   3.331   1.390
 3886SOL    HW128800   6.358   3.263   1.402
 3886SOL    HW228801   6.341   3.407   1.357
 3887SOL     OW28802   4.845   1.323   6.137
 3887SOL    HW128803   4.923   1.290   6.092
 3887SOL    HW228804   4.772   1.290   6.085
 3888SOL     OW28805   5.491   1.283   2.277
 3888SOL    HW128806   5.415   1.337   2.257
 3888SOL    HW228807   5.556   1.345   2.311
 3889SOL     OW28808   3.373   4.344   1.046
 3889SOL    HW128809   3.446   4.326   0.987
 3889SOL    HW228810   3.413   4.356   1.132
 3890SOL     OW28811   2.649   0.830   5.131
 3890SOL    HW128812   2.554   0.839   5.135
 3890SOL    HW228813   2.680   0.877   5.208
 3891SOL     OW28814   0.934   2.425   1.649
 3891SOL    HW128815   0.858   2.369   1.631
 3891SOL    HW228816   0.988   2.372   1.708
 3892SOL     OW28817   0.462   0.999   0.328
 3892SOL    HW128818   0.432   1.087   0.305
 3892SOL    HW228819   0.500   1.008   0.415
 3893SOL     OW28820   4.407   3.304   1.541
 3893SOL    HW128821   4.395   3.226   1.487
 3893SOL    HW228822   4.501   3.317   1.546
 3894SOL     OW28823   0.477   1.507   5.979
 3894SOL    HW128824   0.447   1.546   5.897
 3894SOL    HW228825   0.569   1.486   5.963
 3895SOL     OW28826   3.558   4.580   5.655
 3895SOL    HW128827   3.499   4.649   5.687
 3895SOL    HW228828   3.610   4.624   5.588
 3896SOL     OW28829   1.314   5.278   0.831
 3896SOL    HW128830   1.362   5.236   0.902
 3896SOL    HW228831   1.371   5.350   0.803
 3897SOL     OW28832   1.131   0.418   0.915
 3897SOL    HW128833   1.055   0.435   0.971
 3897SOL    HW228834   1.100   0.433   0.826
 3898SOL     OW28835   3.661   0.123   0.173
 3898SOL    HW128836   3.725   0.069   0.127
 3898SOL    HW228837   3.708   0.157   0.249
 3899SOL     OW28838   1.151   5.334   5.448
 3899SOL    HW128839   1.148   5.424   5.416
 3899SOL    HW228840   1.224   5.332   5.509
 3900SOL     OW28841   2.300   3.793   6.271
 3900SOL    HW128842   2.329   3.730   6.206
 3900SOL    HW228843   2.213   3.761   6.298
 3901SOL     OW28844   1.370   2.844   1.582
 3901SOL    HW128845   1.291   2.891   1.608
 3901SOL    HW228846   1.414   2.903   1.521
 3902SOL     OW28847   5.999   4.961   7.585
 3902SOL    HW128848   5.943   4.897   7.629
 3902SOL    HW228849   5.951   4.984   7.506
 3903SOL     OW28850   1.302   5.533   7.233
 3903SOL    HW128851   1.363   5.605   7.219
 3903SOL    HW228852   1.225   5.573   7.273
 3904SOL     OW28853   6.139   2.977   6.673
 3904SOL    HW128854   6.190   2.940   6.601
 3904SOL    HW228855   6.196   3.044   6.711
 3905SOL     OW28856   6.259   2.605   2.444
 3905SOL    HW128857   6.186   2.668   2.443
 3905SOL    HW228858   6.220   2.523   2.415
 3906SOL     OW28859   6.274   2.329   0.269
 3906SOL    HW128860   6.334   2.264   0.231
 3906SOL    HW228861   6.187   2.295   0.249
 3907SOL     OW28862   5.294   5.379   1.766
 3907SOL    HW128863   5.220   5.380   1.704
 3907SOL    HW228864   5.252   5.376   1.852
 3908SOL     OW28865   0.370   5.727   6.512
 3908SOL    HW128866   0.380   5.654   6.450
 3908SOL    HW228867   0.416   5.800   6.471
 3909SOL     OW28868   3.046   3.466   6.979
 3909SOL    HW128869   3.040   3.556   6.948
 3909SOL    HW228870   3.121   3.430   6.931
 3910SOL     OW28871   1.164   2.107   7.749
 3910SOL    HW128872   1.081   2.154   7.744
 3910SOL    HW228873   1.174   2.067   7.663
 3911SOL     OW28874   0.381   4.833   7.011
 3911SOL    HW128875   0.422   4.748   6.993
 3911SOL    HW228876   0.287   4.814   7.013
 3912SOL     OW28877   5.819   2.742   7.398
 3912SOL    HW128878   5.891   2.750   7.460
 3912SOL    HW228879   5.818   2.825   7.351
 3913SOL     OW28880   5.995   6.448   5.817
 3913SOL    HW128881   5.920   0.015   5.793
 3913SOL    HW228882   6.016   6.400   5.737
 3914SOL     OW28883   5.266   5.984   7.015
 3914SOL    HW128884   5.191   6.037   7.040
 3914SOL    HW228885   5.248   5.897   7.051
 3915SOL     OW28886   0.264   4.423   6.446
 3915SOL    HW128887   0.337   4.401   6.387
 3915SOL    HW228888   0.222   4.498   6.404
 3916SOL     OW28889   3.696   0.852   0.714
 3916SOL    HW128890   3.687   0.845   0.619
 3916SOL    HW228891   3.625   0.911   0.740
 3917SOL     OW28892   4.445   0.818   0.335
 3917SOL    HW128893   4.497   0.744   0.365
 3917SOL    HW228894   4.510   0.880   0.299
 3918SOL     OW28895   3.479   3.640   7.185
 3918SOL    HW128896   3.508   3.570   7.127
 3918SOL    HW228897   3.477   3.718   7.130
 3919SOL     OW28898   1.839   0.858   6.844
 3919SOL    HW128899   1.842   0.866   6.749
 3919SOL    HW228900   1.758   0.902   6.870
 3920SOL     OW28901   3.896   2.254   0.773
 3920SOL    HW128902   3.821   2.202   0.803
 3920SOL    HW228903   3.870   2.345   0.787
 3921SOL     OW28904   4.502   1.976   6.110
 3921SOL    HW128905   4.462   1.907   6.164
 3921SOL    HW228906   4.433   1.999   6.047
 3922SOL     OW28907   0.383   2.893   7.428
 3922SOL    HW128908   0.379   2.812   7.479
 3922SOL    HW228909   0.416   2.865   7.342
 3923SOL     OW28910   5.465   1.836   7.029
 3923SOL    HW128911   5.544   1.787   7.006
 3923SOL    HW228912   5.431   1.869   6.946
 3924SOL     OW28913   1.265   5.139   1.758
 3924SOL    HW128914   1.184   5.138   1.706
 3924SOL    HW228915   1.240   5.181   1.840
 3925SOL     OW28916   2.316   5.087   6.930
 3925SOL    HW128917   2.294   5.084   6.837
 3925SOL    HW228918   2.250   5.144   6.969
 3926SOL     OW28919   2.818   0.737   6.155
 3926SOL    HW128920   2.728   0.767   6.171
 3926SOL    HW228921   2.807   0.656   6.105
 3927SOL     OW28922   5.054   4.181   6.117
 3927SOL    HW128923   4.999   4.125   6.061
 3927SOL    HW228924   5.098   4.240   6.055
 3928SOL     OW28925   3.528   0.380   1.666
 3928SOL    HW128926   3.458   0.354   1.605
 3928SOL    HW228927   3.495   0.459   1.708
 3929SOL     OW28928   0.909   2.213   7.309
 3929SOL    HW128929   0.833   2.270   7.324
 3929SOL    HW228930   0.871   2.126   7.296
 3930SOL     OW28931   1.920   1.150   5.919
 3930SOL    HW128932   1.858   1.080   5.939
 3930SOL    HW228933   1.937   1.192   6.003
 3931SOL     OW28934   3.299   0.478   0.402
 3931SOL    HW128935   3.260   0.497   0.488
 3931SOL    HW228936   3.379   0.530   0.401
 3932SOL     OW28937   5.792   0.540   0.297
 3932SOL    HW128938   5.847   0.615   0.275
 3932SOL    HW228939   5.739   0.526   0.218
 3933SOL     OW28940   3.619   5.504   4.956
 3933SOL    HW128941   3.587   5.444   4.889
 3933SOL    HW228942   3.706   5.470   4.978
 3934SOL     OW28943   5.668   6.002   6.360
 3934SOL    HW128944   5.584   6.045   6.353
 3934SOL    HW228945   5.695   5.985   6.269
 3935SOL     OW28946   1.682   4.067   6.832
 3935SOL    HW128947   1.747   4.047   6.900
 3935SOL    HW228948   1.706   4.155   6.802
 3936SOL     OW28949   5.065   5.581   6.779
 3936SOL    HW128950   5.015   5.639   6.837
 3936SOL    HW228951   5.049   5.493   6.814
 3937SOL     OW28952   2.461   1.830   7.579
 3937SOL    HW128953   2.378   1.831   7.533
 3937SOL    HW228954   2.522   1.789   7.518
 3938SOL     OW28955   4.231   3.411   6.004
 3938SOL    HW128956   4.270   3.414   6.091
 3938SOL    HW228957   4.137   3.404   6.019
 3939SOL     OW28958   3.633   4.352   6.790
 3939SOL    HW128959   3.574   4.300   6.845
 3939SOL    HW228960   3.670   4.417   6.851
 3940SOL     OW28961   4.047   5.359   5.438
 3940SOL    HW128962   4.083   5.430   5.385
 3940SOL    HW228963   4.008   5.299   5.374
 3941SOL     OW28964   2.037   5.483   5.704
 3941SOL    HW128965   2.003   5.528   5.626
 3941SOL    HW228966   2.013   5.540   5.777
 3942SOL     OW28967   0.458   4.507   1.006
 3942SOL    HW128968   0.517   4.560   1.059
 3942SOL    HW228969   0.493   4.418   1.012
 3943SOL     OW28970   6.140   5.459   0.331
 3943SOL    HW128971   6.094   5.542   0.344
 3943SOL    HW228972   6.231   5.484   0.315
 3944SOL     OW28973   0.184   1.023   6.924
 3944SOL    HW128974   0.153   1.102   6.969
 3944SOL    HW228975   0.139   0.951   6.967
 3945SOL     OW28976   5.196   1.718   5.679
 3945SOL    HW128977   5.200   1.702   5.584
 3945SOL    HW228978   5.141   1.795   5.688
 3946SOL     OW28979   2.417   0.361   0.382
 3946SOL    HW128980   2.403   0.309   0.460
 3946SOL    HW228981   2.444   0.447   0.415
 3947SOL     OW28982   1.154   0.355   2.083
 3947SOL    HW128983   1.197   0.352   2.169
 3947SOL    HW228984   1.070   0.397   2.100
 3948SOL     OW28985   1.286   1.530   7.183
 3948SOL    HW128986   1.324   1.553   7.268
 3948SOL    HW228987   1.253   1.441   7.195
 3949SOL     OW28988   5.866   5.499   1.587
 3949SOL    HW128989   5.847   5.447   1.665
 3949SOL    HW228990   5.909   5.578   1.621
 3950SOL     OW28991   4.647   3.472   6.179
 3950SOL    HW128992   4.557   3.492   6.205
 3950SOL    HW228993   4.689   3.439   6.258
 3951SOL     OW28994   2.804   0.978   7.613
 3951SOL    HW128995   2.868   0.970   7.683
 3951SOL    HW228996   2.812   0.896   7.564
 3952SOL     OW28997   3.988   4.223   7.406
 3952SOL    HW128998   4.042   4.167   7.350
 3952SOL    HW228999   3.973   4.170   7.484
 3953SOL     OW29000   0.450   4.647   1.725
 3953SOL    HW129001   0.494   4.716   1.676
 3953SOL    HW229002   0.501   4.637   1.805
 3954SOL     OW29003   1.345   0.555   5.686
 3954SOL    HW129004   1.290   0.496   5.635
 3954SOL    HW229005   1.297   0.567   5.768
 3955SOL     OW29006   1.206   5.355   1.375
 3955SOL    HW129007   1.165   5.410   1.442
 3955SOL    HW229008   1.136   5.297   1.345
 3956SOL     OW29009   4.429   1.394   7.131
 3956SOL    HW129010   4.477   1.317   7.161
 3956SOL    HW229011   4.496   1.463   7.125
 3957SOL     OW29012   1.451   0.898   7.426
 3957SOL    HW129013   1.428   0.948   7.504
 3957SOL    HW229014   1.503   0.824   7.459
 3958SOL     OW29015   3.501   3.445   1.370
 3958SOL    HW129016   3.420   3.419   1.327
 3958SOL    HW229017   3.515   3.378   1.437
 3959SOL     OW29018   3.932   1.200   1.358
 3959SOL    HW129019   3.930   1.112   1.320
 3959SOL    HW229020   3.992   1.192   1.432
 3960SOL     OW29021   3.394   0.077   0.153
 3960SOL    HW129022   3.356   0.143   0.096
 3960SOL    HW229023   3.489   0.086   0.142
 3961SOL     OW29024   5.269   1.064   7.639
 3961SOL    HW129025   5.257   1.150   7.600
 3961SOL    HW229026   5.206   1.008   7.594
 3962SOL     OW29027   4.523   3.681   7.716
 3962SOL    HW129028   4.552   3.590   7.726
 3962SOL    HW229029   4.558   3.726   0.031
 3963SOL     OW29030   0.038   5.781   6.106
 3963SOL    HW129031   6.434   5.769   6.087
 3963SOL    HW229032   0.057   5.716   6.174
 3964SOL     OW29033   0.967   2.817   1.981
 3964SOL    HW129034   0.979   2.879   1.910
 3964SOL    HW229035   1.049   2.820   2.030
 3965SOL     OW29036   1.423   3.631   6.252
 3965SOL    HW129037   1.484   3.705   6.262
 3965SOL    HW229038   1.375   3.629   6.335
 3966SOL     OW29039   0.538   2.779   0.116
 3966SOL    HW129040   0.555   2.865   0.076
 3966SOL    HW229041   0.614   2.764   0.172
 3967SOL     OW29042   5.011   4.400   0.511
 3967SOL    HW129043   4.993   4.463   0.581
 3967SOL    HW229044   4.927   4.356   0.496
 3968SOL     OW29045   5.459   6.145   7.109
 3968SOL    HW129046   5.546   6.105   7.101
 3968SOL    HW229047   5.399   6.078   7.076
 3969SOL     OW29048   3.076   6.303   1.677
 3969SOL    HW129049   3.143   6.251   1.632
 3969SOL    HW229050   3.083   6.390   1.637
 3970SOL     OW29051   6.030   2.540   1.923
 3970SOL    HW129052   6.074   2.581   1.998
 3970SOL    HW229053   5.955   2.494   1.961
 3971SOL     OW29054   1.280   0.588   1.545
 3971SOL    HW129055   1.333   0.648   1.596
 3971SOL    HW229056   1.241   0.642   1.476
 3972SOL     OW29057   0.828   6.476   7.235
 3972SOL    HW129058   0.880   6.427   7.299
 3972SOL    HW229059   0.864   0.076   7.238
 3973SOL     OW29060   6.010   2.454   7.668
 3973SOL    HW129061   6.018   2.384   7.733
 3973SOL    HW229062   6.095   2.499   7.671
 3974SOL     OW29063   2.758   0.218   6.680
 3974SOL    HW129064   2.672   0.178   6.668
 3974SOL    HW229065   2.797   0.218   6.593
 3975SOL     OW29066   3.386   3.471   7.438
 3975SOL    HW129067   3.361   3.536   7.373
 3975SOL    HW229068   3.336   3.393   7.414
 3976SOL     OW29069   4.944   0.286   6.775
 3976SOL    HW129070   4.968   0.265   6.685
 3976SOL    HW229071   4.947   0.382   6.779
 3977SOL     OW29072   0.173   2.313   0.060
 3977SOL    HW129073   0.230   2.323   7.744
 3977SOL    HW229074   0.233   2.298   0.132
 3978SOL     OW29075   2.919   0.229   6.937
 3978SOL    HW129076   2.929   0.134   6.930
 3978SOL    HW229077   2.844   0.250   6.881
 3979SOL     OW29078   2.108   5.223   5.529
 3979SOL    HW129079   2.109   5.127   5.532
 3979SOL    HW229080   2.176   5.249   5.591
 3980SOL     OW29081   4.549   2.085   0.580
 3980SOL    HW129082   4.478   2.106   0.519
 3980SOL    HW229083   4.509   2.089   0.667
 3981SOL     OW29084   6.385   2.232   1.858
 3981SOL    HW129085   6.391   2.319   1.820
 3981SOL    HW229086   6.476   2.204   1.869
 3982SOL     OW29087   5.211   1.920   0.765
 3982SOL    HW129088   5.157   1.895   0.690
 3982SOL    HW229089   5.155   1.976   0.818
 3983SOL     OW29090   5.128   1.435   0.403
 3983SOL    HW129091   5.101   1.527   0.403
 3983SOL    HW229092   5.210   1.435   0.353
 3984SOL     OW29093   5.434   5.035   6.476
 3984SOL    HW129094   5.485   4.954   6.474
 3984SOL    HW229095   5.349   5.011   6.441
 3985SOL     OW29096   2.009   5.600   0.485
 3985SOL    HW129097   1.995   5.692   0.504
 3985SOL    HW229098   1.959   5.584   0.405
 3986SOL     OW29099   1.133   0.249   0.416
 3986SOL    HW129100   1.200   0.185   0.439
 3986SOL    HW229101   1.052   0.198   0.413
 3987SOL     OW29102   5.184   5.411   5.233
 3987SOL    HW129103   5.219   5.399   5.144
 3987SOL    HW229104   5.118   5.479   5.223
 3988SOL     OW29105   5.965   3.610   0.951
 3988SOL    HW129106   5.871   3.617   0.970
 3988SOL    HW229107   5.994   3.534   1.001
 3989SOL     OW29108   6.098   5.006   0.493
 3989SOL    HW129109   6.018   4.953   0.492
 3989SOL    HW229110   6.168   4.943   0.509
 3990SOL     OW29111   5.993   5.087   6.995
 3990SOL    HW129112   5.945   5.004   7.002
 3990SOL    HW229113   6.078   5.061   6.959
 3991SOL     OW29114   6.431   2.163   0.118
 3991SOL    HW129115   0.029   2.203   0.115
 3991SOL    HW229116   6.408   2.151   0.026
 3992SOL     OW29117   3.461   0.371   1.266
 3992SOL    HW129118   3.530   0.333   1.321
 3992SOL    HW229119   3.418   0.434   1.324
 3993SOL     OW29120   5.098   3.151   6.881
 3993SOL    HW129121   5.046   3.085   6.928
 3993SOL    HW229122   5.071   3.234   6.921
 3994SOL     OW29123   4.031   5.990   6.569
 3994SOL    HW129124   4.057   5.903   6.600
 3994SOL    HW229125   3.973   6.023   6.638
 3995SOL     OW29126   1.512   6.305   1.607
 3995SOL    HW129127   1.511   6.285   1.513
 3995SOL    HW229128   1.424   6.284   1.637
 3996SOL     OW29129   3.398   0.854   0.749
 3996SOL    HW129130   3.351   0.918   0.803
 3996SOL    HW229131   3.432   0.790   0.811
 3997SOL     OW29132   3.056   1.975   7.220
 3997SOL    HW129133   3.108   1.907   7.263
 3997SOL    HW229134   2.975   1.931   7.196
 3998SOL     OW29135   3.266   5.719   1.475
 3998SOL    HW129136   3.263   5.814   1.466
 3998SOL    HW229137   3.326   5.690   1.406
 3999SOL     OW29138   1.580   4.307   7.487
 3999SOL    HW129139   1.496   4.353   7.479
 3999SOL    HW229140   1.556   4.216   7.501
 4000SOL     OW29141   5.055   6.380   0.044
 4000SOL    HW129142   5.009   6.364   7.724
 4000SOL    HW229143   5.118   6.449   0.023
 4001SOL     OW29144   3.091   5.596   6.979
 4001SOL    HW129145   3.098   5.500   6.980
 4001SOL    HW229146   3.098   5.621   7.071
 4002SOL     OW29147   5.377   1.201   5.999
 4002SOL    HW129148   5.412   1.287   5.974
 4002SOL    HW229149   5.424   1.139   5.942
 4003SOL     OW29150   2.343   6.163   6.306
 4003SOL    HW129151   2.325   6.223   6.234
 4003SOL    HW229152   2.284   6.191   6.376
 4004SOL     OW29153   5.587   2.703   6.134
 4004SOL    HW129154   5.520   2.756   6.090
 4004SOL    HW229155   5.583   2.618   6.090
 4005SOL     OW29156   0.458   3.976   6.187
 4005SOL    HW129157   0.500   4.000   6.270
 4005SOL    HW229158   0.528   3.935   6.137
 4006SOL     OW29159   2.281   4.102   0.662
 4006SOL    HW129160   2.351   4.145   0.611
 4006SOL    HW229161   2.311   4.107   0.753
 4007SOL     OW29162   5.461   5.288   6.397
 4007SOL    HW129163   5.531   5.339   6.436
 4007SOL    HW229164   5.464   5.204   6.443
 4008SOL     OW29165   4.584   5.711   0.376
 4008SOL    HW129166   4.504   5.660   0.383
 4008SOL    HW229167   4.655   5.646   0.376
 4009SOL     OW29168   1.631   3.301   1.671
 4009SOL    HW129169   1.720   3.264   1.674
 4009SOL    HW229170   1.601   3.296   1.761
 4010SOL     OW29171   0.184   0.447   7.432
 4010SOL    HW129172   0.271   0.485   7.433
 4010SOL    HW229173   0.190   0.373   7.372
 4011SOL     OW29174   0.165   0.220   2.185
 4011SOL    HW129175   0.082   0.265   2.205
 4011SOL    HW229176   0.174   0.154   2.254
 4012SOL     OW29177   3.450   5.361   7.106
 4012SOL    HW129178   3.438   5.390   7.015
 4012SOL    HW229179   3.387   5.290   7.117
 4013SOL     OW29180   5.392   1.227   0.888
 4013SOL    HW129181   5.476   1.259   0.856
 4013SOL    HW229182   5.349   1.305   0.925
 4014SOL     OW29183   4.271   2.998   1.627
 4014SOL    HW129184   4.333   3.039   1.687
 4014SOL    HW229185   4.300   3.026   1.540
 4015SOL     OW29186   4.398   0.446   7.232
 4015SOL    HW129187   4.482   0.426   7.193
 4015SOL    HW229188   4.386   0.380   7.301
 4016SOL     OW29189   5.687   0.166   6.841
 4016SOL    HW129190   5.704   0.072   6.832
 4016SOL    HW229191   5.697   0.201   6.753
 4017SOL     OW29192   6.112   4.161   0.664
 4017SOL    HW129193   6.023   4.128   0.653
 4017SOL    HW229194   6.119   4.180   0.757
 4018SOL     OW29195   3.884   3.450   2.084
 4018SOL    HW129196   3.816   3.512   2.109
 4018SOL    HW229197   3.853   3.365   2.117
 4019SOL     OW29198   3.292   4.969   7.424
 4019SOL    HW129199   3.310   4.894   7.481
 4019SOL    HW229200   3.213   5.009   7.461
 4020SOL     OW29201   1.144   5.822   6.635
 4020SOL    HW129202   1.050   5.805   6.635
 4020SOL    HW229203   1.174   5.789   6.720
 4021SOL     OW29204   0.184   4.952   6.750
 4021SOL    HW129205   0.236   4.994   6.818
 4021SOL    HW229206   0.228   4.868   6.733
 4022SOL     OW29207   4.313   0.060   6.120
 4022SOL    HW129208   4.404   0.079   6.097
 4022SOL    HW229209   4.263   0.077   6.040
 4023SOL     OW29210   1.083   6.215   6.398
 4023SOL    HW129211   1.063   6.300   6.361
 4023SOL    HW229212   1.084   6.229   6.493
 4024SOL     OW29213   2.624   2.279   5.941
 4024SOL    HW129214   2.608   2.198   5.990
 4024SOL    HW229215   2.605   2.256   5.850
 4025SOL     OW29216   3.156   1.801   7.610
 4025SOL    HW129217   3.225   1.759   7.661
 4025SOL    HW229218   3.084   1.738   7.610
 4026SOL     OW29219   1.820   6.072   0.409
 4026SOL    HW129220   1.756   6.143   0.403
 4026SOL    HW229221   1.836   6.046   0.319
 4027SOL     OW29222   6.225   5.862   6.319
 4027SOL    HW129223   6.232   5.841   6.226
 4027SOL    HW229224   6.143   5.909   6.328
 4028SOL     OW29225   5.268   3.419   0.842
 4028SOL    HW129226   5.232   3.391   0.758
 4028SOL    HW229227   5.345   3.472   0.820
 4029SOL     OW29228   4.366   0.811   5.660
 4029SOL    HW129229   4.404   0.725   5.644
 4029SOL    HW229230   4.414   0.870   5.602
 4030SOL     OW29231   0.292   0.331   6.422
 4030SOL    HW129232   0.266   0.241   6.443
 4030SOL    HW229233   0.312   0.328   6.328
 4031SOL     OW29234   1.032   6.402   1.687
 4031SOL    HW129235   1.111   6.402   1.742
 4031SOL    HW229236   1.023   0.005   1.658
 4032SOL     OW29237   4.649   2.453   6.288
 4032SOL    HW129238   4.646   2.369   6.243
 4032SOL    HW229239   4.561   2.488   6.280
 4033SOL     OW29240   6.267   0.654   6.904
 4033SOL    HW129241   6.304   0.658   6.816
 4033SOL    HW229242   6.280   0.742   6.939
 4034SOL     OW29243   5.580   2.242   1.493
 4034SOL    HW129244   5.547   2.226   1.405
 4034SOL    HW229245   5.538   2.176   1.548
 4035SOL     OW29246   0.029   2.090   0.823
 4035SOL    HW129247   0.045   2.152   0.894
 4035SOL    HW229248   0.053   2.005   0.860
 4036SOL     OW29249   5.268   2.596   0.760
 4036SOL    HW129250   5.242   2.678   0.801
 4036SOL    HW229251   5.303   2.622   0.674
 4037SOL     OW29252   1.894   1.914   6.994
 4037SOL    HW129253   1.835   1.965   7.049
 4037SOL    HW229254   1.881   1.948   6.906
 4038SOL     OW29255   5.297   4.975   1.016
 4038SOL    HW129256   5.329   5.059   0.981
 4038SOL    HW229257   5.340   4.967   1.101
 4039SOL     OW29258   5.467   1.508   6.156
 4039SOL    HW129259   5.469   1.475   6.066
 4039SOL    HW229260   5.557   1.536   6.173
 4040SOL     OW29261   2.299   4.553   6.289
 4040SOL    HW129262   2.312   4.533   6.196
 4040SOL    HW229263   2.273   4.470   6.329
 4041SOL     OW29264   4.921   0.114   5.579
 4041SOL    HW129265   5.008   0.095   5.615
 4041SOL    HW229266   4.874   0.031   5.585
 4042SOL     OW29267   3.752   4.704   5.488
 4042SOL    HW129268   3.840   4.736   5.508
 4042SOL    HW229269   3.765   4.612   5.462
 4043SOL     OW29270   3.873   2.988   7.351
 4043SOL    HW129271   3.809   3.056   7.372
 4043SOL    HW229272   3.836   2.943   7.275
 4044SOL     OW29273   1.404   5.826   7.282
 4044SOL    HW129274   1.494   5.811   7.253
 4044SOL    HW229275   1.405   5.915   7.317
 4045SOL     OW29276   0.659   0.176   1.290
 4045SOL    HW129277   0.753   0.189   1.277
 4045SOL    HW229278   0.641   0.218   1.375
 4046SOL     OW29279   6.475   4.884   6.474
 4046SOL    HW129280   6.425   4.961   6.500
 4046SOL    HW229281   0.002   4.836   6.555
 4047SOL     OW29282   4.147   5.033   1.136
 4047SOL    HW129283   4.148   5.122   1.101
 4047SOL    HW229284   4.172   4.977   1.062
 4048SOL     OW29285   4.969   3.987   5.942
 4048SOL    HW129286   4.941   4.019   5.857
 4048SOL    HW229287   5.007   3.901   5.925
 4049SOL     OW29288   5.777   5.001   0.490
 4049SOL    HW129289   5.810   4.970   0.574
 4049SOL    HW229290   5.691   4.960   0.481
 4050SOL     OW29291   1.443   4.020   0.973
 4050SOL    HW129292   1.441   3.977   0.887
 4050SOL    HW229293   1.352   4.017   1.003
 4051SOL     OW29294   4.226   3.856   6.269
 4051SOL    HW129295   4.313   3.872   6.306
 4051SOL    HW229296   4.220   3.915   6.194
 4052SOL     OW29297   4.183   6.176   6.998
 4052SOL    HW129298   4.208   6.181   6.906
 4052SOL    HW229299   4.152   6.264   7.019
 4053SOL     OW29300   5.350   5.680   0.606
 4053SOL    HW129301   5.342   5.643   0.518
 4053SOL    HW229302   5.435   5.723   0.607
 4054SOL     OW29303   5.103   2.948   1.517
 4054SOL    HW129304   5.192   2.963   1.485
 4054SOL    HW229305   5.061   3.034   1.512
 4055SOL     OW29306   1.485   3.344   6.421
 4055SOL    HW129307   1.404   3.329   6.469
 4055SOL    HW229308   1.510   3.434   6.444
 4056SOL     OW29309   3.405   2.620   1.252
 4056SOL    HW129310   3.428   2.571   1.332
 4056SOL    HW229311   3.310   2.632   1.258
 4057SOL     OW29312   2.901   5.814   7.302
 4057SOL    HW129313   2.866   5.850   7.383
 4057SOL    HW229314   2.824   5.792   7.250
 4058SOL     OW29315   1.561   3.253   1.935
 4058SOL    HW129316   1.628   3.290   1.993
 4058SOL    HW229317   1.532   3.173   1.980
 4059SOL     OW29318   2.608   4.731   7.147
 4059SOL    HW129319   2.659   4.742   7.227
 4059SOL    HW229320   2.545   4.803   7.149
 4060SOL     OW29321   0.250   4.403   0.091
 4060SOL    HW129322   0.267   4.323   0.140
 4060SOL    HW229323   0.281   4.385   0.003
 4061SOL     OW29324   6.208   0.124   0.724
 4061SOL    HW129325   6.236   0.155   0.810
 4061SOL    HW229326   6.128   0.172   0.705
 4062SOL     OW29327   0.613   4.740   0.625
 4062SOL    HW129328   0.687   4.786   0.587
 4062SOL    HW229329   0.539   4.764   0.569
 4063SOL     OW29330   1.541   4.901   7.655
 4063SOL    HW129331   1.562   4.981   7.704
 4063SOL    HW229332   1.610   4.840   7.679
 4064SOL     OW29333   0.265   2.498   7.122
 4064SOL    HW129334   0.205   2.464   7.189
 4064SOL    HW229335   0.323   2.425   7.102
 4065SOL     OW29336   3.473   5.739   1.286
 4065SOL    HW129337   3.414   5.803   1.247
 4065SOL    HW229338   3.534   5.792   1.337
 4066SOL     OW29339   0.861   1.696   2.017
 4066SOL    HW129340   0.950   1.709   1.984
 4066SOL    HW229341   0.842   1.776   2.067
 4067SOL     OW29342   3.154   3.744   0.229
 4067SOL    HW129343   3.060   3.727   0.230
 4067SOL    HW229344   3.162   3.839   0.236
 4068SOL     OW29345   5.497   3.316   1.488
 4068SOL    HW129346   5.515   3.344   1.578
 4068SOL    HW229347   5.583   3.313   1.446
 4069SOL     OW29348   3.662   0.066   5.837
 4069SOL    HW129349   3.727   0.097   5.774
 4069SOL    HW229350   3.635   6.469   5.804
 4070SOL     OW29351   0.202   4.620   1.215
 4070SOL    HW129352   0.272   4.564   1.247
 4070SOL    HW229353   0.153   4.644   1.294
 4071SOL     OW29354   1.707   4.150   1.706
 4071SOL    HW129355   1.664   4.178   1.625
 4071SOL    HW229356   1.635   4.135   1.767
 4072SOL     OW29357   5.180   4.013   0.653
 4072SOL    HW129358   5.106   4.031   0.595
 4072SOL    HW229359   5.150   3.940   0.708
 4073SOL     OW29360   5.905   0.828   6.112
 4073SOL    HW129361   5.938   0.917   6.101
 4073SOL    HW229362   5.817   0.830   6.076
 4074SOL     OW29363   1.773   5.271   0.300
 4074SOL    HW129364   1.708   5.272   0.229
 4074SOL    HW229365   1.747   5.344   0.356
 4075SOL     OW29366   0.171   5.103   0.467
 4075SOL    HW129367   0.118   5.124   0.390
 4075SOL    HW229368   0.135   5.159   0.536
 4076SOL     OW29369   6.377   3.637   0.179
 4076SOL    HW129370   6.297   3.688   0.190
 4076SOL    HW229371   6.448   3.700   0.193
 4077SOL     OW29372   0.964   3.584   5.909
 4077SOL    HW129373   0.989   3.670   5.876
 4077SOL    HW229374   0.954   3.530   5.831
 4078SOL     OW29375   1.935   1.477   1.928
 4078SOL    HW129376   1.999   1.493   1.998
 4078SOL    HW229377   1.926   1.382   1.924
 4079SOL     OW29378   2.790   2.702   1.785
 4079SOL    HW129379   2.819   2.653   1.862
 4079SOL    HW229380   2.817   2.792   1.802
 4080SOL     OW29381   1.929   1.960   7.365
 4080SOL    HW129382   1.984   1.947   7.288
 4080SOL    HW229383   1.988   1.952   7.440
 4081SOL     OW29384   4.882   3.182   7.086
 4081SOL    HW129385   4.869   3.133   7.004
 4081SOL    HW229386   4.829   3.136   7.150
 4082SOL     OW29387   2.586   3.600   0.713
 4082SOL    HW129388   2.652   3.653   0.757
 4082SOL    HW229389   2.527   3.663   0.673
 4083SOL     OW29390   6.485   5.434   6.964
 4083SOL    HW129391   6.466   5.484   7.044
 4083SOL    HW229392   0.040   5.355   6.995
 4084SOL     OW29393   3.050   5.823   5.493
 4084SOL    HW129394   3.141   5.834   5.465
 4084SOL    HW229395   3.022   5.910   5.520
 4085SOL     OW29396   3.280   0.840   6.505
 4085SOL    HW129397   3.202   0.786   6.518
 4085SOL    HW229398   3.353   0.778   6.507
 4086SOL     OW29399   2.996   4.194   1.162
 4086SOL    HW129400   3.039   4.279   1.170
 4086SOL    HW229401   2.944   4.186   1.242
 4087SOL     OW29402   2.051   2.105   1.229
 4087SOL    HW129403   2.050   2.055   1.148
 4087SOL    HW229404   2.077   2.043   1.296
 4088SOL     OW29405   4.816   5.774   1.189
 4088SOL    HW129406   4.892   5.782   1.131
 4088SOL    HW229407   4.853   5.773   1.278
 4089SOL     OW29408   3.427   1.728   1.173
 4089SOL    HW129409   3.476   1.691   1.247
 4089SOL    HW229410   3.336   1.724   1.201
 4090SOL     OW29411   3.577   6.241   1.525
 4090SOL    HW129412   3.571   6.197   1.440
 4090SOL    HW229413   3.551   6.175   1.589
 4091SOL     OW29414   0.127   3.548   1.122
 4091SOL    HW129415   0.178   3.468   1.105
 4091SOL    HW229416   0.192   3.618   1.123
 4092SOL     OW29417   0.622   5.351   0.641
 4092SOL    HW129418   0.538   5.391   0.619
 4092SOL    HW229419   0.634   5.284   0.573
 4093SOL     OW29420   0.883   1.461   0.803
 4093SOL    HW129421   0.900   1.545   0.845
 4093SOL    HW229422   0.917   1.471   0.714
 4094SOL     OW29423   4.908   2.832   0.409
 4094SOL    HW129424   4.902   2.783   0.327
 4094SOL    HW229425   4.834   2.801   0.461
 4095SOL     OW29426   3.120   3.395   0.347
 4095SOL    HW129427   3.186   3.461   0.328
 4095SOL    HW229428   3.044   3.444   0.376
 4096SOL     OW29429   6.135   4.615   7.307
 4096SOL    HW129430   6.184   4.583   7.383
 4096SOL    HW229431   6.043   4.595   7.327
 4097SOL     OW29432   5.801   0.300   5.927
 4097SOL    HW129433   5.896   0.312   5.934
 4097SOL    HW229434   5.766   0.330   6.011
 4098SOL     OW29435   5.675   1.755   1.263
 4098SOL    HW129436   5.625   1.724   1.339
 4098SOL    HW229437   5.757   1.706   1.267
 4099SOL     OW29438   6.387   3.070   7.489
 4099SOL    HW129439   6.470   3.031   7.460
 4099SOL    HW229440   6.413   3.135   7.554
 4100SOL     OW29441   2.932   2.687   1.535
 4100SOL    HW129442   2.900   2.661   1.621
 4100SOL    HW229443   2.926   2.607   1.483
 4101SOL     OW29444   0.883   5.757   5.170
 4101SOL    HW129445   0.966   5.795   5.199
 4101SOL    HW229446   0.905   5.667   5.145
 4102SOL     OW29447   1.319   1.793   7.724
 4102SOL    HW129448   1.343   1.828   0.049
 4102SOL    HW229449   1.402   1.777   7.680
 4103SOL     OW29450   4.915   0.013   0.375
 4103SOL    HW129451   4.856   0.086   0.395
 4103SOL    HW229452   4.987   0.054   0.327
 4104SOL     OW29453   1.824   0.028   7.589
 4104SOL    HW129454   1.913   0.037   7.556
 4104SOL    HW229455   1.783   6.452   7.532
 4105SOL     OW29456   0.385   0.801   6.943
 4105SOL    HW129457   0.292   0.778   6.949
 4105SOL    HW229458   0.415   0.804   7.033
 4106SOL     OW29459   0.798   3.772   5.477
 4106SOL    HW129460   0.880   3.728   5.498
 4106SOL    HW229461   0.771   3.735   5.393
 4107SOL     OW29462   6.397   2.774   7.645
 4107SOL    HW129463   6.487   2.790   7.617
 4107SOL    HW229464   6.377   2.848   7.704
 4108SOL     OW29465   2.265   4.426   1.023
 4108SOL    HW129466   2.255   4.472   1.106
 4108SOL    HW229467   2.200   4.356   1.027
 4109SOL     OW29468   1.119   0.521   6.161
 4109SOL    HW129469   1.028   0.552   6.167
 4109SOL    HW229470   1.162   0.557   6.238
 4110SOL     OW29471   1.008   1.004   6.670
 4110SOL    HW129472   1.027   1.076   6.611
 4110SOL    HW229473   0.943   0.951   6.623
 4111SOL     OW29474   1.928   0.233   0.705
 4111SOL    HW129475   1.837   0.228   0.674
 4111SOL    HW229476   1.972   0.289   0.641
 4112SOL     OW29477   1.957   0.049   1.075
 4112SOL    HW129478   1.898   0.122   1.054
 4112SOL    HW229479   1.977   0.008   0.991
 4113SOL     OW29480   0.046   1.882   2.342
 4113SOL    HW129481   0.133   1.897   2.379
 4113SOL    HW229482   0.007   1.816   2.400
 4114SOL     OW29483   1.010   2.495   1.398
 4114SOL    HW129484   1.098   2.528   1.381
 4114SOL    HW229485   1.010   2.472   1.491
 4115SOL     OW29486   2.469   3.029   7.065
 4115SOL    HW129487   2.541   3.082   7.098
 4115SOL    HW229488   2.479   3.030   6.970
 4116SOL     OW29489   2.634   4.268   6.981
 4116SOL    HW129490   2.698   4.314   6.927
 4116SOL    HW229491   2.685   4.202   7.028
 4117SOL     OW29492   5.535   0.153   6.090
 4117SOL    HW129493   5.520   0.143   6.184
 4117SOL    HW229494   5.516   0.245   6.073
 4118SOL     OW29495   4.981   3.218   1.160
 4118SOL    HW129496   4.939   3.252   1.081
 4118SOL    HW229497   5.062   3.269   1.168
 4119SOL     OW29498   1.500   5.314   5.187
 4119SOL    HW129499   1.548   5.377   5.241
 4119SOL    HW229500   1.564   5.282   5.124
 4120SOL     OW29501   5.414   0.401   6.118
 4120SOL    HW129502   5.342   0.449   6.077
 4120SOL    HW229503   5.423   0.442   6.204
 4121SOL     OW29504   4.719   2.195   2.492
 4121SOL    HW129505   4.710   2.288   2.474
 4121SOL    HW229506   4.747   2.157   2.408
 4122SOL     OW29507   3.664   5.847   6.251
 4122SOL    HW129508   3.638   5.894   6.172
 4122SOL    HW229509   3.745   5.891   6.279
 4123SOL     OW29510   0.971   5.461   5.211
 4123SOL    HW129511   0.900   5.431   5.268
 4123SOL    HW229512   1.033   5.388   5.210
 4124SOL     OW29513   5.407   6.090   5.723
 4124SOL    HW129514   5.468   6.148   5.767
 4124SOL    HW229515   5.364   6.042   5.795
 4125SOL     OW29516   1.206   1.557   1.615
 4125SOL    HW129517   1.230   1.584   1.704
 4125SOL    HW229518   1.287   1.525   1.576
 4126SOL     OW29519   3.471   4.684   7.254
 4126SOL    HW129520   3.385   4.641   7.258
 4126SOL    HW229521   3.464   4.743   7.179
 4127SOL     OW29522   3.521   2.476   7.461
 4127SOL    HW129523   3.470   2.530   7.401
 4127SOL    HW229524   3.494   2.506   7.548
 4128SOL     OW29525   5.438   4.553   7.506
 4128SOL    HW129526   5.416   4.518   7.592
 4128SOL    HW229527   5.490   4.484   7.464
 4129SOL     OW29528   0.083   1.668   1.352
 4129SOL    HW129529   0.143   1.650   1.424
 4129SOL    HW229530   0.099   1.597   1.290
 4130SOL     OW29531   6.447   2.918   0.962
 4130SOL    HW129532   6.431   2.840   1.015
 4130SOL    HW229533   6.403   2.989   1.009
 4131SOL     OW29534   2.722   1.345   5.627
 4131SOL    HW129535   2.760   1.377   5.545
 4131SOL    HW229536   2.723   1.249   5.618
 4132SOL     OW29537   0.942   2.778   7.401
 4132SOL    HW129538   0.881   2.759   7.330
 4132SOL    HW229539   1.029   2.770   7.360
 4133SOL     OW29540   0.959   6.341   7.433
 4133SOL    HW129541   1.031   6.355   7.494
 4133SOL    HW229542   0.976   6.255   7.395
 4134SOL     OW29543   3.610   2.203   0.676
 4134SOL    HW129544   3.633   2.187   0.767
 4134SOL    HW229545   3.614   2.116   0.635
 4135SOL     OW29546   2.274   2.767   2.356
 4135SOL    HW129547   2.301   2.812   2.276
 4135SOL    HW229548   2.237   2.836   2.411
 4136SOL     OW29549   3.852   5.234   6.605
 4136SOL    HW129550   3.837   5.311   6.551
 4136SOL    HW229551   3.767   5.192   6.612
 4137SOL     OW29552   3.679   4.017   0.527
 4137SOL    HW129553   3.602   4.031   0.471
 4137SOL    HW229554   3.735   4.092   0.509
 4138SOL     OW29555   2.204   1.503   6.813
 4138SOL    HW129556   2.179   1.592   6.790
 4138SOL    HW229557   2.280   1.484   6.757
 4139SOL     OW29558   4.259   0.469   0.521
 4139SOL    HW129559   4.194   0.498   0.457
 4139SOL    HW229560   4.212   0.471   0.605
 4140SOL     OW29561   0.840   5.867   6.598
 4140SOL    HW129562   0.808   5.880   6.687
 4140SOL    HW229563   0.838   5.954   6.559
 4141SOL     OW29564   6.001   1.211   5.871
 4141SOL    HW129565   5.930   1.154   5.842
 4141SOL    HW229566   6.019   1.267   5.796
 4142SOL     OW29567   3.146   5.029   0.556
 4142SOL    HW129568   3.207   5.059   0.625
 4142SOL    HW229569   3.151   4.934   0.560
 4143SOL     OW29570   3.730   3.760   7.024
 4143SOL    HW129571   3.723   3.667   7.046
 4143SOL    HW229572   3.731   3.762   6.928
 4144SOL     OW29573   5.507   4.151   1.043
 4144SOL    HW129574   5.458   4.088   1.095
 4144SOL    HW229575   5.443   4.221   1.025
 4145SOL     OW29576   1.198   0.574   6.698
 4145SOL    HW129577   1.127   0.635   6.678
 4145SOL    HW229578   1.220   0.591   6.789
 4146SOL     OW29579   0.727   1.759   0.631
 4146SOL    HW129580   0.686   1.843   0.651
 4146SOL    HW229581   0.720   1.750   0.536
 4147SOL     OW29582   0.494   2.325   6.271
 4147SOL    HW129583   0.472   2.411   6.308
 4147SOL    HW229584   0.547   2.283   6.339
 4148SOL     OW29585   4.978   1.212   1.531
 4148SOL    HW129586   4.921   1.283   1.500
 4148SOL    HW229587   5.065   1.252   1.536
 4149SOL     OW29588   6.211   6.013   7.661
 4149SOL    HW129589   6.140   5.949   7.653
 4149SOL    HW229590   6.167   6.094   7.689
 4150SOL     OW29591   2.577   6.445   7.279
 4150SOL    HW129592   2.586   6.480   7.368
 4150SOL    HW229593   2.604   6.354   7.286
 4151SOL     OW29594   4.490   6.164   7.660
 4151SOL    HW129595   4.582   6.164   7.684
 4151SOL    HW229596   4.489   6.179   7.565
 4152SOL     OW29597   2.809   5.489   7.272
 4152SOL    HW129598   2.842   5.442   7.195
 4152SOL    HW229599   2.783   5.575   7.238
 4153SOL     OW29600   5.205   1.434   0.975
 4153SOL    HW129601   5.187   1.499   1.044
 4153SOL    HW229602   5.166   1.472   0.896
 4154SOL     OW29603   4.873   1.051   0.672
 4154SOL    HW129604   4.817   1.103   0.729
 4154SOL    HW229605   4.947   1.024   0.727
 4155SOL     OW29606   1.339   5.344   7.565
 4155SOL    HW129607   1.286   5.312   7.491
 4155SOL    HW229608   1.429   5.343   7.532
 4156SOL     OW29609   1.669   3.933   6.027
 4156SOL    HW129610   1.747   3.902   6.075
 4156SOL    HW229611   1.674   3.889   5.942
 4157SOL     OW29612   5.056   0.038   1.868
 4157SOL    HW129613   4.995   0.098   1.826
 4157SOL    HW229614   5.134   0.091   1.887
 4158SOL     OW29615   0.717   0.299   6.957
 4158SOL    HW129616   0.680   0.348   6.884
 4158SOL    HW229617   0.712   0.359   7.032
 4159SOL     OW29618   1.711   1.248   1.182
 4159SOL    HW129619   1.719   1.156   1.209
 4159SOL    HW229620   1.633   1.249   1.125
 4160SOL     OW29621   3.289   3.486   1.730
 4160SOL    HW129622   3.340   3.450   1.657
 4160SOL    HW229623   3.314   3.432   1.805
 4161SOL     OW29624   1.610   5.705   7.052
 4161SOL    HW129625   1.631   5.647   7.125
 4161SOL    HW229626   1.689   5.706   6.998
 4162SOL     OW29627   6.197   4.028   6.730
 4162SOL    HW129628   6.187   3.959   6.795
 4162SOL    HW229629   6.266   3.996   6.671
 4163SOL     OW29630   1.371   5.969   6.587
 4163SOL    HW129631   1.412   5.910   6.651
 4163SOL    HW229632   1.278   5.967   6.610
 4164SOL     OW29633   0.556   0.333   0.878
 4164SOL    HW129634   0.485   0.381   0.836
 4164SOL    HW229635   0.562   0.371   0.965
 4165SOL     OW29636   5.220   5.223   0.099
 4165SOL    HW129637   5.295   5.247   0.153
 4165SOL    HW229638   5.233   5.270   0.017
 4166SOL     OW29639   5.810   0.569   6.748
 4166SOL    HW129640   5.838   0.561   6.657
 4166SOL    HW229641   5.846   0.492   6.792
 4167SOL     OW29642   0.203   0.598   1.146
 4167SOL    HW129643   0.237   0.521   1.190
 4167SOL    HW229644   0.277   0.633   1.097
 4168SOL     OW29645   5.814   2.993   1.282
 4168SOL    HW129646   5.831   3.085   1.259
 4168SOL    HW229647   5.891   2.946   1.249
 4169SOL     OW29648   4.107   5.902   0.920
 4169SOL    HW129649   4.096   5.840   0.992
 4169SOL    HW229650   4.019   5.914   0.885
 4170SOL     OW29651   0.681   6.422   0.072
 4170SOL    HW129652   0.659   0.025   0.054
 4170SOL    HW229653   0.661   6.376   7.752
 4171SOL     OW29654   2.160   2.717   1.702
 4171SOL    HW129655   2.187   2.625   1.697
 4171SOL    HW229656   2.105   2.729   1.625
 4172SOL     OW29657   5.767   2.637   1.814
 4172SOL    HW129658   5.842   2.651   1.756
 4172SOL    HW229659   5.789   2.558   1.864
 4173SOL     OW29660   4.260   0.018   1.080
 4173SOL    HW129661   4.180   6.454   1.078
 4173SOL    HW229662   4.241   0.088   1.142
 4174SOL     OW29663   2.550   2.430   0.178
 4174SOL    HW129664   2.517   2.393   0.096
 4174SOL    HW229665   2.490   2.502   0.197
 4175SOL     OW29666   2.650   2.276   7.133
 4175SOL    HW129667   2.702   2.356   7.146
 4175SOL    HW229668   2.707   2.205   7.164
 4176SOL     OW29669   4.399   4.661   7.250
 4176SOL    HW129670   4.316   4.696   7.218
 4176SOL    HW229671   4.463   4.690   7.185
 4177SOL     OW29672   5.110   4.369   1.284
 4177SOL    HW129673   5.121   4.410   1.370
 4177SOL    HW229674   5.195   4.329   1.266
 4178SOL     OW29675   6.300   2.034   7.286
 4178SOL    HW129676   6.372   2.047   7.346
 4178SOL    HW229677   6.261   2.121   7.275
 4179SOL     OW29678   1.717   3.476   7.206
 4179SOL    HW129679   1.713   3.455   7.112
 4179SOL    HW229680   1.671   3.404   7.249
 4180SOL     OW29681   5.219   3.941   7.166
 4180SOL    HW129682   5.198   3.847   7.168
 4180SOL    HW229683   5.256   3.959   7.253
 4181SOL     OW29684   2.047   6.358   5.557
 4181SOL    HW129685   1.957   6.327   5.555
 4181SOL    HW229686   2.055   6.403   5.641
 4182SOL     OW29687   4.623   5.110   6.030
 4182SOL    HW129688   4.654   5.091   5.942
 4182SOL    HW229689   4.699   5.096   6.086
 4183SOL     OW29690   1.585   1.777   6.312
 4183SOL    HW129691   1.573   1.686   6.284
 4183SOL    HW229692   1.573   1.828   6.232
 4184SOL     OW29693   0.938   4.994   1.026
 4184SOL    HW129694   0.858   5.027   0.987
 4184SOL    HW229695   0.985   4.953   0.954
 4185SOL     OW29696   3.206   0.373   0.791
 4185SOL    HW129697   3.151   0.328   0.727
 4185SOL    HW229698   3.286   0.320   0.795
 4186SOL     OW29699   3.403   4.060   0.414
 4186SOL    HW129700   3.451   4.135   0.379
 4186SOL    HW229701   3.336   4.041   0.348
 4187SOL     OW29702   6.413   4.830   1.440
 4187SOL    HW129703   6.450   4.873   1.363
 4187SOL    HW229704   0.001   4.805   1.492
 4188SOL     OW29705   0.108   4.470   0.735
 4188SOL    HW129706   0.023   4.474   0.778
 4188SOL    HW229707   0.164   4.526   0.789
 4189SOL     OW29708   0.672   5.800   7.699
 4189SOL    HW129709   0.765   5.818   7.713
 4189SOL    HW229710   0.645   5.863   7.633
 4190SOL     OW29711   3.438   1.378   6.428
 4190SOL    HW129712   3.445   1.320   6.504
 4190SOL    HW229713   3.399   1.324   6.359
 4191SOL     OW29714   2.685   1.993   1.369
 4191SOL    HW129715   2.616   2.060   1.370
 4191SOL    HW229716   2.708   1.984   1.277
 4192SOL     OW29717   2.181   5.912   0.800
 4192SOL    HW129718   2.145   6.001   0.803
 4192SOL    HW229719   2.187   5.886   0.892
 4193SOL     OW29720   3.683   5.567   7.738
 4193SOL    HW129721   3.726   5.585   0.060
 4193SOL    HW229722   3.745   5.511   7.691
 4194SOL     OW29723   3.033   2.517   0.184
 4194SOL    HW129724   3.067   2.508   0.095
 4194SOL    HW229725   2.973   2.443   0.194
 4195SOL     OW29726   0.405   2.266   7.070
 4195SOL    HW129727   0.376   2.210   6.998
 4195SOL    HW229728   0.479   2.219   7.108
 4196SOL     OW29729   6.149   3.491   0.560
 4196SOL    HW129730   6.123   3.416   0.614
 4196SOL    HW229731   6.112   3.567   0.607
 4197SOL     OW29732   5.363   3.610   6.193
 4197SOL    HW129733   5.373   3.687   6.248
 4197SOL    HW229734   5.275   3.578   6.212
 4198SOL     OW29735   2.827   5.023   0.335
 4198SOL    HW129736   2.858   4.934   0.351
 4198SOL    HW229737   2.902   5.079   0.355
 4199SOL     OW29738   1.011   4.596   0.987
 4199SOL    HW129739   1.020   4.583   0.893
 4199SOL    HW229740   1.091   4.643   1.013
 4200SOL     OW29741   5.551   3.747   7.326
 4200SOL    HW129742   5.568   3.806   7.252
 4200SOL    HW229743   5.612   3.675   7.313
 4201SOL     OW29744   3.770   0.968   6.875
 4201SOL    HW129745   3.678   0.961   6.851
 4201SOL    HW229746   3.817   0.931   6.801
 4202SOL     OW29747   5.514   2.663   0.578
 4202SOL    HW129748   5.502   2.718   0.501
 4202SOL    HW229749   5.561   2.719   0.641
 4203SOL     OW29750   4.743   3.677   6.437
 4203SOL    HW129751   4.826   3.701   6.478
 4203SOL    HW229752   4.732   3.740   6.366
 4204SOL     OW29753   3.767   3.156   1.335
 4204SOL    HW129754   3.853   3.116   1.328
 4204SOL    HW229755   3.768   3.202   1.419
 4205SOL     OW29756   4.193   1.100   6.616
 4205SOL    HW129757   4.138   1.160   6.666
 4205SOL    HW229758   4.278   1.103   6.661
 4206SOL     OW29759   4.332   0.828   1.062
 4206SOL    HW129760   4.280   0.907   1.077
 4206SOL    HW229761   4.371   0.809   1.147
 4207SOL     OW29762   1.224   5.255   7.324
 4207SOL    HW129763   1.140   5.255   7.279
 4207SOL    HW229764   1.273   5.328   7.286
 4208SOL     OW29765   3.501   0.559   7.449
 4208SOL    HW129766   3.583   0.519   7.476
 4208SOL    HW229767   3.519   0.653   7.447
 4209SOL     OW29768   2.319   1.787   1.683
 4209SOL    HW129769   2.404   1.827   1.696
 4209SOL    HW229770   2.335   1.693   1.694
 4210SOL     OW29771   0.283   6.308   0.319
 4210SOL    HW129772   0.194   6.336   0.340
 4210SOL    HW229773   0.316   6.271   0.401
 4211SOL     OW29774   3.283   2.286   0.370
 4211SOL    HW129775   3.302   2.227   0.296
 4211SOL    HW229776   3.190   2.275   0.386
 4212SOL     OW29777   0.310   4.465   7.065
 4212SOL    HW129778   0.310   4.450   7.159
 4212SOL    HW229779   0.403   4.477   7.043
 4213SOL     OW29780   1.648   1.222   6.938
 4213SOL    HW129781   1.607   1.135   6.934
 4213SOL    HW229782   1.576   1.281   6.960
 4214SOL     OW29783   6.012   5.924   7.324
 4214SOL    HW129784   6.078   5.860   7.297
 4214SOL    HW229785   5.929   5.877   7.316
 4215SOL     OW29786   0.823   5.930   0.235
 4215SOL    HW129787   0.764   5.972   0.297
 4215SOL    HW229788   0.791   5.959   0.149
 4216SOL     OW29789   4.469   1.062   6.923
 4216SOL    HW129790   4.550   1.013   6.930
 4216SOL    HW229791   4.470   1.121   6.999
 4217SOL     OW29792   1.367   5.126   5.323
 4217SOL    HW129793   1.280   5.149   5.356
 4217SOL    HW229794   1.403   5.208   5.290
 4218SOL     OW29795   4.570   3.426   7.733
 4218SOL    HW129796   4.491   3.382   0.002
 4218SOL    HW229797   4.636   3.356   7.728
 4219SOL     OW29798   1.178   2.997   1.671
 4219SOL    HW129799   1.083   3.014   1.673
 4219SOL    HW229800   1.201   2.984   1.763
 4220SOL     OW29801   5.404   6.186   0.381
 4220SOL    HW129802   5.321   6.208   0.340
 4220SOL    HW229803   5.432   6.104   0.340
 4221SOL     OW29804   2.791   0.808   0.487
 4221SOL    HW129805   2.754   0.827   0.401
 4221SOL    HW229806   2.886   0.818   0.476
 4222SOL     OW29807   5.648   4.058   0.606
 4222SOL    HW129808   5.694   4.073   0.524
 4222SOL    HW229809   5.558   4.086   0.589
 4223SOL     OW29810   2.809   4.166   1.720
 4223SOL    HW129811   2.804   4.073   1.696
 4223SOL    HW229812   2.723   4.186   1.757
 4224SOL     OW29813   0.659   3.772   1.900
 4224SOL    HW129814   0.581   3.795   1.849
 4224SOL    HW229815   0.625   3.718   1.972
 4225SOL     OW29816   2.938   3.736   7.090
 4225SOL    HW129817   3.016   3.775   7.130
 4225SOL    HW229818   2.954   3.742   6.996
 4226SOL     OW29819   1.365   0.079   1.277
 4226SOL    HW129820   1.401   0.152   1.227
 4226SOL    HW229821   1.379   0.002   1.221
 4227SOL     OW29822   3.871   3.417   1.249
 4227SOL    HW129823   3.830   3.331   1.243
 4227SOL    HW229824   3.960   3.403   1.215
 4228SOL     OW29825   0.267   5.084   6.989
 4228SOL    HW129826   0.342   5.133   6.955
 4228SOL    HW229827   0.303   4.999   7.014
 4229SOL     OW29828   6.121   2.137   1.275
 4229SOL    HW129829   6.047   2.081   1.301
 4229SOL    HW229830   6.132   2.196   1.349
 4230SOL     OW29831   5.836   4.833   7.016
 4230SOL    HW129832   5.789   4.783   6.949
 4230SOL    HW229833   5.768   4.869   7.072
 4231SOL     OW29834   2.786   1.367   6.268
 4231SOL    HW129835   2.839   1.443   6.288
 4231SOL    HW229836   2.816   1.299   6.327
 4232SOL     OW29837   3.553   2.249   0.140
 4232SOL    HW129838   3.624   2.188   0.159
 4232SOL    HW229839   3.474   2.194   0.138
 4233SOL     OW29840   1.069   3.787   6.777
 4233SOL    HW129841   1.000   3.725   6.800
 4233SOL    HW229842   1.082   3.840   6.856
 4234SOL     OW29843   4.806   2.711   0.885
 4234SOL    HW129844   4.840   2.702   0.796
 4234SOL    HW229845   4.852   2.787   0.921
 4235SOL     OW29846   3.898   0.981   1.209
 4235SOL    HW129847   3.954   0.903   1.206
 4235SOL    HW229848   3.869   0.994   1.119
 4236SOL     OW29849   3.928   0.705   0.438
 4236SOL    HW129850   3.965   0.617   0.433
 4236SOL    HW229851   3.945   0.733   0.528
 4237SOL     OW29852   0.206   2.267   7.285
 4237SOL    HW129853   0.284   2.240   7.236
 4237SOL    HW229854   0.133   2.226   7.238
 4238SOL     OW29855   1.762   1.663   0.383
 4238SOL    HW129856   1.714   1.744   0.369
 4238SOL    HW229857   1.711   1.615   0.448
 4239SOL     OW29858   3.122   1.184   6.480
 4239SOL    HW129859   3.115   1.095   6.445
 4239SOL    HW229860   3.185   1.176   6.551
 4240SOL     OW29861   5.134   0.835   1.283
 4240SOL    HW129862   5.174   0.912   1.243
 4240SOL    HW229863   5.099   0.865   1.367
 4241SOL     OW29864   0.081   3.556   0.851
 4241SOL    HW129865   0.087   3.651   0.839
 4241SOL    HW229866   0.104   3.543   0.943
 4242SOL     OW29867   0.935   6.170   0.023
 4242SOL    HW129868   0.930   6.082   7.747
 4242SOL    HW229869   0.844   6.198   0.031
 4243SOL     OW29870   1.026   4.291   7.267
 4243SOL    HW129871   1.119   4.277   7.281
 4243SOL    HW229872   1.006   4.242   7.187
 4244SOL     OW29873   0.063   2.501   7.370
 4244SOL    HW129874   0.074   2.523   7.463
 4244SOL    HW229875   0.092   2.410   7.364
 4245SOL     OW29876   2.288   4.578   0.804
 4245SOL    HW129877   2.268   4.512   0.871
 4245SOL    HW229878   2.237   4.655   0.829
 4246SOL     OW29879   2.630   6.429   5.290
 4246SOL    HW129880   2.685   6.355   5.265
 4246SOL    HW229881   2.671   6.464   5.369
 4247SOL     OW29882   0.994   2.375   6.786
 4247SOL    HW129883   0.989   2.285   6.819
 4247SOL    HW229884   1.087   2.396   6.788
 4248SOL     OW29885   5.502   6.470   0.382
 4248SOL    HW129886   5.578   6.437   0.335
 4248SOL    HW229887   5.448   6.393   0.397
 4249SOL     OW29888   3.375   3.325   1.936
 4249SOL    HW129889   3.469   3.307   1.938
 4249SOL    HW229890   3.334   3.239   1.936
 4250SOL     OW29891   3.496   6.348   6.463
 4250SOL    HW129892   3.455   6.335   6.548
 4250SOL    HW229893   3.567   6.410   6.480
 4251SOL     OW29894   4.286   5.182   6.267
 4251SOL    HW129895   4.295   5.134   6.348
 4251SOL    HW229896   4.312   5.120   6.199
 4252SOL     OW29897   0.065   1.600   0.308
 4252SOL    HW129898   0.083   1.530   0.370
 4252SOL    HW229899   0.077   1.681   0.358
 4253SOL     OW29900   6.315   5.446   0.709
 4253SOL    HW129901   6.281   5.375   0.654
 4253SOL    HW229902   6.236   5.489   0.743
 4254SOL     OW29903   2.019   4.939   7.563
 4254SOL    HW129904   2.040   4.847   7.575
 4254SOL    HW229905   2.087   4.971   7.504
 4255SOL     OW29906   2.246   3.355   7.553
 4255SOL    HW129907   2.280   3.435   7.592
 4255SOL    HW229908   2.151   3.360   7.567
 4256SOL     OW29909   2.462   3.943   1.095
 4256SOL    HW129910   2.451   4.029   1.138
 4256SOL    HW229911   2.522   3.960   1.023
 4257SOL     OW29912   4.883   0.903   2.223
 4257SOL    HW129913   4.903   0.810   2.226
 4257SOL    HW229914   4.907   0.930   2.135
 4258SOL     OW29915   0.284   3.999   6.821
 4258SOL    HW129916   0.250   4.065   6.881
 4258SOL    HW229917   0.260   3.915   6.860
 4259SOL     OW29918   3.311   6.212   0.339
 4259SOL    HW129919   3.377   6.192   0.405
 4259SOL    HW229920   3.282   6.301   0.360
 4260SOL     OW29921   3.702   5.544   0.446
 4260SOL    HW129922   3.729   5.464   0.492
 4260SOL    HW229923   3.616   5.524   0.410
 4261SOL     OW29924   0.419   0.701   1.000
 4261SOL    HW129925   0.475   0.767   0.960
 4261SOL    HW229926   0.356   0.678   0.931
 4262SOL     OW29927   4.328   1.280   1.337
 4262SOL    HW129928   4.300   1.230   1.414
 4262SOL    HW229929   4.333   1.215   1.267
 4263SOL     OW29930   4.615   3.505   6.583
 4263SOL    HW129931   4.672   3.550   6.520
 4263SOL    HW229932   4.641   3.540   6.668
 4264SOL     OW29933   4.175   4.816   7.438
 4264SOL    HW129934   4.249   4.874   7.420
 4264SOL    HW229935   4.148   4.838   7.527
 4265SOL     OW29936   2.891   0.568   6.870
 4265SOL    HW129937   2.887   0.662   6.891
 4265SOL    HW229938   2.982   0.554   6.843
 4266SOL     OW29939   5.535   0.910   1.283
 4266SOL    HW129940   5.494   0.860   1.213
 4266SOL    HW229941   5.624   0.927   1.251
 4267SOL     OW29942   1.218   4.362   2.178
 4267SOL    HW129943   1.301   4.409   2.168
 4267SOL    HW229944   1.237   4.273   2.147
 4268SOL     OW29945   2.877   4.458   6.761
 4268SOL    HW129946   2.912   4.428   6.677
 4268SOL    HW229947   2.931   4.414   6.826
 4269SOL     OW29948   3.363   5.620   1.757
 4269SOL    HW129949   3.268   5.605   1.758
 4269SOL    HW229950   3.374   5.700   1.809
 4270SOL     OW29951   3.164   2.430   1.162
 4270SOL    HW129952   3.255   2.446   1.136
 4270SOL    HW229953   3.122   2.395   1.083
 4271SOL     OW29954   0.330   2.114   6.113
 4271SOL    HW129955   0.239   2.144   6.121
 4271SOL    HW229956   0.382   2.189   6.140
 4272SOL     OW29957   0.136   0.482   1.574
 4272SOL    HW129958   0.050   0.474   1.535
 4272SOL    HW229959   0.120   0.514   1.663
 4273SOL     OW29960   4.793   4.663   7.514
 4273SOL    HW129961   4.888   4.654   7.520
 4273SOL    HW229962   4.776   4.751   7.548
 4274SOL     OW29963   6.132   1.739   0.115
 4274SOL    HW129964   6.192   1.734   0.040
 4274SOL    HW229965   6.168   1.676   0.178
 4275SOL     OW29966   6.123   2.277   7.384
 4275SOL    HW129967   6.090   2.364   7.362
 4275SOL    HW229968   6.119   2.274   7.480
 4276SOL     OW29969   4.799   4.077   5.708
 4276SOL    HW129970   4.807   4.045   5.618
 4276SOL    HW229971   4.870   4.139   5.718
 4277SOL     OW29972   5.039   1.949   5.700
 4277SOL    HW129973   5.074   1.996   5.776
 4277SOL    HW229974   4.945   1.947   5.714
 4278SOL     OW29975   1.369   2.325   7.492
 4278SOL    HW129976   1.278   2.313   7.467
 4278SOL    HW229977   1.392   2.411   7.458
 4279SOL     OW29978   3.591   2.108   6.916
 4279SOL    HW129979   3.537   2.069   6.984
 4279SOL    HW229980   3.679   2.110   6.954
 4280SOL     OW29981   2.691   5.343   4.978
 4280SOL    HW129982   2.647   5.338   5.063
 4280SOL    HW229983   2.746   5.421   4.984
 4281SOL     OW29984   3.537   4.255   0.305
 4281SOL    HW129985   3.487   4.319   0.255
 4281SOL    HW229986   3.628   4.283   0.296
 4282SOL     OW29987   2.461   3.842   0.655
 4282SOL    HW129988   2.529   3.882   0.708
 4282SOL    HW229989   2.384   3.898   0.668
 4283SOL     OW29990   5.001   4.011   6.504
 4283SOL    HW129991   4.951   4.063   6.440
 4283SOL    HW229992   5.055   3.952   6.450
 4284SOL     OW29993   2.328   5.569   6.698
 4284SOL    HW129994   2.373   5.602   6.620
 4284SOL    HW229995   2.342   5.636   6.765
 4285SOL     OW29996   0.947   5.543   7.556
 4285SOL    HW129997   0.997   5.463   7.541
 4285SOL    HW229998   1.009   5.601   7.601
 4286SOL     OW29999   3.415   0.578   1.784
 4286SOL    HW130000   3.446   0.666   1.808
 4286SOL    HW230001   3.345   0.559   1.846
 4287SOL     OW30002   0.653   6.255   6.909
 4287SOL    HW130003   0.598   6.323   6.870
 4287SOL    HW230004   0.592   6.201   6.959
 4288SOL     OW30005   2.822   3.259   6.454
 4288SOL    HW130006   2.783   3.346   6.448
 4288SOL    HW230007   2.907   3.273   6.495
 4289SOL     OW30008   3.165   0.468   0.158
 4289SOL    HW130009   3.075   0.451   0.184
 4289SOL    HW230010   3.215   0.464   0.239
 4290SOL     OW30011   0.906   6.219   6.651
 4290SOL    HW130012   0.857   6.296   6.682
 4290SOL    HW230013   0.960   6.194   6.726
 4291SOL     OW30014   3.671   6.184   7.284
 4291SOL    HW130015   3.617   6.244   7.336
 4291SOL    HW230016   3.650   6.207   7.194
 4292SOL     OW30017   1.881   4.393   1.420
 4292SOL    HW130018   1.787   4.391   1.437
 4292SOL    HW230019   1.914   4.312   1.459
 4293SOL     OW30020   0.989   5.256   7.609
 4293SOL    HW130021   0.983   5.185   7.545
 4293SOL    HW230022   1.063   5.233   7.664
 4294SOL     OW30023   2.908   3.682   6.581
 4294SOL    HW130024   2.935   3.597   6.548
 4294SOL    HW230025   2.963   3.745   6.534
 4295SOL     OW30026   3.983   0.354   1.176
 4295SOL    HW130027   3.905   0.300   1.161
 4295SOL    HW230028   3.969   0.430   1.120
 4296SOL     OW30029   1.087   5.517   0.710
 4296SOL    HW130030   1.065   5.457   0.638
 4296SOL    HW230031   1.079   5.463   0.789
 4297SOL     OW30032   1.473   4.409   6.110
 4297SOL    HW130033   1.561   4.390   6.142
 4297SOL    HW230034   1.442   4.481   6.166
 4298SOL     OW30035   2.954   0.685   0.189
 4298SOL    HW130036   2.978   0.652   0.102
 4298SOL    HW230037   3.035   0.723   0.223
 4299SOL     OW30038   1.549   5.055   1.775
 4299SOL    HW130039   1.475   5.104   1.742
 4299SOL    HW230040   1.580   5.106   1.850
 4300SOL     OW30041   1.876   4.204   5.157
 4300SOL    HW130042   1.805   4.245   5.107
 4300SOL    HW230043   1.942   4.273   5.166
 4301SOL     OW30044   1.403   4.499   5.878
 4301SOL    HW130045   1.418   4.453   5.961
 4301SOL    HW230046   1.359   4.580   5.902
 4302SOL     OW30047   3.359   1.801   6.698
 4302SOL    HW130048   3.386   1.744   6.770
 4302SOL    HW230049   3.417   1.778   6.625
 4303SOL     OW30050   0.424   3.605   5.411
 4303SOL    HW130051   0.442   3.699   5.414
 4303SOL    HW230052   0.330   3.599   5.398
 4304SOL     OW30053   5.900   6.233   6.254
 4304SOL    HW130054   5.947   6.168   6.306
 4304SOL    HW230055   5.870   6.186   6.177
 4305SOL     OW30056   6.159   0.996   0.309
 4305SOL    HW130057   6.159   0.918   0.364
 4305SOL    HW230058   6.232   0.984   0.249
 4306SOL     OW30059   0.177   5.103   0.061
 4306SOL    HW130060   0.253   5.087   0.005
 4306SOL    HW230061   0.167   5.198   0.062
 4307SOL     OW30062   1.958   4.912   6.311
 4307SOL    HW130063   1.994   4.843   6.255
 4307SOL    HW230064   1.944   4.870   6.396
 4308SOL     OW30065   4.857   0.834   1.670
 4308SOL    HW130066   4.787   0.884   1.712
 4308SOL    HW230067   4.916   0.812   1.742
 4309SOL     OW30068   3.020   2.234   0.384
 4309SOL    HW130069   2.949   2.276   0.336
 4309SOL    HW230070   2.995   2.142   0.389
 4310SOL     OW30071   2.298   5.245   7.220
 4310SOL    HW130072   2.393   5.247   7.213
 4310SOL    HW230073   2.270   5.328   7.182
 4311SOL     OW30074   3.860   3.025   6.215
 4311SOL    HW130075   3.905   3.108   6.229
 4311SOL    HW230076   3.929   2.959   6.221
 4312SOL     OW30077   4.001   3.768   0.009
 4312SOL    HW130078   4.031   3.677   0.011
 4312SOL    HW230079   3.907   3.762   7.749
 4313SOL     OW30080   5.384   2.920   7.613
 4313SOL    HW130081   5.428   2.856   7.557
 4313SOL    HW230082   5.425   3.003   7.590
 4314SOL     OW30083   4.426   2.697   1.419
 4314SOL    HW130084   4.483   2.646   1.361
 4314SOL    HW230085   4.339   2.659   1.406
 4315SOL     OW30086   4.385   0.251   7.422
 4315SOL    HW130087   4.422   0.163   7.429
 4315SOL    HW230088   4.340   0.265   7.505
 4316SOL     OW30089   4.253   1.886   0.601
 4316SOL    HW130090   4.250   1.823   0.529
 4316SOL    HW230091   4.282   1.967   0.559
 4317SOL     OW30092   1.267   5.659   6.437
 4317SOL    HW130093   1.269   5.738   6.491
 4317SOL    HW230094   1.344   5.667   6.380
 4318SOL     OW30095   2.349   3.154   5.311
 4318SOL    HW130096   2.265   3.129   5.272
 4318SOL    HW230097   2.351   3.110   5.395
 4319SOL     OW30098   1.544   0.013   0.772
 4319SOL    HW130099   1.507   0.102   0.776
 4319SOL    HW230100   1.471   6.447   0.741
 4320SOL     OW30101   4.060   1.635   1.466
 4320SOL    HW130102   4.090   1.708   1.411
 4320SOL    HW230103   4.084   1.556   1.418
 4321SOL     OW30104   3.514   4.746   7.534
 4321SOL    HW130105   3.472   4.683   7.592
 4321SOL    HW230106   3.491   4.717   7.446
 4322SOL     OW30107   3.142   6.009   0.291
 4322SOL    HW130108   3.108   6.011   0.381
 4322SOL    HW230109   3.199   6.085   0.285
 4323SOL     OW30110   2.903   1.252   6.695
 4323SOL    HW130111   2.825   1.248   6.752
 4323SOL    HW230112   2.873   1.218   6.611
 4324SOL     OW30113   4.408   0.022   0.877
 4324SOL    HW130114   4.353   0.014   0.955
 4324SOL    HW230115   4.347   0.044   0.806
 4325SOL     OW30116   5.695   6.369   6.374
 4325SOL    HW130117   5.726   6.362   6.465
 4325SOL    HW230118   5.755   6.315   6.323
 4326SOL     OW30119   3.079   2.659   7.144
 4326SOL    HW130120   3.007   2.706   7.102
 4326SOL    HW230121   3.086   2.578   7.094
 4327SOL     OW30122   5.832   6.066   1.039
 4327SOL    HW130123   5.772   6.012   1.090
 4327SOL    HW230124   5.918   6.046   1.074
 4328SOL     OW30125   1.918   1.825   6.587
 4328SOL    HW130126   1.885   1.909   6.619
 4328SOL    HW230127   1.887   1.820   6.497
 4329SOL     OW30128   4.735   3.817   0.506
 4329SOL    HW130129   4.649   3.783   0.531
 4329SOL    HW230130   4.719   3.862   0.422
 4330SOL     OW30131   4.755   2.335   6.663
 4330SOL    HW130132   4.746   2.397   6.591
 4330SOL    HW230133   4.834   2.363   6.710
 4331SOL     OW30134   0.697   2.023   0.261
 4331SOL    HW130135   0.701   1.931   0.289
 4331SOL    HW230136   0.738   2.071   0.332
 4332SOL     OW30137   0.276   4.124   0.479
 4332SOL    HW130138   0.194   4.171   0.493
 4332SOL    HW230139   0.270   4.048   0.537
 4333SOL     OW30140   4.231   6.294   1.739
 4333SOL    HW130141   4.137   6.291   1.720
 4333SOL    HW230142   4.237   6.343   1.821
 4334SOL     OW30143   0.564   5.720   6.729
 4334SOL    HW130144   0.642   5.669   6.706
 4334SOL    HW230145   0.495   5.686   6.673
 4335SOL     OW30146   3.544   4.079   7.268
 4335SOL    HW130147   3.541   4.111   7.358
 4335SOL    HW230148   3.618   4.018   7.268
 4336SOL     OW30149   6.008   1.099   7.141
 4336SOL    HW130150   6.031   1.188   7.168
 4336SOL    HW230151   6.004   1.102   7.045
 4337SOL     OW30152   5.576   0.073   1.036
 4337SOL    HW130153   5.655   0.112   0.999
 4337SOL    HW230154   5.504   0.119   0.991
 4338SOL     OW30155   3.611   1.902   1.296
 4338SOL    HW130156   3.520   1.908   1.264
 4338SOL    HW230157   3.663   1.889   1.216
 4339SOL     OW30158   5.169   3.754   1.148
 4339SOL    HW130159   5.115   3.774   1.071
 4339SOL    HW230160   5.105   3.743   1.219
 4340SOL     OW30161   1.558   1.289   0.739
 4340SOL    HW130162   1.548   1.277   0.834
 4340SOL    HW230163   1.628   1.228   0.715
 4341SOL     OW30164   5.200   2.398   6.347
 4341SOL    HW130165   5.279   2.367   6.302
 4341SOL    HW230166   5.134   2.331   6.328
 4342SOL     OW30167   4.754   0.941   6.085
 4342SOL    HW130168   4.701   1.017   6.061
 4342SOL    HW230169   4.738   0.878   6.015
 4343SOL     OW30170   0.352   2.896   1.319
 4343SOL    HW130171   0.448   2.892   1.314
 4343SOL    HW230172   0.323   2.810   1.291
 4344SOL     OW30173   6.439   6.039   0.028
 4344SOL    HW130174   6.373   6.037   7.720
 4344SOL    HW230175   6.398   6.087   0.100
 4345SOL     OW30176   6.292   5.502   7.352
 4345SOL    HW130177   6.332   5.460   7.429
 4345SOL    HW230178   6.355   5.487   7.282
 4346SOL     OW30179   6.433   4.452   5.806
 4346SOL    HW130180   6.475   4.454   5.892
 4346SOL    HW230181   0.017   4.463   5.743
 4347SOL     OW30182   0.485   6.185   5.881
 4347SOL    HW130183   0.445   6.214   5.799
 4347SOL    HW230184   0.420   6.125   5.919
 4348SOL     OW30185   2.184   4.428   7.411
 4348SOL    HW130186   2.218   4.379   7.485
 4348SOL    HW230187   2.247   4.500   7.400
 4349SOL     OW30188   1.960   2.042   0.214
 4349SOL    HW130189   1.922   1.998   0.138
 4349SOL    HW230190   1.904   2.119   0.227
 4350SOL     OW30191   1.125   5.413   5.823
 4350SOL    HW130192   1.100   5.354   5.895
 4350SOL    HW230193   1.041   5.446   5.790
 4351SOL     OW30194   2.712   4.412   7.746
 4351SOL    HW130195   2.690   4.459   0.065
 4351SOL    HW230196   2.738   4.324   0.016
 4352SOL     OW30197   5.171   0.561   7.698
 4352SOL    HW130198   5.197   0.579   0.026
 4352SOL    HW230199   5.231   0.612   7.644
 4353SOL     OW30200   4.357   1.453   6.705
 4353SOL    HW130201   4.277   1.426   6.661
 4353SOL    HW230202   4.329   1.522   6.766
 4354SOL     OW30203   4.857   6.485   7.177
 4354SOL    HW130204   4.922   0.015   7.109
 4354SOL    HW230205   4.892   0.040   7.255
 4355SOL     OW30206   3.757   1.811   6.305
 4355SOL    HW130207   3.761   1.863   6.224
 4355SOL    HW230208   3.847   1.782   6.318
 4356SOL     OW30209   2.942   6.436   6.924
 4356SOL    HW130210   3.005   6.373   6.960
 4356SOL    HW230211   2.910   6.395   6.844
 4357SOL     OW30212   6.233   6.140   1.787
 4357SOL    HW130213   6.281   6.126   1.706
 4357SOL    HW230214   6.142   6.123   1.764
 4358SOL     OW30215   6.458   2.586   1.073
 4358SOL    HW130216   0.064   2.595   1.065
 4358SOL    HW230217   6.428   2.565   0.985
 4359SOL     OW30218   2.353   0.313   6.777
 4359SOL    HW130219   2.380   0.402   6.798
 4359SOL    HW230220   2.421   0.281   6.717
 4360SOL     OW30221   4.385   1.108   1.543
 4360SOL    HW130222   4.367   1.062   1.625
 4360SOL    HW230223   4.478   1.094   1.528
 4361SOL     OW30224   4.934   4.481   6.637
 4361SOL    HW130225   4.850   4.510   6.602
 4361SOL    HW230226   4.978   4.439   6.562
 4362SOL     OW30227   5.125   1.945   1.838
 4362SOL    HW130228   5.137   1.970   1.930
 4362SOL    HW230229   5.040   1.901   1.836
 4363SOL     OW30230   3.455   1.265   1.684
 4363SOL    HW130231   3.524   1.198   1.688
 4363SOL    HW230232   3.430   1.278   1.776
 4364SOL     OW30233   1.387   5.288   6.863
 4364SOL    HW130234   1.420   5.346   6.795
 4364SOL    HW230235   1.299   5.264   6.834
 4365SOL     OW30236   2.176   0.899   6.440
 4365SOL    HW130237   2.161   0.992   6.458
 4365SOL    HW230238   2.236   0.871   6.508
 4366SOL     OW30239   3.314   1.555   1.754
 4366SOL    HW130240   3.359   1.543   1.838
 4366SOL    HW230241   3.316   1.468   1.713
 4367SOL     OW30242   1.612   3.549   5.729
 4367SOL    HW130243   1.577   3.570   5.642
 4367SOL    HW230244   1.659   3.466   5.716
 4368SOL     OW30245   4.233   0.466   1.513
 4368SOL    HW130246   4.304   0.527   1.533
 4368SOL    HW230247   4.277   0.389   1.476
 4369SOL     OW30248   1.616   5.466   5.364
 4369SOL    HW130249   1.552   5.467   5.435
 4369SOL    HW230250   1.698   5.497   5.404
 4370SOL     OW30251   1.687   4.332   0.740
 4370SOL    HW130252   1.717   4.252   0.783
 4370SOL    HW230253   1.621   4.302   0.678
 4371SOL     OW30254   2.349   1.149   7.041
 4371SOL    HW130255   2.440   1.163   7.066
 4371SOL    HW230256   2.302   1.226   7.076
 4372SOL     OW30257   2.417   1.456   0.137
 4372SOL    HW130258   2.323   1.440   0.126
 4372SOL    HW230259   2.455   1.438   0.051
 4373SOL     OW30260   0.562   4.854   5.539
 4373SOL    HW130261   0.552   4.946   5.565
 4373SOL    HW230262   0.635   4.822   5.593
 4374SOL     OW30263   3.980   0.853   6.740
 4374SOL    HW130264   4.071   0.879   6.725
 4374SOL    HW230265   3.982   0.804   6.822
 4375SOL     OW30266   1.027   4.814   6.425
 4375SOL    HW130267   0.939   4.823   6.461
 4375SOL    HW230268   1.067   4.900   6.436
 4376SOL     OW30269   6.134   3.272   6.739
 4376SOL    HW130270   6.050   3.227   6.739
 4376SOL    HW230271   6.119   3.350   6.793
 4377SOL     OW30272   2.011   1.278   0.829
 4377SOL    HW130273   1.931   1.230   0.851
 4377SOL    HW230274   2.007   1.358   0.882
 4378SOL     OW30275   1.529   3.270   7.353
 4378SOL    HW130276   1.471   3.340   7.321
 4378SOL    HW230277   1.503   3.193   7.302
 4379SOL     OW30278   3.271   0.333   2.138
 4379SOL    HW130279   3.344   0.392   2.158
 4379SOL    HW230280   3.236   0.365   2.055
 4380SOL     OW30281   2.369   2.928   1.060
 4380SOL    HW130282   2.403   3.011   1.028
 4380SOL    HW230283   2.378   2.932   1.155
 4381SOL     OW30284   2.821   2.397   7.602
 4381SOL    HW130285   2.781   2.457   7.539
 4381SOL    HW230286   2.816   2.443   7.685
 4382SOL     OW30287   0.098   3.450   0.136
 4382SOL    HW130288   0.024   3.507   0.112
 4382SOL    HW230289   0.112   3.395   0.059
 4383SOL     OW30290   5.344   0.641   1.250
 4383SOL    HW130291   5.265   0.688   1.276
 4383SOL    HW230292   5.313   0.579   1.183
 4384SOL     OW30293   5.189   3.029   1.809
 4384SOL    HW130294   5.149   2.963   1.753
 4384SOL    HW230295   5.242   2.979   1.871
 4385SOL     OW30296   1.174   3.328   0.208
 4385SOL    HW130297   1.228   3.403   0.184
 4385SOL    HW230298   1.090   3.343   0.164
 4386SOL     OW30299   0.019   0.581   5.762
 4386SOL    HW130300   0.076   0.562   5.687
 4386SOL    HW230301   6.433   0.627   5.724
 4387SOL     OW30302   4.188   1.148   6.210
 4387SOL    HW130303   4.210   1.079   6.147
 4387SOL    HW230304   4.102   1.125   6.243
 4388SOL     OW30305   4.712   5.862   5.911
 4388SOL    HW130306   4.687   5.854   5.819
 4388SOL    HW230307   4.630   5.881   5.956
 4389SOL     OW30308   4.923   5.383   6.550
 4389SOL    HW130309   4.973   5.392   6.469
 4389SOL    HW230310   4.936   5.466   6.596
 4390SOL     OW30311   3.005   5.096   0.048
 4390SOL    HW130312   3.048   5.080   0.131
 4390SOL    HW230313   2.914   5.116   0.071
 4391SOL     OW30314   5.098   2.120   1.651
 4391SOL    HW130315   5.163   2.089   1.587
 4391SOL    HW230316   5.101   2.056   1.721
 4392SOL     OW30317   5.202   2.498   2.510
 4392SOL    HW130318   5.114   2.510   2.545
 4392SOL    HW230319   5.197   2.530   2.420
 4393SOL     OW30320   3.881   1.383   0.205
 4393SOL    HW130321   3.876   1.337   0.121
 4393SOL    HW230322   3.956   1.442   0.196
 4394SOL     OW30323   2.772   0.885   0.214
 4394SOL    HW130324   2.832   0.812   0.196
 4394SOL    HW230325   2.731   0.903   0.130
 4395SOL     OW30326   3.839   4.038   6.657
 4395SOL    HW130327   3.882   4.051   6.742
 4395SOL    HW230328   3.843   4.123   6.615
 4396SOL     OW30329   2.221   2.158   0.918
 4396SOL    HW130330   2.272   2.147   0.838
 4396SOL    HW230331   2.209   2.069   0.952
 4397SOL     OW30332   3.723   3.300   7.735
 4397SOL    HW130333   3.668   3.352   7.677
 4397SOL    HW230334   3.674   3.295   0.055
 4398SOL     OW30335   3.264   0.167   6.621
 4398SOL    HW130336   3.256   0.258   6.592
 4398SOL    HW230337   3.350   0.139   6.588
 4399SOL     OW30338   1.630   2.770   2.196
 4399SOL    HW130339   1.548   2.732   2.228
 4399SOL    HW230340   1.699   2.721   2.242
 4400SOL     OW30341   1.311   3.295   0.848
 4400SOL    HW130342   1.378   3.253   0.902
 4400SOL    HW230343   1.345   3.383   0.832
 4401SOL     OW30344   5.496   1.553   6.415
 4401SOL    HW130345   5.476   1.517   6.329
 4401SOL    HW230346   5.482   1.479   6.475
 4402SOL     OW30347   1.313   4.276   5.332
 4402SOL    HW130348   1.311   4.300   5.425
 4402SOL    HW230349   1.381   4.331   5.294
 4403SOL     OW30350   2.448   0.730   5.789
 4403SOL    HW130351   2.457   0.678   5.710
 4403SOL    HW230352   2.468   0.820   5.762
 4404SOL     OW30353   6.033   3.065   7.505
 4404SOL    HW130354   6.053   3.050   7.598
 4404SOL    HW230355   6.038   3.160   7.494
 4405SOL     OW30356   5.312   2.566   1.758
 4405SOL    HW130357   5.357   2.608   1.831
 4405SOL    HW230358   5.383   2.534   1.701
 4406SOL     OW30359   0.112   6.101   1.412
 4406SOL    HW130360   0.027   6.055   1.416
 4406SOL    HW230361   0.167   6.045   1.359
 4407SOL     OW30362   1.936   2.214   0.950
 4407SOL    HW130363   2.031   2.209   0.937
 4407SOL    HW230364   1.923   2.181   1.039
 4408SOL     OW30365   1.695   5.474   6.456
 4408SOL    HW130366   1.734   5.558   6.479
 4408SOL    HW230367   1.761   5.409   6.479
 4409SOL     OW30368   5.326   1.194   1.395
 4409SOL    HW130369   5.385   1.139   1.447
 4409SOL    HW230370   5.286   1.253   1.459
 4410SOL     OW30371   4.869   2.541   7.508
 4410SOL    HW130372   4.860   2.516   7.600
 4410SOL    HW230373   4.836   2.630   7.503
 4411SOL     OW30374   6.099   3.955   2.374
 4411SOL    HW130375   6.013   3.952   2.332
 4411SOL    HW230376   6.138   3.869   2.354
 4412SOL     OW30377   5.872   4.461   1.866
 4412SOL    HW130378   5.940   4.502   1.919
 4412SOL    HW230379   5.796   4.456   1.924
 4413SOL     OW30380   2.842   1.988   0.343
 4413SOL    HW130381   2.851   2.025   0.255
 4413SOL    HW230382   2.749   1.966   0.350
 4414SOL     OW30383   0.705   3.985   6.900
 4414SOL    HW130384   0.630   4.042   6.914
 4414SOL    HW230385   0.749   3.981   6.985
 4415SOL     OW30386   4.675   0.418   5.669
 4415SOL    HW130387   4.730   0.457   5.737
 4415SOL    HW230388   4.701   0.326   5.666
 4416SOL     OW30389   2.807   0.245   7.169
 4416SOL    HW130390   2.844   0.243   7.081
 4416SOL    HW230391   2.852   0.175   7.216
 4417SOL     OW30392   1.715   1.093   6.165
 4417SOL    HW130393   1.793   1.069   6.216
 4417SOL    HW230394   1.706   1.022   6.101
 4418SOL     OW30395   4.314   3.110   2.205
 4418SOL    HW130396   4.314   3.206   2.201
 4418SOL    HW230397   4.221   3.087   2.207
 4419SOL     OW30398   3.834   1.619   6.670
 4419SOL    HW130399   3.748   1.639   6.634
 4419SOL    HW230400   3.875   1.704   6.685
 4420SOL     OW30401   4.700   3.200   6.681
 4420SOL    HW130402   4.650   3.188   6.600
 4420SOL    HW230403   4.788   3.223   6.651
 4421SOL     OW30404   3.972   4.594   6.826
 4421SOL    HW130405   4.045   4.543   6.863
 4421SOL    HW230406   3.897   4.573   6.882
 4422SOL     OW30407   2.078   5.955   7.005
 4422SOL    HW130408   2.172   5.945   7.021
 4422SOL    HW230409   2.059   6.045   7.035
 4423SOL     OW30410   5.168   2.966   5.912
 4423SOL    HW130411   5.202   3.030   5.849
 4423SOL    HW230412   5.120   2.903   5.859
 4424SOL     OW30413   3.635   2.472   5.552
 4424SOL    HW130414   3.624   2.527   5.474
 4424SOL    HW230415   3.589   2.519   5.621
 4425SOL     OW30416   4.309   0.616   5.307
 4425SOL    HW130417   4.398   0.595   5.277
 4425SOL    HW230418   4.253   0.598   5.232
 4426SOL     OW30419   4.682   2.877   6.548
 4426SOL    HW130420   4.645   2.952   6.501
 4426SOL    HW230421   4.766   2.861   6.505
 4427SOL     OW30422   4.733   2.604   6.831
 4427SOL    HW130423   4.813   2.553   6.823
 4427SOL    HW230424   4.713   2.604   6.924
 4428SOL     OW30425   5.151   0.670   6.647
 4428SOL    HW130426   5.130   0.707   6.732
 4428SOL    HW230427   5.068   0.636   6.614
 4429SOL     OW30428   6.164   5.439   0.965
 4429SOL    HW130429   6.220   5.369   0.998
 4429SOL    HW230430   6.084   5.395   0.937
 4430SOL     OW30431   3.147   2.668   1.368
 4430SOL    HW130432   3.123   2.671   1.460
 4430SOL    HW230433   3.096   2.596   1.332
 4431SOL     OW30434   2.077   2.700   6.168
 4431SOL    HW130435   2.131   2.683   6.246
 4431SOL    HW230436   2.119   2.775   6.126
 4432SOL     OW30437   2.572   1.930   0.412
 4432SOL    HW130438   2.512   1.860   0.389
 4432SOL    HW230439   2.519   2.010   0.409
 4433SOL     OW30440   4.386   5.499   0.462
 4433SOL    HW130441   4.392   5.507   0.557
 4433SOL    HW230442   4.305   5.546   0.440
 4434SOL     OW30443   2.815   3.897   1.544
 4434SOL    HW130444   2.797   3.811   1.508
 4434SOL    HW230445   2.871   3.881   1.620
 4435SOL     OW30446   5.538   2.254   2.510
 4435SOL    HW130447   5.551   2.332   2.563
 4435SOL    HW230448   5.610   2.196   2.534
 4436SOL     OW30449   0.753   0.621   0.828
 4436SOL    HW130450   0.719   0.542   0.870
 4436SOL    HW230451   0.763   0.683   0.901
 4437SOL     OW30452   3.529   4.413   7.514
 4437SOL    HW130453   3.467   4.393   7.444
 4437SOL    HW230454   3.474   4.434   7.589
 4438SOL     OW30455   0.805   5.167   0.011
 4438SOL    HW130456   0.857   5.237   7.733
 4438SOL    HW230457   0.838   5.087   7.733
 4439SOL     OW30458   1.858   6.082   7.547
 4439SOL    HW130459   1.798   6.078   7.621
 4439SOL    HW230460   1.816   6.030   7.479
 4440SOL     OW30461   1.997   3.519   0.366
 4440SOL    HW130462   2.017   3.595   0.421
 4440SOL    HW230463   2.035   3.541   0.281
 4441SOL     OW30464   3.670   5.272   0.206
 4441SOL    HW130465   3.582   5.283   0.170
 4441SOL    HW230466   3.679   5.342   0.271
 4442SOL     OW30467   5.686   4.547   2.123
 4442SOL    HW130468   5.779   4.525   2.126
 4442SOL    HW230469   5.643   4.478   2.173
 4443SOL     OW30470   1.178   1.953   7.058
 4443SOL    HW130471   1.136   2.014   6.998
 4443SOL    HW230472   1.129   1.871   7.047
 4444SOL     OW30473   6.288   4.437   0.766
 4444SOL    HW130474   6.239   4.362   0.800
 4444SOL    HW230475   6.305   4.491   0.843
 4445SOL     OW30476   4.114   5.433   5.043
 4445SOL    HW130477   4.072   5.498   4.986
 4445SOL    HW230478   4.136   5.481   5.122
 4446SOL     OW30479   2.967   3.897   2.291
 4446SOL    HW130480   3.021   3.836   2.241
 4446SOL    HW230481   2.893   3.844   2.321
 4447SOL     OW30482   6.357   2.873   2.468
 4447SOL    HW130483   6.281   2.925   2.445
 4447SOL    HW230484   6.331   2.782   2.452
 4448SOL     OW30485   5.181   5.682   1.754
 4448SOL    HW130486   5.098   5.637   1.738
 4448SOL    HW230487   5.209   5.651   1.839
 4449SOL     OW30488   0.670   2.618   6.823
 4449SOL    HW130489   0.609   2.592   6.754
 4449SOL    HW230490   0.661   2.550   6.890
 4450SOL     OW30491   5.816   5.798   6.722
 4450SOL    HW130492   5.795   5.890   6.710
 4450SOL    HW230493   5.910   5.796   6.738
 4451SOL     OW30494   5.828   5.404   0.214
 4451SOL    HW130495   5.915   5.444   0.214
 4451SOL    HW230496   5.813   5.377   0.123
 4452SOL     OW30497   6.103   4.155   5.942
 4452SOL    HW130498   6.109   4.228   5.880
 4452SOL    HW230499   6.032   4.180   6.001
 4453SOL     OW30500   4.810   5.411   1.397
 4453SOL    HW130501   4.849   5.456   1.472
 4453SOL    HW230502   4.734   5.366   1.433
 4454SOL     OW30503   4.826   5.384   0.671
 4454SOL    HW130504   4.906   5.336   0.693
 4454SOL    HW230505   4.818   5.449   0.741
 4455SOL     OW30506   0.905   5.894   5.737
 4455SOL    HW130507   0.821   5.878   5.779
 4455SOL    HW230508   0.944   5.807   5.728
 4456SOL     OW30509   2.074   3.923   7.315
 4456SOL    HW130510   2.039   4.006   7.349
 4456SOL    HW230511   1.997   3.872   7.291
 4457SOL     OW30512   0.296   1.492   7.345
 4457SOL    HW130513   0.264   1.547   7.417
 4457SOL    HW230514   0.280   1.544   7.267
 4458SOL     OW30515   0.455   1.272   1.505
 4458SOL    HW130516   0.360   1.272   1.507
 4458SOL    HW230517   0.478   1.309   1.419
 4459SOL     OW30518   3.045   3.188   6.206
 4459SOL    HW130519   3.052   3.115   6.268
 4459SOL    HW230520   3.061   3.148   6.121
 4460SOL     OW30521   2.391   1.437   6.616
 4460SOL    HW130522   2.461   1.371   6.616
 4460SOL    HW230523   2.351   1.431   6.530
 4461SOL     OW30524   5.452   4.761   0.867
 4461SOL    HW130525   5.410   4.827   0.812
 4461SOL    HW230526   5.380   4.703   0.894
 4462SOL     OW30527   4.885   5.396   6.160
 4462SOL    HW130528   4.812   5.351   6.203
 4462SOL    HW230529   4.844   5.454   6.096
 4463SOL     OW30530   1.899   0.440   4.919
 4463SOL    HW130531   1.847   0.459   4.842
 4463SOL    HW230532   1.841   0.390   4.977
 4464SOL     OW30533   0.488   5.290   2.100
 4464SOL    HW130534   0.424   5.354   2.068
 4464SOL    HW230535   0.573   5.326   2.074
 4465SOL     OW30536   1.945   5.254   6.831
 4465SOL    HW130537   2.022   5.300   6.865
 4465SOL    HW230538   1.937   5.177   6.886
 4466SOL     OW30539   6.259   0.053   1.122
 4466SOL    HW130540   6.239   0.085   1.210
 4466SOL    HW230541   6.181   0.075   1.071
 4467SOL     OW30542   6.333   3.453   7.420
 4467SOL    HW130543   6.386   3.532   7.416
 4467SOL    HW230544   6.381   3.394   7.478
 4468SOL     OW30545   4.209   3.771   2.577
 4468SOL    HW130546   4.267   3.769   2.653
 4468SOL    HW230547   4.124   3.798   2.612
 4469SOL     OW30548   5.973   3.307   2.397
 4469SOL    HW130549   6.057   3.263   2.390
 4469SOL    HW230550   5.967   3.334   2.489
 4470SOL     OW30551   5.737   6.389   6.800
 4470SOL    HW130552   5.806   6.347   6.852
 4470SOL    HW230553   5.656   6.351   6.834
 4471SOL     OW30554   5.356   3.684   6.810
 4471SOL    HW130555   5.345   3.689   6.715
 4471SOL    HW230556   5.347   3.591   6.830
 4472SOL     OW30557   4.098   4.641   7.141
 4472SOL    HW130558   4.047   4.562   7.164
 4472SOL    HW230559   4.055   4.711   7.190
 4473SOL     OW30560   4.461   3.755   0.510
 4473SOL    HW130561   4.412   3.761   0.428
 4473SOL    HW230562   4.413   3.691   0.563
 4474SOL     OW30563   1.405   3.496   0.236
 4474SOL    HW130564   1.499   3.500   0.253
 4474SOL    HW230565   1.388   3.568   0.175
 4475SOL     OW30566   5.485   1.469   7.549
 4475SOL    HW130567   5.532   1.386   7.556
 4475SOL    HW230568   5.516   1.521   7.623
 4476SOL     OW30569   2.497   4.166   7.477
 4476SOL    HW130570   2.439   4.218   7.533
 4476SOL    HW230571   2.439   4.112   7.425
 4477SOL     OW30572   6.437   6.255   0.797
 4477SOL    HW130573   6.351   6.240   0.836
 4477SOL    HW230574   0.007   6.268   0.872
 4478SOL     OW30575   2.242   3.695   7.170
 4478SOL    HW130576   2.179   3.646   7.117
 4478SOL    HW230577   2.215   3.786   7.161
 4479SOL     OW30578   2.251   5.926   5.168
 4479SOL    HW130579   2.229   5.871   5.093
 4479SOL    HW230580   2.262   6.014   5.131
 4480SOL     OW30581   2.719   5.673   2.263
 4480SOL    HW130582   2.627   5.700   2.262
 4480SOL    HW230583   2.766   5.746   2.224
 4481SOL     OW30584   5.823   3.572   1.237
 4481SOL    HW130585   5.769   3.585   1.160
 4481SOL    HW230586   5.766   3.524   1.298
 4482SOL     OW30587   2.284   3.222   7.282
 4482SOL    HW130588   2.340   3.244   7.207
 4482SOL    HW230589   2.332   3.255   7.358
 4483SOL     OW30590   1.518   0.765   6.559
 4483SOL    HW130591   1.545   0.675   6.536
 4483SOL    HW230592   1.599   0.806   6.591
 4484SOL     OW30593   5.398   1.954   7.294
 4484SOL    HW130594   5.415   1.944   7.201
 4484SOL    HW230595   5.390   1.864   7.327
 4485SOL     OW30596   3.728   4.202   0.047
 4485SOL    HW130597   3.717   4.296   0.033
 4485SOL    HW230598   3.750   4.194   0.140
 4486SOL     OW30599   2.398   4.619   7.406
 4486SOL    HW130600   2.403   4.709   7.439
 4486SOL    HW230601   2.487   4.585   7.416
 4487SOL     OW30602   1.496   0.759   6.189
 4487SOL    HW130603   1.408   0.796   6.177
 4487SOL    HW230604   1.544   0.784   6.111
 4488SOL     OW30605   3.161   3.947   6.720
 4488SOL    HW130606   3.241   3.992   6.748
 4488SOL    HW230607   3.095   3.973   6.784
 4489SOL     OW30608   1.996   3.109   6.407
 4489SOL    HW130609   2.044   3.147   6.333
 4489SOL    HW230610   1.916   3.162   6.412
 4490SOL     OW30611   4.061   5.753   5.998
 4490SOL    HW130612   4.153   5.773   6.019
 4490SOL    HW230613   4.040   5.812   5.926
 4491SOL     OW30614   1.098   4.423   1.903
 4491SOL    HW130615   1.146   4.396   1.982
 4491SOL    HW230616   1.146   4.384   1.831
 4492SOL     OW30617   6.330   0.377   7.096
 4492SOL    HW130618   6.278   0.456   7.082
 4492SOL    HW230619   6.277   0.307   7.056
 4493SOL     OW30620   0.561   4.285   6.856
 4493SOL    HW130621   0.532   4.231   6.929
 4493SOL    HW230622   0.649   4.314   6.880
 4494SOL     OW30623   5.487   2.481   1.559
 4494SOL    HW130624   5.533   2.556   1.523
 4494SOL    HW230625   5.533   2.405   1.525
 4495SOL     OW30626   2.789   2.345   1.969
 4495SOL    HW130627   2.856   2.328   1.903
 4495SOL    HW230628   2.807   2.434   1.999
 4496SOL     OW30629   5.969   1.108   1.813
 4496SOL    HW130630   5.960   1.013   1.809
 4496SOL    HW230631   5.964   1.136   1.722
 4497SOL     OW30632   6.488   6.429   7.742
 4497SOL    HW130633   0.061   6.361   7.713
 4497SOL    HW230634   0.048   6.479   0.046
 4498SOL     OW30635   5.810   4.086   1.801
 4498SOL    HW130636   5.814   4.134   1.883
 4498SOL    HW230637   5.898   4.095   1.764
 4499SOL     OW30638   4.360   5.714   0.889
 4499SOL    HW130639   4.281   5.768   0.895
 4499SOL    HW230640   4.431   5.777   0.873
 4500SOL     OW30641   6.156   1.401   6.876
 4500SOL    HW130642   6.244   1.364   6.881
 4500SOL    HW230643   6.171   1.495   6.870
 4501SOL     OW30644   1.339   5.824   0.379
 4501SOL    HW130645   1.317   5.777   0.459
 4501SOL    HW230646   1.402   5.890   0.406
 4502SOL     OW30647   0.816   0.192   2.291
 4502SOL    HW130648   0.835   0.254   2.361
 4502SOL    HW230649   0.845   0.236   2.211
 4503SOL     OW30650   2.541   1.193   1.019
 4503SOL    HW130651   2.546   1.158   0.930
 4503SOL    HW230652   2.569   1.285   1.010
 4504SOL     OW30653   0.257   4.858   1.100
 4504SOL    HW130654   0.259   4.771   1.140
 4504SOL    HW230655   0.339   4.899   1.126
 4505SOL     OW30656   3.846   6.029   1.567
 4505SOL    HW130657   3.936   6.060   1.576
 4505SOL    HW230658   3.803   6.055   1.649
 4506SOL     OW30659   3.268   4.819   0.104
 4506SOL    HW130660   3.352   4.776   0.093
 4506SOL    HW230661   3.203   4.754   0.075
 4507SOL     OW30662   1.240   0.852   6.636
 4507SOL    HW130663   1.177   0.919   6.662
 4507SOL    HW230664   1.324   0.898   6.636
 4508SOL     OW30665   0.594   4.521   7.071
 4508SOL    HW130666   0.569   4.582   7.141
 4508SOL    HW230667   0.659   4.464   7.111
 4509SOL     OW30668   0.136   3.895   5.559
 4509SOL    HW130669   0.122   3.859   5.646
 4509SOL    HW230670   0.136   3.819   5.501
 4510SOL     OW30671   4.912   4.512   1.590
 4510SOL    HW130672   4.884   4.424   1.566
 4510SOL    HW230673   5.008   4.509   1.585
 4511SOL     OW30674   5.546   3.153   5.605
 4511SOL    HW130675   5.603   3.077   5.620
 4511SOL    HW230676   5.568   3.213   5.676
 4512SOL     OW30677   2.836   4.629   1.811
 4512SOL    HW130678   2.877   4.700   1.861
 4512SOL    HW230679   2.750   4.618   1.850
 4513SOL     OW30680   6.445   6.003   1.669
 4513SOL    HW130681   6.459   6.096   1.650
 4513SOL    HW230682   6.397   5.970   1.592
 4514SOL     OW30683   2.282   5.460   0.704
 4514SOL    HW130684   2.342   5.385   0.700
 4514SOL    HW230685   2.333   5.533   0.667
 4515SOL     OW30686   0.673   1.403   7.426
 4515SOL    HW130687   0.618   1.343   7.376
 4515SOL    HW230688   0.754   1.408   7.376
 4516SOL     OW30689   0.910   3.204   5.263
 4516SOL    HW130690   0.898   3.179   5.355
 4516SOL    HW230691   0.832   3.170   5.218
 4517SOL     OW30692   2.367   5.344   6.039
 4517SOL    HW130693   2.310   5.272   6.013
 4517SOL    HW230694   2.307   5.416   6.059
 4518SOL     OW30695   3.829   1.172   6.592
 4518SOL    HW130696   3.846   1.196   6.501
 4518SOL    HW230697   3.772   1.242   6.625
 4519SOL     OW30698   0.256   4.321   5.742
 4519SOL    HW130699   0.187   4.263   5.710
 4519SOL    HW230700   0.281   4.284   5.827
 4520SOL     OW30701   4.014   2.330   0.241
 4520SOL    HW130702   4.027   2.424   0.252
 4520SOL    HW230703   3.921   2.316   0.260
 4521SOL     OW30704   0.230   2.358   1.293
 4521SOL    HW130705   0.159   2.393   1.347
 4521SOL    HW230706   0.305   2.415   1.310
 4522SOL     OW30707   0.431   3.857   5.811
 4522SOL    HW130708   0.463   3.835   5.724
 4522SOL    HW230709   0.497   3.917   5.846
 4523SOL     OW30710   4.448   4.379   6.457
 4523SOL    HW130711   4.426   4.440   6.386
 4523SOL    HW230712   4.409   4.296   6.430
 4524SOL     OW30713   3.126   1.653   6.964
 4524SOL    HW130714   3.133   1.557   6.970
 4524SOL    HW230715   3.113   1.682   7.055
 4525SOL     OW30716   5.946   2.138   0.720
 4525SOL    HW130717   6.011   2.069   0.713
 4525SOL    HW230718   5.867   2.101   0.682
 4526SOL     OW30719   5.577   4.447   0.733
 4526SOL    HW130720   5.522   4.511   0.687
 4526SOL    HW230721   5.534   4.363   0.718
 4527SOL     OW30722   3.285   1.295   0.038
 4527SOL    HW130723   3.305   1.246   0.118
 4527SOL    HW230724   3.217   1.357   0.065
 4528SOL     OW30725   2.200   2.981   6.513
 4528SOL    HW130726   2.130   3.030   6.468
 4528SOL    HW230727   2.211   3.027   6.597
 4529SOL     OW30728   3.738   2.482   0.747
 4529SOL    HW130729   3.815   2.497   0.693
 4529SOL    HW230730   3.681   2.427   0.693
 4530SOL     OW30731   2.670   6.201   6.591
 4530SOL    HW130732   2.588   6.211   6.638
 4530SOL    HW230733   2.663   6.116   6.548
 4531SOL     OW30734   5.738   3.701   7.038
 4531SOL    HW130735   5.687   3.782   7.051
 4531SOL    HW230736   5.829   3.730   7.035
 4532SOL     OW30737   0.860   6.344   1.998
 4532SOL    HW130738   0.909   6.421   2.024
 4532SOL    HW230739   0.893   6.322   1.911
 4533SOL     OW30740   1.675   4.086   1.353
 4533SOL    HW130741   1.750   4.107   1.409
 4533SOL    HW230742   1.651   4.169   1.312
 4534SOL     OW30743   0.211   6.485   0.720
 4534SOL    HW130744   0.196   6.487   0.625
 4534SOL    HW230745   0.124   0.009   0.758
 4535SOL     OW30746   4.305   5.587   5.990
 4535SOL    HW130747   4.379   5.593   6.050
 4535SOL    HW230748   4.337   5.626   5.908
 4536SOL     OW30749   0.259   1.555   1.543
 4536SOL    HW130750   0.236   1.462   1.543
 4536SOL    HW230751   0.353   1.556   1.562
 4537SOL     OW30752   4.025   0.728   1.257
 4537SOL    HW130753   4.094   0.784   1.291
 4537SOL    HW230754   4.024   0.652   1.315
 4538SOL     OW30755   3.830   4.841   7.477
 4538SOL    HW130756   3.806   4.757   7.516
 4538SOL    HW230757   3.886   4.819   7.403
 4539SOL     OW30758   1.077   2.540   0.752
 4539SOL    HW130759   1.023   2.462   0.768
 4539SOL    HW230760   1.091   2.578   0.838
 4540SOL     OW30761   2.320   3.182   6.104
 4540SOL    HW130762   2.302   3.264   6.058
 4540SOL    HW230763   2.285   3.196   6.192
 4541SOL     OW30764   2.837   0.272   5.568
 4541SOL    HW130765   2.919   0.280   5.617
 4541SOL    HW230766   2.860   0.223   5.490
 4542SOL     OW30767   2.389   1.212   6.349
 4542SOL    HW130768   2.392   1.285   6.287
 4542SOL    HW230769   2.296   1.188   6.353
 4543SOL     OW30770   3.451   1.974   5.438
 4543SOL    HW130771   3.477   2.066   5.447
 4543SOL    HW230772   3.503   1.942   5.364
 4544SOL     OW30773   5.340   3.025   1.459
 4544SOL    HW130774   5.417   2.971   1.477
 4544SOL    HW230775   5.367   3.114   1.483
 4545SOL     OW30776   1.094   2.189   6.575
 4545SOL    HW130777   1.134   2.251   6.514
 4545SOL    HW230778   1.164   2.166   6.635
 4546SOL     OW30779   5.785   4.995   0.011
 4546SOL    HW130780   5.825   5.018   0.095
 4546SOL    HW230781   5.729   4.920   0.031
 4547SOL     OW30782   4.482   6.061   0.661
 4547SOL    HW130783   4.573   6.069   0.631
 4547SOL    HW230784   4.490   6.023   0.749
 4548SOL     OW30785   6.042   2.982   1.589
 4548SOL    HW130786   6.103   2.947   1.525
 4548SOL    HW230787   6.097   3.009   1.663
 4549SOL     OW30788   5.806   2.374   1.639
 4549SOL    HW130789   5.788   2.365   1.733
 4549SOL    HW230790   5.734   2.328   1.597
 4550SOL     OW30791   4.861   0.184   1.275
 4550SOL    HW130792   4.904   0.098   1.282
 4550SOL    HW230793   4.851   0.198   1.181
 4551SOL     OW30794   4.043   2.458   7.724
 4551SOL    HW130795   4.128   2.421   7.746
 4551SOL    HW230796   3.985   2.431   0.034
 4552SOL     OW30797   5.043   3.820   2.378
 4552SOL    HW130798   5.009   3.742   2.336
 4552SOL    HW230799   5.109   3.788   2.439
 4553SOL     OW30800   2.338   4.036   0.362
 4553SOL    HW130801   2.429   4.062   0.366
 4553SOL    HW230802   2.329   3.970   0.431
 4554SOL     OW30803   1.379   1.562   1.169
 4554SOL    HW130804   1.329   1.591   1.245
 4554SOL    HW230805   1.313   1.542   1.103
 4555SOL     OW30806   0.969   5.290   6.431
 4555SOL    HW130807   0.894   5.248   6.474
 4555SOL    HW230808   0.989   5.365   6.487
 4556SOL     OW30809   5.704   3.268   0.202
 4556SOL    HW130810   5.623   3.306   0.238
 4556SOL    HW230811   5.774   3.311   0.251
 4557SOL     OW30812   4.975   0.565   6.994
 4557SOL    HW130813   4.958   0.498   7.061
 4557SOL    HW230814   4.889   0.603   6.976
 4558SOL     OW30815   4.008   3.194   1.072
 4558SOL    HW130816   4.004   3.099   1.069
 4558SOL    HW230817   4.085   3.214   1.125
 4559SOL     OW30818   2.211   3.371   1.578
 4559SOL    HW130819   2.301   3.402   1.584
 4559SOL    HW230820   2.186   3.353   1.669
 4560SOL     OW30821   3.845   1.692   0.785
 4560SOL    HW130822   3.846   1.596   0.789
 4560SOL    HW230823   3.937   1.717   0.789
 4561SOL     OW30824   3.998   3.011   1.380
 4561SOL    HW130825   3.984   2.924   1.419
 4561SOL    HW230826   4.011   3.068   1.456
 4562SOL     OW30827   4.324   1.889   7.664
 4562SOL    HW130828   4.361   1.801   7.659
 4562SOL    HW230829   4.271   1.888   7.744
 4563SOL     OW30830   0.523   4.250   0.573
 4563SOL    HW130831   0.489   4.315   0.634
 4563SOL    HW230832   0.445   4.208   0.537
 4564SOL     OW30833   4.964   3.755   1.367
 4564SOL    HW130834   5.038   3.717   1.415
 4564SOL    HW230835   4.940   3.832   1.419
 4565SOL     OW30836   4.715   5.214   1.046
 4565SOL    HW130837   4.636   5.238   0.997
 4565SOL    HW230838   4.744   5.296   1.086
 4566SOL     OW30839   4.066   4.906   1.852
 4566SOL    HW130840   4.135   4.856   1.896
 4566SOL    HW230841   4.048   4.980   1.910
 4567SOL     OW30842   3.715   3.484   7.233
 4567SOL    HW130843   3.659   3.485   7.155
 4567SOL    HW230844   3.803   3.499   7.199
 4568SOL     OW30845   5.708   4.087   1.223
 4568SOL    HW130846   5.661   4.128   1.150
 4568SOL    HW230847   5.642   4.081   1.292
 4569SOL     OW30848   1.502   2.592   7.464
 4569SOL    HW130849   1.541   2.643   7.393
 4569SOL    HW230850   1.564   2.601   7.537
 4570SOL     OW30851   3.417   6.174   6.242
 4570SOL    HW130852   3.476   6.219   6.303
 4570SOL    HW230853   3.472   6.155   6.165
 4571SOL     OW30854   6.059   4.584   0.635
 4571SOL    HW130855   6.123   4.523   0.672
 4571SOL    HW230856   6.110   4.639   0.575
 4572SOL     OW30857   2.055   0.491   6.259
 4572SOL    HW130858   2.032   0.540   6.337
 4572SOL    HW230859   2.132   0.536   6.223
 4573SOL     OW30860   2.160   5.628   1.722
 4573SOL    HW130861   2.225   5.571   1.682
 4573SOL    HW230862   2.151   5.702   1.662
 4574SOL     OW30863   0.137   3.894   7.340
 4574SOL    HW130864   0.142   3.849   7.255
 4574SOL    HW230865   0.209   3.958   7.338
 4575SOL     OW30866   2.982   5.408   6.005
 4575SOL    HW130867   2.911   5.381   5.947
 4575SOL    HW230868   2.958   5.373   6.091
 4576SOL     OW30869   6.478   0.065   0.892
 4576SOL    HW130870   6.394   0.044   0.933
 4576SOL    HW230871   0.042   0.103   0.963
 4577SOL     OW30872   2.166   3.622   5.788
 4577SOL    HW130873   2.138   3.668   5.868
 4577SOL    HW230874   2.160   3.688   5.719
 4578SOL     OW30875   5.044   4.984   0.381
 4578SOL    HW130876   5.050   5.078   0.365
 4578SOL    HW230877   4.976   4.976   0.449
 4579SOL     OW30878   3.449   0.227   0.753
 4579SOL    HW130879   3.448   0.156   0.689
 4579SOL    HW230880   3.542   0.247   0.765
 4580SOL     OW30881   3.199   4.753   7.140
 4580SOL    HW130882   3.118   4.803   7.150
 4580SOL    HW230883   3.228   4.772   7.051
 4581SOL     OW30884   4.481   0.517   7.630
 4581SOL    HW130885   4.516   0.428   7.641
 4581SOL    HW230886   4.418   0.527   7.701
 4582SOL     OW30887   2.466   4.427   2.325
 4582SOL    HW130888   2.382   4.392   2.355
 4582SOL    HW230889   2.525   4.415   2.399
 4583SOL     OW30890   6.253   1.514   0.286
 4583SOL    HW130891   6.344   1.542   0.293
 4583SOL    HW230892   6.254   1.443   0.222
 4584SOL     OW30893   3.287   3.026   2.042
 4584SOL    HW130894   3.320   2.967   2.109
 4584SOL    HW230895   3.294   2.976   1.960
 4585SOL     OW30896   3.041   0.552   0.530
 4585SOL    HW130897   2.973   0.599   0.578
 4585SOL    HW230898   3.107   0.618   0.510
 4586SOL     OW30899   1.921   5.053   0.478
 4586SOL    HW130900   1.967   5.129   0.442
 4586SOL    HW230901   1.836   5.053   0.435
 4587SOL     OW30902   1.006   4.872   5.930
 4587SOL    HW130903   1.005   4.789   5.978
 4587SOL    HW230904   1.089   4.913   5.955
 4588SOL     OW30905   5.710   6.046   7.023
 4588SOL    HW130906   5.790   6.002   6.992
 4588SOL    HW230907   5.660   6.061   6.943
 4589SOL     OW30908   4.328   0.596   6.699
 4589SOL    HW130909   4.298   0.551   6.619
 4589SOL    HW230910   4.331   0.527   6.765
 4590SOL     OW30911   5.373   4.880   7.566
 4590SOL    HW130912   5.436   4.810   7.549
 4590SOL    HW230913   5.310   4.842   7.627
 4591SOL     OW30914   1.820   2.717   7.041
 4591SOL    HW130915   1.899   2.769   7.058
 4591SOL    HW230916   1.826   2.644   7.102
 4592SOL     OW30917   6.084   0.520   7.114
 4592SOL    HW130918   6.048   0.436   7.086
 4592SOL    HW230919   6.137   0.549   7.041
 4593SOL     OW30920   2.333   0.287   4.816
 4593SOL    HW130921   2.281   0.351   4.864
 4593SOL    HW230922   2.291   0.281   4.730
 4594SOL     OW30923   1.782   4.729   0.785
 4594SOL    HW130924   1.760   4.636   0.794
 4594SOL    HW230925   1.863   4.729   0.734
 4595SOL     OW30926   0.686   3.232   1.577
 4595SOL    HW130927   0.732   3.251   1.659
 4595SOL    HW230928   0.747   3.179   1.526
 4596SOL     OW30929   5.038   5.517   0.427
 4596SOL    HW130930   5.058   5.433   0.387
 4596SOL    HW230931   5.118   5.568   0.419
 4597SOL     OW30932   5.462   2.618   7.694
 4597SOL    HW130933   5.498   2.654   7.613
 4597SOL    HW230934   5.442   2.527   7.674
 4598SOL     OW30935   0.271   0.367   5.849
 4598SOL    HW130936   0.176   0.368   5.844
 4598SOL    HW230937   0.298   0.452   5.814
 4599SOL     OW30938   3.174   3.834   7.188
 4599SOL    HW130939   3.177   3.928   7.169
 4599SOL    HW230940   3.242   3.796   7.132
 4600SOL     OW30941   0.755   1.175   1.060
 4600SOL    HW130942   0.777   1.261   1.097
 4600SOL    HW230943   0.796   1.112   1.119
 4601SOL     OW30944   0.911   3.532   0.115
 4601SOL    HW130945   0.996   3.572   0.135
 4601SOL    HW230946   0.879   3.500   0.199
 4602SOL     OW30947   0.846   4.521   1.812
 4602SOL    HW130948   0.934   4.484   1.816
 4602SOL    HW230949   0.844   4.586   1.882
 4603SOL     OW30950   5.895   1.791   1.657
 4603SOL    HW130951   5.853   1.706   1.661
 4603SOL    HW230952   5.835   1.849   1.704
 4604SOL     OW30953   4.840   1.498   5.848
 4604SOL    HW130954   4.751   1.485   5.879
 4604SOL    HW230955   4.875   1.410   5.838
 4605SOL     OW30956   1.083   1.294   0.506
 4605SOL    HW130957   1.032   1.370   0.478
 4605SOL    HW230958   1.168   1.330   0.531
 4606SOL     OW30959   5.329   2.744   1.276
 4606SOL    HW130960   5.261   2.789   1.226
 4606SOL    HW230961   5.384   2.815   1.311
 4607SOL     OW30962   5.699   0.180   5.392
 4607SOL    HW130963   5.611   0.160   5.423
 4607SOL    HW230964   5.720   0.264   5.432
 4608SOL     OW30965   0.542   5.908   6.381
 4608SOL    HW130966   0.614   5.952   6.426
 4608SOL    HW230967   0.475   5.975   6.370
 4609SOL     OW30968   5.731   5.773   0.862
 4609SOL    HW130969   5.666   5.745   0.925
 4609SOL    HW230970   5.813   5.736   0.894
 4610SOL     OW30971   4.895   3.683   7.372
 4610SOL    HW130972   4.896   3.765   7.323
 4610SOL    HW230973   4.983   3.679   7.412
 4611SOL     OW30974   6.229   6.108   7.397
 4611SOL    HW130975   6.142   6.145   7.381
 4611SOL    HW230976   6.231   6.090   7.490
 4612SOL     OW30977   1.497   4.748   5.663
 4612SOL    HW130978   1.498   4.827   5.609
 4612SOL    HW230979   1.506   4.676   5.601
 4613SOL     OW30980   6.102   1.805   0.404
 4613SOL    HW130981   6.179   1.856   0.432
 4613SOL    HW230982   6.133   1.715   0.402
 4614SOL     OW30983   1.367   5.017   0.548
 4614SOL    HW130984   1.455   4.978   0.552
 4614SOL    HW230985   1.382   5.111   0.556
 4615SOL     OW30986   1.195   3.246   0.534
 4615SOL    HW130987   1.250   3.220   0.608
 4615SOL    HW230988   1.215   3.339   0.521
 4616SOL     OW30989   0.195   3.760   6.970
 4616SOL    HW130990   0.217   3.710   7.048
 4616SOL    HW230991   0.143   3.699   6.916
 4617SOL     OW30992   0.037   6.105   5.633
 4617SOL    HW130993   0.132   6.112   5.628
 4617SOL    HW230994   0.005   6.189   5.601
 4618SOL     OW30995   0.299   2.109   0.741
 4618SOL    HW130996   0.355   2.177   0.777
 4618SOL    HW230997   0.210   2.142   0.753
 4619SOL     OW30998   4.657   4.062   7.405
 4619SOL    HW130999   4.710   4.118   7.348
 4619SOL    HW231000   4.580   4.039   7.353
 4620SOL     OW31001   0.680   0.327   0.383
 4620SOL    HW131002   0.715   0.256   0.437
 4620SOL    HW231003   0.746   0.397   0.391
 4621SOL     OW31004   5.781   5.285   0.462
 4621SOL    HW131005   5.816   5.305   0.375
 4621SOL    HW231006   5.790   5.190   0.471
 4622SOL     OW31007   0.101   3.024   2.109
 4622SOL    HW131008   0.188   2.986   2.094
 4622SOL    HW231009   0.090   3.021   2.204
 4623SOL     OW31010   4.735   2.687   1.600
 4623SOL    HW131011   4.774   2.646   1.523
 4623SOL    HW231012   4.681   2.758   1.564
 4624SOL     OW31013   2.696   5.727   7.119
 4624SOL    HW131014   2.690   5.805   7.064
 4624SOL    HW231015   2.606   5.705   7.140
 4625SOL     OW31016   2.005   3.225   6.769
 4625SOL    HW131017   1.923   3.198   6.809
 4625SOL    HW231018   1.987   3.310   6.730
 4626SOL     OW31019   3.761   2.253   0.380
 4626SOL    HW131020   3.711   2.176   0.349
 4626SOL    HW231021   3.838   2.216   0.422
 4627SOL     OW31022   0.972   5.122   5.738
 4627SOL    HW131023   0.990   5.058   5.669
 4627SOL    HW231024   0.967   5.070   5.818
 4628SOL     OW31025   1.377   0.027   6.460
 4628SOL    HW131026   1.310   6.484   6.522
 4628SOL    HW231027   1.453   6.461   6.478
 4629SOL     OW31028   1.024   1.162   7.420
 4629SOL    HW131029   1.014   1.089   7.358
 4629SOL    HW231030   1.117   1.183   7.417
 4630SOL     OW31031   0.010   1.104   0.767
 4630SOL    HW131032   6.445   1.035   0.726
 4630SOL    HW231033   6.438   1.178   0.777
 4631SOL     OW31034   3.687   1.859   1.538
 4631SOL    HW131035   3.677   1.936   1.594
 4631SOL    HW231036   3.677   1.894   1.449
 4632SOL     OW31037   4.442   3.066   1.151
 4632SOL    HW131038   4.461   3.112   1.069
 4632SOL    HW231039   4.505   2.994   1.153
 4633SOL     OW31040   5.859   0.205   5.149
 4633SOL    HW131041   5.792   0.188   5.215
 4633SOL    HW231042   5.848   0.135   5.086
 4634SOL     OW31043   6.361   3.854   1.393
 4634SOL    HW131044   6.325   3.887   1.475
 4634SOL    HW231045   6.455   3.875   1.398
 4635SOL     OW31046   4.166   5.675   0.450
 4635SOL    HW131047   4.107   5.679   0.375
 4635SOL    HW231048   4.223   5.752   0.439
 4636SOL     OW31049   1.586   4.389   1.459
 4636SOL    HW131050   1.529   4.416   1.531
 4636SOL    HW231051   1.547   4.428   1.381
 4637SOL     OW31052   0.620   3.156   1.882
 4637SOL    HW131053   0.525   3.162   1.889
 4637SOL    HW231054   0.643   3.075   1.929
 4638SOL     OW31055   5.604   3.293   0.891
 4638SOL    HW131056   5.539   3.282   0.822
 4638SOL    HW231057   5.577   3.232   0.960
 4639SOL     OW31058   4.287   0.827   6.841
 4639SOL    HW131059   4.285   0.752   6.781
 4639SOL    HW231060   4.367   0.874   6.818
 4640SOL     OW31061   3.973   2.539   1.790
 4640SOL    HW131062   3.961   2.634   1.796
 4640SOL    HW231063   4.022   2.516   1.868
 4641SOL     OW31064   6.243   3.358   7.196
 4641SOL    HW131065   6.280   3.274   7.223
 4641SOL    HW231066   6.273   3.420   7.262
 4642SOL     OW31067   0.306   1.891   0.087
 4642SOL    HW131068   0.339   1.949   0.155
 4642SOL    HW231069   0.348   1.922   0.006
 4643SOL     OW31070   5.246   3.084   1.199
 4643SOL    HW131071   5.254   3.066   1.293
 4643SOL    HW231072   5.194   3.011   1.165
 4644SOL     OW31073   0.158   4.093   7.659
 4644SOL    HW131074   0.087   4.066   7.718
 4644SOL    HW231075   0.135   4.054   7.575
 4645SOL     OW31076   2.274   4.974   0.311
 4645SOL    HW131077   2.272   4.942   0.221
 4645SOL    HW231078   2.362   4.953   0.342
 4646SOL     OW31079   2.203   5.452   0.351
 4646SOL    HW131080   2.209   5.368   0.398
 4646SOL    HW231081   2.158   5.510   0.412
 4647SOL     OW31082   0.354   3.461   0.821
 4647SOL    HW131083   0.405   3.534   0.857
 4647SOL    HW231084   0.263   3.490   0.826
 4648SOL     OW31085   6.280   1.925   6.818
 4648SOL    HW131086   6.319   1.979   6.886
 4648SOL    HW231087   6.197   1.969   6.798
 4649SOL     OW31088   1.118   1.926   0.244
 4649SOL    HW131089   1.109   1.837   0.208
 4649SOL    HW231090   1.149   1.978   0.170
 4650SOL     OW31091   2.157   6.369   5.930
 4650SOL    HW131092   2.067   6.350   5.956
 4650SOL    HW231093   2.184   6.294   5.877
 4651SOL     OW31094   5.975   6.442   7.195
 4651SOL    HW131095   5.909   0.013   7.159
 4651SOL    HW231096   5.926   6.362   7.215
 4652SOL     OW31097   2.266   2.176   1.636
 4652SOL    HW131098   2.246   2.132   1.718
 4652SOL    HW231099   2.266   2.269   1.658
 4653SOL     OW31100   6.393   2.603   1.368
 4653SOL    HW131101   6.415   2.521   1.412
 4653SOL    HW231102   6.424   2.591   1.278
 4654SOL     OW31103   1.016   0.985   6.278
 4654SOL    HW131104   0.973   1.068   6.257
 4654SOL    HW231105   0.953   0.918   6.251
 4655SOL     OW31106   2.500   1.190   7.710
 4655SOL    HW131107   2.441   1.137   0.003
 4655SOL    HW231108   2.585   1.145   7.716
 4656SOL     OW31109   2.003   4.233   7.647
 4656SOL    HW131110   1.921   4.219   7.598
 4656SOL    HW231111   2.030   4.146   7.674
 4657SOL     OW31112   0.323   4.172   1.163
 4657SOL    HW131113   0.337   4.136   1.250
 4657SOL    HW231114   0.228   4.179   1.155
 4658SOL     OW31115   1.913   5.190   7.287
 4658SOL    HW131116   1.994   5.142   7.269
 4658SOL    HW231117   1.886   5.160   7.374
 4659SOL     OW31118   3.083   1.366   6.983
 4659SOL    HW131119   3.087   1.344   7.077
 4659SOL    HW231120   2.990   1.362   6.963
 4660SOL     OW31121   2.072   2.591   1.043
 4660SOL    HW131122   1.992   2.547   1.074
 4660SOL    HW231123   2.088   2.554   0.956
 4661SOL     OW31124   1.026   6.062   0.399
 4661SOL    HW131125   0.976   6.050   0.318
 4661SOL    HW231126   0.968   6.029   0.468
 4662SOL     OW31127   2.984   3.204   1.258
 4662SOL    HW131128   2.949   3.150   1.186
 4662SOL    HW231129   2.990   3.143   1.332
 4663SOL     OW31130   0.984   3.513   7.617
 4663SOL    HW131131   0.936   3.515   7.700
 4663SOL    HW231132   0.932   3.568   7.558
 4664SOL     OW31133   5.708   4.149   0.884
 4664SOL    HW131134   5.636   4.120   0.940
 4664SOL    HW231135   5.682   4.122   0.796
 4665SOL     OW31136   2.394   5.962   5.392
 4665SOL    HW131137   2.363   5.884   5.439
 4665SOL    HW231138   2.330   5.976   5.322
 4666SOL     OW31139   5.103   5.753   1.184
 4666SOL    HW131140   5.137   5.840   1.204
 4666SOL    HW231141   5.090   5.711   1.269
 4667SOL     OW31142   2.756   3.110   6.207
 4667SOL    HW131143   2.669   3.108   6.247
 4667SOL    HW231144   2.808   3.166   6.264
 4668SOL     OW31145   2.070   3.189   1.156
 4668SOL    HW131146   2.060   3.138   1.075
 4668SOL    HW231147   2.159   3.222   1.152
 4669SOL     OW31148   0.798   4.793   5.697
 4669SOL    HW131149   0.827   4.708   5.730
 4669SOL    HW231150   0.870   4.822   5.641
 4670SOL     OW31151   5.142   3.178   6.099
 4670SOL    HW131152   5.157   3.091   6.062
 4670SOL    HW231153   5.052   3.174   6.132
 4671SOL     OW31154   1.158   2.905   0.574
 4671SOL    HW131155   1.104   2.826   0.560
 4671SOL    HW231156   1.161   2.947   0.488
 4672SOL     OW31157   1.416   2.050   1.169
 4672SOL    HW131158   1.462   1.991   1.109
 4672SOL    HW231159   1.325   2.050   1.139
 4673SOL     OW31160   3.510   4.982   1.449
 4673SOL    HW131161   3.525   4.909   1.510
 4673SOL    HW231162   3.557   5.056   1.489
 4674SOL     OW31163   1.384   4.367   1.910
 4674SOL    HW131164   1.412   4.277   1.890
 4674SOL    HW231165   1.418   4.383   1.998
 4675SOL     OW31166   1.777   3.988   5.058
 4675SOL    HW131167   1.825   4.067   5.082
 4675SOL    HW231168   1.694   4.020   5.023
 4676SOL     OW31169   2.678   2.992   1.298
 4676SOL    HW131170   2.723   2.912   1.269
 4676SOL    HW231171   2.699   2.998   1.392
 4677SOL     OW31172   3.131   4.417   1.183
 4677SOL    HW131173   3.158   4.487   1.242
 4677SOL    HW231174   3.196   4.418   1.113
 4678SOL     OW31175   3.834   0.717   7.755
 4678SOL    HW131176   3.924   0.686   7.741
 4678SOL    HW231177   3.779   0.642   7.733
 4679SOL     OW31178   2.527   2.108   7.493
 4679SOL    HW131179   2.538   2.054   7.571
 4679SOL    HW231180   2.443   2.153   7.506
 4680SOL     OW31181   2.647   6.195   0.232
 4680SOL    HW131182   2.696   6.114   0.215
 4680SOL    HW231183   2.576   6.167   0.291
 4681SOL     OW31184   0.870   4.583   2.149
 4681SOL    HW131185   0.877   4.634   2.068
 4681SOL    HW231186   0.777   4.587   2.172
 4682SOL     OW31187   2.399   3.688   7.528
 4682SOL    HW131188   2.449   3.637   7.592
 4682SOL    HW231189   2.454   3.688   7.450
 4683SOL     OW31190   5.378   5.349   7.629
 4683SOL    HW131191   5.368   5.416   7.562
 4683SOL    HW231192   5.433   5.283   7.587
 4684SOL     OW31193   5.685   0.257   0.400
 4684SOL    HW131194   5.627   0.267   0.475
 4684SOL    HW231195   5.709   0.347   0.376
 4685SOL     OW31196   4.417   1.919   7.014
 4685SOL    HW131197   4.479   1.991   7.003
 4685SOL    HW231198   4.425   1.868   6.933
 4686SOL     OW31199   2.692   6.040   4.879
 4686SOL    HW131200   2.660   5.982   4.811
 4686SOL    HW231201   2.771   6.079   4.842
 4687SOL     OW31202   5.619   1.664   1.539
 4687SOL    HW131203   5.670   1.601   1.590
 4687SOL    HW231204   5.597   1.733   1.602
 4688SOL     OW31205   2.043   3.777   6.649
 4688SOL    HW131206   2.045   3.684   6.624
 4688SOL    HW231207   2.085   3.779   6.735
 4689SOL     OW31208   5.631   2.952   0.622
 4689SOL    HW131209   5.661   3.039   0.598
 4689SOL    HW231210   5.547   2.942   0.577
 4690SOL     OW31211   1.895   0.950   0.280
 4690SOL    HW131212   1.945   0.935   0.199
 4690SOL    HW231213   1.929   1.032   0.315
 4691SOL     OW31214   5.679   4.352   7.389
 4691SOL    HW131215   5.719   4.271   7.358
 4691SOL    HW231216   5.642   4.392   7.310
 4692SOL     OW31217   3.433   0.411   2.348
 4692SOL    HW131218   3.484   0.330   2.348
 4692SOL    HW231219   3.342   0.382   2.346
 4693SOL     OW31220   2.531   6.333   1.789
 4693SOL    HW131221   2.546   6.307   1.698
 4693SOL    HW231222   2.499   6.253   1.831
 4694SOL     OW31223   0.531   1.762   6.432
 4694SOL    HW131224   0.537   1.772   6.337
 4694SOL    HW231225   0.616   1.725   6.457
 4695SOL     OW31226   3.328   5.968   7.227
 4695SOL    HW131227   3.246   5.975   7.276
 4695SOL    HW231228   3.325   6.041   7.165
 4696SOL     OW31229   2.271   5.574   7.511
 4696SOL    HW131230   2.220   5.499   7.541
 4696SOL    HW231231   2.362   5.551   7.532
 4697SOL     OW31232   2.846   2.085   0.089
 4697SOL    HW131233   2.924   2.097   0.034
 4697SOL    HW231234   2.779   2.054   0.029
 4698SOL     OW31235   0.880   0.040   5.916
 4698SOL    HW131236   0.929   0.113   5.954
 4698SOL    HW231237   0.850   0.073   5.831
 4699SOL     OW31238   5.108   6.223   0.250
 4699SOL    HW131239   5.164   6.166   0.197
 4699SOL    HW231240   5.065   6.280   0.186
 4700SOL     OW31241   3.130   2.316   1.505
 4700SOL    HW131242   3.083   2.346   1.427
 4700SOL    HW231243   3.143   2.223   1.491
 4701SOL     OW31244   5.051   0.953   7.257
 4701SOL    HW131245   5.134   0.906   7.251
 4701SOL    HW231246   4.988   0.886   7.283
 4702SOL     OW31247   0.625   3.993   6.405
 4702SOL    HW131248   0.573   3.950   6.473
 4702SOL    HW231249   0.658   4.072   6.446
 4703SOL     OW31250   5.633   3.616   2.151
 4703SOL    HW131251   5.614   3.709   2.160
 4703SOL    HW231252   5.705   3.600   2.212
 4704SOL     OW31253   3.413   1.375   0.462
 4704SOL    HW131254   3.323   1.402   0.478
 4704SOL    HW231255   3.437   1.419   0.381
 4705SOL     OW31256   2.869   1.667   0.798
 4705SOL    HW131257   2.829   1.754   0.789
 4705SOL    HW231258   2.832   1.616   0.726
 4706SOL     OW31259   5.396   6.115   7.647
 4706SOL    HW131260   5.479   6.124   7.600
 4706SOL    HW231261   5.331   6.108   7.577
 4707SOL     OW31262   3.581   1.667   5.649
 4707SOL    HW131263   3.586   1.588   5.702
 4707SOL    HW231264   3.668   1.705   5.653
 4708SOL     OW31265   2.368   4.021   1.479
 4708SOL    HW131266   2.292   4.016   1.421
 4708SOL    HW231267   2.401   4.111   1.467
 4709SOL     OW31268   0.058   3.001   6.818
 4709SOL    HW131269   0.014   3.000   6.903
 4709SOL    HW231270   0.046   3.090   6.786
 4710SOL     OW31271   3.119   3.903   0.838
 4710SOL    HW131272   3.184   3.839   0.867
 4710SOL    HW231273   3.164   3.987   0.842
 4711SOL     OW31274   5.777   5.320   6.707
 4711SOL    HW131275   5.762   5.369   6.788
 4711SOL    HW231276   5.698   5.267   6.696
 4712SOL     OW31277   6.391   5.534   7.716
 4712SOL    HW131278   6.305   5.493   7.711
 4712SOL    HW231279   6.450   5.473   7.672
 4713SOL     OW31280   0.905   3.154   5.531
 4713SOL    HW131281   0.839   3.207   5.578
 4713SOL    HW231282   0.936   3.092   5.597
 4714SOL     OW31283   0.644   6.099   0.095
 4714SOL    HW131284   0.615   6.127   0.008
 4714SOL    HW231285   0.563   6.077   0.141
 4715SOL     OW31286   5.895   4.977   1.525
 4715SOL    HW131287   5.895   5.054   1.582
 4715SOL    HW231288   5.987   4.961   1.506
 4716SOL     OW31289   3.555   5.942   5.609
 4716SOL    HW131290   3.640   5.987   5.611
 4716SOL    HW231291   3.546   5.904   5.697
 4717SOL     OW31292   5.772   2.291   2.206
 4717SOL    HW131293   5.844   2.297   2.269
 4717SOL    HW231294   5.703   2.345   2.244
 4718SOL     OW31295   2.693   3.595   6.977
 4718SOL    HW131296   2.757   3.649   7.024
 4718SOL    HW231297   2.685   3.637   6.892
 4719SOL     OW31298   1.067   0.053   2.016
 4719SOL    HW131299   1.124   0.096   1.952
 4719SOL    HW231300   1.106   6.456   2.031
 4720SOL     OW31301   5.875   4.530   7.055
 4720SOL    HW131302   5.843   4.500   6.970
 4720SOL    HW231303   5.956   4.482   7.070
 4721SOL     OW31304   1.741   1.635   7.070
 4721SOL    HW131305   1.767   1.546   7.092
 4721SOL    HW231306   1.815   1.671   7.021
 4722SOL     OW31307   0.841   3.972   1.171
 4722SOL    HW131308   0.878   3.899   1.220
 4722SOL    HW231309   0.805   4.030   1.238
 4723SOL     OW31310   0.317   5.098   2.192
 4723SOL    HW131311   0.381   5.169   2.188
 4723SOL    HW231312   0.255   5.119   2.122
 4724SOL     OW31313   1.365   2.199   6.698
 4724SOL    HW131314   1.447   2.191   6.650
 4724SOL    HW231315   1.339   2.290   6.688
 4725SOL     OW31316   5.290   5.014   5.105
 4725SOL    HW131317   5.198   4.989   5.120
 4725SOL    HW231318   5.317   5.054   5.188
 4726SOL     OW31319   4.620   1.022   1.431
 4726SOL    HW131320   4.661   0.943   1.395
 4726SOL    HW231321   4.671   1.042   1.510
 4727SOL     OW31322   1.817   6.411   5.782
 4727SOL    HW131323   1.810   6.381   5.691
 4727SOL    HW231324   1.863   0.006   5.777
 4728SOL     OW31325   5.004   4.909   6.303
 4728SOL    HW131326   5.035   4.989   6.347
 4728SOL    HW231327   5.077   4.848   6.311
 4729SOL     OW31328   3.609   2.894   6.177
 4729SOL    HW131329   3.695   2.935   6.187
 4729SOL    HW231330   3.567   2.906   6.262
 4730SOL     OW31331   2.467   0.215   0.007
 4730SOL    HW131332   2.522   0.275   0.057
 4730SOL    HW231333   2.469   0.133   0.057
 4731SOL     OW31334   5.225   6.295   6.756
 4731SOL    HW131335   5.282   6.222   6.732
 4731SOL    HW231336   5.285   6.369   6.769
 4732SOL     OW31337   0.772   1.332   1.634
 4732SOL    HW131338   0.842   1.390   1.664
 4732SOL    HW231339   0.778   1.256   1.691
 4733SOL     OW31340   4.308   5.994   1.280
 4733SOL    HW131341   4.396   5.958   1.274
 4733SOL    HW231342   4.296   6.041   1.198
 4734SOL     OW31343   6.034   2.106   7.179
 4734SOL    HW131344   5.944   2.079   7.194
 4734SOL    HW231345   6.057   2.160   7.255
 4735SOL     OW31346   2.562   0.108   7.037
 4735SOL    HW131347   2.596   0.075   7.121
 4735SOL    HW231348   2.595   0.198   7.032
 4736SOL     OW31349   4.885   0.720   7.282
 4736SOL    HW131350   4.876   0.696   7.190
 4736SOL    HW231351   4.813   0.782   7.298
 4737SOL     OW31352   1.318   5.313   6.430
 4737SOL    HW131353   1.274   5.384   6.385
 4737SOL    HW231354   1.358   5.354   6.507
 4738SOL     OW31355   4.376   6.029   6.776
 4738SOL    HW131356   4.442   6.016   6.844
 4738SOL    HW231357   4.397   6.114   6.737
 4739SOL     OW31358   3.700   5.023   4.869
 4739SOL    HW131359   3.639   5.081   4.914
 4739SOL    HW231360   3.739   4.969   4.938
 4740SOL     OW31361   3.245   0.070   7.545
 4740SOL    HW131362   3.244   0.166   7.547
 4740SOL    HW231363   3.229   0.044   7.636
 4741SOL     OW31364   4.263   2.355   7.366
 4741SOL    HW131365   4.325   2.282   7.370
 4741SOL    HW231366   4.179   2.314   7.343
 4742SOL     OW31367   3.488   4.519   2.123
 4742SOL    HW131368   3.499   4.439   2.072
 4742SOL    HW231369   3.576   4.540   2.155
 4743SOL     OW31370   4.111   3.677   1.684
 4743SOL    HW131371   4.148   3.591   1.699
 4743SOL    HW231372   4.023   3.672   1.724
 4744SOL     OW31373   1.318   0.124   2.490
 4744SOL    HW131374   1.409   0.148   2.472
 4744SOL    HW231375   1.282   0.200   2.536
 4745SOL     OW31376   3.473   2.478   0.448
 4745SOL    HW131377   3.412   2.552   0.453
 4745SOL    HW231378   3.427   2.414   0.393
 4746SOL     OW31379   6.217   6.203   5.516
 4746SOL    HW131380   6.244   6.216   5.425
 4746SOL    HW231381   6.285   6.244   5.568
 4747SOL     OW31382   0.223   6.287   1.937
 4747SOL    HW131383   0.226   6.227   2.013
 4747SOL    HW231384   0.154   6.349   1.959
 4748SOL     OW31385   0.177   3.455   6.478
 4748SOL    HW131386   0.217   3.523   6.424
 4748SOL    HW231387   0.085   3.455   6.452
 4749SOL     OW31388   1.239   1.680   1.357
 4749SOL    HW131389   1.246   1.645   1.446
 4749SOL    HW231390   1.260   1.773   1.367
 4750SOL     OW31391   6.236   2.786   6.949
 4750SOL    HW131392   6.315   2.803   7.001
 4750SOL    HW231393   6.189   2.870   6.949
 4751SOL     OW31394   2.672   4.399   0.894
 4751SOL    HW131395   2.706   4.373   0.980
 4751SOL    HW231396   2.663   4.494   0.900
 4752SOL     OW31397   3.602   3.245   0.226
 4752SOL    HW131398   3.593   3.323   0.281
 4752SOL    HW231399   3.653   3.184   0.280
 4753SOL     OW31400   2.896   6.198   1.854
 4753SOL    HW131401   2.957   6.260   1.814
 4753SOL    HW231402   2.856   6.153   1.779
 4754SOL     OW31403   0.148   0.649   6.078
 4754SOL    HW131404   0.215   0.682   6.018
 4754SOL    HW231405   0.066   0.656   6.030
 4755SOL     OW31406   2.373   4.521   2.088
 4755SOL    HW131407   2.411   4.486   2.169
 4755SOL    HW231408   2.289   4.558   2.116
 4756SOL     OW31409   3.244   6.206   1.214
 4756SOL    HW131410   3.207   6.213   1.126
 4756SOL    HW231411   3.177   6.245   1.271
 4757SOL     OW31412   1.736   5.370   6.721
 4757SOL    HW131413   1.814   5.375   6.665
 4757SOL    HW231414   1.761   5.312   6.793
 4758SOL     OW31415   2.523   0.386   6.302
 4758SOL    HW131416   2.521   0.315   6.237
 4758SOL    HW231417   2.451   0.444   6.278
 4759SOL     OW31418   4.062   1.440   6.679
 4759SOL    HW131419   3.993   1.493   6.719
 4759SOL    HW231420   4.048   1.352   6.716
 4760SOL     OW31421   6.315   4.831   1.093
 4760SOL    HW131422   6.349   4.911   1.134
 4760SOL    HW231423   6.241   4.861   1.041
 4761SOL     OW31424   3.700   1.906   6.742
 4761SOL    HW131425   3.649   1.988   6.747
 4761SOL    HW231426   3.724   1.888   6.832
 4762SOL     OW31427   4.765   1.413   7.235
 4762SOL    HW131428   4.730   1.383   7.151
 4762SOL    HW231429   4.793   1.333   7.279
 4763SOL     OW31430   4.683   0.535   1.263
 4763SOL    HW131431   4.778   0.541   1.255
 4763SOL    HW231432   4.651   0.538   1.173
 4764SOL     OW31433   2.640   1.447   0.974
 4764SOL    HW131434   2.658   1.526   0.923
 4764SOL    HW231435   2.691   1.457   1.054
 4765SOL     OW31436   0.424   5.967   0.322
 4765SOL    HW131437   0.465   5.905   0.262
 4765SOL    HW231438   0.337   5.931   0.338
 4766SOL     OW31439   4.963   6.422   1.281
 4766SOL    HW131440   4.961   6.334   1.320
 4766SOL    HW231441   5.055   6.434   1.256
 4767SOL     OW31442   1.824   0.672   7.055
 4767SOL    HW131443   1.819   0.726   7.134
 4767SOL    HW231444   1.856   0.733   6.988
 4768SOL     OW31445   3.633   3.450   1.046
 4768SOL    HW131446   3.721   3.415   1.055
 4768SOL    HW231447   3.627   3.518   1.113
 4769SOL     OW31448   5.860   6.413   5.310
 4769SOL    HW131449   5.826   6.397   5.222
 4769SOL    HW231450   5.811   0.001   5.341
 4770SOL     OW31451   1.999   1.035   0.536
 4770SOL    HW131452   2.040   1.001   0.616
 4770SOL    HW231453   2.073   1.063   0.481
 4771SOL     OW31454   6.140   6.040   1.512
 4771SOL    HW131455   6.100   5.956   1.488
 4771SOL    HW231456   6.073   6.085   1.563
 4772SOL     OW31457   0.720   5.314   6.751
 4772SOL    HW131458   0.666   5.334   6.828
 4772SOL    HW231459   0.670   5.248   6.703
 4773SOL     OW31460   5.618   5.602   7.597
 4773SOL    HW131461   5.558   5.627   7.668
 4773SOL    HW231462   5.680   5.542   7.639
 4774SOL     OW31463   3.622   2.803   7.385
 4774SOL    HW131464   3.605   2.880   7.439
 4774SOL    HW231465   3.539   2.755   7.385
 4775SOL     OW31466   0.713   1.365   5.902
 4775SOL    HW131467   0.794   1.405   5.935
 4775SOL    HW231468   0.715   1.276   5.937
 4776SOL     OW31469   1.800   0.444   7.653
 4776SOL    HW131470   1.727   0.393   7.619
 4776SOL    HW231471   1.760   0.501   7.718
 4777SOL     OW31472   1.065   0.169   0.011
 4777SOL    HW131473   0.993   0.172   7.710
 4777SOL    HW231474   1.023   0.157   0.096
 4778SOL     OW31475   0.846   3.044   1.413
 4778SOL    HW131476   0.767   3.004   1.377
 4778SOL    HW231477   0.907   3.048   1.339
 4779SOL     OW31478   5.060   0.470   0.447
 4779SOL    HW131479   5.102   0.411   0.510
 4779SOL    HW231480   5.132   0.524   0.413
 4780SOL     OW31481   4.591   0.055   5.614
 4780SOL    HW131482   4.540   0.048   5.694
 4780SOL    HW231483   4.665   6.483   5.626
 4781SOL     OW31484   0.123   4.774   7.028
 4781SOL    HW131485   0.036   4.815   7.030
 4781SOL    HW231486   0.108   4.686   6.993
 4782SOL     OW31487   4.110   4.307   6.615
 4782SOL    HW131488   4.024   4.303   6.574
 4782SOL    HW231489   4.172   4.299   6.542
 4783SOL     OW31490   4.166   6.332   1.400
 4783SOL    HW131491   4.254   6.369   1.398
 4783SOL    HW231492   4.109   6.407   1.419
 4784SOL     OW31493   3.574   4.208   0.904
 4784SOL    HW131494   3.568   4.282   0.843
 4784SOL    HW231495   3.668   4.192   0.913
 4785SOL     OW31496   6.144   4.563   0.205
 4785SOL    HW131497   6.127   4.657   0.194
 4785SOL    HW231498   6.107   4.522   0.127
 4786SOL     OW31499   6.442   1.923   7.664
 4786SOL    HW131500   6.438   1.850   7.727
 4786SOL    HW231501   0.010   1.891   7.595
 4787SOL     OW31502   4.093   2.031   0.813
 4787SOL    HW131503   4.151   1.996   0.745
 4787SOL    HW231504   4.008   2.039   0.769
 4788SOL     OW31505   0.927   1.797   1.474
 4788SOL    HW131506   0.914   1.889   1.454
 4788SOL    HW231507   0.935   1.794   1.570
 4789SOL     OW31508   2.033   5.261   5.217
 4789SOL    HW131509   2.018   5.267   5.312
 4789SOL    HW231510   2.120   5.223   5.209
 4790SOL     OW31511   5.405   2.626   6.854
 4790SOL    HW131512   5.339   2.579   6.905
 4790SOL    HW231513   5.489   2.588   6.882
 4791SOL     OW31514   0.379   4.253   0.285
 4791SOL    HW131515   0.334   4.196   0.347
 4791SOL    HW231516   0.457   4.204   0.260
 4792SOL     OW31517   0.660   1.685   1.753
 4792SOL    HW131518   0.636   1.615   1.692
 4792SOL    HW231519   0.756   1.688   1.750
 4793SOL     OW31520   1.870   2.346   7.055
 4793SOL    HW131521   1.822   2.353   6.973
 4793SOL    HW231522   1.853   2.258   7.087
 4794SOL     OW31523   0.491   2.294   0.813
 4794SOL    HW131524   0.549   2.336   0.750
 4794SOL    HW231525   0.456   2.366   0.865
 4795SOL     OW31526   0.892   1.263   6.263
 4795SOL    HW131527   0.815   1.251   6.319
 4795SOL    HW231528   0.900   1.358   6.252
 4796SOL     OW31529   2.179   0.453   4.936
 4796SOL    HW131530   2.084   0.455   4.932
 4796SOL    HW231531   2.202   0.533   4.984
 4797SOL     OW31532   5.831   4.330   5.731
 4797SOL    HW131533   5.786   4.347   5.648
 4797SOL    HW231534   5.910   4.282   5.706
 4798SOL     OW31535   3.708   3.768   0.197
 4798SOL    HW131536   3.656   3.695   0.229
 4798SOL    HW231537   3.742   3.739   0.113
 4799SOL     OW31538   6.427   1.033   7.285
 4799SOL    HW131539   6.338   1.003   7.264
 4799SOL    HW231540   6.414   1.120   7.324
 4800SOL     OW31541   3.023   0.511   1.004
 4800SOL    HW131542   3.068   0.434   1.038
 4800SOL    HW231543   3.038   0.507   0.910
 4801SOL     OW31544   0.633   5.009   7.061
 4801SOL    HW131545   0.572   4.936   7.074
 4801SOL    HW231546   0.642   5.048   7.147
 4802SOL     OW31547   0.449   2.219   6.715
 4802SOL    HW131548   0.441   2.124   6.717
 4802SOL    HW231549   0.359   2.251   6.712
 4803SOL     OW31550   1.004   0.435   7.574
 4803SOL    HW131551   0.925   0.442   7.627
 4803SOL    HW231552   1.021   0.340   7.569
 4804SOL     OW31553   2.464   1.771   6.091
 4804SOL    HW131554   2.390   1.717   6.063
 4804SOL    HW231555   2.520   1.711   6.140
 4805SOL     OW31556   4.099   6.161   0.234
 4805SOL    HW131557   4.154   6.239   0.237
 4805SOL    HW231558   4.046   6.172   0.154
 4806SOL     OW31559   2.310   2.694   0.627
 4806SOL    HW131560   2.347   2.730   0.708
 4806SOL    HW231561   2.386   2.678   0.571
 4807SOL     OW31562   5.650   6.392   6.079
 4807SOL    HW131563   5.672   6.405   6.171
 4807SOL    HW231564   5.635   6.481   6.046
 4808SOL     OW31565   0.039   4.153   1.123
 4808SOL    HW131566   6.471   4.077   1.132
 4808SOL    HW231567   0.046   4.168   1.029
 4809SOL     OW31568   1.746   0.716   1.131
 4809SOL    HW131569   1.815   0.715   1.198
 4809SOL    HW231570   1.781   0.664   1.059
 4810SOL     OW31571   2.237   5.218   0.473
 4810SOL    HW131572   2.284   5.208   0.556
 4810SOL    HW231573   2.263   5.141   0.422
 4811SOL     OW31574   4.088   5.869   1.751
 4811SOL    HW131575   4.045   5.819   1.682
 4811SOL    HW231576   4.122   5.947   1.708
 4812SOL     OW31577   1.395   4.053   6.712
 4812SOL    HW131578   1.455   4.079   6.781
 4812SOL    HW231579   1.315   4.102   6.731
 4813SOL     OW31580   5.779   4.105   6.492
 4813SOL    HW131581   5.795   4.012   6.475
 4813SOL    HW231582   5.858   4.134   6.537
 4814SOL     OW31583   3.416   1.589   0.277
 4814SOL    HW131584   3.391   1.679   0.302
 4814SOL    HW231585   3.508   1.582   0.305
 4815SOL     OW31586   0.003   4.517   7.730
 4815SOL    HW131587   0.045   4.434   7.753
 4815SOL    HW231588   6.432   4.534   0.042
 4816SOL     OW31589   0.968   5.830   1.492
 4816SOL    HW131590   1.003   5.784   1.416
 4816SOL    HW231591   0.932   5.911   1.457
 4817SOL     OW31592   3.988   0.818   0.671
 4817SOL    HW131593   4.071   0.819   0.719
 4817SOL    HW231594   3.923   0.844   0.736
 4818SOL     OW31595   0.998   0.028   6.648
 4818SOL    HW131596   1.009   0.098   6.712
 4818SOL    HW231597   1.075   6.460   6.661
 4819SOL     OW31598   3.814   4.526   1.022
 4819SOL    HW131599   3.852   4.607   1.058
 4819SOL    HW231600   3.800   4.470   1.098
 4820SOL     OW31601   4.430   2.388   1.556
 4820SOL    HW131602   4.376   2.405   1.479
 4820SOL    HW231603   4.519   2.382   1.521
 4821SOL     OW31604   4.133   1.597   7.373
 4821SOL    HW131605   4.193   1.545   7.427
 4821SOL    HW231606   4.100   1.664   7.433
 4822SOL     OW31607   2.246   0.533   7.412
 4822SOL    HW131608   2.151   0.530   7.420
 4822SOL    HW231609   2.278   0.491   7.492
 4823SOL     OW31610   2.058   0.648   6.495
 4823SOL    HW131611   2.037   0.630   6.587
 4823SOL    HW231612   2.112   0.727   6.499
 4824SOL     OW31613   5.328   5.170   5.321
 4824SOL    HW131614   5.269   5.243   5.306
 4824SOL    HW231615   5.400   5.207   5.372
 4825SOL     OW31616   1.484   3.040   2.084
 4825SOL    HW131617   1.530   2.964   2.120
 4825SOL    HW231618   1.410   3.002   2.036
 4826SOL     OW31619   3.068   2.115   0.972
 4826SOL    HW131620   3.138   2.180   0.968
 4826SOL    HW231621   3.006   2.141   0.903
 4827SOL     OW31622   4.371   3.457   6.277
 4827SOL    HW131623   4.339   3.521   6.341
 4827SOL    HW231624   4.371   3.374   6.324
 4828SOL     OW31625   6.038   2.284   0.130
 4828SOL    HW131626   6.003   2.361   0.176
 4828SOL    HW231627   6.040   2.215   0.196
 4829SOL     OW31628   0.073   0.015   2.012
 4829SOL    HW131629   0.122   0.071   2.072
 4829SOL    HW231630   0.021   6.447   2.069
 4830SOL     OW31631   6.482   1.799   6.700
 4830SOL    HW131632   6.403   1.848   6.722
 4830SOL    HW231633   0.035   1.780   6.784
 4831SOL     OW31634   1.849   1.469   6.717
 4831SOL    HW131635   1.916   1.507   6.660
 4831SOL    HW231636   1.890   1.466   6.803
 4832SOL     OW31637   0.130   1.823   7.453
 4832SOL    HW131638   0.181   1.754   7.495
 4832SOL    HW231639   0.177   1.843   7.373
 4833SOL     OW31640   1.530   3.820   0.396
 4833SOL    HW131641   1.591   3.888   0.366
 4833SOL    HW231642   1.561   3.797   0.483
 4834SOL     OW31643   3.996   0.592   6.179
 4834SOL    HW131644   3.960   0.616   6.264
 4834SOL    HW231645   3.927   0.539   6.138
 4835SOL     OW31646   0.792   1.765   0.343
 4835SOL    HW131647   0.887   1.773   0.330
 4835SOL    HW231648   0.772   1.675   0.317
 4836SOL     OW31649   0.308   1.514   5.335
 4836SOL    HW131650   0.249   1.577   5.376
 4836SOL    HW231651   0.361   1.480   5.407
 4837SOL     OW31652   5.913   4.709   7.632
 4837SOL    HW131653   5.982   4.647   7.612
 4837SOL    HW231654   5.866   4.669   7.706
 4838SOL     OW31655   5.105   2.785   6.548
 4838SOL    HW131656   5.089   2.764   6.456
 4838SOL    HW231657   5.140   2.874   6.546
 4839SOL     OW31658   2.512   5.770   0.003
 4839SOL    HW131659   2.475   5.835   7.705
 4839SOL    HW231660   2.561   5.710   7.707
 4840SOL     OW31661   6.010   1.905   0.886
 4840SOL    HW131662   6.076   1.960   0.928
 4840SOL    HW231663   6.059   1.832   0.849
 4841SOL     OW31664   0.269   1.249   7.202
 4841SOL    HW131665   0.195   1.247   7.141
 4841SOL    HW231666   0.277   1.341   7.227
 4842SOL     OW31667   5.120   6.099   0.648
 4842SOL    HW131668   5.084   6.181   0.614
 4842SOL    HW231669   5.106   6.105   0.742
 4843SOL     OW31670   6.009   5.635   0.100
 4843SOL    HW131671   5.986   5.712   0.047
 4843SOL    HW231672   6.053   5.671   0.176
 4844SOL     OW31673   6.144   4.855   0.069
 4844SOL    HW131674   6.061   4.853   0.116
 4844SOL    HW231675   6.126   4.907   7.752
 4845SOL     OW31676   3.729   0.501   6.421
 4845SOL    HW131677   3.771   0.425   6.461
 4845SOL    HW231678   3.801   0.558   6.394
 4846SOL     OW31679   2.802   0.422   6.302
 4846SOL    HW131680   2.801   0.437   6.208
 4846SOL    HW231681   2.711   0.402   6.324
 4847SOL     OW31682   0.350   4.915   7.699
 4847SOL    HW131683   0.418   4.851   7.676
 4847SOL    HW231684   0.299   4.872   0.005
 4848SOL     OW31685   5.567   4.451   0.050
 4848SOL    HW131686   5.639   4.388   0.056
 4848SOL    HW231687   5.530   4.453   0.138
 4849SOL     OW31688   6.402   3.939   6.563
 4849SOL    HW131689   0.007   3.960   6.575
 4849SOL    HW231690   6.402   3.853   6.521
 4850SOL     OW31691   1.683   5.198   7.729
 4850SOL    HW131692   1.617   5.259   7.760
 4850SOL    HW231693   1.655   5.175   7.641
 4851SOL     OW31694   1.243   5.581   7.679
 4851SOL    HW131695   1.273   5.536   7.600
 4851SOL    HW231696   1.317   5.636   7.704
 4852SOL     OW31697   1.744   5.883   0.986
 4852SOL    HW131698   1.811   5.916   1.046
 4852SOL    HW231699   1.711   5.962   0.943
 4853SOL     OW31700   1.342   6.170   5.842
 4853SOL    HW131701   1.365   6.077   5.841
 4853SOL    HW231702   1.247   6.172   5.830
 4854SOL     OW31703   0.016   5.586   7.206
 4854SOL    HW131704   6.456   5.647   7.263
 4854SOL    HW231705   0.106   5.589   7.239
 4855SOL     OW31706   6.327   3.833   0.761
 4855SOL    HW131707   6.383   3.833   0.839
 4855SOL    HW231708   6.238   3.833   0.795
 4856SOL     OW31709   2.462   2.472   5.767
 4856SOL    HW131710   2.414   2.502   5.690
 4856SOL    HW231711   2.478   2.379   5.751
 4857SOL     OW31712   2.131   3.268   0.385
 4857SOL    HW131713   2.077   3.347   0.394
 4857SOL    HW231714   2.072   3.203   0.346
 4858SOL     OW31715   1.354   2.297   5.971
 4858SOL    HW131716   1.357   2.270   5.879
 4858SOL    HW231717   1.409   2.375   5.975
 4859SOL     OW31718   0.693   2.942   2.015
 4859SOL    HW131719   0.772   2.889   2.029
 4859SOL    HW231720   0.621   2.883   2.037
 4860SOL     OW31721   3.407   6.421   1.079
 4860SOL    HW131722   3.336   6.436   1.017
 4860SOL    HW231723   3.439   6.333   1.058
 4861SOL     OW31724   3.893   4.906   1.371
 4861SOL    HW131725   3.828   4.906   1.442
 4861SOL    HW231726   3.917   4.999   1.361
 4862SOL     OW31727   0.417   0.051   0.267
 4862SOL    HW131728   0.401   6.446   0.280
 4862SOL    HW231729   0.468   0.077   0.344
 4863SOL     OW31730   3.449   4.859   6.309
 4863SOL    HW131731   3.400   4.786   6.271
 4863SOL    HW231732   3.537   4.824   6.324
 4864SOL     OW31733   2.247   6.128   1.710
 4864SOL    HW131734   2.159   6.165   1.699
 4864SOL    HW231735   2.267   6.089   1.625
 4865SOL     OW31736   2.950   3.209   5.271
 4865SOL    HW131737   2.948   3.167   5.185
 4865SOL    HW231738   3.020   3.164   5.319
 4866SOL     OW31739   0.021   5.839   0.229
 4866SOL    HW131740   0.079   5.855   0.303
 4866SOL    HW231741   0.032   5.916   0.173
 4867SOL     OW31742   2.870   5.759   1.454
 4867SOL    HW131743   2.916   5.789   1.376
 4867SOL    HW231744   2.835   5.839   1.493
 4868SOL     OW31745   2.015   1.124   5.520
 4868SOL    HW131746   1.946   1.172   5.474
 4868SOL    HW231747   2.091   1.129   5.462
 4869SOL     OW31748   2.265   0.409   0.169
 4869SOL    HW131749   2.181   0.402   0.214
 4869SOL    HW231750   2.330   0.393   0.236
 4870SOL     OW31751   5.299   0.753   6.436
 4870SOL    HW131752   5.247   0.730   6.513
 4870SOL    HW231753   5.285   0.847   6.424
 4871SOL     OW31754   2.711   5.421   0.668
 4871SOL    HW131755   2.789   5.428   0.614
 4871SOL    HW231756   2.639   5.408   0.606
 4872SOL     OW31757   4.162   5.438   1.325
 4872SOL    HW131758   4.216   5.417   1.248
 4872SOL    HW231759   4.207   5.394   1.397
 4873SOL     OW31760   0.482   2.236   1.138
 4873SOL    HW131761   0.534   2.313   1.159
 4873SOL    HW231762   0.517   2.205   1.055
 4874SOL     OW31763   3.480   0.649   6.530
 4874SOL    HW131764   3.531   0.607   6.461
 4874SOL    HW231765   3.509   0.606   6.611
 4875SOL     OW31766   2.126   0.769   5.529
 4875SOL    HW131767   2.046   0.750   5.480
 4875SOL    HW231768   2.197   0.746   5.470
 4876SOL     OW31769   0.759   6.010   6.835
 4876SOL    HW131770   0.674   5.970   6.854
 4876SOL    HW231771   0.744   6.104   6.844
 4877SOL     OW31772   2.003   3.379   6.122
 4877SOL    HW131773   1.917   3.402   6.085
 4877SOL    HW231774   2.057   3.359   6.046
 4878SOL     OW31775   1.540   5.152   6.419
 4878SOL    HW131776   1.472   5.177   6.481
 4878SOL    HW231777   1.541   5.223   6.355
 4879SOL     OW31778   4.768   5.493   0.385
 4879SOL    HW131779   4.766   5.446   0.468
 4879SOL    HW231780   4.859   5.520   0.374
 4880SOL     OW31781   3.700   1.076   6.260
 4880SOL    HW131782   3.750   1.128   6.323
 4880SOL    HW231783   3.609   1.100   6.277
 4881SOL     OW31784   6.441   0.668   1.302
 4881SOL    HW131785   0.043   0.673   1.273
 4881SOL    HW231786   6.440   0.599   1.368
 4882SOL     OW31787   1.582   0.659   0.521
 4882SOL    HW131788   1.665   0.706   0.532
 4882SOL    HW231789   1.517   0.727   0.507
 4883SOL     OW31790   0.743   3.401   2.181
 4883SOL    HW131791   0.836   3.412   2.162
 4883SOL    HW231792   0.729   3.449   2.262
 4884SOL     OW31793   4.697   1.011   1.983
 4884SOL    HW131794   4.780   1.009   2.030
 4884SOL    HW231795   4.670   1.103   1.985
 4885SOL     OW31796   4.788   6.170   6.406
 4885SOL    HW131797   4.825   6.096   6.358
 4885SOL    HW231798   4.824   6.162   6.494
 4886SOL     OW31799   0.731   2.707   0.324
 4886SOL    HW131800   0.692   2.670   0.404
 4886SOL    HW231801   0.824   2.716   0.344
 4887SOL     OW31802   0.653   3.711   6.586
 4887SOL    HW131803   0.590   3.780   6.606
 4887SOL    HW231804   0.696   3.741   6.506
 4888SOL     OW31805   0.223   3.240   7.219
 4888SOL    HW131806   0.172   3.170   7.177
 4888SOL    HW231807   0.191   3.320   7.179
 4889SOL     OW31808   0.633   2.884   1.296
 4889SOL    HW131809   0.655   2.878   1.203
 4889SOL    HW231810   0.653   2.797   1.331
 4890SOL     OW31811   6.217   1.092   6.033
 4890SOL    HW131812   6.213   1.009   5.984
 4890SOL    HW231813   6.144   1.143   5.998
 4891SOL     OW31814   2.621   2.594   6.618
 4891SOL    HW131815   2.649   2.670   6.669
 4891SOL    HW231816   2.629   2.623   6.527
 4892SOL     OW31817   6.481   2.462   0.489
 4892SOL    HW131818   6.418   2.527   0.519
 4892SOL    HW231819   6.437   2.418   0.415
 4893SOL     OW31820   5.920   0.687   1.660
 4893SOL    HW131821   5.833   0.650   1.674
 4893SOL    HW231822   5.956   0.639   1.586
 4894SOL     OW31823   4.718   0.968   6.948
 4894SOL    HW131824   4.766   1.033   7.000
 4894SOL    HW231825   4.717   0.890   7.004
 4895SOL     OW31826   1.958   3.821   1.381
 4895SOL    HW131827   2.001   3.736   1.388
 4895SOL    HW231828   1.911   3.818   1.298
 4896SOL     OW31829   3.172   5.433   1.292
 4896SOL    HW131830   3.141   5.428   1.382
 4896SOL    HW231831   3.112   5.493   1.249
 4897SOL     OW31832   4.009   2.004   6.913
 4897SOL    HW131833   3.963   1.925   6.939
 4897SOL    HW231834   4.037   1.987   6.823
 4898SOL     OW31835   5.290   3.159   5.487
 4898SOL    HW131836   5.385   3.161   5.479
 4898SOL    HW231837   5.259   3.172   5.397
 4899SOL     OW31838   0.927   1.185   7.122
 4899SOL    HW131839   0.985   1.228   7.059
 4899SOL    HW231840   0.954   1.093   7.120
 4900SOL     OW31841   5.256   5.741   6.376
 4900SOL    HW131842   5.160   5.732   6.373
 4900SOL    HW231843   5.289   5.656   6.348
 4901SOL     OW31844   1.859   1.170   2.025
 4901SOL    HW131845   1.946   1.132   2.014
 4901SOL    HW231846   1.801   1.096   2.043
 4902SOL     OW31847   5.418   3.284   6.110
 4902SOL    HW131848   5.339   3.314   6.064
 4902SOL    HW231849   5.489   3.333   6.070
 4903SOL     OW31850   6.021   4.803   6.792
 4903SOL    HW131851   6.003   4.777   6.882
 4903SOL    HW231852   6.116   4.817   6.790
 4904SOL     OW31853   0.733   2.152   1.630
 4904SOL    HW131854   0.773   2.095   1.695
 4904SOL    HW231855   0.711   2.232   1.678
 4905SOL     OW31856   5.879   5.772   6.425
 4905SOL    HW131857   5.798   5.789   6.474
 4905SOL    HW231858   5.922   5.702   6.474
 4906SOL     OW31859   5.341   5.835   7.276
 4906SOL    HW131860   5.332   5.764   7.213
 4906SOL    HW231861   5.436   5.843   7.289
 4907SOL     OW31862   5.817   1.510   6.692
 4907SOL    HW131863   5.742   1.563   6.669
 4907SOL    HW231864   5.797   1.423   6.656
 4908SOL     OW31865   1.026   3.693   5.213
 4908SOL    HW131866   1.070   3.609   5.206
 4908SOL    HW231867   0.935   3.671   5.237
 4909SOL     OW31868   4.854   1.794   1.452
 4909SOL    HW131869   4.769   1.827   1.422
 4909SOL    HW231870   4.896   1.760   1.372
 4910SOL     OW31871   3.592   0.378   0.035
 4910SOL    HW131872   3.645   0.336   0.103
 4910SOL    HW231873   3.519   0.318   0.021
 4911SOL     OW31874   2.625   3.125   1.884
 4911SOL    HW131875   2.540   3.165   1.869
 4911SOL    HW231876   2.647   3.147   1.974
 4912SOL     OW31877   0.539   6.200   6.145
 4912SOL    HW131878   0.630   6.228   6.149
 4912SOL    HW231879   0.517   6.203   6.052
 4913SOL     OW31880   3.739   2.530   0.379
 4913SOL    HW131881   3.766   2.438   0.383
 4913SOL    HW231882   3.646   2.530   0.402
 4914SOL     OW31883   5.069   3.465   6.553
 4914SOL    HW131884   5.029   3.549   6.579
 4914SOL    HW231885   5.025   3.400   6.608
 4915SOL     OW31886   4.951   0.620   1.247
 4915SOL    HW131887   5.005   0.566   1.188
 4915SOL    HW231888   4.988   0.708   1.240
 4916SOL     OW31889   4.031   3.715   7.094
 4916SOL    HW131890   4.121   3.739   7.074
 4916SOL    HW231891   3.980   3.749   7.020
 4917SOL     OW31892   1.116   4.752   7.526
 4917SOL    HW131893   1.172   4.829   7.533
 4917SOL    HW231894   1.175   4.678   7.543
 4918SOL     OW31895   2.530   1.129   0.701
 4918SOL    HW131896   2.441   1.110   0.730
 4918SOL    HW231897   2.523   1.211   0.653
 4919SOL     OW31898   3.202   4.659   6.882
 4919SOL    HW131899   3.236   4.611   6.957
 4919SOL    HW231900   3.196   4.593   6.813
 4920SOL     OW31901   0.248   2.979   1.025
 4920SOL    HW131902   0.248   3.071   1.051
 4920SOL    HW231903   0.155   2.957   1.016
 4921SOL     OW31904   0.724   0.586   6.589
 4921SOL    HW131905   0.810   0.567   6.551
 4921SOL    HW231906   0.673   0.623   6.517
 4922SOL     OW31907   4.145   6.360   5.961
 4922SOL    HW131908   4.085   6.364   6.035
 4922SOL    HW231909   4.160   6.451   5.937
 4923SOL     OW31910   3.242   5.805   5.076
 4923SOL    HW131911   3.174   5.749   5.039
 4923SOL    HW231912   3.267   5.762   5.158
 4924SOL     OW31913   2.139   0.030   0.348
 4924SOL    HW131914   2.119   0.044   0.256
 4924SOL    HW231915   2.221   0.077   0.362
 4925SOL     OW31916   5.247   5.053   1.359
 4925SOL    HW131917   5.162   5.017   1.332
 4925SOL    HW231918   5.268   5.117   1.291
 4926SOL     OW31919   2.307   2.956   1.331
 4926SOL    HW131920   2.243   2.896   1.293
 4926SOL    HW231921   2.255   3.019   1.380
 4927SOL     OW31922   3.314   1.081   0.946
 4927SOL    HW131923   3.245   1.147   0.937
 4927SOL    HW231924   3.321   1.066   1.040
 4928SOL     OW31925   1.910   5.732   7.346
 4928SOL    HW131926   1.962   5.769   7.417
 4928SOL    HW231927   1.855   5.804   7.316
 4929SOL     OW31928   4.905   4.205   6.334
 4929SOL    HW131929   4.961   4.274   6.371
 4929SOL    HW231930   4.944   4.185   6.249
 4930SOL     OW31931   1.047   4.938   7.173
 4930SOL    HW131932   1.019   4.970   7.087
 4930SOL    HW231933   1.136   4.973   7.183
 4931SOL     OW31934   1.776   4.143   0.910
 4931SOL    HW131935   1.849   4.130   0.849
 4931SOL    HW231936   1.777   4.066   0.966
 4932SOL     OW31937   3.153   5.812   7.395
 4932SOL    HW131938   3.198   5.744   7.345
 4932SOL    HW231939   3.072   5.827   7.346
 4933SOL     OW31940   0.894   3.821   1.720
 4933SOL    HW131941   0.818   3.783   1.765
 4933SOL    HW231942   0.966   3.809   1.782
 4934SOL     OW31943   3.179   3.104   5.455
 4934SOL    HW131944   3.273   3.090   5.444
 4934SOL    HW231945   3.163   3.088   5.548
 4935SOL     OW31946   5.711   5.867   1.204
 4935SOL    HW131947   5.773   5.796   1.191
 4935SOL    HW231948   5.629   5.824   1.228
 4936SOL     OW31949   5.188   1.014   6.479
 4936SOL    HW131950   5.238   1.079   6.527
 4936SOL    HW231951   5.102   1.054   6.465
 4937SOL     OW31952   3.406   1.219   7.098
 4937SOL    HW131953   3.497   1.241   7.118
 4937SOL    HW231954   3.356   1.250   7.174
 4938SOL     OW31955   2.592   4.514   0.207
 4938SOL    HW131956   2.562   4.586   0.151
 4938SOL    HW231957   2.670   4.548   0.250
 4939SOL     OW31958   2.866   4.756   0.064
 4939SOL    HW131959   2.772   4.773   0.073
 4939SOL    HW231960   2.877   4.666   0.096
 4940SOL     OW31961   0.553   1.171   6.641
 4940SOL    HW131962   0.645   1.176   6.667
 4940SOL    HW231963   0.530   1.260   6.616
 4941SOL     OW31964   6.184   2.786   0.998
 4941SOL    HW131965   6.165   2.717   1.062
 4941SOL    HW231966   6.114   2.777   0.933
 4942SOL     OW31967   3.042   4.824   6.745
 4942SOL    HW131968   2.970   4.794   6.800
 4942SOL    HW231969   3.116   4.770   6.772
 4943SOL     OW31970   2.151   1.548   1.758
 4943SOL    HW131971   2.097   1.505   1.824
 4943SOL    HW231972   2.241   1.522   1.781
 4944SOL     OW31973   3.701   0.325   1.444
 4944SOL    HW131974   3.768   0.265   1.477
 4944SOL    HW231975   3.662   0.362   1.523
 4945SOL     OW31976   0.755   1.070   5.929
 4945SOL    HW131977   0.849   1.059   5.915
 4945SOL    HW231978   0.717   0.989   5.894
 4946SOL     OW31979   3.968   2.558   0.621
 4946SOL    HW131980   3.985   2.573   0.528
 4946SOL    HW231981   4.046   2.512   0.652
 4947SOL     OW31982   5.062   0.052   0.862
 4947SOL    HW131983   4.990   0.078   0.919
 4947SOL    HW231984   5.022   0.043   0.776
 4948SOL     OW31985   5.498   4.177   7.151
 4948SOL    HW131986   5.453   4.194   7.069
 4948SOL    HW231987   5.441   4.213   7.218
 4949SOL     OW31988   2.942   5.591   1.174
 4949SOL    HW131989   2.981   5.679   1.164
 4949SOL    HW231990   2.862   5.606   1.225
 4950SOL     OW31991   1.451   2.243   2.164
 4950SOL    HW131992   1.358   2.242   2.143
 4950SOL    HW231993   1.463   2.324   2.214
 4951SOL     OW31994   3.629   2.996   1.152
 4951SOL    HW131995   3.668   2.927   1.205
 4951SOL    HW231996   3.648   3.077   1.201
 4952SOL     OW31997   0.994   4.061   6.118
 4952SOL    HW131998   1.055   3.988   6.105
 4952SOL    HW231999   1.050   4.139   6.121
 4953SOL     OW32000   6.382   3.692   0.517
 4953SOL    HW132001   6.342   3.712   0.601
 4953SOL    HW232002   6.445   3.762   0.502
 4954SOL     OW32003   4.727   4.601   1.099
 4954SOL    HW132004   4.775   4.519   1.093
 4954SOL    HW232005   4.771   4.660   1.038
 4955SOL     OW32006   5.868   0.565   5.094
 4955SOL    HW132007   5.963   0.568   5.082
 4955SOL    HW232008   5.837   0.651   5.065
 4956SOL     OW32009   5.664   5.484   0.695
 4956SOL    HW132010   5.613   5.564   0.687
 4956SOL    HW232011   5.626   5.425   0.630
 4957SOL     OW32012   5.663   3.589   0.549
 4957SOL    HW132013   5.646   3.679   0.523
 4957SOL    HW232014   5.611   3.576   0.628
 4958SOL     OW32015   3.464   4.977   5.082
 4958SOL    HW132016   3.482   5.067   5.055
 4958SOL    HW232017   3.489   4.974   5.174
 4959SOL     OW32018   2.027   4.873   1.739
 4959SOL    HW132019   2.087   4.824   1.795
 4959SOL    HW232020   2.075   4.953   1.717
 4960SOL     OW32021   2.497   1.523   0.391
 4960SOL    HW132022   2.458   1.607   0.412
 4960SOL    HW232023   2.490   1.516   0.296
 4961SOL     OW32024   4.930   0.276   1.775
 4961SOL    HW132025   4.976   0.235   1.702
 4961SOL    HW232026   4.855   0.320   1.735
 4962SOL     OW32027   3.722   1.163   1.644
 4962SOL    HW132028   3.746   1.245   1.688
 4962SOL    HW232029   3.763   1.095   1.697
 4963SOL     OW32030   4.062   4.096   0.374
 4963SOL    HW132031   4.100   4.066   0.292
 4963SOL    HW232032   4.106   4.044   0.441
 4964SOL     OW32033   0.114   0.807   5.252
 4964SOL    HW132034   0.187   0.757   5.216
 4964SOL    HW232035   0.068   0.745   5.309
 4965SOL     OW32036   2.658   3.426   1.310
 4965SOL    HW132037   2.619   3.340   1.299
 4965SOL    HW232038   2.743   3.420   1.266
 4966SOL     OW32039   4.246   4.482   0.354
 4966SOL    HW132040   4.330   4.442   0.375
 4966SOL    HW232041   4.203   4.495   0.438
 4967SOL     OW32042   1.490   5.203   5.985
 4967SOL    HW132043   1.560   5.205   6.049
 4967SOL    HW232044   1.463   5.295   5.975
 4968SOL     OW32045   5.881   6.055   6.042
 4968SOL    HW132046   5.960   6.003   6.024
 4968SOL    HW232047   5.827   5.998   6.096
 4969SOL     OW32048   0.617   6.126   0.975
 4969SOL    HW132049   0.635   6.212   0.938
 4969SOL    HW232050   0.537   6.138   1.026
 4970SOL     OW32051   2.442   0.094   1.043
 4970SOL    HW132052   2.457   0.126   1.132
 4970SOL    HW232053   2.463   0.169   0.987
 4971SOL     OW32054   1.664   0.266   5.997
 4971SOL    HW132055   1.723   0.297   6.066
 4971SOL    HW232056   1.717   0.271   5.917
 4972SOL     OW32057   2.043   6.466   0.820
 4972SOL    HW132058   2.040   6.392   0.759
 4972SOL    HW232059   2.009   0.051   0.769
 4973SOL     OW32060   0.945   4.368   2.292
 4973SOL    HW132061   0.928   4.457   2.261
 4973SOL    HW232062   1.019   4.337   2.240
 4974SOL     OW32063   5.450   2.354   6.716
 4974SOL    HW132064   5.515   2.412   6.756
 4974SOL    HW232065   5.385   2.413   6.677
 4975SOL     OW32066   4.795   2.308   0.948
 4975SOL    HW132067   4.811   2.248   1.020
 4975SOL    HW232068   4.834   2.265   0.872
 4976SOL     OW32069   0.452   2.541   6.617
 4976SOL    HW132070   0.453   2.447   6.634
 4976SOL    HW232071   0.364   2.569   6.645
 4977SOL     OW32072   5.783   0.421   6.179
 4977SOL    HW132073   5.792   0.451   6.270
 4977SOL    HW232074   5.723   0.484   6.139
 4978SOL     OW32075   1.937   3.630   7.318
 4978SOL    HW132076   1.976   3.629   7.231
 4978SOL    HW232077   1.852   3.587   7.305
 4979SOL     OW32078   1.538   0.392   0.069
 4979SOL    HW132079   1.564   0.324   0.006
 4979SOL    HW232080   1.455   0.426   0.035
 4980SOL     OW32081   2.667   0.997   4.865
 4980SOL    HW132082   2.759   1.017   4.849
 4980SOL    HW232083   2.668   0.916   4.916
 4981SOL     OW32084   6.463   4.877   1.824
 4981SOL    HW132085   6.421   4.922   1.897
 4981SOL    HW232086   6.487   4.792   1.860
 4982SOL     OW32087   1.032   5.608   7.263
 4982SOL    HW132088   1.031   5.697   7.225
 4982SOL    HW232089   0.991   5.618   7.349
 4983SOL     OW32090   4.150   5.347   7.350
 4983SOL    HW132091   4.178   5.376   7.437
 4983SOL    HW232092   4.082   5.282   7.368
 4984SOL     OW32093   5.759   5.828   6.181
 4984SOL    HW132094   5.797   5.791   6.261
 4984SOL    HW232095   5.674   5.784   6.172
 4985SOL     OW32096   1.286   4.219   7.298
 4985SOL    HW132097   1.301   4.310   7.271
 4985SOL    HW232098   1.361   4.171   7.264
 4986SOL     OW32099   0.127   5.370   0.068
 4986SOL    HW132100   0.052   5.397   0.122
 4986SOL    HW232101   0.194   5.437   0.085
 4987SOL     OW32102   5.725   1.239   7.139
 4987SOL    HW132103   5.799   1.287   7.100
 4987SOL    HW232104   5.647   1.287   7.109
 4988SOL     OW32105   0.795   2.380   2.104
 4988SOL    HW132106   0.730   2.319   2.071
 4988SOL    HW232107   0.864   2.380   2.038
 4989SOL     OW32108   1.825   0.826   7.567
 4989SOL    HW132109   1.788   0.768   7.634
 4989SOL    HW232110   1.784   0.911   7.585
 4990SOL     OW32111   2.430   0.181   1.310
 4990SOL    HW132112   2.439   0.260   1.256
 4990SOL    HW232113   2.478   0.201   1.390
 4991SOL     OW32114   1.399   6.452   6.921
 4991SOL    HW132115   1.316   6.411   6.942
 4991SOL    HW232116   1.376   0.054   6.901
 4992SOL     OW32117   3.187   0.580   6.780
 4992SOL    HW132118   3.173   0.495   6.821
 4992SOL    HW232119   3.236   0.630   6.845
 4993SOL     OW32120   3.130   5.069   0.288
 4993SOL    HW132121   3.118   5.061   0.382
 4993SOL    HW232122   3.221   5.099   0.278
 4994SOL     OW32123   3.447   5.798   0.211
 4994SOL    HW132124   3.456   5.709   0.178
 4994SOL    HW232125   3.376   5.794   0.274
 4995SOL     OW32126   4.039   2.888   2.048
 4995SOL    HW132127   4.125   2.873   2.009
 4995SOL    HW232128   4.004   2.800   2.064
 4996SOL     OW32129   3.066   5.919   0.969
 4996SOL    HW132130   2.986   5.895   0.923
 4996SOL    HW232131   3.137   5.902   0.906
 4997SOL     OW32132   4.726   0.781   1.410
 4997SOL    HW132133   4.742   0.687   1.400
 4997SOL    HW232134   4.783   0.808   1.482
 4998SOL     OW32135   3.723   0.505   7.603
 4998SOL    HW132136   3.814   0.474   7.601
 4998SOL    HW232137   3.680   0.450   7.668
 4999SOL     OW32138   0.615   0.822   1.577
 4999SOL    HW132139   0.586   0.755   1.639
 4999SOL    HW232140   0.609   0.904   1.625
 5000SOL     OW32141   5.936   2.250   0.992
 5000SOL    HW132142   5.953   2.208   1.076
 5000SOL    HW232143   5.963   2.186   0.927
 5001SOL     OW32144   4.023   0.305   0.145
 5001SOL    HW132145   4.042   0.276   0.056
 5001SOL    HW232146   3.988   0.228   0.189
 5002SOL     OW32147   3.609   6.210   7.001
 5002SOL    HW132148   3.653   6.199   6.917
 5002SOL    HW232149   3.535   6.149   6.998
 5003SOL     OW32150   6.206   2.883   6.360
 5003SOL    HW132151   6.113   2.904   6.361
 5003SOL    HW232152   6.209   2.789   6.376
 5004SOL     OW32153   3.272   5.091   0.026
 5004SOL    HW132154   3.259   4.999   0.050
 5004SOL    HW232155   3.191   5.116   7.743
 5005SOL     OW32156   0.817   3.483   1.480
 5005SOL    HW132157   0.783   3.394   1.469
 5005SOL    HW232158   0.779   3.514   1.562
 5006SOL     OW32159   0.747   2.908   6.201
 5006SOL    HW132160   0.686   2.930   6.130
 5006SOL    HW232161   0.834   2.917   6.162
 5007SOL     OW32162   1.463   5.926   6.099
 5007SOL    HW132163   1.391   5.983   6.126
 5007SOL    HW232164   1.439   5.897   6.011
 5008SOL     OW32165   2.190   6.312   6.891
 5008SOL    HW132166   2.283   6.334   6.889
 5008SOL    HW232167   2.151   6.368   6.824
 5009SOL     OW32168   5.289   0.971   7.040
 5009SOL    HW132169   5.360   0.973   6.976
 5009SOL    HW232170   5.252   1.059   7.038
 5010SOL     OW32171   0.793   3.169   2.285
 5010SOL    HW132172   0.864   3.124   2.239
 5010SOL    HW232173   0.779   3.249   2.235
 5011SOL     OW32174   0.333   1.660   6.595
 5011SOL    HW132175   0.304   1.582   6.547
 5011SOL    HW232176   0.393   1.704   6.535
 5012SOL     OW32177   4.519   0.007   7.508
 5012SOL    HW132178   4.614   6.487   7.515
 5012SOL    HW232179   4.492   6.426   7.449
 5013SOL     OW32180   3.945   5.830   1.274
 5013SOL    HW132181   4.026   5.806   1.229
 5013SOL    HW232182   3.877   5.777   1.232
 5014SOL     OW32183   2.561   4.907   0.321
 5014SOL    HW132184   2.639   4.960   0.337
 5014SOL    HW232185   2.573   4.829   0.375
 5015SOL     OW32186   1.156   4.392   7.671
 5015SOL    HW132187   1.196   4.305   7.669
 5015SOL    HW232188   1.079   4.385   7.616
 5016SOL     OW32189   3.194   4.338   0.357
 5016SOL    HW132190   3.105   4.307   0.375
 5016SOL    HW232191   3.245   4.306   0.431
 5017SOL     OW32192   3.501   1.418   6.040
 5017SOL    HW132193   3.432   1.368   6.083
 5017SOL    HW232194   3.525   1.486   6.103
 5018SOL     OW32195   2.526   0.509   5.535
 5018SOL    HW132196   2.614   0.522   5.499
 5018SOL    HW232197   2.483   0.594   5.526
 5019SOL     OW32198   2.856   6.184   6.782
 5019SOL    HW132199   2.928   6.126   6.758
 5019SOL    HW232200   2.797   6.182   6.706
 5020SOL     OW32201   2.517   1.911   0.816
 5020SOL    HW132202   2.600   1.891   0.773
 5020SOL    HW232203   2.478   1.825   0.833
 5021SOL     OW32204   1.238   0.006   0.944
 5021SOL    HW132205   1.166   0.030   0.885
 5021SOL    HW232206   1.294   0.083   0.947
 5022SOL     OW32207   4.442   4.442   7.400
 5022SOL    HW132208   4.365   4.416   7.451
 5022SOL    HW232209   4.419   4.527   7.364
 5023SOL     OW32210   4.489   2.135   0.176
 5023SOL    HW132211   4.480   2.040   0.181
 5023SOL    HW232212   4.421   2.169   0.234
 5024SOL     OW32213   3.874   3.852   0.418
 5024SOL    HW132214   3.850   3.819   0.331
 5024SOL    HW232215   3.790   3.875   0.459
 5025SOL     OW32216   1.384   4.362   5.605
 5025SOL    HW132217   1.447   4.434   5.600
 5025SOL    HW232218   1.357   4.360   5.696
 5026SOL     OW32219   0.026   0.600   0.928
 5026SOL    HW132220   0.081   0.561   0.995
 5026SOL    HW232221   6.468   0.525   0.889
 5027SOL     OW32222   4.166   4.735   0.295
 5027SOL    HW132223   4.120   4.686   0.227
 5027SOL    HW232224   4.233   4.675   0.327
 5028SOL     OW32225   5.774   1.236   6.058
 5028SOL    HW132226   5.829   1.313   6.075
 5028SOL    HW232227   5.714   1.264   5.988
 5029SOL     OW32228   2.778   0.351   7.710
 5029SOL    HW132229   2.842   0.285   7.685
 5029SOL    HW232230   2.752   0.326   0.037
 5030SOL     OW32231   3.589   1.170   1.165
 5030SOL    HW132232   3.528   1.243   1.155
 5030SOL    HW232233   3.636   1.190   1.247
 5031SOL     OW32234   2.626   0.745   1.384
 5031SOL    HW132235   2.549   0.773   1.334
 5031SOL    HW232236   2.656   0.825   1.428
 5032SOL     OW32237   0.126   0.656   0.521
 5032SOL    HW132238   0.143   0.611   0.437
 5032SOL    HW232239   0.066   0.598   0.567
 5033SOL     OW32240   4.774   3.329   6.400
 5033SOL    HW132241   4.767   3.371   6.485
 5033SOL    HW232242   4.712   3.255   6.405
 5034SOL     OW32243   4.787   4.281   2.467
 5034SOL    HW132244   4.726   4.289   2.394
 5034SOL    HW232245   4.817   4.190   2.463
 5035SOL     OW32246   0.534   4.375   6.370
 5035SOL    HW132247   0.580   4.327   6.439
 5035SOL    HW232248   0.577   4.348   6.289
 5036SOL     OW32249   2.175   1.886   1.026
 5036SOL    HW132250   2.161   1.845   0.941
 5036SOL    HW232251   2.176   1.813   1.088
 5037SOL     OW32252   3.002   4.318   6.961
 5037SOL    HW132253   2.967   4.329   7.050
 5037SOL    HW232254   3.097   4.313   6.974
 5038SOL     OW32255   0.013   5.715   1.692
 5038SOL    HW132256   6.485   5.790   1.750
 5038SOL    HW232257   6.419   5.703   1.644
 5039SOL     OW32258   0.496   1.906   0.914
 5039SOL    HW132259   0.429   1.971   0.893
 5039SOL    HW232260   0.573   1.958   0.938
 5040SOL     OW32261   5.002   3.175   1.425
 5040SOL    HW132262   5.063   3.248   1.428
 5040SOL    HW232263   4.966   3.177   1.336
 5041SOL     OW32264   3.312   4.114   1.742
 5041SOL    HW132265   3.323   4.125   1.647
 5041SOL    HW232266   3.361   4.187   1.780
 5042SOL     OW32267   0.773   1.632   6.475
 5042SOL    HW132268   0.772   1.577   6.396
 5042SOL    HW232269   0.780   1.571   6.548
 5043SOL     OW32270   3.533   5.133   0.762
 5043SOL    HW132271   3.539   5.206   0.824
 5043SOL    HW232272   3.467   5.162   0.698
 5044SOL     OW32273   1.373   5.468   5.936
 5044SOL    HW132274   1.285   5.436   5.914
 5044SOL    HW232275   1.382   5.549   5.885
 5045SOL     OW32276   3.434   3.131   7.325
 5045SOL    HW132277   3.389   3.053   7.292
 5045SOL    HW232278   3.373   3.202   7.308
 5046SOL     OW32279   5.084   4.411   7.062
 5046SOL    HW132280   5.036   4.491   7.039
 5046SOL    HW232281   5.105   4.420   7.154
 5047SOL     OW32282   2.922   1.597   6.304
 5047SOL    HW132283   2.998   1.549   6.338
 5047SOL    HW232284   2.914   1.673   6.362
 5048SOL     OW32285   5.252   0.230   6.714
 5048SOL    HW132286   5.219   0.181   6.639
 5048SOL    HW232287   5.290   0.309   6.676
 5049SOL     OW32288   6.461   3.139   0.384
 5049SOL    HW132289   6.428   3.229   0.380
 5049SOL    HW232290   0.066   3.149   0.405
 5050SOL     OW32291   0.200   3.289   7.692
 5050SOL    HW132292   0.233   3.243   0.008
 5050SOL    HW232293   0.232   3.237   7.618
 5051SOL     OW32294   4.757   4.706   6.190
 5051SOL    HW132295   4.799   4.753   6.118
 5051SOL    HW232296   4.684   4.763   6.217
 5052SOL     OW32297   3.883   3.612   0.755
 5052SOL    HW132298   3.861   3.660   0.835
 5052SOL    HW232299   3.928   3.534   0.786
 5053SOL     OW32300   4.918   2.824   6.740
 5053SOL    HW132301   4.844   2.763   6.733
 5053SOL    HW232302   4.977   2.799   6.670
 5054SOL     OW32303   2.676   1.603   5.736
 5054SOL    HW132304   2.675   1.514   5.701
 5054SOL    HW232305   2.613   1.602   5.808
 5055SOL     OW32306   3.170   3.679   1.213
 5055SOL    HW132307   3.264   3.696   1.204
 5055SOL    HW232308   3.129   3.752   1.168
 5056SOL     OW32309   5.268   4.463   7.742
 5056SOL    HW132310   5.343   4.493   0.033
 5056SOL    HW232311   5.271   4.368   7.748
 5057SOL     OW32312   5.497   0.333   1.277
 5057SOL    HW132313   5.575   0.382   1.303
 5057SOL    HW232314   5.479   0.276   1.351
 5058SOL     OW32315   5.640   0.079   7.454
 5058SOL    HW132316   5.625   0.082   7.549
 5058SOL    HW232317   5.595   6.488   7.425
 5059SOL     OW32318   2.829   1.846   6.177
 5059SOL    HW132319   2.922   1.868   6.170
 5059SOL    HW232320   2.827   1.751   6.176
 5060SOL     OW32321   1.876   3.898   6.184
 5060SOL    HW132322   1.872   3.993   6.191
 5060SOL    HW232323   1.889   3.868   6.274
 5061SOL     OW32324   3.825   0.259   6.299
 5061SOL    HW132325   3.813   0.341   6.251
 5061SOL    HW232326   3.795   0.191   6.239
 5062SOL     OW32327   2.904   2.500   6.773
 5062SOL    HW132328   2.853   2.446   6.712
 5062SOL    HW232329   2.846   2.574   6.793
 5063SOL     OW32330   2.882   4.504   2.534
 5063SOL    HW132331   2.866   4.596   2.513
 5063SOL    HW232332   2.965   4.484   2.490
 5064SOL     OW32333   0.390   1.261   0.305
 5064SOL    HW132334   0.424   1.343   0.340
 5064SOL    HW232335   0.306   1.284   0.265
 5065SOL     OW32336   4.371   3.490   1.363
 5065SOL    HW132337   4.401   3.439   1.438
 5065SOL    HW232338   4.444   3.547   1.341
 5066SOL     OW32339   4.901   2.369   0.269
 5066SOL    HW132340   4.841   2.350   0.197
 5066SOL    HW232341   4.868   2.318   0.342
 5067SOL     OW32342   3.068   5.269   2.330
 5067SOL    HW132343   2.975   5.245   2.332
 5067SOL    HW232344   3.068   5.364   2.334
 5068SOL     OW32345   2.754   4.176   0.118
 5068SOL    HW132346   2.803   4.118   0.177
 5068SOL    HW232347   2.662   4.158   0.136
 5069SOL     OW32348   5.126   3.676   0.738
 5069SOL    HW132349   5.151   3.638   0.654
 5069SOL    HW232350   5.129   3.603   0.799
 5070SOL     OW32351   3.081   0.588   7.207
 5070SOL    HW132352   3.126   0.627   7.133
 5070SOL    HW232353   2.988   0.598   7.188
 5071SOL     OW32354   2.560   5.312   6.251
 5071SOL    HW132355   2.525   5.339   6.166
 5071SOL    HW232356   2.483   5.294   6.304
 5072SOL     OW32357   2.688   5.855   4.704
 5072SOL    HW132358   2.658   5.783   4.759
 5072SOL    HW232359   2.701   5.816   4.618
 5073SOL     OW32360   5.538   2.409   2.272
 5073SOL    HW132361   5.538   2.496   2.310
 5073SOL    HW232362   5.517   2.350   2.344
 5074SOL     OW32363   2.076   4.099   1.705
 5074SOL    HW132364   2.111   4.179   1.665
 5074SOL    HW232365   2.152   4.058   1.747
 5075SOL     OW32366   1.060   1.679   0.129
 5075SOL    HW132367   1.001   1.623   0.078
 5075SOL    HW232368   1.121   1.618   0.170
 5076SOL     OW32369   1.451   1.516   1.532
 5076SOL    HW132370   1.516   1.504   1.462
 5076SOL    HW232371   1.501   1.503   1.612
 5077SOL     OW32372   2.914   3.156   0.341
 5077SOL    HW132373   2.932   3.210   0.418
 5077SOL    HW232374   2.936   3.212   0.267
 5078SOL     OW32375   5.377   3.950   1.150
 5078SOL    HW132376   5.429   3.877   1.184
 5078SOL    HW232377   5.288   3.915   1.145
 5079SOL     OW32378   4.847   6.128   6.846
 5079SOL    HW132379   4.827   6.049   6.797
 5079SOL    HW232380   4.904   6.179   6.789
 5080SOL     OW32381   4.690   3.749   0.167
 5080SOL    HW132382   4.693   3.840   0.140
 5080SOL    HW232383   4.782   3.723   0.175
 5081SOL     OW32384   5.008   2.707   2.021
 5081SOL    HW132385   5.010   2.740   1.931
 5081SOL    HW232386   4.955   2.770   2.069
 5082SOL     OW32387   1.321   0.005   0.395
 5082SOL    HW132388   1.400   6.465   0.441
 5082SOL    HW232389   1.339   6.477   0.303
 5083SOL     OW32390   0.926   4.179   0.694
 5083SOL    HW132391   0.874   4.258   0.682
 5083SOL    HW232392   0.976   4.171   0.612
 5084SOL     OW32393   1.142   5.531   0.198
 5084SOL    HW132394   1.178   5.561   0.115
 5084SOL    HW232395   1.090   5.605   0.230
 5085SOL     OW32396   6.087   5.851   6.746
 5085SOL    HW132397   6.134   5.799   6.680
 5085SOL    HW232398   6.149   5.860   6.818
 5086SOL     OW32399   2.774   6.178   5.541
 5086SOL    HW132400   2.785   6.244   5.609
 5086SOL    HW232401   2.821   6.213   5.466
 5087SOL     OW32402   4.910   4.946   0.612
 5087SOL    HW132403   4.949   4.901   0.688
 5087SOL    HW232404   4.818   4.958   0.636
 5088SOL     OW32405   1.749   2.860   1.677
 5088SOL    HW132406   1.813   2.833   1.611
 5088SOL    HW232407   1.671   2.884   1.626
 5089SOL     OW32408   2.575   4.614   6.181
 5089SOL    HW132409   2.587   4.702   6.144
 5089SOL    HW232410   2.510   4.626   6.251
 5090SOL     OW32411   3.898   2.751   0.399
 5090SOL    HW132412   3.832   2.685   0.375
 5090SOL    HW232413   3.976   2.726   0.349
 5091SOL     OW32414   1.788   3.144   0.547
 5091SOL    HW132415   1.693   3.149   0.548
 5091SOL    HW232416   1.808   3.056   0.580
 5092SOL     OW32417   3.856   4.083   6.992
 5092SOL    HW132418   3.880   3.993   6.968
 5092SOL    HW232419   3.940   4.125   7.011
 5093SOL     OW32420   4.884   4.080   0.134
 5093SOL    HW132421   4.797   4.066   0.098
 5093SOL    HW232422   4.902   4.172   0.119
 5094SOL     OW32423   6.163   1.780   1.545
 5094SOL    HW132424   6.075   1.756   1.576
 5094SOL    HW232425   6.183   1.862   1.591
 5095SOL     OW32426   1.293   2.437   1.407
 5095SOL    HW132427   1.381   2.444   1.444
 5095SOL    HW232428   1.252   2.365   1.454
 5096SOL     OW32429   2.440   5.682   7.267
 5096SOL    HW132430   2.376   5.622   7.230
 5096SOL    HW232431   2.413   5.768   7.235
 5097SOL     OW32432   0.744   5.530   6.005
 5097SOL    HW132433   0.664   5.566   6.044
 5097SOL    HW232434   0.714   5.484   5.926
 5098SOL     OW32435   1.144   5.218   1.969
 5098SOL    HW132436   1.067   5.266   2.000
 5098SOL    HW232437   1.188   5.189   2.049
 5099SOL     OW32438   3.427   3.723   1.154
 5099SOL    HW132439   3.483   3.797   1.130
 5099SOL    HW232440   3.478   3.675   1.220
 5100SOL     OW32441   5.378   5.268   6.810
 5100SOL    HW132442   5.292   5.234   6.788
 5100SOL    HW232443   5.383   5.353   6.766
 5101SOL     OW32444   4.962   1.406   1.780
 5101SOL    HW132445   5.053   1.413   1.808
 5101SOL    HW232446   4.943   1.312   1.783
 5102SOL     OW32447   5.395   3.332   6.525
 5102SOL    HW132448   5.449   3.382   6.586
 5102SOL    HW232449   5.322   3.390   6.504
 5103SOL     OW32450   3.212   2.530   6.674
 5103SOL    HW132451   3.134   2.553   6.724
 5103SOL    HW232452   3.179   2.485   6.596
 5104SOL     OW32453   2.606   6.225   6.300
 5104SOL    HW132454   2.513   6.204   6.310
 5104SOL    HW232455   2.643   6.215   6.387
 5105SOL     OW32456   0.165   2.649   0.398
 5105SOL    HW132457   0.100   2.580   0.410
 5105SOL    HW232458   0.179   2.684   0.486
 5106SOL     OW32459   1.113   3.042   0.856
 5106SOL    HW132460   1.127   3.132   0.887
 5106SOL    HW232461   1.139   3.044   0.764
 5107SOL     OW32462   2.449   4.173   1.226
 5107SOL    HW132463   2.455   4.215   1.312
 5107SOL    HW232464   2.359   4.186   1.199
 5108SOL     OW32465   1.045   0.435   2.413
 5108SOL    HW132466   1.133   0.398   2.403
 5108SOL    HW232467   1.047   0.516   2.361
 5109SOL     OW32468   1.385   0.753   7.676
 5109SOL    HW132469   1.344   0.837   7.657
 5109SOL    HW232470   1.323   0.688   7.643
 5110SOL     OW32471   4.085   3.403   6.977
 5110SOL    HW132472   3.991   3.385   6.983
 5110SOL    HW232473   4.094   3.460   6.901
 5111SOL     OW32474   3.246   3.374   6.779
 5111SOL    HW132475   3.273   3.283   6.791
 5111SOL    HW232476   3.303   3.406   6.709
 5112SOL     OW32477   6.312   3.065   5.716
 5112SOL    HW132478   6.320   3.109   5.801
 5112SOL    HW232479   6.345   2.976   5.732
 5113SOL     OW32480   3.005   4.077   6.523
 5113SOL    HW132481   3.062   4.024   6.579
 5113SOL    HW232482   3.030   4.054   6.434
 5114SOL     OW32483   2.315   2.195   5.673
 5114SOL    HW132484   2.407   2.208   5.650
 5114SOL    HW232485   2.316   2.117   5.730
 5115SOL     OW32486   5.384   2.007   0.435
 5115SOL    HW132487   5.364   2.008   0.528
 5115SOL    HW232488   5.429   2.090   0.419
 5116SOL     OW32489   2.186   1.068   0.756
 5116SOL    HW132490   2.154   1.156   0.776
 5116SOL    HW232491   2.196   1.026   0.841
 5117SOL     OW32492   2.305   0.006   6.559
 5117SOL    HW132493   2.229   0.040   6.606
 5117SOL    HW232494   2.279   6.407   6.532
 5118SOL     OW32495   2.114   0.721   0.187
 5118SOL    HW132496   2.182   0.771   0.231
 5118SOL    HW232497   2.046   0.785   0.165
 5119SOL     OW32498   2.028   4.795   1.389
 5119SOL    HW132499   1.987   4.880   1.407
 5119SOL    HW232500   1.958   4.732   1.402
 5120SOL     OW32501   5.304   0.064   6.925
 5120SOL    HW132502   5.281   0.126   6.856
 5120SOL    HW232503   5.388   0.097   6.959
 5121SOL     OW32504   1.759   1.541   1.645
 5121SOL    HW132505   1.836   1.489   1.622
 5121SOL    HW232506   1.717   1.491   1.715
 5122SOL     OW32507   1.479   6.451   7.761
 5122SOL    HW132508   1.469   6.476   7.669
 5122SOL    HW232509   1.566   6.481   0.023
 5123SOL     OW32510   3.887   6.018   6.326
 5123SOL    HW132511   3.936   6.027   6.244
 5123SOL    HW232512   3.953   6.023   6.394
 5124SOL     OW32513   3.472   6.002   5.250
 5124SOL    HW132514   3.534   6.072   5.273
 5124SOL    HW232515   3.486   5.988   5.156
 5125SOL     OW32516   0.650   0.884   0.174
 5125SOL    HW132517   0.629   0.806   0.122
 5125SOL    HW232518   0.565   0.917   0.203
 5126SOL     OW32519   1.091   0.447   1.675
 5126SOL    HW132520   1.152   0.491   1.615
 5126SOL    HW232521   1.047   0.519   1.722
 5127SOL     OW32522   0.719   4.483   5.765
 5127SOL    HW132523   0.703   4.404   5.818
 5127SOL    HW232524   0.811   4.503   5.779
 5128SOL     OW32525   2.771   5.548   1.583
 5128SOL    HW132526   2.824   5.619   1.546
 5128SOL    HW232527   2.717   5.591   1.650
 5129SOL     OW32528   3.732   0.360   0.999
 5129SOL    HW132529   3.638   0.371   1.016
 5129SOL    HW232530   3.762   0.446   0.972
 5130SOL     OW32531   2.874   5.336   1.103
 5130SOL    HW132532   2.902   5.428   1.109
 5130SOL    HW232533   2.789   5.339   1.061
 5131SOL     OW32534   0.754   2.316   0.341
 5131SOL    HW132535   0.770   2.386   0.278
 5131SOL    HW232536   0.832   2.260   0.336
 5132SOL     OW32537   5.725   1.688   7.263
 5132SOL    HW132538   5.701   1.595   7.265
 5132SOL    HW232539   5.747   1.705   7.172
 5133SOL     OW32540   1.498   1.515   6.137
 5133SOL    HW132541   1.538   1.587   6.089
 5133SOL    HW232542   1.417   1.496   6.091
 5134SOL     OW32543   1.632   0.440   6.615
 5134SOL    HW132544   1.630   0.412   6.524
 5134SOL    HW232545   1.724   0.463   6.630
 5135SOL     OW32546   5.981   1.693   6.444
 5135SOL    HW132547   6.017   1.662   6.527
 5135SOL    HW232548   5.939   1.616   6.405
 5136SOL     OW32549   2.157   0.558   6.793
 5136SOL    HW132550   2.174   0.572   6.886
 5136SOL    HW232551   2.082   0.499   6.791
 5137SOL     OW32552   1.253   5.281   0.256
 5137SOL    HW132553   1.291   5.285   0.343
 5137SOL    HW232554   1.228   5.372   0.237
 5138SOL     OW32555   0.088   3.431   0.613
 5138SOL    HW132556   0.082   3.463   0.702
 5138SOL    HW232557   0.002   3.449   0.575
 5139SOL     OW32558   2.532   0.662   0.805
 5139SOL    HW132559   2.543   0.723   0.878
 5139SOL    HW232560   2.460   0.605   0.832
 5140SOL     OW32561   5.989   0.612   5.754
 5140SOL    HW132562   6.024   0.667   5.684
 5140SOL    HW232563   6.014   0.656   5.835
 5141SOL     OW32564   2.298   4.780   6.477
 5141SOL    HW132565   2.281   4.862   6.429
 5141SOL    HW232566   2.265   4.711   6.419
 5142SOL     OW32567   5.770   2.644   0.687
 5142SOL    HW132568   5.800   2.615   0.601
 5142SOL    HW232569   5.712   2.574   0.717
 5143SOL     OW32570   1.239   6.445   7.280
 5143SOL    HW132571   1.265   0.043   7.248
 5143SOL    HW232572   1.231   6.392   7.200
 5144SOL     OW32573   0.060   5.976   7.158
 5144SOL    HW132574   6.474   5.929   7.194
 5144SOL    HW232575   0.058   6.061   7.201
 5145SOL     OW32576   2.649   1.054   5.914
 5145SOL    HW132577   2.608   1.064   5.828
 5145SOL    HW232578   2.580   1.017   5.969
 5146SOL     OW32579   2.052   3.928   7.640
 5146SOL    HW132580   2.120   3.950   7.703
 5146SOL    HW232581   2.075   3.840   7.609
 5147SOL     OW32582   1.508   6.143   0.957
 5147SOL    HW132583   1.442   6.074   0.957
 5147SOL    HW232584   1.482   6.201   0.886
 5148SOL     OW32585   6.159   3.705   1.755
 5148SOL    HW132586   6.251   3.696   1.781
 5148SOL    HW232587   6.127   3.615   1.749
 5149SOL     OW32588   1.564   4.139   6.513
 5149SOL    HW132589   1.492   4.102   6.563
 5149SOL    HW232590   1.628   4.068   6.507
 5150SOL     OW32591   4.153   5.078   7.748
 5150SOL    HW132592   4.067   5.100   0.021
 5150SOL    HW232593   4.202   5.160   7.752
 5151SOL     OW32594   0.369   4.391   1.591
 5151SOL    HW132595   0.358   4.415   1.499
 5151SOL    HW232596   0.403   4.471   1.632
 5152SOL     OW32597   3.899   5.546   6.489
 5152SOL    HW132598   3.992   5.522   6.495
 5152SOL    HW232599   3.891   5.587   6.403
 5153SOL     OW32600   5.460   2.462   0.348
 5153SOL    HW132601   5.435   2.379   0.389
 5153SOL    HW232602   5.438   2.528   0.414
 5154SOL     OW32603   0.336   0.498   0.067
 5154SOL    HW132604   0.319   0.404   0.069
 5154SOL    HW232605   0.266   0.535   0.014
 5155SOL     OW32606   2.210   4.704   6.886
 5155SOL    HW132607   2.232   4.651   6.963
 5155SOL    HW232608   2.121   4.734   6.903
 5156SOL     OW32609   5.933   5.097   1.782
 5156SOL    HW132610   6.021   5.108   1.818
 5156SOL    HW232611   5.907   5.009   1.808
 5157SOL     OW32612   3.748   4.622   0.737
 5157SOL    HW132613   3.808   4.687   0.701
 5157SOL    HW232614   3.772   4.614   0.829
 5158SOL     OW32615   6.238   3.094   1.789
 5158SOL    HW132616   6.283   3.030   1.844
 5158SOL    HW232617   6.307   3.152   1.759
 5159SOL     OW32618   0.092   1.947   2.081
 5159SOL    HW132619   0.061   1.870   2.033
 5159SOL    HW232620   0.072   1.926   2.173
 5160SOL     OW32621   0.502   3.746   1.357
 5160SOL    HW132622   0.556   3.676   1.321
 5160SOL    HW232623   0.564   3.806   1.399
 5161SOL     OW32624   6.001   3.271   1.196
 5161SOL    HW132625   6.007   3.366   1.198
 5161SOL    HW232626   6.092   3.241   1.203
 5162SOL     OW32627   3.636   1.743   1.826
 5162SOL    HW132628   3.718   1.711   1.789
 5162SOL    HW232629   3.583   1.665   1.839
 5163SOL     OW32630   0.203   4.903   2.323
 5163SOL    HW132631   0.210   4.998   2.308
 5163SOL    HW232632   0.291   4.870   2.308
 5164SOL     OW32633   3.713   5.736   6.614
 5164SOL    HW132634   3.761   5.736   6.697
 5164SOL    HW232635   3.775   5.701   6.550
 5165SOL     OW32636   3.255   4.091   7.198
 5165SOL    HW132637   3.341   4.053   7.215
 5165SOL    HW232638   3.228   4.126   7.283
 5166SOL     OW32639   5.062   3.968   0.970
 5166SOL    HW132640   4.999   3.918   0.917
 5166SOL    HW232641   5.078   4.048   0.920
 5167SOL     OW32642   2.511   3.175   0.400
 5167SOL    HW132643   2.435   3.121   0.423
 5167SOL    HW232644   2.531   3.223   0.480
 5168SOL     OW32645   0.743   2.736   7.181
 5168SOL    HW132646   0.810   2.787   7.136
 5168SOL    HW232647   0.776   2.646   7.179
 5169SOL     OW32648   5.246   2.270   5.935
 5169SOL    HW132649   5.253   2.284   5.841
 5169SOL    HW232650   5.180   2.202   5.945
 5170SOL     OW32651   3.064   2.973   2.198
 5170SOL    HW132652   3.101   2.997   2.113
 5170SOL    HW232653   2.973   2.950   2.179
 5171SOL     OW32654   5.985   0.554   7.553
 5171SOL    HW132655   5.897   0.518   7.540
 5171SOL    HW232656   5.982   0.595   7.639
 5172SOL     OW32657   3.145   0.421   5.445
 5172SOL    HW132658   3.130   0.386   5.532
 5172SOL    HW232659   3.228   0.467   5.452
 5173SOL     OW32660   5.486   1.140   6.269
 5173SOL    HW132661   5.404   1.171   6.231
 5173SOL    HW232662   5.545   1.130   6.195
 5174SOL     OW32663   6.029   5.299   6.624
 5174SOL    HW132664   5.940   5.288   6.658
 5174SOL    HW232665   6.077   5.342   6.695
 5175SOL     OW32666   3.866   0.292   7.333
 5175SOL    HW132667   3.897   0.344   7.407
 5175SOL    HW232668   3.875   0.351   7.258
 5176SOL     OW32669   0.437   0.216   6.655
 5176SOL    HW132670   0.491   0.284   6.695
 5176SOL    HW232671   0.432   0.240   6.563
 5177SOL     OW32672   0.177   4.976   6.303
 5177SOL    HW132673   0.113   5.002   6.237
 5177SOL    HW232674   0.125   4.930   6.369
 5178SOL     OW32675   3.036   2.380   0.622
 5178SOL    HW132676   3.126   2.367   0.653
 5178SOL    HW232677   3.029   2.321   0.546
 5179SOL     OW32678   6.457   4.035   0.538
 5179SOL    HW132679   6.455   4.130   0.545
 5179SOL    HW232680   6.381   4.005   0.587
 5180SOL     OW32681   2.105   4.608   2.141
 5180SOL    HW132682   2.064   4.604   2.227
 5180SOL    HW232683   2.050   4.669   2.091
 5181SOL     OW32684   3.081   1.305   1.409
 5181SOL    HW132685   3.126   1.389   1.416
 5181SOL    HW232686   3.080   1.286   1.316
 5182SOL     OW32687   4.873   5.748   6.093
 5182SOL    HW132688   4.892   5.659   6.064
 5182SOL    HW232689   4.813   5.782   6.027
 5183SOL     OW32690   0.060   3.020   2.371
 5183SOL    HW132691   6.485   2.959   2.409
 5183SOL    HW232692   0.053   3.098   2.424
 5184SOL     OW32693   1.754   4.836   1.817
 5184SOL    HW132694   1.743   4.910   1.877
 5184SOL    HW232695   1.807   4.870   1.745
 5185SOL     OW32696   2.160   3.629   1.864
 5185SOL    HW132697   2.253   3.648   1.877
 5185SOL    HW232698   2.116   3.709   1.892
 5186SOL     OW32699   6.060   5.623   7.480
 5186SOL    HW132700   6.044   5.533   7.509
 5186SOL    HW232701   6.148   5.621   7.443
 5187SOL     OW32702   2.095   3.615   6.298
 5187SOL    HW132703   2.008   3.648   6.319
 5187SOL    HW232704   2.078   3.540   6.240
 5188SOL     OW32705   3.167   3.082   5.992
 5188SOL    HW132706   3.200   3.001   5.954
 5188SOL    HW232707   3.220   3.151   5.952
 5189SOL     OW32708   0.059   0.802   7.234
 5189SOL    HW132709   0.029   0.888   7.264
 5189SOL    HW232710   0.047   0.744   7.309
 5190SOL     OW32711   2.877   3.068   7.190
 5190SOL    HW132712   2.818   3.044   7.262
 5190SOL    HW232713   2.897   3.160   7.205
 5191SOL     OW32714   6.286   5.747   1.302
 5191SOL    HW132715   6.221   5.713   1.240
 5191SOL    HW232716   6.253   5.720   1.388
 5192SOL     OW32717   3.046   2.546   5.952
 5192SOL    HW132718   3.109   2.480   5.981
 5192SOL    HW232719   3.072   2.568   5.863
 5193SOL     OW32720   2.757   3.655   0.984
 5193SOL    HW132721   2.664   3.636   1.000
 5193SOL    HW232722   2.803   3.580   1.022
 5194SOL     OW32723   3.073   0.161   1.290
 5194SOL    HW132724   3.163   0.134   1.308
 5194SOL    HW232725   3.033   0.085   1.247
 5195SOL     OW32726   4.090   0.678   7.433
 5195SOL    HW132727   4.102   0.667   7.527
 5195SOL    HW232728   4.079   0.772   7.420
 5196SOL     OW32729   0.683   4.228   6.551
 5196SOL    HW132730   0.645   4.263   6.632
 5196SOL    HW232731   0.761   4.181   6.579
 5197SOL     OW32732   1.884   1.267   5.323
 5197SOL    HW132733   1.940   1.343   5.310
 5197SOL    HW232734   1.848   1.249   5.236
 5198SOL     OW32735   1.859   3.325   0.934
 5198SOL    HW132736   1.942   3.311   0.887
 5198SOL    HW232737   1.819   3.400   0.891
 5199SOL     OW32738   0.338   6.054   6.323
 5199SOL    HW132739   0.362   6.131   6.274
 5199SOL    HW232740   0.257   6.078   6.368
 5200SOL     OW32741   3.378   3.393   0.670
 5200SOL    HW132742   3.432   3.453   0.619
 5200SOL    HW232743   3.401   3.306   0.640
 5201SOL     OW32744   4.219   5.507   6.855
 5201SOL    HW132745   4.289   5.452   6.819
 5201SOL    HW232746   4.255   5.542   6.936
 5202SOL     OW32747   1.490   2.433   1.065
 5202SOL    HW132748   1.545   2.360   1.094
 5202SOL    HW232749   1.510   2.504   1.126
 5203SOL     OW32750   1.079   2.456   0.397
 5203SOL    HW132751   1.074   2.424   0.307
 5203SOL    HW232752   1.163   2.422   0.430
 5204SOL     OW32753   4.771   3.167   0.938
 5204SOL    HW132754   4.680   3.184   0.914
 5204SOL    HW232755   4.792   3.083   0.898
 5205SOL     OW32756   6.113   2.637   1.681
 5205SOL    HW132757   6.094   2.605   1.769
 5205SOL    HW232758   6.207   2.654   1.680
 5206SOL     OW32759   2.917   2.253   1.185
 5206SOL    HW132760   2.967   2.259   1.103
 5206SOL    HW232761   2.831   2.290   1.164
 5207SOL     OW32762   1.912   4.158   6.266
 5207SOL    HW132763   1.927   4.123   6.354
 5207SOL    HW232764   1.998   4.161   6.226
 5208SOL     OW32765   5.589   4.503   7.174
 5208SOL    HW132766   5.529   4.504   7.099
 5208SOL    HW232767   5.658   4.565   7.149
 5209SOL     OW32768   1.828   3.641   6.335
 5209SOL    HW132769   1.752   3.665   6.389
 5209SOL    HW232770   1.790   3.614   6.252
 5210SOL     OW32771   6.241   1.536   5.854
 5210SOL    HW132772   6.273   1.607   5.799
 5210SOL    HW232773   6.177   1.490   5.799
 5211SOL     OW32774   2.182   5.862   5.609
 5211SOL    HW132775   2.125   5.797   5.568
 5211SOL    HW232776   2.173   5.940   5.555
 5212SOL     OW32777   3.449   4.880   6.982
 5212SOL    HW132778   3.497   4.916   6.907
 5212SOL    HW232779   3.405   4.956   7.021
 5213SOL     OW32780   4.834   3.882   6.186
 5213SOL    HW132781   4.895   3.810   6.200
 5213SOL    HW232782   4.876   3.937   6.120
 5214SOL     OW32783   0.489   4.093   7.072
 5214SOL    HW132784   0.515   4.041   7.148
 5214SOL    HW232785   0.393   4.085   7.070
 5215SOL     OW32786   5.231   1.166   1.142
 5215SOL    HW132787   5.312   1.169   1.090
 5215SOL    HW232788   5.262   1.167   1.233
 5216SOL     OW32789   6.384   2.106   1.289
 5216SOL    HW132790   6.290   2.104   1.271
 5216SOL    HW232791   6.406   2.015   1.310
 5217SOL     OW32792   5.671   3.194   6.570
 5217SOL    HW132793   5.576   3.196   6.583
 5217SOL    HW232794   5.683   3.196   6.475
 5218SOL     OW32795   0.769   1.219   0.738
 5218SOL    HW132796   0.679   1.191   0.754
 5218SOL    HW232797   0.775   1.306   0.779
 5219SOL     OW32798   6.317   3.227   6.253
 5219SOL    HW132799   6.225   3.245   6.273
 5219SOL    HW232800   6.316   3.196   6.162
 5220SOL     OW32801   6.143   5.446   7.695
 5220SOL    HW132802   6.089   5.500   7.752
 5220SOL    HW232803   6.113   5.357   7.710
 5221SOL     OW32804   4.826   1.218   0.211
 5221SOL    HW132805   4.916   1.207   0.180
 5221SOL    HW232806   4.835   1.253   0.299
 5222SOL     OW32807   4.932   4.816   7.225
 5222SOL    HW132808   4.838   4.832   7.233
 5222SOL    HW232809   4.971   4.903   7.215
 5223SOL     OW32810   1.874   3.463   6.546
 5223SOL    HW132811   1.847   3.542   6.498
 5223SOL    HW232812   1.819   3.394   6.510
 5224SOL     OW32813   4.512   4.309   7.185
 5224SOL    HW132814   4.511   4.339   7.094
 5224SOL    HW232815   4.497   4.389   7.236
 5225SOL     OW32816   4.604   3.381   7.010
 5225SOL    HW132817   4.565   3.305   6.967
 5225SOL    HW232818   4.610   3.447   6.941
 5226SOL     OW32819   0.806   4.789   6.583
 5226SOL    HW132820   0.756   4.738   6.646
 5226SOL    HW232821   0.753   4.787   6.503
 5227SOL     OW32822   4.271   3.481   7.171
 5227SOL    HW132823   4.277   3.496   7.077
 5227SOL    HW232824   4.349   3.523   7.207
 5228SOL     OW32825   0.558   2.491   1.589
 5228SOL    HW132826   0.518   2.563   1.638
 5228SOL    HW232827   0.560   2.418   1.651
 5229SOL     OW32828   0.877   3.001   6.831
 5229SOL    HW132829   0.885   3.096   6.835
 5229SOL    HW232830   0.782   2.985   6.836
 5230SOL     OW32831   3.573   4.458   1.305
 5230SOL    HW132832   3.630   4.491   1.375
 5230SOL    HW232833   3.511   4.529   1.288
 5231SOL     OW32834   2.354   5.139   6.564
 5231SOL    HW132835   2.298   5.088   6.623
 5231SOL    HW232836   2.406   5.074   6.517
 5232SOL     OW32837   0.919   2.255   1.286
 5232SOL    HW132838   0.985   2.245   1.217
 5232SOL    HW232839   0.945   2.336   1.331
 5233SOL     OW32840   3.540   1.680   0.546
 5233SOL    HW132841   3.502   1.630   0.619
 5233SOL    HW232842   3.579   1.614   0.490
 5234SOL     OW32843   6.259   2.604   0.569
 5234SOL    HW132844   6.215   2.619   0.486
 5234SOL    HW232845   6.187   2.593   0.632
 5235SOL     OW32846   5.353   1.540   2.207
 5235SOL    HW132847   5.258   1.542   2.204
 5235SOL    HW232848   5.377   1.614   2.262
 5236SOL     OW32849   1.613   1.688   1.259
 5236SOL    HW132850   1.688   1.629   1.267
 5236SOL    HW232851   1.548   1.639   1.209
 5237SOL     OW32852   5.831   3.476   2.263
 5237SOL    HW132853   5.888   3.551   2.244
 5237SOL    HW232854   5.890   3.412   2.305
 5238SOL     OW32855   6.461   3.171   1.133
 5238SOL    HW132856   6.460   3.147   1.226
 5238SOL    HW232857   6.369   3.178   1.109
 5239SOL     OW32858   2.864   1.144   7.072
 5239SOL    HW132859   2.905   1.058   7.063
 5239SOL    HW232860   2.817   1.157   6.989
 5240SOL     OW32861   5.005   0.197   1.521
 5240SOL    HW132862   4.965   0.214   1.435
 5240SOL    HW232863   5.073   0.132   1.503
 5241SOL     OW32864   1.293   1.178   7.414
 5241SOL    HW132865   1.367   1.146   7.362
 5241SOL    HW232866   1.322   1.167   7.505
 5242SOL     OW32867   5.284   4.269   7.320
 5242SOL    HW132868   5.269   4.203   7.388
 5242SOL    HW232869   5.197   4.306   7.304
 5243SOL     OW32870   3.279   4.574   5.465
 5243SOL    HW132871   3.330   4.547   5.389
 5243SOL    HW232872   3.240   4.658   5.439
 5244SOL     OW32873   6.153   6.023   1.135
 5244SOL    HW132874   6.182   6.108   1.166
 5244SOL    HW232875   6.111   5.982   1.211
 5245SOL     OW32876   5.982   0.665   0.023
 5245SOL    HW132877   6.011   0.753   7.758
 5245SOL    HW232878   5.952   0.676   0.113
 5246SOL     OW32879   2.199   1.524   7.250
 5246SOL    HW132880   2.264   1.461   7.283
 5246SOL    HW232881   2.139   1.471   7.198
 5247SOL     OW32882   3.514   5.337   5.695
 5247SOL    HW132883   3.520   5.314   5.603
 5247SOL    HW232884   3.427   5.306   5.722
 5248SOL     OW32885   4.123   1.731   0.812
 5248SOL    HW132886   4.181   1.762   0.882
 5248SOL    HW232887   4.146   1.784   0.736
 5249SOL     OW32888   2.593   0.105   7.532
 5249SOL    HW132889   2.556   0.168   7.470
 5249SOL    HW232890   2.564   0.136   7.618
 5250SOL     OW32891   3.873   5.863   0.196
 5250SOL    HW132892   3.871   5.873   0.101
 5250SOL    HW232893   3.915   5.943   0.228
 5251SOL     OW32894   5.199   3.599   0.470
 5251SOL    HW132895   5.104   3.598   0.456
 5251SOL    HW232896   5.229   3.678   0.425
 5252SOL     OW32897   0.849   1.474   0.051
 5252SOL    HW132898   0.778   1.417   0.082
 5252SOL    HW232899   0.887   1.427   7.738
 5253SOL     OW32900   6.045   0.255   6.088
 5253SOL    HW132901   5.973   0.224   6.143
 5253SOL    HW232902   6.123   0.242   6.142
 5254SOL     OW32903   5.789   3.446   7.035
 5254SOL    HW132904   5.704   3.409   7.011
 5254SOL    HW232905   5.775   3.540   7.035
 5255SOL     OW32906   2.039   2.763   0.317
 5255SOL    HW132907   2.032   2.740   0.410
 5255SOL    HW232908   1.995   2.691   0.272
 5256SOL     OW32909   5.936   0.231   0.654
 5256SOL    HW132910   5.901   0.172   0.587
 5256SOL    HW232911   5.980   0.300   0.605
 5257SOL     OW32912   5.326   1.672   2.463
 5257SOL    HW132913   5.240   1.691   2.425
 5257SOL    HW232914   5.319   1.581   2.494
 5258SOL     OW32915   2.306   3.895   6.519
 5258SOL    HW132916   2.283   3.826   6.581
 5258SOL    HW232917   2.317   3.850   6.435
 5259SOL     OW32918   0.988   4.740   1.690
 5259SOL    HW132919   1.017   4.659   1.648
 5259SOL    HW232920   0.924   4.711   1.755
 5260SOL     OW32921   3.435   0.330   7.140
 5260SOL    HW132922   3.348   0.303   7.113
 5260SOL    HW232923   3.471   0.254   7.185
 5261SOL     OW32924   1.913   1.958   7.741
 5261SOL    HW132925   1.973   1.971   7.668
 5261SOL    HW232926   1.841   1.908   7.704
 5262SOL     OW32927   3.455   5.343   0.956
 5262SOL    HW132928   3.422   5.401   1.025
 5262SOL    HW232929   3.379   5.327   0.900
 5263SOL     OW32930   4.164   5.429   0.967
 5263SOL    HW132931   4.073   5.407   0.989
 5263SOL    HW232932   4.164   5.435   0.871
 5264SOL     OW32933   1.868   1.266   0.016
 5264SOL    HW132934   1.839   1.188   7.731
 5264SOL    HW232935   1.905   1.322   7.709
 5265SOL     OW32936   6.296   3.458   2.241
 5265SOL    HW132937   6.348   3.423   2.168
 5265SOL    HW232938   6.281   3.382   2.298
 5266SOL     OW32939   3.514   0.790   6.222
 5266SOL    HW132940   3.592   0.830   6.262
 5266SOL    HW232941   3.460   0.864   6.195
 5267SOL     OW32942   5.241   3.182   2.158
 5267SOL    HW132943   5.193   3.122   2.215
 5267SOL    HW232944   5.252   3.261   2.210
 5268SOL     OW32945   2.264   5.504   2.037
 5268SOL    HW132946   2.320   5.434   2.071
 5268SOL    HW232947   2.288   5.511   1.945
 5269SOL     OW32948   3.750   2.657   6.380
 5269SOL    HW132949   3.743   2.674   6.474
 5269SOL    HW232950   3.842   2.632   6.367
 5270SOL     OW32951   0.230   1.475   6.413
 5270SOL    HW132952   0.252   1.420   6.488
 5270SOL    HW232953   0.295   1.451   6.346
 5271SOL     OW32954   5.325   4.971   0.404
 5271SOL    HW132955   5.256   5.004   0.347
 5271SOL    HW232956   5.279   4.926   0.474
 5272SOL     OW32957   3.439   1.493   7.386
 5272SOL    HW132958   3.513   1.470   7.442
 5272SOL    HW232959   3.376   1.422   7.400
 5273SOL     OW32960   6.270   5.987   6.945
 5273SOL    HW132961   6.250   6.060   7.003
 5273SOL    HW232962   6.361   6.000   6.920
 5274SOL     OW32963   2.454   0.617   0.537
 5274SOL    HW132964   2.406   0.699   0.526
 5274SOL    HW232965   2.489   0.622   0.626
 5275SOL     OW32966   5.843   2.925   6.567
 5275SOL    HW132967   5.776   2.920   6.499
 5275SOL    HW232968   5.885   2.839   6.567
 5276SOL     OW32969   0.059   1.079   7.591
 5276SOL    HW132970   0.142   1.125   7.579
 5276SOL    HW232971   0.049   1.026   7.512
 5277SOL     OW32972   2.736   0.487   0.974
 5277SOL    HW132973   2.831   0.476   0.969
 5277SOL    HW232974   2.719   0.503   1.067
 5278SOL     OW32975   5.253   3.453   1.360
 5278SOL    HW132976   5.240   3.431   1.268
 5278SOL    HW232977   5.337   3.412   1.382
 5279SOL     OW32978   0.006   2.705   1.705
 5279SOL    HW132979   6.482   2.777   1.767
 5279SOL    HW232980   0.092   2.720   1.667
 5280SOL     OW32981   2.071   3.013   1.663
 5280SOL    HW132982   2.163   2.998   1.687
 5280SOL    HW232983   2.073   3.023   1.568
 5281SOL     OW32984   1.278   5.066   5.743
 5281SOL    HW132985   1.258   5.159   5.734
 5281SOL    HW232986   1.353   5.052   5.686
 5282SOL     OW32987   0.582   2.746   0.617
 5282SOL    HW132988   0.645   2.782   0.680
 5282SOL    HW232989   0.572   2.816   0.552
 5283SOL     OW32990   0.726   3.374   1.807
 5283SOL    HW132991   0.813   3.356   1.842
 5283SOL    HW232992   0.673   3.300   1.837
 5284SOL     OW32993   3.653   5.446   5.921
 5284SOL    HW132994   3.641   5.429   5.827
 5284SOL    HW232995   3.729   5.504   5.925
 5285SOL     OW32996   0.797   0.585   6.144
 5285SOL    HW132997   0.773   0.586   6.236
 5285SOL    HW232998   0.818   0.676   6.123
 5286SOL     OW32999   6.405   4.789   0.083
 5286SOL    HW133000   6.312   4.813   0.081
 5286SOL    HW233001   6.428   4.772   7.754
 5287SOL     OW33002   3.631   3.248   1.983
 5287SOL    HW133003   3.658   3.195   2.058
 5287SOL    HW233004   3.692   3.225   1.914
 5288SOL     OW33005   4.442   0.733   1.327
 5288SOL    HW133006   4.373   0.783   1.371
 5288SOL    HW233007   4.522   0.759   1.372
 5289SOL     OW33008   0.283   5.900   7.052
 5289SOL    HW133009   0.195   5.913   7.089
 5289SOL    HW233010   0.305   5.810   7.074
 5290SOL     OW33011   5.578   3.935   7.112
 5290SOL    HW133012   5.536   3.929   7.027
 5290SOL    HW233013   5.553   4.021   7.145
 5291SOL     OW33014   2.442   2.818   6.554
 5291SOL    HW133015   2.449   2.764   6.633
 5291SOL    HW233016   2.349   2.840   6.548
 5292SOL     OW33017   3.580   4.140   6.978
 5292SOL    HW133018   3.539   4.146   7.064
 5292SOL    HW233019   3.673   4.127   6.998
 5293SOL     OW33020   3.842   6.098   5.931
 5293SOL    HW133021   3.900   6.116   6.005
 5293SOL    HW233022   3.902   6.075   5.859
 5294SOL     OW33023   4.030   3.569   0.513
 5294SOL    HW133024   3.966   3.629   0.549
 5294SOL    HW233025   3.989   3.534   0.434
 5295SOL     OW33026   6.215   3.070   7.284
 5295SOL    HW133027   6.271   3.091   7.359
 5295SOL    HW233028   6.128   3.100   7.310
 5296SOL     OW33029   0.298   1.314   6.629
 5296SOL    HW133030   0.311   1.220   6.629
 5296SOL    HW233031   0.312   1.340   6.721
 5297SOL     OW33032   2.368   3.523   6.104
 5297SOL    HW133033   2.338   3.458   6.041
 5297SOL    HW233034   2.451   3.487   6.138
 5298SOL     OW33035   5.736   0.980   6.611
 5298SOL    HW133036   5.668   0.951   6.550
 5298SOL    HW233037   5.816   0.984   6.558
 5299SOL     OW33038   2.223   6.310   2.044
 5299SOL    HW133039   2.293   6.279   1.987
 5299SOL    HW233040   2.168   6.233   2.059
 5300SOL     OW33041   5.671   2.827   6.861
 5300SOL    HW133042   5.633   2.822   6.773
 5300SOL    HW233043   5.738   2.759   6.863
 5301SOL     OW33044   1.388   0.104   2.123
 5301SOL    HW133045   1.409   0.029   2.068
 5301SOL    HW233046   1.308   0.079   2.168
 5302SOL     OW33047   4.100   5.332   6.466
 5302SOL    HW133048   4.086   5.264   6.533
 5302SOL    HW233049   4.055   5.298   6.389
 5303SOL     OW33050   3.173   0.800   0.461
 5303SOL    HW133051   3.153   0.893   0.467
 5303SOL    HW233052   3.240   0.794   0.393
 5304SOL     OW33053   3.453   1.988   1.789
 5304SOL    HW133054   3.418   1.909   1.747
 5304SOL    HW233055   3.518   1.954   1.851
 5305SOL     OW33056   0.993   4.152   7.019
 5305SOL    HW133057   0.975   4.132   6.927
 5305SOL    HW233058   0.936   4.092   7.068
 5306SOL     OW33059   1.913   0.371   6.651
 5306SOL    HW133060   1.954   0.342   6.570
 5306SOL    HW233061   1.891   0.290   6.697
 5307SOL     OW33062   1.542   6.388   7.149
 5307SOL    HW133063   1.590   6.470   7.161
 5307SOL    HW233064   1.489   6.402   7.071
 5308SOL     OW33065   2.314   2.795   1.888
 5308SOL    HW133066   2.391   2.760   1.842
 5308SOL    HW233067   2.242   2.785   1.825
 5309SOL     OW33068   2.870   3.421   1.154
 5309SOL    HW133069   2.926   3.460   1.087
 5309SOL    HW233070   2.928   3.361   1.202
 5310SOL     OW33071   0.830   4.645   1.363
 5310SOL    HW133072   0.815   4.735   1.333
 5310SOL    HW233073   0.919   4.647   1.399
 5311SOL     OW33074   6.055   4.891   1.047
 5311SOL    HW133075   6.008   4.875   1.130
 5311SOL    HW233076   6.020   4.826   0.987
 5312SOL     OW33077   4.623   1.418   0.427
 5312SOL    HW133078   4.681   1.448   0.357
 5312SOL    HW233079   4.679   1.370   0.487
 5313SOL     OW33080   0.746   1.803   1.207
 5313SOL    HW133081   0.763   1.886   1.252
 5313SOL    HW233082   0.684   1.758   1.264
 5314SOL     OW33083   6.153   1.677   0.764
 5314SOL    HW133084   6.153   1.617   0.689
 5314SOL    HW233085   6.208   1.750   0.735
 5315SOL     OW33086   2.651   6.455   0.926
 5315SOL    HW133087   2.710   6.406   0.983
 5315SOL    HW233088   2.586   0.003   0.986
 5316SOL     OW33089   2.910   4.165   7.601
 5316SOL    HW133090   2.853   4.109   7.654
 5316SOL    HW233091   2.988   4.178   7.656
 5317SOL     OW33092   3.287   1.912   0.664
 5317SOL    HW133093   3.345   1.896   0.739
 5317SOL    HW233094   3.318   1.994   0.626
 5318SOL     OW33095   3.571   3.632   6.454
 5318SOL    HW133096   3.645   3.582   6.420
 5318SOL    HW233097   3.563   3.707   6.396
 5319SOL     OW33098   5.411   0.388   5.323
 5319SOL    HW133099   5.320   0.377   5.299
 5319SOL    HW233100   5.433   0.310   5.373
 5320SOL     OW33101   4.130   3.542   6.754
 5320SOL    HW133102   4.203   3.485   6.727
 5320SOL    HW233103   4.163   3.631   6.741
 5321SOL     OW33104   1.434   1.290   6.539
 5321SOL    HW133105   1.437   1.385   6.546
 5321SOL    HW233106   1.493   1.269   6.467
 5322SOL     OW33107   1.477   4.106   1.888
 5322SOL    HW133108   1.402   4.047   1.880
 5322SOL    HW233109   1.496   4.107   1.982
 5323SOL     OW33110   1.715   3.228   6.058
 5323SOL    HW133111   1.771   3.277   5.997
 5323SOL    HW233112   1.763   3.147   6.075
 5324SOL     OW33113   3.838   5.104   7.676
 5324SOL    HW133114   3.787   5.032   7.640
 5324SOL    HW233115   3.929   5.081   7.658
 5325SOL     OW33116   4.758   0.496   0.553
 5325SOL    HW133117   4.785   0.572   0.605
 5325SOL    HW233118   4.835   0.474   0.501
 5326SOL     OW33119   5.196   0.128   1.256
 5326SOL    HW133120   5.226   0.111   1.345
 5326SOL    HW233121   5.244   0.206   1.229
 5327SOL     OW33122   3.371   5.406   6.830
 5327SOL    HW133123   3.429   5.477   6.858
 5327SOL    HW233124   3.311   5.448   6.768
 5328SOL     OW33125   5.156   5.135   6.373
 5328SOL    HW133126   5.201   5.127   6.457
 5328SOL    HW233127   5.140   5.229   6.363
 5329SOL     OW33128   4.487   3.717   6.923
 5329SOL    HW133129   4.413   3.776   6.907
 5329SOL    HW233130   4.476   3.688   7.013
 5330SOL     OW33131   5.651   5.301   2.067
 5330SOL    HW133132   5.641   5.206   2.070
 5330SOL    HW233133   5.712   5.321   2.138
 5331SOL     OW33134   1.121   6.105   6.793
 5331SOL    HW133135   1.196   6.087   6.850
 5331SOL    HW233136   1.071   6.024   6.792
 5332SOL     OW33137   0.738   5.551   1.173
 5332SOL    HW133138   0.744   5.462   1.210
 5332SOL    HW233139   0.736   5.538   1.079
 5333SOL     OW33140   3.902   6.279   6.876
 5333SOL    HW133141   3.970   6.318   6.820
 5333SOL    HW233142   3.870   6.204   6.826
 5334SOL     OW33143   0.664   6.382   0.871
 5334SOL    HW133144   0.696   6.447   0.934
 5334SOL    HW233145   0.593   6.426   0.825
 5335SOL     OW33146   5.925   1.921   1.395
 5335SOL    HW133147   5.884   1.872   1.466
 5335SOL    HW233148   6.007   1.874   1.378
 5336SOL     OW33149   1.001   5.279   0.915
 5336SOL    HW133150   1.010   5.198   0.864
 5336SOL    HW233151   0.917   5.315   0.889
 5337SOL     OW33152   6.016   3.470   0.126
 5337SOL    HW133153   5.969   3.448   0.207
 5337SOL    HW233154   6.072   3.394   0.110
 5338SOL     OW33155   0.412   3.089   7.075
 5338SOL    HW133156   0.360   3.109   6.997
 5338SOL    HW233157   0.363   3.127   7.147
 5339SOL     OW33158   3.632   5.465   6.578
 5339SOL    HW133159   3.590   5.500   6.499
 5339SOL    HW233160   3.703   5.527   6.597
 5340SOL     OW33161   6.480   4.799   0.717
 5340SOL    HW133162   6.479   4.715   0.762
 5340SOL    HW233163   0.084   4.816   0.700
 5341SOL     OW33164   4.891   5.747   6.625
 5341SOL    HW133165   4.855   5.820   6.675
 5341SOL    HW233166   4.911   5.680   6.691
 5342SOL     OW33167   3.970   4.389   7.694
 5342SOL    HW133168   3.949   4.305   7.652
 5342SOL    HW233169   3.983   4.367   0.025
 5343SOL     OW33170   4.662   3.828   1.069
 5343SOL    HW133171   4.661   3.919   1.040
 5343SOL    HW233172   4.625   3.778   0.996
 5344SOL     OW33173   3.292   1.662   6.234
 5344SOL    HW133174   3.385   1.664   6.258
 5344SOL    HW233175   3.254   1.594   6.290
 5345SOL     OW33176   2.502   5.017   1.448
 5345SOL    HW133177   2.456   4.940   1.482
 5345SOL    HW233178   2.464   5.091   1.495
 5346SOL     OW33179   6.127   1.514   0.536
 5346SOL    HW133180   6.190   1.492   0.468
 5346SOL    HW233181   6.059   1.447   0.530
 5347SOL     OW33182   1.933   4.699   6.527
 5347SOL    HW133183   1.990   4.660   6.594
 5347SOL    HW233184   1.890   4.625   6.485
 5348SOL     OW33185   4.650   2.621   0.220
 5348SOL    HW133186   4.705   2.698   0.209
 5348SOL    HW233187   4.712   2.550   0.237
 5349SOL     OW33188   2.830   3.648   7.728
 5349SOL    HW133189   2.825   3.733   7.686
 5349SOL    HW233190   2.921   3.621   7.719
 5350SOL     OW33191   2.085   1.423   5.122
 5350SOL    HW133192   2.036   1.405   5.041
 5350SOL    HW233193   2.177   1.404   5.099
 5351SOL     OW33194   3.327   5.492   2.156
 5351SOL    HW133195   3.344   5.581   2.124
 5351SOL    HW233196   3.247   5.500   2.208
 5352SOL     OW33197   3.409   2.249   1.315
 5352SOL    HW133198   3.417   2.333   1.360
 5352SOL    HW233199   3.380   2.188   1.383
 5353SOL     OW33200   1.506   4.069   7.161
 5353SOL    HW133201   1.516   4.131   7.088
 5353SOL    HW233202   1.522   3.983   7.122
 5354SOL     OW33203   6.076   1.830   5.607
 5354SOL    HW133204   6.049   1.744   5.574
 5354SOL    HW233205   6.162   1.815   5.645
 5355SOL     OW33206   0.614   0.234   0.125
 5355SOL    HW133207   0.548   0.165   0.132
 5355SOL    HW233208   0.606   0.283   0.207
 5356SOL     OW33209   1.613   2.343   7.679
 5356SOL    HW133210   1.692   2.358   7.628
 5356SOL    HW233211   1.547   2.316   7.614
 5357SOL     OW33212   5.986   6.292   6.914
 5357SOL    HW133213   6.042   6.314   6.840
 5357SOL    HW233214   6.044   6.294   6.990
 5358SOL     OW33215   5.410   4.736   5.977
 5358SOL    HW133216   5.346   4.666   5.990
 5358SOL    HW233217   5.421   4.741   5.882
 5359SOL     OW33218   1.183   6.297   2.085
 5359SOL    HW133219   1.230   6.323   2.164
 5359SOL    HW233220   1.238   6.231   2.044
 5360SOL     OW33221   3.697   4.569   1.514
 5360SOL    HW133222   3.674   4.516   1.591
 5360SOL    HW233223   3.680   4.659   1.542
 5361SOL     OW33224   1.718   0.727   0.056
 5361SOL    HW133225   1.730   0.659   0.121
 5361SOL    HW233226   1.667   0.795   0.101
 5362SOL     OW33227   3.105   2.612   7.429
 5362SOL    HW133228   3.075   2.662   7.353
 5362SOL    HW233229   3.056   2.530   7.425
 5363SOL     OW33230   4.960   5.091   1.270
 5363SOL    HW133231   4.878   5.043   1.284
 5363SOL    HW233232   4.988   5.116   1.358
 5364SOL     OW33233   3.438   5.696   4.583
 5364SOL    HW133234   3.380   5.769   4.559
 5364SOL    HW233235   3.423   5.683   4.677
 5365SOL     OW33236   1.882   6.467   1.808
 5365SOL    HW133237   1.902   0.072   1.800
 5365SOL    HW233238   1.788   6.464   1.823
 5366SOL     OW33239   1.110   0.014   1.285
 5366SOL    HW133240   1.196   0.053   1.300
 5366SOL    HW233241   1.104   0.005   1.190
 5367SOL     OW33242   6.213   2.679   0.129
 5367SOL    HW133243   6.282   2.616   0.111
 5367SOL    HW233244   6.259   2.757   0.159
 5368SOL     OW33245   3.072   3.818   7.445
 5368SOL    HW133246   3.147   3.776   7.489
 5368SOL    HW233247   3.098   3.824   7.353
 5369SOL     OW33248   6.006   1.288   0.188
 5369SOL    HW133249   5.923   1.305   0.143
 5369SOL    HW233250   5.983   1.287   0.281
 5370SOL     OW33251   1.980   5.263   7.747
 5370SOL    HW133252   2.001   5.180   0.028
 5370SOL    HW233253   1.887   5.254   7.723
 5371SOL     OW33254   6.297   2.576   7.267
 5371SOL    HW133255   6.277   2.669   7.282
 5371SOL    HW233256   6.378   2.561   7.315
 5372SOL     OW33257   1.140   1.009   1.127
 5372SOL    HW133258   1.098   0.983   1.045
 5372SOL    HW233259   1.067   1.028   1.187
 5373SOL     OW33260   5.092   1.905   7.155
 5373SOL    HW133261   5.112   1.860   7.073
 5373SOL    HW233262   5.002   1.936   7.144
 5374SOL     OW33263   5.755   1.861   5.669
 5374SOL    HW133264   5.792   1.808   5.740
 5374SOL    HW233265   5.828   1.913   5.637
 5375SOL     OW33266   1.115   1.974   1.154
 5375SOL    HW133267   1.149   1.889   1.126
 5375SOL    HW233268   1.115   1.969   1.250
 5376SOL     OW33269   3.069   1.980   1.707
 5376SOL    HW133270   3.154   1.969   1.664
 5376SOL    HW233271   3.017   2.029   1.642
 5377SOL     OW33272   0.190   3.605   6.133
 5377SOL    HW133273   0.104   3.576   6.164
 5377SOL    HW233274   0.207   3.551   6.056
 5378SOL     OW33275   5.321   5.665   1.990
 5378SOL    HW133276   5.375   5.587   1.998
 5378SOL    HW233277   5.367   5.732   2.042
 5379SOL     OW33278   6.386   0.643   5.989
 5379SOL    HW133279   6.398   0.600   5.904
 5379SOL    HW233280   6.292   0.663   5.992
 5380SOL     OW33281   4.220   0.235   1.211
 5380SOL    HW133282   4.289   0.290   1.249
 5380SOL    HW233283   4.143   0.291   1.207
 5381SOL     OW33284   5.156   0.618   0.748
 5381SOL    HW133285   5.192   0.701   0.715
 5381SOL    HW233286   5.231   0.559   0.753
 5382SOL     OW33287   5.372   4.657   0.183
 5382SOL    HW133288   5.281   4.667   0.212
 5382SOL    HW233289   5.420   4.640   0.264
 5383SOL     OW33290   4.132   3.230   6.452
 5383SOL    HW133291   4.119   3.273   6.537
 5383SOL    HW233292   4.226   3.213   6.448
 5384SOL     OW33293   2.999   5.867   1.228
 5384SOL    HW133294   3.008   5.896   1.138
 5384SOL    HW233295   3.084   5.888   1.268
 5385SOL     OW33296   6.258   5.671   6.509
 5385SOL    HW133297   6.305   5.590   6.491
 5385SOL    HW233298   6.229   5.702   6.423
 5386SOL     OW33299   0.468   0.099   1.103
 5386SOL    HW133300   0.552   0.102   1.148
 5386SOL    HW233301   0.491   0.091   1.010
 5387SOL     OW33302   5.706   6.403   2.229
 5387SOL    HW133303   5.665   6.320   2.203
 5387SOL    HW233304   5.642   6.444   2.287
 5388SOL     OW33305   6.061   0.800   0.522
 5388SOL    HW133306   6.009   0.830   0.596
 5388SOL    HW233307   6.143   0.768   0.561
 5389SOL     OW33308   3.058   1.713   0.983
 5389SOL    HW133309   3.109   1.779   0.936
 5389SOL    HW233310   2.992   1.684   0.919
 5390SOL     OW33311   1.155   4.846   0.560
 5390SOL    HW133312   1.155   4.778   0.492
 5390SOL    HW233313   1.227   4.904   0.537
 5391SOL     OW33314   6.472   4.811   2.158
 5391SOL    HW133315   6.437   4.875   2.097
 5391SOL    HW233316   0.060   4.853   2.196
 5392SOL     OW33317   2.861   5.939   1.707
 5392SOL    HW133318   2.828   5.923   1.795
 5392SOL    HW233319   2.951   5.906   1.708
 5393SOL     OW33320   5.324   2.886   1.978
 5393SOL    HW133321   5.385   2.814   1.962
 5393SOL    HW233322   5.312   2.888   2.073
 5394SOL     OW33323   0.607   1.352   2.177
 5394SOL    HW133324   0.654   1.422   2.130
 5394SOL    HW233325   0.673   1.284   2.190
 5395SOL     OW33326   0.751   0.583   1.334
 5395SOL    HW133327   0.779   0.523   1.403
 5395SOL    HW233328   0.803   0.662   1.349
 5396SOL     OW33329   2.496   1.761   1.194
 5396SOL    HW133330   2.530   1.844   1.161
 5396SOL    HW233331   2.440   1.786   1.268
 5397SOL     OW33332   3.394   2.592   6.421
 5397SOL    HW133333   3.430   2.611   6.335
 5397SOL    HW233334   3.302   2.618   6.415
 5398SOL     OW33335   1.824   2.748   6.135
 5398SOL    HW133336   1.914   2.718   6.134
 5398SOL    HW233337   1.783   2.702   6.062
 5399SOL     OW33338   4.402   1.857   1.878
 5399SOL    HW133339   4.326   1.817   1.836
 5399SOL    HW233340   4.385   1.850   1.972
 5400SOL     OW33341   1.055   4.679   6.163
 5400SOL    HW133342   1.015   4.593   6.160
 5400SOL    HW233343   1.046   4.706   6.255
 5401SOL     OW33344   1.186   1.669   6.784
 5401SOL    HW133345   1.246   1.741   6.764
 5401SOL    HW233346   1.149   1.692   6.869
 5402SOL     OW33347   1.275   1.929   6.700
 5402SOL    HW133348   1.358   1.883   6.689
 5402SOL    HW233349   1.300   2.021   6.710
 5403SOL     OW33350   0.590   0.888   0.910
 5403SOL    HW133351   0.582   0.974   0.869
 5403SOL    HW233352   0.656   0.900   0.979
 5404SOL     OW33353   1.756   5.383   5.790
 5404SOL    HW133354   1.835   5.396   5.738
 5404SOL    HW233355   1.735   5.470   5.824
 5405SOL     OW33356   4.964   1.697   1.231
 5405SOL    HW133357   4.936   1.733   1.147
 5405SOL    HW233358   5.052   1.663   1.213
 5406SOL     OW33359   2.319   6.200   5.101
 5406SOL    HW133360   2.303   6.283   5.145
 5406SOL    HW233361   2.414   6.194   5.095
 5407SOL     OW33362   2.221   4.326   6.386
 5407SOL    HW133363   2.295   4.299   6.440
 5407SOL    HW233364   2.234   4.280   6.303
 5408SOL     OW33365   6.249   3.493   5.796
 5408SOL    HW133366   6.205   3.558   5.851
 5408SOL    HW233367   6.334   3.481   5.838
 5409SOL     OW33368   3.613   4.368   6.365
 5409SOL    HW133369   3.635   4.381   6.273
 5409SOL    HW233370   3.549   4.296   6.364
 5410SOL     OW33371   3.266   0.428   6.531
 5410SOL    HW133372   3.317   0.505   6.509
 5410SOL    HW233373   3.206   0.457   6.599
 5411SOL     OW33374   5.081   0.808   6.922
 5411SOL    HW133375   5.152   0.840   6.978
 5411SOL    HW233376   5.056   0.724   6.961
 5412SOL     OW33377   5.450   2.504   7.337
 5412SOL    HW133378   5.426   2.457   7.417
 5412SOL    HW233379   5.497   2.439   7.285
 5413SOL     OW33380   2.185   5.359   6.925
 5413SOL    HW133381   2.211   5.429   6.984
 5413SOL    HW233382   2.239   5.372   6.847
 5414SOL     OW33383   4.256   5.521   5.370
 5414SOL    HW133384   4.211   5.604   5.384
 5414SOL    HW233385   4.310   5.508   5.448
 5415SOL     OW33386   6.301   4.550   7.544
 5415SOL    HW133387   6.316   4.643   7.560
 5415SOL    HW233388   6.376   4.506   7.584
 5416SOL     OW33389   0.430   4.628   5.518
 5416SOL    HW133390   0.464   4.717   5.531
 5416SOL    HW233391   0.506   4.572   5.533
 5417SOL     OW33392   0.750   3.216   0.566
 5417SOL    HW133393   0.809   3.232   0.492
 5417SOL    HW233394   0.706   3.134   0.544
 5418SOL     OW33395   1.536   6.121   7.238
 5418SOL    HW133396   1.477   6.129   7.313
 5418SOL    HW233397   1.534   6.208   7.197
 5419SOL     OW33398   1.402   4.837   6.869
 5419SOL    HW133399   1.481   4.834   6.923
 5419SOL    HW233400   1.353   4.759   6.894
 5420SOL     OW33401   2.279   2.217   6.345
 5420SOL    HW133402   2.273   2.148   6.279
 5420SOL    HW233403   2.215   2.282   6.318
 5421SOL     OW33404   4.576   2.065   1.638
 5421SOL    HW133405   4.608   2.013   1.712
 5421SOL    HW233406   4.637   2.046   1.567
 5422SOL     OW33407   4.248   3.108   0.219
 5422SOL    HW133408   4.328   3.119   0.270
 5422SOL    HW233409   4.244   3.186   0.164
 5423SOL     OW33410   4.542   5.668   6.973
 5423SOL    HW133411   4.538   5.599   7.039
 5423SOL    HW233412   4.529   5.749   7.022
 5424SOL     OW33413   0.775   1.397   0.442
 5424SOL    HW133414   0.685   1.426   0.462
 5424SOL    HW233415   0.765   1.335   0.371
 5425SOL     OW33416   5.137   3.675   7.471
 5425SOL    HW133417   5.208   3.620   7.438
 5425SOL    HW233418   5.173   3.716   7.550
 5426SOL     OW33419   2.587   5.632   6.201
 5426SOL    HW133420   2.517   5.610   6.263
 5426SOL    HW233421   2.584   5.727   6.195
 5427SOL     OW33422   0.927   0.731   1.124
 5427SOL    HW133423   0.856   0.778   1.168
 5427SOL    HW233424   0.941   0.779   1.042
 5428SOL     OW33425   0.838   2.705   0.758
 5428SOL    HW133426   0.878   2.648   0.693
 5428SOL    HW233427   0.836   2.652   0.838
 5429SOL     OW33428   1.433   3.127   1.058
 5429SOL    HW133429   1.524   3.108   1.039
 5429SOL    HW233430   1.397   3.045   1.092
 5430SOL     OW33431   6.278   0.775   0.958
 5430SOL    HW133432   6.355   0.731   0.921
 5430SOL    HW233433   6.284   0.865   0.925
 5431SOL     OW33434   5.502   2.984   5.853
 5431SOL    HW133435   5.417   3.006   5.814
 5431SOL    HW233436   5.517   3.053   5.918
 5432SOL     OW33437   1.744   1.218   0.329
 5432SOL    HW133438   1.683   1.286   0.303
 5432SOL    HW233439   1.807   1.212   0.257
 5433SOL     OW33440   5.558   1.574   6.899
 5433SOL    HW133441   5.485   1.515   6.882
 5433SOL    HW233442   5.574   1.618   6.816
 5434SOL     OW33443   1.994   6.488   2.076
 5434SOL    HW133444   2.079   6.443   2.078
 5434SOL    HW233445   1.957   6.465   1.990
 5435SOL     OW33446   0.151   2.217   1.681
 5435SOL    HW133447   0.124   2.127   1.665
 5435SOL    HW233448   0.182   2.217   1.772
 5436SOL     OW33449   2.127   2.970   2.494
 5436SOL    HW133450   2.079   3.050   2.472
 5436SOL    HW233451   2.188   2.997   2.562
 5437SOL     OW33452   5.408   3.634   0.152
 5437SOL    HW133453   5.327   3.656   0.105
 5437SOL    HW233454   5.475   3.688   0.111
 5438SOL     OW33455   6.399   4.070   7.415
 5438SOL    HW133456   6.483   4.026   7.405
 5438SOL    HW233457   6.339   3.999   7.440
 5439SOL     OW33458   0.443   4.475   0.725
 5439SOL    HW133459   0.513   4.541   0.729
 5439SOL    HW233460   0.410   4.471   0.815
 5440SOL     OW33461   3.888   5.658   0.852
 5440SOL    HW133462   3.831   5.688   0.922
 5440SOL    HW233463   3.923   5.574   0.884
 5441SOL     OW33464   1.873   5.288   6.183
 5441SOL    HW133465   1.820   5.217   6.220
 5441SOL    HW233466   1.823   5.367   6.199
 5442SOL     OW33467   2.489   2.186   1.425
 5442SOL    HW133468   2.477   2.213   1.516
 5442SOL    HW233469   2.417   2.227   1.378
 5443SOL     OW33470   4.314   4.068   5.845
 5443SOL    HW133471   4.240   4.093   5.790
 5443SOL    HW233472   4.284   4.080   5.934
 5444SOL     OW33473   2.346   3.258   1.939
 5444SOL    HW133474   2.253   3.276   1.949
 5444SOL    HW233475   2.367   3.198   2.011
 5445SOL     OW33476   0.811   2.596   1.900
 5445SOL    HW133477   0.880   2.530   1.906
 5445SOL    HW233478   0.857   2.679   1.898
 5446SOL     OW33479   0.155   2.563   6.565
 5446SOL    HW133480   0.108   2.580   6.484
 5446SOL    HW233481   0.126   2.632   6.625
 5447SOL     OW33482   5.562   3.599   2.774
 5447SOL    HW133483   5.519   3.685   2.773
 5447SOL    HW233484   5.586   3.584   2.682
 5448SOL     OW33485   0.178   1.780   0.669
 5448SOL    HW133486   0.164   1.805   0.760
 5448SOL    HW233487   0.185   1.863   0.622
 5449SOL     OW33488   5.947   2.109   1.708
 5449SOL    HW133489   5.929   2.201   1.690
 5449SOL    HW233490   5.861   2.069   1.724
 5450SOL     OW33491   1.616   2.070   6.610
 5450SOL    HW133492   1.667   2.122   6.548
 5450SOL    HW233493   1.577   2.000   6.558
 5451SOL     OW33494   0.913   1.330   7.599
 5451SOL    HW133495   0.950   1.284   7.524
 5451SOL    HW233496   0.820   1.340   7.577
 5452SOL     OW33497   3.715   1.839   0.993
 5452SOL    HW133498   3.779   1.785   0.947
 5452SOL    HW233499   3.633   1.824   0.946
 5453SOL     OW33500   3.799   1.146   7.300
 5453SOL    HW133501   3.849   1.079   7.253
 5453SOL    HW233502   3.767   1.102   7.378
 5454SOL     OW33503   0.706   3.833   7.333
 5454SOL    HW133504   0.759   3.758   7.362
 5454SOL    HW233505   0.668   3.869   7.413
 5455SOL     OW33506   1.925   4.761   6.982
 5455SOL    HW133507   1.892   4.851   6.979
 5455SOL    HW233508   1.884   4.724   7.061
 5456SOL     OW33509   6.481   2.328   1.471
 5456SOL    HW133510   0.059   2.280   1.520
 5456SOL    HW233511   6.446   2.265   1.409
 5457SOL     OW33512   0.268   3.716   6.388
 5457SOL    HW133513   0.226   3.696   6.304
 5457SOL    HW233514   0.362   3.709   6.371
 5458SOL     OW33515   6.417   0.887   0.592
 5458SOL    HW133516   6.353   0.816   0.592
 5458SOL    HW233517   0.013   0.844   0.584
 5459SOL     OW33518   2.831   6.372   0.344
 5459SOL    HW133519   2.773   6.311   0.297
 5459SOL    HW233520   2.772   6.441   0.374
 5460SOL     OW33521   2.762   1.585   7.611
 5460SOL    HW133522   2.697   1.516   7.599
 5460SOL    HW233523   2.763   1.601   7.706
 5461SOL     OW33524   4.363   2.148   1.036
 5461SOL    HW133525   4.323   2.069   1.074
 5461SOL    HW233526   4.302   2.218   1.060
 5462SOL     OW33527   4.199   1.927   0.194
 5462SOL    HW133528   4.281   1.886   0.221
 5462SOL    HW233529   4.138   1.854   0.183
 5463SOL     OW33530   4.134   1.142   0.116
 5463SOL    HW133531   4.153   1.203   0.187
 5463SOL    HW233532   4.180   1.178   0.040
 5464SOL     OW33533   4.496   1.702   2.391
 5464SOL    HW133534   4.468   1.655   2.312
 5464SOL    HW233535   4.545   1.777   2.358
 5465SOL     OW33536   2.115   1.225   6.649
 5465SOL    HW133537   2.140   1.304   6.698
 5465SOL    HW233538   2.039   1.252   6.597
 5466SOL     OW33539   2.957   3.050   1.007
 5466SOL    HW133540   3.015   2.975   0.996
 5466SOL    HW233541   3.003   3.123   0.965
 5467SOL     OW33542   3.628   4.167   7.532
 5467SOL    HW133543   3.589   4.255   7.529
 5467SOL    HW233544   3.674   4.163   7.615
 5468SOL     OW33545   3.299   5.634   7.221
 5468SOL    HW133546   3.386   5.595   7.210
 5468SOL    HW233547   3.289   5.693   7.146
 5469SOL     OW33548   2.938   4.954   5.514
 5469SOL    HW133549   2.874   5.008   5.467
 5469SOL    HW233550   2.887   4.881   5.549
 5470SOL     OW33551   2.498   3.390   6.488
 5470SOL    HW133552   2.565   3.446   6.449
 5470SOL    HW233553   2.547   3.323   6.535
 5471SOL     OW33554   6.228   5.061   7.462
 5471SOL    HW133555   6.215   5.154   7.444
 5471SOL    HW233556   6.153   5.036   7.516
 5472SOL     OW33557   2.810   2.523   7.174
 5472SOL    HW133558   2.755   2.583   7.124
 5472SOL    HW233559   2.879   2.496   7.113
 5473SOL     OW33560   5.136   4.605   6.781
 5473SOL    HW133561   5.057   4.597   6.727
 5473SOL    HW233562   5.102   4.620   6.870
 5474SOL     OW33563   5.095   6.095   6.121
 5474SOL    HW133564   5.175   6.056   6.085
 5474SOL    HW233565   5.030   6.085   6.051
 5475SOL     OW33566   2.830   0.300   1.361
 5475SOL    HW133567   2.879   0.240   1.305
 5475SOL    HW233568   2.896   0.335   1.421
 5476SOL     OW33569   5.852   0.175   6.301
 5476SOL    HW133570   5.797   0.236   6.252
 5476SOL    HW233571   5.822   0.185   6.392
 5477SOL     OW33572   6.128   5.164   1.045
 5477SOL    HW133573   6.063   5.199   0.984
 5477SOL    HW233574   6.121   5.069   1.036
 5478SOL     OW33575   3.427   1.847   0.887
 5478SOL    HW133576   3.433   1.756   0.915
 5478SOL    HW233577   3.418   1.897   0.968
 5479SOL     OW33578   6.416   3.680   1.820
 5479SOL    HW133579   6.464   3.625   1.882
 5479SOL    HW233580   6.474   3.754   1.805
 5480SOL     OW33581   2.884   5.057   6.753
 5480SOL    HW133582   2.854   5.006   6.828
 5480SOL    HW233583   2.943   4.998   6.706
 5481SOL     OW33584   4.871   0.769   6.307
 5481SOL    HW133585   4.798   0.709   6.292
 5481SOL    HW233586   4.869   0.828   6.232
 5482SOL     OW33587   4.327   5.098   0.767
 5482SOL    HW133588   4.257   5.141   0.718
 5482SOL    HW233589   4.362   5.031   0.707
 5483SOL     OW33590   3.384   1.832   5.666
 5483SOL    HW133591   3.453   1.767   5.679
 5483SOL    HW233592   3.388   1.852   5.573
 5484SOL     OW33593   0.478   5.511   6.391
 5484SOL    HW133594   0.486   5.487   6.484
 5484SOL    HW233595   0.511   5.434   6.344
 5485SOL     OW33596   4.254   6.384   0.560
 5485SOL    HW133597   4.198   6.307   0.565
 5485SOL    HW233598   4.216   6.445   0.624
 5486SOL     OW33599   4.254   4.801   6.647
 5486SOL    HW133600   4.236   4.781   6.739
 5486SOL    HW233601   4.184   4.758   6.599
 5487SOL     OW33602   2.355   1.224   7.309
 5487SOL    HW133603   2.351   1.176   7.392
 5487SOL    HW233604   2.421   1.178   7.257
 5488SOL     OW33605   2.797   0.501   6.021
 5488SOL    HW133606   2.877   0.455   5.997
 5488SOL    HW233607   2.727   0.452   5.977
 5489SOL     OW33608   3.241   0.843   7.343
 5489SOL    HW133609   3.322   0.856   7.294
 5489SOL    HW233610   3.270   0.826   7.433
 5490SOL     OW33611   5.207   3.882   0.338
 5490SOL    HW133612   5.145   3.939   0.384
 5490SOL    HW233613   5.221   3.924   0.253
 5491SOL     OW33614   1.118   3.501   6.971
 5491SOL    HW133615   1.175   3.457   6.907
 5491SOL    HW233616   1.035   3.453   6.967
 5492SOL     OW33617   5.507   2.864   0.381
 5492SOL    HW133618   5.510   2.831   0.291
 5492SOL    HW233619   5.421   2.905   0.389
 5493SOL     OW33620   3.327   3.129   6.804
 5493SOL    HW133621   3.338   3.096   6.893
 5493SOL    HW233622   3.330   3.051   6.749
 5494SOL     OW33623   5.755   2.056   7.258
 5494SOL    HW133624   5.730   2.129   7.314
 5494SOL    HW233625   5.704   1.982   7.291
 5495SOL     OW33626   1.482   3.537   2.129
 5495SOL    HW133627   1.429   3.468   2.169
 5495SOL    HW233628   1.568   3.497   2.117
 5496SOL     OW33629   4.588   0.252   5.403
 5496SOL    HW133630   4.576   0.221   5.493
 5496SOL    HW233631   4.683   0.244   5.388
 5497SOL     OW33632   3.955   4.433   7.224
 5497SOL    HW133633   3.961   4.370   7.295
 5497SOL    HW233634   3.861   4.449   7.214
 5498SOL     OW33635   4.398   4.526   1.900
 5498SOL    HW133636   4.432   4.614   1.917
 5498SOL    HW233637   4.427   4.506   1.811
 5499SOL     OW33638   1.707   3.533   5.361
 5499SOL    HW133639   1.667   3.457   5.320
 5499SOL    HW233640   1.643   3.562   5.426
 5500SOL     OW33641   4.554   1.499   2.144
 5500SOL    HW133642   4.627   1.526   2.089
 5500SOL    HW233643   4.591   1.435   2.205
 5501SOL     OW33644   2.748   1.882   0.675
 5501SOL    HW133645   2.723   1.849   0.589
 5501SOL    HW233646   2.746   1.977   0.665
 5502SOL     OW33647   0.564   0.034   0.504
 5502SOL    HW133648   0.544   0.054   0.595
 5502SOL    HW233649   0.515   6.443   0.485
 5503SOL     OW33650   5.761   2.826   6.293
 5503SOL    HW133651   5.841   2.773   6.290
 5503SOL    HW233652   5.696   2.773   6.248
 5504SOL     OW33653   3.396   5.716   5.784
 5504SOL    HW133654   3.388   5.648   5.850
 5504SOL    HW233655   3.316   5.768   5.793
 5505SOL     OW33656   1.962   2.303   0.558
 5505SOL    HW133657   1.994   2.215   0.575
 5505SOL    HW233658   1.927   2.333   0.641
 5506SOL     OW33659   4.206   0.791   1.976
 5506SOL    HW133660   4.111   0.797   1.964
 5506SOL    HW233661   4.240   0.873   1.943
 5507SOL     OW33662   4.431   4.354   2.100
 5507SOL    HW133663   4.342   4.319   2.108
 5507SOL    HW233664   4.423   4.425   2.036
 5508SOL     OW33665   0.033   3.110   1.414
 5508SOL    HW133666   0.056   3.053   1.488
 5508SOL    HW233667   0.114   3.156   1.392
 5509SOL     OW33668   0.284   4.126   7.357
 5509SOL    HW133669   0.289   4.203   7.300
 5509SOL    HW233670   0.372   4.088   7.353
 5510SOL     OW33671   4.531   0.995   5.873
 5510SOL    HW133672   4.443   0.969   5.844
 5510SOL    HW233673   4.582   0.914   5.867
 5511SOL     OW33674   3.182   4.968   6.105
 5511SOL    HW133675   3.207   4.896   6.162
 5511SOL    HW233676   3.139   5.031   6.163
 5512SOL     OW33677   1.190   3.630   0.877
 5512SOL    HW133678   1.191   3.602   0.786
 5512SOL    HW233679   1.267   3.686   0.886
 5513SOL     OW33680   2.174   6.119   5.510
 5513SOL    HW133681   2.130   6.201   5.531
 5513SOL    HW233682   2.236   6.143   5.440
 5514SOL     OW33683   2.546   0.759   7.554
 5514SOL    HW133684   2.596   0.744   7.634
 5514SOL    HW233685   2.480   0.690   7.553
 5515SOL     OW33686   1.090   6.039   1.062
 5515SOL    HW133687   1.110   6.056   1.154
 5515SOL    HW233688   1.176   6.034   1.020
 5516SOL     OW33689   3.034   3.695   6.839
 5516SOL    HW133690   2.978   3.672   6.765
 5516SOL    HW233691   3.096   3.759   6.804
 5517SOL     OW33692   5.339   5.188   0.770
 5517SOL    HW133693   5.408   5.195   0.835
 5517SOL    HW233694   5.257   5.197   0.819
 5518SOL     OW33695   0.824   0.001   6.430
 5518SOL    HW133696   0.891   6.456   6.488
 5518SOL    HW233697   0.865   0.075   6.386
 5519SOL     OW33698   6.066   6.427   0.282
 5519SOL    HW133699   6.116   6.413   0.202
 5519SOL    HW233700   6.034   0.029   0.275
 5520SOL     OW33701   3.237   5.614   5.297
 5520SOL    HW133702   3.216   5.598   5.388
 5520SOL    HW233703   3.160   5.585   5.248
 5521SOL     OW33704   0.007   4.477   1.869
 5521SOL    HW133705   0.010   4.506   1.961
 5521SOL    HW233706   6.404   4.488   1.843
 5522SOL     OW33707   0.548   5.846   1.412
 5522SOL    HW133708   0.549   5.940   1.428
 5522SOL    HW233709   0.561   5.837   1.318
 5523SOL     OW33710   3.718   0.082   1.282
 5523SOL    HW133711   3.702   0.131   1.362
 5523SOL    HW233712   3.645   0.021   1.275
 5524SOL     OW33713   1.639   1.716   7.364
 5524SOL    HW133714   1.657   1.680   7.277
 5524SOL    HW233715   1.583   1.650   7.405
 5525SOL     OW33716   1.487   5.708   6.684
 5525SOL    HW133717   1.577   5.682   6.702
 5525SOL    HW233718   1.444   5.707   6.770
 5526SOL     OW33719   5.297   3.779   5.815
 5526SOL    HW133720   5.285   3.867   5.778
 5526SOL    HW233721   5.208   3.751   5.837
 5527SOL     OW33722   3.149   4.576   6.447
 5527SOL    HW133723   3.216   4.573   6.516
 5527SOL    HW233724   3.092   4.501   6.466
 5528SOL     OW33725   3.018   4.565   7.232
 5528SOL    HW133726   2.971   4.645   7.255
 5528SOL    HW233727   3.105   4.595   7.207
 5529SOL     OW33728   0.695   2.829   1.027
 5529SOL    HW133729   0.609   2.845   0.987
 5529SOL    HW233730   0.757   2.871   0.967
 5530SOL     OW33731   2.472   2.983   0.083
 5530SOL    HW133732   2.528   2.993   0.160
 5530SOL    HW233733   2.473   3.068   0.040
 5531SOL     OW33734   3.249   0.198   1.036
 5531SOL    HW133735   3.340   0.180   1.059
 5531SOL    HW233736   3.246   0.294   1.027
 5532SOL     OW33737   1.308   2.454   6.823
 5532SOL    HW133738   1.340   2.381   6.875
 5532SOL    HW233739   1.351   2.531   6.860
 5533SOL     OW33740   0.894   4.150   0.370
 5533SOL    HW133741   0.919   4.187   0.285
 5533SOL    HW233742   0.817   4.200   0.396
 5534SOL     OW33743   1.434   6.263   0.187
 5534SOL    HW133744   1.351   6.221   0.206
 5534SOL    HW233745   1.414   6.323   0.115
 5535SOL     OW33746   0.242   0.224   0.489
 5535SOL    HW133747   0.152   0.254   0.474
 5535SOL    HW233748   0.295   0.276   0.429
 5536SOL     OW33749   3.045   2.826   0.076
 5536SOL    HW133750   2.997   2.747   0.052
 5536SOL    HW233751   3.047   2.825   0.172
 5537SOL     OW33752   1.819   3.728   0.193
 5537SOL    HW133753   1.884   3.684   0.138
 5537SOL    HW233754   1.841   3.821   0.188
 5538SOL     OW33755   3.453   6.021   7.497
 5538SOL    HW133756   3.460   6.115   7.480
 5538SOL    HW233757   3.463   5.981   7.410
 5539SOL     OW33758   5.258   0.040   7.744
 5539SOL    HW133759   5.348   0.034   7.711
 5539SOL    HW233760   5.232   0.130   7.727
 5540SOL     OW33761   1.982   1.311   6.130
 5540SOL    HW133762   1.915   1.352   6.185
 5540SOL    HW233763   2.007   1.379   6.067
 5541SOL     OW33764   3.290   2.268   0.932
 5541SOL    HW133765   3.342   2.346   0.952
 5541SOL    HW233766   3.295   2.261   0.836
 5542SOL     OW33767   0.580   0.787   6.740
 5542SOL    HW133768   0.506   0.745   6.783
 5542SOL    HW233769   0.628   0.715   6.698
 5543SOL     OW33770   5.531   2.745   7.431
 5543SOL    HW133771   5.624   2.752   7.410
 5543SOL    HW233772   5.497   2.679   7.370
 5544SOL     OW33773   4.791   4.429   5.234
 5544SOL    HW133774   4.709   4.462   5.199
 5544SOL    HW233775   4.769   4.345   5.273
 5545SOL     OW33776   5.538   4.124   1.431
 5545SOL    HW133777   5.447   4.104   1.455
 5545SOL    HW233778   5.590   4.077   1.496
 5546SOL     OW33779   3.906   4.383   0.806
 5546SOL    HW133780   3.900   4.289   0.825
 5546SOL    HW233781   3.852   4.424   0.873
 5547SOL     OW33782   0.520   5.113   6.630
 5547SOL    HW133783   0.496   5.108   6.723
 5547SOL    HW233784   0.439   5.138   6.586
 5548SOL     OW33785   2.338   0.872   7.413
 5548SOL    HW133786   2.428   0.870   7.446
 5548SOL    HW233787   2.332   0.798   7.354
 5549SOL     OW33788   5.826   0.294   1.212
 5549SOL    HW133789   5.811   0.387   1.231
 5549SOL    HW233790   5.914   0.276   1.245
 5550SOL     OW33791   6.340   0.257   6.533
 5550SOL    HW133792   6.416   0.210   6.569
 5550SOL    HW233793   6.366   0.349   6.537
 5551SOL     OW33794   0.588   4.740   7.634
 5551SOL    HW133795   0.635   4.715   7.714
 5551SOL    HW233796   0.546   4.659   7.604
 5552SOL     OW33797   2.605   2.003   7.725
 5552SOL    HW133798   2.578   1.914   7.703
 5552SOL    HW233799   2.536   2.036   0.022
 5553SOL     OW33800   4.852   3.895   7.233
 5553SOL    HW133801   4.914   3.963   7.205
 5553SOL    HW233802   4.768   3.941   7.239
 5554SOL     OW33803   2.546   1.504   5.978
 5554SOL    HW133804   2.565   1.532   6.068
 5554SOL    HW233805   2.619   1.446   5.955
 5555SOL     OW33806   6.320   5.326   1.275
 5555SOL    HW133807   6.263   5.266   1.226
 5555SOL    HW233808   6.405   5.317   1.233
 5556SOL     OW33809   0.512   0.685   0.371
 5556SOL    HW133810   0.535   0.703   0.462
 5556SOL    HW233811   0.590   0.709   0.321
 5557SOL     OW33812   4.042   3.132   2.168
 5557SOL    HW133813   3.981   3.138   2.241
 5557SOL    HW233814   4.051   3.038   2.152
 5558SOL     OW33815   1.040   3.431   6.264
 5558SOL    HW133816   0.964   3.372   6.263
 5558SOL    HW233817   1.091   3.406   6.187
 5559SOL     OW33818   2.690   5.597   1.276
 5559SOL    HW133819   2.649   5.514   1.298
 5559SOL    HW233820   2.716   5.634   1.360
 5560SOL     OW33821   3.553   5.236   5.050
 5560SOL    HW133822   3.573   5.329   5.038
 5560SOL    HW233823   3.606   5.209   5.125
 5561SOL     OW33824   5.774   1.131   5.737
 5561SOL    HW133825   5.706   1.075   5.700
 5561SOL    HW233826   5.727   1.194   5.792
 5562SOL     OW33827   3.416   2.067   6.638
 5562SOL    HW133828   3.403   1.984   6.683
 5562SOL    HW233829   3.507   2.090   6.656
 5563SOL     OW33830   2.341   5.940   5.946
 5563SOL    HW133831   2.353   5.943   6.041
 5563SOL    HW233832   2.427   5.912   5.913
 5564SOL     OW33833   1.032   5.740   0.313
 5564SOL    HW133834   1.102   5.778   0.366
 5564SOL    HW233835   0.977   5.814   0.288
 5565SOL     OW33836   5.800   1.013   1.571
 5565SOL    HW133837   5.730   0.963   1.614
 5565SOL    HW233838   5.817   0.966   1.490
 5566SOL     OW33839   5.281   3.635   5.504
 5566SOL    HW133840   5.335   3.599   5.574
 5566SOL    HW233841   5.252   3.720   5.538
 5567SOL     OW33842   5.744   1.820   6.190
 5567SOL    HW133843   5.752   1.729   6.162
 5567SOL    HW233844   5.829   1.859   6.170
 5568SOL     OW33845   5.093   0.514   1.041
 5568SOL    HW133846   5.066   0.506   0.950
 5568SOL    HW233847   5.181   0.475   1.044
 5569SOL     OW33848   5.450   2.397   0.678
 5569SOL    HW133849   5.472   2.489   0.666
 5569SOL    HW233850   5.423   2.390   0.770
 5570SOL     OW33851   4.009   3.642   6.497
 5570SOL    HW133852   3.995   3.736   6.508
 5570SOL    HW233853   4.090   3.635   6.447
 5571SOL     OW33854   3.318   5.895   5.475
 5571SOL    HW133855   3.359   5.932   5.396
 5571SOL    HW233856   3.385   5.903   5.543
 5572SOL     OW33857   2.127   1.997   7.137
 5572SOL    HW133858   2.148   2.085   7.106
 5572SOL    HW233859   2.063   1.964   7.074
 5573SOL     OW33860   1.543   1.509   5.829
 5573SOL    HW133861   1.619   1.451   5.817
 5573SOL    HW233862   1.577   1.584   5.877
 5574SOL     OW33863   4.523   5.328   0.331
 5574SOL    HW133864   4.610   5.367   0.333
 5574SOL    HW233865   4.473   5.375   0.397
 5575SOL     OW33866   4.168   1.587   6.157
 5575SOL    HW133867   4.246   1.558   6.111
 5575SOL    HW233868   4.176   1.551   6.245
 5576SOL     OW33869   1.527   2.601   0.011
 5576SOL    HW133870   1.580   2.525   7.746
 5576SOL    HW233871   1.585   2.652   0.068
 5577SOL     OW33872   1.349   1.353   7.665
 5577SOL    HW133873   1.400   1.282   7.705
 5577SOL    HW233874   1.311   1.399   7.740
 5578SOL     OW33875   0.313   0.740   5.893
 5578SOL    HW133876   0.388   0.735   5.952
 5578SOL    HW233877   0.344   0.698   5.812
 5579SOL     OW33878   2.326   6.028   0.400
 5579SOL    HW133879   2.266   5.990   0.336
 5579SOL    HW233880   2.338   5.959   0.466
 5580SOL     OW33881   3.843   1.679   5.761
 5580SOL    HW133882   3.924   1.665   5.713
 5580SOL    HW233883   3.851   1.622   5.838
 5581SOL     OW33884   1.137   0.763   1.336
 5581SOL    HW133885   1.085   0.844   1.339
 5581SOL    HW233886   1.104   0.716   1.260
 5582SOL     OW33887   5.345   6.043   5.967
 5582SOL    HW133888   5.323   5.955   5.999
 5582SOL    HW233889   5.419   6.071   6.021
 5583SOL     OW33890   2.738   0.963   0.728
 5583SOL    HW133891   2.748   0.908   0.650
 5583SOL    HW233892   2.668   1.023   0.706
 5584SOL     OW33893   4.973   6.112   1.133
 5584SOL    HW133894   4.942   6.093   1.222
 5584SOL    HW233895   5.068   6.101   1.138
 5585SOL     OW33896   2.091   2.077   0.583
 5585SOL    HW133897   2.164   2.064   0.643
 5585SOL    HW233898   2.071   1.990   0.550
 5586SOL     OW33899   3.929   0.275   6.854
 5586SOL    HW133900   3.929   0.351   6.796
 5586SOL    HW233901   3.846   0.230   6.834
 5587SOL     OW33902   0.537   3.250   6.532
 5587SOL    HW133903   0.588   3.190   6.477
 5587SOL    HW233904   0.589   3.259   6.612
 5588SOL     OW33905   2.418   5.626   5.053
 5588SOL    HW133906   2.383   5.557   5.109
 5588SOL    HW233907   2.343   5.680   5.030
 5589SOL     OW33908   0.869   3.087   6.032
 5589SOL    HW133909   0.791   3.049   5.991
 5589SOL    HW233910   0.928   3.013   6.046
 5590SOL     OW33911   4.331   3.473   2.421
 5590SOL    HW133912   4.363   3.406   2.361
 5590SOL    HW233913   4.238   3.480   2.402
 5591SOL     OW33914   5.164   5.021   7.483
 5591SOL    HW133915   5.248   4.976   7.475
 5591SOL    HW233916   5.131   4.994   7.569
 5592SOL     OW33917   0.963   2.983   0.174
 5592SOL    HW133918   1.014   2.904   0.163
 5592SOL    HW233919   0.874   2.953   0.192
 5593SOL     OW33920   0.931   1.312   1.396
 5593SOL    HW133921   0.952   1.401   1.367
 5593SOL    HW233922   0.882   1.323   1.477
 5594SOL     OW33923   6.206   0.907   7.218
 5594SOL    HW133924   6.160   0.835   7.263
 5594SOL    HW233925   6.143   0.979   7.219
 5595SOL     OW33926   4.891   5.685   0.660
 5595SOL    HW133927   4.950   5.725   0.724
 5595SOL    HW233928   4.921   5.595   0.652
 5596SOL     OW33929   2.291   0.832   1.390
 5596SOL    HW133930   2.332   0.876   1.464
 5596SOL    HW233931   2.255   0.751   1.427
 5597SOL     OW33932   3.841   4.480   5.370
 5597SOL    HW133933   3.769   4.452   5.314
 5597SOL    HW233934   3.868   4.400   5.416
 5598SOL     OW33935   3.961   0.200   0.679
 5598SOL    HW133936   3.894   0.165   0.738
 5598SOL    HW233937   3.935   0.170   0.592
 5599SOL     OW33938   3.303   2.310   6.494
 5599SOL    HW133939   3.352   2.392   6.503
 5599SOL    HW233940   3.350   2.248   6.550
 5600SOL     OW33941   2.593   0.692   6.685
 5600SOL    HW133942   2.608   0.626   6.753
 5600SOL    HW233943   2.516   0.659   6.637
 5601SOL     OW33944   5.605   0.685   7.563
 5601SOL    HW133945   5.531   0.744   7.552
 5601SOL    HW233946   5.682   0.739   7.550
 5602SOL     OW33947   0.945   1.506   1.761
 5602SOL    HW133948   1.010   1.524   1.693
 5602SOL    HW233949   0.975   1.557   1.836
 5603SOL     OW33950   3.866   0.140   1.585
 5603SOL    HW133951   3.848   0.047   1.572
 5603SOL    HW233952   3.956   0.152   1.554
 5604SOL     OW33953   1.057   0.062   0.760
 5604SOL    HW133954   1.027   0.010   0.685
 5604SOL    HW233955   1.014   0.147   0.749
 5605SOL     OW33956   3.415   3.849   6.977
 5605SOL    HW133957   3.458   3.932   6.996
 5605SOL    HW233958   3.445   3.824   6.890
 5606SOL     OW33959   3.048   3.484   7.678
 5606SOL    HW133960   3.137   3.513   7.699
 5606SOL    HW233961   3.037   3.402   7.726
 5607SOL     OW33962   2.363   0.241   7.403
 5607SOL    HW133963   2.438   0.278   7.357
 5607SOL    HW233964   2.339   0.307   7.468
 5608SOL     OW33965   3.550   4.699   1.748
 5608SOL    HW133966   3.494   4.719   1.823
 5608SOL    HW233967   3.572   4.607   1.758
 5609SOL     OW33968   5.910   0.346   6.898
 5609SOL    HW133969   5.832   0.291   6.900
 5609SOL    HW233970   5.983   0.285   6.912
 5610SOL     OW33971   4.196   3.718   1.411
 5610SOL    HW133972   4.162   3.693   1.497
 5610SOL    HW233973   4.234   3.637   1.376
 5611SOL     OW33974   3.105   1.886   1.977
 5611SOL    HW133975   3.084   1.913   1.888
 5611SOL    HW233976   3.023   1.898   2.025
 5612SOL     OW33977   3.675   5.769   7.514
 5612SOL    HW133978   3.633   5.780   7.429
 5612SOL    HW233979   3.606   5.736   7.571
 5613SOL     OW33980   2.550   2.218   6.446
 5613SOL    HW133981   2.455   2.211   6.452
 5613SOL    HW233982   2.578   2.134   6.408
 5614SOL     OW33983   2.706   5.764   5.650
 5614SOL    HW133984   2.663   5.772   5.735
 5614SOL    HW233985   2.761   5.842   5.643
 5615SOL     OW33986   6.064   0.744   6.678
 5615SOL    HW133987   5.989   0.691   6.705
 5615SOL    HW233988   6.136   0.714   6.734
 5616SOL     OW33989   1.617   5.185   6.965
 5616SOL    HW133990   1.586   5.186   7.055
 5616SOL    HW233991   1.549   5.230   6.915
 5617SOL     OW33992   4.349   1.267   5.863
 5617SOL    HW133993   4.404   1.193   5.836
 5617SOL    HW233994   4.374   1.338   5.805
 5618SOL     OW33995   3.778   4.573   7.594
 5618SOL    HW133996   3.858   4.522   7.589
 5618SOL    HW233997   3.718   4.529   7.534
 5619SOL     OW33998   0.084   1.857   0.918
 5619SOL    HW133999   0.130   1.839   1.000
 5619SOL    HW234000   6.480   1.838   0.938
 5620SOL     OW34001   6.004   4.296   7.120
 5620SOL    HW134002   5.923   4.291   7.172
 5620SOL    HW234003   6.073   4.308   7.185
 5621SOL     OW34004   3.070   0.807   1.361
 5621SOL    HW134005   3.009   0.880   1.371
 5621SOL    HW234006   3.043   0.743   1.427
 5622SOL     OW34007   3.475   3.811   1.498
 5622SOL    HW134008   3.508   3.746   1.560
 5622SOL    HW234009   3.519   3.789   1.416
 5623SOL     OW34010   3.389   5.323   7.501
 5623SOL    HW134011   3.410   5.262   7.572
 5623SOL    HW234012   3.473   5.354   7.470
 5624SOL     OW34013   4.913   1.269   6.396
 5624SOL    HW134014   4.867   1.298   6.317
 5624SOL    HW234015   4.878   1.182   6.414
 5625SOL     OW34016   4.049   3.875   5.748
 5625SOL    HW134017   4.074   3.949   5.693
 5625SOL    HW234018   3.957   3.859   5.727
 5626SOL     OW34019   2.768   1.315   5.976
 5626SOL    HW134020   2.738   1.240   5.926
 5626SOL    HW234021   2.763   1.287   6.067
 5627SOL     OW34022   4.123   5.016   7.144
 5627SOL    HW134023   4.040   5.028   7.189
 5627SOL    HW234024   4.148   5.104   7.115
 5628SOL     OW34025   1.241   5.022   6.024
 5628SOL    HW134026   1.284   5.087   6.080
 5628SOL    HW234027   1.276   5.040   5.936
 5629SOL     OW34028   2.671   2.520   7.431
 5629SOL    HW134029   2.712   2.514   7.345
 5629SOL    HW234030   2.590   2.568   7.416
 5630SOL     OW34031   1.225   0.611   7.500
 5630SOL    HW134032   1.139   0.581   7.529
 5630SOL    HW234033   1.211   0.639   7.410
 5631SOL     OW34034   3.760   0.988   0.951
 5631SOL    HW134035   3.722   1.070   0.920
 5631SOL    HW234036   3.739   0.924   0.883
 5632SOL     OW34037   2.880   5.398   7.049
 5632SOL    HW134038   2.796   5.367   7.014
 5632SOL    HW234039   2.938   5.400   6.973
 5633SOL     OW34040   6.414   1.409   7.214
 5633SOL    HW134041   6.477   1.375   7.150
 5633SOL    HW234042   6.449   1.493   7.241
 5634SOL     OW34043   2.277   3.199   0.172
 5634SOL    HW134044   2.252   3.111   0.199
 5634SOL    HW234045   2.265   3.252   0.251
 5635SOL     OW34046   0.810   1.468   1.132
 5635SOL    HW134047   0.884   1.460   1.191
 5635SOL    HW234048   0.813   1.559   1.101
 5636SOL     OW34049   4.229   4.156   0.843
 5636SOL    HW134050   4.301   4.215   0.824
 5636SOL    HW234051   4.248   4.123   0.931
 5637SOL     OW34052   3.190   3.832   5.948
 5637SOL    HW134053   3.211   3.761   5.888
 5637SOL    HW234054   3.110   3.871   5.911
 5638SOL     OW34055   5.721   4.796   1.952
 5638SOL    HW134056   5.815   4.801   1.938
 5638SOL    HW234057   5.709   4.723   2.013
 5639SOL     OW34058   2.460   3.558   0.386
 5639SOL    HW134059   2.475   3.472   0.347
 5639SOL    HW234060   2.410   3.539   0.466
 5640SOL     OW34061   2.312   6.122   7.341
 5640SOL    HW134062   2.218   6.143   7.346
 5640SOL    HW234063   2.354   6.205   7.317
 5641SOL     OW34064   0.629   1.250   5.638
 5641SOL    HW134065   0.724   1.250   5.634
 5641SOL    HW234066   0.608   1.285   5.725
 5642SOL     OW34067   4.281   1.533   0.081
 5642SOL    HW134068   4.259   1.444   0.111
 5642SOL    HW234069   4.364   1.552   0.124
 5643SOL     OW34070   3.865   2.653   7.629
 5643SOL    HW134071   3.923   2.584   7.661
 5643SOL    HW234072   3.846   2.629   7.538
 5644SOL     OW34073   4.101   1.902   7.292
 5644SOL    HW134074   4.077   1.871   7.379
 5644SOL    HW234075   4.181   1.854   7.271
 5645SOL     OW34076   1.138   1.522   6.564
 5645SOL    HW134077   1.149   1.572   6.645
 5645SOL    HW234078   1.218   1.541   6.514
 5646SOL     OW34079   1.085   3.126   7.173
 5646SOL    HW134080   1.057   3.215   7.193
 5646SOL    HW234081   1.147   3.104   7.242
 5647SOL     OW34082   1.568   0.334   1.424
 5647SOL    HW134083   1.579   0.258   1.482
 5647SOL    HW234084   1.627   0.400   1.461
 5648SOL     OW34085   2.825   1.870   1.776
 5648SOL    HW134086   2.823   1.916   1.860
 5648SOL    HW234087   2.883   1.923   1.721
 5649SOL     OW34088   4.917   0.339   7.157
 5649SOL    HW134089   4.956   0.326   7.244
 5649SOL    HW234090   4.969   0.284   7.099
 5650SOL     OW34091   1.021   2.312   6.054
 5650SOL    HW134092   1.037   2.272   5.968
 5650SOL    HW234093   0.930   2.288   6.074
 5651SOL     OW34094   4.179   1.408   0.732
 5651SOL    HW134095   4.239   1.334   0.742
 5651SOL    HW234096   4.219   1.479   0.783
 5652SOL     OW34097   2.839   3.606   6.077
 5652SOL    HW134098   2.809   3.559   6.000
 5652SOL    HW234099   2.930   3.581   6.087
 5653SOL     OW34100   4.431   2.641   7.230
 5653SOL    HW134101   4.389   2.637   7.315
 5653SOL    HW234102   4.419   2.553   7.193
 5654SOL     OW34103   1.125   2.169   0.555
 5654SOL    HW134104   1.149   2.160   0.647
 5654SOL    HW234105   1.208   2.170   0.508
 5655SOL     OW34106   6.203   0.890   5.870
 5655SOL    HW134107   6.240   0.843   5.795
 5655SOL    HW234108   6.110   0.897   5.850
 5656MOL     C134109   3.222   5.254   4.432
 5656MOL     C234110   3.154   5.212   4.557
 5656MOL     N134111   3.407   5.365   4.552
 5656MOL     N234112   3.217   5.162   4.657
 5656MOL     C334113   3.423   5.305   4.675
 5656MOL     C434114   3.362   5.165   4.683
 5656MOL     H134115   3.409   5.098   4.610
 5656MOL     H234116   3.369   5.123   4.784
 5656MOL     C534117   3.416   5.343   4.315
 5656MOL     C634118   3.362   5.296   4.195
 5656MOL     C734119   3.347   5.315   4.434
 5656MOL     C834120   3.230   5.248   4.189
 5656MOL     C934121   3.161   5.227   4.309
 5656MOL     H334122   3.406   5.335   4.104
 5656MOL     H434123   3.067   5.173   4.308
 5656MOL     H534124   3.508   5.400   4.320
 5656MOL     O134125   3.465   5.358   4.776
 5656MOL    C1034126   3.014   5.253   4.574
 5656MOL    C1134127   2.924   5.196   4.665
 5656MOL     N334128   2.977   5.362   4.505
 5656MOL    C1234129   2.792   5.241   4.680
 5656MOL    C1334130   2.858   5.420   4.524
 5656MOL    C1434131   2.768   5.362   4.614
 5656MOL     H634132   2.954   5.121   4.737
 5656MOL     H734133   2.721   5.196   4.748
 5656MOL     H834134   2.834   5.502   4.456
 5656MOL     H934135   2.667   5.399   4.629
 5656MOL    H1034136   3.432   5.463   4.558
 5656MOL    BR134137   3.146   5.204   4.024
 5656MOL     EP34138   3.057   5.158   3.848
   6.48856   6.48856   7.76132
