; Run parameters
integrator      = md            ; leap-frog integrator
nsteps          = 2500000        ; 5000 ps ; 5 ns
dt              = 0.002         ; 2 fs
tinit               =  0.0

; Output control
nstcomm             =  5
nstxtcout           =  5000
xtc-precision       =  1000
nstxout             =  0
nstvout             =  0
nstfout             =  0
nstlog              =  0

; Bond parameters
continuation	        = yes		; continuation
constraint_algorithm    = lincs	        ; holonomic constraints 
constraints	        = all-bonds	; all bonds (even heavy atom-H bonds) constrained
lincs_iter	        = 1		; accuracy of LINCS
lincs_order	        = 8		; also related to accuracy; lincs_order value of 8 works better than 4

; Neighborsearching
cutoff-scheme       = Verlet
ns_type		    = grid		; search neighboring grid cells
nstlist		    = 10		; 20 fs, largely irrelevant with Verlet
rcoulomb	    = 1.0		; short-range electrostatic cutoff (in nm)
rvdw		    = 1.0		; short-range van der Waals cutoff (in nm)

; Electrostatics
coulombtype	    = PME	; Particle Mesh Ewald for long-range electrostatics
pme_order	    = 4		; cubic interpolation
fourierspacing	    = 0.16	; grid spacing for FFT

; Temperature coupling is on
tcoupl		= V-rescale	        ; modified Berendsen thermostat
tc-grps		= POPC_MOL SOL	        ; two coupling groups - more accurate
tau_t		= 0.1  0.1           ; time constant, in ps
ref_t		= 310  310           ; reference temperature, one for each group, in K

; Pressure coupling is on
pcoupl		        = Berendsen     	    ; Pressure coupling on in NPT
pcoupltype	        = semiisotropic	            ; This can be useful for membrane simulations
tau_p		        = 1.0		            ; time constant, in ps
ref_p		        = 1.0 1.0		    ; reference pressure, in bar
compressibility         = 4.5e-5 4.5e-5 	    ; isothermal compressibility of water, bar^-1

; Periodic boundary conditions
pbc		= xyz		    ; 3-D PBC

; Dispersion correction
DispCorr	= EnerPres	; account for cut-off vdW scheme

; Velocity generation
gen_vel		= no		; assign velocities from Maxwell distribution

; Energy monitoring 
; (ions - when present - should be added to the SOL group in the index file)
energygrps          =  System
 

; Pull code
pull                    = yes
pull_ngroups            = 2
pull_ncoords            = 1
pull_group1_name        = MOL
pull_group2_name        = C118 ; Chain_B
pull_coord1_type        = umbrella      ; harmonic biasing force
pull_coord1_geometry    = direction ; distance
pull_coord1_groups      = 1 2
pull_coord1_dim         = N N Y
pull_coord1_rate        = 0.00004           ; 0.001 nm per ps = 10 nm per ns
pull_coord1_k           = 1000 ; 1000          ; kJ mol^-1 nm^-2
pull_coord1_start       = yes 
pull-coord1-vec         = 0.0 0.0 1.0
pull-nstxout            = 5000          ; every10 ps
pull-nstfout            = 5000          ; every10 ps
pull-group1-pbcatom     = 0 ; The middle atom (number wise) of the large group 
pull-pbc-ref-prev-step-com = yes
 
