POPC bilayer and 5FIBZ with EP hydrated
34138
    1PA    C116    1   2.307   0.168   3.318  0.7828 -0.4912 -0.1752
    1PA    H16R    2   2.367   0.244   3.269 -1.3900  0.0652 -2.1380
    1PA    H16S    3   2.204   0.199   3.302  0.9088  0.5757  0.9621
    1PA    H16T    4   2.318   0.072   3.266 -0.8694 -0.7891 -0.0455
    1PA    C115    5   2.345   0.153   3.466  0.1970 -0.3176 -0.0051
    1PA    H15R    6   2.452   0.133   3.476  0.0463 -1.7702 -0.8943
    1PA    H15S    7   2.328   0.252   3.509 -1.2116  0.0675 -1.3302
    1PA    C114    8   2.255   0.057   3.546 -0.3247  0.3763  0.2552
    1PA    H14R    9   2.149   0.080   3.538 -0.5090 -0.8106 -1.3211
    1PA    H14S   10   2.267  -0.041   3.499 -0.0136  1.0305 -1.1132
    1PA    C113   11   2.291   0.057   3.695  0.0174 -0.2787  0.1797
    1PA    H13R   12   2.387   0.007   3.711  1.9121  3.2688  1.0088
    1PA    H13S   13   2.299   0.162   3.726 -1.2889 -0.1398  0.0891
    1PA    C112   14   2.175   0.009   3.782  0.0375 -0.2192  0.2388
    1PA    H12R   15   2.086   0.068   3.756  0.2426 -0.9726 -2.4216
    1PA    H12S   16   2.150  -0.094   3.756 -3.4219  1.0458 -2.2910
    1PA    C111   17   2.211   0.025   3.931 -0.6840  0.2164  0.3764
    1PA    H11R   18   2.298  -0.036   3.956 -0.3069  0.7378  0.3445
    1PA    H11S   19   2.243   0.129   3.939 -1.4051  0.7231 -2.1863
    1PA    C110   20   2.087   0.004   4.018 -0.7415 -0.0992  0.2188
    1PA    H10R   21   2.014   0.079   3.989  1.0241  1.4893 -0.2819
    1PA    H10S   22   2.036  -0.091   3.997 -0.0568 -0.4442  0.0973
    1PA     C19   23   2.106   0.037   4.166 -0.2958 -0.1613  0.1777
    1PA     H9R   24   2.176  -0.034   4.209 -1.0370 -0.7708  0.4069
    1PA     H9S   25   2.151   0.136   4.177  1.1930 -0.6835 -0.9881
    1PA     C18   26   1.979   0.039   4.254 -0.2936  0.5195  0.1704
    1PA     H8R   27   1.913   0.121   4.225 -2.8926 -1.6663 -0.3846
    1PA     H8S   28   1.929  -0.058   4.253  2.5910 -1.0850 -0.5414
    1PA     C17   29   2.018   0.067   4.400  0.2464  0.4802  0.0381
    1PA     H7R   30   2.093   0.146   4.402 -0.9954  1.6787  0.7265
    1PA     H7S   31   1.926   0.100   4.449 -0.7002 -0.0349 -1.3051
    1PA     C16   32   2.061  -0.064   4.469 -0.5133  0.3823  0.3346
    1PA     H6R   33   1.976  -0.132   4.481  0.3215 -0.3623  2.5602
    1PA     H6S   34   2.139  -0.116   4.414 -0.5596  1.5615 -0.8942
    1PA     C15   35   2.124  -0.036   4.606 -0.1574 -0.6687  0.3934
    1PA     H5R   36   2.171  -0.126   4.647 -2.2787 -1.4257  1.3165
    1PA     H5S   37   2.202   0.038   4.586 -2.7193  1.9401 -0.6451
    1PA     C14   38   2.021   0.017   4.707 -0.3806 -0.2565 -0.0485
    1PA     H4R   39   1.965   0.104   4.670  0.2842 -0.0130 -0.4925
    1PA     H4S   40   1.950  -0.065   4.720 -1.1967 -0.0206 -2.4580
    1PA     C13   41   2.087   0.040   4.843  0.2978 -0.0193 -0.4119
    1PA     H3R   42   2.114  -0.055   4.891  1.6916  0.9208  0.7341
    1PA     H3S   43   2.173   0.106   4.831  0.2589 -0.0308 -0.7515
    1PA     C12   44   1.996   0.111   4.945  0.5674  0.3405 -0.4201
    1PA     H2R   45   1.960   0.204   4.901 -1.8720 -0.4546 -0.2668
    1PA     H2S   46   1.908   0.049   4.964  0.8079  0.5426  1.5153
    2PC     C11   47   2.066   0.136   5.076  0.0287  0.2757 -0.1176
    2PC     O12   48   2.146   0.063   5.130 -0.0239  0.4184  0.1529
    2PC     O11   49   2.026   0.250   5.135 -0.1378  0.1514  0.0090
    2PC      C1   50   2.070   0.280   5.269 -0.0955  0.2563 -0.0286
    2PC      HR   51   2.003   0.359   5.303 -2.7719 -1.6899 -0.4717
    2PC      HS   52   2.054   0.197   5.339  0.0770  2.1872  2.4282
    2PC      C2   53   2.217   0.324   5.269  0.1659 -0.5961  0.2802
    2PC      HX   54   2.279   0.250   5.216 -1.5658 -1.5445 -0.5156
    2PC      C3   55   2.258   0.332   5.416 -0.4817 -0.4720  0.4547
    2PC      HA   56   2.246   0.233   5.462 -0.1360 -1.3493 -1.2704
    2PC      HB   57   2.366   0.350   5.419 -0.3254 -1.4120  1.2304
    2PC     O31   58   2.183   0.431   5.489 -0.4295 -0.1414  0.0601
    2PC     P31   59   2.212   0.480   5.639  0.2259  0.2848 -0.1994
    2PC     O32   60   2.064   0.516   5.690  0.0338 -0.8249  0.0476
    2PC     C31   61   1.988   0.432   5.779  0.1125 -0.9388  0.0075
    2PC     H1A   62   1.882   0.450   5.758 -0.0264 -0.3186  1.1949
    2PC     H1B   63   2.005   0.325   5.766 -0.2990 -0.8516 -1.4781
    2PC     C32   64   2.019   0.455   5.927 -0.3256 -0.9263  0.1007
    2PC     H2A   65   2.087   0.374   5.954 -2.8679 -2.5751  1.9535
    2PC     H2B   66   2.062   0.554   5.946  3.2449 -2.6808  2.3410
    2PC     N31   67   1.914   0.440   6.033 -0.2362  0.2927  0.3781
    2PC     C33   68   1.797   0.533   6.018 -0.7578 -0.4718 -0.3569
    2PC     H3A   69   1.776   0.518   5.912  0.8593  2.1297 -1.1352
    2PC     H3B   70   1.728   0.516   6.100  1.4005  0.0206  1.6785
    2PC     H3C   71   1.841   0.632   6.028  0.8387 -1.1669 -0.1169
    2PC     C34   72   1.850   0.305   6.033  0.2960  0.0354 -0.0887
    2PC     H4A   73   1.757   0.297   6.090  1.0323  1.9418  1.4650
    2PC     H4B   74   1.818   0.290   5.929 -1.3775 -0.3155  0.4416
    2PC     H4C   75   1.923   0.231   6.065  0.4735 -1.4062 -3.4084
    2PC     C35   76   1.993   0.465   6.158  0.6504 -0.2211 -0.0699
    2PC     H5A   77   1.923   0.466   6.242 -1.9707 -1.3795 -2.1020
    2PC     H5B   78   2.047   0.560   6.156  0.7419 -0.2846 -1.0471
    2PC     H5C   79   2.071   0.388   6.160  1.7165  0.7301 -1.9249
    2PC     O33   80   2.269   0.374   5.725  0.0615  0.1634 -0.2397
    2PC     O34   81   2.300   0.599   5.644  0.2857  0.2182  0.4412
    2PC     O21   82   2.221   0.453   5.206  0.4915 -0.6228  0.2426
    2PC     C21   83   2.335   0.520   5.181  0.0999 -0.0498 -0.0197
    2PC     O22   84   2.444   0.471   5.197 -0.1363 -0.5394  0.1244
    3OL     C12   85   2.310   0.664   5.144 -0.6096 -0.0918  0.2733
    3OL     H2R   86   2.262   0.701   5.234 -0.9087 -2.1690  1.0216
    3OL     H2S   87   2.243   0.674   5.058 -0.1918  2.6937  0.1850
    3OL     C13   88   2.436   0.748   5.119 -0.6944 -0.0577 -0.0475
    3OL     H3R   89   2.510   0.709   5.048  1.4470  0.2737  1.8949
    3OL     H3S   90   2.490   0.751   5.214 -0.9316  0.9091  0.0646
    3OL     C14   91   2.401   0.890   5.072  0.1242  0.3141  0.4503
    3OL     H4R   92   2.490   0.953   5.070  0.4773 -0.1969 -0.7049
    3OL     H4S   93   2.339   0.929   5.153  2.9212  1.3124  2.2691
    3OL     C15   94   2.339   0.897   4.932 -0.3930  0.0055  0.6623
    3OL     H5R   95   2.233   0.870   4.930 -0.4980  0.4119 -1.0361
    3OL     H5S   96   2.391   0.831   4.863 -2.9248 -1.6381  0.1794
    3OL     C16   97   2.335   1.041   4.879 -0.1745 -0.2710 -0.1105
    3OL     H6R   98   2.440   1.059   4.854  0.6337 -2.3946  1.5009
    3OL     H6S   99   2.293   1.109   4.953 -1.4490 -0.0975 -0.9546
    3OL     C17  100   2.256   1.053   4.748  0.1710  0.4179 -0.2593
    3OL     H7R  101   2.265   1.157   4.716 -2.1557  0.8806  0.3414
    3OL     H7S  102   2.148   1.052   4.765 -0.2035  0.2120 -2.3775
    3OL     C18  103   2.293   0.949   4.642 -0.5167 -0.4090  0.2951
    3OL     H8R  104   2.234   0.985   4.558  0.0873 -0.7589 -0.2909
    3OL     H8S  105   2.251   0.853   4.669  0.0471 -1.0822 -1.0911
    3OL     C19  106   2.442   0.949   4.617 -0.5307 -0.5549  0.2122
    3OL     H9R  107   2.499   0.980   4.704 -0.0634 -0.0285 -0.2753
    3OL    C110  108   2.507   0.909   4.508 -0.5576  0.5014 -0.2033
    3OL    H10R  109   2.615   0.905   4.502 -0.5624  0.1258 -0.0615
    3OL    C111  110   2.431   0.883   4.381 -0.5598 -0.3179 -0.0370
    3OL    H11R  111   2.329   0.923   4.377 -0.0544  1.0703 -3.9704
    3OL    H11S  112   2.418   0.775   4.368 -0.9675 -0.6382  2.5245
    3OL    C112  113   2.503   0.933   4.255 -0.2432 -0.0640  0.2456
    3OL    H12R  114   2.507   0.846   4.190 -0.6232  0.9340 -1.1558
    3OL    H12S  115   2.600   0.977   4.282  0.6185 -1.5198 -0.3544
    3OL    C113  116   2.433   1.046   4.178 -0.4037 -0.6100 -0.4091
    3OL    H13R  117   2.418   1.135   4.239 -0.9783  0.8702 -2.5956
    3OL    H13S  118   2.337   1.005   4.143  0.0164 -0.7476 -1.4405
    3OL    C114  119   2.508   1.089   4.051  0.0107 -0.6737 -0.1869
    3OL    H14R  120   2.448   1.166   4.002 -0.3543 -1.3669 -0.8637
    3OL    H14S  121   2.496   1.002   3.985 -2.2914 -1.9682  1.7530
    3OL    C115  122   2.653   1.135   4.065 -0.1302 -0.4326  0.5474
    3OL    H15R  123   2.685   1.153   3.962 -0.8791 -1.6660  0.0767
    3OL    H15S  124   2.710   1.053   4.108  0.2353 -0.0619  0.7754
    3OL    C116  125   2.666   1.259   4.153 -0.0314 -0.1884  0.1934
    3OL    H16R  126   2.606   1.244   4.243 -2.3838 -0.3661 -1.3379
    3OL    H16S  127   2.621   1.342   4.098  1.4445  0.5008 -0.0432
    3OL    C117  128   2.809   1.310   4.178 -0.2460  0.4967  0.0691
    3OL    H17R  129   2.880   1.257   4.114  1.0512  3.7638 -1.4177
    3OL    H17S  130   2.832   1.299   4.284  1.9419  2.6853 -0.1035
    3OL    C118  131   2.834   1.454   4.133 -0.5058  0.5259  0.0163
    3OL    H18R  132   2.939   1.482   4.142 -0.2935 -0.3793  0.4978
    3OL    H18S  133   2.776   1.520   4.198  0.5926  0.4047  1.1645
    3OL    H18T  134   2.798   1.475   4.032 -0.1792 -3.0954 -0.9867
    1PA    C116  135   6.437   5.785   3.854  0.5802 -0.6406  0.3989
    1PA    H16R  136   6.400   5.863   3.786 -1.1586 -0.7396  1.1721
    1PA    H16S  137   6.365   5.757   3.932  0.9300 -1.3695  0.4644
    1PA    H16T  138   6.447   5.709   3.777 -0.8679  1.5749 -2.1772
    1PA    C115  139   6.579   5.808   3.906  0.5453 -0.3025  0.3495
    1PA    H15R  140   6.646   5.837   3.825  0.3567  0.0225  0.3106
    1PA    H15S  141   6.569   5.898   3.967  2.2723 -0.5020  0.9810
    1PA    C114  142   6.636   5.692   3.989  0.2786 -0.4963  0.2605
    1PA    H14R  143   6.580   5.686   4.083 -0.4078 -0.5393 -0.1442
    1PA    H14S  144   6.618   5.595   3.941 -2.3906 -1.0892  2.2126
    1PA    C113  145   6.783   5.719   4.022  0.1697  0.3888  0.0475
    1PA    H13R  146   6.832   5.737   3.926  0.0867  0.4030  0.0079
    1PA    H13S  147   6.787   5.800   4.095  0.2721  0.5727 -0.1622
    1PA    C112  148   6.847   5.593   4.083 -0.5149 -0.3665 -0.7603
    1PA    H12R  149   6.809   5.574   4.184  1.9791  0.4869  0.4180
    1PA    H12S  150   6.830   5.508   4.017 -3.9903  0.2259 -0.8244
    1PA    C111  151   6.998   5.619   4.089 -0.5466 -0.3610  0.0855
    1PA    H11R  152   7.051   5.525   4.110 -0.9910 -0.9461 -1.2904
    1PA    H11S  153   7.036   5.668   3.999 -1.3263  0.5698  0.2499
    1PA    C110  154   7.015   5.722   4.201 -0.2326 -0.4102  0.0840
    1PA    H10R  155   6.972   5.822   4.193  0.8134  0.2863  2.3132
    1PA    H10S  156   6.952   5.682   4.281 -0.3459  1.9907  1.2827
    1PA     C19  157   7.163   5.732   4.241  0.0080 -0.3929 -0.7910
    1PA     H9R  158   7.203   5.631   4.259 -2.3168 -1.2699 -0.1969
    1PA     H9S  159   7.219   5.776   4.159 -0.5672  0.0832 -0.9345
    1PA     C18  160   7.196   5.814   4.367 -0.4925 -0.6456 -0.4915
    1PA     H8R  161   7.299   5.851   4.362  0.0571 -2.0763 -0.0640
    1PA     H8S  162   7.127   5.898   4.356 -1.6965 -1.5477 -0.0640
    1PA     C17  163   7.174   5.735   4.496 -0.7813 -0.1102 -0.2095
    1PA     H7R  164   7.071   5.705   4.514 -1.1379  1.8689  1.4579
    1PA     H7S  165   7.235   5.645   4.493  1.3361  1.0576  2.6594
    1PA     C16  166   7.218   5.822   4.615  0.0301 -0.7107 -0.0608
    1PA     H6R  167   7.319   5.861   4.597 -0.2062 -0.0327  0.0382
    1PA     H6S  168   7.156   5.912   4.623  0.0473 -0.8208  1.4778
    1PA     C15  169   7.220   5.733   4.740  0.0636 -0.2383  0.2757
    1PA     H5R  170   7.118   5.703   4.766  0.4992 -0.5476  1.7347
    1PA     H5S  171   7.286   5.648   4.723 -0.0309 -0.3464  0.4510
    1PA     C14  172   7.284   5.810   4.857 -0.1189  0.1136  0.1463
    1PA     H4R  173   7.378   5.855   4.826 -0.0676  0.2886  0.5539
    1PA     H4S  174   7.216   5.890   4.888 -1.5102 -0.5471 -1.0501
    1PA     C13  175   7.307   5.709   4.970  0.1213 -0.0276 -0.0277
    1PA     H3R  176   7.213   5.672   5.011 -0.2537  0.4177 -0.4763
    1PA     H3S  177   7.372   5.635   4.923  1.0719  0.6376  0.2039
    1PA     C12  178   7.389   5.778   5.080 -0.4578  0.3207  0.1871
    1PA     H2R  179   7.481   5.820   5.038  0.4964 -1.3647  0.5323
    1PA     H2S  180   7.335   5.866   5.118  1.0651  1.4127 -0.1143
    2PC     C11  181   7.437   5.697   5.198  0.0091 -0.3219 -0.4389
    2PC     O12  182   7.531   5.733   5.266 -0.4808 -0.2836  0.2177
    2PC     O11  183   7.366   5.586   5.221 -0.1653 -0.2352 -0.5554
    2PC      C1  184   7.387   5.496   5.331 -1.0294  0.3604  0.1104
    2PC      HR  185   7.494   5.474   5.333 -1.1520 -0.2371  1.2605
    2PC      HS  186   7.368   5.551   5.424 -0.4302  2.6955 -1.0771
    2PC      C2  187   7.306   5.367   5.308 -0.4175  0.0325 -0.2118
    2PC      HX  188   7.205   5.388   5.274  0.1641  1.1730 -1.3594
    2PC      C3  189   7.283   5.291   5.439 -0.0973  0.3154  0.0123
    2PC      HA  190   7.226   5.357   5.505 -0.5878  0.4003 -0.4848
    2PC      HB  191   7.216   5.206   5.421  0.1578  0.2885 -0.8525
    2PC     O31  192   7.411   5.263   5.497 -0.3431  0.4313  0.6207
    2PC     P31  193   7.414   5.183   5.635  0.2089 -0.5459  0.0489
    2PC     O32  194   7.312   5.063   5.604 -0.3299 -0.0262 -0.1899
    2PC     C31  195   7.323   4.949   5.690  0.1915  0.0735 -0.1191
    2PC     H1A  196   7.418   4.898   5.675  0.3238  0.3391 -0.1861
    2PC     H1B  197   7.332   4.974   5.796  0.4880 -1.3990  0.2282
    2PC     C32  198   7.196   4.868   5.659  0.2314  0.0092 -0.1157
    2PC     H2A  199   7.176   4.784   5.725 -1.5039 -0.6302 -1.3682
    2PC     H2B  200   7.108   4.933   5.653 -1.8011 -2.6358 -0.8772
    2PC     N31  201   7.202   4.788   5.532 -0.5483 -0.1564 -0.0491
    2PC     C33  202   7.105   4.674   5.543  0.1234 -0.7329 -0.0346
    2PC     H3A  203   7.104   4.622   5.447  1.3964 -4.1466  1.6301
    2PC     H3B  204   7.126   4.605   5.625 -0.9909 -1.9661 -0.7418
    2PC     H3C  205   7.010   4.724   5.564 -1.1806 -2.9036 -0.4518
    2PC     C34  206   7.163   4.875   5.416  0.5242  0.2952 -0.0784
    2PC     H4A  207   7.199   4.822   5.328 -2.1406 -0.8033 -0.5908
    2PC     H4B  208   7.055   4.882   5.407  0.5473 -0.9053 -1.9563
    2PC     H4C  209   7.227   4.963   5.426 -1.8029  1.9811  0.6832
    2PC     C35  210   7.337   4.726   5.514 -0.5861 -0.1919 -0.2097
    2PC     H5A  211   7.361   4.655   5.593 -1.2803 -0.9058 -0.6291
    2PC     H5B  212   7.417   4.800   5.504 -0.1544 -0.8730 -2.2475
    2PC     H5C  213   7.342   4.678   5.416 -1.2186  0.1079 -0.3938
    2PC     O33  214   7.553   5.137   5.663  0.3645 -0.3089 -0.3270
    2PC     O34  215   7.361   5.256   5.752  0.5094  0.0473 -0.1847
    2PC     O21  216   7.355   5.283   5.201 -0.0727 -0.2677  0.1805
    2PC     C21  217   7.287   5.174   5.162 -0.0671 -0.0879 -0.3301
    2PC     O22  218   7.170   5.156   5.187 -0.0792  0.2429 -0.1490
    3OL     C12  219   7.370   5.072   5.088 -0.3013 -0.2610 -0.3532
    3OL     H2R  220   7.455   5.044   5.151 -1.4552 -0.5309  1.1458
    3OL     H2S  221   7.409   5.130   5.005  1.8106 -2.4895 -1.0233
    3OL     C13  222   7.294   4.947   5.041 -0.3823 -0.3419 -0.0072
    3OL     H3R  223   7.228   4.907   5.119 -1.6274  0.3918 -0.6554
    3OL     H3S  224   7.366   4.869   5.015  1.1136  0.0022  2.6677
    3OL     C14  225   7.200   4.975   4.923  0.2922  0.4215 -0.3676
    3OL     H4R  226   7.257   5.001   4.833  0.9815  1.5689  0.3775
    3OL     H4S  227   7.135   5.062   4.936 -1.4167 -0.4171 -2.6718
    3OL     C15  228   7.110   4.854   4.897  0.2000  0.4907 -0.3724
    3OL     H5R  229   7.036   4.890   4.825 -1.3472  0.0719  0.9301
    3OL     H5S  230   7.046   4.833   4.983 -1.3175  0.1404 -1.5422
    3OL     C16  231   7.181   4.726   4.851 -0.1644  0.1250  0.0689
    3OL     H6R  232   7.272   4.716   4.910 -0.4269 -3.3191  0.1221
    3OL     H6S  233   7.213   4.739   4.747 -0.5533 -1.6657 -0.3242
    3OL     C17  234   7.090   4.603   4.868 -0.1546  0.1106  0.0195
    3OL     H7R  235   6.990   4.631   4.902 -0.7798 -2.0976  0.1495
    3OL     H7S  236   7.130   4.530   4.939  1.8130  0.1921 -0.9512
    3OL     C18  237   7.072   4.518   4.741 -0.2634 -0.3479  0.3395
    3OL     H8R  238   7.030   4.429   4.788  2.4647 -0.8332  2.1147
    3OL     H8S  239   7.170   4.486   4.704  0.1050 -1.1509  1.9074
    3OL     C19  240   6.982   4.581   4.638 -0.2343  0.2659  0.6801
    3OL     H9R  241   6.970   4.688   4.627  1.2529  0.3100 -0.9970
    3OL    C110  242   6.910   4.507   4.555  0.6176  0.0195  0.1406
    3OL    H10R  243   6.839   4.564   4.496 -0.4761 -0.3869  1.0140
    3OL    C111  244   6.903   4.356   4.555  0.0773  0.0404 -0.2047
    3OL    H11R  245   6.820   4.336   4.623 -0.3233  0.9691 -0.3975
    3OL    H11S  246   6.995   4.314   4.597 -0.4797 -1.0822 -0.0727
    3OL    C112  247   6.873   4.297   4.417 -0.2503 -0.1528 -0.0523
    3OL    H12R  248   6.785   4.351   4.383  1.0984  2.3164  0.1931
    3OL    H12S  249   6.865   4.188   4.425  1.4046 -0.3520 -0.6294
    3OL    C113  250   6.987   4.337   4.323  0.1883 -0.3614  0.3844
    3OL    H13R  251   7.011   4.444   4.329 -1.8399  0.1576 -0.1414
    3OL    H13S  252   6.947   4.331   4.222  2.1902  0.9083 -0.5627
    3OL    C114  253   7.109   4.243   4.332  0.3005 -0.2832 -0.2511
    3OL    H14R  254   7.111   4.192   4.428  2.1549  1.5439  0.7370
    3OL    H14S  255   7.197   4.303   4.310 -0.2054  0.9378  0.9024
    3OL    C115  256   7.105   4.131   4.227  0.2225  0.0426 -0.5992
    3OL    H15R  257   7.005   4.089   4.219  0.2489 -0.0816 -0.2829
    3OL    H15S  258   7.171   4.049   4.256 -0.1636 -0.2094 -0.4265
    3OL    C116  259   7.142   4.175   4.085 -0.8420  0.1864 -0.8404
    3OL    H16R  260   7.239   4.226   4.094 -0.5018 -0.6178  0.1558
    3OL    H16S  261   7.067   4.243   4.044 -1.1252  0.5965  0.3191
    3OL    C117  262   7.159   4.051   3.997  0.3572  0.0372 -0.4193
    3OL    H17R  263   7.233   3.983   4.040 -0.9952 -0.5716  1.0137
    3OL    H17S  264   7.197   4.079   3.898 -0.8584  2.7613 -0.2047
    3OL    C118  265   7.024   3.981   3.972  0.1632  0.0963  0.4458
    3OL    H18R  266   6.968   3.976   4.066  1.9741  1.4711  1.6769
    3OL    H18S  267   7.030   3.886   3.920  2.3915  1.0716 -1.2802
    3OL    H18T  268   6.981   4.054   3.904  2.5385  3.4410  2.2229
    1PA    C116  269   0.982   4.908   3.677 -0.2405 -0.5557 -0.6848
    1PA    H16R  270   0.881   4.949   3.682 -0.1426 -0.5078  1.6808
    1PA    H16S  271   0.992   4.890   3.569  0.8722  1.4726 -0.9795
    1PA    H16T  272   1.055   4.985   3.702 -1.5181 -0.2949  2.7697
    1PA    C115  273   0.984   4.781   3.762 -0.0551 -0.1711 -0.1135
    1PA    H15R  274   0.887   4.731   3.753 -0.2889  0.7030 -3.4016
    1PA    H15S  275   1.056   4.702   3.739  0.9189  1.0899 -1.5123
    1PA    C114  276   1.002   4.812   3.912 -0.2239  0.6321 -0.2571
    1PA    H14R  277   0.941   4.900   3.934 -0.8743 -0.0112  0.5745
    1PA    H14S  278   0.968   4.728   3.973 -0.2850  0.9904  0.1999
    1PA    C113  279   1.153   4.828   3.937 -0.1132 -0.3671 -0.2314
    1PA    H13R  280   1.212   4.788   3.855  1.1370  0.7554  0.0943
    1PA    H13S  281   1.172   4.935   3.953  0.0358 -0.1843 -1.5499
    1PA    C112  282   1.183   4.747   4.064  0.4338  0.0075 -0.1174
    1PA    H12R  283   1.142   4.797   4.152 -0.9345  0.5469 -1.0308
    1PA    H12S  284   1.150   4.643   4.061  2.1686 -0.5727 -0.1859
    1PA    C111  285   1.335   4.740   4.086  0.4648  0.0664 -0.3111
    1PA    H11R  286   1.354   4.658   4.156 -0.8655 -0.5326 -0.6027
    1PA    H11S  287   1.391   4.719   3.995 -0.4588  0.7806 -1.0646
    1PA    C110  288   1.398   4.862   4.154  0.0840 -0.0843  0.3241
    1PA    H10R  289   1.507   4.856   4.145  0.1225 -3.7304  1.7146
    1PA    H10S  290   1.351   4.951   4.112 -0.5020  1.8054  4.5553
    1PA     C19  291   1.358   4.877   4.301  0.0494 -0.0195  0.3079
    1PA     H9R  292   1.252   4.906   4.298  0.3584  1.2058  0.7519
    1PA     H9S  293   1.364   4.777   4.345  1.2073 -1.1304 -2.1897
    1PA     C18  294   1.450   4.966   4.384  0.1155  0.3382 -0.1472
    1PA     H8R  295   1.557   4.955   4.364  0.2460  1.6774 -0.3000
    1PA     H8S  296   1.433   5.063   4.336  0.1089  0.5905  0.3569
    1PA     C17  297   1.412   4.985   4.531 -0.3931 -0.4903 -0.1659
    1PA     H7R  298   1.441   5.088   4.552  1.2078 -0.1232 -3.5547
    1PA     H7S  299   1.304   4.977   4.545 -0.9716  4.0739 -0.4402
    1PA     C16  300   1.483   4.882   4.620  0.6906  0.3574 -0.0214
    1PA     H6R  301   1.446   4.779   4.610  1.1379  0.0973  0.8817
    1PA     H6S  302   1.591   4.887   4.607  0.7401  0.0888  0.2586
    1PA     C15  303   1.453   4.915   4.767 -0.3005  0.7412 -0.3035
    1PA     H5R  304   1.470   5.018   4.797 -0.0130  1.1040 -1.6320
    1PA     H5S  305   1.347   4.889   4.778 -0.0418 -1.3045 -1.9289
    1PA     C14  306   1.525   4.815   4.858 -0.6268  0.1823 -0.6456
    1PA     H4R  307   1.489   4.816   4.961 -0.8987  1.2383 -0.7339
    1PA     H4S  308   1.519   4.712   4.824 -0.2325 -0.5414  1.3582
    1PA     C13  309   1.667   4.872   4.877 -0.5623 -0.1788  0.0012
    1PA     H3R  310   1.723   4.857   4.784  0.3743 -1.1025  0.6960
    1PA     H3S  311   1.663   4.978   4.900  1.1720  0.1319 -0.9155
    1PA     C12  312   1.740   4.797   4.989  0.2364  0.4248 -0.1120
    1PA     H2R  313   1.677   4.809   5.077 -0.5737 -0.6417 -0.5299
    1PA     H2S  314   1.736   4.690   4.968 -1.8145  0.1137  1.5863
    2PC     C11  315   1.877   4.855   5.016  0.2858  0.1303  0.2716
    2PC     O12  316   1.986   4.806   4.993  0.2649  0.2687 -0.1310
    2PC     O11  317   1.871   4.980   5.063 -0.3015  0.1076  0.2628
    2PC      C1  318   1.994   5.054   5.078 -0.0634 -0.1656 -0.3025
    2PC      HR  319   2.063   4.994   5.137 -2.0968 -1.8146  0.5418
    2PC      HS  320   2.031   5.063   4.976  1.3681 -1.1647  0.0976
    2PC      C2  321   1.949   5.189   5.137 -0.0752 -0.1780 -0.2825
    2PC      HX  322   2.029   5.251   5.177  0.1139 -1.8145  2.0861
    2PC      C3  323   1.860   5.175   5.261  0.4578  0.3907  0.1694
    2PC      HA  324   1.758   5.172   5.221  0.8248  1.3067 -0.8914
    2PC      HB  325   1.880   5.085   5.318 -2.0186 -0.2695  0.1144
    2PC     O31  326   1.869   5.292   5.345  0.3150  0.7068 -0.2494
    2PC     P31  327   1.794   5.303   5.486  0.0461 -0.0135 -0.3296
    2PC     O32  328   1.658   5.375   5.439 -0.0369  0.2147  0.2491
    2PC     C31  329   1.589   5.458   5.534 -0.2919  0.0468  0.2118
    2PC     H1A  330   1.599   5.408   5.631 -0.4652  1.0521  0.7597
    2PC     H1B  331   1.624   5.561   5.530 -2.1348  0.7320  0.8003
    2PC     C32  332   1.437   5.453   5.513 -0.2811 -0.1394  0.1730
    2PC     H2A  333   1.394   5.515   5.591 -0.4431  0.1787 -0.1684
    2PC     H2B  334   1.409   5.501   5.419  0.4513 -2.2520 -1.2149
    2PC     N31  335   1.365   5.322   5.509 -0.1010 -0.2323 -0.1082
    2PC     C33  336   1.379   5.257   5.375 -0.5432 -0.2190 -0.1611
    2PC     H3A  337   1.317   5.313   5.304  0.7785  1.0604 -0.3541
    2PC     H3B  338   1.483   5.269   5.345 -0.3704  2.6565  1.2369
    2PC     H3C  339   1.347   5.153   5.385  0.6885 -0.3946  2.9563
    2PC     C34  340   1.409   5.221   5.611  0.4731  0.3760  0.2517
    2PC     H4A  341   1.330   5.148   5.631 -1.1577  1.7243 -0.9318
    2PC     H4B  342   1.494   5.167   5.570 -0.1445  0.7592 -1.6064
    2PC     H4C  343   1.425   5.274   5.706 -0.9931  3.3818 -1.0217
    2PC     C35  344   1.222   5.359   5.537 -0.1016 -0.4748  0.2169
    2PC     H5A  345   1.155   5.275   5.516  1.2549 -1.2689 -1.1755
    2PC     H5B  346   1.185   5.437   5.470  0.5504  1.4714  2.0002
    2PC     H5C  347   1.199   5.386   5.640  0.4078 -0.0077  0.2119
    2PC     O33  348   1.767   5.175   5.555  0.2464 -0.4639 -1.0770
    2PC     O34  349   1.880   5.379   5.580 -0.2061 -0.5538  0.3449
    2PC     O21  350   1.861   5.251   5.041  0.1055  0.5215  0.0055
    2PC     C21  351   1.925   5.303   4.935  0.1943  0.2600 -0.0694
    2PC     O22  352   2.044   5.298   4.914  0.3333  0.7541  0.5793
    3OL     C12  353   1.830   5.370   4.838  0.1521 -0.2167 -0.3602
    3OL     H2R  354   1.873   5.381   4.738  1.2178 -0.8105  0.0098
    3OL     H2S  355   1.803   5.468   4.877 -1.5234 -0.0247 -1.8581
    3OL     C13  356   1.699   5.292   4.824 -0.3218  0.3050  1.0040
    3OL     H3R  357   1.639   5.298   4.915 -1.5031 -0.2842  0.2943
    3OL     H3S  358   1.718   5.185   4.807  1.3190  0.4843  1.5513
    3OL     C14  359   1.611   5.328   4.703  0.1939 -0.2399  0.4549
    3OL     H4R  360   1.573   5.430   4.712  1.2086  0.2310 -0.5019
    3OL     H4S  361   1.517   5.272   4.716 -0.2899  0.5351  0.3327
    3OL     C15  362   1.668   5.314   4.562 -0.4278 -0.0667  0.1802
    3OL     H5R  363   1.717   5.217   4.547 -0.5656 -0.0739 -0.2211
    3OL     H5S  364   1.747   5.385   4.538 -0.2368 -0.9352 -1.9956
    3OL     C16  365   1.565   5.329   4.450 -0.2430  0.4668  0.0771
    3OL     H6R  366   1.534   5.433   4.441  1.0626  1.2270  3.2291
    3OL     H6S  367   1.478   5.264   4.458 -1.8651  1.9748 -3.1467
    3OL     C17  368   1.639   5.312   4.317 -0.6836  0.1592 -0.1337
    3OL     H7R  369   1.690   5.215   4.322 -0.9528 -0.0131 -0.6540
    3OL     H7S  370   1.724   5.381   4.318 -0.2791 -0.3348  0.5339
    3OL     C18  371   1.546   5.310   4.195 -0.6489  0.6109 -0.1678
    3OL     H8R  372   1.480   5.393   4.219  0.3204  0.9271  1.5438
    3OL     H8S  373   1.487   5.219   4.184  2.2219 -1.3924 -0.2569
    3OL     C19  374   1.646   5.327   4.083  0.7283  0.0857  0.9499
    3OL     H9R  375   1.678   5.428   4.059  2.1940 -0.5135  0.2481
    3OL    C110  376   1.708   5.227   4.023 -0.5039  0.0819 -0.3816
    3OL    H10R  377   1.780   5.243   3.943  1.9326 -3.2903  0.8574
    3OL    C111  378   1.688   5.079   4.045  0.1102 -0.0679 -0.7859
    3OL    H11R  379   1.667   5.032   3.949  1.2457 -1.3816 -0.4196
    3OL    H11S  380   1.604   5.065   4.113  0.7671 -1.4840 -0.2314
    3OL    C112  381   1.806   5.008   4.113 -0.3198  0.3531  0.4373
    3OL    H12R  382   1.830   5.066   4.202 -1.4061 -0.2925  1.1588
    3OL    H12S  383   1.890   5.005   4.043 -1.1673 -0.2683 -0.5744
    3OL    C113  384   1.781   4.861   4.146  0.5019  0.0312 -0.3455
    3OL    H13R  385   1.690   4.862   4.205 -1.3015 -0.7357 -2.9494
    3OL    H13S  386   1.855   4.828   4.219  1.7733  2.7206 -0.3017
    3OL    C114  387   1.761   4.762   4.029 -0.0098 -0.0252 -0.2096
    3OL    H14R  388   1.683   4.794   3.960 -0.5416 -1.4678 -0.2948
    3OL    H14S  389   1.730   4.661   4.054  0.9214 -0.1529  0.4811
    3OL    C115  390   1.900   4.743   3.967 -0.0339  0.0040 -0.2714
    3OL    H15R  391   1.962   4.691   4.040 -0.1549 -0.2353 -0.3369
    3OL    H15S  392   1.952   4.837   3.945 -1.4035  0.5838 -1.2059
    3OL    C116  393   1.893   4.669   3.832 -0.3283 -0.2376 -0.1260
    3OL    H16R  394   1.996   4.665   3.796  0.2863 -1.9612  1.6673
    3OL    H16S  395   1.829   4.728   3.766 -1.8954 -0.5776  1.0367
    3OL    C117  396   1.854   4.521   3.834 -0.1096 -0.2977 -0.1830
    3OL    H17R  397   1.831   4.496   3.731  0.1254 -1.2302 -0.0238
    3OL    H17S  398   1.765   4.513   3.898 -0.8296 -1.6106 -1.2991
    3OL    C118  399   1.965   4.426   3.880  0.1652 -0.1552 -0.5546
    3OL    H18R  400   2.027   4.463   3.962  0.0790 -2.0732  0.4268
    3OL    H18S  401   2.036   4.403   3.800  0.0900  1.2445 -1.0547
    3OL    H18T  402   1.913   4.341   3.925  0.8223  0.5074  1.5859
    1PA    C116  403   1.998   2.104   3.853 -0.0381  0.1356  0.1199
    1PA    H16R  404   2.101   2.070   3.840  0.5426  2.1725 -1.1303
    1PA    H16S  405   1.995   2.197   3.911  0.1764  0.9780 -1.1926
    1PA    H16T  406   1.970   2.128   3.751 -0.5128  1.5550  0.5530
    1PA    C115  407   1.905   1.996   3.910  0.0580  0.0985  0.2066
    1PA    H15R  408   1.804   2.038   3.916 -0.0593 -0.0392 -0.7635
    1PA    H15S  409   1.911   1.901   3.857 -0.2987  1.3576 -2.2312
    1PA    C114  410   1.960   1.960   4.049  0.4517 -0.0509  0.0117
    1PA    H14R  411   2.066   1.935   4.036  0.3260  0.4542 -2.3840
    1PA    H14S  412   1.962   2.049   4.112  1.7161 -0.0910  0.0630
    1PA    C113  413   1.884   1.844   4.116 -0.1504  0.0546 -0.4834
    1PA    H13R  414   1.782   1.884   4.123  1.0179  3.4486 -0.6037
    1PA    H13S  415   1.876   1.754   4.056 -1.3290 -1.0498  1.2372
    1PA    C112  416   1.943   1.813   4.254 -0.4914 -0.8593 -0.5392
    1PA    H12R  417   2.028   1.746   4.241 -0.8162 -1.2155 -0.8614
    1PA    H12S  418   1.979   1.903   4.305 -0.3214 -1.2284  0.0013
    1PA    C111  419   1.837   1.746   4.343 -0.2131 -0.2290  0.2772
    1PA    H11R  420   1.753   1.815   4.344 -0.5551 -0.5692 -1.4254
    1PA    H11S  421   1.809   1.656   4.288 -2.1625 -0.3543  1.3873
    1PA    C110  422   1.900   1.720   4.480  0.5771 -0.2020 -0.0742
    1PA    H10R  423   1.981   1.647   4.471  1.4190  0.4342  1.8045
    1PA    H10S  424   1.943   1.814   4.516 -0.4288 -0.6418  2.5474
    1PA     C19  425   1.781   1.671   4.563  0.2202  0.2674 -0.3085
    1PA     H9R  426   1.721   1.761   4.579 -1.7816 -0.3482 -3.3445
    1PA     H9S  427   1.722   1.598   4.507 -0.4416 -0.1014  0.8276
    1PA     C18  428   1.831   1.600   4.689  0.1529  0.0969 -0.3776
    1PA     H8R  429   1.891   1.513   4.660  0.3408 -0.8925  2.5928
    1PA     H8S  430   1.890   1.671   4.746 -0.7649 -0.9765  2.0501
    1PA     C17  431   1.721   1.553   4.786  0.3165  0.0728 -0.2031
    1PA     H7R  432   1.649   1.631   4.813  0.1654  0.7962 -2.4620
    1PA     H7S  433   1.667   1.477   4.729 -0.4542 -0.7734  1.5948
    1PA     C16  434   1.783   1.490   4.911 -0.1329  0.3724  0.1717
    1PA     H6R  435   1.850   1.410   4.881 -2.4489 -1.6519  0.0592
    1PA     H6S  436   1.833   1.574   4.959 -0.9467  0.8024  0.3015
    1PA     C15  437   1.676   1.444   5.012  0.0400 -0.5230 -0.0467
    1PA     H5R  438   1.610   1.527   5.038 -0.6217 -1.3168  0.8802
    1PA     H5S  439   1.607   1.370   4.971 -0.3590  0.3348 -0.9552
    1PA     C14  440   1.733   1.394   5.146  0.4984 -0.0238 -0.0516
    1PA     H4R  441   1.764   1.486   5.197 -1.8209  0.7658  0.0869
    1PA     H4S  442   1.649   1.360   5.207 -1.5607  1.5892 -1.8201
    1PA     C13  443   1.847   1.293   5.129  0.5982  0.1060 -0.1607
    1PA     H3R  444   1.793   1.213   5.077 -1.3587  1.2943 -0.0509
    1PA     H3S  445   1.926   1.326   5.062 -1.3267 -1.9464 -3.7747
    1PA     C12  446   1.892   1.250   5.269  0.4858  0.1568 -0.1082
    1PA     H2R  447   1.903   1.336   5.336 -1.3976  2.0851 -2.1170
    1PA     H2S  448   1.822   1.176   5.306  1.6956 -0.1563  1.6842
    2PC     C11  449   2.024   1.177   5.261  0.3405 -0.0878 -0.2598
    2PC     O12  450   2.024   1.060   5.226 -0.0821 -0.2435  0.2438
    2PC     O11  451   2.135   1.249   5.282 -0.0371  0.3587  0.2164
    2PC      C1  452   2.261   1.190   5.246 -0.0833 -0.0932  0.7782
    2PC      HR  453   2.263   1.101   5.309  0.5579  0.8142  2.0979
    2PC      HS  454   2.267   1.158   5.141  0.2200 -2.4222  1.4522
    2PC      C2  455   2.373   1.288   5.285  0.1579 -0.0763  0.0654
    2PC      HX  456   2.463   1.228   5.270 -0.5274 -0.5917 -2.5274
    2PC      C3  457   2.365   1.325   5.434  0.1085 -0.0016  0.0449
    2PC      HA  458   2.286   1.399   5.447  1.7357  2.2841 -1.9620
    2PC      HB  459   2.329   1.233   5.481 -0.3898  0.5689  0.8040
    2PC     O31  460   2.493   1.374   5.479  0.2418 -0.5122  0.2261
    2PC     P31  461   2.515   1.424   5.630  0.8066 -0.1014  0.0123
    2PC     O32  462   2.423   1.551   5.598  0.1344 -0.5349  0.1837
    2PC     C31  463   2.508   1.667   5.583 -0.2820 -0.1969  0.4136
    2PC     H1A  464   2.571   1.680   5.672 -1.2825  0.5149  1.0413
    2PC     H1B  465   2.585   1.660   5.506 -1.5654 -1.2306 -0.8424
    2PC     C32  466   2.428   1.795   5.557  0.4030  0.1258 -0.1405
    2PC     H2A  467   2.498   1.871   5.525  0.7463  0.2921  0.9749
    2PC     H2B  468   2.356   1.780   5.476  2.0936 -0.3479 -1.6018
    2PC     N31  469   2.358   1.862   5.672 -0.1405 -0.3002 -0.2153
    2PC     C33  470   2.268   1.966   5.613  0.0634  0.1639  0.2824
    2PC     H3A  471   2.199   1.920   5.542 -0.8119  0.8204  0.6832
    2PC     H3B  472   2.212   2.014   5.693 -1.6818  1.1747 -1.4468
    2PC     H3C  473   2.336   2.035   5.564 -0.1873 -0.0191 -0.3418
    2PC     C34  474   2.275   1.762   5.746  0.3292 -0.1012  0.5848
    2PC     H4A  475   2.195   1.727   5.681  1.4210  0.6880 -1.2616
    2PC     H4B  476   2.352   1.686   5.763  1.6443  0.4512 -2.3108
    2PC     H4C  477   2.256   1.804   5.845  0.2570  0.2949  0.4061
    2PC     C35  478   2.455   1.919   5.771 -0.5712  0.5426 -0.2684
    2PC     H5A  479   2.505   1.831   5.811 -0.3664  0.1344 -1.3918
    2PC     H5B  480   2.395   1.971   5.846 -1.5570 -2.4239  1.1636
    2PC     H5C  481   2.523   1.977   5.709  0.1111  0.6126  0.5339
    2PC     O33  482   2.446   1.333   5.724  0.3330  0.1685 -0.0710
    2PC     O34  483   2.656   1.443   5.670  0.8755 -0.2057 -0.1793
    2PC     O21  484   2.371   1.406   5.202 -0.4154 -0.2277 -0.1421
    2PC     C21  485   2.425   1.388   5.080  0.0096  0.4776 -0.0642
    2PC     O22  486   2.450   1.279   5.032 -0.1134  0.2253  0.4365
    3OL     C12  487   2.448   1.519   5.010 -0.2976  0.3769 -0.3555
    3OL     H2R  488   2.421   1.600   5.078  0.5712  0.6903 -0.3777
    3OL     H2S  489   2.379   1.542   4.928 -1.4766  2.8424  1.1897
    3OL     C13  490   2.593   1.518   4.961 -0.1019  0.0874  0.2236
    3OL     H3R  491   2.610   1.440   4.886  1.2650 -0.5568  1.1392
    3OL     H3S  492   2.671   1.503   5.036  0.5267  1.9441 -0.0016
    3OL     C14  493   2.630   1.656   4.904  0.8722 -0.1480  0.2634
    3OL     H4R  494   2.737   1.679   4.901  0.8335  0.5493  2.2546
    3OL     H4S  495   2.582   1.730   4.968 -1.4741 -2.0079  0.8052
    3OL     C15  496   2.582   1.678   4.760  0.0161 -0.0460  0.5619
    3OL     H5R  497   2.475   1.656   4.753 -0.0481  0.3245  0.3189
    3OL     H5S  498   2.634   1.623   4.682 -2.8342  2.5100 -3.5817
    3OL     C16  499   2.599   1.824   4.714 -0.0661 -0.1632  0.1587
    3OL     H6R  500   2.552   1.883   4.793 -0.1334 -2.4376  1.9576
    3OL     H6S  501   2.530   1.839   4.631  1.2019 -2.7337 -1.4971
    3OL     C17  502   2.743   1.868   4.684 -0.3990  0.7141 -0.1826
    3OL     H7R  503   2.820   1.815   4.741  0.0287  1.6347  0.1088
    3OL     H7S  504   2.760   1.971   4.715  0.6759  1.0392 -1.7745
    3OL     C18  505   2.777   1.844   4.537  0.2481  0.1914  0.0448
    3OL     H8R  506   2.689   1.877   4.481 -1.0235 -0.3229  1.6729
    3OL     H8S  507   2.802   1.738   4.530 -0.5985 -0.1687  1.8242
    3OL     C19  508   2.901   1.924   4.506  0.5704 -0.0518  0.7022
    3OL     H9R  509   2.902   2.029   4.534  0.2079 -0.2138  1.3406
    3OL    C110  510   3.014   1.869   4.464  0.4967  0.2761  0.0613
    3OL    H10R  511   3.096   1.939   4.448  0.0714  0.6374 -0.5717
    3OL    C111  512   3.023   1.729   4.409  0.0360  0.2603  0.0231
    3OL    H11R  513   3.099   1.733   4.331 -0.2617  1.1695 -0.2339
    3OL    H11S  514   2.934   1.695   4.356 -0.3987  1.9968 -0.4333
    3OL    C112  515   3.061   1.623   4.513  0.1933  0.0845 -0.2125
    3OL    H12R  516   2.978   1.608   4.582  0.1137  1.5824  0.0457
    3OL    H12S  517   3.145   1.674   4.562  0.2975  0.0286 -0.3318
    3OL    C113  518   3.101   1.492   4.444  0.1657 -0.1023  0.1211
    3OL    H13R  519   3.188   1.512   4.381  0.6729 -1.4450  0.3733
    3OL    H13S  520   3.016   1.462   4.383 -0.1640 -0.7210  0.8762
    3OL    C114  521   3.138   1.380   4.542 -0.4341 -0.2224  0.2103
    3OL    H14R  522   3.054   1.367   4.610 -0.9796  0.0838 -0.3965
    3OL    H14S  523   3.229   1.401   4.598 -0.9778  1.5928  0.4489
    3OL    C115  524   3.152   1.245   4.470  0.0667 -0.3985  0.6328
    3OL    H15R  525   3.065   1.214   4.411  0.3978 -2.9517  1.3621
    3OL    H15S  526   3.156   1.165   4.545 -1.5657  0.3008  1.5084
    3OL    C116  527   3.271   1.244   4.373 -0.4286 -0.0148  0.0105
    3OL    H16R  528   3.286   1.337   4.319 -1.2918 -0.4843 -1.0819
    3OL    H16S  529   3.245   1.170   4.297  0.1950 -0.9624  0.6929
    3OL    C117  530   3.397   1.184   4.438 -0.1995  0.2104 -0.2207
    3OL    H17R  531   3.367   1.096   4.496  1.2059 -0.1237  0.0357
    3OL    H17S  532   3.453   1.260   4.491  3.6838 -1.1901 -1.9298
    3OL    C118  533   3.494   1.130   4.332 -0.0871 -0.4141  0.1923
    3OL    H18R  534   3.436   1.057   4.274  0.6956  0.1052 -1.3036
    3OL    H18S  535   3.578   1.081   4.381  2.0952  1.7141 -1.1968
    3OL    H18T  536   3.531   1.207   4.264 -0.1188  0.0057  0.6445
    1PA    C116  537   1.078   4.323   3.413  0.3648 -0.4831 -0.0597
    1PA    H16R  538   1.071   4.291   3.309 -2.6568 -0.3835  0.0413
    1PA    H16S  539   1.123   4.236   3.463  0.6518  0.2781  1.0355
    1PA    H16T  540   1.144   4.409   3.427  0.5204 -0.7051  0.6471
    1PA    C115  541   0.937   4.346   3.468  0.2785 -0.6729 -0.2020
    1PA    H15R  542   0.879   4.399   3.392 -1.0597 -2.3210 -0.3969
    1PA    H15S  543   0.885   4.249   3.470  1.5796 -1.6546 -4.1948
    1PA    C114  544   0.928   4.426   3.599  0.6795 -0.4436 -0.3149
    1PA    H14R  545   0.986   4.518   3.607 -1.2950  0.8081  0.1695
    1PA    H14S  546   0.826   4.460   3.618  0.5083  0.1327 -2.0416
    1PA    C113  547   0.948   4.328   3.715 -0.4406 -0.4443 -0.1126
    1PA    H13R  548   0.885   4.239   3.708 -0.2687 -0.4481 -1.9981
    1PA    H13S  549   1.051   4.298   3.695  0.4397  2.4342 -0.4477
    1PA    C112  550   0.938   4.406   3.847 -0.1200 -0.3865 -0.1209
    1PA    H12R  551   0.996   4.498   3.834  0.1728 -0.5128  0.2659
    1PA    H12S  552   0.833   4.429   3.867 -0.5370 -0.6261 -1.8723
    1PA    C111  553   1.007   4.334   3.963 -0.0217 -0.5778 -0.2984
    1PA    H11R  554   0.965   4.233   3.956 -0.5526 -0.4045  0.2772
    1PA    H11S  555   1.116   4.324   3.962  0.1728  1.3063 -0.8891
    1PA    C110  556   0.971   4.396   4.099 -0.3068 -0.6834 -0.3234
    1PA    H10R  557   1.012   4.498   4.103 -0.5827 -0.5820 -0.1080
    1PA    H10S  558   0.863   4.396   4.109 -0.5555  2.9373 -1.2783
    1PA     C19  559   1.031   4.318   4.216 -0.2501 -0.1965 -0.0237
    1PA     H9R  560   0.981   4.221   4.220  0.6104 -0.6845 -0.7308
    1PA     H9S  561   1.134   4.288   4.195  0.0854 -0.9228  2.3224
    1PA     C18  562   1.031   4.380   4.357  0.2751 -0.6332  0.1724
    1PA     H8R  563   0.929   4.410   4.381 -0.4989 -0.7272 -2.5681
    1PA     H8S  564   1.051   4.298   4.426 -0.3347 -1.3005 -0.4269
    1PA     C17  565   1.126   4.500   4.367 -0.2421 -0.2127  0.0481
    1PA     H7R  566   1.227   4.468   4.344 -0.2625  0.0183 -0.3701
    1PA     H7S  567   1.111   4.574   4.288  3.3635 -0.5999 -1.1655
    1PA     C16  568   1.135   4.579   4.498 -0.3668 -0.1175  0.0004
    1PA     H6R  569   1.184   4.673   4.471 -0.4945  0.1310  0.6122
    1PA     H6S  570   1.033   4.600   4.529 -0.0808 -0.1055  0.9713
    1PA     C15  571   1.212   4.507   4.611  0.2305  0.4082 -0.0650
    1PA     H5R  572   1.166   4.411   4.636 -1.2041  1.1679  0.3416
    1PA     H5S  573   1.316   4.492   4.584  0.2124  0.8679 -0.4232
    1PA     C14  574   1.228   4.599   4.733  0.0011 -0.3898  0.5756
    1PA     H4R  575   1.320   4.573   4.785 -0.3023 -0.6760  0.9750
    1PA     H4S  576   1.246   4.700   4.696 -1.7648 -0.9073 -2.0031
    1PA     C13  577   1.109   4.590   4.829 -0.1208 -0.1032  0.4514
    1PA     H3R  578   1.014   4.621   4.784  0.1461 -2.3686 -1.8930
    1PA     H3S  579   1.092   4.485   4.854 -1.9038  0.0171 -0.1078
    1PA     C12  580   1.132   4.662   4.962 -0.5033  0.3943  0.2512
    1PA     H2R  581   1.181   4.759   4.949 -1.1997  0.6132 -0.8375
    1PA     H2S  582   1.038   4.693   5.009 -0.1387 -0.7373  1.8087
    2PC     C11  583   1.223   4.591   5.059 -0.3914  0.0700 -0.0901
    2PC     O12  584   1.343   4.610   5.070 -0.1850 -1.0290 -0.3486
    2PC     O11  585   1.155   4.506   5.136  0.2670 -0.4977 -0.1300
    2PC      C1  586   1.237   4.424   5.222  0.3946 -0.3129 -0.0745
    2PC      HR  587   1.300   4.355   5.164  1.2876  0.2678  0.1923
    2PC      HS  588   1.296   4.494   5.280  1.3101  0.4195 -1.8168
    2PC      C2  589   1.147   4.341   5.316 -0.0564 -0.1350 -0.3449
    2PC      HX  590   1.067   4.396   5.366  0.1081 -0.5421  0.3626
    2PC      C3  591   1.231   4.273   5.424  0.0860  0.4263 -0.0964
    2PC      HA  592   1.266   4.176   5.387 -1.9694 -0.2439 -0.4113
    2PC      HB  593   1.318   4.330   5.456  0.2000 -0.0819  0.5340
    2PC     O31  594   1.151   4.254   5.543  0.1033 -0.5052 -0.2270
    2PC     P31  595   1.180   4.331   5.680 -0.0501 -0.1466 -0.3956
    2PC     O32  596   1.064   4.241   5.744  0.0580 -0.2614 -0.3602
    2PC     C31  597   0.990   4.301   5.852 -0.0229 -0.5383 -0.2626
    2PC     H1A  598   1.053   4.321   5.939 -0.1235  1.1259 -0.5477
    2PC     H1B  599   0.951   4.397   5.817 -0.2033 -0.6159 -0.2773
    2PC     C32  600   0.868   4.215   5.888  0.0746 -0.5588  0.0214
    2PC     H2A  601   0.901   4.112   5.894 -2.2128 -1.2953  1.8656
    2PC     H2B  602   0.827   4.243   5.985  0.7067 -0.7772  0.3574
    2PC     N31  603   0.750   4.209   5.796  0.2626 -0.0783 -0.2543
    2PC     C33  604   0.660   4.329   5.803  0.0031 -0.2374 -0.7664
    2PC     H3A  605   0.723   4.417   5.821 -1.3584  0.0613  3.3745
    2PC     H3B  606   0.608   4.344   5.708 -0.0086  1.6109 -0.5191
    2PC     H3C  607   0.597   4.330   5.891 -0.1384 -2.2121 -0.8206
    2PC     C34  608   0.793   4.199   5.653  0.1943  0.0604 -0.2852
    2PC     H4A  609   0.852   4.108   5.639  3.3070  1.9902 -0.9060
    2PC     H4B  610   0.711   4.191   5.581 -0.2496 -1.1289  0.3326
    2PC     H4C  611   0.869   4.275   5.634  0.3941 -0.1820 -0.4721
    2PC     C35  612   0.662   4.095   5.837  0.5546  0.1367  1.0020
    2PC     H5A  613   0.705   3.996   5.823  0.4663  0.2783 -0.3806
    2PC     H5B  614   0.564   4.091   5.788  1.1566 -2.2994 -0.1575
    2PC     H5C  615   0.651   4.114   5.944  0.6394 -0.0162  1.0367
    2PC     O33  616   1.304   4.289   5.749 -0.0103 -0.1072 -0.4425
    2PC     O34  617   1.149   4.474   5.703 -0.1214 -0.3762  1.0388
    2PC     O21  618   1.097   4.240   5.227 -0.0619 -0.1648 -0.3082
    2PC     C21  619   0.977   4.264   5.170 -0.3487 -0.2505  0.2572
    2PC     O22  620   0.902   4.349   5.213 -0.1343  0.1336 -0.1224
    3OL     C12  621   0.939   4.161   5.067 -0.6368  0.2738 -0.1692
    3OL     H2R  622   0.863   4.092   5.105  2.5764 -1.3184  4.2341
    3OL     H2S  623   1.022   4.089   5.063  0.0269  1.0429 -0.4165
    3OL     C13  624   0.905   4.217   4.929 -0.1763 -0.4054 -0.5617
    3OL     H3R  625   0.984   4.285   4.896 -1.5942  1.6417  0.0397
    3OL     H3S  626   0.809   4.269   4.935 -0.3034 -0.3789 -2.2455
    3OL     C14  627   0.888   4.095   4.836  0.3205 -0.6806 -0.2959
    3OL     H4R  628   0.804   4.033   4.867  1.5030 -2.6687 -0.8856
    3OL     H4S  629   0.982   4.040   4.846  2.5755  2.7634 -0.8525
    3OL     C15  630   0.863   4.153   4.696 -0.2374  0.0961  0.1121
    3OL     H5R  631   0.940   4.225   4.669  0.5859 -0.7543  0.1209
    3OL     H5S  632   0.768   4.207   4.695  1.0368  2.4973  1.0474
    3OL     C16  633   0.862   4.041   4.591  0.5325  0.3137 -0.1309
    3OL     H6R  634   0.817   4.074   4.497 -1.6953  1.3175  1.2284
    3OL     H6S  635   0.797   3.959   4.620  1.4205 -0.6055 -0.6323
    3OL     C17  636   0.997   3.975   4.556  0.4225 -0.1882  0.3939
    3OL     H7R  637   1.050   3.943   4.646  1.2521  3.5393  1.3894
    3OL     H7S  638   1.059   4.058   4.522  0.1915  0.6862  1.9788
    3OL     C18  639   0.975   3.877   4.440 -0.2981 -0.0036  0.3686
    3OL     H8R  640   0.949   3.931   4.349  0.8737  0.5992  0.3841
    3OL     H8S  641   0.894   3.809   4.471 -1.2068  1.2426  0.7940
    3OL     C19  642   1.101   3.799   4.412 -0.2560  0.2484 -0.1474
    3OL     H9R  643   1.138   3.726   4.484 -0.1243  0.3303 -0.1302
    3OL    C110  644   1.190   3.816   4.315  0.0619  0.2373  0.1389
    3OL    H10R  645   1.274   3.748   4.317 -0.4160 -0.3474  1.0852
    3OL    C111  646   1.183   3.907   4.195  0.5126 -0.0274 -0.0895
    3OL    H11R  647   1.103   3.978   4.215 -1.2478 -1.9136 -0.1761
    3OL    H11S  648   1.153   3.848   4.108  0.4031  0.2412 -0.2348
    3OL    C112  649   1.312   3.984   4.161  0.0857  0.3772 -0.8009
    3OL    H12R  650   1.329   4.027   4.260 -1.5425  0.3769 -0.4818
    3OL    H12S  651   1.299   4.064   4.088  1.4619  1.0717 -0.3164
    3OL    C113  652   1.424   3.888   4.120  0.0251 -0.1815  0.2985
    3OL    H13R  653   1.383   3.818   4.047 -0.9772  1.3730 -0.6940
    3OL    H13S  654   1.448   3.819   4.200  1.1347 -3.1409 -2.3648
    3OL    C114  655   1.556   3.957   4.083 -0.0335 -0.0723  0.2931
    3OL    H14R  656   1.622   3.876   4.052 -0.6254 -0.1489 -0.7872
    3OL    H14S  657   1.603   4.006   4.169 -0.9294 -0.4099  0.9832
    3OL    C115  658   1.559   4.053   3.964  0.2677 -0.1158  0.2646
    3OL    H15R  659   1.662   4.083   3.941  1.0897 -0.1296  3.5328
    3OL    H15S  660   1.507   4.147   3.984  0.2094 -0.5008  2.0147
    3OL    C116  661   1.503   3.988   3.837  0.1823  0.9027 -0.2300
    3OL    H16R  662   1.490   4.057   3.752 -1.3850  0.3950 -0.4451
    3OL    H16S  663   1.403   3.945   3.847  0.0772  0.7805 -1.5928
    3OL    C117  664   1.600   3.891   3.769 -0.2903 -0.0346  0.4119
    3OL    H17R  665   1.631   3.802   3.824 -2.0358 -1.8352 -1.3187
    3OL    H17S  666   1.698   3.938   3.757  0.0909 -0.7325  0.7607
    3OL    C118  667   1.542   3.841   3.636  0.0064  0.1768  0.2005
    3OL    H18R  668   1.613   3.763   3.609  3.1793  2.2311  1.9738
    3OL    H18S  669   1.534   3.913   3.554  2.9523  0.8471  0.3922
    3OL    H18T  670   1.447   3.790   3.653 -1.2771  2.3059 -0.1383
    1PA    C116  671   0.211   4.229   4.110 -0.7333 -0.1975  0.0820
    1PA    H16R  672   0.147   4.211   4.197  0.0310  0.2595  0.7514
    1PA    H16S  673   0.317   4.240   4.134 -0.7999 -1.6325  1.2486
    1PA    H16T  674   0.209   4.154   4.031  0.8256  0.7529 -0.9212
    1PA    C115  675   0.168   4.363   4.049 -0.5760 -0.2082 -0.0540
    1PA    H15R  676   0.226   4.364   3.957 -0.1262 -0.4022  0.2217
    1PA    H15S  677   0.061   4.373   4.031 -0.3516 -0.5976 -1.7349
    1PA    C114  678   0.193   4.486   4.137 -1.4542 -0.2050  0.2059
    1PA    H14R  679   0.144   4.463   4.232 -1.2144 -1.7019 -0.0028
    1PA    H14S  680   0.299   4.494   4.162 -1.3643  0.7391 -0.4126
    1PA    C113  681   0.140   4.616   4.075  0.0734  0.1888 -0.3176
    1PA    H13R  682   0.198   4.649   3.989 -1.0253  0.3662 -1.0095
    1PA    H13S  683   0.039   4.595   4.040 -0.6863  3.7028 -0.5764
    1PA    C112  684   0.122   4.728   4.178 -0.2061  0.5670 -0.7727
    1PA    H12R  685   0.093   4.815   4.118 -0.4584  0.4751 -0.7840
    1PA    H12S  686   0.038   4.721   4.247 -1.0967  1.5439 -1.7265
    1PA    C111  687   0.260   4.759   4.239 -0.3031 -0.3979 -0.0357
    1PA    H11R  688   0.298   4.671   4.291  3.4831  0.4564 -1.0244
    1PA    H11S  689   0.333   4.763   4.159  0.1666 -1.9142  0.2821
    1PA    C110  690   0.267   4.881   4.332 -0.3353 -0.6663  0.3213
    1PA    H10R  691   0.365   4.928   4.318 -1.4327  2.0492  0.9612
    1PA    H10S  692   0.190   4.955   4.309 -1.2212 -2.2001 -2.0329
    1PA     C19  693   0.250   4.841   4.479 -0.2811 -0.5406  0.3618
    1PA     H9R  694   0.156   4.789   4.492 -1.0430  1.0947  1.9484
    1PA     H9S  695   0.330   4.770   4.503  2.6317  2.2670 -0.2586
    1PA     C18  696   0.256   4.965   4.571  0.3903 -0.3111  0.0202
    1PA     H8R  697   0.355   5.010   4.563  0.9568 -1.4608  0.3411
    1PA     H8S  698   0.189   5.041   4.531 -0.3621 -1.1604 -0.3691
    1PA     C17  699   0.221   4.928   4.716  0.1064 -0.3643 -0.0595
    1PA     H7R  700   0.117   4.896   4.707  0.0606 -0.3134  0.2809
    1PA     H7S  701   0.289   4.851   4.753  0.1933 -1.1375 -1.7119
    1PA     C16  702   0.212   5.049   4.809  0.2440 -0.1481 -0.3264
    1PA     H6R  703   0.308   5.097   4.831 -0.4684  1.7479 -1.0887
    1PA     H6S  704   0.164   5.125   4.746 -1.7969 -1.8037 -0.8885
    1PA     C15  705   0.143   5.015   4.942  0.2139  0.3400 -0.2130
    1PA     H5R  706   0.045   4.971   4.921 -0.0712  0.8322  0.0712
    1PA     H5S  707   0.207   4.949   5.000  0.4240  0.5446 -0.2123
    1PA     C14  708   0.118   5.147   5.015 -0.2458  0.2634 -0.2317
    1PA     H4R  709   0.216   5.181   5.047  1.0608 -2.9020 -0.5172
    1PA     H4S  710   0.055   5.214   4.956  2.1862  1.9348 -1.0904
    1PA     C13  711   0.053   5.124   5.153  0.5773  0.6575  0.2279
    1PA     H3R  712  -0.045   5.079   5.139 -0.1339  2.0598  0.5242
    1PA     H3S  713   0.103   5.047   5.212 -0.6858 -1.1523 -0.9491
    1PA     C12  714   0.028   5.260   5.219 -0.0061  0.3722  0.6063
    1PA     H2R  715   0.111   5.329   5.200 -0.2943 -0.0551 -2.9318
    1PA     H2S  716  -0.058   5.303   5.168  0.3241  1.0280  0.5847
    2PC     C11  717   0.025   5.245   5.369 -0.0638  0.1407  0.5821
    2PC     O12  718   0.018   5.145   5.438  0.4888  0.1664  0.6821
    2PC     O11  719   0.023   5.368   5.424 -0.3890  0.4618 -0.1401
    2PC      C1  720   0.007   5.380   5.566  0.3067 -0.3557  0.0148
    2PC      HR  721  -0.098   5.362   5.587 -0.8850  4.5787 -0.5535
    2PC      HS  722   0.070   5.307   5.618 -1.7620 -1.0728  1.6842
    2PC      C2  723   0.048   5.522   5.608  0.1413 -0.3577  0.1806
    2PC      HX  724   0.154   5.539   5.586 -0.0953  1.3729  0.2634
    2PC      C3  725   0.019   5.540   5.758 -0.3445 -0.1880  0.0663
    2PC      HA  726   0.105   5.506   5.816  0.5610  0.3048 -0.9526
    2PC      HB  727   0.004   5.647   5.777 -1.2767 -0.3645  0.4111
    2PC     O31  728  -0.100   5.468   5.797  0.1413 -1.1853 -0.2713
    2PC     P31  729  -0.148   5.486   5.949  0.0826 -0.2040 -0.4022
    2PC     O32  730  -0.017   5.448   6.032  0.3748  0.1862 -0.6827
    2PC     C31  731   0.017   5.309   6.049  0.2029  0.2129 -0.0862
    2PC     H1A  732  -0.069   5.256   6.090  0.0091  0.7354  0.1993
    2PC     H1B  733   0.037   5.262   5.952  0.5349 -1.0418  0.5687
    2PC     C32  734   0.139   5.302   6.141 -0.1924  0.2066  0.4386
    2PC     H2A  735   0.182   5.202   6.142 -2.0082 -0.6155  1.8172
    2PC     H2B  736   0.210   5.379   6.109  1.1891 -0.8824  0.7562
    2PC     N31  737   0.107   5.325   6.286 -0.1738 -0.2321  0.5140
    2PC     C33  738   0.016   5.222   6.345 -0.7757 -0.5187 -0.8674
    2PC     H3A  739  -0.011   5.240   6.450 -2.0784  1.5244 -1.4828
    2PC     H3B  740  -0.072   5.205   6.283 -2.0276  0.6993  0.4860
    2PC     H3C  741   0.068   5.127   6.340 -0.6972 -0.7850  2.5406
    2PC     C34  742   0.233   5.315   6.366 -0.0497 -0.7933  0.2531
    2PC     H4A  743   0.269   5.212   6.364 -0.5455 -0.9660 -1.1695
    2PC     H4B  744   0.307   5.385   6.327  0.6546 -0.0439  2.7264
    2PC     H4C  745   0.211   5.348   6.468 -1.0625 -1.1650  0.1610
    2PC     C35  746   0.042   5.459   6.303 -0.0258 -0.0559 -0.2832
    2PC     H5A  747  -0.054   5.456   6.251 -2.2765  3.4267  3.0788
    2PC     H5B  748   0.107   5.538   6.264  1.7204 -1.5189 -0.4530
    2PC     H5C  749   0.033   5.481   6.409 -0.7970  2.5751 -0.7992
    2PC     O33  750  -0.200   5.624   5.964  0.8687  0.0354  0.1513
    2PC     O34  751  -0.251   5.393   6.000  0.0536 -0.1380 -0.3407
    2PC     O21  752  -0.029   5.617   5.533  0.1964 -0.3740  0.1033
    2PC     C21  753   0.023   5.737   5.504 -0.5798 -0.1517 -0.4170
    2PC     O22  754   0.140   5.763   5.528 -0.5609 -0.8384  0.2664
    3OL     C12  755  -0.068   5.838   5.439 -0.4819  0.2651  0.0835
    3OL     H2R  756  -0.056   5.943   5.467  0.4086  0.3443 -0.5687
    3OL     H2S  757  -0.175   5.821   5.456 -0.6011  0.3499 -0.5800
    3OL     C13  758  -0.040   5.821   5.289  0.2586 -0.4375  0.2896
    3OL     H3R  759   0.068   5.817   5.280  0.2841  1.3925 -0.9650
    3OL     H3S  760  -0.069   5.906   5.226  1.3164  0.6388  1.2182
    3OL     C14  761  -0.093   5.688   5.234  0.1920 -0.5881  0.7120
    3OL     H4R  762  -0.199   5.671   5.251 -0.2735 -0.8981 -2.0350
    3OL     H4S  763  -0.037   5.598   5.259 -1.5544 -1.7922  0.4590
    3OL     C15  764  -0.075   5.711   5.083  0.3330 -0.3449  0.7648
    3OL     H5R  765   0.024   5.738   5.046 -0.4859  1.4296 -0.2295
    3OL     H5S  766  -0.141   5.792   5.052  1.4465  0.5315  0.6372
    3OL     C16  767  -0.128   5.582   5.018 -0.0017 -0.0684  0.4877
    3OL     H6R  768  -0.230   5.560   5.047 -0.6804 -0.5498 -2.0380
    3OL     H6S  769  -0.055   5.508   5.052  1.4589  1.7843  1.5813
    3OL     C17  770  -0.116   5.574   4.865  0.2604 -0.6503  0.5379
    3OL     H7R  771  -0.021   5.615   4.831  0.0960 -0.1586  0.6692
    3OL     H7S  772  -0.188   5.642   4.820  0.5452  0.1103  1.2107
    3OL     C18  773  -0.133   5.429   4.817 -0.3696 -0.4335  0.1018
    3OL     H8R  774  -0.237   5.397   4.819 -0.8960  0.9664 -1.6004
    3OL     H8S  775  -0.080   5.361   4.884 -0.1577  1.5219  2.0136
    3OL     C19  776  -0.073   5.418   4.679  0.0770 -0.0827  0.2667
    3OL     H9R  777   0.019   5.473   4.659  0.1849  0.4568  2.1088
    3OL    C110  778  -0.107   5.333   4.583  0.5523  0.2739 -0.2249
    3OL    H10R  779  -0.047   5.313   4.495 -2.1121  0.9380 -2.3126
    3OL    C111  780  -0.203   5.217   4.593  0.3680  0.4667  0.2432
    3OL    H11R  781  -0.296   5.238   4.541  0.0330 -1.7072 -0.1295
    3OL    H11S  782  -0.239   5.202   4.695 -0.4121  0.5496 -0.0116
    3OL    C112  783  -0.149   5.083   4.542 -0.1295  0.4507 -0.2414
    3OL    H12R  784  -0.044   5.077   4.569 -0.1437  1.8365  0.2098
    3OL    H12S  785  -0.168   5.076   4.435 -1.2348  0.6691 -0.0758
    3OL    C113  786  -0.223   4.959   4.594 -0.0734  0.5657  0.1145
    3OL    H13R  787  -0.195   4.875   4.530  0.6479  1.1949 -0.4148
    3OL    H13S  788  -0.329   4.986   4.592 -0.3667 -0.4027 -3.3790
    3OL    C114  789  -0.184   4.925   4.739 -0.1616 -0.4631 -0.0912
    3OL    H14R  790  -0.150   5.017   4.788  1.8058 -1.3557  0.3054
    3OL    H14S  791  -0.092   4.867   4.743  0.5848  0.7251  1.2650
    3OL    C115  792  -0.289   4.852   4.824 -0.4253  0.2042  0.1618
    3OL    H15R  793  -0.245   4.828   4.921 -1.3819 -2.1507  0.0613
    3OL    H15S  794  -0.322   4.761   4.775  0.8257 -0.3062  0.2390
    3OL    C116  795  -0.405   4.942   4.871  0.0874  0.8179  0.2785
    3OL    H16R  796  -0.455   4.992   4.787 -0.3076  0.3223  0.2119
    3OL    H16S  797  -0.356   5.018   4.932  0.9227  0.6151 -0.1200
    3OL    C117  798  -0.502   4.854   4.952  0.4440  0.0227 -0.1367
    3OL    H17R  799  -0.451   4.819   5.042 -0.3947 -0.3464  0.2038
    3OL    H17S  800  -0.530   4.763   4.900  0.4886 -0.5555  0.8320
    3OL    C118  801  -0.625   4.938   4.990  0.3837 -0.0352 -0.2072
    3OL    H18R  802  -0.693   4.953   4.906 -0.9475 -1.4114  0.5699
    3OL    H18S  803  -0.598   5.036   5.028 -2.3015  0.3969  0.7847
    3OL    H18T  804  -0.682   4.882   5.065 -0.1030 -2.1846 -2.0471
    1PA    C116  805   0.102   3.971   3.626 -0.3162 -0.3235  0.1653
    1PA    H16R  806   0.165   3.998   3.711  1.5110 -0.3938 -1.0963
    1PA    H16S  807   0.141   4.015   3.534  1.4913 -0.4136  0.8324
    1PA    H16T  808   0.087   3.863   3.632 -1.6850 -0.2766 -1.6892
    1PA    C115  809  -0.036   4.032   3.653 -0.1462 -0.1176  0.5772
    1PA    H15R  810  -0.027   4.131   3.698 -3.2988 -0.1398  1.5163
    1PA    H15S  811  -0.084   4.055   3.558 -5.0665 -2.4527  2.1428
    1PA    C114  812  -0.125   3.946   3.745 -0.3609 -0.3344  0.1724
    1PA    H14R  813  -0.226   3.968   3.710  0.2681  0.3814 -1.2618
    1PA    H14S  814  -0.110   3.842   3.718  1.0833  0.2007 -1.2670
    1PA    C113  815  -0.107   3.968   3.896 -0.5513 -0.1552  0.1700
    1PA    H13R  816  -0.110   4.075   3.915 -0.0378  0.0208 -0.7071
    1PA    H13S  817  -0.198   3.932   3.944 -2.3881  3.0954 -0.5790
    1PA    C112  818   0.020   3.904   3.954 -0.0009  0.7936  0.0210
    1PA    H12R  819   0.017   3.797   3.936 -0.4533  0.1399  3.3004
    1PA    H12S  820   0.116   3.948   3.923  1.2603 -0.3360  2.1034
    1PA    C111  821   0.006   3.919   4.106  0.4531  0.6423  0.0794
    1PA    H11R  822  -0.003   4.023   4.140  0.6052  0.0824  1.9523
    1PA    H11S  823  -0.084   3.863   4.132  1.2275 -0.1609  1.1375
    1PA    C110  824   0.125   3.860   4.184 -0.2090 -0.2777  0.4108
    1PA    H10R  825   0.142   3.760   4.145  0.1962  0.6208 -1.9007
    1PA    H10S  826   0.204   3.934   4.171  0.3571 -0.9930 -0.2776
    1PA     C19  827   0.087   3.856   4.333  0.1912 -0.9337  0.4998
    1PA     H9R  828  -0.007   3.801   4.331  0.6599 -1.9877 -4.1430
    1PA     H9S  829   0.162   3.802   4.391  0.8525  3.5526  4.4264
    1PA     C18  830   0.069   3.989   4.408  0.9349 -0.3450 -0.3455
    1PA     H8R  831   0.157   4.049   4.382  0.4351  0.4096 -0.3421
    1PA     H8S  832  -0.019   4.039   4.367  0.7189 -1.8817 -1.8935
    1PA     C17  833   0.041   3.962   4.556  0.0910  0.3845 -0.3675
    1PA     H7R  834  -0.035   3.883   4.553  0.3987  0.1082 -2.3478
    1PA     H7S  835   0.130   3.917   4.601 -1.3392 -0.2404  2.0556
    1PA     C16  836  -0.001   4.080   4.645 -0.2763 -0.0107 -0.0136
    1PA     H6R  837   0.055   4.171   4.625 -0.2523  0.1451  0.7232
    1PA     H6S  838  -0.107   4.105   4.637 -0.6117  0.5111  4.0408
    1PA     C15  839   0.013   4.040   4.793  0.2596  0.2584  0.0087
    1PA     H5R  840  -0.044   3.949   4.807  2.4066 -1.1329  0.1819
    1PA     H5S  841   0.113   4.009   4.823  0.8215  1.2022 -0.8129
    1PA     C14  842  -0.047   4.145   4.887  0.1190  0.2186 -0.0379
    1PA     H4R  843   0.007   4.239   4.870 -1.6758  1.4171  0.5596
    1PA     H4S  844  -0.153   4.156   4.863  0.1078 -2.2482 -1.4136
    1PA     C13  845  -0.024   4.118   5.036  0.5226 -0.3097 -0.1932
    1PA     H3R  846   0.080   4.100   5.063  0.7920 -1.8258 -1.9961
    1PA     H3S  847  -0.046   4.208   5.094  0.3105 -2.2628  2.9690
    1PA     C12  848  -0.106   3.999   5.088 -0.2755  0.3379  0.0470
    1PA     H2R  849  -0.214   4.011   5.076 -0.4244  0.1163  1.0230
    1PA     H2S  850  -0.087   3.908   5.032 -0.6154 -0.4093  1.1049
    2PC     C11  851  -0.087   3.980   5.237 -0.1467  0.0657 -0.0035
    2PC     O12  852  -0.176   4.007   5.315 -0.2168 -0.1554 -0.0093
    2PC     O11  853   0.035   3.934   5.270 -0.4128 -0.3911  0.3479
    2PC      C1  854   0.071   3.918   5.409  0.1418 -0.2344  0.2242
    2PC      HR  855   0.178   3.897   5.415 -0.0454 -0.9938  1.2490
    2PC      HS  856   0.049   4.013   5.458 -1.7831 -0.2895 -0.4351
    2PC      C2  857  -0.016   3.809   5.475 -0.2542  0.0031  0.1002
    2PC      HX  858  -0.118   3.847   5.482  0.0090  1.0039 -1.0435
    2PC      C3  859   0.032   3.784   5.618  0.0019  0.2446  0.0586
    2PC      HA  860   0.129   3.734   5.614  0.0404  0.4229 -1.8141
    2PC      HB  861   0.040   3.873   5.682 -0.1254 -0.3516  0.9218
    2PC     O31  862  -0.062   3.696   5.682  0.0011  0.1406 -0.0845
    2PC     P31  863  -0.018   3.652   5.830  0.2094 -0.0143 -0.1930
    2PC     O32  864  -0.156   3.632   5.908  0.2160  0.4689 -0.0560
    2PC     C31  865  -0.218   3.503   5.924  0.0109  0.5583 -0.1234
    2PC     H1A  866  -0.235   3.463   5.824  2.5461 -1.9971  0.3428
    2PC     H1B  867  -0.150   3.439   5.980  0.2404 -1.1543 -2.2269
    2PC     C32  868  -0.353   3.520   5.995  0.0741  0.2102  0.0846
    2PC     H2A  869  -0.419   3.587   5.940 -1.5404 -0.9807  0.4927
    2PC     H2B  870  -0.406   3.426   5.985 -0.0293  0.0878  1.4938
    2PC     N31  871  -0.352   3.555   6.141  0.0516 -0.1439  0.1684
    2PC     C33  872  -0.249   3.477   6.217 -0.0963 -0.4895  0.0194
    2PC     H3A  873  -0.153   3.498   6.170  0.3977  1.9331  1.8993
    2PC     H3B  874  -0.246   3.510   6.321  1.8513 -0.7486  0.0839
    2PC     H3C  875  -0.262   3.369   6.206  0.9100 -0.5027 -1.2315
    2PC     C34  876  -0.329   3.702   6.158 -0.1836 -0.0528 -0.2854
    2PC     H4A  877  -0.407   3.747   6.097 -1.1205 -2.2680 -0.8335
    2PC     H4B  878  -0.333   3.730   6.263 -0.3275  1.3449 -0.6502
    2PC     H4C  879  -0.228   3.731   6.127 -0.5683  2.0384  0.2658
    2PC     C35  880  -0.491   3.524   6.190  0.0637 -0.8239 -0.2122
    2PC     H5A  881  -0.480   3.419   6.217  0.5751 -0.1789  2.3767
    2PC     H5B  882  -0.565   3.547   6.113  0.6448 -2.2824 -1.2468
    2PC     H5C  883  -0.509   3.576   6.284  2.0454 -0.0759 -0.1815
    2PC     O33  884   0.076   3.540   5.853 -0.3596 -0.5203 -0.3212
    2PC     O34  885   0.061   3.753   5.904 -0.0767  0.0363  0.0440
    2PC     O21  886  -0.007   3.685   5.403 -0.0113  0.0278  0.0871
    2PC     C21  887  -0.115   3.635   5.340  0.1020 -0.1287  0.0160
    2PC     O22  888  -0.205   3.710   5.308  0.3222  0.0645 -0.1520
    3OL     C12  889  -0.099   3.487   5.316  0.1127 -0.0415 -0.5228
    3OL     H2R  890  -0.092   3.423   5.404 -1.7010 -0.5997 -0.7549
    3OL     H2S  891  -0.001   3.476   5.269 -0.7736  0.5988 -2.6257
    3OL     C13  892  -0.212   3.438   5.225 -0.0383 -0.4071 -0.1408
    3OL     H3R  893  -0.202   3.477   5.123 -0.9492 -0.1597 -0.1461
    3OL     H3S  894  -0.309   3.462   5.269 -0.2106  0.0522 -0.7469
    3OL     C14  895  -0.205   3.285   5.218 -0.5877 -0.4852  0.8547
    3OL     H4R  896  -0.273   3.249   5.296  0.3751  2.7034  3.3800
    3OL     H4S  897  -0.112   3.241   5.254 -0.0655 -0.0159  0.1120
    3OL     C15  898  -0.260   3.247   5.080  0.3225  0.0606  0.3331
    3OL     H5R  899  -0.208   3.300   4.999  1.7761 -0.3400  0.9727
    3OL     H5S  900  -0.364   3.281   5.073  0.0514 -0.7715  0.2752
    3OL     C16  901  -0.256   3.097   5.050  0.2784 -0.0085  0.6682
    3OL     H6R  902  -0.162   3.045   5.069  0.5471 -0.0864 -0.7434
    3OL     H6S  903  -0.273   3.091   4.942 -0.3992  0.8560  0.7198
    3OL     C17  904  -0.380   3.024   5.104 -0.0847 -0.1073 -0.2733
    3OL     H7R  905  -0.396   3.051   5.209 -0.2017  0.5152 -0.4447
    3OL     H7S  906  -0.357   2.917   5.105  1.0994  0.0951  1.9996
    3OL     C18  907  -0.508   3.054   5.025 -0.1825  0.3337  0.0482
    3OL     H8R  908  -0.485   3.017   4.925  0.4483  0.0654  0.2846
    3OL     H8S  909  -0.536   3.160   5.024  2.3272  1.1135 -2.6739
    3OL     C19  910  -0.627   2.977   5.077  0.0763  0.3365  0.6610
    3OL     H9R  911  -0.637   2.995   5.184  0.7506  5.7476  0.1087
    3OL    C110  912  -0.712   2.905   5.005  0.4171  0.4541  0.1294
    3OL    H10R  913  -0.796   2.850   5.048  0.8110  2.1556  3.4533
    3OL    C111  914  -0.714   2.900   4.855 -0.5239 -0.1134  0.1505
    3OL    H11R  915  -0.696   2.798   4.820  3.4639 -0.6345  2.9901
    3OL    H11S  916  -0.631   2.961   4.819  0.0034  0.7335  2.6502
    3OL    C112  917  -0.838   2.963   4.790 -0.4122 -0.3179 -0.2670
    3OL    H12R  918  -0.846   3.068   4.820  0.2897  0.4958 -2.6774
    3OL    H12S  919  -0.931   2.922   4.830 -1.6334  2.4692  0.0090
    3OL    C113  920  -0.839   2.958   4.637  0.3132 -0.5212 -0.2699
    3OL    H13R  921  -0.761   3.015   4.586 -0.6651  1.2047  0.1079
    3OL    H13S  922  -0.925   3.017   4.603  0.5735  0.7114  1.1230
    3OL    C114  923  -0.856   2.814   4.587 -0.3602 -0.6178  0.2335
    3OL    H14R  924  -0.953   2.780   4.625 -1.0934  0.4733 -0.6095
    3OL    H14S  925  -0.776   2.750   4.626  0.1745 -0.1390 -0.0673
    3OL    C115  926  -0.852   2.823   4.434  0.4152  0.1267  0.2905
    3OL    H15R  927  -0.748   2.829   4.403  0.4533 -0.1024  0.3661
    3OL    H15S  928  -0.894   2.915   4.395  1.3613  1.1818  1.6760
    3OL    C116  929  -0.925   2.703   4.372  0.3335  0.2049  0.2352
    3OL    H16R  930  -1.031   2.727   4.385  0.4825  1.0978 -0.1379
    3OL    H16S  931  -0.902   2.616   4.435 -0.1840  1.4665  2.2573
    3OL    C117  932  -0.906   2.688   4.220 -0.1772 -0.0250  0.1924
    3OL    H17R  933  -0.959   2.764   4.163  1.0829  0.2289 -0.6668
    3OL    H17S  934  -0.956   2.595   4.191 -1.6455  1.1909 -1.3807
    3OL    C118  935  -0.759   2.673   4.178  0.0267  0.5197  0.6906
    3OL    H18R  936  -0.718   2.575   4.202  2.4999  1.4437  0.4962
    3OL    H18S  937  -0.693   2.732   4.241  0.0118  0.0794  1.1173
    3OL    H18T  938  -0.737   2.690   4.072 -0.8229 -0.1235  0.3969
    1PA    C116  939   4.593   1.793   3.679  1.0099  0.9196  0.2074
    1PA    H16R  940   4.518   1.793   3.600 -1.0241 -0.1228  2.0320
    1PA    H16S  941   4.690   1.792   3.629  1.1939  0.9586  0.5562
    1PA    H16T  942   4.580   1.882   3.741  1.3712  1.0264  0.1298
    1PA    C115  943   4.596   1.667   3.767  0.4109  0.6059 -0.2141
    1PA    H15R  944   4.612   1.575   3.711 -0.2336 -1.3359  2.6069
    1PA    H15S  945   4.682   1.669   3.834  1.6263 -2.0780 -1.5523
    1PA    C114  946   4.465   1.630   3.838  0.5243  0.4975 -0.0611
    1PA    H14R  947   4.389   1.617   3.761  1.2821  1.6759 -1.0521
    1PA    H14S  948   4.477   1.531   3.883  4.2394  0.0195 -1.7035
    1PA    C113  949   4.418   1.727   3.947 -0.7869 -0.0694 -0.1004
    1PA    H13R  950   4.505   1.765   4.002 -0.1270  1.0379 -1.8301
    1PA    H13S  951   4.380   1.820   3.905 -0.2417  0.3150  0.2379
    1PA    C112  952   4.328   1.657   4.049  0.0016 -0.1459  0.5580
    1PA    H12R  953   4.236   1.628   3.997 -1.4342 -2.4005  3.9474
    1PA    H12S  954   4.380   1.574   4.096 -0.4218 -0.1090  1.1087
    1PA    C111  955   4.288   1.759   4.157  0.8671  0.3920  0.3791
    1PA    H11R  956   4.371   1.788   4.222 -0.8163  1.1999  2.3065
    1PA    H11S  957   4.268   1.852   4.104  2.2066  1.0329  0.9530
    1PA    C110  958   4.169   1.717   4.245  0.0159  0.1345 -0.8718
    1PA    H10R  959   4.149   1.799   4.314  2.1849 -0.7705  0.9602
    1PA    H10S  960   4.077   1.683   4.198 -0.7680  0.1451  0.5983
    1PA     C19  961   4.202   1.595   4.332 -0.7916  0.1275 -0.5661
    1PA     H9R  962   4.108   1.540   4.340 -0.9227  0.5428  1.1047
    1PA     H9S  963   4.277   1.532   4.283  0.0852  0.6540  0.0654
    1PA     C18  964   4.255   1.628   4.472 -0.3884 -0.4824 -0.5701
    1PA     H8R  965   4.339   1.697   4.472 -0.4271 -0.3998 -1.9951
    1PA     H8S  966   4.179   1.673   4.537  2.6069  3.5020  0.5616
    1PA     C17  967   4.300   1.501   4.545  0.2751  0.2406  0.2937
    1PA     H7R  968   4.228   1.420   4.533  0.1979  0.4197 -0.4767
    1PA     H7S  969   4.387   1.456   4.497  0.6657  0.9965  0.2707
    1PA     C16  970   4.333   1.527   4.693 -0.1682 -0.2199  0.4767
    1PA     H6R  971   4.407   1.607   4.689  0.1014 -0.5098 -1.1625
    1PA     H6S  972   4.235   1.545   4.739  0.4280 -2.7173  2.9880
    1PA     C15  973   4.384   1.406   4.772 -0.2715 -0.2930  0.4318
    1PA     H5R  974   4.302   1.335   4.761 -0.5955  0.4173 -2.4882
    1PA     H5S  975   4.476   1.359   4.738 -0.1413  0.2010  0.0840
    1PA     C14  976   4.392   1.442   4.921 -0.0317 -0.1537  0.3853
    1PA     H4R  977   4.477   1.506   4.945 -0.9729  1.0262  0.6821
    1PA     H4S  978   4.301   1.488   4.961  0.4578  1.3373 -0.1424
    1PA     C13  979   4.422   1.317   5.006  0.2467  0.0009  0.5182
    1PA     H3R  980   4.345   1.241   4.992  0.1407 -0.4532  3.2096
    1PA     H3S  981   4.524   1.286   4.982 -0.4343 -1.8086 -0.1851
    1PA     C12  982   4.427   1.358   5.154  0.0982 -0.0381  0.5341
    1PA     H2R  983   4.506   1.432   5.163  1.6239 -1.2912 -1.5485
    1PA     H2S  984   4.331   1.405   5.177  0.4389  0.3995  1.0809
    2PC     C11  985   4.449   1.246   5.252 -0.1858 -0.5747 -0.0045
    2PC     O12  986   4.430   1.268   5.370  0.6707 -0.1630  0.0675
    2PC     O11  987   4.516   1.139   5.204 -0.5516 -0.7217 -0.1940
    2PC      C1  988   4.556   1.038   5.298  0.4615 -0.0507  0.1154
    2PC      HR  989   4.613   0.963   5.242  1.6748  0.3063  0.8298
    2PC      HS  990   4.633   1.071   5.368 -0.1747 -1.5607  1.6039
    2PC      C2  991   4.441   0.965   5.369  0.3494  0.1317  0.1223
    2PC      HX  992   4.370   1.038   5.408  2.0934  0.3446  3.2500
    2PC      C3  993   4.504   0.895   5.490  0.0325  0.1808  0.3156
    2PC      HA  994   4.559   0.965   5.554  0.9558  0.8629 -1.1705
    2PC      HB  995   4.431   0.852   5.559  1.1614 -0.4045  1.1931
    2PC     O31  996   4.604   0.798   5.454 -0.0766 -0.0756  0.7007
    2PC     P31  997   4.752   0.801   5.515 -0.0367 -0.2182  0.6101
    2PC     O32  998   4.730   0.686   5.623  0.1103 -0.5113  0.3320
    2PC     C31  999   4.836   0.665   5.718  0.1823  0.3625  0.4517
    2PC     H1A 1000   4.926   0.628   5.669  1.3093  0.9850  1.9687
    2PC     H1B 1001   4.861   0.759   5.768  1.6934 -0.1659  0.7281
    2PC     C32 1002   4.793   0.560   5.822  0.2719 -0.0556  0.0667
    2PC     H2A 1003   4.784   0.463   5.772  1.8714 -0.3288  0.2440
    2PC     H2B 1004   4.878   0.557   5.891  0.7211  0.6007 -0.4414
    2PC     N31 1005   4.672   0.585   5.905  0.3756  0.3820  0.0851
    2PC     C33 1006   4.660   0.728   5.948 -0.1007  0.5491 -0.5822
    2PC     H3A 1007   4.761   0.748   5.986  0.0827 -1.3833  0.0453
    2PC     H3B 1008   4.662   0.786   5.856  0.8725 -3.0123 -2.9934
    2PC     H3C 1009   4.585   0.744   6.026  1.2760  1.3450  0.6439
    2PC     C34 1010   4.549   0.564   5.821  0.2027 -0.5596  0.5612
    2PC     H4A 1011   4.535   0.460   5.792 -0.9999 -0.2147 -0.1707
    2PC     H4B 1012   4.470   0.615   5.875 -0.0177  2.3010 -2.1863
    2PC     H4C 1013   4.554   0.625   5.731 -2.3390 -1.0621  0.0181
    2PC     C35 1014   4.682   0.490   6.021  0.0720 -0.1224 -0.2968
    2PC     H5A 1015   4.598   0.512   6.088 -0.2401  0.8748 -0.9919
    2PC     H5B 1016   4.779   0.508   6.067  0.4281 -1.5679 -0.4370
    2PC     H5C 1017   4.680   0.390   5.978  0.1432  0.2072 -1.0919
    2PC     O33 1018   4.858   0.772   5.415 -0.8521 -0.5191 -0.1842
    2PC     O34 1019   4.797   0.930   5.571 -0.3237  0.1344  0.0404
    2PC     O21 1020   4.376   0.871   5.281  0.1721  0.0300  0.3637
    2PC     C21 1021   4.254   0.825   5.313  0.4022 -0.4010  0.6264
    2PC     O22 1022   4.183   0.880   5.395  0.3261  0.6853 -0.1508
    3OL     C12 1023   4.206   0.709   5.230 -0.1890 -0.0166  0.4210
    3OL     H2R 1024   4.171   0.629   5.296 -0.9789 -0.8580 -0.9758
    3OL     H2S 1025   4.289   0.672   5.168 -0.9098  0.8974 -1.1403
    3OL     C13 1026   4.085   0.752   5.146 -0.0131 -0.5084 -0.0971
    3OL     H3R 1027   4.017   0.793   5.221 -0.6074 -2.0804  0.2688
    3OL     H3S 1028   4.042   0.661   5.104  0.1443 -0.0881 -1.1776
    3OL     C14 1029   4.134   0.845   5.034 -0.2720 -0.0981  0.1248
    3OL     H4R 1030   4.182   0.930   5.083  1.0101 -1.8503  2.1297
    3OL     H4S 1031   4.047   0.882   4.981 -0.4135 -0.9337 -0.2402
    3OL     C15 1032   4.232   0.772   4.941  0.1295  0.4584  0.1064
    3OL     H5R 1033   4.187   0.679   4.906  2.4221 -0.6371 -0.1662
    3OL     H5S 1034   4.325   0.747   4.993  0.2008 -0.0893 -0.2765
    3OL     C16 1035   4.272   0.872   4.832  0.5047  0.0585 -0.1263
    3OL     H6R 1036   4.326   0.955   4.879  0.5805 -0.3440  0.5114
    3OL     H6S 1037   4.184   0.916   4.785  0.4233  2.1015  1.7618
    3OL     C17 1038   4.368   0.799   4.737  0.9519  0.3116  0.1233
    3OL     H7R 1039   4.432   0.744   4.806 -1.9335 -2.8312  0.5599
    3OL     H7S 1040   4.422   0.874   4.680 -0.3900  2.0833  1.0942
    3OL     C18 1041   4.300   0.697   4.643  0.2913  0.0828  0.8383
    3OL     H8R 1042   4.212   0.744   4.600  0.0254 -0.3655  0.8932
    3OL     H8S 1043   4.263   0.608   4.694 -0.5460  0.3941  0.7816
    3OL     C19 1044   4.391   0.644   4.535 -0.3129 -0.3146  0.5209
    3OL     H9R 1045   4.384   0.694   4.439 -0.6944 -3.1079 -1.0027
    3OL    C110 1046   4.458   0.530   4.523 -0.6231 -0.4896  0.4314
    3OL    H10R 1047   4.500   0.499   4.428 -1.3893  0.2063 -0.1498
    3OL    C111 1048   4.488   0.445   4.644  0.0652 -0.3782  0.3466
    3OL    H11R 1049   4.428   0.462   4.733 -1.5576  0.3857 -0.8358
    3OL    H11S 1050   4.591   0.468   4.671 -0.3009 -0.9761  2.4500
    3OL    C112 1051   4.493   0.293   4.620  0.3758 -0.2793 -0.2495
    3OL    H12R 1052   4.537   0.261   4.526 -0.7532 -1.9190 -0.2492
    3OL    H12S 1053   4.389   0.266   4.598  0.1090  0.3121  0.2264
    3OL    C113 1054   4.539   0.208   4.739 -0.4191  0.7276  0.8057
    3OL    H13R 1055   4.475   0.226   4.826 -1.3772 -3.3363  1.1971
    3OL    H13S 1056   4.641   0.240   4.756  0.2675 -1.0193  0.2509
    3OL    C114 1057   4.538   0.060   4.697 -0.1237  0.9652 -0.0466
    3OL    H14R 1058   4.623   0.011   4.745  0.1684  2.5166  1.0992
    3OL    H14S 1059   4.569   0.059   4.592  0.9602  0.1045  0.2608
    3OL    C115 1060   4.416  -0.028   4.728  0.8340 -0.3627  0.0602
    3OL    H15R 1061   4.437  -0.132   4.706  0.1679 -1.0080  2.2215
    3OL    H15S 1062   4.330   0.011   4.672 -0.5647  0.7479  2.8037
    3OL    C116 1063   4.377  -0.027   4.876 -0.0072  0.0068 -0.1557
    3OL    H16R 1064   4.452  -0.085   4.930 -0.3417 -0.8506 -0.5908
    3OL    H16S 1065   4.386   0.079   4.900  5.9597 -0.3409  0.7962
    3OL    C117 1066   4.242  -0.090   4.913  0.0257  0.3259  0.5364
    3OL    H17R 1067   4.153  -0.042   4.871 -1.4071 -2.2101  0.4347
    3OL    H17S 1068   4.234  -0.074   5.020  0.2978  1.5847  0.3878
    3OL    C118 1069   4.241  -0.243   4.897 -0.4942  0.2735  1.0258
    3OL    H18R 1070   4.262  -0.267   4.792  0.5014 -1.1129  1.5128
    3OL    H18S 1071   4.319  -0.294   4.953  0.9501  1.8496  0.5481
    3OL    H18T 1072   4.152  -0.299   4.927  0.6506 -1.5115  1.2500
    1PA    C116 1073   0.486   0.060   3.867  0.1233  0.3212  0.3006
    1PA    H16R 1074   0.416   0.133   3.826  0.0713 -1.2318 -2.7154
    1PA    H16S 1075   0.422  -0.028   3.859 -1.8610  1.7514 -0.4121
    1PA    H16T 1076   0.572   0.058   3.798  1.3222  2.5167  1.6071
    1PA    C115 1077   0.532   0.080   4.012 -0.1377 -0.2597  0.4656
    1PA    H15R 1078   0.458   0.051   4.086  0.7962  0.9205  1.9122
    1PA    H15S 1079   0.622   0.017   4.011  1.4546  1.8843 -0.8951
    1PA    C114 1080   0.559   0.229   4.039  0.4212 -0.2486 -0.1127
    1PA    H14R 1081   0.630   0.264   3.964 -1.1752 -0.6441 -1.8703
    1PA    H14S 1082   0.466   0.285   4.030  1.5324  1.8385  0.6291
    1PA    C113 1083   0.610   0.244   4.183  0.5659  0.7242 -0.2585
    1PA    H13R 1084   0.543   0.191   4.251 -0.6340  0.8337 -1.3193
    1PA    H13S 1085   0.701   0.185   4.200  1.7008  2.5861  0.3921
    1PA    C112 1086   0.622   0.388   4.234  0.0782  0.5133  0.4661
    1PA    H12R 1087   0.693   0.442   4.172 -0.6117  0.8113 -0.0753
    1PA    H12S 1088   0.528   0.445   4.239  0.4631  1.2430 -0.3923
    1PA    C111 1089   0.681   0.397   4.376  0.0227  0.4803  0.4912
    1PA    H11R 1090   0.746   0.313   4.401  0.4044  0.9410  1.0818
    1PA    H11S 1091   0.747   0.482   4.393  0.2626  0.2692  0.6218
    1PA    C110 1092   0.563   0.413   4.472 -0.0018 -0.0275  0.5454
    1PA    H10R 1093   0.503   0.500   4.448 -0.3966 -0.3018  0.5204
    1PA    H10S 1094   0.499   0.324   4.463 -0.2192 -0.0041  1.6746
    1PA     C19 1095   0.611   0.414   4.618  0.1807 -0.1253  0.4872
    1PA     H9R 1096   0.673   0.327   4.638 -0.7348 -0.4190  2.2818
    1PA     H9S 1097   0.670   0.502   4.641  0.9913 -0.9045  1.5120
    1PA     C18 1098   0.493   0.417   4.717 -0.2592 -0.3504 -0.0261
    1PA     H8R 1099   0.433   0.508   4.703 -2.0734 -1.3387  0.9718
    1PA     H8S 1100   0.429   0.330   4.700 -1.1183  0.4552 -1.1506
    1PA     C17 1101   0.539   0.413   4.863  0.3304  0.0160 -0.1997
    1PA     H7R 1102   0.591   0.319   4.882 -0.5552 -0.1061  1.9355
    1PA     H7S 1103   0.618   0.486   4.885 -0.5146  0.5149  1.2984
    1PA     C16 1104   0.425   0.435   4.963  0.4249  0.7270 -0.2429
    1PA     H6R 1105   0.347   0.504   4.929 -0.8987  0.1643  1.5093
    1PA     H6S 1106   0.369   0.342   4.973  1.3980  0.2432  0.8443
    1PA     C15 1107   0.473   0.481   5.101  0.1635  0.1322  0.0470
    1PA     H5R 1108   0.508   0.583   5.091 -0.3452  0.1614 -1.6941
    1PA     H5S 1109   0.382   0.478   5.162 -0.7796 -2.9924 -1.2964
    1PA     C14 1110   0.573   0.385   5.168 -0.3718 -0.3583  0.1485
    1PA     H4R 1111   0.529   0.288   5.191  0.2582 -1.0868 -1.5388
    1PA     H4S 1112   0.662   0.372   5.107  1.5004  0.6908  2.4999
    1PA     C13 1113   0.619   0.440   5.303  0.1271 -0.5255  0.0493
    1PA     H3R 1114   0.728   0.443   5.307  0.2543  2.0453 -2.2451
    1PA     H3S 1115   0.597   0.547   5.311 -1.5939 -0.8336 -0.1196
    1PA     C12 1116   0.563   0.359   5.421 -0.0657  0.1299  0.4119
    1PA     H2R 1117   0.586   0.253   5.415 -0.5713 -0.0161  0.9414
    1PA     H2S 1118   0.619   0.393   5.508 -0.1774  0.8273  0.2187
    2PC     C11 1119   0.416   0.392   5.437 -0.2534  0.1316 -1.1652
    2PC     O12 1120   0.379   0.501   5.474  0.3387  0.1191 -0.5173
    2PC     O11 1121   0.342   0.280   5.426  0.2519 -0.3223 -0.0930
    2PC      C1 1122   0.207   0.282   5.475  0.0377 -0.2266 -0.6829
    2PC      HR 1123   0.194   0.357   5.553  3.0094 -1.2357  0.9528
    2PC      HS 1124   0.142   0.310   5.392 -0.9097  1.4032  0.5556
    2PC      C2 1125   0.172   0.139   5.519  0.1058  0.0372  0.2463
    2PC      HX 1126   0.065   0.135   5.542 -0.4748  1.6822 -1.9072
    2PC      C3 1127   0.256   0.094   5.639 -0.1830 -0.4924  0.2544
    2PC      HA 1128   0.345   0.040   5.605  1.0144  0.8869  1.0692
    2PC      HB 1129   0.292   0.182   5.694  0.8936  0.2088 -1.4685
    2PC     O31 1130   0.182   0.002   5.721 -0.4396  0.1201  0.7125
    2PC     P31 1131   0.250  -0.057   5.854  0.1102 -0.3320  0.2360
    2PC     O32 1132   0.398  -0.097   5.806  0.1372 -0.2141  0.2187
    2PC     C31 1133   0.410  -0.218   5.729 -0.3382 -0.3794  0.4026
    2PC     H1A 1134   0.323  -0.227   5.662 -0.3161 -0.0268  0.3257
    2PC     H1B 1135   0.506  -0.217   5.677  0.0152  0.7416  1.0429
    2PC     C32 1136   0.386  -0.342   5.816  0.0388 -0.3102  0.6050
    2PC     H2A 1137   0.291  -0.328   5.869  0.5087  0.1378  1.3616
    2PC     H2B 1138   0.382  -0.430   5.752  0.0774  0.9641 -1.2371
    2PC     N31 1139   0.488  -0.374   5.922  0.5081 -0.0003  0.2541
    2PC     C33 1140   0.612  -0.429   5.859  0.4812 -0.4261  0.5675
    2PC     H3A 1141   0.661  -0.506   5.919 -1.7282 -0.6536  2.2039
    2PC     H3B 1142   0.583  -0.485   5.770 -1.5051 -1.2789  1.6931
    2PC     H3C 1143   0.687  -0.353   5.836  0.0747  0.0597  0.8203
    2PC     C34 1144   0.510  -0.250   6.003  0.3843 -0.0031  0.2927
    2PC     H4A 1145   0.582  -0.281   6.080  0.2370  2.3317  1.4553
    2PC     H4B 1146   0.562  -0.165   5.959  4.5861 -1.8362  1.1710
    2PC     H4C 1147   0.411  -0.228   6.043  1.0630  1.3776  1.3034
    2PC     C35 1148   0.443  -0.480   6.018 -0.2599  0.0457 -0.0430
    2PC     H5A 1149   0.529  -0.513   6.077  0.8046 -0.8142 -1.9774
    2PC     H5B 1150   0.408  -0.570   5.967 -0.1218 -0.6057  0.9751
    2PC     H5C 1151   0.373  -0.421   6.077  0.4665  3.3113 -2.2044
    2PC     O33 1152   0.261   0.057   5.949  0.2986  0.5012 -0.7612
    2PC     O34 1153   0.175  -0.168   5.915 -0.1176 -0.0513  0.4699
    2PC     O21 1154   0.196   0.051   5.407 -0.6084 -0.0364  0.1458
    2PC     C21 1155   0.124  -0.061   5.392  0.0490 -0.4715  0.2401
    2PC     O22 1156   0.042  -0.096   5.474 -0.0117  0.0464  0.4016
    3OL     C12 1157   0.152  -0.131   5.261  0.3858  0.1787 -0.0387
    3OL     H2R 1158   0.232  -0.203   5.278 -1.9057 -2.1380  1.8407
    3OL     H2S 1159   0.172  -0.058   5.182 -0.1549  0.1720 -0.1818
    3OL     C13 1160   0.031  -0.204   5.200  0.1216  0.2020  0.4563
    3OL     H3R 1161  -0.048  -0.129   5.190  0.7259  0.8064  0.1448
    3OL     H3S 1162  -0.015  -0.274   5.271  0.3132 -1.1814 -0.7509
    3OL     C14 1163   0.058  -0.273   5.066  0.4418  0.3613  0.4370
    3OL     H4R 1164   0.132  -0.352   5.082 -0.4437 -0.5331  0.2393
    3OL     H4S 1165   0.098  -0.200   4.996  1.0352 -0.2569  0.1252
    3OL     C15 1166  -0.068  -0.338   5.007  0.1418  1.0017  0.3554
    3OL     H5R 1167  -0.153  -0.270   5.005  0.2285  1.1137  0.4564
    3OL     H5S 1168  -0.100  -0.426   5.063 -0.8204  1.1094 -0.0034
    3OL     C16 1169  -0.042  -0.397   4.867 -0.7805  0.4901  0.3919
    3OL     H6R 1170   0.037  -0.472   4.860 -0.9786  0.1411  1.7158
    3OL     H6S 1171  -0.010  -0.311   4.808 -3.3754  0.1167 -1.7700
    3OL     C17 1172  -0.165  -0.463   4.804 -0.4963 -0.0891  0.4394
    3OL     H7R 1173  -0.246  -0.390   4.807  0.1814  0.6314  1.8422
    3OL     H7S 1174  -0.193  -0.550   4.865 -1.8466  0.4165  0.5697
    3OL     C18 1175  -0.127  -0.516   4.665 -0.2618  0.4532  0.2944
    3OL     H8R 1176  -0.068  -0.607   4.681 -1.6681 -1.0970 -2.5201
    3OL     H8S 1177  -0.068  -0.440   4.614  1.3108 -0.9094 -0.0117
    3OL     C19 1178  -0.240  -0.550   4.571  0.1479  0.0854 -0.0714
    3OL     H9R 1179  -0.329  -0.490   4.590  0.3252  0.3374 -0.0283
    3OL    C110 1180  -0.232  -0.628   4.465  0.2228 -0.1938  0.1373
    3OL    H10R 1181  -0.324  -0.642   4.409 -0.6759  0.5616  1.3788
    3OL    C111 1182  -0.102  -0.689   4.418 -0.1015 -0.2111 -0.7655
    3OL    H11R 1183  -0.078  -0.761   4.497 -0.2297 -0.0022 -0.5347
    3OL    H11S 1184  -0.037  -0.603   4.401 -2.7296  2.2888  0.8775
    3OL    C112 1185  -0.122  -0.784   4.300 -0.3794 -0.7334 -0.3061
    3OL    H12R 1186  -0.105  -0.727   4.208 -0.1357 -0.4066 -0.0593
    3OL    H12S 1187  -0.226  -0.817   4.291  0.0767 -1.7917 -2.5454
    3OL    C113 1188  -0.027  -0.905   4.300  0.5244 -0.0465  0.8168
    3OL    H13R 1189  -0.011  -0.941   4.402  0.5614  0.0150  0.8321
    3OL    H13S 1190   0.065  -0.862   4.261 -0.3327  0.7163 -0.4866
    3OL    C114 1191  -0.066  -1.010   4.194  0.6181  0.4385  0.2991
    3OL    H14R 1192  -0.066  -0.957   4.098  0.6231 -1.2076 -0.6520
    3OL    H14S 1193  -0.170  -1.028   4.220  0.3432  1.8509  0.2929
    3OL    C115 1194   0.036  -1.124   4.206  0.1357  0.0407  0.6678
    3OL    H15R 1195   0.044  -1.162   4.308 -0.2934  0.9819  1.0623
    3OL    H15S 1196   0.138  -1.090   4.183  0.2786  0.1475  1.4348
    3OL    C116 1197   0.007  -1.243   4.114 -0.0160  0.2519  0.4428
    3OL    H16R 1198  -0.101  -1.259   4.116  0.3312 -2.5268  0.8042
    3OL    H16S 1199   0.048  -1.334   4.158 -0.3556 -0.3174 -0.3894
    3OL    C117 1200   0.074  -1.224   3.977  0.1249  0.1385  0.4961
    3OL    H17R 1201   0.174  -1.191   4.004  0.6759 -0.4316 -0.7629
    3OL    H17S 1202   0.032  -1.142   3.918 -0.3173  0.0159  0.6309
    3OL    C118 1203   0.065  -1.361   3.908  0.3435 -0.1769  1.0914
    3OL    H18R 1204   0.083  -1.357   3.801  2.8417  1.5983  1.4868
    3OL    H18S 1205  -0.026  -1.418   3.930  0.7942 -0.6854  1.7032
    3OL    H18T 1206   0.153  -1.419   3.940  1.1946 -0.4379 -1.4950
    1PA    C116 1207   3.716   5.504   3.316  0.0636  0.0025 -0.0107
    1PA    H16R 1208   3.709   5.404   3.273  1.4873  0.0654 -0.4403
    1PA    H16S 1209   3.724   5.581   3.239  2.6129  0.1960  0.3474
    1PA    H16T 1210   3.627   5.522   3.377  0.7817 -2.2352  1.8525
    1PA    C115 1211   3.838   5.521   3.408  0.1816  0.3142 -0.2213
    1PA    H15R 1212   3.931   5.516   3.351  0.1717  0.1789 -0.2261
    1PA    H15S 1213   3.838   5.624   3.442 -0.7481 -0.4205  2.2100
    1PA    C114 1214   3.824   5.415   3.519  0.1067  0.1909 -0.3468
    1PA    H14R 1215   3.745   5.447   3.588  1.0412  0.1428  0.7717
    1PA    H14S 1216   3.793   5.317   3.484  0.7211  0.6510 -2.3241
    1PA    C113 1217   3.951   5.403   3.604 -0.2932  0.1984  0.2616
    1PA    H13R 1218   4.023   5.358   3.535  0.8276  2.3625 -0.0631
    1PA    H13S 1219   3.999   5.500   3.620 -1.6215  0.9051  0.1446
    1PA    C112 1220   3.920   5.328   3.734  0.2626  0.1985  0.3955
    1PA    H12R 1221   3.838   5.386   3.778 -0.3658  1.2957 -2.0789
    1PA    H12S 1222   3.874   5.234   3.705 -1.7896  1.8572 -2.2248
    1PA    C111 1223   4.052   5.315   3.811  0.9769  0.5577 -0.7451
    1PA    H11R 1224   4.120   5.242   3.766 -0.0938 -1.3309  0.5858
    1PA    H11S 1225   4.109   5.408   3.810  0.7022  0.8118  1.5905
    1PA    C110 1226   4.025   5.258   3.951 -0.4375  0.9199 -0.8585
    1PA    H10R 1227   3.947   5.318   3.998 -0.6616 -0.1413  0.1820
    1PA    H10S 1228   3.997   5.152   3.945 -0.1067  0.4034  3.6138
    1PA     C19 1229   4.158   5.253   4.027 -0.8071 -0.1260 -0.2488
    1PA     H9R 1230   4.239   5.204   3.971 -0.7873 -1.3860  0.8414
    1PA     H9S 1231   4.176   5.361   4.029 -1.7445  0.0486 -0.7460
    1PA     C18 1232   4.140   5.186   4.163 -0.2100  0.2829  0.0365
    1PA     H8R 1233   4.057   5.231   4.218 -0.6446 -4.1268  3.5649
    1PA     H8S 1234   4.116   5.080   4.150  1.5919 -0.0035 -1.3137
    1PA     C17 1235   4.277   5.193   4.233 -0.3062 -0.2278  0.2815
    1PA     H7R 1236   4.355   5.168   4.161  0.2583 -0.4623  0.9705
    1PA     H7S 1237   4.289   5.288   4.285 -1.6101 -0.2593  0.6824
    1PA     C16 1238   4.280   5.092   4.348 -0.1512 -0.2291  0.2758
    1PA     H6R 1239   4.196   5.112   4.414  1.6790  0.1320  2.6336
    1PA     H6S 1240   4.275   4.991   4.305 -0.4886 -0.2612  0.3879
    1PA     C15 1241   4.404   5.101   4.438 -0.1487 -0.0120  0.2508
    1PA     H5R 1242   4.494   5.088   4.378 -1.4751  2.0332 -2.3438
    1PA     H5S 1243   4.421   5.202   4.474 -2.5872 -0.0196  1.6421
    1PA     C14 1244   4.408   4.998   4.552  0.3622 -0.0430  0.2045
    1PA     H4R 1245   4.391   4.898   4.512  1.2647  0.6379 -2.0459
    1PA     H4S 1246   4.512   4.990   4.587  0.4291  1.5197  0.4436
    1PA     C13 1247   4.310   5.041   4.662 -0.0292  0.5610 -0.3775
    1PA     H3R 1248   4.335   5.145   4.687 -0.9568  1.5546 -3.1451
    1PA     H3S 1249   4.207   5.035   4.627 -0.2670  0.7621  0.2774
    1PA     C12 1250   4.321   4.952   4.786  0.3058  0.6324 -0.3543
    1PA     H2R 1251   4.278   4.855   4.759 -0.9109  1.0750 -0.0280
    1PA     H2S 1252   4.425   4.936   4.817 -0.1107 -0.6775  0.4616
    2PC     C11 1253   4.238   5.016   4.894  0.4443 -0.3962  0.3785
    2PC     O12 1254   4.117   5.014   4.897  0.4419 -0.9765  0.0438
    2PC     O11 1255   4.313   5.081   4.985  0.5373  0.1564 -0.0894
    2PC      C1 1256   4.251   5.177   5.072  0.0121  0.3253 -0.6421
    2PC      HR 1257   4.214   5.254   5.003  0.5568  0.6146 -0.6179
    2PC      HS 1258   4.168   5.137   5.131  0.6484  2.8672  2.2126
    2PC      C2 1259   4.363   5.235   5.159 -0.1441 -0.2265 -0.0661
    2PC      HX 1260   4.420   5.151   5.200  1.0286  0.5207 -0.1000
    2PC      C3 1261   4.307   5.320   5.274  0.0666 -0.3358  0.1182
    2PC      HA 1262   4.387   5.378   5.320 -1.7957  1.9234  0.6902
    2PC      HB 1263   4.232   5.391   5.237 -0.0349 -0.7080 -0.4011
    2PC     O31 1264   4.231   5.238   5.364  0.1458 -0.0373  0.4602
    2PC     P31 1265   4.292   5.194   5.506  0.5806 -0.2641  0.2073
    2PC     O32 1266   4.400   5.088   5.455  0.4988 -0.2620  0.0237
    2PC     C31 1267   4.339   4.960   5.432  0.0008  0.0329 -0.3156
    2PC     H1A 1268   4.286   4.906   5.511  0.1734 -1.3918 -1.1512
    2PC     H1B 1269   4.261   4.968   5.356 -0.6642 -0.9286  0.2468
    2PC     C32 1270   4.440   4.858   5.378  0.0118 -0.2504  0.2288
    2PC     H2A 1271   4.517   4.914   5.326 -1.7933 -1.8160 -4.7207
    2PC     H2B 1272   4.485   4.803   5.461 -1.7515 -0.7181  0.9193
    2PC     N31 1273   4.388   4.751   5.286 -0.0621  0.1542 -0.2028
    2PC     C33 1274   4.333   4.812   5.161  0.3982  0.7221 -0.1337
    2PC     H3A 1275   4.239   4.866   5.178 -1.2223 -1.0732 -2.5968
    2PC     H3B 1276   4.412   4.873   5.117  0.7253  1.1713  1.0606
    2PC     H3C 1277   4.313   4.735   5.085 -2.0704  0.2904  0.8529
    2PC     C34 1278   4.502   4.658   5.258 -0.0822  0.1094 -0.1352
    2PC     H4A 1279   4.452   4.570   5.218 -2.5194  1.0552  0.6486
    2PC     H4B 1280   4.568   4.712   5.190 -0.1955 -1.1697 -1.3126
    2PC     H4C 1281   4.542   4.634   5.356 -2.0006 -1.4296  0.3316
    2PC     C35 1282   4.289   4.665   5.359  0.1543  0.2511  0.2067
    2PC     H5A 1283   4.340   4.631   5.449  3.2524  0.9797 -1.1467
    2PC     H5B 1284   4.249   4.592   5.289 -0.3708  2.1277 -1.5434
    2PC     H5C 1285   4.202   4.722   5.393  0.2962  2.0454 -2.1554
    2PC     O33 1286   4.342   5.302   5.594  0.0618  0.4720 -0.3735
    2PC     O34 1287   4.185   5.128   5.584  0.0686  0.4252  0.1097
    2PC     O21 1288   4.454   5.314   5.080 -0.3751 -0.3829 -0.4950
    2PC     C21 1289   4.553   5.252   5.014  0.3704  0.1371  0.0997
    2PC     O22 1290   4.566   5.131   5.022 -0.4977  0.0417  0.1922
    3OL     C12 1291   4.624   5.338   4.913 -0.0203  0.1019 -0.2106
    3OL     H2R 1292   4.731   5.314   4.912 -0.6276 -3.0644 -0.1527
    3OL     H2S 1293   4.628   5.439   4.953  1.4903  0.5320 -1.3514
    3OL     C13 1294   4.559   5.329   4.774  0.2444 -0.4506 -0.3049
    3OL     H3R 1295   4.454   5.360   4.786  0.5924  0.7112 -0.0725
    3OL     H3S 1296   4.575   5.232   4.728  1.3564 -0.9562  1.0681
    3OL     C14 1297   4.624   5.428   4.676 -0.3405  0.1149 -0.1329
    3OL     H4R 1298   4.728   5.406   4.652  0.1827  1.1589  1.0399
    3OL     H4S 1299   4.627   5.531   4.714  0.0994  0.5179 -1.2467
    3OL     C15 1300   4.557   5.438   4.539 -0.1288 -0.2343 -0.2638
    3OL     H5R 1301   4.454   5.466   4.564 -0.1048 -0.5271  0.1667
    3OL     H5S 1302   4.561   5.343   4.485  0.6699 -0.1323 -0.4019
    3OL     C16 1303   4.620   5.546   4.449 -0.0250  0.4006  0.5581
    3OL     H6R 1304   4.727   5.530   4.431 -0.1458  1.1714 -0.9220
    3OL     H6S 1305   4.614   5.650   4.482  0.9831  0.7370 -0.2537
    3OL     C17 1306   4.558   5.543   4.309  0.1789 -0.4381  0.4809
    3OL     H7R 1307   4.543   5.445   4.263  1.9983 -0.9411  0.8627
    3OL     H7S 1308   4.630   5.597   4.248  0.9854 -0.3693  1.4782
    3OL     C18 1309   4.428   5.624   4.314  0.1744 -0.3742 -0.5062
    3OL     H8R 1310   4.459   5.726   4.338 -0.3949 -0.5250  0.9599
    3OL     H8S 1311   4.363   5.584   4.392  1.2527 -0.1458  0.5329
    3OL     C19 1312   4.354   5.616   4.182 -0.0714 -0.2851 -0.3737
    3OL     H9R 1313   4.314   5.516   4.165 -2.2065  0.5625 -0.5582
    3OL    C110 1314   4.337   5.712   4.093  0.1424 -0.4466 -0.5869
    3OL    H10R 1315   4.281   5.682   4.005 -0.8869  0.4887 -0.2582
    3OL    C111 1316   4.369   5.859   4.090  0.0161 -0.4125 -0.2487
    3OL    H11R 1317   4.424   5.894   4.178  2.4670 -1.7970 -1.1218
    3OL    H11S 1318   4.267   5.898   4.080 -0.8740 -2.3199  0.8235
    3OL    C112 1319   4.447   5.907   3.967 -0.0786 -0.2648 -0.2518
    3OL    H12R 1320   4.471   6.012   3.981  1.0072 -0.6992  1.3815
    3OL    H12S 1321   4.394   5.899   3.872  0.9321 -1.8287 -0.7249
    3OL    C113 1322   4.578   5.828   3.955 -0.1250 -0.3844  0.0423
    3OL    H13R 1323   4.562   5.720   3.943  0.0750 -0.4763  0.5742
    3OL    H13S 1324   4.635   5.829   4.049 -1.5747  1.6848  0.9651
    3OL    C114 1325   4.672   5.868   3.840  0.1618  0.3331  0.5177
    3OL    H14R 1326   4.677   5.976   3.852 -0.6667  0.5100 -0.5721
    3OL    H14S 1327   4.627   5.842   3.744 -0.7808  2.1075  0.4374
    3OL    C115 1328   4.808   5.799   3.854  0.2441  0.4574  0.3201
    3OL    H15R 1329   4.795   5.691   3.855  0.6174  0.4134  0.4560
    3OL    H15S 1330   4.852   5.833   3.948 -2.6065  0.0044  1.9331
    3OL    C116 1331   4.905   5.843   3.743  0.5136  0.5382  0.5854
    3OL    H16R 1332   4.920   5.951   3.732  2.2533  0.1725 -1.3716
    3OL    H16S 1333   4.854   5.806   3.654 -1.9400 -0.4147  2.2763
    3OL    C117 1334   5.043   5.776   3.753  0.0768 -0.5926 -0.6209
    3OL    H17R 1335   5.099   5.789   3.661  0.0229 -0.9360 -0.7038
    3OL    H17S 1336   5.021   5.670   3.769  0.5027 -0.4713  0.9332
    3OL    C118 1337   5.120   5.830   3.874 -0.8109  0.2297 -0.4067
    3OL    H18R 1338   5.213   5.774   3.879 -0.0376  1.5939  2.2513
    3OL    H18S 1339   5.064   5.805   3.964  1.4939  2.3992  1.8135
    3OL    H18T 1340   5.137   5.938   3.874  0.4432  0.0664  1.0889
    1PA    C116 1341   0.495   4.447   3.904 -0.5363  0.0531 -0.2610
    1PA    H16R 1342   0.395   4.452   3.949 -0.0948  1.8004  0.6001
    1PA    H16S 1343   0.568   4.436   3.983 -1.2986 -0.3004  0.4077
    1PA    H16T 1344   0.495   4.363   3.834 -1.6118 -1.8763  1.9375
    1PA    C115 1345   0.507   4.577   3.823  0.5106 -0.4083 -0.8622
    1PA    H15R 1346   0.600   4.565   3.767  1.9622  0.7745  1.1836
    1PA    H15S 1347   0.422   4.594   3.757  0.7064  2.4085 -0.5092
    1PA    C114 1348   0.529   4.702   3.909  0.4011 -0.4797 -0.7303
    1PA    H14R 1349   0.464   4.685   3.995  0.6390  0.8540 -0.2669
    1PA    H14S 1350   0.633   4.719   3.938  0.3436  1.3237 -1.4628
    1PA    C113 1351   0.471   4.819   3.829  0.5002  0.0870  0.0172
    1PA    H13R 1352   0.546   4.852   3.756 -0.0991 -1.7567 -1.5139
    1PA    H13S 1353   0.382   4.790   3.773  0.0580  3.0883 -1.0175
    1PA    C112 1354   0.438   4.939   3.919  0.1589  0.2395 -0.3070
    1PA    H12R 1355   0.402   5.022   3.858 -0.7337 -0.0246 -0.1589
    1PA    H12S 1356   0.352   4.903   3.976  0.9328 -0.3105  0.5411
    1PA    C111 1357   0.556   4.988   4.004 -0.0074  0.1364 -0.0129
    1PA    H11R 1358   0.600   4.912   4.068 -0.4451 -1.3288 -1.3728
    1PA    H11S 1359   0.633   5.029   3.938  0.1003 -0.9714 -0.5953
    1PA    C110 1360   0.500   5.097   4.096  0.1459  0.1093  0.1114
    1PA    H10R 1361   0.449   5.180   4.047  0.7835  1.1679  1.1803
    1PA    H10S 1362   0.427   5.045   4.159  0.7296 -1.6818 -0.6289
    1PA     C19 1363   0.609   5.172   4.175  0.3605  0.5423 -0.5875
    1PA     H9R 1364   0.683   5.104   4.218  0.9022 -0.3237 -2.7463
    1PA     H9S 1365   0.671   5.232   4.107  1.1724 -0.4821 -0.7781
    1PA     C18 1366   0.555   5.268   4.281  0.8076  0.0537  0.0896
    1PA     H8R 1367   0.640   5.321   4.324  0.3938 -0.0354  1.0398
    1PA     H8S 1368   0.494   5.343   4.230 -1.6587 -0.4885  2.0464
    1PA     C17 1369   0.491   5.200   4.403  0.1857  0.2671 -0.1101
    1PA     H7R 1370   0.386   5.184   4.379  0.7661  0.8087 -3.3959
    1PA     H7S 1371   0.536   5.102   4.421  3.2590  1.5644 -0.0720
    1PA     C16 1372   0.500   5.283   4.532 -0.0880 -0.3175  0.2887
    1PA     H6R 1373   0.493   5.213   4.616 -0.8139  0.2234  0.6850
    1PA     H6S 1374   0.592   5.341   4.544  1.1265 -1.8943 -0.9636
    1PA     C15 1375   0.372   5.368   4.534  0.4824  0.5548  0.2819
    1PA     H5R 1376   0.354   5.412   4.436 -0.9562 -0.9684 -0.1729
    1PA     H5S 1377   0.283   5.309   4.558 -0.8659  2.7237  0.8918
    1PA     C14 1378   0.376   5.471   4.648 -0.3435  0.1805  0.6562
    1PA     H4R 1379   0.473   5.521   4.639 -0.4677  0.5591  1.3403
    1PA     H4S 1380   0.302   5.549   4.630 -1.6381 -0.7866  1.6030
    1PA     C13 1381   0.351   5.412   4.787 -0.5722 -0.3710  0.3868
    1PA     H3R 1382   0.257   5.360   4.806  0.7175 -2.2150  2.1597
    1PA     H3S 1383   0.435   5.346   4.812 -0.1464 -0.4667 -1.2249
    1PA     C12 1384   0.340   5.528   4.887  0.3625  0.0014  0.0644
    1PA     H2R 1385   0.430   5.589   4.871  0.0541  0.1973 -1.0170
    1PA     H2S 1386   0.261   5.597   4.857 -0.1309  0.1035  1.5393
    2PC     C11 1387   0.324   5.483   5.030  0.1077  0.2429  0.1135
    2PC     O12 1388   0.363   5.373   5.063  0.3892  0.2193 -0.2841
    2PC     O11 1389   0.268   5.578   5.105  0.0464  0.3534 -0.0714
    2PC      C1 1390   0.304   5.604   5.242 -0.4418 -0.2240  0.1735
    2PC      HR 1391   0.247   5.685   5.288  0.1044  0.3246 -0.0961
    2PC      HS 1392   0.279   5.515   5.300  2.6142 -0.0805  1.9350
    2PC      C2 1393   0.455   5.623   5.265 -0.5199  0.3943  0.2038
    2PC      HX 1394   0.506   5.532   5.235 -0.3276  0.3680  0.6012
    2PC      C3 1395   0.488   5.650   5.413  0.1557 -0.1891  0.1635
    2PC      HA 1396   0.444   5.747   5.438  1.7504  0.3954  0.8737
    2PC      HB 1397   0.438   5.579   5.479  1.0761 -1.7777 -0.7903
    2PC     O31 1398   0.630   5.661   5.432  0.1553  0.0930  0.0068
    2PC     P31 1399   0.678   5.721   5.572 -0.1263  0.2125  0.0525
    2PC     O32 1400   0.807   5.798   5.516  0.0452 -0.2068 -0.1374
    2PC     C31 1401   0.905   5.864   5.599  0.6839 -1.0771 -0.1856
    2PC     H1A 1402   0.849   5.937   5.659 -1.1137 -0.1872 -2.7495
    2PC     H1B 1403   0.963   5.784   5.645  0.3001 -0.8541  0.7083
    2PC     C32 1404   0.996   5.943   5.503 -0.6522  0.6425 -0.1017
    2PC     H2A 1405   1.054   5.874   5.441 -2.2415 -2.1245  1.3134
    2PC     H2B 1406   0.932   6.003   5.438  0.2256  2.7948  0.9291
    2PC     N31 1407   1.103   6.033   5.556 -0.0557  0.0253 -0.2482
    2PC     C33 1408   1.051   6.159   5.618 -0.0887  0.1301 -0.4901
    2PC     H3A 1409   1.013   6.133   5.717 -0.5739 -1.4439 -1.0533
    2PC     H3B 1410   1.133   6.229   5.629  0.5056 -0.5636 -0.4130
    2PC     H3C 1411   0.973   6.202   5.554 -0.4652  0.1331 -0.0334
    2PC     C34 1412   1.204   5.963   5.643 -0.3599  0.2066  0.2486
    2PC     H4A 1413   1.159   5.892   5.713 -1.4636  1.5475  0.9821
    2PC     H4B 1414   1.276   5.913   5.579  0.3769  2.0162 -0.4029
    2PC     H4C 1415   1.251   6.044   5.700 -0.9703  1.9406 -1.5669
    2PC     C35 1416   1.181   6.068   5.433  0.1779 -0.3055 -0.1967
    2PC     H5A 1417   1.240   6.158   5.451  0.7072 -0.4287 -1.1949
    2PC     H5B 1418   1.105   6.080   5.355 -0.3514 -1.0076  0.2008
    2PC     H5C 1419   1.245   5.983   5.408 -0.0705 -1.1979  1.9942
    2PC     O33 1420   0.588   5.815   5.643  0.4608  0.5531  0.3609
    2PC     O34 1421   0.716   5.619   5.673  0.2034  0.0417 -0.2405
    2PC     O21 1422   0.500   5.725   5.175 -0.0612  0.1719  0.1781
    2PC     C21 1423   0.457   5.852   5.183 -0.0072  0.2189 -0.2531
    2PC     O22 1424   0.371   5.898   5.256  0.0885 -0.1514  0.0921
    3OL     C12 1425   0.529   5.954   5.099  0.6293 -0.0724 -0.0638
    3OL     H2R 1426   0.638   5.946   5.108  1.0119  1.9315 -1.8486
    3OL     H2S 1427   0.498   6.051   5.137 -0.7625 -0.8696  0.8899
    3OL     C13 1428   0.511   5.941   4.947 -0.2183  0.1275  0.0141
    3OL     H3R 1429   0.528   5.836   4.921  1.0818  0.4560 -0.5773
    3OL     H3S 1430   0.577   6.003   4.886  0.6764 -0.3370  0.4884
    3OL     C14 1431   0.370   5.978   4.901 -0.1469  0.4282  0.0346
    3OL     H4R 1432   0.355   6.077   4.945 -0.0152  0.9647 -1.0787
    3OL     H4S 1433   0.294   5.916   4.949  0.3510  0.3269  0.7083
    3OL     C15 1434   0.352   5.978   4.748  0.3590 -0.1334 -0.0258
    3OL     H5R 1435   0.430   6.032   4.694 -0.8754  1.2280 -0.4992
    3OL     H5S 1436   0.257   6.028   4.731  0.2145 -0.5872 -0.5802
    3OL     C16 1437   0.324   5.841   4.684 -0.3749  0.0818 -0.1766
    3OL     H6R 1438   0.248   5.793   4.747  0.3135 -2.3015 -1.0458
    3OL     H6S 1439   0.411   5.776   4.669  0.6830  1.6452 -1.0916
    3OL     C17 1440   0.251   5.843   4.549 -0.3619  0.4527 -0.1774
    3OL     H7R 1441   0.149   5.877   4.566 -0.3141  0.5420 -0.0587
    3OL     H7S 1442   0.242   5.744   4.505 -1.7053  0.6127 -0.3109
    3OL     C18 1443   0.320   5.932   4.445 -0.2457  0.7137  0.1187
    3OL     H8R 1444   0.412   5.884   4.413  0.2098  1.7986 -0.2573
    3OL     H8S 1445   0.347   6.031   4.482 -1.4383  1.2139 -0.2957
    3OL     C19 1446   0.223   5.938   4.329 -0.0766  0.0074 -0.0679
    3OL     H9R 1447   0.160   5.850   4.323 -1.2690  0.8662 -0.4306
    3OL    C110 1448   0.202   6.040   4.247  0.2991  0.4994  0.4306
    3OL    H10R 1449   0.142   6.023   4.158  1.9024  1.0509 -0.8074
    3OL    C111 1450   0.276   6.171   4.246 -0.0405  0.6926 -0.0578
    3OL    H11R 1451   0.363   6.175   4.313 -0.3973 -0.6387  0.5271
    3OL    H11S 1452   0.210   6.251   4.280  0.0537  1.1233 -0.8706
    3OL    C112 1453   0.330   6.201   4.106 -0.5570  0.4499 -0.3111
    3OL    H12R 1454   0.383   6.296   4.094  1.1204 -0.4727 -0.4477
    3OL    H12S 1455   0.249   6.207   4.033  1.9894  1.1500 -3.3125
    3OL    C113 1456   0.446   6.109   4.063 -0.4529  0.4881 -0.1112
    3OL    H13R 1457   0.425   6.008   4.096 -2.4901  1.1003  0.6316
    3OL    H13S 1458   0.543   6.139   4.104 -0.1728 -0.0300 -0.3968
    3OL    C114 1459   0.457   6.111   3.910 -0.0330 -0.4703 -0.0932
    3OL    H14R 1460   0.492   6.213   3.893  2.0697 -0.9794  0.7819
    3OL    H14S 1461   0.358   6.084   3.873 -0.3542 -0.2848  0.6167
    3OL    C115 1462   0.557   6.006   3.859 -0.1812 -0.5597 -0.2016
    3OL    H15R 1463   0.520   5.915   3.907  1.4658 -1.1994 -0.0817
    3OL    H15S 1464   0.659   6.018   3.896 -0.4971 -2.3387  1.3875
    3OL    C116 1465   0.554   5.987   3.707 -0.3686 -0.8542 -0.1616
    3OL    H16R 1466   0.598   6.078   3.665  0.9312 -1.3898 -0.0238
    3OL    H16S 1467   0.450   5.976   3.676 -0.7335 -0.0880  0.7226
    3OL    C117 1468   0.639   5.868   3.659  0.0984 -0.7994  0.5157
    3OL    H17R 1469   0.601   5.773   3.696 -0.4382 -0.5757  0.5449
    3OL    H17S 1470   0.738   5.879   3.704  1.1622 -0.3531 -1.7555
    3OL    C118 1471   0.631   5.863   3.506 -0.1759  0.1819  0.4908
    3OL    H18R 1472   0.527   5.848   3.476 -0.6401 -0.2553  2.2309
    3OL    H18S 1473   0.687   5.777   3.469 -0.2120  0.9135 -1.4161
    3OL    H18T 1474   0.661   5.955   3.455  2.2181 -1.5432 -1.4881
    1PA    C116 1475   0.728   1.049   3.648 -0.4283  0.1334 -0.5447
    1PA    H16R 1476   0.663   1.131   3.618 -1.3971 -0.7695 -0.9920
    1PA    H16S 1477   0.818   1.053   3.586  1.1826 -0.3448  1.6417
    1PA    H16T 1478   0.758   1.069   3.751 -0.2684  0.5403 -0.6709
    1PA    C115 1479   0.670   0.906   3.640 -0.2546  0.0339 -0.0535
    1PA    H15R 1480   0.590   0.907   3.714  1.1218 -1.6963  1.5455
    1PA    H15S 1481   0.609   0.884   3.553 -0.1827 -1.4629  0.2554
    1PA    C114 1482   0.775   0.799   3.670 -0.3280  0.1526  0.6422
    1PA    H14R 1483   0.724   0.702   3.668 -2.2310  1.1275  0.4434
    1PA    H14S 1484   0.841   0.806   3.583 -1.3361 -0.4558 -0.1874
    1PA    C113 1485   0.850   0.811   3.804  0.6584 -0.4220  0.1554
    1PA    H13R 1486   0.937   0.745   3.804 -1.3888 -3.3422  1.5181
    1PA    H13S 1487   0.879   0.916   3.814 -2.1089  0.5703 -1.1742
    1PA    C112 1488   0.754   0.769   3.916  0.5299 -0.3829  0.0598
    1PA    H12R 1489   0.664   0.830   3.901  0.2535 -0.1592  2.2496
    1PA    H12S 1490   0.723   0.668   3.892 -2.0467  0.4143 -0.2848
    1PA    C111 1491   0.811   0.787   4.057 -0.3245 -0.0531  0.3730
    1PA    H11R 1492   0.904   0.732   4.075  0.9517  2.4242  2.0659
    1PA    H11S 1493   0.843   0.890   4.076  0.7236 -0.4324  0.7180
    1PA    C110 1494   0.703   0.760   4.162  0.0038 -0.2394  0.6642
    1PA    H10R 1495   0.620   0.830   4.147 -2.2191 -3.0191 -1.1113
    1PA    H10S 1496   0.658   0.661   4.148  0.9510 -0.4354 -1.2209
    1PA     C19 1497   0.760   0.783   4.303  0.4214  0.5521  0.3663
    1PA     H9R 1498   0.847   0.726   4.334  2.3237  2.5960 -0.8665
    1PA     H9S 1499   0.801   0.885   4.306 -2.1952  1.7690 -1.4319
    1PA     C18 1500   0.646   0.779   4.405  0.3188 -0.1221  0.2252
    1PA     H8R 1501   0.566   0.843   4.369  1.8477  1.1283 -1.0619
    1PA     H8S 1502   0.612   0.675   4.411  2.0478 -0.7025  0.4122
    1PA     C17 1503   0.684   0.826   4.546 -0.1085  0.3784  0.1771
    1PA     H7R 1504   0.776   0.777   4.580  0.2069  0.2356 -0.8526
    1PA     H7S 1505   0.720   0.928   4.532  0.1086  0.0446 -1.9930
    1PA     C16 1506   0.569   0.811   4.647 -0.1962  0.4811  0.0923
    1PA     H6R 1507   0.486   0.874   4.614  0.4161  1.1367 -0.2349
    1PA     H6S 1508   0.528   0.710   4.645  0.1159  0.3378 -2.0915
    1PA     C15 1509   0.607   0.843   4.792 -0.0511  0.1380  0.1326
    1PA     H5R 1510   0.676   0.772   4.837 -0.5454  0.9904  2.3576
    1PA     H5S 1511   0.663   0.937   4.798  0.2754 -0.0939  0.7237
    1PA     C14 1512   0.477   0.850   4.873 -0.0688 -0.0613  0.1207
    1PA     H4R 1513   0.414   0.929   4.833  0.4212 -0.1500 -0.8346
    1PA     H4S 1514   0.429   0.753   4.857  0.0656 -0.3580  1.3725
    1PA     C13 1515   0.514   0.882   5.019  0.6333  0.1378 -0.0972
    1PA     H3R 1516   0.568   0.800   5.067 -1.2053  0.6415  3.1231
    1PA     H3S 1517   0.566   0.977   5.022  0.7450  0.0455  2.3714
    1PA     C12 1518   0.386   0.900   5.102  0.3264 -0.1096 -0.5083
    1PA     H2R 1519   0.307   0.940   5.039  0.9981  2.4115  0.1474
    1PA     H2S 1520   0.343   0.806   5.138  1.0320  0.9609  3.6330
    2PC     C11 1521   0.401   0.990   5.222  0.2041 -0.2582 -0.3809
    2PC     O12 1522   0.481   0.972   5.312 -0.0830 -0.2698 -0.1252
    2PC     O11 1523   0.326   1.101   5.212 -0.0919 -0.4591 -0.3922
    2PC      C1 1524   0.334   1.187   5.327  0.5241 -0.3508 -0.5146
    2PC      HR 1525   0.248   1.253   5.327 -0.1503 -1.1812  0.7309
    2PC      HS 1526   0.326   1.125   5.417 -0.7187  0.9184  0.2854
    2PC      C2 1527   0.463   1.270   5.328  0.5006 -0.3103  0.6610
    2PC      HX 1528   0.550   1.208   5.302  1.3929  0.7494  1.0415
    2PC      C3 1529   0.495   1.321   5.469  0.1444 -0.0459  0.6460
    2PC      HA 1530   0.512   1.239   5.539 -1.6041 -1.2473 -0.2596
    2PC      HB 1531   0.574   1.396   5.471 -0.1092  0.2183  1.1327
    2PC     O31 1532   0.373   1.388   5.508  0.2405  0.2518  0.4273
    2PC     P31 1533   0.361   1.418   5.665  0.0163  0.3803  0.3864
    2PC     O32 1534   0.204   1.450   5.674 -0.2310 -0.4099 -0.8099
    2PC     C31 1535   0.149   1.556   5.594 -0.4072 -0.0368 -0.2041
    2PC     H1A 1536   0.214   1.639   5.622  0.8188 -0.7098 -0.9212
    2PC     H1B 1537   0.162   1.535   5.487 -0.3635 -0.0705 -0.1923
    2PC     C32 1538   0.003   1.575   5.635 -0.5100  0.3120 -0.7276
    2PC     H2A 1539  -0.062   1.545   5.552 -0.6008 -0.0501 -0.5278
    2PC     H2B 1540  -0.024   1.508   5.716 -0.6561  0.4704 -0.6428
    2PC     N31 1541  -0.031   1.715   5.677  0.2050  0.3235 -0.1715
    2PC     C33 1542   0.008   1.820   5.577  0.5047 -0.3746 -0.7963
    2PC     H3A 1543   0.114   1.843   5.579  0.5610 -0.5628 -1.3735
    2PC     H3B 1544  -0.034   1.780   5.485 -0.5459 -0.3846 -0.3303
    2PC     H3C 1545  -0.039   1.914   5.608  1.1880 -0.8023  1.8102
    2PC     C34 1546  -0.180   1.725   5.692  0.1710 -0.0770 -0.2461
    2PC     H4A 1547  -0.222   1.705   5.593  3.0741  1.7669 -2.0034
    2PC     H4B 1548  -0.213   1.658   5.772  0.3831  2.8573  2.5024
    2PC     H4C 1549  -0.205   1.827   5.719  2.3398  0.2689  0.6725
    2PC     C35 1550   0.026   1.735   5.814  0.8305 -0.0856 -0.3686
    2PC     H5A 1551   0.010   1.643   5.872 -1.0011  0.3378 -0.1247
    2PC     H5B 1552  -0.029   1.817   5.861 -1.2810 -2.5439  1.8018
    2PC     H5C 1553   0.132   1.757   5.803  0.7576 -0.9136 -3.4374
    2PC     O33 1554   0.391   1.298   5.747  0.1487  0.2840  0.1975
    2PC     O34 1555   0.444   1.534   5.705  0.0005  0.5773 -0.1398
    2PC     O21 1556   0.451   1.384   5.241  0.2148 -0.8540 -0.0204
    2PC     C21 1557   0.461   1.372   5.107  0.5225 -0.4926 -0.0308
    2PC     O22 1558   0.507   1.279   5.045  0.3694 -0.6692  0.1177
    3OL     C12 1559   0.399   1.492   5.041  0.3652 -0.4388  0.2089
    3OL     H2R 1560   0.392   1.572   5.115 -3.0291 -1.5530  1.2601
    3OL     H2S 1561   0.292   1.472   5.030  0.3612 -0.8977  1.0266
    3OL     C13 1562   0.466   1.532   4.908  0.2313  0.4884  0.4150
    3OL     H3R 1563   0.516   1.447   4.862 -0.3973  0.5709 -0.4312
    3OL     H3S 1564   0.549   1.600   4.931 -0.8390  1.7938  0.5598
    3OL     C14 1565   0.364   1.595   4.813 -0.0360  0.1728  0.4915
    3OL     H4R 1566   0.295   1.666   4.858  0.9987  0.8740  1.0063
    3OL     H4S 1567   0.295   1.527   4.761  1.7030  0.0037 -1.7677
    3OL     C15 1568   0.445   1.646   4.692  0.1177 -0.5635  0.2786
    3OL     H5R 1569   0.475   1.558   4.635  0.7168 -1.3344  1.7414
    3OL     H5S 1570   0.541   1.694   4.709  0.5629 -0.2930 -2.5043
    3OL     C16 1571   0.354   1.741   4.614  0.5206  0.2079  0.7383
    3OL     H6R 1572   0.340   1.832   4.673 -1.4671  0.2276  0.3238
    3OL     H6S 1573   0.255   1.695   4.609  0.6462 -0.0144  0.2163
    3OL     C17 1574   0.409   1.764   4.472  0.0782  0.2418  0.5679
    3OL     H7R 1575   0.398   1.670   4.417  0.3410  0.3666  0.2987
    3OL     H7S 1576   0.515   1.787   4.489  1.1771 -1.8330 -2.6434
    3OL     C18 1577   0.340   1.876   4.394 -0.7423 -0.5262  0.1718
    3OL     H8R 1578   0.322   1.958   4.464  1.2522 -0.2915  0.4788
    3OL     H8S 1579   0.250   1.845   4.341  1.1638 -2.6979 -2.0805
    3OL     C19 1580   0.439   1.936   4.296 -1.0147 -0.1048  0.1548
    3OL     H9R 1581   0.427   1.902   4.193  0.3288 -0.0548 -0.0358
    3OL    C110 1582   0.507   2.047   4.320  0.4063 -0.8879 -0.1910
    3OL    H10R 1583   0.566   2.086   4.237 -2.9097 -0.0260 -2.3357
    3OL    C111 1584   0.515   2.121   4.451 -0.4158  0.1764 -0.7210
    3OL    H11R 1585   0.623   2.122   4.471 -0.6279 -1.8469  0.9839
    3OL    H11S 1586   0.473   2.060   4.532 -0.4423 -2.4768 -2.5910
    3OL    C112 1587   0.455   2.260   4.432 -0.0386  0.3539 -0.6304
    3OL    H12R 1588   0.347   2.249   4.444  0.3391 -3.0289  0.5613
    3OL    H12S 1589   0.482   2.286   4.329  0.1922 -2.9770 -1.5105
    3OL    C113 1590   0.503   2.368   4.530  0.4330 -0.3220 -0.1088
    3OL    H13R 1591   0.611   2.374   4.516  0.1726  1.6159 -1.9177
    3OL    H13S 1592   0.476   2.340   4.632  1.8128  1.0366  0.6676
    3OL    C114 1593   0.429   2.500   4.502  0.1919 -0.4398 -0.0257
    3OL    H14R 1594   0.322   2.493   4.521  0.0593 -0.2282 -0.6784
    3OL    H14S 1595   0.440   2.508   4.394 -0.7615 -1.4611 -0.2191
    3OL    C115 1596   0.491   2.625   4.566  0.3562 -0.4507 -0.1648
    3OL    H15R 1597   0.439   2.718   4.542 -0.9474 -0.4024  2.5023
    3OL    H15S 1598   0.600   2.626   4.550  0.8535  0.9021  2.7378
    3OL    C116 1599   0.473   2.610   4.718  0.1754 -0.2956 -0.1709
    3OL    H16R 1600   0.531   2.524   4.750 -0.6272 -1.4208 -1.6244
    3OL    H16S 1601   0.369   2.593   4.743  0.5448 -0.0467  1.6575
    3OL    C117 1602   0.523   2.726   4.805  0.0561  0.1295 -0.6598
    3OL    H17R 1603   0.498   2.705   4.910  0.3642 -0.7677 -0.7596
    3OL    H17S 1604   0.469   2.816   4.775  0.9938  0.7273 -0.5987
    3OL    C118 1605   0.674   2.752   4.797  0.2328 -0.6452 -0.0250
    3OL    H18R 1606   0.732   2.661   4.787 -1.9759 -1.9877 -1.7871
    3OL    H18S 1607   0.704   2.814   4.882 -0.0014 -2.7847  1.7038
    3OL    H18T 1608   0.701   2.805   4.705  1.9612  0.0122  0.8145
    1PA    C116 1609   0.185   1.195   4.028  0.0432 -0.3324  0.1014
    1PA    H16R 1610   0.219   1.264   3.949  0.6482  0.1366  0.7596
    1PA    H16S 1611   0.092   1.227   4.075  1.6912  0.8458  2.8247
    1PA    H16T 1612   0.175   1.096   3.983  1.0120 -0.6245  0.4883
    1PA    C115 1613   0.285   1.183   4.144 -0.1142  0.0186  0.2738
    1PA    H15R 1614   0.312   1.280   4.186  0.0964  0.2012 -0.2771
    1PA    H15S 1615   0.239   1.124   4.224 -0.5521  1.1286  0.8656
    1PA    C114 1616   0.414   1.114   4.097 -0.0579  0.1650  0.2137
    1PA    H14R 1617   0.469   1.077   4.184 -2.0334 -2.9311  0.2774
    1PA    H14S 1618   0.403   1.038   4.020  1.6152 -0.8536  0.9252
    1PA    C113 1619   0.514   1.222   4.054  0.0718  0.2134  0.6310
    1PA    H13R 1620   0.478   1.272   3.963 -1.1334  1.5642  1.7878
    1PA    H13S 1621   0.530   1.302   4.127  3.2676  0.9770 -0.7443
    1PA    C112 1622   0.653   1.160   4.038 -0.1275 -0.0785  0.0002
    1PA    H12R 1623   0.679   1.098   4.124  0.9035 -2.2664 -1.7821
    1PA    H12S 1624   0.651   1.094   3.951  0.6244  0.5838 -0.5281
    1PA    C111 1625   0.761   1.267   4.016  0.4650 -0.6927 -0.1049
    1PA    H11R 1626   0.741   1.320   3.923  1.6689 -1.9842 -1.1535
    1PA    H11S 1627   0.755   1.348   4.088 -0.1026  0.4780 -1.4295
    1PA    C110 1628   0.905   1.214   4.003  0.4917 -0.5351 -0.4605
    1PA    H10R 1629   0.916   1.131   3.932  2.5461  0.6592 -1.6285
    1PA    H10S 1630   0.964   1.298   3.968 -1.9325  0.9645 -1.2193
    1PA     C19 1631   0.966   1.168   4.136 -0.1687 -0.1426 -0.0164
    1PA     H9R 1632   0.957   1.247   4.211  1.7448 -1.5216  1.8151
    1PA     H9S 1633   0.901   1.084   4.164  0.2976 -1.1813 -1.8876
    1PA     C18 1634   1.114   1.126   4.135 -0.2966 -0.5976 -0.4904
    1PA     H8R 1635   1.143   1.078   4.042  0.4876 -1.2753  0.1015
    1PA     H8S 1636   1.172   1.216   4.160  0.4627 -1.7567  2.2630
    1PA     C17 1637   1.135   1.031   4.253 -0.2366  0.5231  0.4217
    1PA     H7R 1638   1.045   0.970   4.255 -0.8259  1.3846  0.8712
    1PA     H7S 1639   1.219   0.964   4.232 -0.7916 -0.0224 -0.0905
    1PA     C16 1640   1.163   1.102   4.386  0.1505  0.4886  0.3613
    1PA     H6R 1641   1.270   1.122   4.373  0.1966  0.7866  1.1152
    1PA     H6S 1642   1.126   1.205   4.386 -0.7479  0.1811  0.9233
    1PA     C15 1643   1.132   1.021   4.513 -0.3977  0.4372  0.1974
    1PA     H5R 1644   1.024   1.011   4.523 -0.5379  0.9388 -0.6430
    1PA     H5S 1645   1.184   0.925   4.507 -4.5560 -1.9732 -1.7008
    1PA     C14 1646   1.189   1.098   4.633 -0.4885  0.4430  0.2366
    1PA     H4R 1647   1.294   1.116   4.611 -1.0728  0.7063 -2.7550
    1PA     H4S 1648   1.152   1.201   4.631  2.5091  1.6367  1.1876
    1PA     C13 1649   1.167   1.025   4.766  0.1523 -0.1522  0.0192
    1PA     H3R 1650   1.226   0.934   4.757  1.5740  0.5929  1.2559
    1PA     H3S 1651   1.211   1.085   4.846 -0.3194  0.5904 -0.2596
    1PA     C12 1652   1.016   1.028   4.796  0.2785  0.0441  0.6493
    1PA     H2R 1653   0.988   1.133   4.795  1.5780  0.4107 -0.0940
    1PA     H2S 1654   0.971   0.965   4.719 -1.7624 -0.1351  1.9227
    2PC     C11 1655   0.978   0.962   4.926 -0.0805 -0.1640  0.4386
    2PC     O12 1656   0.891   1.007   4.998 -0.2648  0.1474  0.0288
    2PC     O11 1657   1.047   0.852   4.960  0.3389  0.0878  0.4045
    2PC      C1 1658   1.029   0.790   5.088  0.0248  0.6773  0.6465
    2PC      HR 1659   1.103   0.712   5.103  0.4515  0.9339 -0.0900
    2PC      HS 1660   1.034   0.876   5.157 -0.8384  0.3512  1.1350
    2PC      C2 1661   0.889   0.731   5.111  0.0417  0.1707 -0.4928
    2PC      HX 1662   0.821   0.785   5.045 -2.5984 -1.7150  0.5113
    2PC      C3 1663   0.838   0.755   5.254  0.2534  0.0934 -0.4024
    2PC      HA 1664   0.799   0.857   5.262 -0.3554 -0.1885  0.3798
    2PC      HB 1665   0.752   0.688   5.268 -0.0539  0.7094  0.8264
    2PC     O31 1666   0.932   0.735   5.360 -0.2040 -0.1429 -0.0354
    2PC     P31 1667   0.907   0.805   5.502 -0.3025  0.1315 -0.1886
    2PC     O32 1668   0.859   0.677   5.584 -0.2058  0.0314 -0.2882
    2PC     C31 1669   0.928   0.551   5.586 -0.1304  0.0772  0.3638
    2PC     H1A 1670   0.872   0.473   5.639  2.5010 -1.0132  1.7195
    2PC     H1B 1671   0.944   0.526   5.481  1.3314  0.5458  0.4539
    2PC     C32 1672   1.068   0.571   5.646  0.0195 -0.1515  0.0906
    2PC     H2A 1673   1.115   0.473   5.631  0.0725 -0.4802  2.1461
    2PC     H2B 1674   1.119   0.646   5.586  0.2994 -1.5519 -1.5207
    2PC     N31 1675   1.072   0.584   5.795 -0.1554 -0.0543  0.0873
    2PC     C33 1676   1.211   0.610   5.845  0.0587 -0.5832 -0.2224
    2PC     H3A 1677   1.207   0.669   5.937 -0.5558 -1.2018  0.1687
    2PC     H3B 1678   1.271   0.519   5.854  0.7637 -0.1515 -0.5464
    2PC     H3C 1679   1.262   0.673   5.773 -1.9052  0.9548 -0.3413
    2PC     C34 1680   0.987   0.703   5.829 -0.3884 -0.4916  1.0541
    2PC     H4A 1681   0.997   0.731   5.934 -2.8132 -0.9479  1.4569
    2PC     H4B 1682   1.030   0.783   5.768  2.4836 -2.3340  0.4279
    2PC     H4C 1683   0.883   0.696   5.799 -0.4592  1.5249  0.6937
    2PC     C35 1684   1.019   0.464   5.867 -0.3242 -0.0441 -0.0212
    2PC     H5A 1685   1.083   0.375   5.862 -0.3332 -0.2138  2.1866
    2PC     H5B 1686   0.921   0.439   5.826  0.1237 -0.5645 -0.8084
    2PC     H5C 1687   0.998   0.484   5.972 -2.2021  0.8248 -0.5172
    2PC     O33 1688   1.023   0.886   5.547 -0.3721  0.3244 -0.3551
    2PC     O34 1689   0.795   0.903   5.501 -0.4888 -0.0823 -0.2528
    2PC     O21 1690   0.879   0.590   5.083  0.1762 -0.0191  0.3616
    2PC     C21 1691   0.924   0.533   4.970  0.4738  0.3160  0.3070
    2PC     O22 1692   0.941   0.594   4.867  0.3784 -0.1440  0.0124
    3OL     C12 1693   0.940   0.383   4.983  0.3202  0.3347  0.7035
    3OL     H2R 1694   0.848   0.325   4.988  0.6289 -0.3342 -0.9982
    3OL     H2S 1695   0.977   0.366   5.085 -2.3449 -1.1750  1.5225
    3OL     C13 1696   1.022   0.323   4.869 -0.2871  0.4233  0.2131
    3OL     H3R 1697   1.059   0.229   4.911 -0.6489  0.7491  1.2812
    3OL     H3S 1698   1.110   0.386   4.852 -0.4023  0.8903  1.2837
    3OL     C14 1699   0.957   0.309   4.731 -0.0867  0.0959  0.1500
    3OL     H4R 1700   0.902   0.400   4.706  2.0912  1.2744 -0.6333
    3OL     H4S 1701   0.894   0.220   4.737 -1.0211  0.8411  2.2335
    3OL     C15 1702   1.071   0.295   4.628  0.3450  0.2547  0.6030
    3OL     H5R 1703   1.140   0.217   4.660  0.0237  0.2773  1.3761
    3OL     H5S 1704   1.129   0.387   4.628  2.1550 -0.8377 -0.1503
    3OL     C16 1705   1.017   0.289   4.485  0.3822  0.8278  0.5615
    3OL     H6R 1706   0.969   0.382   4.453  0.0608  1.1689  1.9643
    3OL     H6S 1707   0.935   0.217   4.478 -0.9555  2.4266 -2.5526
    3OL     C17 1708   1.133   0.255   4.391  0.0434  0.5025  0.2567
    3OL     H7R 1709   1.185   0.162   4.413  0.4805  1.1456  2.1108
    3OL     H7S 1710   1.207   0.335   4.400 -0.9273  1.7142 -1.6902
    3OL     C18 1711   1.086   0.246   4.245  0.0453 -0.1548  0.2959
    3OL     H8R 1712   1.014   0.163   4.241 -0.2959  0.1636 -0.3701
    3OL     H8S 1713   1.169   0.219   4.179  1.7073  2.8634  0.9780
    3OL     C19 1714   1.022   0.371   4.188  0.3137 -0.0570  0.2100
    3OL     H9R 1715   0.973   0.437   4.258  0.9713  0.0918  0.5411
    3OL    C110 1716   1.028   0.418   4.065  0.3382  0.0275  0.2431
    3OL    H10R 1717   0.975   0.512   4.058 -0.6211 -0.4692  0.7419
    3OL    C111 1718   1.088   0.360   3.939 -1.0534 -0.8621 -0.0357
    3OL    H11R 1719   1.103   0.253   3.948 -0.5819 -1.0379 -2.2390
    3OL    H11S 1720   1.187   0.406   3.936 -1.0245 -0.8245  1.0813
    3OL    C112 1721   1.015   0.389   3.807  0.0958 -0.7193 -0.6558
    3OL    H12R 1722   1.090   0.360   3.733  0.2092 -2.6192  0.1459
    3OL    H12S 1723   0.992   0.496   3.802 -1.5624 -0.8710  1.9340
    3OL    C113 1724   0.887   0.311   3.774 -0.5240  0.2081 -0.4725
    3OL    H13R 1725   0.810   0.311   3.852 -0.4840  1.5302 -0.4129
    3OL    H13S 1726   0.912   0.206   3.761 -2.6177 -0.2779 -1.0058
    3OL    C114 1727   0.839   0.354   3.635  0.1869 -0.0801 -0.8122
    3OL    H14R 1728   0.905   0.337   3.550 -1.1433 -0.5392 -1.7854
    3OL    H14S 1729   0.820   0.461   3.642 -0.2271 -0.0474 -2.2027
    3OL    C115 1730   0.702   0.291   3.605 -0.0963 -0.1668  0.5868
    3OL    H15R 1731   0.658   0.335   3.514 -0.2515  0.8118  1.1145
    3OL    H15S 1732   0.629   0.306   3.685 -2.0547 -1.0054 -0.9483
    3OL    C116 1733   0.722   0.143   3.569 -0.0979  0.1532 -0.7918
    3OL    H16R 1734   0.760   0.091   3.657  0.9218 -0.3813 -1.5384
    3OL    H16S 1735   0.791   0.139   3.485  0.4164  5.6032 -1.0132
    3OL    C117 1736   0.586   0.089   3.521 -0.0264 -0.2919 -0.4966
    3OL    H17R 1737   0.556   0.151   3.436 -0.3569  2.5175  1.5112
    3OL    H17S 1738   0.521   0.098   3.609  1.1494 -1.3231  0.5169
    3OL    C118 1739   0.610  -0.058   3.486  0.3977 -0.2128 -0.5443
    3OL    H18R 1740   0.694  -0.076   3.418  0.0823 -2.7745 -0.3653
    3OL    H18S 1741   0.523  -0.095   3.432  1.8402 -0.6110 -2.7261
    3OL    H18T 1742   0.637  -0.113   3.577  2.1329 -0.5982 -1.2599
    1PA    C116 1743   5.872   0.968   3.773 -0.1281 -0.3684 -0.1993
    1PA    H16R 1744   5.817   0.897   3.711  0.3480 -1.7485  0.9049
    1PA    H16S 1745   5.871   0.932   3.876 -0.5537  1.1821  0.3696
    1PA    H16T 1746   5.975   0.987   3.741  0.2576  1.3710  1.8368
    1PA    C115 1747   5.798   1.103   3.774  0.1982 -0.1901  0.0309
    1PA    H15R 1748   5.770   1.130   3.672 -1.6557 -0.4543  0.4335
    1PA    H15S 1749   5.700   1.098   3.821  1.1568  1.0782  2.3782
    1PA    C114 1750   5.876   1.220   3.836  0.1253  0.2682 -0.7245
    1PA    H14R 1751   5.970   1.221   3.782  0.0323 -0.3753 -0.9067
    1PA    H14S 1752   5.838   1.322   3.832  0.7330  0.4892 -0.9105
    1PA    C113 1753   5.902   1.203   3.987  1.0068 -0.5434 -0.9604
    1PA    H13R 1754   5.801   1.213   4.026  0.7203  3.9272 -2.3166
    1PA    H13S 1755   5.934   1.100   4.003 -0.7482 -1.0270 -0.3437
    1PA    C112 1756   5.997   1.306   4.049 -0.1793  0.0042 -0.0066
    1PA    H12R 1757   6.097   1.294   4.005 -0.4165 -1.3007 -0.2492
    1PA    H12S 1758   5.961   1.405   4.024 -3.7050 -1.2649 -0.4578
    1PA    C111 1759   6.009   1.274   4.199 -0.1313  0.0376 -0.0030
    1PA    H11R 1760   6.038   1.366   4.251 -2.2674  1.3970 -1.0402
    1PA    H11S 1761   5.914   1.240   4.240  0.3960  0.7224  1.9026
    1PA    C110 1762   6.121   1.173   4.222 -0.0125  0.1354 -0.1552
    1PA    H10R 1763   6.086   1.085   4.168 -0.4431  0.0629  0.2463
    1PA    H10S 1764   6.213   1.217   4.182 -0.2808  2.4030  1.5112
    1PA     C19 1765   6.134   1.142   4.372 -0.3066  0.0558 -0.1463
    1PA     H9R 1766   6.172   1.237   4.409 -0.0077 -0.2228  0.2596
    1PA     H9S 1767   6.042   1.108   4.420  0.4534 -2.4342 -0.3071
    1PA     C18 1768   6.249   1.043   4.394 -0.6071 -0.2506  0.0670
    1PA     H8R 1769   6.227   0.947   4.348  2.4838  0.2721 -2.9937
    1PA     H8S 1770   6.335   1.086   4.341  0.5739 -2.3263  0.1972
    1PA     C17 1771   6.291   1.022   4.540  0.1443 -0.3539 -0.1591
    1PA     H7R 1772   6.384   0.964   4.542  0.1266 -0.5665 -2.5374
    1PA     H7S 1773   6.310   1.117   4.589 -2.4411 -0.0297  0.3408
    1PA     C16 1774   6.180   0.937   4.603 -0.3662  0.3564 -0.0872
    1PA     H6R 1775   6.081   0.962   4.565 -0.3714 -0.5735 -0.7308
    1PA     H6S 1776   6.203   0.832   4.580  0.4547  0.0650  1.8859
    1PA     C15 1777   6.173   0.958   4.755  0.0865  0.4128 -0.0721
    1PA     H5R 1778   6.166   1.065   4.778  0.4111  0.1878  1.1239
    1PA     H5S 1779   6.075   0.919   4.784 -0.0100  2.2939  2.4266
    1PA     C14 1780   6.286   0.886   4.829  0.1781  0.5930 -0.0358
    1PA     H4R 1781   6.274   0.778   4.818 -1.4151  0.8625 -1.3699
    1PA     H4S 1782   6.384   0.921   4.798  0.4706  0.3879  0.6379
    1PA     C13 1783   6.269   0.910   4.980 -0.2362 -0.2533  0.0572
    1PA     H3R 1784   6.298   1.011   5.009  0.4327 -0.6913  0.9554
    1PA     H3S 1785   6.165   0.885   5.002 -0.4175 -1.1212 -1.6152
    1PA     C12 1786   6.356   0.815   5.065  0.0282 -0.1235 -0.0667
    1PA     H2R 1787   6.332   0.712   5.040  3.3221 -0.9312 -0.2424
    1PA     H2S 1788   6.464   0.826   5.054  0.0156  1.4680  1.0235
    2PC     C11 1789   6.321   0.833   5.210 -0.2456  0.4406 -0.1971
    2PC     O12 1790   6.244   0.762   5.272  0.2150  0.2274  0.1307
    2PC     O11 1791   6.392   0.935   5.261  0.6384 -0.1190 -0.2963
    2PC      C1 1792   6.360   0.975   5.395 -0.0109 -0.3773 -0.3696
    2PC      HR 1793   6.254   0.996   5.410  0.1632  1.9130 -1.8156
    2PC      HS 1794   6.399   0.903   5.468  2.1328  0.8692 -0.1910
    2PC      C2 1795   6.423   1.112   5.424 -0.0429 -0.4233 -0.0823
    2PC      HX 1796   6.526   1.109   5.387 -0.5839 -0.7990 -1.6303
    2PC      C3 1797   6.418   1.153   5.572 -0.6765  0.4916 -0.3457
    2PC      HA 1798   6.466   1.077   5.635 -1.0182 -0.4785 -1.2255
    2PC      HB 1799   6.461   1.253   5.582  1.1676 -0.4087  1.9740
    2PC     O31 1800   6.283   1.155   5.621 -0.5895  0.6932 -0.1068
    2PC     P31 1801   6.239   1.239   5.750 -0.2583  0.1307  0.3764
    2PC     O32 1802   6.089   1.184   5.752 -0.3293  0.3205  0.2253
    2PC     C31 1803   6.016   1.168   5.875  0.4571  0.1003  0.6699
    2PC     H1A 1804   6.044   1.252   5.939 -0.9563 -0.8332  2.6461
    2PC     H1B 1805   5.909   1.181   5.857  0.7308  0.8547 -0.5097
    2PC     C32 1806   6.043   1.031   5.939  0.2266 -0.4729 -0.4319
    2PC     H2A 1807   6.148   1.040   5.968  0.4132 -0.3096 -1.1369
    2PC     H2B 1808   5.985   1.035   6.031  0.7331  0.6902 -0.1415
    2PC     N31 1809   6.025   0.908   5.855 -0.0282 -0.5442 -0.2720
    2PC     C33 1810   6.031   0.782   5.936 -0.5754 -0.1747  0.3538
    2PC     H3A 1811   6.029   0.808   6.042 -1.0467  1.2862  0.0145
    2PC     H3B 1812   5.948   0.717   5.912  0.2675 -1.1258 -0.0586
    2PC     H3C 1813   6.125   0.733   5.908 -0.7173 -1.3247  1.7713
    2PC     C34 1814   5.894   0.908   5.783 -0.3295 -0.2044  0.2664
    2PC     H4A 1815   5.865   1.012   5.768 -0.3776 -0.0915  1.1014
    2PC     H4B 1816   5.900   0.846   5.693  2.4763  1.7726 -1.0466
    2PC     H4C 1817   5.827   0.873   5.861  1.7779  0.3264  2.4164
    2PC     C35 1818   6.131   0.891   5.751  0.5225  0.8773  0.0339
    2PC     H5A 1819   6.111   0.956   5.665  1.3349 -0.5299 -1.2808
    2PC     H5B 1820   6.122   0.787   5.719  3.2775 -0.0572  1.9648
    2PC     H5C 1821   6.232   0.901   5.791  0.4852 -1.1210  0.7130
    2PC     O33 1822   6.306   1.187   5.872  0.7258 -0.1960 -0.2871
    2PC     O34 1823   6.258   1.386   5.747 -0.3088  0.1398  0.4931
    2PC     O21 1824   6.347   1.206   5.346  0.1961 -0.5195 -0.4313
    2PC     C21 1825   6.400   1.329   5.333 -0.2784 -0.2772 -0.0909
    2PC     O22 1826   6.500   1.365   5.392 -0.4531 -0.2772  0.2093
    3OL     C12 1827   6.334   1.414   5.228 -0.3323  0.1432  0.2834
    3OL     H2R 1828   6.339   1.520   5.257 -0.4575  0.3528 -0.4521
    3OL     H2S 1829   6.231   1.379   5.224 -0.3771 -0.2632  3.0325
    3OL     C13 1830   6.409   1.407   5.095 -0.0544 -0.0735  0.4509
    3OL     H3R 1831   6.516   1.422   5.114 -0.0243  0.7012 -0.2255
    3OL     H3S 1832   6.387   1.499   5.040  4.2688  1.2911  0.6190
    3OL     C14 1833   6.387   1.279   5.014 -0.4473  0.0654  0.3373
    3OL     H4R 1834   6.279   1.277   4.996 -1.0714  0.6731  3.3680
    3OL     H4S 1835   6.414   1.192   5.074  1.9368  1.8151  1.9655
    3OL     C15 1836   6.471   1.275   4.886  0.5797  0.1521  0.9952
    3OL     H5R 1837   6.471   1.372   4.835 -2.4739 -0.4899 -0.4646
    3OL     H5S 1838   6.430   1.207   4.811  0.8810  0.7265  0.2909
    3OL     C16 1839   6.616   1.234   4.911  0.7782 -0.0599 -0.4364
    3OL     H6R 1840   6.629   1.131   4.947 -1.3550 -0.3332 -0.3364
    3OL     H6S 1841   6.662   1.306   4.978  0.9443 -0.9351  0.4180
    3OL     C17 1842   6.705   1.246   4.786  0.2268 -0.2508 -0.8552
    3OL     H7R 1843   6.810   1.235   4.815 -0.3120  0.2438  1.4873
    3OL     H7S 1844   6.688   1.341   4.736 -1.4816 -0.5728 -0.9409
    3OL     C18 1845   6.675   1.133   4.687 -0.6376 -0.4596 -0.3566
    3OL     H8R 1846   6.567   1.135   4.668 -0.9272  1.8058  1.1210
    3OL     H8S 1847   6.673   1.036   4.739  0.9387 -0.9958 -1.2301
    3OL     C19 1848   6.756   1.128   4.561  0.1130 -0.3026  0.1164
    3OL     H9R 1849   6.818   1.214   4.538 -0.8508  0.1588 -0.8169
    3OL    C110 1850   6.751   1.027   4.475  0.0822 -0.6379  0.5070
    3OL    H10R 1851   6.808   1.028   4.383 -1.3101  0.2307 -0.3936
    3OL    C111 1852   6.651   0.914   4.481 -0.3839 -0.2436  0.2800
    3OL    H11R 1853   6.561   0.933   4.422 -1.5602 -1.5567  1.5793
    3OL    H11S 1854   6.617   0.889   4.582 -0.5622 -1.1722 -0.0054
    3OL    C112 1855   6.723   0.792   4.421 -0.1380  0.2462 -0.4408
    3OL    H12R 1856   6.787   0.754   4.501 -0.5007  0.1473 -0.1942
    3OL    H12S 1857   6.801   0.815   4.349  2.7873  1.2252  2.7505
    3OL    C113 1858   6.622   0.690   4.367  0.2607 -0.1873 -0.3758
    3OL    H13R 1859   6.534   0.693   4.432  0.0657 -0.7344 -0.6139
    3OL    H13S 1860   6.645   0.585   4.381 -1.0082 -0.5724 -0.9755
    3OL    C114 1861   6.582   0.720   4.221 -0.1846 -0.2172 -0.2631
    3OL    H14R 1862   6.537   0.819   4.208  0.2259  0.0871  0.5176
    3OL    H14S 1863   6.507   0.649   4.188  1.2130 -1.9512  0.1164
    3OL    C115 1864   6.701   0.683   4.132 -0.3253 -0.3367 -0.4014
    3OL    H15R 1865   6.731   0.581   4.158 -0.2124 -0.6019 -1.4971
    3OL    H15S 1866   6.784   0.749   4.158 -0.3795 -0.7180  0.8147
    3OL    C116 1867   6.678   0.695   3.981 -0.0701  0.7020 -0.3623
    3OL    H16R 1868   6.627   0.790   3.962  1.0162  1.2420 -0.6655
    3OL    H16S 1869   6.601   0.626   3.947  0.4165  0.7070 -1.5266
    3OL    C117 1870   6.810   0.694   3.901  0.4973  0.2512  0.5637
    3OL    H17R 1871   6.881   0.763   3.947  0.6822  1.5758 -1.6038
    3OL    H17S 1872   6.781   0.732   3.803 -0.4171  0.7736  1.0133
    3OL    C118 1873   6.869   0.553   3.901 -0.1916 -0.0444  0.8067
    3OL    H18R 1874   6.958   0.543   3.838 -0.3554 -1.4920  0.7582
    3OL    H18S 1875   6.813   0.468   3.862  2.7646 -2.0957  0.6826
    3OL    H18T 1876   6.897   0.518   4.001 -0.1189 -1.1093  0.4255
    1PA    C116 1877   1.969   6.133   4.249  0.3365  0.2598  0.5103
    1PA    H16R 1878   1.904   6.047   4.234  2.2758 -1.2430  0.2931
    1PA    H16S 1879   1.998   6.166   4.149 -1.0228 -1.3358 -0.4415
    1PA    H16T 1880   1.921   6.212   4.307 -0.0863  0.1487  0.3092
    1PA    C115 1881   2.087   6.074   4.328  0.6530  0.2766  0.0479
    1PA    H15R 1882   2.171   6.144   4.318  1.8855 -1.3324 -1.7608
    1PA    H15S 1883   2.071   6.072   4.435 -0.7881  1.3745 -0.1175
    1PA    C114 1884   2.131   5.936   4.277 -0.2807 -0.0925  0.2272
    1PA    H14R 1885   2.046   5.868   4.271 -1.5062  1.4452 -0.8448
    1PA    H14S 1886   2.154   5.943   4.170  1.8831 -0.1004  0.6482
    1PA    C113 1887   2.252   5.885   4.357  0.6235  0.8460 -0.5164
    1PA    H13R 1888   2.338   5.942   4.321 -0.7011  1.9618 -2.1036
    1PA    H13S 1889   2.235   5.895   4.464 -0.7198 -2.1139 -0.3597
    1PA    C112 1890   2.284   5.737   4.332  0.5669  0.6704  0.4185
    1PA    H12R 1891   2.190   5.684   4.343 -0.4973  2.6549  1.5077
    1PA    H12S 1892   2.306   5.731   4.225  0.8536 -3.5063  0.5608
    1PA    C111 1893   2.397   5.698   4.428  0.4251 -0.1635  0.2478
    1PA    H11R 1894   2.414   5.595   4.395 -0.2644 -0.7712  1.7253
    1PA    H11S 1895   2.487   5.755   4.404 -0.1640 -0.7320 -4.2769
    1PA    C110 1896   2.362   5.684   4.577 -0.0000 -0.0810  0.1569
    1PA    H10R 1897   2.326   5.781   4.611  2.7232  0.4705  1.7700
    1PA    H10S 1898   2.295   5.602   4.600  2.6665 -2.1982  0.9658
    1PA     C19 1899   2.485   5.641   4.659  0.1211 -0.2686 -0.1201
    1PA     H9R 1900   2.507   5.539   4.626  1.1654 -1.2002  3.0995
    1PA     H9S 1901   2.564   5.712   4.637 -0.8147  1.3811  1.5867
    1PA     C18 1902   2.448   5.639   4.808  0.2830 -0.4300 -0.0818
    1PA     H8R 1903   2.389   5.729   4.826  0.7933  0.4174 -2.3279
    1PA     H8S 1904   2.388   5.549   4.827  0.8505 -0.4390  1.9187
    1PA     C17 1905   2.572   5.624   4.898  0.2733 -0.6853 -0.1098
    1PA     H7R 1906   2.625   5.539   4.856  1.7999  0.1078  0.1386
    1PA     H7S 1907   2.623   5.720   4.886 -0.0216 -0.5712 -0.4714
    1PA     C16 1908   2.543   5.614   5.048  0.0356 -0.1384 -0.1185
    1PA     H6R 1909   2.637   5.602   5.101 -0.8635  0.3341  1.7056
    1PA     H6S 1910   2.512   5.716   5.074 -1.9238 -0.6615 -0.1800
    1PA     C15 1911   2.448   5.499   5.086 -0.1292 -0.0141 -0.1491
    1PA     H5R 1912   2.433   5.504   5.194 -0.5659  1.6187 -0.2474
    1PA     H5S 1913   2.353   5.510   5.035 -0.4137 -1.0173  0.1431
    1PA     C14 1914   2.505   5.360   5.057  0.0648 -0.0207  0.2530
    1PA     H4R 1915   2.504   5.351   4.948 -1.4408 -0.4646  0.2895
    1PA     H4S 1916   2.603   5.336   5.100  0.3487  0.3763 -0.1641
    1PA     C13 1917   2.416   5.256   5.125 -0.4367  0.4538  0.3254
    1PA     H3R 1918   2.398   5.283   5.230 -0.4782  1.3228  0.0999
    1PA     H3S 1919   2.320   5.255   5.073 -1.5164  0.2245  2.1951
    1PA     C12 1920   2.465   5.112   5.103 -0.5040  0.3860  0.6022
    1PA     H2R 1921   2.477   5.092   4.996  1.9494  3.4416  0.1639
    1PA     H2S 1922   2.564   5.104   5.148  1.2610  0.4592 -2.9129
    2PC     C11 1923   2.371   5.009   5.161  0.2403 -0.4963  0.2622
    2PC     O12 1924   2.284   5.035   5.241 -0.0523  0.1046 -0.2415
    2PC     O11 1925   2.383   4.888   5.104  0.1910 -0.1696 -0.4559
    2PC      C1 1926   2.316   4.773   5.159  0.3166 -0.0251  0.0063
    2PC      HR 1927   2.209   4.787   5.144  0.5503  2.8775  0.5284
    2PC      HS 1928   2.347   4.693   5.091  0.9535  1.4013 -1.4618
    2PC      C2 1929   2.369   4.729   5.296  0.1730 -0.0208  0.0628
    2PC      HX 1930   2.330   4.629   5.317 -0.9718 -0.1836 -2.5254
    2PC      C3 1931   2.341   4.821   5.416 -0.1441  0.6927 -0.5485
    2PC      HA 1932   2.426   4.888   5.427  1.1658 -0.9317 -0.3409
    2PC      HB 1933   2.242   4.864   5.404 -0.1477  0.3545 -1.8536
    2PC     O31 1934   2.342   4.741   5.536  0.2058  1.2218 -0.1929
    2PC     P31 1935   2.328   4.816   5.676 -0.1896 -0.0374  0.4515
    2PC     O32 1936   2.469   4.879   5.716 -0.1836  0.4825 -0.3694
    2PC     C31 1937   2.471   4.973   5.825  0.2830  0.1448 -0.0805
    2PC     H1A 1938   2.565   5.028   5.817  0.5552 -0.2110  0.5683
    2PC     H1B 1939   2.384   5.039   5.825 -0.2808 -0.5283 -2.0863
    2PC     C32 1940   2.473   4.899   5.960 -0.7663  0.3722  0.0675
    2PC     H2A 1941   2.380   4.843   5.972 -0.6207  0.5148  2.2670
    2PC     H2B 1942   2.554   4.828   5.948 -0.5951  0.5736  0.0335
    2PC     N31 1943   2.489   4.983   6.083  0.1279 -0.6029  0.6401
    2PC     C33 1944   2.617   5.061   6.082 -0.7122  0.8133  0.1756
    2PC     H3A 1945   2.697   4.990   6.103 -1.2739  0.1567  0.1159
    2PC     H3B 1946   2.637   5.111   5.987  2.2058 -0.7167 -0.1174
    2PC     H3C 1947   2.620   5.134   6.163  2.2204 -0.1446  1.0410
    2PC     C34 1948   2.385   5.092   6.092  0.1601 -0.5259  0.1216
    2PC     H4A 1949   2.369   5.147   5.999 -0.5793 -0.8859  0.0277
    2PC     H4B 1950   2.290   5.052   6.127 -0.0641 -0.0183  0.0874
    2PC     H4C 1951   2.414   5.159   6.172 -1.2055 -0.4076  0.5356
    2PC     C35 1952   2.483   4.895   6.203 -0.7806 -0.1606  0.9336
    2PC     H5A 1953   2.503   4.948   6.296 -2.2325  0.5537  0.8554
    2PC     H5B 1954   2.564   4.822   6.190 -0.8157  0.2838 -2.4182
    2PC     H5C 1955   2.382   4.855   6.209 -1.2932  1.1306  1.1752
    2PC     O33 1956   2.224   4.920   5.690 -0.4145 -0.2337  0.2487
    2PC     O34 1957   2.311   4.710   5.779 -0.1375 -0.3709  0.1185
    2PC     O21 1958   2.513   4.723   5.302  0.1735  0.2409  0.3542
    2PC     C21 1959   2.575   4.612   5.261  0.0130 -0.1768  1.2302
    2PC     O22 1960   2.516   4.509   5.236 -0.1769  0.2465 -0.1470
    3OL     C12 1961   2.722   4.632   5.237 -0.1759  0.0711  0.2221
    3OL     H2R 1962   2.763   4.533   5.220  1.8765  0.7387  0.8651
    3OL     H2S 1963   2.779   4.670   5.323  1.9053 -2.6304  0.1768
    3OL     C13 1964   2.748   4.724   5.116 -0.3856 -0.2491 -0.0658
    3OL     H3R 1965   2.664   4.724   5.046 -2.8660  2.6372  2.6232
    3OL     H3S 1966   2.833   4.687   5.059 -2.0431 -1.1356 -2.0905
    3OL     C14 1967   2.772   4.867   5.164  0.7476 -0.1232 -0.9843
    3OL     H4R 1968   2.853   4.865   5.238  0.1250  0.6420 -0.2684
    3OL     H4S 1969   2.680   4.903   5.211  0.5781 -2.1297  0.3410
    3OL     C15 1970   2.809   4.973   5.059  0.1549  0.5906 -0.4850
    3OL     H5R 1971   2.804   5.071   5.107 -2.6306 -0.6444  2.1330
    3OL     H5S 1972   2.739   4.976   4.975 -0.2969 -1.0949 -0.1969
    3OL     C16 1973   2.936   4.935   4.982  0.0496 -0.1472 -0.3043
    3OL     H6R 1974   2.958   5.010   4.906 -3.7988  0.8201 -0.6768
    3OL     H6S 1975   2.925   4.837   4.936  1.4137 -0.4081 -0.1238
    3OL     C17 1976   3.059   4.925   5.074 -0.2461  0.0296  0.1116
    3OL     H7R 1977   3.040   4.876   5.169  0.2147  0.7199  0.5642
    3OL     H7S 1978   3.084   5.027   5.104  0.4138 -0.6750  2.0605
    3OL     C18 1979   3.176   4.857   5.002 -0.1783  0.0324  0.2198
    3OL     H8R 1980   3.257   4.869   5.074 -2.0152 -0.5200  2.4937
    3OL     H8S 1981   3.191   4.923   4.916 -3.1903  0.8193  0.1956
    3OL     C19 1982   3.151   4.716   4.957 -0.5018  0.1317  0.0828
    3OL     H9R 1983   3.053   4.671   4.968  0.9789 -3.2825  0.8638
    3OL    C110 1984   3.248   4.625   4.946 -0.2056  0.4606 -0.0361
    3OL    H10R 1985   3.232   4.518   4.951 -0.5471  0.5057 -0.1169
    3OL    C111 1986   3.391   4.670   4.929 -0.1785  0.4031  0.0361
    3OL    H11R 1987   3.442   4.650   5.023 -2.0972 -0.4296  0.9656
    3OL    H11S 1988   3.398   4.778   4.917  0.2031  0.6397  2.0206
    3OL    C112 1989   3.468   4.594   4.820  0.0138 -0.0992  0.5157
    3OL    H12R 1990   3.567   4.633   4.845 -0.7581  0.7781  2.4096
    3OL    H12S 1991   3.426   4.627   4.725 -0.5278  1.4122  1.2448
    3OL    C113 1992   3.460   4.441   4.830 -0.3497 -0.1143  0.0050
    3OL    H13R 1993   3.356   4.409   4.844 -0.1608 -0.0722  1.6988
    3OL    H13S 1994   3.518   4.408   4.915 -0.0163 -0.2751 -0.2826
    3OL    C114 1995   3.518   4.380   4.702  0.4421  0.3209  0.1479
    3OL    H14R 1996   3.462   4.422   4.618  1.4911  1.1436 -0.1594
    3OL    H14S 1997   3.506   4.271   4.703 -0.3209  0.3997  0.6716
    3OL    C115 1998   3.660   4.427   4.668  0.2781  0.5982 -0.1559
    3OL    H15R 1999   3.682   4.529   4.701 -0.3547  0.3442  1.1269
    3OL    H15S 2000   3.676   4.415   4.561  1.4159 -4.0823  0.3587
    3OL    C116 2001   3.760   4.343   4.748 -0.1730  0.1648 -0.0426
    3OL    H16R 2002   3.730   4.368   4.851 -1.1006  3.4980 -0.9772
    3OL    H16S 2003   3.860   4.386   4.743  0.5076 -1.1707  1.2194
    3OL    C117 2004   3.768   4.192   4.722 -0.4562  0.2188 -0.4527
    3OL    H17R 2005   3.802   4.174   4.620 -1.6225 -1.6196 -0.5659
    3OL    H17S 2006   3.677   4.134   4.740  0.3835 -0.9763  0.0872
    3OL    C118 2007   3.874   4.133   4.816 -0.5230  0.1016 -0.4512
    3OL    H18R 2008   3.868   4.025   4.799  1.9705 -0.7388  2.8853
    3OL    H18S 2009   3.850   4.139   4.923  0.2712  0.0459 -0.2661
    3OL    H18T 2010   3.973   4.177   4.805 -0.8609  0.7640 -0.8988
    1PA    C116 2011   2.201   2.520   4.607  0.2075  0.0671  0.3433
    1PA    H16R 2012   2.253   2.611   4.576 -1.3705  0.1839 -2.1869
    1PA    H16S 2013   2.102   2.548   4.643 -0.2131 -1.2174  0.2479
    1PA    H16T 2014   2.190   2.457   4.519  2.6545 -0.0028  0.0161
    1PA    C115 2015   2.268   2.436   4.717  0.1710 -0.1475  0.2011
    1PA    H15R 2016   2.262   2.484   4.814 -0.0760  0.1415  0.0429
    1PA    H15S 2017   2.216   2.340   4.722 -0.9502  0.3026 -1.6726
    1PA    C114 2018   2.414   2.426   4.668  0.0935  0.3771 -0.1462
    1PA    H14R 2019   2.419   2.394   4.564 -2.1520 -0.4026 -0.0687
    1PA    H14S 2020   2.466   2.522   4.673  0.8784 -0.0666  0.6209
    1PA    C113 2021   2.499   2.338   4.762 -0.0664 -0.0234 -0.3752
    1PA    H13R 2022   2.488   2.376   4.863  0.8914  1.5303 -0.8161
    1PA    H13S 2023   2.465   2.235   4.773 -1.6701  0.5798  0.7056
    1PA    C112 2024   2.649   2.345   4.731 -0.0413  0.6188 -0.1391
    1PA    H12R 2025   2.670   2.306   4.631  1.0925 -0.1195  0.3673
    1PA    H12S 2026   2.691   2.445   4.727  0.0847  0.5757  0.0958
    1PA    C111 2027   2.720   2.265   4.841 -0.5004 -0.1488 -0.3927
    1PA    H11R 2028   2.717   2.326   4.931  3.2083  0.9895 -0.8830
    1PA    H11S 2029   2.685   2.165   4.870  1.6529 -0.4013  1.6344
    1PA    C110 2030   2.872   2.259   4.820 -0.4571  0.1796 -0.1731
    1PA    H10R 2031   2.892   2.195   4.734 -1.4165  0.2028 -0.4298
    1PA    H10S 2032   2.907   2.358   4.790  1.1961  0.5743  2.6619
    1PA     C19 2033   2.947   2.202   4.941 -0.7805 -0.2697 -0.1801
    1PA     H9R 2034   3.054   2.209   4.923 -1.0202 -1.2160 -2.2367
    1PA     H9S 2035   2.920   2.254   5.034  3.1410  0.2112  0.8770
    1PA     C18 2036   2.911   2.054   4.957  0.5046 -0.5757 -0.0464
    1PA     H8R 2037   2.804   2.049   4.979  0.0505 -1.2809 -2.0858
    1PA     H8S 2038   2.933   2.002   4.863 -0.2950  0.7126 -0.9858
    1PA     C17 2039   2.996   1.993   5.070  0.1178  0.0865  0.6062
    1PA     H7R 2040   3.099   2.023   5.048 -0.7826  2.9017 -0.3579
    1PA     H7S 2041   2.960   2.027   5.167 -0.2616 -2.4178  1.4129
    1PA     C16 2042   2.978   1.841   5.058 -0.0205  0.1824 -0.5433
    1PA     H6R 2043   2.870   1.821   5.063 -0.0220  0.5168  2.0101
    1PA     H6S 2044   3.013   1.803   4.962 -1.5512 -2.7008 -0.0552
    1PA     C15 2045   3.041   1.774   5.180  0.0617  0.2437 -0.5517
    1PA     H5R 2046   3.140   1.813   5.201  1.0669 -2.5051  0.3097
    1PA     H5S 2047   2.983   1.797   5.270 -1.4376 -1.3231 -1.0689
    1PA     C14 2048   3.033   1.622   5.162 -0.3799  0.1517  0.3159
    1PA     H4R 2049   2.955   1.591   5.092  0.5750  3.0087 -2.2629
    1PA     H4S 2050   3.124   1.590   5.109  0.6040  2.6571  0.3845
    1PA     C13 2051   3.022   1.549   5.296  0.3982  0.0964  0.3582
    1PA     H3R 2052   3.089   1.588   5.373  1.2932  1.4105 -1.0310
    1PA     H3S 2053   2.922   1.564   5.338  1.2528  2.9098  1.6894
    1PA     C12 2054   3.069   1.404   5.285  0.3868  0.0690  0.6475
    1PA     H2R 2055   3.012   1.355   5.205 -0.6324 -0.5900  1.7422
    1PA     H2S 2056   3.176   1.401   5.262 -0.0927 -0.7775 -1.7206
    2PC     C11 2057   3.051   1.335   5.418 -0.2217 -0.3792  0.3375
    2PC     O12 2058   3.142   1.317   5.496 -0.3857 -0.3138  0.5455
    2PC     O11 2059   2.926   1.293   5.443 -0.4586  0.1426  0.0417
    2PC      C1 2060   2.911   1.211   5.560 -0.0593  0.1891  0.1267
    2PC      HR 2061   2.977   1.125   5.546 -2.2129 -1.8076  1.5328
    2PC      HS 2062   2.935   1.278   5.643 -0.3234 -1.4332  1.5569
    2PC      C2 2063   2.767   1.162   5.577 -0.0735  0.1746 -0.0381
    2PC      HX 2064   2.698   1.240   5.543 -2.3263 -0.6140  2.3819
    2PC      C3 2065   2.733   1.116   5.719 -0.1474  0.1995 -0.0479
    2PC      HA 2066   2.694   1.196   5.782  2.9571  1.8657 -0.0381
    2PC      HB 2067   2.651   1.044   5.706  0.0804 -0.9843  3.6944
    2PC     O31 2068   2.849   1.066   5.789 -0.2524 -0.1182 -0.0959
    2PC     P31 2069   2.838   1.008   5.938 -0.1841  0.0597 -0.0212
    2PC     O32 2070   2.905   0.866   5.908  0.6027  0.2205  0.9221
    2PC     C31 2071   2.834   0.741   5.899  0.0340  0.5999 -0.0833
    2PC     H1A 2072   2.816   0.701   6.000 -0.3811 -2.8991 -1.3946
    2PC     H1B 2073   2.735   0.752   5.856  0.2362  1.4316 -0.3376
    2PC     C32 2074   2.906   0.641   5.807 -0.9529 -0.0139 -0.2021
    2PC     H2A 2075   3.005   0.621   5.848 -1.4980  0.1855  1.2665
    2PC     H2B 2076   2.844   0.552   5.817  0.6072 -1.1532 -0.3288
    2PC     N31 2077   2.918   0.681   5.663 -0.1560  0.2315 -0.0732
    2PC     C33 2078   3.034   0.774   5.646 -0.2050  0.2682 -0.2099
    2PC     H3A 2079   3.019   0.864   5.706  0.0319 -0.3019  0.7176
    2PC     H3B 2080   3.125   0.726   5.681  1.1245  2.9503  0.2569
    2PC     H3C 2081   3.041   0.797   5.540 -3.8541  0.2821 -0.5583
    2PC     C34 2082   2.942   0.560   5.578 -0.8686  0.1366 -0.1485
    2PC     H4A 2083   3.049   0.539   5.584 -0.5101  1.0447 -2.3727
    2PC     H4B 2084   2.863   0.486   5.582 -2.4241  1.6204 -1.4341
    2PC     H4C 2085   2.927   0.592   5.474 -1.2835 -0.9908 -0.4449
    2PC     C35 2086   2.784   0.735   5.620 -0.2114  0.4063  0.3152
    2PC     H5A 2087   2.767   0.832   5.667 -2.0536 -0.2872  1.1618
    2PC     H5B 2088   2.713   0.659   5.652  2.2665 -2.5843 -0.7717
    2PC     H5C 2089   2.778   0.730   5.511  0.0697 -0.3119  0.3219
    2PC     O33 2090   2.901   1.102   6.034 -0.2508  0.3551 -0.2643
    2PC     O34 2091   2.695   1.004   5.973 -0.2190 -0.2801 -0.2047
    2PC     O21 2092   2.752   1.042   5.498 -0.4812 -0.0089  0.3149
    2PC     C21 2093   2.718   1.057   5.369  0.0298 -0.1455  0.1634
    2PC     O22 2094   2.702   1.160   5.307  0.9619 -0.1982 -0.1848
    3OL     C12 2095   2.728   0.926   5.295 -0.0948  0.0216 -0.1493
    3OL     H2R 2096   2.675   0.929   5.199 -0.8206  0.9392  0.2664
    3OL     H2S 2097   2.665   0.863   5.357  1.2573 -1.0731  0.1566
    3OL     C13 2098   2.868   0.862   5.291 -0.2975 -0.3978 -0.7135
    3OL     H3R 2099   2.892   0.834   5.394  1.6530  1.4502 -0.5824
    3OL     H3S 2100   2.945   0.930   5.254 -2.5664  2.4221 -0.6892
    3OL     C14 2101   2.865   0.738   5.201  0.3482 -0.8251 -0.1537
    3OL     H4R 2102   2.772   0.681   5.197  0.9035 -1.8479  0.9901
    3OL     H4S 2103   2.938   0.666   5.240 -1.1075 -1.5364  1.3431
    3OL     C15 2104   2.911   0.767   5.057  0.2218 -0.0502 -0.0434
    3OL     H5R 2105   3.002   0.826   5.070  0.0397  0.0479  0.8769
    3OL     H5S 2106   2.835   0.826   5.006 -0.9253 -0.4352  1.1430
    3OL     C16 2107   2.937   0.633   4.986  0.1309 -0.0770 -0.0270
    3OL     H6R 2108   2.961   0.555   5.058 -0.9461  0.5021  0.9926
    3OL     H6S 2109   3.025   0.658   4.927  1.8179 -3.3497  0.9044
    3OL     C17 2110   2.812   0.593   4.906 -0.0920 -0.0342  0.3002
    3OL     H7R 2111   2.803   0.675   4.835 -1.3399  1.6192  2.2607
    3OL     H7S 2112   2.718   0.583   4.961  1.7883 -1.2976  3.6274
    3OL     C18 2113   2.841   0.464   4.829 -0.0413  0.2135 -0.0954
    3OL     H8R 2114   2.776   0.451   4.742 -0.3640 -1.3311  0.3316
    3OL     H8S 2115   2.814   0.378   4.891 -1.2649 -0.1089 -1.0341
    3OL     C19 2116   2.983   0.453   4.780  0.0049 -0.0183  0.0872
    3OL     H9R 2117   3.060   0.432   4.854  0.9257  1.7612 -0.2890
    3OL    C110 2118   3.031   0.510   4.670  0.3057 -0.0789  0.1855
    3OL    H10R 2119   3.139   0.513   4.654  0.5289  0.1947  1.6414
    3OL    C111 2120   2.953   0.562   4.552  0.0102  0.4388  0.6061
    3OL    H11R 2121   2.844   0.557   4.563 -0.2767  3.2242 -0.1762
    3OL    H11S 2122   2.984   0.501   4.467  0.6960  1.6214 -0.0194
    3OL    C112 2123   2.993   0.705   4.513  0.5983  0.0661 -0.1819
    3OL    H12R 2124   3.098   0.712   4.486  0.0541 -0.2294 -2.6816
    3OL    H12S 2125   2.977   0.760   4.606  0.1657  0.2337 -0.3513
    3OL    C113 2126   2.911   0.773   4.402  0.0250  0.2021  0.3216
    3OL    H13R 2127   2.917   0.882   4.405  1.4858  0.2351 -2.0646
    3OL    H13S 2128   2.805   0.756   4.422 -0.2217  0.8527 -0.3740
    3OL    C114 2129   2.947   0.724   4.262 -0.0250  0.5508  0.1851
    3OL    H14R 2130   2.932   0.616   4.253 -1.2617  0.6730  0.6466
    3OL    H14S 2131   3.049   0.742   4.227 -0.9590  1.8006 -2.1183
    3OL    C115 2132   2.861   0.780   4.148 -0.3371 -0.2367  0.0252
    3OL    H15R 2133   2.888   0.885   4.137 -1.6402 -0.0343 -1.8127
    3OL    H15S 2134   2.755   0.768   4.170 -0.2357 -0.2544  0.5023
    3OL    C116 2135   2.892   0.710   4.015  0.1470  0.1207 -0.0536
    3OL    H16R 2136   2.881   0.601   4.008  1.2415  0.0005 -0.0769
    3OL    H16S 2137   2.997   0.734   3.995  0.4066 -0.6478  0.3049
    3OL    C117 2138   2.793   0.766   3.912 -0.0517  0.6048  0.3984
    3OL    H17R 2139   2.808   0.874   3.908 -0.3392  0.5978 -1.9481
    3OL    H17S 2140   2.690   0.737   3.935 -0.8724  2.7375 -0.2907
    3OL    C118 2141   2.819   0.701   3.775 -0.1020  0.3726  0.4978
    3OL    H18R 2142   2.733   0.709   3.708  0.4169 -1.7464 -0.4949
    3OL    H18S 2143   2.838   0.595   3.789  2.3503  0.9438  2.1227
    3OL    H18T 2144   2.900   0.750   3.721 -3.0477  3.2070 -1.7752
    1PA    C116 2145   3.798   6.042   4.150 -0.3598 -0.1924 -0.6229
    1PA    H16R 2146   3.883   6.053   4.218  0.9322 -0.7472 -2.0766
    1PA    H16S 2147   3.818   5.980   4.062  0.5698 -0.1005 -0.4838
    1PA    H16T 2148   3.711   6.002   4.201  0.2221  2.6005  2.9153
    1PA    C115 2149   3.763   6.181   4.093  0.4620  0.1413 -0.3347
    1PA    H15R 2150   3.839   6.222   4.027 -0.1508 -1.1624 -1.9289
    1PA    H15S 2151   3.674   6.154   4.035  0.3574 -0.7975  0.2305
    1PA    C114 2152   3.709   6.267   4.209 -0.0792 -0.3420 -0.2217
    1PA    H14R 2153   3.658   6.352   4.163 -0.3360 -0.9171 -1.0315
    1PA    H14S 2154   3.645   6.200   4.267  1.3632 -3.3004 -1.7998
    1PA    C113 2155   3.817   6.323   4.302 -0.3799 -0.0944 -0.0196
    1PA    H13R 2156   3.861   6.237   4.353 -2.8196  0.3853  3.1684
    1PA    H13S 2157   3.887   6.367   4.230 -2.5883  0.4169 -1.9461
    1PA    C112 2158   3.769   6.431   4.400 -0.2794  0.0515 -0.1297
    1PA    H12R 2159   3.693   6.496   4.357 -0.1086  1.2150  1.2653
    1PA    H12S 2160   3.703   6.377   4.468 -1.3061  1.1792 -0.1920
    1PA    C111 2161   3.877   6.509   4.475 -0.4152  0.1641 -0.0523
    1PA    H11R 2162   3.956   6.451   4.524 -1.5303  0.9797  2.9781
    1PA    H11S 2163   3.916   6.568   4.392 -0.0897  2.0186  1.3252
    1PA    C110 2164   3.812   6.604   4.577 -0.4938 -0.0516  0.0981
    1PA    H10R 2165   3.758   6.687   4.531 -1.3347 -0.0248  1.0859
    1PA    H10S 2166   3.730   6.553   4.629  0.7806 -1.6824  0.5694
    1PA     C19 2167   3.918   6.676   4.661 -0.1873 -0.4366  0.0459
    1PA     H9R 2168   3.981   6.596   4.700 -1.5953 -1.3069  0.5930
    1PA     H9S 2169   3.982   6.727   4.588 -0.0375 -1.5947 -0.6505
    1PA     C18 2170   3.861   6.760   4.776  0.2778 -0.2735  0.1600
    1PA     H8R 2171   3.841   6.860   4.738 -2.9288 -1.0068 -0.4104
    1PA     H8S 2172   3.760   6.722   4.792 -0.6413  2.3658  1.2005
    1PA     C17 2173   3.939   6.749   4.908 -0.1641  0.2728  0.4712
    1PA     H7R 2174   3.877   6.786   4.991  1.5823 -1.8924  2.9066
    1PA     H7S 2175   3.949   6.642   4.927  0.6476  0.2984  0.2166
    1PA     C16 2176   4.076   6.816   4.909 -0.0134 -0.0110 -0.5052
    1PA     H6R 2177   4.136   6.776   4.826  0.7426 -0.5804  0.2994
    1PA     H6S 2178   4.077   6.925   4.896 -0.3500 -0.2032 -2.4409
    1PA     C15 2179   4.149   6.775   5.037 -0.0862  0.2255 -0.3863
    1PA     H5R 2180   4.092   6.805   5.125  1.6899  1.2420  0.4795
    1PA     H5S 2181   4.157   6.666   5.043 -1.9751  0.0661 -0.2335
    1PA     C14 2182   4.286   6.842   5.051 -0.1737  0.3079  0.1094
    1PA     H4R 2183   4.359   6.795   4.984 -0.0357 -2.1128  1.8420
    1PA     H4S 2184   4.275   6.947   5.022 -0.7036  0.5771  1.2410
    1PA     C13 2185   4.332   6.835   5.197  0.2806 -0.2472 -0.0562
    1PA     H3R 2186   4.398   6.919   5.215 -0.6133  0.1059  1.8980
    1PA     H3S 2187   4.250   6.857   5.266 -0.9063 -0.5342 -1.3336
    1PA     C12 2188   4.399   6.699   5.218  0.4859 -0.0428  0.6320
    1PA     H2R 2189   4.331   6.623   5.180  1.1672  0.1284 -1.0294
    1PA     H2S 2190   4.491   6.685   5.161  1.1194 -0.2857  1.6802
    2PC     C11 2191   4.436   6.671   5.362 -0.0558  0.2133  0.8198
    2PC     O12 2192   4.433   6.764   5.441 -0.1042  0.4572  0.5321
    2PC     O11 2193   4.468   6.543   5.386 -0.2805  0.0458  0.2507
    2PC      C1 2194   4.479   6.492   5.520 -0.1403  0.0462  0.2400
    2PC      HR 2195   4.501   6.386   5.504  3.6202  0.7703 -0.0994
    2PC      HS 2196   4.560   6.537   5.577  1.7789  0.1982 -2.4412
    2PC      C2 2197   4.346   6.500   5.597 -0.2624  0.3869 -0.0065
    2PC      HX 2198   4.323   6.607   5.591  0.1705  0.4448 -0.7508
    2PC      C3 2199   4.335   6.448   5.741  0.2359 -0.0238 -0.1176
    2PC      HA 2200   4.329   6.338   5.738  2.6325 -0.2291  0.2164
    2PC      HB 2201   4.426   6.476   5.795 -1.3214  2.9864  1.1448
    2PC     O31 2202   4.224   6.504   5.811  0.3138  0.1999 -0.1736
    2PC     P31 2203   4.188   6.465   5.962  0.2178  0.2399 -0.1858
    2PC     O32 2204   4.065   6.562   5.999  0.1750  0.1039  0.0326
    2PC     C31 2205   3.969   6.511   6.093 -0.4037  0.0332 -0.5970
    2PC     H1A 2206   3.924   6.415   6.064 -1.7913  0.7882 -1.0656
    2PC     H1B 2207   4.018   6.503   6.190  1.6678 -1.5206 -1.6791
    2PC     C32 2208   3.845   6.599   6.111 -0.3180 -0.0036  0.1826
    2PC     H2A 2209   3.773   6.559   6.039 -0.1305  1.6991 -1.0012
    2PC     H2B 2210   3.821   6.560   6.210  0.4779 -1.4355 -0.1626
    2PC     N31 2211   3.858   6.748   6.100 -0.1451 -0.0394 -0.0869
    2PC     C33 2212   3.943   6.789   6.216 -0.1932 -0.0210 -0.0581
    2PC     H3A 2213   3.910   6.889   6.244 -1.3983 -0.6875  0.9947
    2PC     H3B 2214   3.916   6.737   6.309  1.0832  0.6559  0.7186
    2PC     H3C 2215   4.050   6.797   6.193 -0.3166 -1.9880 -1.5993
    2PC     C34 2216   3.924   6.797   5.974  0.3171 -0.0162  0.1609
    2PC     H4A 2217   3.899   6.902   5.958 -0.2583 -0.3377 -1.1964
    2PC     H4B 2218   4.030   6.783   5.995  0.2432  2.2662  2.4652
    2PC     H4C 2219   3.881   6.734   5.895  0.6415  0.2456 -0.2285
    2PC     C35 2220   3.720   6.806   6.100  0.1694  0.7280  0.1687
    2PC     H5A 2221   3.659   6.776   6.185 -2.0751  1.0027 -1.2418
    2PC     H5B 2222   3.664   6.762   6.017 -0.9917  0.4082  1.0861
    2PC     H5C 2223   3.731   6.914   6.094  1.7741  0.5610 -0.3010
    2PC     O33 2224   4.160   6.320   5.971 -0.1836  0.3143 -0.2094
    2PC     O34 2225   4.292   6.504   6.060 -0.0515  0.0461  0.1843
    2PC     O21 2226   4.244   6.428   5.524  0.0720  0.1136 -0.2061
    2PC     C21 2227   4.143   6.502   5.474  0.3814  0.5462 -0.1992
    2PC     O22 2228   4.119   6.620   5.487  0.0174  0.4252  0.2463
    3OL     C12 2229   4.057   6.417   5.384  0.3650  0.3890 -0.0384
    3OL     H2R 2230   4.040   6.319   5.428  0.1527 -0.1022 -1.1695
    3OL     H2S 2231   4.116   6.392   5.295 -1.8127 -1.7072 -0.9998
    3OL     C13 2232   3.930   6.485   5.330  0.4933  0.5067 -0.1941
    3OL     H3R 2233   3.952   6.556   5.250 -0.6678  1.5775  0.4223
    3OL     H3S 2234   3.884   6.537   5.413  0.9538  1.7768 -0.7142
    3OL     C14 2235   3.830   6.387   5.267  0.1317  0.2794  0.7152
    3OL     H4R 2236   3.768   6.345   5.346  0.7875  0.1362  1.1662
    3OL     H4S 2237   3.874   6.295   5.226 -0.9380 -0.5507  1.3700
    3OL     C15 2238   3.733   6.434   5.158  0.7143  0.1468  0.1247
    3OL     H5R 2239   3.707   6.537   5.184 -2.9307 -0.1804 -1.5290
    3OL     H5S 2240   3.633   6.393   5.175  0.5745  0.9523  1.3520
    3OL     C16 2241   3.793   6.425   5.017 -0.9401 -0.3338 -0.5775
    3OL     H6R 2242   3.902   6.432   5.027 -1.0286  2.0929 -0.7887
    3OL     H6S 2243   3.773   6.521   4.969  1.1828  0.2896 -0.3154
    3OL     C17 2244   3.739   6.301   4.945 -1.2849 -0.4332 -0.1526
    3OL     H7R 2245   3.633   6.321   4.927 -1.4711 -0.2148  1.1167
    3OL     H7S 2246   3.747   6.215   5.013  0.7122 -0.7793 -0.7539
    3OL     C18 2247   3.811   6.278   4.812  0.0323  0.3812  0.4038
    3OL     H8R 2248   3.909   6.237   4.837  1.3928  3.0282 -0.1821
    3OL     H8S 2249   3.817   6.376   4.763 -2.1904 -0.5251 -1.8959
    3OL     C19 2250   3.730   6.187   4.724  0.4553  0.2857  0.1073
    3OL     H9R 2251   3.643   6.234   4.680 -0.2489 -0.1321  1.0170
    3OL    C110 2252   3.757   6.063   4.684 -0.1729  0.1652  0.0373
    3OL    H10R 2253   3.683   6.024   4.615 -1.4218  3.7197 -0.8764
    3OL    C111 2254   3.869   5.980   4.741 -0.2656 -0.2068 -0.3144
    3OL    H11R 2255   3.834   5.894   4.798  0.1198  1.9247  3.5138
    3OL    H11S 2256   3.928   6.032   4.817  0.5321 -1.5990  0.0580
    3OL    C112 2257   3.978   5.933   4.644  0.2362 -0.1184  0.1999
    3OL    H12R 2258   3.934   5.855   4.582  0.4313 -2.2658  2.6116
    3OL    H12S 2259   4.067   5.886   4.688  1.9076  1.2822 -1.5263
    3OL    C113 2260   4.028   6.038   4.544  0.1930 -0.1153  0.1811
    3OL    H13R 2261   4.048   6.135   4.589  0.6913 -1.7192  3.7326
    3OL    H13S 2262   3.944   6.051   4.475  0.0569 -0.6985  0.2300
    3OL    C114 2263   4.152   5.984   4.472 -0.0112 -0.5676  0.1659
    3OL    H14R 2264   4.133   5.911   4.393 -0.2461  0.7151 -0.9961
    3OL    H14S 2265   4.226   5.936   4.537  1.9378  0.1256 -1.4304
    3OL    C115 2266   4.237   6.096   4.411  0.3136 -0.6983  0.3710
    3OL    H15R 2267   4.330   6.047   4.383  0.2047 -0.1353 -1.0837
    3OL    H15S 2268   4.257   6.171   4.489 -1.4139 -0.0248  0.2149
    3OL    C116 2269   4.177   6.166   4.288  0.3706 -0.3137  0.5598
    3OL    H16R 2270   4.083   6.219   4.305  0.1078 -0.3654 -0.6578
    3OL    H16S 2271   4.149   6.084   4.221  0.9618 -0.7705  0.8623
    3OL    C117 2272   4.267   6.266   4.214 -0.2977 -0.0349  0.1186
    3OL    H17R 2273   4.234   6.265   4.109 -0.7531 -2.0608  0.2330
    3OL    H17S 2274   4.372   6.239   4.218 -0.1858  0.0427 -1.5227
    3OL    C118 2275   4.247   6.405   4.276 -0.0593  0.2921 -0.5313
    3OL    H18R 2276   4.269   6.407   4.383 -2.6898  1.3857  0.0436
    3OL    H18S 2277   4.149   6.448   4.257 -1.6924 -2.8516  0.2087
    3OL    H18T 2278   4.327   6.460   4.225  1.4525 -2.8168 -1.7649
    1PA    C116 2279   5.874   5.148   4.031  0.5548  0.0463 -0.1260
    1PA    H16R 2280   5.963   5.085   4.038  0.7747  0.3133 -0.5104
    1PA    H16S 2281   5.859   5.196   3.935 -1.5065  0.4146  0.3236
    1PA    H16T 2282   5.786   5.086   4.053  0.0823  0.2808 -1.3085
    1PA    C115 2283   5.891   5.256   4.139  0.0893 -0.1595  0.1614
    1PA    H15R 2284   5.979   5.313   4.108  0.3922 -1.0284 -0.6371
    1PA    H15S 2285   5.810   5.328   4.145  0.2855  0.0400  0.4450
    1PA    C114 2286   5.906   5.194   4.278  0.1859  0.1810  0.3026
    1PA    H14R 2287   5.823   5.128   4.303  0.8621  0.4530  3.8121
    1PA    H14S 2288   5.999   5.137   4.284 -0.0866 -0.1458  2.2231
    1PA    C113 2289   5.922   5.301   4.388  0.1663  0.1605  0.3252
    1PA    H13R 2290   5.828   5.355   4.403  0.4219  0.7323 -0.0822
    1PA    H13S 2291   5.937   5.251   4.484  1.0781  0.5605  0.4010
    1PA    C112 2292   6.040   5.397   4.372  0.3980 -0.1169  0.3564
    1PA    H12R 2293   6.129   5.337   4.350  0.6453  0.7777 -1.2889
    1PA    H12S 2294   6.028   5.459   4.282  1.5585  0.0980  0.3355
    1PA    C111 2295   6.058   5.482   4.498  0.0196 -0.0243  0.3501
    1PA    H11R 2296   6.066   5.418   4.587  0.7629  1.8969  1.7430
    1PA    H11S 2297   6.152   5.537   4.487 -0.3738  0.2266 -2.2270
    1PA    C110 2298   5.961   5.600   4.509  0.3549  0.3025 -0.1743
    1PA    H10R 2299   5.972   5.675   4.430 -4.5444  1.7740  0.2139
    1PA    H10S 2300   5.856   5.577   4.491  0.3514  0.2595 -0.0982
    1PA     C19 2301   5.966   5.669   4.646  0.0299 -0.3130  0.1514
    1PA     H9R 2302   6.069   5.673   4.682 -0.3449 -0.2204  1.2500
    1PA     H9S 2303   5.930   5.772   4.637 -0.7591 -0.6424 -0.5433
    1PA     C18 2304   5.873   5.592   4.741 -0.1543  0.2012  0.3931
    1PA     H8R 2305   5.773   5.568   4.706  0.6695 -1.3871 -1.0727
    1PA     H8S 2306   5.916   5.494   4.763 -1.0237 -0.0746  0.9119
    1PA     C17 2307   5.865   5.659   4.879  0.0780  0.6150  0.2065
    1PA     H7R 2308   5.817   5.757   4.874 -0.4242  0.3757  0.2727
    1PA     H7S 2309   5.813   5.596   4.951  1.4930  0.4527  1.1293
    1PA     C16 2310   5.999   5.658   4.954  0.2275  0.1566 -0.0617
    1PA     H6R 2311   6.054   5.564   4.958  0.2109  0.1884  1.3409
    1PA     H6S 2312   6.074   5.727   4.916 -0.1503  1.3431  1.2756
    1PA     C15 2313   5.969   5.708   5.096 -0.2128  0.3285 -0.2126
    1PA     H5R 2314   5.876   5.670   5.137  0.7605 -0.9231  0.9159
    1PA     H5S 2315   6.050   5.670   5.159  0.6691 -0.7148 -1.9206
    1PA     C14 2316   5.981   5.861   5.092  0.5514  0.2813  0.1740
    1PA     H4R 2317   6.089   5.877   5.082  0.7598 -0.8624  0.4591
    1PA     H4S 2318   5.930   5.913   5.011 -0.5350 -1.3564 -0.2274
    1PA     C13 2319   5.918   5.921   5.219  0.2859 -0.0429  0.1951
    1PA     H3R 2320   5.889   6.025   5.204 -1.1267 -0.2343  1.4072
    1PA     H3S 2321   5.832   5.857   5.243  1.0229 -0.5371  1.6176
    1PA     C12 2322   6.011   5.914   5.340  0.1940  0.1842  0.2797
    1PA     H2R 2323   6.028   5.812   5.375  3.2140  1.2333  2.2789
    1PA     H2S 2324   6.112   5.948   5.316 -0.0792  0.2241 -0.8406
    2PC     C11 2325   5.954   5.989   5.458 -0.2273 -0.0830  0.2491
    2PC     O12 2326   5.869   6.074   5.440 -0.0569  0.0781  0.1953
    2PC     O11 2327   5.995   5.952   5.580 -0.2667 -0.6993  0.0793
    2PC      C1 2328   5.965   6.037   5.693  0.4487 -0.0802 -0.1846
    2PC      HR 2329   5.866   6.081   5.676  1.2441  1.2656 -1.6001
    2PC      HS 2330   5.962   5.974   5.782  0.7882  0.5618  0.2829
    2PC      C2 2331   6.060   6.156   5.709  0.0968  0.1416  0.3048
    2PC      HX 2332   6.165   6.125   5.700 -0.2342 -0.7793 -0.6638
    2PC      C3 2333   6.051   6.218   5.849 -0.0341  0.2942  0.2293
    2PC      HA 2334   6.127   6.176   5.914 -0.6900 -0.0749  0.7711
    2PC      HB 2335   6.075   6.322   5.827  0.6578 -0.0323 -0.6324
    2PC     O31 2336   5.918   6.201   5.901 -0.0824 -0.1195 -0.0271
    2PC     P31 2337   5.903   6.213   6.060  0.1455 -0.1790 -0.0015
    2PC     O32 2338   5.996   6.098   6.122  0.0358 -0.2727 -0.0113
    2PC     C31 2339   5.938   5.967   6.109  0.2911 -0.3344 -0.5805
    2PC     H1A 2340   5.849   5.968   6.172 -0.2175 -0.2043 -1.2873
    2PC     H1B 2341   5.896   5.965   6.008  0.1000  1.3591 -0.5611
    2PC     C32 2342   6.032   5.851   6.146 -0.0704 -0.4255  0.0701
    2PC     H2A 2343   5.975   5.760   6.128  0.0141  0.0610 -3.2555
    2PC     H2B 2344   6.124   5.854   6.087 -0.2292  0.4378 -0.1459
    2PC     N31 2345   6.076   5.858   6.289  0.4384 -0.0246 -0.1007
    2PC     C33 2346   6.140   5.729   6.330  0.1337 -0.0873  0.1905
    2PC     H3A 2347   6.241   5.716   6.290 -0.2697 -0.1853 -0.8204
    2PC     H3B 2348   6.134   5.725   6.439 -0.3903 -1.8248  0.1309
    2PC     H3C 2349   6.072   5.648   6.305  1.4285 -0.6692 -1.6878
    2PC     C34 2350   6.180   5.964   6.305  0.3231  0.0759 -0.0165
    2PC     H4A 2351   6.252   5.963   6.224  0.3936  0.1447  0.0451
    2PC     H4B 2352   6.136   6.063   6.290  2.0772  0.7788 -0.7917
    2PC     H4C 2353   6.218   5.953   6.407 -0.8165 -0.2679  0.3873
    2PC     C35 2354   5.962   5.878   6.384  0.4040 -0.3226 -0.0753
    2PC     H5A 2355   5.885   5.803   6.368  1.2910 -1.4362  0.7604
    2PC     H5B 2356   5.928   5.981   6.366  0.2216 -0.6713 -1.8783
    2PC     H5C 2357   5.998   5.858   6.485 -3.7233 -2.8761  1.1406
    2PC     O33 2358   5.951   6.348   6.099 -0.0203 -0.0452 -0.2540
    2PC     O34 2359   5.759   6.199   6.091  0.2891  0.0268  0.7664
    2PC     O21 2360   6.032   6.251   5.604  0.0176 -0.0721  0.1308
    2PC     C21 2361   6.099   6.235   5.489 -0.0779  0.3679  0.0123
    2PC     O22 2362   6.178   6.145   5.466 -0.6306 -0.0928 -0.0867
    3OL     C12 2363   6.051   6.337   5.390  0.2739  0.3296 -0.2028
    3OL     H2R 2364   6.104   6.430   5.414  1.3662 -0.4938  0.6811
    3OL     H2S 2365   5.942   6.347   5.399  0.1511  2.3067 -2.7029
    3OL     C13 2366   6.084   6.294   5.247  1.3124  0.9358 -0.1534
    3OL     H3R 2367   6.076   6.187   5.228  2.0992  0.9957 -0.9214
    3OL     H3S 2368   6.189   6.312   5.222  1.4746  1.1988  0.6884
    3OL     C14 2369   5.997   6.374   5.148  0.0760 -0.1882 -0.0054
    3OL     H4R 2370   6.001   6.483   5.160 -0.3621 -0.3578  2.1309
    3OL     H4S 2371   5.892   6.344   5.150  0.1643 -0.6450 -1.4294
    3OL     C15 2372   6.042   6.343   5.005  0.7536 -0.2545  0.2172
    3OL     H5R 2373   5.951   6.366   4.949  1.5877 -1.4403 -1.7252
    3OL     H5S 2374   6.063   6.238   4.985 -1.3262 -0.5783 -0.4914
    3OL     C16 2375   6.154   6.438   4.959 -0.2826  0.5702 -0.6390
    3OL     H6R 2376   6.241   6.399   5.010  1.3827  2.5926 -1.7825
    3OL     H6S 2377   6.144   6.540   4.998  0.4106 -0.0728  1.3430
    3OL     C17 2378   6.186   6.434   4.809 -0.1313 -0.4849 -0.5868
    3OL     H7R 2379   6.096   6.474   4.760 -0.4383 -2.6632 -1.9018
    3OL     H7S 2380   6.198   6.329   4.782  1.0184 -0.1039 -1.6522
    3OL     C18 2381   6.309   6.512   4.761  0.0094 -0.3574 -0.0298
    3OL     H8R 2382   6.400   6.452   4.764  0.1011 -0.3242 -1.4761
    3OL     H8S 2383   6.333   6.605   4.813  0.6092 -0.2152 -0.5419
    3OL     C19 2384   6.272   6.542   4.617 -0.2067 -0.3810  0.0203
    3OL     H9R 2385   6.210   6.630   4.603  0.3891  0.1476  0.6111
    3OL    C110 2386   6.292   6.460   4.515 -0.5816 -0.4453 -0.0008
    3OL    H10R 2387   6.259   6.487   4.415  1.4987 -1.4924 -1.0217
    3OL    C111 2388   6.359   6.326   4.525  0.0024 -0.1781 -0.2972
    3OL    H11R 2389   6.303   6.262   4.593 -2.0676  0.2620 -1.5158
    3OL    H11S 2390   6.462   6.344   4.557  1.1766 -1.1116 -3.2467
    3OL    C112 2391   6.352   6.244   4.395  0.6913 -0.2871 -0.2716
    3OL    H12R 2392   6.248   6.215   4.383  0.2587  0.9708  0.2006
    3OL    H12S 2393   6.407   6.152   4.413  1.0763  0.0357  0.2594
    3OL    C113 2394   6.398   6.319   4.269 -0.1455  0.4339 -0.1652
    3OL    H13R 2395   6.504   6.346   4.269 -0.8688  3.5987 -1.0960
    3OL    H13S 2396   6.335   6.407   4.270  0.0907  0.6094 -0.5045
    3OL    C114 2397   6.372   6.234   4.144  0.3270  0.2873 -0.1679
    3OL    H14R 2398   6.265   6.212   4.141  0.7845 -2.1423 -0.6825
    3OL    H14S 2399   6.426   6.140   4.150 -0.0016  0.2041  2.0158
    3OL    C115 2400   6.415   6.304   4.013  0.0827  0.4770 -0.1478
    3OL    H15R 2401   6.523   6.312   4.023  0.0996  0.0695  0.0477
    3OL    H15S 2402   6.382   6.408   4.005 -0.8594  0.2176  0.1814
    3OL    C116 2403   6.373   6.229   3.886 -0.3860  0.0010  0.2791
    3OL    H16R 2404   6.269   6.200   3.902 -0.7841  0.1154 -1.8326
    3OL    H16S 2405   6.442   6.145   3.886  0.4284  0.6556  1.2227
    3OL    C117 2406   6.405   6.316   3.763  0.1814  0.1583  0.5338
    3OL    H17R 2407   6.349   6.410   3.764 -1.7660 -0.7569  5.1283
    3OL    H17S 2408   6.374   6.255   3.678 -1.9765  2.8594 -0.7851
    3OL    C118 2409   6.554   6.351   3.750  0.1468 -0.0933 -0.5917
    3OL    H18R 2410   6.622   6.271   3.720  0.7202  0.6299 -1.2538
    3OL    H18S 2411   6.587   6.377   3.850 -0.6470  1.5046 -0.7053
    3OL    H18T 2412   6.560   6.436   3.682 -0.9281  0.2950 -0.2244
    1PA    C116 2413   2.650   5.753   4.029  0.1134  0.2812  0.6098
    1PA    H16R 2414   2.587   5.839   4.004 -1.3723 -0.6742  0.9188
    1PA    H16S 2415   2.636   5.736   4.136 -1.9765  0.2274  0.3721
    1PA    H16T 2416   2.608   5.664   3.983  1.0708 -0.3589  0.9529
    1PA    C115 2417   2.799   5.764   3.995  0.0506  0.0144  0.2520
    1PA    H15R 2418   2.802   5.827   3.906 -0.2492  0.5439  0.6166
    1PA    H15S 2419   2.860   5.822   4.063  1.0421  1.9700 -2.1727
    1PA    C114 2420   2.844   5.618   3.981 -0.1619  0.0258 -0.5816
    1PA    H14R 2421   2.839   5.566   4.077 -1.8240  2.6675  0.8631
    1PA    H14S 2422   2.770   5.572   3.913 -1.3976  1.4066 -0.2132
    1PA    C113 2423   2.980   5.602   3.912  0.1692  0.4883 -0.0388
    1PA    H13R 2424   2.996   5.494   3.917 -0.6717  0.4146  1.6811
    1PA    H13S 2425   2.982   5.615   3.803  0.9509  0.5005 -0.0319
    1PA    C112 2426   3.097   5.685   3.967  0.1683  0.2747  0.2854
    1PA    H12R 2427   3.086   5.786   3.927 -0.5406  0.0092 -0.2264
    1PA    H12S 2428   3.087   5.692   4.075 -2.1550  2.9196  0.0217
    1PA    C111 2429   3.228   5.622   3.918 -0.1066 -0.2548  0.2231
    1PA    H11R 2430   3.231   5.520   3.956 -1.1702 -0.7409 -0.9402
    1PA    H11S 2431   3.223   5.623   3.809 -1.1160 -0.7064  0.2557
    1PA    C110 2432   3.351   5.692   3.979 -0.1796  0.0314  0.0438
    1PA    H10R 2433   3.439   5.634   3.950 -0.4595  0.0081 -0.7889
    1PA    H10S 2434   3.366   5.790   3.933  0.3711  1.4902  3.0959
    1PA     C19 2435   3.346   5.700   4.132 -0.1259 -0.1073  0.0530
    1PA     H9R 2436   3.260   5.753   4.173 -0.2904  1.3223 -1.9707
    1PA     H9S 2437   3.327   5.599   4.170  0.8890 -0.7783 -1.1403
    1PA     C18 2438   3.473   5.749   4.202 -0.1831 -0.0822  0.1382
    1PA     H8R 2439   3.562   5.689   4.183  1.3520  1.9920  0.4411
    1PA     H8S 2440   3.502   5.848   4.165 -0.7128  0.3669  0.8904
    1PA     C17 2441   3.462   5.753   4.355  0.0763  0.1848  0.1507
    1PA     H7R 2442   3.375   5.802   4.398  0.7630  1.3651  0.2476
    1PA     H7S 2443   3.453   5.649   4.387 -0.6481  0.0054 -0.6238
    1PA     C16 2444   3.589   5.803   4.427  0.1244 -0.0400  0.2219
    1PA     H6R 2445   3.674   5.788   4.359 -0.2109 -1.6623  0.1159
    1PA     H6S 2446   3.579   5.909   4.449 -2.0886 -0.4737  1.5758
    1PA     C15 2447   3.616   5.735   4.562  0.1742 -0.2474  0.1094
    1PA     H5R 2448   3.710   5.777   4.597  0.2529 -0.4974  0.1963
    1PA     H5S 2449   3.536   5.745   4.635  1.9577  0.9363  2.0085
    1PA     C14 2450   3.645   5.586   4.543  0.0939 -0.2241 -0.2061
    1PA     H4R 2451   3.559   5.529   4.508  0.7273 -1.7449  0.5934
    1PA     H4S 2452   3.720   5.571   4.465 -0.1741 -1.8977 -0.1832
    1PA     C13 2453   3.691   5.512   4.670  0.2743 -0.0485 -0.1697
    1PA     H3R 2454   3.790   5.554   4.691 -0.0627  1.6891 -1.7575
    1PA     H3S 2455   3.625   5.543   4.752  0.1019  2.1308 -1.0631
    1PA     C12 2456   3.678   5.360   4.656 -0.3318  0.0125 -0.3114
    1PA     H2R 2457   3.572   5.335   4.659 -0.2870 -0.4753 -1.6927
    1PA     H2S 2458   3.722   5.323   4.562  1.5878 -2.1914  1.3296
    2PC     C11 2459   3.733   5.293   4.779 -0.3813  0.0410 -0.2735
    2PC     O12 2460   3.737   5.334   4.893  0.2428 -0.0920 -0.2442
    2PC     O11 2461   3.767   5.167   4.746  0.6535  0.2663 -0.0998
    2PC      C1 2462   3.786   5.077   4.857  0.1866 -0.1092 -0.3225
    2PC      HR 2463   3.816   4.987   4.804 -0.5631 -0.0136 -0.9260
    2PC      HS 2464   3.863   5.122   4.921  1.9273 -0.8104 -1.8315
    2PC      C2 2465   3.650   5.043   4.919  0.3090  0.2327  0.1385
    2PC      HX 2466   3.605   5.137   4.955  0.6952  1.2234 -1.8400
    2PC      C3 2467   3.660   4.959   5.047 -0.1764  0.8143  0.5648
    2PC      HA 2468   3.670   4.853   5.024 -5.0548 -0.2283  2.1229
    2PC      HB 2469   3.749   4.980   5.107  0.8801  1.4150 -1.1357
    2PC     O31 2470   3.542   4.973   5.128 -0.1871  0.7022  0.5689
    2PC     P31 2471   3.549   4.918   5.278  0.1342 -0.0438  0.2862
    2PC     O32 2472   3.567   5.058   5.354  0.9157  0.0017  0.0273
    2PC     C31 2473   3.649   5.052   5.472  0.6971  0.5167  0.2093
    2PC     H1A 2474   3.611   4.970   5.534 -1.9019  1.5348  0.0869
    2PC     H1B 2475   3.751   5.034   5.438  0.7676  0.6514  0.3477
    2PC     C32 2476   3.631   5.192   5.532 -0.1247  0.4102  0.2325
    2PC     H2A 2477   3.729   5.230   5.560  0.9439 -2.6711  1.1025
    2PC     H2B 2478   3.586   5.267   5.467  2.4723  0.8886 -1.1805
    2PC     N31 2479   3.559   5.184   5.663  0.1512 -0.6641  0.3274
    2PC     C33 2480   3.416   5.155   5.629 -0.0451 -0.2028  0.7398
    2PC     H3A 2481   3.411   5.059   5.577  0.9818 -0.1724  0.5635
    2PC     H3B 2482   3.366   5.143   5.725  0.9998 -1.0155  1.2093
    2PC     H3C 2483   3.372   5.230   5.564  1.3986 -0.5966 -0.7620
    2PC     C34 2484   3.625   5.093   5.762 -0.2257 -0.5402  0.6951
    2PC     H4A 2485   3.617   4.989   5.730  1.5481  0.0855 -2.1199
    2PC     H4B 2486   3.733   5.110   5.765 -0.4630  1.3391 -0.0644
    2PC     H4C 2487   3.575   5.104   5.858  0.8831  0.1430  1.2149
    2PC     C35 2488   3.564   5.325   5.715 -0.2166 -0.6607  0.3515
    2PC     H5A 2489   3.668   5.340   5.744  0.0741 -0.3931 -0.7697
    2PC     H5B 2490   3.500   5.338   5.803 -1.3555 -1.3194 -0.3579
    2PC     H5C 2491   3.530   5.395   5.638 -1.9940 -1.4261  0.3810
    2PC     O33 2492   3.422   4.849   5.310  0.0652 -0.0690 -0.0481
    2PC     O34 2493   3.658   4.821   5.303  0.0871 -0.2346 -0.2564
    2PC     O21 2494   3.568   4.978   4.821  0.0600  0.8017 -0.0380
    2PC     C21 2495   3.466   5.044   4.764 -0.3612  0.3290  0.1592
    2PC     O22 2496   3.442   5.162   4.778 -0.2009  0.3786  0.0189
    3OL     C12 2497   3.394   4.957   4.663  0.5332 -0.3112  0.0626
    3OL     H2R 2498   3.363   4.866   4.715 -0.8249 -0.5342 -1.0747
    3OL     H2S 2499   3.465   4.943   4.581  0.8745 -0.3323  0.3592
    3OL     C13 2500   3.274   5.027   4.599  0.6740 -0.1321 -0.0073
    3OL     H3R 2501   3.306   5.107   4.532  0.1830  0.3330  0.3078
    3OL     H3S 2502   3.214   5.076   4.675  2.1604 -0.9355  1.7497
    3OL     C14 2503   3.190   4.923   4.523 -0.0845 -0.1837  0.8857
    3OL     H4R 2504   3.184   4.831   4.582 -1.9347 -0.9223 -0.3465
    3OL     H4S 2505   3.243   4.897   4.431 -1.0427  0.8330  0.0121
    3OL     C15 2506   3.051   4.980   4.493  0.1382 -0.1458 -0.1149
    3OL     H5R 2507   3.059   5.077   4.444 -0.3482 -0.4468 -0.8200
    3OL     H5S 2508   3.001   4.993   4.589 -0.5082  2.5005 -0.7217
    3OL     C16 2509   2.971   4.889   4.397  0.4815 -0.1062 -0.4392
    3OL     H6R 2510   2.972   4.786   4.434 -0.5201 -0.7541 -2.1550
    3OL     H6S 2511   3.011   4.893   4.296  0.0671 -3.1507 -0.8009
    3OL     C17 2512   2.825   4.935   4.403  0.6473  0.4112 -0.2639
    3OL     H7R 2513   2.822   5.041   4.376  0.5408  0.8467  1.3600
    3OL     H7S 2514   2.782   4.929   4.503  0.0826  1.6488 -0.4144
    3OL     C18 2515   2.737   4.851   4.309 -0.0404  0.1057  0.6391
    3OL     H8R 2516   2.764   4.865   4.204  0.0491 -0.4674  0.5809
    3OL     H8S 2517   2.633   4.883   4.316 -0.5886 -1.5744  0.5710
    3OL     C19 2518   2.737   4.705   4.347  0.3130 -0.0950 -0.1112
    3OL     H9R 2519   2.737   4.694   4.455 -1.1734 -0.3591 -0.1101
    3OL    C110 2520   2.760   4.600   4.270  0.6419  0.3285 -0.6021
    3OL    H10R 2521   2.779   4.501   4.311  0.3357  0.9747  1.2120
    3OL    C111 2522   2.757   4.607   4.119 -0.1894 -0.5076 -0.6393
    3OL    H11R 2523   2.710   4.703   4.097  0.5439 -0.3230 -1.4699
    3OL    H11S 2524   2.690   4.537   4.070  0.2817 -1.0791 -0.4754
    3OL    C112 2525   2.901   4.591   4.067  0.0793  0.3532 -0.1838
    3OL    H12R 2526   2.937   4.499   4.112 -1.8056  0.0489  0.7942
    3OL    H12S 2527   2.962   4.675   4.102 -0.1828 -1.1401  4.5164
    3OL    C113 2528   2.911   4.580   3.914 -0.2353  0.2744 -0.1991
    3OL    H13R 2529   2.864   4.662   3.859 -0.8311  1.7797  2.3619
    3OL    H13S 2530   2.861   4.488   3.883 -0.1804 -0.9232  2.9429
    3OL    C114 2531   3.057   4.577   3.869 -0.1969  0.0278 -0.0608
    3OL    H14R 2532   3.109   4.497   3.922  1.2116  2.5124  2.6357
    3OL    H14S 2533   3.108   4.665   3.909 -0.3143 -0.5798  1.4926
    3OL    C115 2534   3.075   4.565   3.717  0.9790 -0.1161  0.0821
    3OL    H15R 2535   2.995   4.616   3.663  0.8787  0.7931  1.0709
    3OL    H15S 2536   3.063   4.462   3.682 -3.7164  0.2814 -0.0315
    3OL    C116 2537   3.211   4.620   3.671  0.8053  0.2792  0.0421
    3OL    H16R 2538   3.292   4.568   3.722 -1.2635 -1.8618  1.3469
    3OL    H16S 2539   3.207   4.724   3.704 -2.0288  0.6025 -1.0124
    3OL    C117 2540   3.233   4.606   3.520  0.1171  0.6970 -0.1034
    3OL    H17R 2541   3.299   4.686   3.487  0.2878  0.9741  0.8823
    3OL    H17S 2542   3.141   4.614   3.463  0.4092 -1.1439 -0.9139
    3OL    C118 2543   3.292   4.468   3.485  0.4116  0.7505  0.1799
    3OL    H18R 2544   3.320   4.443   3.383 -0.0141 -1.8580  0.6491
    3OL    H18S 2545   3.221   4.389   3.508  0.3396  1.4849  2.7486
    3OL    H18T 2546   3.385   4.447   3.539  0.4235 -0.0271 -0.1341
    1PA    C116 2547   5.605   1.990   3.988  0.3309 -0.5171 -0.2578
    1PA    H16R 2548   5.630   1.890   3.953 -0.9524 -0.6635 -0.8006
    1PA    H16S 2549   5.674   2.060   3.939 -1.2047  1.8519  0.7638
    1PA    H16T 2550   5.504   2.006   3.948  0.3735  0.9376  0.1633
    1PA    C115 2551   5.609   1.992   4.141 -0.2078  0.9524 -0.2382
    1PA    H15R 2552   5.564   2.073   4.198 -1.5904 -0.8145  1.3156
    1PA    H15S 2553   5.548   1.906   4.171 -0.8783  1.9984  1.5570
    1PA    C114 2554   5.754   1.972   4.187 -0.3369  0.1531 -0.1587
    1PA    H14R 2555   5.823   2.047   4.149  0.1688  2.0269  3.9045
    1PA    H14S 2556   5.741   1.994   4.294  1.8822 -0.9889  0.3991
    1PA    C113 2557   5.802   1.827   4.168 -0.5099  0.0810 -0.0498
    1PA    H13R 2558   5.774   1.795   4.067 -0.4471  0.9360 -0.3511
    1PA    H13S 2559   5.910   1.821   4.159 -0.3147  3.2245 -1.2987
    1PA    C112 2560   5.753   1.735   4.280  0.1324 -0.4988 -0.2442
    1PA    H12R 2561   5.791   1.772   4.376 -1.7549  2.0690 -0.3963
    1PA    H12S 2562   5.645   1.747   4.275  0.3327  0.9826 -2.4662
    1PA    C111 2563   5.795   1.590   4.250 -0.3349 -0.5633 -0.6001
    1PA    H11R 2564   5.776   1.566   4.145 -1.4220 -0.5752 -0.4129
    1PA    H11S 2565   5.901   1.575   4.274 -0.6703  0.1029  1.5889
    1PA    C110 2566   5.720   1.487   4.335  0.2871 -0.5690 -0.0488
    1PA    H10R 2567   5.614   1.480   4.310  0.3260 -0.4006 -0.2611
    1PA    H10S 2568   5.749   1.388   4.298 -0.5470  0.1908 -2.9307
    1PA     C19 2569   5.753   1.497   4.485  0.8054  0.2938 -0.2182
    1PA     H9R 2570   5.715   1.595   4.517 -0.7364  0.4246 -2.2260
    1PA     H9S 2571   5.697   1.422   4.541  0.4509  1.8728  1.6894
    1PA     C18 2572   5.900   1.466   4.515  0.7774  0.2711 -0.1013
    1PA     H8R 2573   5.913   1.364   4.480 -0.8289 -0.3838  1.0855
    1PA     H8S 2574   5.974   1.530   4.466  1.2773  1.3755  1.9609
    1PA     C17 2575   5.923   1.461   4.667  0.0976  0.2838  0.0050
    1PA     H7R 2576   5.830   1.420   4.708  0.5239 -5.2662 -3.5039
    1PA     H7S 2577   6.013   1.402   4.682 -0.3139 -0.7110 -1.2979
    1PA     C16 2578   5.946   1.597   4.734 -0.0985  0.2214  0.2003
    1PA     H6R 2579   6.042   1.633   4.696  0.0377  0.4428  0.7395
    1PA     H6S 2580   5.879   1.681   4.713  0.5441  0.8286  0.5336
    1PA     C15 2581   5.967   1.576   4.884 -0.1994 -0.3048  0.1399
    1PA     H5R 2582   5.880   1.531   4.934 -0.0841  2.0838  2.7713
    1PA     H5S 2583   6.046   1.501   4.890  0.1726 -0.0832 -1.6285
    1PA     C14 2584   5.996   1.698   4.972  0.1060 -0.1860 -0.1281
    1PA     H4R 2585   6.074   1.761   4.927  0.2058 -0.5155 -0.4222
    1PA     H4S 2586   5.909   1.763   4.982  0.5916  0.5253 -0.3846
    1PA     C13 2587   6.047   1.647   5.107  0.5660  0.4644 -0.0493
    1PA     H3R 2588   5.980   1.570   5.147  0.2631  1.6613  1.8564
    1PA     H3S 2589   6.145   1.599   5.094  0.5719  0.7204 -1.0730
    1PA     C12 2590   6.067   1.756   5.212  0.1618  0.2381  0.2658
    1PA     H2R 2591   6.135   1.833   5.174 -1.0559  1.1484 -0.1434
    1PA     H2S 2592   5.970   1.805   5.222  0.4996  0.8475  0.6620
    2PC     C11 2593   6.107   1.699   5.346 -0.0747 -0.0255  0.2231
    2PC     O12 2594   6.218   1.706   5.396  0.0402 -0.2236 -0.0020
    2PC     O11 2595   6.006   1.628   5.399  0.0004  0.1232  0.5664
    2PC      C1 2596   6.032   1.543   5.512  0.3466 -0.0112  0.3885
    2PC      HR 2597   6.123   1.486   5.493  0.7440  0.5471  0.5966
    2PC      HS 2598   6.042   1.617   5.592  0.0701  1.7086 -1.1109
    2PC      C2 2599   5.913   1.449   5.537  0.3827 -0.0788  0.3115
    2PC      HX 2600   5.834   1.487   5.472 -0.4901 -0.3692  1.1703
    2PC      C3 2601   5.855   1.446   5.679  0.1548  0.0811  0.2229
    2PC      HA 2602   5.930   1.395   5.740  0.5645 -0.1768 -0.4825
    2PC      HB 2603   5.837   1.543   5.726 -1.4910 -0.7585  1.4403
    2PC     O31 2604   5.734   1.369   5.669  0.1304  0.1446  0.0318
    2PC     P31 2605   5.623   1.356   5.784 -0.3173  0.2733 -0.3799
    2PC     O32 2606   5.502   1.319   5.686 -0.6472 -0.1240  0.1735
    2PC     C31 2607   5.508   1.199   5.608 -0.1123 -0.0588  0.1141
    2PC     H1A 2608   5.595   1.199   5.542  0.4042 -1.3955  0.7620
    2PC     H1B 2609   5.504   1.110   5.670 -0.5706 -0.3300 -0.2971
    2PC     C32 2610   5.384   1.202   5.517  0.2393 -0.0046 -0.3670
    2PC     H2A 2611   5.298   1.209   5.584 -0.2049 -1.0414 -0.8241
    2PC     H2B 2612   5.392   1.281   5.442  0.5188 -1.5504 -2.0269
    2PC     N31 2613   5.363   1.077   5.438  0.0416  0.0117 -0.3414
    2PC     C33 2614   5.321   0.962   5.525  0.0352 -0.2014 -0.6251
    2PC     H3A 2615   5.303   0.875   5.461 -1.1353 -0.0136 -0.5720
    2PC     H3B 2616   5.403   0.928   5.588  1.0402  0.3000 -1.6075
    2PC     H3C 2617   5.224   0.990   5.565  1.0744  2.0289  0.4963
    2PC     C34 2618   5.245   1.107   5.351 -0.8164 -0.2040  0.7209
    2PC     H4A 2619   5.166   1.153   5.410 -0.9096  1.9822 -0.9552
    2PC     H4B 2620   5.283   1.184   5.283 -2.2971  0.0603  0.1714
    2PC     H4C 2621   5.222   1.012   5.302  2.7691 -0.2136 -1.3016
    2PC     C35 2622   5.483   1.044   5.354 -0.0206 -0.6016 -0.1966
    2PC     H5A 2623   5.559   0.987   5.407  1.4262  0.4435 -1.0505
    2PC     H5B 2624   5.529   1.135   5.316  0.0777 -1.4302 -2.1964
    2PC     H5C 2625   5.446   1.002   5.260 -0.8132  1.0488 -0.6629
    2PC     O33 2626   5.656   1.245   5.876 -0.2086  0.2951 -0.3915
    2PC     O34 2627   5.600   1.482   5.857  0.1810  0.0039  0.2554
    2PC     O21 2628   5.966   1.317   5.513 -0.3479 -0.3285  0.0349
    2PC     C21 2629   5.888   1.220   5.464 -0.1761 -0.4512  0.0046
    2PC     O22 2630   5.780   1.240   5.411 -0.0678  0.2044  0.0289
    3OL     C12 2631   5.956   1.086   5.474  0.1881 -0.2386  0.4012
    3OL     H2R 2632   5.951   1.054   5.578  1.2427  0.2931  0.6269
    3OL     H2S 2633   6.062   1.107   5.459 -0.1753  0.3403 -1.7892
    3OL     C13 2634   5.896   0.980   5.381 -0.2429  0.0802  0.3134
    3OL     H3R 2635   5.787   0.981   5.391 -0.4070 -0.4745 -1.1079
    3OL     H3S 2636   5.931   0.888   5.428 -1.6566 -0.4410  0.4127
    3OL     C14 2637   5.942   1.000   5.236 -0.0637  0.0758  0.3701
    3OL     H4R 2638   6.049   1.024   5.241  0.3292 -1.7722  1.8978
    3OL     H4S 2639   5.887   1.087   5.201 -1.5789 -0.6680  0.8151
    3OL     C15 2640   5.922   0.876   5.147  0.0904  0.2274  0.1222
    3OL     H5R 2641   5.962   0.784   5.189 -1.5082 -0.6019 -0.0893
    3OL     H5S 2642   5.972   0.897   5.052  0.6625  0.5691  0.4928
    3OL     C16 2643   5.774   0.835   5.135  0.1789 -0.1328  0.2706
    3OL     H6R 2644   5.724   0.918   5.086 -0.6834 -0.9901 -0.3512
    3OL     H6S 2645   5.726   0.811   5.230 -1.2210  1.4273 -0.0076
    3OL     C17 2646   5.761   0.715   5.040  0.3236 -0.1133  0.2260
    3OL     H7R 2647   5.807   0.624   5.079  0.2514  0.3013  1.3142
    3OL     H7S 2648   5.810   0.729   4.943  2.1373 -0.7691  1.0078
    3OL     C18 2649   5.611   0.694   5.014  0.3296  0.5844 -0.4070
    3OL     H8R 2650   5.561   0.785   4.980 -0.1581  0.4122 -0.1559
    3OL     H8S 2651   5.576   0.661   5.111 -1.3682  0.6022 -0.9913
    3OL     C19 2652   5.600   0.572   4.926 -0.9918  0.1035  0.4063
    3OL     H9R 2653   5.656   0.486   4.962 -0.3454  0.7060  0.8584
    3OL    C110 2654   5.547   0.567   4.804  0.2303  0.1220 -0.1405
    3OL    H10R 2655   5.546   0.478   4.743 -1.1908 -0.2634  0.3936
    3OL    C111 2656   5.476   0.689   4.752 -0.3682 -0.4178 -0.6045
    3OL    H11R 2657   5.545   0.774   4.752 -1.0154  0.4277  4.3982
    3OL    H11S 2658   5.401   0.724   4.823  0.4458 -2.2968  1.2962
    3OL    C112 2659   5.426   0.666   4.609  0.2420  0.2450 -0.9361
    3OL    H12R 2660   5.388   0.564   4.595 -1.3772  0.7520 -0.5238
    3OL    H12S 2661   5.509   0.686   4.542  0.4218  0.7550 -0.5680
    3OL    C113 2662   5.313   0.763   4.572 -0.2227  0.0401 -0.0709
    3OL    H13R 2663   5.342   0.865   4.599  1.3203 -0.7210  1.3525
    3OL    H13S 2664   5.223   0.750   4.633  0.6542  1.4510  1.6234
    3OL    C114 2665   5.277   0.752   4.424  0.1393  0.5227 -0.1969
    3OL    H14R 2666   5.253   0.647   4.404  0.0209  0.2110  1.4730
    3OL    H14S 2667   5.364   0.771   4.362  0.4087  0.7675  0.2542
    3OL    C115 2668   5.167   0.848   4.374 -0.1668 -0.0698 -0.6795
    3OL    H15R 2669   5.203   0.951   4.370  1.9580 -0.7473 -0.5306
    3OL    H15S 2670   5.085   0.840   4.445  0.7407  0.4413  0.4620
    3OL    C116 2671   5.120   0.816   4.232  0.0141  0.1192 -0.7821
    3OL    H16R 2672   5.084   0.713   4.239 -0.6867  0.4232  0.4017
    3OL    H16S 2673   5.202   0.830   4.161  0.9479 -2.4013 -0.3191
    3OL    C117 2674   4.999   0.906   4.202 -0.1786  0.1636  0.1010
    3OL    H17R 2675   5.024   1.012   4.213 -0.1330  0.3525 -1.4930
    3OL    H17S 2676   4.922   0.887   4.277  0.7822 -2.2046  0.5867
    3OL    C118 2677   4.943   0.876   4.062  0.1922 -0.0871  0.0024
    3OL    H18R 2678   5.025   0.839   4.000  0.6418 -1.4743  1.3566
    3OL    H18S 2679   4.897   0.957   4.004 -0.5935 -1.0953 -0.8258
    3OL    H18T 2680   4.867   0.798   4.059 -0.9681  0.8395  2.3049
    1PA    C116 2681   1.369   6.066   3.548 -0.2342 -0.6580 -0.0852
    1PA    H16R 2682   1.290   6.122   3.598  1.3058  0.5440  1.1062
    1PA    H16S 2683   1.353   5.964   3.512  2.8269 -0.7636 -1.4243
    1PA    H16T 2684   1.399   6.120   3.459 -1.1096 -0.5017 -0.2989
    1PA    C115 2685   1.491   6.053   3.641  0.1401 -0.4091 -0.5427
    1PA    H15R 2686   1.582   6.014   3.594 -0.4411 -0.8573 -1.3293
    1PA    H15S 2687   1.522   6.153   3.673 -0.9780  0.1819 -1.2178
    1PA    C114 2688   1.458   5.971   3.766  0.1247 -0.1636 -0.3856
    1PA    H14R 2689   1.372   6.006   3.824  1.2910 -0.8460  1.8730
    1PA    H14S 2690   1.431   5.870   3.735  1.7585 -0.7357 -0.0499
    1PA    C113 2691   1.573   5.974   3.868 -0.5166  0.1213  0.3428
    1PA    H13R 2692   1.656   5.921   3.820 -2.7864 -1.7548 -1.8042
    1PA    H13S 2693   1.599   6.079   3.881 -1.6869  0.2188  2.2550
    1PA    C112 2694   1.537   5.897   3.995 -0.3067  0.1039  0.3913
    1PA    H12R 2695   1.443   5.945   4.022 -0.0316  0.5155  0.6212
    1PA    H12S 2696   1.514   5.794   3.965  0.6610  0.4104 -1.5097
    1PA    C111 2697   1.625   5.929   4.117  0.3822 -0.2736 -0.0019
    1PA    H11R 2698   1.727   5.900   4.090  0.3306 -0.6848  0.2310
    1PA    H11S 2699   1.620   6.037   4.132 -3.6382 -0.3848  0.3183
    1PA    C110 2700   1.561   5.871   4.244  0.3760  0.2269  0.2228
    1PA    H10R 2701   1.600   5.929   4.328  0.2167 -1.0953  1.2510
    1PA    H10S 2702   1.453   5.880   4.230  0.3054 -0.1851  0.5193
    1PA     C19 2703   1.596   5.723   4.262 -0.2493  0.0949  0.3755
    1PA     H9R 2704   1.531   5.690   4.343  0.7868  0.9392  1.5898
    1PA     H9S 2705   1.570   5.666   4.173 -2.5076 -0.0822  1.0879
    1PA     C18 2706   1.745   5.718   4.300 -0.0822 -0.2511 -0.3174
    1PA     H8R 2707   1.784   5.617   4.287  1.4442  0.2956 -0.1876
    1PA     H8S 2708   1.811   5.784   4.243 -2.5930  1.0963 -1.8709
    1PA     C17 2709   1.755   5.743   4.451  0.4657  0.0157 -0.3956
    1PA     H7R 2710   1.741   5.849   4.473  0.0117 -0.1058 -0.0746
    1PA     H7S 2711   1.675   5.682   4.494  0.3778 -0.3449 -1.0564
    1PA     C16 2712   1.883   5.695   4.520  0.4017  0.0696 -0.2388
    1PA     H6R 2713   1.896   5.586   4.521 -0.0599 -0.0158 -1.3687
    1PA     H6S 2714   1.970   5.746   4.479 -0.1929 -0.2701 -2.0321
    1PA     C15 2715   1.872   5.728   4.669 -0.0212 -0.0033 -0.2498
    1PA     H5R 2716   1.860   5.834   4.694 -0.3620 -0.0697 -0.1314
    1PA     H5S 2717   1.791   5.681   4.724 -0.2501  1.6497  0.9312
    1PA     C14 2718   2.007   5.690   4.734 -0.3311 -0.1493  0.3189
    1PA     H4R 2719   2.034   5.590   4.699  1.6895  0.8428 -1.2156
    1PA     H4S 2720   2.080   5.761   4.694  0.4922 -1.1564 -0.0148
    1PA     C13 2721   2.005   5.710   4.886 -0.1817 -0.0674  0.3104
    1PA     H3R 2722   1.996   5.817   4.905  3.2564  0.4983 -0.5883
    1PA     H3S 2723   1.918   5.659   4.927 -0.7044  0.4505 -0.1394
    1PA     C12 2724   2.125   5.647   4.958 -0.3955 -0.6502  0.1612
    1PA     H2R 2725   2.141   5.545   4.921 -0.2588 -0.2624 -0.8889
    1PA     H2S 2726   2.216   5.705   4.941 -0.9802  0.3027  0.2196
    2PC     C11 2727   2.105   5.655   5.107 -0.4217 -0.0529  0.1270
    2PC     O12 2728   2.094   5.549   5.165 -0.0822  0.0602  0.4060
    2PC     O11 2729   2.120   5.773   5.170  0.7462 -0.2128  0.1788
    2PC      C1 2730   2.141   5.786   5.312  0.1467 -0.2914  0.2789
    2PC      HR 2731   2.121   5.893   5.327  1.8148  0.1253 -0.2191
    2PC      HS 2732   2.067   5.731   5.369 -0.1614  0.8273  0.9822
    2PC      C2 2733   2.284   5.745   5.348  0.2982  0.1800  0.2284
    2PC      HX 2734   2.292   5.639   5.322 -1.7250  0.1276 -0.3278
    2PC      C3 2735   2.312   5.753   5.499 -0.2138 -0.2263  0.3463
    2PC      HA 2736   2.361   5.843   5.536  0.6142 -0.5626  0.0862
    2PC      HB 2737   2.217   5.747   5.553 -0.3762  2.2684  0.4432
    2PC     O31 2738   2.392   5.641   5.541  0.4883  0.0983 -0.1162
    2PC     P31 2739   2.430   5.628   5.696 -0.0427  0.1267  0.0178
    2PC     O32 2740   2.587   5.617   5.666  0.1041  0.5529  0.5975
    2PC     C31 2741   2.649   5.741   5.627  0.2050  0.2481 -0.2215
    2PC     H1A 2742   2.623   5.762   5.523  1.8051  1.4502 -0.4215
    2PC     H1B 2743   2.608   5.830   5.675  1.4838 -0.1103  1.6153
    2PC     C32 2744   2.802   5.731   5.622  0.1858 -0.2491  0.1502
    2PC     H2A 2745   2.823   5.648   5.554  0.3371  1.5838 -2.1776
    2PC     H2B 2746   2.851   5.820   5.582 -1.5213  1.9250  2.5934
    2PC     N31 2747   2.877   5.709   5.750  0.2742 -0.3153  0.0873
    2PC     C33 2748   2.878   5.567   5.797 -0.4338 -0.1852  0.5080
    2PC     H3A 2749   2.917   5.504   5.717  0.4240  0.5272  0.3503
    2PC     H3B 2750   2.945   5.562   5.883  1.9223 -0.6320 -1.2472
    2PC     H3C 2751   2.775   5.538   5.818 -0.3009 -1.3444 -0.3753
    2PC     C34 2752   3.022   5.743   5.736  0.2425 -0.3376 -0.3260
    2PC     H4A 2753   3.062   5.745   5.838 -2.0646  1.9578  0.6143
    2PC     H4B 2754   3.068   5.675   5.664  1.7792  1.0958 -0.7770
    2PC     H4C 2755   3.035   5.843   5.695  1.3176 -0.3180  0.0303
    2PC     C35 2756   2.815   5.788   5.861 -0.0459 -0.0816 -0.2542
    2PC     H5A 2757   2.800   5.884   5.812 -1.3132 -0.2242 -0.1827
    2PC     H5B 2758   2.877   5.792   5.951  0.5157 -0.6373 -0.6087
    2PC     H5C 2759   2.718   5.743   5.883 -0.1420 -0.4661 -1.3903
    2PC     O33 2760   2.404   5.739   5.792 -0.6088 -0.1076  0.1353
    2PC     O34 2761   2.387   5.505   5.766 -0.3712  0.1227 -0.1945
    2PC     O21 2762   2.390   5.812   5.277  0.1381  0.2752  0.0808
    2PC     C21 2763   2.405   5.945   5.281 -0.0721  0.3046 -0.1010
    2PC     O22 2764   2.359   6.017   5.368  0.0145  0.3868 -0.1235
    3OL     C12 2765   2.490   6.001   5.171  0.1954 -0.2236 -0.1619
    3OL     H2R 2766   2.481   5.944   5.078  0.4136  1.8376 -1.5185
    3OL     H2S 2767   2.592   5.995   5.211  0.1137  1.8836  0.4720
    3OL     C13 2768   2.454   6.147   5.139  0.3043 -0.1575  0.0169
    3OL     H3R 2769   2.527   6.190   5.070 -0.2784 -0.1512 -0.6000
    3OL     H3S 2770   2.466   6.206   5.230  0.8651 -1.2673  0.6835
    3OL     C14 2771   2.308   6.167   5.098  0.1252 -0.4383  0.5031
    3OL     H4R 2772   2.299   6.274   5.077 -0.4965 -0.6230 -0.2352
    3OL     H4S 2773   2.235   6.139   5.173  0.5491 -0.8981  0.7462
    3OL     C15 2774   2.253   6.095   4.974  0.0286 -0.1810  0.3946
    3OL     H5R 2775   2.145   6.105   4.970 -0.0832  0.8810  3.4490
    3OL     H5S 2776   2.282   5.990   4.962 -1.2841 -0.2754 -3.0828
    3OL     C16 2777   2.326   6.160   4.855 -1.2128  0.4831 -0.0199
    3OL     H6R 2778   2.434   6.163   4.865 -1.2036  1.0524 -0.2727
    3OL     H6S 2779   2.296   6.265   4.861 -1.4113  0.3653  1.5591
    3OL     C17 2780   2.278   6.095   4.724 -0.1350 -0.0167 -0.1787
    3OL     H7R 2781   2.172   6.115   4.710  0.1250  0.9259 -0.9105
    3OL     H7S 2782   2.305   5.990   4.728  1.5509  0.3911  0.0237
    3OL     C18 2783   2.368   6.137   4.607 -0.0665 -0.0880 -0.1514
    3OL     H8R 2784   2.379   6.246   4.602  0.7471 -0.2098 -1.4148
    3OL     H8S 2785   2.322   6.109   4.513  0.6772  0.2524 -0.6283
    3OL     C19 2786   2.509   6.082   4.613  0.0194  0.1232 -0.2295
    3OL     H9R 2787   2.512   5.977   4.585 -2.1531 -0.2186  0.6229
    3OL    C110 2788   2.621   6.144   4.648  0.0489  0.0933 -0.2711
    3OL    H10R 2789   2.712   6.086   4.645 -0.2612 -0.3511 -1.9182
    3OL    C111 2790   2.651   6.278   4.711  0.4106 -0.1318  0.0339
    3OL    H11R 2791   2.711   6.267   4.802 -0.2545 -1.7538  0.3226
    3OL    H11S 2792   2.561   6.331   4.742  0.3594 -1.0168  1.5028
    3OL    C112 2793   2.737   6.366   4.620  0.4803 -0.6562 -0.4110
    3OL    H12R 2794   2.658   6.421   4.569 -0.0636 -0.5177  0.5581
    3OL    H12S 2795   2.787   6.301   4.548 -0.1093  1.1246 -2.5669
    3OL    C113 2796   2.839   6.449   4.699  0.4135 -0.6849 -0.2955
    3OL    H13R 2797   2.916   6.390   4.750  0.4465 -0.4604 -0.0826
    3OL    H13S 2798   2.790   6.504   4.779  1.6288  0.8168 -0.5307
    3OL    C114 2799   2.904   6.561   4.617 -0.1472 -0.3923 -0.3411
    3OL    H14R 2800   2.958   6.627   4.686  0.3664  0.0989 -1.1931
    3OL    H14S 2801   2.830   6.617   4.558 -1.3719 -1.2067  0.3802
    3OL    C115 2802   3.016   6.508   4.527  0.1413 -0.0604 -0.1802
    3OL    H15R 2803   2.984   6.408   4.497 -2.4340  0.1116  1.6661
    3OL    H15S 2804   3.106   6.504   4.588  0.1936  0.3468 -0.2307
    3OL    C116 2805   3.051   6.592   4.404  0.1268  0.8784  0.4485
    3OL    H16R 2806   3.153   6.571   4.370 -0.0277  2.2807 -1.0157
    3OL    H16S 2807   3.052   6.700   4.422 -0.9442  0.9695  0.0371
    3OL    C117 2808   2.963   6.551   4.285  1.0963  0.2780 -0.0778
    3OL    H17R 2809   2.861   6.568   4.322  0.9839 -0.2459 -0.1473
    3OL    H17S 2810   2.977   6.448   4.254  1.6937 -0.0715  1.2791
    3OL    C118 2811   2.966   6.647   4.165  0.3007 -0.2118 -0.4982
    3OL    H18R 2812   3.069   6.665   4.133  0.5736  2.9190  1.6807
    3OL    H18S 2813   2.918   6.743   4.185  0.6105 -0.2797  0.6464
    3OL    H18T 2814   2.917   6.598   4.080  0.8470 -0.0027 -0.9432
    1PA    C116 2815   0.947   5.511   3.998  0.4043  0.1964  0.6464
    1PA    H16R 2816   1.002   5.430   3.949  0.4082 -1.1187  2.7093
    1PA    H16S 2817   0.922   5.589   3.925  1.2532 -0.0557  0.0724
    1PA    H16T 2818   0.854   5.465   4.033  1.1167  0.1616  2.5896
    1PA    C115 2819   1.022   5.568   4.119  0.7408  0.3478  0.3682
    1PA    H15R 2820   1.099   5.638   4.087 -0.1003  1.2951  0.3840
    1PA    H15S 2821   0.960   5.626   4.187  1.4975 -1.3847  2.6826
    1PA    C114 2822   1.089   5.462   4.208  0.7986 -0.4708 -0.6217
    1PA    H14R 2823   1.011   5.406   4.259 -0.0576 -0.1151 -1.5016
    1PA    H14S 2824   1.162   5.398   4.157  1.2149 -1.3296  0.9850
    1PA    C113 2825   1.165   5.541   4.316 -0.6423  0.6431 -0.3868
    1PA    H13R 2826   1.232   5.467   4.360 -1.5973 -0.5621 -0.9051
    1PA    H13S 2827   1.233   5.608   4.263  2.6433 -2.2212 -0.1699
    1PA    C112 2828   1.080   5.601   4.429 -0.2415  0.4662  0.0130
    1PA    H12R 2829   1.010   5.669   4.380  0.5189 -0.3485 -2.3896
    1PA    H12S 2830   1.021   5.523   4.477  1.4127  0.8979  2.9689
    1PA    C111 2831   1.160   5.679   4.535  0.3393  0.1523 -0.1891
    1PA    H11R 2832   1.095   5.712   4.616 -0.8982  2.5503 -2.0094
    1PA    H11S 2833   1.234   5.616   4.583  0.8903 -0.3213 -1.5931
    1PA    C110 2834   1.235   5.800   4.479 -0.1933  0.7089  0.2881
    1PA    H10R 2835   1.311   5.758   4.412 -1.8756 -3.5244  0.7309
    1PA    H10S 2836   1.162   5.857   4.421 -1.2592 -1.0511 -0.1472
    1PA     C19 2837   1.297   5.882   4.593  0.5235  0.0237  0.3971
    1PA     H9R 2838   1.229   5.897   4.677  1.3935 -1.7666  1.4844
    1PA     H9S 2839   1.370   5.813   4.635 -1.3115 -2.8773 -0.8291
    1PA     C18 2840   1.355   6.016   4.544  0.7442 -0.1344  0.2230
    1PA     H8R 2841   1.434   6.006   4.470 -1.2674 -1.8870 -1.8318
    1PA     H8S 2842   1.272   6.074   4.503  0.9556 -0.2012 -0.3040
    1PA     C17 2843   1.419   6.088   4.664 -0.0484  0.3377  0.3745
    1PA     H7R 2844   1.341   6.127   4.729 -1.9470 -0.5956 -1.2237
    1PA     H7S 2845   1.492   6.020   4.709  0.9560 -0.8342 -2.6940
    1PA     C16 2846   1.484   6.221   4.625  0.1216  0.1519  0.0094
    1PA     H6R 2847   1.428   6.264   4.541  1.3902  0.0141 -0.9241
    1PA     H6S 2848   1.497   6.292   4.707  1.1069  0.1552 -0.1364
    1PA     C15 2849   1.626   6.206   4.570  0.0455 -0.4486 -0.0224
    1PA     H5R 2850   1.594   6.145   4.485 -3.7880  2.4480 -0.9265
    1PA     H5S 2851   1.658   6.302   4.529  0.4757 -1.2915 -1.7746
    1PA     C14 2852   1.730   6.128   4.652  0.1498 -0.3169 -0.0301
    1PA     H4R 2853   1.703   6.023   4.663 -1.2562  0.1563  1.3852
    1PA     H4S 2854   1.827   6.131   4.602 -0.8438 -1.9615 -2.2029
    1PA     C13 2855   1.745   6.185   4.794  0.3160 -0.1562 -0.1105
    1PA     H3R 2856   1.770   6.290   4.778  1.8612 -0.5398 -0.3477
    1PA     H3S 2857   1.647   6.167   4.839  0.2499  0.1821 -0.1197
    1PA     C12 2858   1.857   6.115   4.871 -0.7076 -1.0912  0.5581
    1PA     H2R 2859   1.833   6.008   4.870 -1.0388 -1.0327  1.3061
    1PA     H2S 2860   1.952   6.140   4.824 -2.2200 -0.5596 -2.4005
    2PC     C11 2861   1.873   6.171   5.011  0.2573  0.2711 -0.0728
    2PC     O12 2862   1.883   6.289   5.037  0.2071  0.1567  0.4623
    2PC     O11 2863   1.888   6.071   5.100  0.2926  0.4132  0.0804
    2PC      C1 2864   1.872   6.096   5.241 -0.4566  0.3147  0.0153
    2PC      HR 2865   1.904   6.003   5.288  1.1836  0.8670  0.0593
    2PC      HS 2866   1.930   6.182   5.277  1.1940 -0.4521 -0.6757
    2PC      C2 2867   1.724   6.116   5.277 -0.5233  0.5328 -0.3711
    2PC      HX 2868   1.689   6.213   5.240  2.6902  1.1765 -2.1176
    2PC      C3 2869   1.699   6.112   5.428  0.8623  0.3803 -0.1309
    2PC      HA 2870   1.737   6.200   5.480  0.7493  0.0047  0.6054
    2PC      HB 2871   1.592   6.115   5.449  0.8141 -1.8226  0.1294
    2PC     O31 2872   1.765   6.002   5.493  0.0341 -0.0153  0.0516
    2PC     P31 2873   1.722   5.969   5.644 -0.4820  0.2072 -0.0430
    2PC     O32 2874   1.860   5.940   5.721 -0.2984  0.0601 -0.4223
    2PC     C31 2875   1.916   6.057   5.783 -0.2165 -0.0564 -0.2765
    2PC     H1A 2876   1.946   6.126   5.704  2.1585  0.0188  0.5976
    2PC     H1B 2877   1.853   6.104   5.859  1.8434  0.5030  1.1771
    2PC     C32 2878   2.041   6.001   5.852 -0.5645 -0.0193  0.3999
    2PC     H2A 2879   2.091   5.937   5.779  1.3783  0.4207  1.2704
    2PC     H2B 2880   2.102   6.092   5.861 -0.3131  0.0717 -1.6862
    2PC     N31 2881   2.032   5.927   5.981 -0.1439  0.3555  0.6507
    2PC     C33 2882   1.942   5.808   5.960  0.5838 -0.1753  0.4933
    2PC     H3A 2883   1.838   5.836   5.946  0.5976 -0.1293  0.4820
    2PC     H3B 2884   1.969   5.746   5.875 -0.6293  1.3474 -1.0883
    2PC     H3C 2885   1.957   5.745   6.048  2.9051  0.2493  0.4792
    2PC     C34 2886   2.169   5.885   6.026 -0.0044  0.2157  0.1051
    2PC     H4A 2887   2.219   5.826   5.950  1.9010  0.5160  1.0783
    2PC     H4B 2888   2.220   5.979   6.045 -0.1800  0.3192  0.0668
    2PC     H4C 2889   2.157   5.833   6.121  0.1968 -2.1169 -1.0743
    2PC     C35 2890   1.976   6.011   6.092 -0.2010  0.4106  0.5804
    2PC     H5A 2891   2.035   6.098   6.122 -0.8557  1.5129 -1.2146
    2PC     H5B 2892   1.957   5.954   6.183  0.9183  0.8968  1.1444
    2PC     H5C 2893   1.880   6.045   6.056  0.7040  0.6718 -1.7205
    2PC     O33 2894   1.653   6.071   5.725  0.0264  0.2550  0.3340
    2PC     O34 2895   1.642   5.844   5.645  0.3809 -0.3552  0.3399
    2PC     O21 2896   1.640   6.020   5.211 -0.0318 -0.1364 -0.0283
    2PC     C21 2897   1.509   6.043   5.193  0.1849  0.4730 -0.8965
    2PC     O22 2898   1.453   6.138   5.243  0.0954  0.0384 -0.1581
    3OL     C12 2899   1.434   5.948   5.103 -0.9730  0.2914  0.2347
    3OL     H2R 2900   1.355   6.011   5.061  0.2950  0.3275 -2.2946
    3OL     H2S 2901   1.393   5.881   5.179 -2.2319  0.2801 -0.4276
    3OL     C13 2902   1.510   5.880   4.989 -0.2600  0.4676  0.5999
    3OL     H3R 2903   1.607   5.845   5.026 -0.6505 -0.6102  0.6360
    3OL     H3S 2904   1.531   5.957   4.914  1.3401 -1.1505 -0.7368
    3OL     C14 2905   1.427   5.768   4.923  0.0438  0.3264  0.4535
    3OL     H4R 2906   1.479   5.745   4.830  1.1929  1.6005  0.7376
    3OL     H4S 2907   1.335   5.817   4.892 -0.1416 -1.7735 -2.8130
    3OL     C15 2908   1.413   5.647   5.016 -0.3262  0.0136 -0.0050
    3OL     H5R 2909   1.379   5.679   5.115  0.4018 -2.5289  1.1555
    3OL     H5S 2910   1.509   5.597   5.029 -0.5942 -0.7430 -0.9005
    3OL     C16 2911   1.308   5.546   4.969 -0.0732 -0.4421  0.3992
    3OL     H6R 2912   1.332   5.488   4.880 -0.1333 -0.3759  0.3383
    3OL     H6S 2913   1.218   5.606   4.953  0.4485  0.3244  0.2833
    3OL     C17 2914   1.288   5.446   5.084 -0.1956 -0.1883  0.5993
    3OL     H7R 2915   1.243   5.506   5.164  0.7713  2.0969 -0.4578
    3OL     H7S 2916   1.389   5.414   5.111  0.7896  1.1252 -1.3279
    3OL     C18 2917   1.201   5.326   5.045 -0.2431  0.0853 -0.1531
    3OL     H8R 2918   1.105   5.360   5.005 -0.4968 -1.0346 -0.5285
    3OL     H8S 2919   1.174   5.272   5.136  0.5115 -0.3718 -0.1880
    3OL     C19 2920   1.280   5.241   4.948  0.3143  0.7619 -0.3030
    3OL     H9R 2921   1.364   5.194   4.998 -1.8535 -0.7633  2.2051
    3OL    C110 2922   1.245   5.218   4.823 -0.5665 -0.3657  0.1252
    3OL    H10R 2923   1.306   5.151   4.764  0.1777  0.6323 -0.2781
    3OL    C111 2924   1.132   5.286   4.749 -0.2164  0.0450 -0.0418
    3OL    H11R 2925   1.156   5.391   4.731 -1.0791  0.2355 -0.1022
    3OL    H11S 2926   1.042   5.273   4.808  0.2094 -0.3813  0.5285
    3OL    C112 2927   1.111   5.225   4.610  0.2768 -0.4445  0.0929
    3OL    H12R 2928   1.210   5.205   4.568  0.1503  1.5335 -1.2874
    3OL    H12S 2929   1.073   5.304   4.545  0.4481 -0.0076  0.5187
    3OL    C113 2930   1.016   5.104   4.607  0.2854 -0.4521  0.1214
    3OL    H13R 2931   0.920   5.143   4.641 -0.7973 -0.9419 -2.1636
    3OL    H13S 2932   1.063   5.028   4.670  2.8290 -0.7727 -1.9842
    3OL    C114 2933   0.994   5.053   4.464  0.3435 -0.3457  0.0738
    3OL    H14R 2934   1.089   5.023   4.418  1.3182  2.0526  0.3511
    3OL    H14S 2935   0.957   5.127   4.393 -0.1212 -1.7771 -1.2165
    3OL    C115 2936   0.899   4.932   4.465 -0.3022  0.1525 -0.2832
    3OL    H15R 2937   0.798   4.962   4.494 -1.1680 -2.0184 -0.9000
    3OL    H15S 2938   0.931   4.851   4.531 -2.7374 -1.1516 -0.6071
    3OL    C116 2939   0.886   4.862   4.329 -0.0354  0.1662 -0.3182
    3OL    H16R 2940   0.984   4.822   4.303 -0.3316 -0.2047 -0.8769
    3OL    H16S 2941   0.858   4.939   4.257  2.3972 -0.2770 -1.8453
    3OL    C117 2942   0.778   4.754   4.321 -0.1059  0.2071  0.0428
    3OL    H17R 2943   0.802   4.690   4.406 -0.2275 -0.2513 -0.2611
    3OL    H17S 2944   0.800   4.704   4.226  1.6504  1.4467 -0.2446
    3OL    C118 2945   0.639   4.817   4.338  0.1237  0.6963  0.0991
    3OL    H18R 2946   0.615   4.823   4.445 -0.4261 -1.1612  0.1177
    3OL    H18S 2947   0.559   4.752   4.302 -0.1155  0.9671  0.1326
    3OL    H18T 2948   0.630   4.914   4.288 -0.8798 -0.1380 -1.4158
    1PA    C116 2949   3.277   1.479   3.931  0.0649 -0.3071  0.4729
    1PA    H16R 2950   3.183   1.482   3.986 -1.3932  0.4394 -1.9276
    1PA    H16S 2951   3.279   1.386   3.875 -0.1746  0.9306 -1.7019
    1PA    H16T 2952   3.286   1.560   3.859 -1.6072 -1.1151 -0.6923
    1PA    C115 2953   3.386   1.485   4.040  0.2905  0.4684  0.2100
    1PA    H15R 2954   3.395   1.398   4.105 -1.2054  0.2120  0.1068
    1PA    H15S 2955   3.484   1.494   3.992  0.8118  1.2459  1.3959
    1PA    C114 2956   3.369   1.607   4.132  0.2406  0.6051  0.0221
    1PA    H14R 2957   3.393   1.699   4.079  1.3484  1.7045  2.3245
    1PA    H14S 2958   3.269   1.602   4.176  0.4334 -1.8525  0.3318
    1PA    C113 2959   3.468   1.585   4.247  0.2842  0.3658 -0.0585
    1PA    H13R 2960   3.435   1.499   4.305  0.4578  0.2359 -0.1529
    1PA    H13S 2961   3.566   1.562   4.205  1.7206  2.4004  1.8977
    1PA    C112 2962   3.487   1.711   4.334  0.3984  0.2559  0.0750
    1PA    H12R 2963   3.516   1.797   4.273  0.7651 -0.7348 -1.1846
    1PA    H12S 2964   3.393   1.729   4.385 -0.6510 -2.5050 -0.6737
    1PA    C111 2965   3.594   1.691   4.442  0.2889  0.1057  0.1560
    1PA    H11R 2966   3.580   1.774   4.512  0.6262  0.2145  0.0939
    1PA    H11S 2967   3.573   1.599   4.497 -0.8432  0.4919  0.3816
    1PA    C110 2968   3.737   1.707   4.388  0.2391  0.0829  0.0185
    1PA    H10R 2969   3.766   1.620   4.328 -3.4952 -0.7611 -0.8653
    1PA    H10S 2970   3.750   1.783   4.311  1.9695  0.4565  0.6343
    1PA     C19 2971   3.834   1.723   4.505 -0.2866  0.0051  0.4710
    1PA     H9R 2972   3.928   1.761   4.464  0.8577 -3.8678 -0.9397
    1PA     H9S 2973   3.794   1.792   4.579  1.5423  1.4171  0.2209
    1PA     C18 2974   3.853   1.586   4.572  0.1504 -0.2243 -0.1109
    1PA     H8R 2975   3.752   1.547   4.590 -0.0794  0.3099 -0.2270
    1PA     H8S 2976   3.889   1.518   4.495 -1.3572 -0.7016 -0.4422
    1PA     C17 2977   3.935   1.577   4.701  0.2721  0.6870 -0.1182
    1PA     H7R 2978   3.942   1.475   4.739  0.6771  0.6902 -0.1779
    1PA     H7S 2979   4.040   1.601   4.684  0.4654 -0.6756 -1.0102
    1PA     C16 2980   3.871   1.654   4.817 -0.3359  0.3181 -0.2024
    1PA     H6R 2981   3.868   1.761   4.794  1.9124  0.7522  1.2236
    1PA     H6S 2982   3.768   1.620   4.831 -0.2384 -0.4684 -1.2816
    1PA     C15 2983   3.937   1.638   4.955  0.0962 -0.5100 -0.4983
    1PA     H5R 2984   3.866   1.668   5.032  1.0936 -1.6628  0.9109
    1PA     H5S 2985   3.941   1.530   4.969 -1.7650 -0.5753 -0.2345
    1PA     C14 2986   4.074   1.699   4.984 -0.0387 -0.2685 -0.3620
    1PA     H4R 2987   4.125   1.666   4.893  1.3457 -1.4190  0.7758
    1PA     H4S 2988   4.068   1.807   4.971 -0.0150 -0.2381 -0.1257
    1PA     C13 2989   4.139   1.665   5.119 -0.2714  1.0451  0.0960
    1PA     H3R 2990   4.154   1.557   5.117  1.3789  1.2154  1.0968
    1PA     H3S 2991   4.237   1.714   5.110 -0.3860  1.2878  0.1641
    1PA     C12 2992   4.064   1.724   5.239 -0.2577  0.5085  0.3729
    1PA     H2R 2993   4.023   1.825   5.230  3.6059  2.4365  1.7125
    1PA     H2S 2994   3.978   1.660   5.260  0.5244 -0.2704  1.2923
    2PC     C11 2995   4.147   1.741   5.364  0.3411  0.5137 -0.0211
    2PC     O12 2996   4.118   1.811   5.459 -0.6171  0.3461 -0.1804
    2PC     O11 2997   4.259   1.666   5.366 -0.5750 -0.8941 -0.2412
    2PC      C1 2998   4.334   1.638   5.485 -0.2901  0.2288 -0.1448
    2PC      HR 2999   4.408   1.565   5.451 -0.6127  1.1815 -3.2258
    2PC      HS 3000   4.393   1.723   5.518  0.4947 -0.1114 -0.6442
    2PC      C2 3001   4.249   1.571   5.594  0.0658 -0.1213 -0.0778
    2PC      HX 3002   4.152   1.620   5.606  0.0293  0.1950 -1.5342
    2PC      C3 3003   4.309   1.567   5.735  0.0436 -0.0246 -0.0652
    2PC      HA 3004   4.408   1.523   5.724  0.5715  1.6579 -3.0072
    2PC      HB 3005   4.319   1.669   5.772  0.1985  0.4688 -1.4527
    2PC     O31 3006   4.217   1.493   5.818 -0.0857  0.3717  0.1439
    2PC     P31 3007   4.248   1.459   5.972  0.1034  0.1401  0.0545
    2PC     O32 3008   4.120   1.363   5.987  0.0544  0.1514 -0.2769
    2PC     C31 3009   4.120   1.238   5.917  0.0064  0.0970 -0.1798
    2PC     H1A 3010   4.119   1.256   5.809  2.7146  0.8943 -0.1446
    2PC     H1B 3011   4.211   1.180   5.937  0.3171  0.4326 -0.5924
    2PC     C32 3012   3.998   1.161   5.968  0.0715  0.4480  0.5076
    2PC     H2A 3013   3.912   1.228   5.974  0.7717  1.4083  0.1209
    2PC     H2B 3014   3.979   1.076   5.903  2.5998  0.3041 -0.1585
    2PC     N31 3015   4.015   1.087   6.098 -0.3433 -0.3277  0.1264
    2PC     C33 3016   4.093   0.960   6.084  0.1531 -0.0464  0.3059
    2PC     H3A 3017   4.194   0.980   6.049  0.4187 -2.5300 -0.5785
    2PC     H3B 3018   4.089   0.907   6.179 -2.2540 -0.7010 -0.0806
    2PC     H3C 3019   4.051   0.886   6.015 -0.4162 -0.8728  1.5006
    2PC     C34 3020   4.076   1.171   6.206 -0.2946 -0.5984  0.3121
    2PC     H4A 3021   4.015   1.261   6.191  3.8165  2.7494  1.5787
    2PC     H4B 3022   4.056   1.127   6.303  2.7739 -0.0981  1.2820
    2PC     H4C 3023   4.179   1.205   6.192 -0.4031 -0.4187 -0.0982
    2PC     C35 3024   3.880   1.042   6.146  0.0021 -0.5897  0.8557
    2PC     H5A 3025   3.828   1.120   6.202 -0.5875 -2.2768  2.7892
    2PC     H5B 3026   3.900   0.963   6.219 -0.7593 -1.2408  0.3821
    2PC     H5C 3027   3.828   1.006   6.057  1.5534 -3.0197  0.8216
    2PC     O33 3028   4.378   1.406   6.018  0.0958  0.4049  0.3875
    2PC     O34 3029   4.234   1.583   6.052  0.1734  0.2148 -0.0481
    2PC     O21 3030   4.231   1.438   5.543  0.2521 -0.1076 -0.1804
    2PC     C21 3031   4.114   1.406   5.485  0.0859 -0.0918  0.1410
    2PC     O22 3032   4.031   1.490   5.456 -0.0325 -0.2302  0.0778
    3OL     C12 3033   4.088   1.260   5.456 -0.2941  0.0191 -0.0944
    3OL     H2R 3034   3.988   1.227   5.483 -0.6829  0.7636 -0.5974
    3OL     H2S 3035   4.157   1.195   5.510  0.1886  0.0156 -0.7028
    3OL     C13 3036   4.094   1.238   5.304  0.0942  0.1956 -0.1083
    3OL     H3R 3037   4.121   1.133   5.293  0.4438 -0.0040  2.0652
    3OL     H3S 3038   4.173   1.301   5.265 -0.1824  1.7941  1.7402
    3OL     C14 3039   3.966   1.261   5.223 -0.0476  0.4294  0.1773
    3OL     H4R 3040   3.929   1.361   5.245 -0.3100 -0.0615  2.1150
    3OL     H4S 3041   3.887   1.187   5.239 -0.4934  1.1138  1.2767
    3OL     C15 3042   4.008   1.256   5.075  0.0989  0.2420  0.2246
    3OL     H5R 3043   4.068   1.170   5.044  1.5375  2.0544 -2.4216
    3OL     H5S 3044   4.074   1.342   5.062  0.0697 -0.0810 -2.6543
    3OL     C16 3045   3.896   1.268   4.971  0.5107 -0.4288 -0.3076
    3OL     H6R 3046   3.929   1.323   4.882 -0.1848  1.3817  0.5021
    3OL     H6S 3047   3.812   1.327   5.009  0.4483  0.7729 -2.1417
    3OL     C17 3048   3.837   1.133   4.930 -0.1823 -0.1657 -0.1979
    3OL     H7R 3049   3.810   1.069   5.015  0.5652  0.1904  0.3184
    3OL     H7S 3050   3.899   1.069   4.867  0.0283  1.6934 -1.9741
    3OL     C18 3051   3.701   1.141   4.860 -0.2411 -0.3078 -0.1012
    3OL     H8R 3052   3.616   1.162   4.926  0.7154  2.1717  0.4628
    3OL     H8S 3053   3.683   1.038   4.829 -1.3710 -0.2743  0.3825
    3OL     C19 3054   3.704   1.229   4.737 -0.1363  0.1557  0.2281
    3OL     H9R 3055   3.791   1.210   4.674 -1.2299 -2.9283 -0.5440
    3OL    C110 3056   3.627   1.333   4.712 -0.2177  0.0454  0.0223
    3OL    H10R 3057   3.635   1.394   4.622 -0.4631  0.8595  0.5457
    3OL    C111 3058   3.510   1.376   4.797  0.1925  0.1983  0.5158
    3OL    H11R 3059   3.536   1.381   4.902  1.0971  1.2994  0.2494
    3OL    H11S 3060   3.427   1.305   4.785  0.7225 -1.0571  3.4893
    3OL    C112 3061   3.452   1.514   4.764  0.5371  0.1517 -0.3200
    3OL    H12R 3062   3.412   1.509   4.662 -1.8054  2.3443  0.3648
    3OL    H12S 3063   3.532   1.587   4.779  1.7326 -1.2323  0.2854
    3OL    C113 3064   3.333   1.542   4.857 -0.0062 -0.1128 -0.9233
    3OL    H13R 3065   3.375   1.549   4.958  0.5397  0.5596 -1.1886
    3OL    H13S 3066   3.253   1.468   4.858 -0.0083 -0.1265 -1.5819
    3OL    C114 3067   3.266   1.680   4.845 -0.0360 -0.0234  0.1112
    3OL    H14R 3068   3.257   1.709   4.949 -2.0116 -2.0519  0.5826
    3OL    H14S 3069   3.163   1.664   4.809 -0.2117 -0.8701  0.9547
    3OL    C115 3070   3.336   1.785   4.758  0.3032 -0.0997  0.2945
    3OL    H15R 3071   3.353   1.751   4.656  0.2471 -1.8741  0.8328
    3OL    H15S 3072   3.422   1.825   4.813 -1.3675  0.0758  2.9603
    3OL    C116 3073   3.246   1.908   4.743  0.1510 -0.2917 -0.3980
    3OL    H16R 3074   3.219   1.966   4.831 -3.0819 -1.2151 -0.6458
    3OL    H16S 3075   3.148   1.890   4.698  1.1669  0.0030 -2.9229
    3OL    C117 3076   3.303   2.009   4.642  0.1761  0.6528  0.5453
    3OL    H17R 3077   3.246   2.100   4.665 -0.4116  0.8426 -1.4730
    3OL    H17S 3078   3.281   1.987   4.537  0.6534  0.5324  0.4689
    3OL    C118 3079   3.452   2.045   4.657  0.5104 -0.4198 -0.1149
    3OL    H18R 3080   3.505   1.957   4.622  0.8671  0.4336 -1.7908
    3OL    H18S 3081   3.478   2.061   4.762  1.5259  0.3718 -0.4755
    3OL    H18T 3082   3.480   2.120   4.583 -3.5791  1.1297 -0.3618
    1PA    C116 3083   5.544   4.389   4.044 -0.4569 -0.5406  0.4837
    1PA    H16R 3084   5.509   4.302   4.101  0.3261 -1.6901 -0.7194
    1PA    H16S 3085   5.624   4.348   3.983 -1.6588  1.5311 -2.7117
    1PA    H16T 3086   5.473   4.421   3.968  1.5633 -1.6028 -1.9656
    1PA    C115 3087   5.596   4.506   4.128 -0.0995 -0.0342 -0.4374
    1PA    H15R 3088   5.676   4.472   4.194  1.3079 -0.7760 -2.4477
    1PA    H15S 3089   5.642   4.584   4.066  0.1713  0.9882  0.9971
    1PA    C114 3090   5.476   4.565   4.203 -0.2335  0.2657 -0.8871
    1PA    H14R 3091   5.399   4.603   4.135  2.3758  2.3062 -2.9140
    1PA    H14S 3092   5.432   4.494   4.273  1.3997 -0.2473 -0.3585
    1PA    C113 3093   5.527   4.688   4.280 -0.6644 -0.2313  0.2091
    1PA    H13R 3094   5.615   4.661   4.340  1.6568 -1.1415 -3.2758
    1PA    H13S 3095   5.569   4.770   4.222 -0.9298  0.0144  0.3651
    1PA    C112 3096   5.425   4.760   4.368 -0.0160  0.5099  0.3668
    1PA    H12R 3097   5.392   4.695   4.450  0.5919 -0.3125 -0.0268
    1PA    H12S 3098   5.479   4.847   4.406 -0.2809  2.2693 -2.9948
    1PA    C111 3099   5.295   4.799   4.297  0.1276 -0.0132 -0.1860
    1PA    H11R 3100   5.248   4.708   4.258 -0.1900 -0.7426  1.7873
    1PA    H11S 3101   5.230   4.840   4.374  1.1066 -0.3760  0.8703
    1PA    C110 3102   5.311   4.906   4.188  0.2680 -0.2467 -0.3956
    1PA    H10R 3103   5.354   4.863   4.097 -1.3072 -0.7378 -0.9302
    1PA    H10S 3104   5.212   4.941   4.160 -0.0976 -0.9760 -0.0528
    1PA     C19 3105   5.399   5.026   4.226 -0.0997 -0.1153  0.0456
    1PA     H9R 3106   5.500   4.987   4.235  0.0512  0.3584  0.4391
    1PA     H9S 3107   5.411   5.089   4.137 -0.7675  0.5695  0.4219
    1PA     C18 3108   5.339   5.125   4.328  0.0235  0.0381 -0.0303
    1PA     H8R 3109   5.371   5.227   4.306  2.0218 -0.2328  1.3579
    1PA     H8S 3110   5.233   5.118   4.305  0.1401 -1.1960 -0.2614
    1PA     C17 3111   5.368   5.105   4.477 -0.4679 -0.3219  0.0207
    1PA     H7R 3112   5.350   5.000   4.497  0.0007 -1.1441 -3.3288
    1PA     H7S 3113   5.475   5.122   4.492 -0.6486  1.8455 -0.7525
    1PA     C16 3114   5.287   5.191   4.575 -0.0369  0.0962  0.0141
    1PA     H6R 3115   5.281   5.294   4.539 -0.2581  0.5067  1.1895
    1PA     H6S 3116   5.184   5.155   4.567  0.1073 -0.0976 -1.1261
    1PA     C15 3117   5.344   5.199   4.717 -0.4764  0.0058  0.1966
    1PA     H5R 3118   5.259   5.220   4.782 -0.0447  1.1274  0.4160
    1PA     H5S 3119   5.382   5.099   4.742 -1.7641 -2.3141 -5.5156
    1PA     C14 3120   5.441   5.310   4.758 -0.1565 -0.2080  0.0253
    1PA     H4R 3121   5.523   5.311   4.687 -1.7039 -0.7372 -1.8538
    1PA     H4S 3122   5.392   5.407   4.748 -0.8227 -0.6718 -1.3783
    1PA     C13 3123   5.490   5.287   4.902 -0.0827 -0.1572  0.0079
    1PA     H3R 3124   5.405   5.284   4.971 -0.5035 -0.6015 -0.5225
    1PA     H3S 3125   5.536   5.188   4.910 -0.7398 -0.4699 -0.0449
    1PA     C12 3126   5.586   5.394   4.955 -0.8299  0.3437  0.3682
    1PA     H2R 3127   5.686   5.386   4.912 -0.3730 -0.0524  1.4685
    1PA     H2S 3128   5.548   5.492   4.926  0.9204  1.4249  1.5463
    2PC     C11 3129   5.596   5.391   5.106  0.1398  0.2476  0.3088
    2PC     O12 3130   5.655   5.479   5.166  0.2644  0.3601  0.0249
    2PC     O11 3131   5.552   5.281   5.167 -0.3272  0.2532 -0.0157
    2PC      C1 3132   5.562   5.275   5.310 -0.0582  0.0595 -0.0437
    2PC      HR 3133   5.516   5.184   5.349 -3.3074  1.7370  0.3163
    2PC      HS 3134   5.668   5.277   5.339 -0.0999 -2.2782  0.5433
    2PC      C2 3135   5.479   5.385   5.376  0.1685  0.0142  0.3220
    2PC      HX 3136   5.499   5.483   5.331  1.0789 -0.1826  0.2851
    2PC      C3 3137   5.522   5.403   5.522 -0.0317  0.3709  0.3396
    2PC      HA 3138   5.626   5.436   5.510 -0.8394  2.4578 -1.4617
    2PC      HB 3139   5.461   5.479   5.571  0.9323  1.9986 -0.9055
    2PC     O31 3140   5.510   5.279   5.594 -0.0332  0.0889 -0.1433
    2PC     P31 3141   5.572   5.272   5.742 -0.1038 -0.1008 -0.1229
    2PC     O32 3142   5.729   5.287   5.717 -0.0314  0.2065  0.4968
    2PC     C31 3143   5.790   5.157   5.699 -0.5372 -0.0122  0.3508
    2PC     H1A 3144   5.774   5.097   5.789  1.5668 -0.7986  0.2468
    2PC     H1B 3145   5.726   5.111   5.623  0.7149  0.2706 -0.9012
    2PC     C32 3146   5.930   5.167   5.637 -0.6228 -0.0948  0.1434
    2PC     H2A 3147   5.954   5.062   5.619  1.0156 -0.7300  4.6020
    2PC     H2B 3148   5.926   5.217   5.540 -0.6715  1.7295  1.0414
    2PC     N31 3149   6.037   5.230   5.721 -0.1821 -0.1435 -0.3797
    2PC     C33 3150   6.010   5.376   5.741 -0.0712 -0.1509 -0.1659
    2PC     H3A 3151   6.009   5.423   5.642  3.1624  0.9264  0.2233
    2PC     H3B 3152   5.912   5.396   5.785 -0.5586  0.5849 -1.4944
    2PC     H3C 3153   6.086   5.423   5.802  0.1592 -0.7503  0.0182
    2PC     C34 3154   6.038   5.172   5.859 -0.4748  0.2077 -0.2292
    2PC     H4A 3155   5.940   5.181   5.906 -0.7700 -2.8751 -0.0309
    2PC     H4B 3156   6.074   5.070   5.845 -1.7635 -0.3298  0.1935
    2PC     H4C 3157   6.118   5.220   5.916  1.2000 -1.2983 -1.2406
    2PC     C35 3158   6.170   5.211   5.654  0.1538 -0.6656  0.4129
    2PC     H5A 3159   6.185   5.103   5.659  2.0008 -0.3790  2.0894
    2PC     H5B 3160   6.241   5.278   5.701 -2.3927  1.6598  1.2515
    2PC     H5C 3161   6.156   5.240   5.550  0.7774 -2.9088 -0.3620
    2PC     O33 3162   5.518   5.361   5.847 -0.4370 -0.0995 -0.2913
    2PC     O34 3163   5.543   5.136   5.794  0.5655 -0.4089 -0.5377
    2PC     O21 3164   5.340   5.349   5.373  0.2256 -0.1722 -0.1412
    2PC     C21 3165   5.265   5.366   5.263 -0.1596  0.7981  0.2569
    2PC     O22 3166   5.306   5.433   5.171 -0.0752 -0.1274 -0.4040
    3OL     C12 3167   5.133   5.294   5.270  0.5998 -0.6587  0.0698
    3OL     H2R 3168   5.058   5.372   5.286  0.8298 -0.5020  0.3915
    3OL     H2S 3169   5.142   5.238   5.364 -0.3726 -0.0595  0.5373
    3OL     C13 3170   5.098   5.216   5.143  0.0157 -0.0793 -0.1300
    3OL     H3R 3171   5.184   5.160   5.104 -0.3963 -0.5516 -0.3851
    3OL     H3S 3172   5.090   5.294   5.068  0.2197 -1.2209 -1.3874
    3OL     C14 3173   4.986   5.110   5.144  0.1731 -0.2439  0.1171
    3OL     H4R 3174   4.894   5.155   5.183  0.5874 -0.1990  1.0714
    3OL     H4S 3175   4.997   5.023   5.209 -1.6287 -0.7007 -0.1488
    3OL     C15 3176   4.970   5.048   5.005  0.1718 -0.2949  0.1402
    3OL     H5R 3177   4.962   5.129   4.932  0.1289  0.5456  1.0450
    3OL     H5S 3178   4.883   4.984   5.001 -0.8575  1.0400  0.3942
    3OL     C16 3179   5.094   4.966   4.969  0.5497  0.2927  0.0773
    3OL     H6R 3180   5.104   4.877   5.031 -0.0601  1.6364  2.2002
    3OL     H6S 3181   5.186   5.022   4.986  1.1845 -0.9286  0.8250
    3OL     C17 3182   5.090   4.930   4.819  0.4325 -0.1231  0.1784
    3OL     H7R 3183   5.179   4.878   4.785 -0.0095  0.1827 -1.5308
    3OL     H7S 3184   5.088   5.022   4.760  1.0340  0.5401  1.1642
    3OL     C18 3185   4.969   4.850   4.769 -0.0416  0.8299 -0.2408
    3OL     H8R 3186   4.877   4.900   4.799 -0.3941  1.3811 -2.1387
    3OL     H8S 3187   4.974   4.760   4.831 -2.7869  2.7167  3.0859
    3OL     C19 3188   4.989   4.821   4.622  1.5819 -0.0410  0.1269
    3OL     H9R 3189   5.043   4.728   4.601 -0.7709 -2.0269  2.1213
    3OL    C110 3190   4.957   4.900   4.521  0.1270 -0.0838  0.5265
    3OL    H10R 3191   4.982   4.870   4.419 -0.7291  1.1520 -0.0695
    3OL    C111 3192   4.873   5.025   4.523 -0.0352 -0.1707 -0.4478
    3OL    H11R 3193   4.883   5.079   4.617 -0.2285  0.4969 -0.8059
    3OL    H11S 3194   4.766   5.005   4.518 -0.3585  1.5994 -3.0712
    3OL    C112 3195   4.916   5.125   4.415  0.2104  0.8167  0.5445
    3OL    H12R 3196   5.018   5.150   4.445  1.4769 -0.8781 -1.9788
    3OL    H12S 3197   4.860   5.218   4.407 -1.1835 -0.0626 -0.3913
    3OL    C113 3198   4.928   5.077   4.269 -0.7553  0.2239  0.6524
    3OL    H13R 3199   4.834   5.038   4.229  0.8588 -2.4862 -0.7737
    3OL    H13S 3200   4.993   4.992   4.249 -2.3925 -1.1148  0.8212
    3OL    C114 3201   4.971   5.189   4.174 -0.0421 -0.9102 -0.3860
    3OL    H14R 3202   5.060   5.233   4.220 -1.1510  0.6471  0.3640
    3OL    H14S 3203   4.907   5.277   4.170  0.4963 -0.4554  0.5789
    3OL    C115 3204   5.000   5.149   4.029 -0.2437 -0.8297 -0.4477
    3OL    H15R 3205   5.087   5.083   4.018 -1.0426 -1.8415 -0.9565
    3OL    H15S 3206   5.014   5.242   3.973 -0.9680  1.2364  2.5875
    3OL    C116 3207   4.875   5.085   3.967 -0.7771 -0.1247 -0.1149
    3OL    H16R 3208   4.787   5.148   3.981 -0.0026  0.9642 -0.0772
    3OL    H16S 3209   4.847   4.990   4.012 -1.8710  0.9301  1.5389
    3OL    C117 3210   4.888   5.074   3.814  0.0568  0.5232 -0.0975
    3OL    H17R 3211   4.937   5.164   3.776  2.1047  0.0829  1.3416
    3OL    H17S 3212   4.790   5.058   3.767 -0.7952  3.2596  0.5601
    3OL    C118 3213   4.993   4.972   3.770  0.4896  0.8038  0.2808
    3OL    H18R 3214   5.002   4.882   3.832  0.5436  1.4386  1.2200
    3OL    H18S 3215   5.093   5.016   3.778  1.1556 -0.1331 -1.9692
    3OL    H18T 3216   4.985   4.949   3.664  1.5299 -0.4848  0.4532
    1PA    C116 3217   2.329   3.157   3.908  0.2194  0.3480  0.2354
    1PA    H16R 3218   2.342   3.090   3.993  4.0969  1.7163  0.9024
    1PA    H16S 3219   2.421   3.161   3.850  0.1778 -0.9477  0.0598
    1PA    H16T 3220   2.252   3.127   3.836  1.5984  0.8311 -1.5215
    1PA    C115 3221   2.280   3.294   3.959  0.0921  0.1457  0.6640
    1PA    H15R 3222   2.231   3.349   3.878  0.4838 -0.5462 -0.0587
    1PA    H15S 3223   2.203   3.278   4.035 -1.4473 -1.1730 -1.0685
    1PA    C114 3224   2.398   3.379   4.006  0.5933  0.0540 -0.3843
    1PA    H14R 3225   2.475   3.378   3.929  0.3305 -1.8997 -0.6799
    1PA    H14S 3226   2.369   3.483   4.019 -1.2804 -0.4570 -0.1835
    1PA    C113 3227   2.468   3.324   4.132 -0.3093 -0.1936  0.0189
    1PA    H13R 3228   2.472   3.215   4.134  0.8460 -0.1635 -0.0070
    1PA    H13S 3229   2.569   3.365   4.138 -0.5450  0.3805  0.1962
    1PA    C112 3230   2.386   3.377   4.250  0.2280 -0.0121  0.3149
    1PA    H12R 3231   2.400   3.485   4.247  1.0836 -0.1194  0.2677
    1PA    H12S 3232   2.278   3.364   4.240  0.0565  0.6147  1.1970
    1PA    C111 3233   2.422   3.327   4.391 -0.0592  0.2811  0.4942
    1PA    H11R 3234   2.473   3.231   4.383 -0.8820 -0.0505 -1.3599
    1PA    H11S 3235   2.488   3.403   4.433 -2.3072  3.1165 -0.7742
    1PA    C110 3236   2.298   3.302   4.478 -0.2803  0.2685  0.1772
    1PA    H10R 3237   2.236   3.237   4.416 -0.5665  0.8142 -0.1173
    1PA    H10S 3238   2.335   3.244   4.563  1.7302 -2.1038 -2.1281
    1PA     C19 3239   2.227   3.430   4.525 -0.1578  0.1319  0.7405
    1PA     H9R 3240   2.301   3.489   4.580 -0.4485  0.9411  0.2776
    1PA     H9S 3241   2.210   3.494   4.438 -1.0708 -0.5631  0.3923
    1PA     C18 3242   2.106   3.399   4.613 -0.4238  0.2101  0.4035
    1PA     H8R 3243   2.037   3.346   4.547  0.7685 -1.5810  0.5567
    1PA     H8S 3244   2.122   3.335   4.700 -0.5092 -1.8977 -1.0729
    1PA     C17 3245   2.050   3.533   4.665 -0.2119  0.2342  0.5713
    1PA     H7R 3246   2.134   3.587   4.709 -0.7872  1.0989  0.6268
    1PA     H7S 3247   2.028   3.593   4.577  0.7519 -1.5308 -0.9662
    1PA     C16 3248   1.931   3.515   4.760 -0.8421 -0.3856 -0.3199
    1PA     H6R 3249   1.888   3.613   4.781  0.1740  0.0258 -0.1249
    1PA     H6S 3250   1.852   3.461   4.707 -0.8867 -0.2300 -0.4112
    1PA     C15 3251   1.963   3.437   4.888 -0.3648 -0.1301 -0.2842
    1PA     H5R 3252   1.988   3.335   4.860 -0.5430 -0.5926  1.1335
    1PA     H5S 3253   2.051   3.475   4.940 -0.8414 -0.4520  0.7924
    1PA     C14 3254   1.838   3.423   4.976 -0.5512 -0.0924 -0.5408
    1PA     H4R 3255   1.798   3.523   4.996 -0.2076 -0.1030  0.2625
    1PA     H4S 3256   1.765   3.359   4.928  1.6097 -1.0959 -2.6953
    1PA     C13 3257   1.879   3.355   5.107  0.2543  0.2759 -0.5954
    1PA     H3R 3258   1.942   3.271   5.076 -1.6875 -1.7550  0.6765
    1PA     H3S 3259   1.932   3.426   5.171 -0.5652  0.0063  0.4082
    1PA     C12 3260   1.753   3.313   5.184  0.7067 -0.5661 -0.2963
    1PA     H2R 3261   1.698   3.402   5.214 -0.2171 -0.5718 -1.8520
    1PA     H2S 3262   1.677   3.253   5.133 -0.6822  0.9302 -0.0771
    2PC     C11 3263   1.794   3.257   5.318  0.0410 -0.1395  0.0856
    2PC     O12 3264   1.724   3.265   5.417 -0.5711 -0.1445 -0.3393
    2PC     O11 3265   1.908   3.186   5.319  0.1009 -0.0459 -0.0763
    2PC      C1 3266   1.960   3.136   5.444  0.0806 -0.0773 -0.0806
    2PC      HR 3267   2.067   3.121   5.433  0.1557 -0.1144  0.7048
    2PC      HS 3268   1.935   3.207   5.523 -3.9589 -1.3578  0.0183
    2PC      C2 3269   1.887   3.005   5.475 -0.0124 -0.0460 -0.1646
    2PC      HX 3270   1.790   3.010   5.425 -0.3225  1.1598  0.5292
    2PC      C3 3271   1.878   2.974   5.625  0.4158 -0.2646 -0.1827
    2PC      HA 3272   1.813   3.047   5.674  1.5228  0.3208  0.4423
    2PC      HB 3273   1.845   2.870   5.635  2.4693 -0.8388  1.1045
    2PC     O31 3274   2.005   3.001   5.687  0.1828 -0.1630  0.2546
    2PC     P31 3275   2.011   3.039   5.842 -0.0117 -0.1278  0.2537
    2PC     O32 3276   1.870   2.993   5.903 -0.2112  0.2417  0.0776
    2PC     C31 3277   1.761   3.083   5.926 -0.6489 -0.0883 -0.6947
    2PC     H1A 3278   1.790   3.170   5.985  0.1550 -0.7698 -0.0757
    2PC     H1B 3279   1.728   3.130   5.833 -0.8177  0.7870 -0.2091
    2PC     C32 3280   1.654   2.999   5.997 -0.0033 -0.3342  0.0007
    2PC     H2A 3281   1.559   3.054   5.990  0.6145  0.7587 -0.0062
    2PC     H2B 3282   1.649   2.904   5.944  2.5566  0.6084 -2.1470
    2PC     N31 3283   1.673   2.967   6.142  0.0299  0.1055  0.0967
    2PC     C33 3284   1.671   3.091   6.225  0.5656  0.1602  0.0310
    2PC     H3A 3285   1.769   3.140   6.221  0.0429  1.2727  0.2130
    2PC     H3B 3286   1.583   3.147   6.191 -0.3251 -0.7069  0.8413
    2PC     H3C 3287   1.651   3.058   6.327  0.3632 -1.4591 -0.5207
    2PC     C34 3288   1.562   2.873   6.177 -0.4819  0.3590 -0.8153
    2PC     H4A 3289   1.589   2.827   6.272 -1.2416  0.8818 -0.3336
    2PC     H4B 3290   1.463   2.918   6.188 -0.9681 -0.6689 -0.8416
    2PC     H4C 3291   1.561   2.799   6.097  2.9553 -0.1739 -0.4893
    2PC     C35 3292   1.792   2.882   6.176  0.0034  0.0168 -0.0312
    2PC     H5A 3293   1.884   2.928   6.139  1.0139 -2.4074 -0.7049
    2PC     H5B 3294   1.774   2.786   6.128 -0.8212  0.0400  0.2126
    2PC     H5C 3295   1.801   2.869   6.284  2.1894 -0.8652 -0.2651
    2PC     O33 3296   2.122   2.964   5.906  0.3123 -0.2789 -0.4837
    2PC     O34 3297   2.021   3.184   5.871  0.1590 -0.1105  0.1063
    2PC     O21 3298   1.965   2.898   5.417 -0.3059 -0.4502  0.1738
    2PC     C21 3299   1.926   2.771   5.401  0.0541 -0.5488  0.0841
    2PC     O22 3300   1.821   2.721   5.438  0.0715 -0.2480  0.5487
    3OL     C12 3301   2.034   2.688   5.337  0.6367  0.3876 -0.1618
    3OL     H2R 3302   2.030   2.591   5.387 -2.4034  0.0738 -0.8168
    3OL     H2S 3303   2.134   2.731   5.346  0.5587  1.0215 -1.8485
    3OL     C13 3304   1.986   2.675   5.191  0.1186 -0.0829  0.0480
    3OL     H3R 3305   1.885   2.633   5.186 -0.1996  0.1338  2.7478
    3OL     H3S 3306   2.043   2.603   5.133  1.6556 -0.0719  1.4626
    3OL     C14 3307   1.998   2.811   5.122 -0.4026 -0.1722 -0.2176
    3OL     H4R 3308   2.093   2.857   5.149 -0.6983  0.1747  0.2372
    3OL     H4S 3309   1.924   2.889   5.143 -0.4235  0.1957 -1.5249
    3OL     C15 3310   1.986   2.789   4.970  0.6833 -0.4562 -0.2709
    3OL     H5R 3311   1.888   2.745   4.949 -0.7666  2.7289 -0.8986
    3OL     H5S 3312   2.067   2.723   4.940  1.5010  0.4798 -0.1547
    3OL     C16 3313   1.998   2.925   4.900  1.1483 -0.2524  0.2042
    3OL     H6R 3314   2.088   2.980   4.930 -0.5136  2.0891  1.2705
    3OL     H6S 3315   1.908   2.978   4.930  1.2401 -0.2237  0.4347
    3OL     C17 3316   2.001   2.909   4.748  0.2281  0.0083  0.1536
    3OL     H7R 3317   1.908   2.862   4.713 -0.0119 -0.8836  1.8636
    3OL     H7S 3318   2.075   2.835   4.717 -1.4779 -0.7384 -2.5005
    3OL     C18 3319   2.013   3.039   4.667 -0.2536 -0.2754 -0.3788
    3OL     H8R 3320   2.059   3.019   4.570  2.0690  0.3171  0.5570
    3OL     H8S 3321   2.079   3.108   4.719 -1.0122  0.3679 -0.2454
    3OL     C19 3322   1.877   3.099   4.641 -0.3805 -0.3415  0.1273
    3OL     H9R 3323   1.811   3.103   4.728 -0.3020 -1.1473  0.2315
    3OL    C110 3324   1.825   3.139   4.526  0.5134  0.1537 -0.1159
    3OL    H10R 3325   1.720   3.169   4.528  0.6703  0.6852  0.7144
    3OL    C111 3326   1.904   3.167   4.401  0.6145  0.2524 -0.0303
    3OL    H11R 3327   1.893   3.091   4.323 -0.7266  0.2587  0.1252
    3OL    H11S 3328   2.011   3.168   4.423  1.2231 -0.9778 -2.6279
    3OL    C112 3329   1.853   3.302   4.348  0.0755  0.0894  0.0656
    3OL    H12R 3330   1.869   3.378   4.425  2.1488 -0.6636  0.4335
    3OL    H12S 3331   1.746   3.304   4.326 -0.1071 -1.8547  0.5967
    3OL    C113 3332   1.927   3.343   4.220  0.1311 -0.1004  0.0367
    3OL    H13R 3333   1.887   3.288   4.135  2.2258 -0.4502 -0.7859
    3OL    H13S 3334   2.034   3.320   4.214 -0.0648 -1.3909  1.0209
    3OL    C114 3335   1.906   3.493   4.195  0.0074 -0.1528 -0.1748
    3OL    H14R 3336   1.939   3.542   4.286 -1.6760  0.1698  0.2847
    3OL    H14S 3337   1.802   3.526   4.189  0.0674  0.1459  0.3729
    3OL    C115 3338   1.977   3.532   4.065 -0.0199  0.2594 -0.0660
    3OL    H15R 3339   2.081   3.497   4.059 -0.0929  0.1908 -1.3620
    3OL    H15S 3340   1.999   3.639   4.075  4.1835 -0.2532 -1.8082
    3OL    C116 3341   1.881   3.518   3.946  0.2607 -0.1898 -0.2431
    3OL    H16R 3342   1.806   3.595   3.967  1.9102  0.5884  3.7513
    3OL    H16S 3343   1.837   3.419   3.961  1.9394 -0.7421  1.4944
    3OL    C117 3344   1.952   3.534   3.811 -0.1208  0.7357 -0.3421
    3OL    H17R 3345   2.021   3.450   3.803 -0.4036  0.3899  0.6544
    3OL    H17S 3346   2.012   3.625   3.817  0.8686  0.1457 -1.0341
    3OL    C118 3347   1.854   3.542   3.693  0.1704 -0.1039 -0.6468
    3OL    H18R 3348   1.751   3.562   3.721  1.1013  2.5705  1.2545
    3OL    H18S 3349   1.852   3.449   3.636  0.9286 -1.0468  0.8088
    3OL    H18T 3350   1.892   3.627   3.635  0.4863  2.3024  2.7986
    1PA    C116 3351   1.172   1.996   3.852  0.4640 -0.3463  0.2179
    1PA    H16R 3352   1.156   1.946   3.948 -1.2212  0.8965  0.6325
    1PA    H16S 3353   1.217   1.925   3.782  0.6318 -0.6650  0.6454
    1PA    H16T 3354   1.069   2.015   3.822  0.9096  2.2234  0.1086
    1PA    C115 3355   1.245   2.130   3.868  0.4760 -0.3553  0.2390
    1PA    H15R 3356   1.266   2.180   3.773  1.7383  1.0077  1.1867
    1PA    H15S 3357   1.193   2.209   3.923 -0.0412  0.1557 -0.9499
    1PA    C114 3358   1.386   2.117   3.927  0.4575 -0.5322  0.2457
    1PA    H14R 3359   1.390   2.084   4.031  0.8717 -2.7334 -0.4195
    1PA    H14S 3360   1.431   2.033   3.875  1.9200 -0.6376  1.5981
    1PA    C113 3361   1.465   2.247   3.906  0.1112 -0.4402 -0.4999
    1PA    H13R 3362   1.500   2.242   3.802  2.4159 -2.3770  0.2579
    1PA    H13S 3363   1.400   2.333   3.922 -0.6599 -1.2567  0.9520
    1PA    C112 3364   1.590   2.256   3.995 -0.5419  0.4815  0.3327
    1PA    H12R 3365   1.624   2.155   4.016 -0.0057  0.3402 -1.1189
    1PA    H12S 3366   1.673   2.305   3.945 -1.7075  1.2764 -0.8994
    1PA    C111 3367   1.541   2.329   4.121 -0.6078  0.6300  0.2219
    1PA    H11R 3368   1.518   2.432   4.092  2.7391  1.3671 -0.2924
    1PA    H11S 3369   1.454   2.282   4.167 -0.3188 -0.5392 -0.3769
    1PA    C110 3370   1.643   2.343   4.235 -0.2391 -0.0459 -0.0177
    1PA    H10R 3371   1.738   2.387   4.204 -0.4415  1.0018  0.7688
    1PA    H10S 3372   1.606   2.422   4.301  1.3124  2.2520 -1.7164
    1PA     C19 3373   1.670   2.214   4.313  0.0462 -0.0755 -0.1645
    1PA     H9R 3374   1.577   2.163   4.340 -0.7624 -0.5521 -3.3913
    1PA     H9S 3375   1.713   2.147   4.238 -1.5863  0.5503 -1.7150
    1PA     C18 3376   1.768   2.257   4.423 -0.1686 -0.2013  0.0765
    1PA     H8R 3377   1.868   2.271   4.383 -0.0192  0.3341  0.6272
    1PA     H8S 3378   1.731   2.351   4.464  0.8253  1.9069 -3.4045
    1PA     C17 3379   1.778   2.148   4.531  0.1306 -0.3870 -0.1367
    1PA     H7R 3380   1.678   2.129   4.570 -0.1541  0.7532 -0.2626
    1PA     H7S 3381   1.817   2.057   4.485  2.6836 -0.8055  2.5698
    1PA     C16 3382   1.870   2.192   4.646 -0.1168 -0.0983 -0.0477
    1PA     H6R 3383   1.880   2.109   4.716  0.7079 -0.3192 -0.4190
    1PA     H6S 3384   1.971   2.217   4.613  0.7493  0.3422  2.6507
    1PA     C15 3385   1.811   2.309   4.727  0.1612 -0.1423  0.2199
    1PA     H5R 3386   1.805   2.400   4.667 -1.2894  0.7530  1.6599
    1PA     H5S 3387   1.711   2.283   4.763 -1.3852  1.0364 -2.8762
    1PA     C14 3388   1.896   2.343   4.850  0.3566  0.1156  0.0158
    1PA     H4R 3389   1.998   2.359   4.817 -0.4693  1.1691 -2.1816
    1PA     H4S 3390   1.865   2.443   4.883  1.0176  0.1662  0.4939
    1PA     C13 3391   1.896   2.245   4.969 -0.0781  0.3776  0.2366
    1PA     H3R 3392   1.792   2.220   4.988 -0.2577 -0.3690 -1.4761
    1PA     H3S 3393   1.955   2.160   4.935 -0.1726 -0.0152  1.0499
    1PA     C12 3394   1.985   2.306   5.078  0.1920  0.4181 -0.0035
    1PA     H2R 3395   2.086   2.327   5.042  0.9592  0.6431  2.1305
    1PA     H2S 3396   1.951   2.400   5.120 -1.5602  1.1952 -2.8812
    2PC     C11 3397   1.992   2.207   5.192 -0.2450  0.3781 -0.0093
    2PC     O12 3398   2.050   2.100   5.190 -0.2856  0.3655 -1.0545
    2PC     O11 3399   1.930   2.248   5.304 -0.8947  0.2929 -0.3363
    2PC      C1 3400   1.922   2.165   5.420 -0.2501  0.2608 -0.3107
    2PC      HR 3401   1.868   2.073   5.395 -0.0202 -0.0584  0.3303
    2PC      HS 3402   2.020   2.146   5.465  0.0164  0.6284 -0.7340
    2PC      C2 3403   1.830   2.241   5.517  0.2129  0.3093  0.0913
    2PC      HX 3404   1.847   2.349   5.516 -2.8368  0.8799  0.8810
    2PC      C3 3405   1.858   2.187   5.658  0.2380  0.2495  0.0635
    2PC      HA 3406   1.960   2.200   5.695  0.4083 -1.0409  0.1001
    2PC      HB 3407   1.784   2.240   5.720  1.9701  0.0696  2.4406
    2PC     O31 3408   1.832   2.046   5.669 -0.0020  0.3198  0.4328
    2PC     P31 3409   1.835   1.974   5.812  0.2229 -0.4098  0.0665
    2PC     O32 3410   1.690   2.015   5.867  0.0830 -0.5948 -0.1614
    2PC     C31 3411   1.578   1.932   5.830 -0.1981 -0.1450 -0.3285
    2PC     H1A 3412   1.571   1.937   5.721  0.7965 -2.6182 -0.5513
    2PC     H1B 3413   1.601   1.826   5.844  1.7927  0.3617  0.7141
    2PC     C32 3414   1.452   1.983   5.902  0.2230  0.3206  0.0960
    2PC     H2A 3415   1.443   2.090   5.882 -1.0381  0.1347 -0.4457
    2PC     H2B 3416   1.378   1.930   5.842  0.0702 -0.2794  0.8025
    2PC     N31 3417   1.438   1.956   6.048 -0.6110 -0.1286 -0.0601
    2PC     C33 3418   1.454   1.811   6.082 -0.1839 -0.1058 -0.1594
    2PC     H3A 3419   1.555   1.783   6.049  1.0280 -0.1491  3.2070
    2PC     H3B 3420   1.446   1.792   6.189  3.0269  0.5868  0.3120
    2PC     H3C 3421   1.383   1.755   6.020  0.2426  0.4687 -1.1886
    2PC     C34 3422   1.541   2.040   6.118 -0.5333 -0.3055  0.0386
    2PC     H4A 3423   1.540   2.024   6.226 -2.8934 -0.2588  0.0714
    2PC     H4B 3424   1.640   2.017   6.079 -0.1123  1.7631 -0.1920
    2PC     H4C 3425   1.516   2.145   6.106  0.3388  0.0691  1.2907
    2PC     C35 3426   1.305   2.003   6.098 -0.5533  0.2145 -0.2273
    2PC     H5A 3427   1.284   1.951   6.192  1.0740 -2.5264 -1.2513
    2PC     H5B 3428   1.228   1.977   6.025  1.2724  0.8577 -2.4761
    2PC     H5C 3429   1.324   2.109   6.116  0.1234 -0.1153  1.1940
    2PC     O33 3430   1.868   1.830   5.808  0.3715 -0.3608 -0.5797
    2PC     O34 3431   1.925   2.028   5.916  0.1497 -0.1707  0.0066
    2PC     O21 3432   1.692   2.232   5.479  0.3567  0.4407 -0.4682
    2PC     C21 3433   1.597   2.309   5.534  0.5301 -0.2212  0.7828
    2PC     O22 3434   1.624   2.391   5.620 -0.3084  0.4113  0.4527
    3OL     C12 3435   1.461   2.277   5.477  0.6998  0.3958  0.0267
    3OL     H2R 3436   1.388   2.321   5.545  0.6104  1.7139 -0.8655
    3OL     H2S 3437   1.441   2.171   5.466 -1.1237  0.7486 -0.3880
    3OL     C13 3438   1.432   2.356   5.348 -0.2648 -0.7403 -0.4730
    3OL     H3R 3439   1.464   2.459   5.368  0.3017 -0.6747 -1.6454
    3OL     H3S 3440   1.324   2.355   5.336 -0.2943  1.9289 -1.2174
    3OL     C14 3441   1.507   2.315   5.221  0.3795  0.0832 -0.3709
    3OL     H4R 3442   1.512   2.208   5.200 -1.4634 -0.1554  0.2351
    3OL     H4S 3443   1.610   2.351   5.230  0.5066 -0.3011 -0.2663
    3OL     C15 3444   1.444   2.387   5.101  0.5075 -0.3682 -0.7121
    3OL     H5R 3445   1.412   2.489   5.124  0.9291 -0.3678 -0.1195
    3OL     H5S 3446   1.351   2.339   5.070  0.9977 -0.0780 -2.8468
    3OL     C16 3447   1.534   2.391   4.977  0.2825  0.0220 -0.8644
    3OL     H6R 3448   1.564   2.292   4.942  0.8756  0.5967 -2.0489
    3OL     H6S 3449   1.616   2.460   5.000 -0.0268  0.1261 -0.0471
    3OL     C17 3450   1.458   2.447   4.856  0.0929  0.3594 -0.5904
    3OL     H7R 3451   1.357   2.406   4.850  0.2360 -0.2374  0.7785
    3OL     H7S 3452   1.502   2.409   4.763  0.0325  0.3859 -0.6302
    3OL     C18 3453   1.470   2.600   4.856 -0.2496  0.3888 -0.1303
    3OL     H8R 3454   1.575   2.626   4.877 -0.9235  1.3786  2.3853
    3OL     H8S 3455   1.410   2.645   4.935  0.4433 -3.1521  2.6791
    3OL     C19 3456   1.411   2.661   4.731 -0.2504  0.6148 -0.0207
    3OL     H9R 3457   1.312   2.702   4.749 -0.9138 -1.0910  0.4279
    3OL    C110 3458   1.469   2.658   4.612  0.3141 -0.1465  0.2616
    3OL    H10R 3459   1.414   2.707   4.532  0.2296 -0.2943  0.2295
    3OL    C111 3460   1.607   2.608   4.579  0.0435 -0.7303  0.0098
    3OL    H11R 3461   1.604   2.619   4.470  3.5037 -0.4608 -0.1731
    3OL    H11S 3462   1.636   2.506   4.609  0.7260 -0.4009  0.5079
    3OL    C112 3463   1.720   2.702   4.620 -0.0252 -0.5433 -0.2278
    3OL    H12R 3464   1.732   2.702   4.729 -0.4338 -1.3161 -0.1831
    3OL    H12S 3465   1.694   2.806   4.601 -0.9359 -0.7826 -0.3029
    3OL    C113 3466   1.853   2.663   4.554  0.1799 -0.0813 -0.0925
    3OL    H13R 3467   1.856   2.558   4.526  0.3751  0.1846 -1.1166
    3OL    H13S 3468   1.934   2.686   4.625  1.2862  1.1972 -1.6834
    3OL    C114 3469   1.879   2.746   4.427  0.2835  0.2766  0.1591
    3OL    H14R 3470   1.880   2.854   4.443 -2.3550  0.3523  0.1807
    3OL    H14S 3471   1.796   2.741   4.356 -1.7428  0.5790  2.3681
    3OL    C115 3472   2.006   2.702   4.353  0.5181 -0.3564  0.9157
    3OL    H15R 3473   2.092   2.702   4.419  2.0333  0.4710 -0.9579
    3OL    H15S 3474   2.031   2.781   4.281 -1.6743  1.0748  1.6191
    3OL    C116 3475   2.000   2.565   4.284 -0.1057  0.2082 -0.1965
    3OL    H16R 3476   1.924   2.563   4.207 -2.3030  0.0477  1.8630
    3OL    H16S 3477   1.967   2.489   4.355  2.0224 -1.1474 -0.5467
    3OL    C117 3478   2.136   2.537   4.219  0.0618  0.0117  0.2319
    3OL    H17R 3479   2.218   2.560   4.288  1.3293 -0.4547 -1.0592
    3OL    H17S 3480   2.155   2.601   4.132  0.2337 -2.2155 -1.4709
    3OL    C118 3481   2.148   2.393   4.166  0.2604  0.3526 -0.6802
    3OL    H18R 3482   2.054   2.380   4.112 -1.1128  2.1557  1.0685
    3OL    H18S 3483   2.143   2.328   4.254 -0.6924  1.0499 -0.1823
    3OL    H18T 3484   2.239   2.386   4.108  1.6101 -1.4353  1.4601
    1PA    C116 3485   4.988   0.541   3.715  0.2557  0.0172  0.7763
    1PA    H16R 3486   4.983   0.650   3.708 -1.6865  0.0322  1.6062
    1PA    H16S 3487   4.941   0.486   3.633 -0.2811 -1.9764  2.3287
    1PA    H16T 3488   4.933   0.518   3.807 -0.8197  0.7031  0.3260
    1PA    C115 3489   5.136   0.502   3.725  0.1892 -0.4793 -0.0770
    1PA    H15R 3490   5.146   0.397   3.695 -1.6781 -0.5765 -0.5077
    1PA    H15S 3491   5.197   0.555   3.651  1.1256 -3.1475 -1.3551
    1PA    C114 3492   5.201   0.532   3.861 -0.2205  0.0052  0.0141
    1PA    H14R 3493   5.174   0.636   3.878  1.7741  0.8251 -1.4791
    1PA    H14S 3494   5.162   0.468   3.941  0.7773  0.2602  0.7271
    1PA    C113 3495   5.354   0.520   3.855 -0.1979  0.3218 -0.0154
    1PA    H13R 3496   5.377   0.414   3.859 -0.0328  0.4002  1.3748
    1PA    H13S 3497   5.403   0.572   3.772 -1.0757  1.0022 -0.1319
    1PA    C112 3498   5.418   0.587   3.977 -0.0329 -0.0771  0.1171
    1PA    H12R 3499   5.397   0.692   4.000 -0.3943 -0.7097  3.0750
    1PA    H12S 3500   5.383   0.536   4.068 -2.3705  3.0899  1.2067
    1PA    C111 3501   5.570   0.571   3.978 -0.0144  0.0986  0.1943
    1PA    H11R 3502   5.596   0.476   3.929  1.6102  1.7963 -2.5085
    1PA    H11S 3503   5.609   0.644   3.906  0.2193 -1.7677 -1.6732
    1PA    C110 3504   5.627   0.591   4.119 -0.7447  0.2896  0.4674
    1PA    H10R 3505   5.592   0.686   4.160 -0.4727 -0.3576  2.2551
    1PA    H10S 3506   5.591   0.513   4.186 -0.8700  0.9474  1.1819
    1PA     C19 3507   5.781   0.592   4.119 -0.7380 -0.4030  0.1440
    1PA     H9R 3508   5.824   0.508   4.064  1.8883  0.7049  0.3583
    1PA     H9S 3509   5.813   0.679   4.062 -0.8994 -0.9121 -0.7433
    1PA     C18 3510   5.837   0.584   4.262 -0.6735  0.3276  0.1591
    1PA     H8R 3511   5.784   0.504   4.314  0.1039 -0.3280 -0.0259
    1PA     H8S 3512   5.945   0.569   4.258 -0.8473 -2.1372  2.2591
    1PA     C17 3513   5.796   0.708   4.342 -0.3886  0.2405  0.4409
    1PA     H7R 3514   5.813   0.800   4.285 -1.8552  0.9894  1.1417
    1PA     H7S 3515   5.695   0.713   4.382 -0.5703  1.5035 -0.1280
    1PA     C16 3516   5.893   0.724   4.461  0.6556 -0.0308 -0.3652
    1PA     H6R 3517   5.994   0.747   4.425 -0.4139 -0.1950 -3.8929
    1PA     H6S 3518   5.859   0.809   4.520 -0.9517  0.8912 -2.4899
    1PA     C15 3519   5.893   0.611   4.565  0.4262  0.4354  0.1392
    1PA     H5R 3520   5.793   0.597   4.607  0.5461  0.8045  0.5606
    1PA     H5S 3521   5.916   0.516   4.517 -1.6928  0.3385 -0.8242
    1PA     C14 3522   5.993   0.638   4.678 -0.0360  0.7829  0.4741
    1PA     H4R 3523   6.098   0.632   4.647  0.7098  2.4556  2.4319
    1PA     H4S 3524   5.961   0.732   4.724 -0.7515  0.6114  0.3349
    1PA     C13 3525   5.983   0.535   4.791  0.5003  0.3188  0.1070
    1PA     H3R 3526   5.882   0.536   4.833  0.1888  0.7777 -0.6533
    1PA     H3S 3527   6.012   0.440   4.745 -1.5747 -0.5028  0.3750
    1PA     C12 3528   6.077   0.565   4.909  0.1346  0.4006  0.3775
    1PA     H2R 3529   6.178   0.541   4.876 -0.8425 -0.9999 -1.8895
    1PA     H2S 3530   6.083   0.668   4.945  2.0178  0.3230  0.3862
    2PC     C11 3531   6.051   0.468   5.022 -0.0214 -0.1112 -0.0885
    2PC     O12 3532   5.941   0.437   5.063  0.0663 -0.9313 -0.4758
    2PC     O11 3533   6.163   0.424   5.083 -0.0851 -0.3498 -0.1449
    2PC      C1 3534   6.151   0.332   5.193  0.1900  0.4891  0.5950
    2PC      HR 3535   6.064   0.352   5.256 -1.3452 -3.3206 -0.0582
    2PC      HS 3536   6.138   0.233   5.149  1.5165  1.1120 -1.3336
    2PC      C2 3537   6.286   0.319   5.264  0.0525  0.0314  0.7700
    2PC      HX 3538   6.298   0.223   5.316  0.7615  0.2072  0.9469
    2PC      C3 3539   6.286   0.435   5.365  0.4734  0.8313 -0.1403
    2PC      HA 3540   6.307   0.535   5.326 -1.0323  0.3865 -2.2675
    2PC      HB 3541   6.185   0.440   5.407  0.2962 -0.4030 -0.3771
    2PC     O31 3542   6.390   0.392   5.455  0.0430 -0.2670 -0.1464
    2PC     P31 3543   6.414   0.485   5.583 -0.1094  0.0186 -0.3217
    2PC     O32 3544   6.449   0.361   5.678  0.2313  0.3515 -0.0066
    2PC     C31 3545   6.345   0.270   5.718  0.1241  0.4853  0.0187
    2PC     H1A 3546   6.255   0.321   5.753 -1.1100  0.4604 -2.7804
    2PC     H1B 3547   6.320   0.204   5.634 -1.0013 -0.2505  0.9019
    2PC     C32 3548   6.403   0.182   5.829 -0.3676  0.2572  0.0961
    2PC     H2A 3549   6.343   0.091   5.837  1.4335 -1.3267 -2.7984
    2PC     H2B 3550   6.503   0.146   5.805 -1.1416 -0.9306 -1.4785
    2PC     N31 3551   6.419   0.236   5.968 -0.5061 -0.5036  0.4163
    2PC     C33 3552   6.303   0.318   6.015 -0.2923  0.4740 -0.7062
    2PC     H3A 3553   6.299   0.336   6.123 -1.8226  1.0470 -0.8300
    2PC     H3B 3554   6.318   0.413   5.964  2.5075  1.0028  0.8676
    2PC     H3C 3555   6.223   0.255   5.976  0.4619 -0.8217 -0.2111
    2PC     C34 3556   6.432   0.118   6.059  0.3682 -0.3839  0.4602
    2PC     H4A 3557   6.460   0.155   6.158  0.1641 -1.5100  0.9527
    2PC     H4B 3558   6.339   0.061   6.062 -0.5907  1.0180 -0.9535
    2PC     H4C 3559   6.513   0.055   6.023  0.8185  0.8289 -0.6821
    2PC     C35 3560   6.544   0.318   5.970 -0.0463 -1.1652 -0.5318
    2PC     H5A 3561   6.570   0.351   6.071  2.0016  0.9732 -1.6421
    2PC     H5B 3562   6.529   0.414   5.919 -1.0560 -0.5914  0.8045
    2PC     H5C 3563   6.624   0.257   5.927  0.7120 -2.9629  3.0387
    2PC     O33 3564   6.517   0.591   5.577  0.3289 -0.3582  0.3564
    2PC     O34 3565   6.301   0.558   5.644  0.4428  0.8053 -0.2299
    2PC     O21 3566   6.405   0.341   5.187  0.0328 -0.3202  0.6380
    2PC     C21 3567   6.456   0.255   5.097  0.0415  0.3703 -0.0264
    2PC     O22 3568   6.427   0.138   5.085  0.3287  0.2526  0.4101
    3OL     C12 3569   6.573   0.318   5.025  0.3164 -0.0581  0.0447
    3OL     H2R 3570   6.661   0.263   5.059  0.7527  0.5477 -0.1120
    3OL     H2S 3571   6.589   0.420   5.060  1.9358  0.6561 -2.4668
    3OL     C13 3572   6.562   0.307   4.872  0.1734 -0.0957  0.0567
    3OL     H3R 3573   6.548   0.203   4.842 -1.1317  0.6153 -1.9875
    3OL     H3S 3574   6.659   0.344   4.836  0.2609  1.3145  1.6155
    3OL     C14 3575   6.451   0.400   4.823  0.6021  0.4839  0.1633
    3OL     H4R 3576   6.469   0.501   4.860  1.3498  1.0914 -1.7092
    3OL     H4S 3577   6.348   0.374   4.849  0.8430 -1.2411 -0.4531
    3OL     C15 3578   6.461   0.405   4.670 -0.2725 -0.1577  0.0774
    3OL     H5R 3579   6.450   0.304   4.630 -0.7715 -0.4227  0.8682
    3OL     H5S 3580   6.560   0.443   4.646  0.3096 -1.2999  0.6034
    3OL     C16 3581   6.350   0.491   4.607  0.1948  0.4767  0.1171
    3OL     H6R 3582   6.374   0.597   4.612  2.8566  0.0714 -1.6505
    3OL     H6S 3583   6.252   0.480   4.654 -0.5866  2.5111 -0.9252
    3OL     C17 3584   6.348   0.457   4.457 -0.7569 -0.2611  0.2880
    3OL     H7R 3585   6.338   0.349   4.440  0.9170 -0.0022 -3.2845
    3OL     H7S 3586   6.435   0.490   4.400 -0.5901  2.5478  2.0101
    3OL     C18 3587   6.241   0.538   4.384  0.0796  0.6219  0.0245
    3OL     H8R 3588   6.240   0.642   4.418 -2.8116  0.1632  1.6346
    3OL     H8S 3589   6.142   0.495   4.399 -0.4222  1.4014 -0.9484
    3OL     C19 3590   6.260   0.514   4.236  0.3876 -0.3273  0.2164
    3OL     H9R 3591   6.288   0.410   4.217  0.9888  0.0035 -0.7793
    3OL    C110 3592   6.246   0.604   4.140  0.1587 -0.1175  0.4436
    3OL    H10R 3593   6.260   0.581   4.035 -0.0219  1.2691  0.0986
    3OL    C111 3594   6.188   0.741   4.161  0.0989 -0.0343 -0.2535
    3OL    H11R 3595   6.259   0.799   4.221  0.2987  0.1969 -0.7074
    3OL    H11S 3596   6.094   0.734   4.215 -0.3362 -0.8205 -1.0902
    3OL    C112 3597   6.160   0.815   4.029  0.9411  0.9743  0.1179
    3OL    H12R 3598   6.118   0.914   4.051 -0.5692  0.0356  1.7855
    3OL    H12S 3599   6.082   0.766   3.970  1.4226  2.0381 -1.4611
    3OL    C113 3600   6.282   0.825   3.937  0.2650 -0.3332 -0.9498
    3OL    H13R 3601   6.317   0.725   3.911  1.4974 -0.0478 -0.4541
    3OL    H13S 3602   6.367   0.867   3.992  1.3952 -0.9568 -2.1624
    3OL    C114 3603   6.254   0.907   3.810 -0.4676  0.4432 -0.2990
    3OL    H14R 3604   6.223   1.009   3.832 -1.7746  0.3297 -1.4746
    3OL    H14S 3605   6.169   0.858   3.762  0.5189 -1.5605 -0.1261
    3OL    C115 3606   6.376   0.913   3.717 -0.2078  0.1769  0.0228
    3OL    H15R 3607   6.339   0.919   3.615 -1.4987 -0.5152  0.4239
    3OL    H15S 3608   6.429   0.818   3.725 -1.5102 -0.5818  0.0289
    3OL    C116 3609   6.477   1.026   3.743 -0.1392  0.0672  0.2352
    3OL    H16R 3610   6.520   1.008   3.842 -2.2744  0.4880  1.2992
    3OL    H16S 3611   6.417   1.116   3.735 -0.7345 -0.4311 -1.2989
    3OL    C117 3612   6.592   1.022   3.642 -0.1532  0.0902  0.2184
    3OL    H17R 3613   6.546   1.035   3.544 -1.7311  0.1006  0.9268
    3OL    H17S 3614   6.641   0.924   3.642  0.8320  0.5644 -0.3570
    3OL    C118 3615   6.699   1.130   3.661  0.2998 -0.4208  0.5887
    3OL    H18R 3616   6.788   1.108   3.602  0.7223  1.7267  0.3595
    3OL    H18S 3617   6.730   1.128   3.766 -1.4466 -0.1604  1.1347
    3OL    H18T 3618   6.653   1.223   3.628 -3.0885 -2.7143 -1.7244
    1PA    C116 3619   1.460   3.495   3.869  0.4140 -0.6522 -0.4402
    1PA    H16R 3620   1.453   3.602   3.847  0.5390 -0.3494  0.8945
    1PA    H16S 3621   1.370   3.447   3.832  1.0889 -0.4862 -2.3815
    1PA    H16T 3622   1.543   3.474   3.802  0.7445  2.5710 -1.2088
    1PA    C115 3623   1.501   3.463   4.014 -0.3581 -0.1559 -0.1072
    1PA    H15R 3624   1.533   3.359   4.022 -0.1682  0.0465  2.5831
    1PA    H15S 3625   1.583   3.525   4.050 -0.4758  0.5110 -0.9557
    1PA    C114 3626   1.382   3.497   4.105 -0.0997 -0.0917  0.2087
    1PA    H14R 3627   1.360   3.604   4.095 -0.0389  0.0215  1.2251
    1PA    H14S 3628   1.304   3.434   4.060  2.4566 -2.5272 -1.1523
    1PA    C113 3629   1.399   3.473   4.255 -0.9660  0.2376  0.3697
    1PA    H13R 3630   1.479   3.539   4.289  1.6356 -2.3368 -0.3241
    1PA    H13S 3631   1.313   3.506   4.313 -0.7116 -0.4093  1.1320
    1PA    C112 3632   1.426   3.328   4.299  0.6225  0.3358 -0.1957
    1PA    H12R 3633   1.342   3.263   4.273  1.5853 -1.6034  1.3348
    1PA    H12S 3634   1.513   3.285   4.249  0.2804  0.4623 -0.9208
    1PA    C111 3635   1.433   3.329   4.452  0.0307  0.1202 -0.1613
    1PA    H11R 3636   1.526   3.376   4.487 -1.5567  1.3080  2.7879
    1PA    H11S 3637   1.356   3.392   4.497  1.4020  0.3992  1.9393
    1PA    C110 3638   1.434   3.188   4.512 -0.0135  0.0779 -0.2616
    1PA    H10R 3639   1.339   3.135   4.506 -1.8200  2.7297  2.2933
    1PA    H10S 3640   1.512   3.130   4.462  2.1348 -1.4644  4.3422
    1PA     C19 3641   1.491   3.188   4.654  0.0529 -0.3607 -0.2851
    1PA     H9R 3642   1.583   3.247   4.659 -1.1364  1.4817  2.1596
    1PA     H9S 3643   1.424   3.238   4.724  1.0813  1.0238 -0.2448
    1PA     C18 3644   1.514   3.050   4.717  0.0794 -0.1136  0.2531
    1PA     H8R 3645   1.431   2.980   4.706  0.9684 -1.2438  0.5090
    1PA     H8S 3646   1.589   3.002   4.654  1.9366 -0.0780  2.3214
    1PA     C17 3647   1.561   3.074   4.862  0.3268  0.3206  0.1049
    1PA     H7R 3648   1.654   3.129   4.851 -0.1856  1.0829 -0.6015
    1PA     H7S 3649   1.484   3.132   4.914  0.2525  1.5567 -1.3125
    1PA     C16 3650   1.578   2.945   4.943 -0.5672  0.0441 -0.1345
    1PA     H6R 3651   1.487   2.884   4.935 -0.3225 -0.2128 -1.1294
    1PA     H6S 3652   1.656   2.882   4.901 -0.9242 -1.0595  0.7974
    1PA     C15 3653   1.614   2.967   5.090 -0.1466 -0.6632 -0.1276
    1PA     H5R 3654   1.716   3.006   5.085 -0.4423  0.3118  0.9154
    1PA     H5S 3655   1.553   3.039   5.145 -0.9410 -2.2824  1.2071
    1PA     C14 3656   1.627   2.832   5.161 -0.6354 -0.8283 -0.3501
    1PA     H4R 3657   1.661   2.751   5.096  1.6559  0.7788 -1.2814
    1PA     H4S 3658   1.696   2.840   5.245 -0.5988  0.0602 -0.4564
    1PA     C13 3659   1.500   2.783   5.233 -0.4059 -0.2006  0.4930
    1PA     H3R 3660   1.418   2.765   5.164 -0.9505  1.2759  0.7023
    1PA     H3S 3661   1.522   2.687   5.280  0.1581  0.3191  1.3208
    1PA     C12 3662   1.447   2.873   5.346 -0.3992  0.3847  0.0335
    1PA     H2R 3663   1.531   2.919   5.398  1.0573 -1.6545 -0.3935
    1PA     H2S 3664   1.379   2.946   5.301 -0.5404  0.6268  0.6296
    2PC     C11 3665   1.365   2.811   5.455 -0.5314  0.1549 -0.1970
    2PC     O12 3666   1.322   2.877   5.547  0.7648  0.6672  0.0567
    2PC     O11 3667   1.344   2.678   5.444 -0.0962  0.1294 -0.7749
    2PC      C1 3668   1.271   2.612   5.549 -0.0438  0.0958 -0.7596
    2PC      HR 3669   1.276   2.503   5.543  4.2310  0.1233 -0.4909
    2PC      HS 3670   1.308   2.645   5.646 -1.0883 -0.2782 -0.2212
    2PC      C2 3671   1.121   2.643   5.537 -0.0645  0.2209 -0.2201
    2PC      HX 3672   1.096   2.749   5.542 -0.0099  0.1816  1.0100
    2PC      C3 3673   1.038   2.568   5.642  0.2725 -0.6431 -0.5601
    2PC      HA 3674   1.054   2.610   5.741  1.2541 -0.7196 -0.6801
    2PC      HB 3675   0.929   2.566   5.629  0.0837 -0.5836  0.9280
    2PC     O31 3676   1.068   2.428   5.648  0.9757 -0.4797 -0.1366
    2PC     P31 3677   0.991   2.332   5.751  0.1274  0.0442 -0.2670
    2PC     O32 3678   0.850   2.292   5.685  0.2354 -0.5373 -0.1570
    2PC     C31 3679   0.846   2.196   5.579  0.1300 -0.0485 -0.6003
    2PC     H1A 3680   0.915   2.222   5.498  0.4515 -1.7029 -0.8964
    2PC     H1B 3681   0.868   2.094   5.613 -2.4980 -1.2893 -2.2262
    2PC     C32 3682   0.705   2.186   5.518 -0.0912 -0.6459 -0.0044
    2PC     H2A 3683   0.697   2.089   5.468  0.7177 -1.1226  0.7475
    2PC     H2B 3684   0.626   2.189   5.593 -0.7165  2.0862 -0.6723
    2PC     N31 3685   0.662   2.284   5.414  0.3237 -0.1674  0.2688
    2PC     C33 3686   0.717   2.248   5.279 -0.0611 -0.6802  0.2415
    2PC     H3A 3687   0.643   2.215   5.206  0.1594 -1.7326  0.4838
    2PC     H3B 3688   0.781   2.330   5.245 -0.5456  0.4728  1.9736
    2PC     H3C 3689   0.777   2.160   5.302  1.9620  0.7917  0.9304
    2PC     C34 3690   0.512   2.278   5.414  0.3276 -0.3206 -0.2317
    2PC     H4A 3691   0.467   2.357   5.354 -3.4707 -2.1868 -0.1620
    2PC     H4B 3692   0.482   2.182   5.372  0.6872 -0.4737 -0.1427
    2PC     H4C 3693   0.485   2.288   5.519  1.0560 -0.6789 -0.0037
    2PC     C35 3694   0.710   2.424   5.436  0.0237 -0.0633  0.2726
    2PC     H5A 3695   0.819   2.424   5.441  0.0197 -1.5708  0.8613
    2PC     H5B 3696   0.666   2.457   5.530 -2.1841 -1.0211 -0.3656
    2PC     H5C 3697   0.661   2.489   5.363 -0.2810 -1.7281 -1.0571
    2PC     O33 3698   1.072   2.214   5.792  0.0144 -0.0285 -0.2538
    2PC     O34 3699   0.956   2.404   5.875  0.3973 -0.3353  0.0302
    2PC     O21 3700   1.071   2.600   5.409  0.1053 -0.1612 -0.1568
    2PC     C21 3701   1.072   2.686   5.306 -0.7094  0.2446  0.1678
    2PC     O22 3702   1.098   2.804   5.315  0.1594  0.0608  0.1588
    3OL     C12 3703   1.016   2.626   5.179 -0.6645  0.2626  0.1395
    3OL     H2R 3704   0.974   2.698   5.108 -0.6366  3.0997  2.8105
    3OL     H2S 3705   0.935   2.559   5.207  0.0166 -1.2293 -1.2906
    3OL     C13 3706   1.126   2.542   5.113 -0.5864  0.5552 -0.1106
    3OL     H3R 3707   1.174   2.478   5.188 -0.6010  0.2989 -0.3172
    3OL     H3S 3708   1.200   2.608   5.069 -1.0995  0.8775 -0.4920
    3OL     C14 3709   1.073   2.459   4.995 -0.4142  0.3908 -0.0741
    3OL     H4R 3710   1.163   2.442   4.936 -0.1218  0.7749  0.2532
    3OL     H4S 3711   1.004   2.514   4.930 -1.7185 -0.4290  0.5684
    3OL     C15 3712   1.005   2.327   5.031  0.8417 -0.1104  0.5125
    3OL     H5R 3713   0.913   2.351   5.086  0.4614  2.8583 -1.2263
    3OL     H5S 3714   1.064   2.267   5.101 -0.6276 -0.3211  1.6250
    3OL     C16 3715   0.980   2.237   4.909 -0.6277  0.3033  0.4870
    3OL     H6R 3716   1.073   2.221   4.855 -0.5826 -0.7665  0.8424
    3OL     H6S 3717   0.909   2.284   4.841 -0.0226  0.3371 -0.1245
    3OL     C17 3718   0.922   2.105   4.962  0.7551 -0.2783  0.5932
    3OL     H7R 3719   0.837   2.139   5.022 -1.0141  1.7780 -2.8059
    3OL     H7S 3720   0.998   2.047   5.015  0.1716  1.0587  3.0529
    3OL     C18 3721   0.866   2.015   4.851  0.5652  0.5827 -0.0148
    3OL     H8R 3722   0.786   2.067   4.798  0.9671  1.5757  0.3132
    3OL     H8S 3723   0.827   1.922   4.893 -0.8816  1.3772  0.4484
    3OL     C19 3724   0.973   1.978   4.751  0.2059 -0.2959 -0.0771
    3OL     H9R 3725   1.078   1.983   4.777  0.7146 -1.3931 -1.7366
    3OL    C110 3726   0.943   1.934   4.630  0.3671 -0.2274 -0.1419
    3OL    H10R 3727   1.022   1.911   4.559  2.0872 -0.1815  1.6672
    3OL    C111 3728   0.808   1.891   4.577  0.3067 -0.4478  0.1921
    3OL    H11R 3729   0.747   1.981   4.563  0.6628  0.2857  2.6911
    3OL    H11S 3730   0.766   1.832   4.659 -1.8024  0.0126 -0.5051
    3OL    C112 3731   0.817   1.821   4.441 -0.2968  0.5099 -0.3574
    3OL    H12R 3732   0.884   1.868   4.369 -1.7376  1.1029 -1.3579
    3OL    H12S 3733   0.725   1.805   4.385  0.3590 -2.4143 -0.7724
    3OL    C113 3734   0.879   1.681   4.452  0.1217  0.7097 -0.1358
    3OL    H13R 3735   0.961   1.684   4.524 -0.1896  0.7189  0.2199
    3OL    H13S 3736   0.901   1.641   4.352 -1.2519 -0.0208 -0.1742
    3OL    C114 3737   0.771   1.579   4.491  0.5930  0.1000 -0.3930
    3OL    H14R 3738   0.680   1.594   4.432  0.1372  1.2312  0.5564
    3OL    H14S 3739   0.739   1.598   4.594 -0.6885  1.7492 -1.0446
    3OL    C115 3740   0.815   1.434   4.471 -0.0594 -0.1224 -0.2406
    3OL    H15R 3741   0.919   1.429   4.506 -0.1272  2.7693  0.6159
    3OL    H15S 3742   0.821   1.412   4.364 -0.2278  0.2754 -0.3305
    3OL    C116 3743   0.733   1.331   4.550  0.3085 -0.1354  0.1272
    3OL    H16R 3744   0.775   1.237   4.515  3.3073  0.9547  0.4342
    3OL    H16S 3745   0.627   1.335   4.525 -0.3627 -0.2703  2.6105
    3OL    C117 3746   0.757   1.330   4.702 -0.4185 -0.2860  0.2432
    3OL    H17R 3747   0.719   1.417   4.758 -0.1762  1.3846 -2.0459
    3OL    H17S 3748   0.864   1.320   4.718 -0.2356 -0.8392 -1.2133
    3OL    C118 3749   0.691   1.205   4.761  0.0897 -0.5638  0.2269
    3OL    H18R 3750   0.708   1.223   4.867 -0.1300  3.1954 -0.2339
    3OL    H18S 3751   0.741   1.117   4.721 -0.3333 -0.0792 -1.4622
    3OL    H18T 3752   0.585   1.189   4.738  0.4647 -3.5955  0.2545
    1PA    C116 3753   2.372   4.292   3.851  0.3978 -0.1131 -0.2236
    1PA    H16R 3754   2.313   4.379   3.822  1.3827  0.8349  0.4930
    1PA    H16S 3755   2.352   4.206   3.787  2.2318 -1.3806  0.7945
    1PA    H16T 3756   2.478   4.319   3.842  0.2963  0.5025  0.3691
    1PA    C115 3757   2.343   4.250   3.996  0.7537  0.1693 -0.0685
    1PA    H15R 3758   2.236   4.232   4.004  1.2150 -2.9816  0.0242
    1PA    H15S 3759   2.396   4.157   4.018 -0.7290 -0.5686  0.5067
    1PA    C114 3760   2.370   4.362   4.098 -1.1911  0.3170  0.3307
    1PA    H14R 3761   2.478   4.377   4.096 -1.2688  0.8504 -0.5900
    1PA    H14S 3762   2.315   4.451   4.070  0.4862  0.5717 -2.6179
    1PA    C113 3763   2.331   4.314   4.238 -0.2706 -0.1289  0.4443
    1PA    H13R 3764   2.388   4.227   4.271 -1.0244  0.5003  3.8462
    1PA    H13S 3765   2.362   4.395   4.306  2.1863  2.3749 -3.2840
    1PA    C112 3766   2.185   4.274   4.266 -0.3973  0.0736  0.0694
    1PA    H12R 3767   2.157   4.198   4.193  0.4916  1.4788 -1.8608
    1PA    H12S 3768   2.187   4.229   4.365 -4.5730 -2.6676 -0.8516
    1PA    C111 3769   2.092   4.396   4.259 -0.1308  0.2658 -0.1945
    1PA    H11R 3770   2.130   4.468   4.331  2.1870  0.2914 -1.3717
    1PA    H11S 3771   2.100   4.449   4.164  1.3486 -1.0130 -0.8227
    1PA    C110 3772   1.946   4.349   4.274  0.0387 -0.2546 -0.1528
    1PA    H10R 3773   1.921   4.289   4.186  3.2274 -1.5824 -0.2874
    1PA    H10S 3774   1.936   4.285   4.361 -1.9856  0.5019  0.2103
    1PA     C19 3775   1.852   4.470   4.275  0.0053 -0.2828  0.2211
    1PA     H9R 3776   1.896   4.558   4.323 -0.1540  0.6621 -1.2857
    1PA     H9S 3777   1.842   4.505   4.171  1.9763  1.2996  0.4998
    1PA     C18 3778   1.716   4.443   4.340 -0.0391  0.2067  0.3330
    1PA     H8R 3779   1.738   4.433   4.446  0.4589  0.8492  0.2949
    1PA     H8S 3780   1.650   4.529   4.322 -1.1756 -0.6959  0.0985
    1PA     C17 3781   1.648   4.319   4.282  0.0077  0.1659  0.3654
    1PA     H7R 3782   1.643   4.340   4.175 -1.6587 -1.7866 -0.0220
    1PA     H7S 3783   1.717   4.235   4.287 -0.0968 -0.1783 -2.3103
    1PA     C16 3784   1.517   4.293   4.359 -0.0646 -0.4613  0.0371
    1PA     H6R 3785   1.480   4.388   4.397 -1.3807 -0.6357 -0.7463
    1PA     H6S 3786   1.448   4.254   4.284  1.2762  0.9315 -2.0287
    1PA     C15 3787   1.520   4.188   4.471  0.2023  0.0588  0.5230
    1PA     H5R 3788   1.522   4.087   4.430 -0.3143  0.4670 -0.5657
    1PA     H5S 3789   1.604   4.203   4.538 -1.0882 -1.8014  2.6976
    1PA     C14 3790   1.389   4.196   4.551 -0.1421 -0.1019 -0.0180
    1PA     H4R 3791   1.386   4.287   4.611  1.2499  1.5622 -2.3107
    1PA     H4S 3792   1.304   4.204   4.483 -0.3753  0.8687  0.3740
    1PA     C13 3793   1.372   4.077   4.647  0.2085 -0.1679 -0.0362
    1PA     H3R 3794   1.343   3.996   4.580 -0.8670  1.6993 -1.9600
    1PA     H3S 3795   1.464   4.037   4.690  0.5392  1.6297  1.0312
    1PA     C12 3796   1.265   4.101   4.755 -0.3025  0.7286 -0.7261
    1PA     H2R 3797   1.170   4.131   4.711 -2.1167  0.4397  2.6743
    1PA     H2S 3798   1.250   4.005   4.806 -0.7364  0.6004 -1.0909
    2PC     C11 3799   1.316   4.197   4.860  0.1934  0.2498 -0.5192
    2PC     O12 3800   1.237   4.261   4.927  0.0342  0.1744 -0.6354
    2PC     O11 3801   1.447   4.186   4.883  0.2000  0.2432 -0.5608
    2PC      C1 3802   1.511   4.243   4.999  0.1719  0.1125 -0.4807
    2PC      HR 3803   1.520   4.352   4.996  1.7514 -0.0079 -0.9067
    2PC      HS 3804   1.462   4.210   5.090 -1.0317 -0.9318 -1.4650
    2PC      C2 3805   1.657   4.197   5.009  0.3767  0.9000  0.3158
    2PC      HX 3806   1.654   4.088   4.993 -1.2990  1.0819 -0.8634
    2PC      C3 3807   1.732   4.250   5.131  0.2501  0.0911  0.7570
    2PC      HA 3808   1.716   4.194   5.223  1.3044  0.5140  1.2144
    2PC      HB 3809   1.839   4.249   5.108  0.3051  0.1709  1.0005
    2PC     O31 3810   1.698   4.388   5.154  0.0548  0.3056 -0.7444
    2PC     P31 3811   1.790   4.470   5.256 -0.4316  0.1066 -0.1448
    2PC     O32 3812   1.703   4.440   5.388 -0.0233 -0.4276  0.0079
    2PC     C31 3813   1.575   4.502   5.411 -0.1038 -0.5005 -0.2444
    2PC     H1A 3814   1.570   4.606   5.379 -0.3331  0.1066  1.6720
    2PC     H1B 3815   1.498   4.450   5.354  0.4615 -2.4111  0.6571
    2PC     C32 3816   1.543   4.499   5.561  0.0020 -0.4435 -0.2205
    2PC     H2A 3817   1.448   4.550   5.576  0.1340  0.0642 -1.0573
    2PC     H2B 3818   1.532   4.394   5.590 -0.1670 -0.8028 -1.5121
    2PC     N31 3819   1.637   4.551   5.665 -0.4122  0.4345 -0.2757
    2PC     C33 3820   1.559   4.543   5.793  0.7431  0.3677  0.4372
    2PC     H3A 3821   1.454   4.551   5.765  0.8042 -0.6638 -0.1473
    2PC     H3B 3822   1.574   4.441   5.830 -0.3868 -0.3463 -0.9621
    2PC     H3C 3823   1.601   4.616   5.862  0.2837  0.7326  0.3383
    2PC     C34 3824   1.760   4.467   5.680 -0.4742  0.4214  0.1955
    2PC     H4A 3825   1.806   4.502   5.772 -1.7972  0.6193  0.8043
    2PC     H4B 3826   1.726   4.363   5.683  0.1946  0.2236  1.3275
    2PC     H4C 3827   1.836   4.470   5.601 -0.9474 -0.1428 -0.2986
    2PC     C35 3828   1.677   4.694   5.649  0.4710  0.2293  0.0667
    2PC     H5A 3829   1.755   4.734   5.715 -0.1301  1.7301 -0.0944
    2PC     H5B 3830   1.593   4.763   5.648  1.4379  1.4444 -0.3276
    2PC     H5C 3831   1.722   4.682   5.551 -1.8211  1.7753 -1.2640
    2PC     O33 3832   1.926   4.417   5.282 -0.5920 -0.3631 -0.2475
    2PC     O34 3833   1.790   4.617   5.246 -0.5319  0.1358  0.2554
    2PC     O21 3834   1.726   4.241   4.890  0.6572  0.4709  0.3177
    2PC     C21 3835   1.829   4.174   4.835 -0.6878 -0.7546 -0.7959
    2PC     O22 3836   1.868   4.067   4.877  0.0466  0.0539  0.6654
    3OL     C12 3837   1.887   4.246   4.716  0.0314 -0.3125 -0.1876
    3OL     H2R 3838   1.810   4.253   4.639 -0.3382 -2.2858 -0.0458
    3OL     H2S 3839   1.960   4.178   4.671 -0.0680 -1.6043  1.4862
    3OL     C13 3840   1.944   4.387   4.737 -0.0485 -0.2643 -0.2912
    3OL     H3R 3841   2.006   4.394   4.827  1.5024  3.9965 -1.4654
    3OL     H3S 3842   1.864   4.455   4.769 -1.5962 -1.8482 -0.6031
    3OL     C14 3843   2.014   4.449   4.616  0.1669  0.4068  0.1694
    3OL     H4R 3844   1.936   4.467   4.543  0.3148 -0.5131 -0.2328
    3OL     H4S 3845   2.093   4.385   4.575 -1.1546 -1.0533 -0.1814
    3OL     C15 3846   2.081   4.580   4.660  0.4079  0.1787  0.4843
    3OL     H5R 3847   2.169   4.591   4.597  0.1958 -0.8089 -0.0151
    3OL     H5S 3848   2.109   4.568   4.765 -0.7732  0.9663  0.9141
    3OL     C16 3849   1.984   4.699   4.659  0.2045  0.0102 -0.7992
    3OL     H6R 3850   2.021   4.769   4.734  1.5846 -0.2895 -1.1753
    3OL     H6S 3851   1.884   4.663   4.684  0.6695 -0.5729  0.2842
    3OL     C17 3852   1.980   4.765   4.521  0.3154  0.4166 -0.6072
    3OL     H7R 3853   1.941   4.692   4.450 -3.0509  0.0980  1.3778
    3OL     H7S 3854   2.080   4.792   4.486 -0.2753  3.4627 -0.2299
    3OL     C18 3855   1.889   4.888   4.538 -0.5069 -0.3835  0.9154
    3OL     H8R 3856   1.797   4.846   4.581 -2.1868  0.0562 -1.9827
    3OL     H8S 3857   1.872   4.925   4.437  0.5742 -2.8730 -0.2682
    3OL     C19 3858   1.956   4.992   4.624 -0.3465  0.1937  0.0981
    3OL     H9R 3859   1.935   4.988   4.730 -0.3635  0.8236  0.1225
    3OL    C110 3860   2.026   5.098   4.586  0.2792 -0.2368  0.0414
    3OL    H10R 3861   2.059   5.164   4.666  0.4983 -1.0279  0.6260
    3OL    C111 3862   2.078   5.122   4.447 -0.0827  0.3939  0.0126
    3OL    H11R 3863   2.076   5.031   4.386 -0.2615 -0.4818  1.2767
    3OL    H11S 3864   2.184   5.147   4.458 -0.2176  0.5646  0.9791
    3OL    C112 3865   2.027   5.251   4.380  0.3380  0.5163 -0.0741
    3OL    H12R 3866   2.047   5.335   4.446  0.2903  0.7323 -0.3349
    3OL    H12S 3867   1.920   5.245   4.362  0.3309 -0.0648  0.1300
    3OL    C113 3868   2.101   5.270   4.247  0.3095  0.3141 -0.1196
    3OL    H13R 3869   2.106   5.174   4.195 -2.2173  0.6927 -1.1653
    3OL    H13S 3870   2.201   5.314   4.259  0.2631  0.8862 -1.6020
    3OL    C114 3871   2.023   5.378   4.172 -0.0802  0.0084 -0.1563
    3OL    H14R 3872   2.004   5.472   4.224  0.4479  0.4845 -0.8100
    3OL    H14S 3873   1.930   5.328   4.146  0.9447 -0.6743 -2.8386
    3OL    C115 3874   2.090   5.414   4.038 -0.3031 -0.0100 -0.2731
    3OL    H15R 3875   2.108   5.317   3.993  0.0196 -1.3255  2.4972
    3OL    H15S 3876   2.179   5.472   4.064 -0.7530 -0.3593  2.2728
    3OL    C116 3877   1.996   5.509   3.962 -0.3480  0.4015  0.2868
    3OL    H16R 3878   1.891   5.480   3.968 -0.2748  0.1830  0.5203
    3OL    H16S 3879   2.024   5.506   3.857 -1.3874  1.6271 -0.0539
    3OL    C117 3880   2.009   5.654   4.010  0.3661  0.5605 -0.3633
    3OL    H17R 3881   2.115   5.678   3.997  0.6941 -1.1309 -0.9580
    3OL    H17S 3882   1.982   5.653   4.116 -0.9616  2.8382 -0.5998
    3OL    C118 3883   1.923   5.755   3.932 -0.4513  0.0847 -0.0871
    3OL    H18R 3884   1.964   5.763   3.831 -0.3276 -0.2764 -0.0664
    3OL    H18S 3885   1.952   5.855   3.963  0.3009 -0.0798 -0.2333
    3OL    H18T 3886   1.817   5.737   3.954 -0.2229 -2.7988 -0.9036
    1PA    C116 3887   1.161   6.028   4.124  0.4773  0.5123 -0.4840
    1PA    H16R 3888   1.126   5.942   4.066  1.9662  0.5057 -1.4275
    1PA    H16S 3889   1.247   5.987   4.176  1.2651  1.0798 -1.3098
    1PA    H16T 3890   1.189   6.111   4.058 -0.1886  0.2276 -1.1411
    1PA    C115 3891   1.071   6.080   4.237  0.2770 -0.6170 -0.1162
    1PA    H15R 3892   1.047   6.006   4.314 -0.5690 -0.3095 -0.0732
    1PA    H15S 3893   1.137   6.154   4.282 -0.9413 -1.2611  3.0493
    1PA    C114 3894   0.937   6.137   4.190  0.5047  0.5728  0.6347
    1PA    H14R 3895   0.942   6.223   4.122  0.5499  0.4871  0.5303
    1PA    H14S 3896   0.879   6.054   4.149  0.2748 -0.4637  2.9049
    1PA    C113 3897   0.849   6.184   4.307 -0.1945  0.0593  0.3212
    1PA    H13R 3898   0.741   6.185   4.291 -0.7014  1.1084  3.3174
    1PA    H13S 3899   0.857   6.120   4.395  1.9309 -0.0847  0.0827
    1PA    C112 3900   0.901   6.321   4.351 -0.0614  0.1602 -0.1489
    1PA    H12R 3901   0.997   6.304   4.399 -1.0745 -2.0639  1.2111
    1PA    H12S 3902   0.912   6.385   4.262 -0.6176  1.4059  0.6477
    1PA    C111 3903   0.811   6.398   4.449 -0.4424 -0.3635 -0.0845
    1PA    H11R 3904   0.856   6.497   4.456  0.5230 -0.8320  0.4287
    1PA    H11S 3905   0.716   6.420   4.398 -0.2725  1.7209  0.4060
    1PA    C110 3906   0.778   6.336   4.585  0.3759 -0.2529  0.1650
    1PA    H10R 3907   0.721   6.411   4.640 -1.3121 -1.6034  0.3232
    1PA    H10S 3908   0.717   6.247   4.572  0.1759 -0.6473  3.0805
    1PA     C19 3909   0.903   6.301   4.667  0.4828  0.0826  0.1499
    1PA     H9R 3910   0.968   6.232   4.613 -1.1274  0.0947 -1.9136
    1PA     H9S 3911   0.954   6.386   4.712  0.9171 -1.7598  3.4840
    1PA     C18 3912   0.843   6.221   4.784 -0.0020  0.1963 -0.0185
    1PA     H8R 3913   0.771   6.289   4.830  0.8029  0.9452  0.1595
    1PA     H8S 3914   0.799   6.130   4.744  3.1360 -1.4100 -0.1030
    1PA     C17 3915   0.947   6.182   4.891  0.4238 -0.4398 -0.6609
    1PA     H7R 3916   0.891   6.128   4.968 -0.1929  3.4934  1.8953
    1PA     H7S 3917   1.022   6.120   4.841  0.2460 -1.7598  0.6407
    1PA     C16 3918   1.003   6.301   4.968  0.1292 -0.6268 -0.1539
    1PA     H6R 3919   1.046   6.375   4.901 -0.2438 -2.3594 -2.4026
    1PA     H6S 3920   0.924   6.355   5.022 -0.4682 -0.9875 -0.6581
    1PA     C15 3921   1.110   6.248   5.065  0.4217  0.3764  0.0855
    1PA     H5R 3922   1.057   6.196   5.144  1.7293 -1.8606 -0.4269
    1PA     H5S 3923   1.178   6.179   5.015 -0.8363 -0.8698  0.0252
    1PA     C14 3924   1.199   6.364   5.113  0.7064  0.1616  0.0765
    1PA     H4R 3925   1.275   6.318   5.177  0.5890  2.4238  1.9553
    1PA     H4S 3926   1.264   6.401   5.034 -1.1127 -2.4485 -2.9141
    1PA     C13 3927   1.130   6.481   5.183 -0.6245 -0.2964 -0.4381
    1PA     H3R 3928   1.204   6.556   5.213 -0.3650 -0.5380 -0.4778
    1PA     H3S 3929   1.071   6.537   5.110 -0.2972  1.2252  0.4127
    1PA     C12 3930   1.058   6.430   5.309 -0.2324  0.0062 -0.0884
    1PA     H2R 3931   1.013   6.332   5.293 -0.5686  0.2134 -0.4081
    1PA     H2S 3932   1.126   6.414   5.393 -2.2411 -1.0068  1.4317
    2PC     C11 3933   0.956   6.526   5.363 -0.3068 -0.2113  0.1617
    2PC     O12 3934   0.876   6.589   5.296  0.2982 -0.0463 -0.4116
    2PC     O11 3935   0.959   6.530   5.497  0.4791  0.5430  0.1284
    2PC      C1 3936   0.868   6.618   5.565  0.0166 -0.2042  0.4834
    2PC      HR 3937   0.926   6.672   5.640  0.4049  1.0976 -0.7340
    2PC      HS 3938   0.818   6.682   5.492 -0.9889 -1.4997 -0.0229
    2PC      C2 3939   0.760   6.539   5.641 -0.2629 -0.2735  0.0167
    2PC      HX 3940   0.718   6.611   5.711  0.7808  1.0357 -0.6662
    2PC      C3 3941   0.803   6.414   5.719  0.1282  0.0464  0.3143
    2PC      HA 3942   0.746   6.328   5.684 -3.7480  2.2797  0.6445
    2PC      HB 3943   0.910   6.396   5.705  0.3095  2.2145 -1.7446
    2PC     O31 3944   0.780   6.438   5.859  0.3044  0.0068  0.3506
    2PC     P31 3945   0.861   6.353   5.968  0.0759 -0.4381  0.1779
    2PC     O32 3946   0.997   6.438   5.967 -0.4816  0.4674  0.2794
    2PC     C31 3947   1.021   6.527   6.078 -0.1318  0.4704  0.2010
    2PC     H1A 3948   0.997   6.622   6.032 -2.2840 -0.7438 -1.3874
    2PC     H1B 3949   0.959   6.508   6.166  2.8195  1.1758  2.6115
    2PC     C32 3950   1.169   6.522   6.119 -0.1113  0.3167  0.1106
    2PC     H2A 3951   1.190   6.594   6.198  1.0956 -0.7132  0.7682
    2PC     H2B 3952   1.204   6.426   6.157  1.8289  0.7369 -0.4668
    2PC     N31 3953   1.278   6.555   6.021 -0.1469  0.0601 -0.0170
    2PC     C33 3954   1.409   6.570   6.095 -0.1679 -0.6484  0.1696
    2PC     H3A 3955   1.490   6.594   6.026  0.5822  0.1114  1.2889
    2PC     H3B 3956   1.393   6.634   6.181 -4.1079  1.1527 -1.6428
    2PC     H3C 3957   1.436   6.471   6.133 -1.8006 -1.0480  0.3906
    2PC     C34 3958   1.287   6.450   5.914  0.2040  0.5958 -0.5179
    2PC     H4A 3959   1.385   6.462   5.867 -0.6491  0.9997 -2.2640
    2PC     H4B 3960   1.279   6.351   5.958  1.4832  0.3962 -0.6967
    2PC     H4C 3961   1.203   6.471   5.847  0.6863  2.0665 -0.6927
    2PC     C35 3962   1.252   6.689   5.959 -0.7195  0.1262  0.3573
    2PC     H5A 3963   1.146   6.690   5.937 -1.2368 -1.7455  2.3839
    2PC     H5B 3964   1.307   6.699   5.865 -0.2530 -0.2267  0.5867
    2PC     H5C 3965   1.274   6.772   6.026  0.5177  0.1952 -0.0993
    2PC     O33 3966   0.780   6.347   6.093 -0.3963  0.1949 -0.0893
    2PC     O34 3967   0.879   6.208   5.944  0.4898 -0.4928  0.7779
    2PC     O21 3968   0.657   6.517   5.543  0.4125  0.6439 -0.9145
    2PC     C21 3969   0.666   6.415   5.456 -0.3871 -0.3236  0.1163
    2PC     O22 3970   0.748   6.325   5.452  0.7827  0.6977  0.5392
    3OL     C12 3971   0.545   6.413   5.365 -0.0894 -0.4309 -0.2817
    3OL     H2R 3972   0.477   6.495   5.391 -0.6233  0.0554 -2.9262
    3OL     H2S 3973   0.487   6.322   5.380 -0.8813  0.1508  0.2965
    3OL     C13 3974   0.588   6.436   5.220  0.4375 -0.2881 -0.1058
    3OL     H3R 3975   0.657   6.352   5.206 -0.3184 -1.0423  0.5882
    3OL     H3S 3976   0.654   6.523   5.213  1.9440 -1.3250  0.5814
    3OL     C14 3977   0.475   6.432   5.117 -0.0192 -0.4237  0.3992
    3OL     H4R 3978   0.394   6.506   5.125 -0.8750 -0.8012 -3.1581
    3OL     H4S 3979   0.425   6.335   5.126 -1.1645 -0.1001 -1.6785
    3OL     C15 3980   0.530   6.446   4.974 -0.3952 -0.1904  0.2751
    3OL     H5R 3981   0.627   6.396   4.972 -0.6932 -0.7493 -0.2589
    3OL     H5S 3982   0.558   6.549   4.953 -1.8235  0.4038  1.1139
    3OL     C16 3983   0.446   6.388   4.860 -0.2583  0.1232  0.0146
    3OL     H6R 3984   0.425   6.283   4.883  1.0077 -0.0590  0.4278
    3OL     H6S 3985   0.501   6.380   4.766  0.7288  0.4189  0.5580
    3OL     C17 3986   0.310   6.456   4.839 -0.1152  0.2978 -0.3666
    3OL     H7R 3987   0.322   6.561   4.811 -1.1082  0.1694 -1.3236
    3OL     H7S 3988   0.265   6.449   4.938 -0.9682  0.2378 -0.7519
    3OL     C18 3989   0.216   6.378   4.747 -0.0459 -0.0849 -0.1162
    3OL     H8R 3990   0.130   6.439   4.717 -0.8749 -2.1284 -2.2884
    3OL     H8S 3991   0.168   6.290   4.790  2.4787 -0.8722  1.3215
    3OL     C19 3992   0.292   6.335   4.624  0.0636 -0.5835  0.1243
    3OL     H9R 3993   0.360   6.255   4.652  1.1075  0.3261  0.2349
    3OL    C110 3994   0.291   6.394   4.505  0.5636  0.0625  0.4382
    3OL    H10R 3995   0.355   6.347   4.431 -0.0439 -1.6487  0.9418
    3OL    C111 3996   0.216   6.521   4.473  0.0163 -0.2834  0.3395
    3OL    H11R 3997   0.208   6.584   4.562 -0.4703 -0.4563  0.4221
    3OL    H11S 3998   0.118   6.507   4.428  0.0828  1.4201 -0.3956
    3OL    C112 3999   0.300   6.597   4.370 -0.3411 -0.5389 -0.1420
    3OL    H12R 4000   0.297   6.534   4.281 -3.4432 -0.1000 -0.4695
    3OL    H12S 4001   0.403   6.604   4.405  0.0254 -2.8096 -0.5848
    3OL    C113 4002   0.238   6.734   4.339 -0.3312 -0.5008  0.0057
    3OL    H13R 4003   0.311   6.793   4.283 -1.3470 -0.4767 -1.3546
    3OL    H13S 4004   0.215   6.792   4.428  0.9282 -1.5176  1.0339
    3OL    C114 4005   0.114   6.723   4.249 -0.0282 -0.4192 -0.4245
    3OL    H14R 4006   0.066   6.821   4.250  2.0527  0.6608  0.4360
    3OL    H14S 4007   0.040   6.655   4.291  1.5625 -2.1142 -0.2643
    3OL    C115 4008   0.145   6.683   4.104 -0.3500 -0.0398 -0.6005
    3OL    H15R 4009   0.164   6.576   4.106  0.7158  0.1339  1.3943
    3OL    H15S 4010   0.239   6.735   4.083 -0.4239  1.7646  2.8195
    3OL    C116 4011   0.033   6.730   4.010 -0.5071  0.5050 -0.1492
    3OL    H16R 4012   0.001   6.830   4.038  1.5502  1.1896 -0.1196
    3OL    H16S 4013  -0.045   6.654   4.025  2.0588 -2.0479  1.2260
    3OL    C117 4014   0.084   6.734   3.866  0.0696 -0.1272  0.0300
    3OL    H17R 4015   0.130   6.641   3.832  1.6579  0.8415 -0.5936
    3OL    H17S 4016   0.162   6.810   3.860  1.7423 -1.5137  2.4780
    3OL    C118 4017  -0.037   6.780   3.783  0.0004 -0.5544 -0.1102
    3OL    H18R 4018  -0.004   6.791   3.679  0.2540  3.1746  0.2209
    3OL    H18S 4019  -0.068   6.878   3.819 -1.1888 -0.2671 -1.7601
    3OL    H18T 4020  -0.113   6.702   3.780  1.6291 -2.1856 -0.5481
    1PA    C116 4021   2.311   5.132   4.797 -0.1404 -0.0151  0.2608
    1PA    H16R 4022   2.400   5.195   4.808 -0.7651  1.6675 -3.1073
    1PA    H16S 4023   2.269   5.097   4.891  0.1081 -1.2162 -0.0687
    1PA    H16T 4024   2.233   5.186   4.743  0.7917  0.2871 -0.8362
    1PA    C115 4025   2.350   5.019   4.702 -0.0386  0.2522 -0.0187
    1PA    H15R 4026   2.273   4.988   4.631  0.0655  1.0784 -0.4949
    1PA    H15S 4027   2.438   5.043   4.641  1.5078 -1.6082  1.3292
    1PA    C114 4028   2.400   4.898   4.783 -0.7157 -0.0001  0.0272
    1PA    H14R 4029   2.494   4.923   4.832 -0.3204 -0.1726 -0.6393
    1PA    H14S 4030   2.322   4.873   4.856 -1.2443  0.2470 -0.4460
    1PA    C113 4031   2.431   4.780   4.691 -0.2190  0.4659 -0.4142
    1PA    H13R 4032   2.337   4.736   4.658 -0.6602  1.1755 -0.1226
    1PA    H13S 4033   2.483   4.814   4.602  2.5677  1.2691  1.3802
    1PA    C112 4034   2.517   4.680   4.771 -0.3724  0.3514 -0.3907
    1PA    H12R 4035   2.599   4.729   4.824 -1.0857  0.8007  0.3105
    1PA    H12S 4036   2.447   4.644   4.846 -0.2613  1.6883  0.3841
    1PA    C111 4037   2.568   4.563   4.685  0.1106  0.5007 -0.3082
    1PA    H11R 4038   2.618   4.600   4.596  0.5280 -2.3242 -1.3435
    1PA    H11S 4039   2.647   4.514   4.742  1.7499  2.6996 -0.5480
    1PA    C110 4040   2.456   4.463   4.656  0.2700  0.0672  0.5351
    1PA    H10R 4041   2.404   4.435   4.748 -1.5072 -1.7770 -0.9471
    1PA    H10S 4042   2.382   4.509   4.590  0.1204  0.3601  0.9038
    1PA     C19 4043   2.500   4.342   4.573  0.2805  0.6752 -0.3639
    1PA     H9R 4044   2.426   4.328   4.494 -0.7293  1.8753  0.3204
    1PA     H9S 4045   2.602   4.352   4.536  1.1636  0.4467  1.8352
    1PA     C18 4046   2.511   4.218   4.664 -0.3474  0.9668  0.1227
    1PA     H8R 4047   2.549   4.148   4.589 -1.9586  1.4588 -1.2244
    1PA     H8S 4048   2.579   4.229   4.748 -0.5795 -0.7031  0.5737
    1PA     C17 4049   2.377   4.156   4.707  0.0716  0.0547  0.1404
    1PA     H7R 4050   2.337   4.215   4.790 -1.4605  1.0567 -1.2371
    1PA     H7S 4051   2.307   4.172   4.625 -1.5879 -0.8690  1.3288
    1PA     C16 4052   2.389   4.014   4.763 -0.4392  0.1546  0.5081
    1PA     H6R 4053   2.444   3.953   4.691 -0.8759 -0.0108  0.3086
    1PA     H6S 4054   2.455   4.014   4.849  1.9530 -1.7880 -1.1852
    1PA     C15 4055   2.255   3.955   4.809 -0.6786  0.3180  0.0285
    1PA     H5R 4056   2.183   3.977   4.730 -0.3552 -1.1144 -0.6868
    1PA     H5S 4057   2.265   3.847   4.818 -0.4036  0.3326 -0.0961
    1PA     C14 4058   2.209   4.004   4.947  0.0434  0.1200  0.3395
    1PA     H4R 4059   2.290   4.016   5.020 -1.6386 -0.3693  2.3868
    1PA     H4S 4060   2.169   4.105   4.936  0.5927  0.1406 -1.7946
    1PA     C13 4061   2.100   3.914   5.007 -0.0371  0.2325  0.3606
    1PA     H3R 4062   2.021   3.913   4.931  1.0584  2.0624 -0.8971
    1PA     H3S 4063   2.134   3.813   5.026  1.1984  1.0369  2.7533
    1PA     C12 4064   2.051   3.979   5.137  0.0116  0.4757  0.2586
    1PA     H2R 4065   2.136   4.020   5.192  1.7338 -1.6578 -0.6724
    1PA     H2S 4066   1.983   4.060   5.112  0.0517  0.5428  0.3649
    2PC     C11 4067   1.981   3.872   5.217 -0.0264 -0.0753 -0.5063
    2PC     O12 4068   2.034   3.812   5.308 -0.0584  0.4677 -0.1285
    2PC     O11 4069   1.854   3.850   5.181  0.0251  0.1590 -0.8380
    2PC      C1 4070   1.791   3.736   5.242  0.0470  0.3207 -0.5152
    2PC      HR 4071   1.840   3.644   5.209 -3.0057 -2.2827  1.6244
    2PC      HS 4072   1.795   3.745   5.351 -3.4176  0.6257 -0.3141
    2PC      C2 4073   1.645   3.747   5.195 -0.1648 -0.3117 -0.0236
    2PC      HX 4074   1.609   3.843   5.233 -0.1500 -0.1807 -0.3414
    2PC      C3 4075   1.561   3.631   5.251 -0.2671 -0.1924  0.0691
    2PC      HA 4076   1.524   3.557   5.180 -0.7228  0.5638 -0.4935
    2PC      HB 4077   1.614   3.584   5.334 -0.9654  0.0296  0.6564
    2PC     O31 4078   1.450   3.704   5.306 -0.1290  0.1335 -0.0807
    2PC     P31 4079   1.357   3.625   5.410  0.3236 -0.1378  0.1203
    2PC     O32 4080   1.410   3.677   5.551 -0.3161  0.1567  0.2555
    2PC     C31 4081   1.419   3.820   5.562 -0.2956  0.1984 -0.2675
    2PC     H1A 4082   1.474   3.865   5.480 -1.3619 -2.4041 -2.5457
    2PC     H1B 4083   1.319   3.863   5.548 -0.6856  0.0387  1.6210
    2PC     C32 4084   1.491   3.850   5.694 -0.5178  0.0108 -0.1018
    2PC     H2A 4085   1.504   3.958   5.697  0.1615 -0.0746  0.5033
    2PC     H2B 4086   1.434   3.822   5.783  3.0734 -1.0944  2.0962
    2PC     N31 4087   1.627   3.796   5.727 -0.5470  0.0609  0.1066
    2PC     C33 4088   1.693   3.882   5.830 -0.3119  0.4703 -0.3790
    2PC     H3A 4089   1.637   3.907   5.921  1.6057  3.1549  0.1773
    2PC     H3B 4090   1.787   3.836   5.859  0.4447  0.7163 -2.3372
    2PC     H3C 4091   1.725   3.973   5.779 -0.7511 -1.1184 -3.7247
    2PC     C34 4092   1.625   3.659   5.788  0.0786  0.0674  0.1538
    2PC     H4A 4093   1.565   3.604   5.715  0.5465  1.1435 -1.0791
    2PC     H4B 4094   1.721   3.611   5.807 -0.2709 -0.2727  1.1536
    2PC     H4C 4095   1.564   3.668   5.878 -1.2562 -0.2033 -0.6887
    2PC     C35 4096   1.721   3.787   5.610  0.1888  0.4232  0.6639
    2PC     H5A 4097   1.818   3.756   5.650  0.2158  1.6833  1.6431
    2PC     H5B 4098   1.732   3.885   5.564 -2.1265  0.3824 -0.0871
    2PC     H5C 4099   1.688   3.709   5.542  0.7779 -0.0708  0.9331
    2PC     O33 4100   1.215   3.654   5.379  0.4121 -0.1325 -0.2886
    2PC     O34 4101   1.371   3.478   5.400  0.3761 -0.1088 -0.2816
    2PC     O21 4102   1.651   3.737   5.052 -0.2892  0.1795 -0.0642
    2PC     C21 4103   1.557   3.806   4.985 -0.1312  0.5231  0.0651
    2PC     O22 4104   1.478   3.888   5.028 -0.3197  0.3273  0.0929
    3OL     C12 4105   1.560   3.762   4.841 -0.0987  0.5824  0.0478
    3OL     H2R 4106   1.631   3.679   4.840 -2.0461 -1.1646 -0.7861
    3OL     H2S 4107   1.616   3.840   4.789  0.1259  0.4412  0.0781
    3OL     C13 4108   1.424   3.736   4.775 -0.1725  0.3389  0.2933
    3OL     H3R 4109   1.440   3.701   4.673 -1.2310 -1.6308  0.7484
    3OL     H3S 4110   1.361   3.825   4.769  0.6549  1.1216  2.3652
    3OL     C14 4111   1.351   3.621   4.845 -0.3532  0.2007 -0.1201
    3OL     H4R 4112   1.336   3.642   4.951  0.4778 -1.6003  0.3826
    3OL     H4S 4113   1.415   3.534   4.857  0.2320  0.7645  0.9675
    3OL     C15 4114   1.218   3.589   4.775 -0.1490 -0.6162 -0.1464
    3OL     H5R 4115   1.237   3.548   4.676  1.9230 -0.9658  0.3369
    3OL     H5S 4116   1.155   3.678   4.770  1.9578  0.9756  0.1874
    3OL     C16 4117   1.142   3.483   4.856 -0.0030 -0.4826  0.1675
    3OL     H6R 4118   1.172   3.480   4.961  2.5010 -0.5016 -0.4703
    3OL     H6S 4119   1.179   3.390   4.812  0.2073  0.5104 -1.9093
    3OL     C17 4120   0.989   3.494   4.850  0.0492  0.0539 -0.2400
    3OL     H7R 4121   0.959   3.589   4.895 -0.7049 -0.3426  0.1115
    3OL     H7S 4122   0.952   3.419   4.920  0.9432 -0.9495 -0.8269
    3OL     C18 4123   0.918   3.473   4.716 -0.2688 -0.1136 -0.0462
    3OL     H8R 4124   0.933   3.562   4.653 -1.9979 -0.1778 -0.5853
    3OL     H8S 4125   0.810   3.463   4.721 -0.3821  0.2534 -1.4577
    3OL     C19 4126   0.972   3.347   4.654  0.1850  0.0883 -0.0684
    3OL     H9R 4127   0.991   3.260   4.715  0.4922 -0.9434 -1.5644
    3OL    C110 4128   0.996   3.337   4.524  0.0745  0.2390 -0.1009
    3OL    H10R 4129   1.033   3.242   4.486  0.9590  0.0900  1.1050
    3OL    C111 4130   0.969   3.445   4.422  0.4279  0.2340 -0.1979
    3OL    H11R 4131   1.042   3.524   4.439  0.0162  0.6577 -0.3989
    3OL    H11S 4132   0.866   3.481   4.424 -0.1716 -1.0468 -2.8208
    3OL    C112 4133   0.993   3.390   4.280  0.5607  0.1003 -0.1249
    3OL    H12R 4134   0.911   3.319   4.269  0.0021  0.7580 -0.2989
    3OL    H12S 4135   1.072   3.315   4.274 -0.2397 -0.7780 -0.0172
    3OL    C113 4136   1.004   3.498   4.172  0.2977  0.4333  0.1775
    3OL    H13R 4137   1.106   3.537   4.175  0.2434  0.6278 -0.3263
    3OL    H13S 4138   0.932   3.579   4.187  1.7000  1.5471  1.1071
    3OL    C114 4139   0.988   3.437   4.032  0.1443  0.4984  0.1658
    3OL    H14R 4140   0.900   3.372   4.033  1.5324 -1.4964  1.7657
    3OL    H14S 4141   1.075   3.378   4.003 -1.2950 -1.4671 -0.3761
    3OL    C115 4142   0.981   3.546   3.924 -0.6859  0.2893 -0.0001
    3OL    H15R 4143   1.071   3.609   3.926 -0.5594  0.1217  2.5890
    3OL    H15S 4144   0.899   3.616   3.938 -0.5046  0.2312  1.4325
    3OL    C116 4145   0.980   3.504   3.776  0.0048 -0.0860  0.0981
    3OL    H16R 4146   1.082   3.471   3.751  0.2397  1.1684 -0.6450
    3OL    H16S 4147   0.959   3.592   3.716  1.6199 -0.0200 -0.4183
    3OL    C117 4148   0.885   3.387   3.746 -0.1810  0.3267 -0.9339
    3OL    H17R 4149   0.892   3.300   3.811 -1.0503  1.0254  0.1219
    3OL    H17S 4150   0.898   3.344   3.646 -1.9663 -1.2938 -0.5342
    3OL    C118 4151   0.736   3.424   3.751 -0.3076 -0.2150 -0.6596
    3OL    H18R 4152   0.712   3.492   3.670  2.5034  1.7600  0.0115
    3OL    H18S 4153   0.710   3.486   3.837 -3.4234  0.4952 -1.9823
    3OL    H18T 4154   0.683   3.329   3.742 -2.0593  0.6545 -0.1014
    1PA    C116 4155   5.949   0.028   3.818 -0.0680  0.0250 -0.1277
    1PA    H16R 4156   5.887  -0.062   3.827 -1.7976  1.2711  0.9916
    1PA    H16S 4157   6.030   0.029   3.744  0.9337 -0.7313  0.9382
    1PA    H16T 4158   5.887   0.116   3.802 -0.8247 -0.5038 -0.1860
    1PA    C115 4159   5.999   0.031   3.962  0.0357  0.0117 -0.1639
    1PA    H15R 4160   5.919   0.001   4.030 -1.2265 -1.1110 -2.0442
    1PA    H15S 4161   6.077  -0.046   3.968  0.9089  0.1325 -5.3433
    1PA    C114 4162   6.041   0.173   4.003 -0.3471  0.1257 -0.1663
    1PA    H14R 4163   6.128   0.195   3.941  0.5850  0.6934  1.3036
    1PA    H14S 4164   5.957   0.241   3.990 -1.1137 -0.7390  0.1587
    1PA    C113 4165   6.085   0.190   4.149 -0.0224 -0.4753 -0.1866
    1PA    H13R 4166   6.161   0.112   4.158 -0.0118 -0.3866  0.5522
    1PA    H13S 4167   6.125   0.290   4.170 -1.7020  0.4900 -1.2882
    1PA    C112 4168   5.968   0.151   4.241  0.1799  0.1564  0.3527
    1PA    H12R 4169   5.875   0.174   4.190 -0.3795 -0.9726  0.8346
    1PA    H12S 4170   5.962   0.043   4.259 -1.7443 -0.1170 -1.5461
    1PA    C111 4171   5.973   0.212   4.382 -0.0963  0.3868  0.2611
    1PA    H11R 4172   6.066   0.190   4.434 -0.6299  0.9647  1.5096
    1PA    H11S 4173   5.962   0.321   4.376 -2.4720  0.1683 -0.4932
    1PA    C110 4174   5.848   0.162   4.456 -0.2509  0.2646 -0.0773
    1PA    H10R 4175   5.755   0.206   4.419 -1.2417  0.4011  2.3882
    1PA    H10S 4176   5.827   0.056   4.437  1.2379  0.0987 -0.9515
    1PA     C19 4177   5.864   0.204   4.603  1.0672 -0.0134 -0.1277
    1PA     H9R 4178   5.960   0.181   4.649  0.8125 -0.3626  0.2365
    1PA     H9S 4179   5.854   0.313   4.601 -1.4644 -0.1276  1.7853
    1PA     C18 4180   5.760   0.146   4.699  0.0496  0.9723 -0.6068
    1PA     H8R 4181   5.661   0.157   4.655 -0.9752  0.3666  1.3998
    1PA     H8S 4182   5.782   0.039   4.703 -1.3285  0.6958  1.3270
    1PA     C17 4183   5.774   0.210   4.838 -0.0259  0.0201 -0.1542
    1PA     H7R 4184   5.870   0.181   4.882  0.3542  1.5224  0.0566
    1PA     H7S 4185   5.766   0.318   4.825  1.3907 -0.2116 -4.5205
    1PA     C16 4186   5.677   0.156   4.944  0.8847 -0.9101  0.2309
    1PA     H6R 4187   5.573   0.173   4.914  0.6331 -0.8049  1.1224
    1PA     H6S 4188   5.690   0.049   4.961 -0.9919 -1.0578  1.0169
    1PA     C15 4189   5.696   0.227   5.079  0.2134  0.1540 -0.2193
    1PA     H5R 4190   5.792   0.199   5.123 -0.4585  1.8013  2.5864
    1PA     H5S 4191   5.686   0.335   5.065 -0.3881  0.2041  0.4937
    1PA     C14 4192   5.594   0.202   5.191  0.5183  0.6555  0.1747
    1PA     H4R 4193   5.608   0.288   5.257 -1.4919  3.6112 -2.9305
    1PA     H4S 4194   5.493   0.197   5.149  1.4405 -1.3976 -1.9824
    1PA     C13 4195   5.627   0.072   5.266 -0.3424  0.6059  0.4746
    1PA     H3R 4196   5.528   0.037   5.297 -0.7278 -1.1715 -2.4295
    1PA     H3S 4197   5.667  -0.002   5.197 -1.9231  1.4323 -1.4220
    1PA     C12 4198   5.707   0.089   5.396 -0.1827 -0.1415  0.4750
    1PA     H2R 4199   5.720  -0.010   5.441  1.5076 -0.1474  0.0106
    1PA     H2S 4200   5.805   0.123   5.364 -0.9084 -0.3229 -2.1143
    2PC     C11 4201   5.644   0.180   5.498 -0.2995 -0.1684  0.4275
    2PC     O12 4202   5.712   0.238   5.580 -0.1638  0.5933 -0.2068
    2PC     O11 4203   5.511   0.174   5.515 -0.3948 -0.1195 -0.2768
    2PC      C1 4204   5.433   0.263   5.597  0.9560  0.7118  0.1409
    2PC      HR 4205   5.331   0.223   5.604  1.2759 -0.3594 -0.9668
    2PC      HS 4206   5.465   0.281   5.700 -2.2412 -3.0562  2.0765
    2PC      C2 4207   5.418   0.396   5.522  0.0487  0.4999 -0.0710
    2PC      HX 4208   5.515   0.424   5.481 -0.8311  0.1433 -2.5539
    2PC      C3 4209   5.354   0.504   5.610 -0.0365  0.5834 -0.2343
    2PC      HA 4210   5.430   0.563   5.663  0.1194  1.2313 -1.1618
    2PC      HB 4211   5.303   0.578   5.548 -0.2362  0.5980 -0.0510
    2PC     O31 4212   5.257   0.454   5.704 -0.3003  0.4434 -0.5821
    2PC     P31 4213   5.200   0.547   5.820  0.0831 -0.0865  0.0406
    2PC     O32 4214   5.316   0.531   5.929 -0.3029 -0.2005  0.4435
    2PC     C31 4215   5.319   0.411   6.007 -0.1929 -0.7747 -0.4272
    2PC     H1A 4216   5.242   0.412   6.085  0.8181 -1.8233  0.6222
    2PC     H1B 4217   5.308   0.321   5.946  2.2510 -0.2251 -1.7885
    2PC     C32 4218   5.451   0.410   6.086 -0.5777 -0.4218  0.2357
    2PC     H2A 4219   5.457   0.319   6.146 -1.3842 -1.8374 -1.6855
    2PC     H2B 4220   5.534   0.410   6.015  0.7385 -0.5802  1.7415
    2PC     N31 4221   5.484   0.527   6.173 -0.2503 -0.2379 -0.1333
    2PC     C33 4222   5.508   0.656   6.100  0.2466 -0.2135  0.0683
    2PC     H3A 4223   5.540   0.629   5.999 -1.0544 -2.2856  0.1381
    2PC     H3B 4224   5.413   0.709   6.101 -0.2328 -1.0072 -1.0702
    2PC     H3C 4225   5.583   0.708   6.160 -0.6597  0.0477  1.0131
    2PC     C34 4226   5.379   0.565   6.273  0.3365  0.1609  0.3337
    2PC     H4A 4227   5.377   0.484   6.346  3.7626  1.3534  2.0049
    2PC     H4B 4228   5.417   0.654   6.325  0.5102 -0.0622  0.5954
    2PC     H4C 4229   5.284   0.585   6.224 -0.4869 -2.0017  0.9098
    2PC     C35 4230   5.609   0.488   6.246  0.0193  0.3103 -0.2931
    2PC     H5A 4231   5.635   0.571   6.311  1.1815 -0.5675  0.3898
    2PC     H5B 4232   5.691   0.475   6.175  1.0411  1.5038  0.6444
    2PC     H5C 4233   5.591   0.394   6.300 -0.1618  0.5118 -0.0033
    2PC     O33 4234   5.182   0.686   5.771 -0.2750 -0.0996  0.1260
    2PC     O34 4235   5.071   0.491   5.868  0.2422 -0.4255  0.0711
    2PC     O21 4236   5.327   0.376   5.413  0.4872  0.0453 -0.3570
    2PC     C21 4237   5.337   0.447   5.300 -0.1409  0.2858 -0.2645
    2PC     O22 4238   5.407   0.545   5.294  0.0289  0.1660 -0.2356
    3OL     C12 4239   5.240   0.410   5.190 -0.2189 -0.2894 -0.0053
    3OL     H2R 4240   5.146   0.398   5.244  0.9496 -2.2775  1.7424
    3OL     H2S 4241   5.268   0.313   5.147  0.5869 -1.7620  3.5169
    3OL     C13 4242   5.229   0.517   5.080  0.3352 -0.1239  0.0966
    3OL     H3R 4243   5.315   0.512   5.013 -1.5411  2.3683 -2.7523
    3OL     H3S 4244   5.220   0.616   5.124 -1.3157  0.1466 -0.7997
    3OL     C14 4245   5.098   0.494   5.005  0.1661 -0.2177  0.4200
    3OL     H4R 4246   5.025   0.543   5.070 -0.8178  0.4633 -1.1088
    3OL     H4S 4247   5.069   0.390   4.987  0.0506 -0.1410  0.1489
    3OL     C15 4248   5.106   0.569   4.871 -0.2364 -0.0466  0.4900
    3OL     H5R 4249   5.194   0.530   4.820 -1.6371 -2.9058  0.0596
    3OL     H5S 4250   5.121   0.676   4.888  0.8055  0.1529 -1.5067
    3OL     C16 4251   4.983   0.542   4.783 -0.2350  0.1954  0.4123
    3OL     H6R 4252   4.891   0.557   4.840 -0.6478  1.5113 -0.5655
    3OL     H6S 4253   4.982   0.434   4.768  0.5228  0.0064  1.5366
    3OL     C17 4254   4.979   0.604   4.643  0.1049 -0.4180  0.1275
    3OL     H7R 4255   5.064   0.572   4.582  1.0707  1.3142  0.4914
    3OL     H7S 4256   4.992   0.712   4.652 -2.4996 -0.2077  2.7879
    3OL     C18 4257   4.849   0.564   4.572 -0.1686  0.2474  0.2474
    3OL     H8R 4258   4.767   0.573   4.643  1.2975 -1.9566  2.3422
    3OL     H8S 4259   4.857   0.458   4.551  0.9605  0.7760 -2.4436
    3OL     C19 4260   4.830   0.642   4.444  0.6032 -0.0431 -0.0513
    3OL     H9R 4261   4.832   0.747   4.470  0.8398 -0.3771  1.3365
    3OL    C110 4262   4.816   0.605   4.317 -0.0502 -0.4922  0.1443
    3OL    H10R 4263   4.812   0.687   4.246 -1.3583  1.4099  2.2685
    3OL    C111 4264   4.859   0.470   4.266  0.4752 -0.1397 -0.3639
    3OL    H11R 4265   4.771   0.407   4.249 -0.2387 -0.1332  2.7678
    3OL    H11S 4266   4.909   0.421   4.350  1.6117  3.3370  1.1386
    3OL    C112 4267   4.946   0.461   4.140  0.0743  0.0600 -0.6561
    3OL    H12R 4268   5.045   0.505   4.154  0.9903 -1.3415 -2.2579
    3OL    H12S 4269   4.890   0.517   4.065  1.1927 -0.7339 -2.1336
    3OL    C113 4270   4.961   0.316   4.090 -0.2210 -0.1821 -0.0575
    3OL    H13R 4271   4.983   0.321   3.983  0.6726  2.4432  0.1775
    3OL    H13S 4272   4.873   0.252   4.101  0.0924 -0.9791 -1.8826
    3OL    C114 4273   5.081   0.241   4.148  0.1538  0.0092 -0.5769
    3OL    H14R 4274   5.165   0.312   4.157 -0.4670  0.5349  1.8953
    3OL    H14S 4275   5.110   0.157   4.086 -0.7022 -0.4204 -0.3944
    3OL    C115 4276   5.049   0.175   4.282 -0.7226  0.6486 -0.4643
    3OL    H15R 4277   5.042   0.253   4.358 -1.7653  0.6030 -0.4896
    3OL    H15S 4278   5.137   0.120   4.317 -1.6233  1.0315  2.8040
    3OL    C116 4279   4.929   0.078   4.283  0.2042 -0.5249 -0.2987
    3OL    H16R 4280   4.956  -0.002   4.214 -0.4081 -0.6922 -0.3454
    3OL    H16S 4281   4.837   0.130   4.254  0.5038 -0.6005 -1.4172
    3OL    C117 4282   4.910   0.021   4.424 -0.0219 -0.0505 -0.1333
    3OL    H17R 4283   5.005  -0.017   4.461 -0.3408 -1.2415 -0.4586
    3OL    H17S 4284   4.842  -0.065   4.428 -1.0790  0.8033  0.9604
    3OL    C118 4285   4.855   0.121   4.526 -0.4300 -0.2795 -0.1225
    3OL    H18R 4286   4.866   0.080   4.627  1.1604 -1.7537 -0.8445
    3OL    H18S 4287   4.748   0.132   4.513 -0.5609  0.1418  1.1107
    3OL    H18T 4288   4.903   0.219   4.524 -1.2920  0.1548  0.0757
    1PA    C116 4289   3.808   2.402   3.743  0.5915 -0.0375 -0.4797
    1PA    H16R 4290   3.891   2.333   3.730 -1.4582 -2.8815  0.3171
    1PA    H16S 4291   3.819   2.499   3.694 -2.4598  0.2958 -0.7505
    1PA    H16T 4292   3.721   2.350   3.701  0.9317 -2.1469  1.2339
    1PA    C115 4293   3.798   2.428   3.894 -0.1984 -0.1563 -0.5023
    1PA    H15R 4294   3.796   2.337   3.954  0.0870  1.2600  1.7928
    1PA    H15S 4295   3.888   2.475   3.935 -0.5990 -0.8337  1.2581
    1PA    C114 4296   3.674   2.510   3.929  0.0618 -0.1813  0.5164
    1PA    H14R 4297   3.671   2.601   3.870 -0.4845 -0.5259  0.0005
    1PA    H14S 4298   3.589   2.454   3.889 -0.7620  1.5221 -0.2155
    1PA    C113 4299   3.665   2.549   4.078 -0.1725  0.3522  0.3647
    1PA    H13R 4300   3.558   2.544   4.102 -0.6686  1.3895 -1.4308
    1PA    H13S 4301   3.705   2.468   4.138 -2.5451 -2.0401 -1.0409
    1PA    C112 4302   3.725   2.690   4.085  0.1381  0.2661 -0.4541
    1PA    H12R 4303   3.825   2.687   4.041  1.1561 -0.2976  1.7559
    1PA    H12S 4304   3.666   2.762   4.028  1.0381  0.5616 -1.0308
    1PA    C111 4305   3.732   2.736   4.231 -0.1888 -0.1925 -0.2914
    1PA    H11R 4306   3.795   2.821   4.259  2.3366 -1.9743 -0.1752
    1PA    H11S 4307   3.632   2.758   4.267  0.7030 -1.0272  3.0891
    1PA    C110 4308   3.773   2.631   4.336  0.2224  0.4011  0.1508
    1PA    H10R 4309   3.697   2.553   4.329 -0.2130  0.9386 -2.0739
    1PA    H10S 4310   3.864   2.574   4.313 -0.0816 -0.4398  0.9701
    1PA     C19 4311   3.772   2.685   4.479 -0.4055  0.6176  0.0657
    1PA     H9R 4312   3.856   2.752   4.493 -2.2182  2.7952  1.1631
    1PA     H9S 4313   3.685   2.746   4.506  0.9922  3.6353 -1.7470
    1PA     C18 4314   3.764   2.568   4.579 -0.0404  0.4695 -0.0784
    1PA     H8R 4315   3.673   2.515   4.551 -0.2391  1.0739 -0.5867
    1PA     H8S 4316   3.844   2.494   4.567  2.0445  2.4730  0.6487
    1PA     C17 4317   3.764   2.623   4.722  0.1957 -0.3623  0.2477
    1PA     H7R 4318   3.856   2.681   4.730 -0.6144  1.2263 -1.1562
    1PA     H7S 4319   3.696   2.708   4.729  1.5404  0.9907 -1.9020
    1PA     C16 4320   3.737   2.508   4.819 -0.2042 -0.2914  0.2260
    1PA     H6R 4321   3.631   2.492   4.803 -0.1409 -1.1216  0.5675
    1PA     H6S 4322   3.790   2.417   4.788  0.6624  0.7070 -1.2912
    1PA     C15 4323   3.760   2.555   4.964  0.5652  0.1256 -0.0266
    1PA     H5R 4324   3.864   2.588   4.967  0.1067  1.8005 -1.3462
    1PA     H5S 4325   3.684   2.631   4.976 -0.8448 -1.2008 -0.2181
    1PA     C14 4326   3.722   2.442   5.061 -0.2908  0.2009 -0.2683
    1PA     H4R 4327   3.616   2.416   5.055 -0.2913  0.5702 -3.7803
    1PA     H4S 4328   3.774   2.347   5.054 -0.3749  0.1124  0.2290
    1PA     C13 4329   3.755   2.493   5.202 -0.0904  0.2274 -0.3246
    1PA     H3R 4330   3.790   2.409   5.262  1.1628 -1.3679 -3.0972
    1PA     H3S 4331   3.847   2.552   5.206  0.1777 -0.2541  1.5993
    1PA     C12 4332   3.629   2.563   5.255  0.1590  0.4833 -0.0656
    1PA     H2R 4333   3.607   2.654   5.198  0.9364  2.8629  3.1206
    1PA     H2S 4334   3.537   2.504   5.260 -0.7664  1.9416  0.8075
    2PC     C11 4335   3.654   2.626   5.390 -0.3605 -0.3011  0.4062
    2PC     O12 4336   3.668   2.562   5.492 -0.0432 -0.4397  0.2765
    2PC     O11 4337   3.644   2.760   5.381  0.1807 -0.3042 -0.3459
    2PC      C1 4338   3.668   2.846   5.493 -0.2417  0.1969 -0.6318
    2PC      HR 4339   3.653   2.951   5.465 -1.1324  0.3595  0.4033
    2PC      HS 4340   3.603   2.826   5.579 -0.8459  3.1749 -0.2821
    2PC      C2 4341   3.815   2.843   5.539 -0.3684  0.2518 -0.2174
    2PC      HX 4342   3.857   2.744   5.560 -1.8360 -0.3719 -0.1119
    2PC      C3 4343   3.818   2.919   5.672  0.1460  0.1545 -0.1717
    2PC      HA 4344   3.793   3.025   5.670 -1.4268 -0.1541 -3.6060
    2PC      HB 4345   3.757   2.859   5.741  1.3679 -0.7469  0.1660
    2PC     O31 4346   3.950   2.911   5.728  0.0822  0.4504  0.0275
    2PC     P31 4347   3.958   2.917   5.888 -0.3024 -0.1510  0.0703
    2PC     O32 4348   3.899   2.771   5.921 -0.6064 -0.0924 -0.1995
    2PC     C31 4349   4.001   2.676   5.958 -0.4474  0.2879  0.3679
    2PC     H1A 4350   4.096   2.680   5.904  0.4303  1.9048  1.9400
    2PC     H1B 4351   4.038   2.685   6.060  0.5284  0.2303  0.0287
    2PC     C32 4352   3.945   2.533   5.953 -0.3161  0.2434  0.1472
    2PC     H2A 4353   4.021   2.464   5.991  0.2357  0.7652  0.0159
    2PC     H2B 4354   3.867   2.528   6.029  0.0170  0.8562  0.5440
    2PC     N31 4355   3.874   2.491   5.828  0.0309 -0.3538  0.1450
    2PC     C33 4356   3.862   2.342   5.830 -0.9103 -0.2805  0.5235
    2PC     H3A 4357   3.808   2.308   5.919 -1.8234  1.1164  0.5243
    2PC     H3B 4358   3.817   2.310   5.736 -0.6339  1.3885 -0.2044
    2PC     H3C 4359   3.965   2.307   5.823 -0.7443  0.5297 -1.7574
    2PC     C34 4360   3.736   2.547   5.810  0.2475 -0.0903 -0.7573
    2PC     H4A 4361   3.669   2.491   5.745 -1.8988 -1.3962  2.3627
    2PC     H4B 4362   3.691   2.545   5.909  0.6198  1.2491 -0.5352
    2PC     H4C 4363   3.737   2.652   5.779 -1.1275 -0.1945 -1.2004
    2PC     C35 4364   3.959   2.528   5.710  0.2281  0.1633  0.4454
    2PC     H5A 4365   3.908   2.498   5.618 -4.0424  1.9266  1.9773
    2PC     H5B 4366   4.057   2.480   5.718  0.2821  0.1000 -0.4863
    2PC     H5C 4367   3.977   2.636   5.709 -0.3014  0.2611 -0.9550
    2PC     O33 4368   4.099   2.950   5.918 -0.2742  0.1100 -0.3397
    2PC     O34 4369   3.883   3.032   5.942 -0.4575 -0.0512 -0.3501
    2PC     O21 4370   3.904   2.913   5.450 -0.5369  0.4883 -0.1995
    2PC     C21 4371   3.946   2.847   5.341  0.0966  0.1379  0.2504
    2PC     O22 4372   3.910   2.734   5.315  0.2106  0.1780 -0.0931
    3OL     C12 4373   4.038   2.927   5.253 -0.1071  0.2675  0.1528
    3OL     H2R 4374   3.996   2.947   5.154  2.3603  1.7394 -0.7047
    3OL     H2S 4375   4.123   2.864   5.226  0.7885  0.6309  1.9334
    3OL     C13 4376   4.086   3.061   5.310 -1.1005  0.6882  0.0170
    3OL     H3R 4377   4.129   3.066   5.410  2.8435  1.4795 -1.5178
    3OL     H3S 4378   3.990   3.113   5.316 -0.8987  0.8970  2.6679
    3OL     C14 4379   4.187   3.143   5.228 -0.5227 -0.2723 -0.2487
    3OL     H4R 4380   4.285   3.095   5.225  0.3854  1.4838 -0.4351
    3OL     H4S 4381   4.196   3.237   5.284  0.5250 -0.4081 -0.1594
    3OL     C15 4382   4.150   3.162   5.080 -0.1747 -0.0422 -0.3092
    3OL     H5R 4383   4.083   3.082   5.047 -0.2208 -0.4140  0.6379
    3OL     H5S 4384   4.242   3.153   5.023  0.2595 -1.9959  0.6243
    3OL     C16 4385   4.089   3.300   5.053  0.5341  0.3361 -0.0133
    3OL     H6R 4386   4.164   3.367   5.095 -0.4745  0.1899  2.1718
    3OL     H6S 4387   3.992   3.321   5.100  0.4118 -0.3293  0.0419
    3OL     C17 4388   4.079   3.322   4.901 -0.4590 -0.0177 -0.0094
    3OL     H7R 4389   3.990   3.380   4.876 -2.4698 -2.3587  1.3028
    3OL     H7S 4390   4.066   3.223   4.857 -1.6043 -0.3822  1.0981
    3OL     C18 4391   4.197   3.402   4.844 -0.6747  0.1413 -0.2344
    3OL     H8R 4392   4.291   3.355   4.874 -1.4229 -1.2235  0.0059
    3OL     H8S 4393   4.194   3.503   4.887  0.9254  0.9352 -1.8417
    3OL     C19 4394   4.179   3.408   4.695 -0.6346 -0.2300 -0.2555
    3OL     H9R 4395   4.084   3.457   4.671  0.2998  1.2965 -1.0140
    3OL    C110 4396   4.263   3.381   4.597 -0.0527  0.8871 -0.0871
    3OL    H10R 4397   4.226   3.384   4.495 -0.4644  0.9167  0.0608
    3OL    C111 4398   4.403   3.327   4.614 -0.2010  0.4066 -0.3549
    3OL    H11R 4399   4.408   3.229   4.567  0.5277  0.9381 -1.4107
    3OL    H11S 4400   4.431   3.322   4.720  0.3068 -0.6955 -0.5291
    3OL    C112 4401   4.511   3.418   4.555 -0.0417 -0.1101 -0.8620
    3OL    H12R 4402   4.509   3.417   4.445  2.4411  1.0554 -0.9899
    3OL    H12S 4403   4.605   3.382   4.598 -1.5373 -0.5168  2.3663
    3OL    C113 4404   4.490   3.565   4.593  0.5102 -0.2483 -0.0081
    3OL    H13R 4405   4.513   3.576   4.700  1.9366 -1.8693 -0.0976
    3OL    H13S 4406   4.386   3.596   4.576  0.9265  0.7426 -0.8112
    3OL    C114 4407   4.589   3.647   4.509  0.4752 -0.6222 -0.4154
    3OL    H14R 4408   4.545   3.747   4.507  0.5016 -0.5825  0.4582
    3OL    H14S 4409   4.588   3.612   4.406  0.3974 -1.9141  0.0004
    3OL    C115 4410   4.736   3.636   4.552  0.5188 -0.3486 -0.4969
    3OL    H15R 4411   4.771   3.535   4.530  0.3810 -0.5487  0.1914
    3OL    H15S 4412   4.739   3.650   4.660  0.4828 -0.4126 -0.4883
    3OL    C116 4413   4.836   3.741   4.500  0.1548  0.3575  0.2077
    3OL    H16R 4414   4.787   3.838   4.501 -1.5484 -0.4469 -0.5370
    3OL    H16S 4415   4.856   3.733   4.393  2.2285 -3.0946  0.6942
    3OL    C117 4416   4.970   3.736   4.575  0.2814  0.0121 -0.0415
    3OL    H17R 4417   5.008   3.634   4.564 -1.0742 -0.5381  0.2662
    3OL    H17S 4418   4.951   3.753   4.681 -0.8192 -1.0599 -0.0458
    3OL    C118 4419   5.068   3.843   4.524  0.1305  0.3776  0.4337
    3OL    H18R 4420   5.028   3.944   4.527  1.3185  1.1160 -3.5221
    3OL    H18S 4421   5.103   3.819   4.423  2.3896  0.5374  1.1108
    3OL    H18T 4422   5.159   3.845   4.585 -0.2446 -0.5935  1.0533
    1PA    C116 4423   5.125   2.384   4.318  0.4085 -0.1202 -0.8997
    1PA    H16R 4424   5.224   2.344   4.338 -0.2985 -0.2490  3.1270
    1PA    H16S 4425   5.095   2.348   4.220 -0.3080  1.5813 -1.3507
    1PA    H16T 4426   5.062   2.344   4.397  0.6980  1.2833  0.0855
    1PA    C115 4427   5.127   2.538   4.315  0.4957 -0.1022 -0.1344
    1PA    H15R 4428   5.196   2.563   4.234 -0.4703 -1.1327 -1.3235
    1PA    H15S 4429   5.029   2.582   4.300  0.8624  1.2181  1.1511
    1PA    C114 4430   5.197   2.594   4.440  0.3888 -0.1847 -0.0367
    1PA    H14R 4431   5.294   2.543   4.438  0.8741  0.7233 -1.0900
    1PA    H14S 4432   5.214   2.701   4.428  0.8162 -0.2518 -0.0452
    1PA    C113 4433   5.134   2.580   4.579  0.2008  0.3349 -0.0644
    1PA    H13R 4434   5.083   2.483   4.586 -1.5633  1.1210 -1.3151
    1PA    H13S 4435   5.207   2.580   4.660 -0.1793 -1.3820  0.3187
    1PA    C112 4436   5.023   2.683   4.601 -0.2707 -0.2572  0.3712
    1PA    H12R 4437   5.065   2.784   4.593  0.9287 -0.7695 -0.0956
    1PA    H12S 4438   4.947   2.676   4.522  0.1201 -1.4848  0.0876
    1PA    C111 4439   4.955   2.667   4.738 -0.0106 -0.8553  0.4345
    1PA    H11R 4440   4.882   2.749   4.736 -1.2029 -1.8938  0.2941
    1PA    H11S 4441   4.903   2.571   4.740 -0.0289 -0.8426  0.5387
    1PA    C110 4442   5.057   2.685   4.850  0.2985  0.7053 -0.0698
    1PA    H10R 4443   5.129   2.603   4.852  0.5635  0.7877 -2.8745
    1PA    H10S 4444   5.117   2.775   4.835  0.0039  0.8022 -0.6637
    1PA     C19 4445   4.984   2.689   4.985  0.3450  0.1361 -0.0279
    1PA     H9R 4446   4.913   2.771   5.000 -1.7003 -2.1137  5.2663
    1PA     H9S 4447   4.922   2.600   4.994  0.4244  0.0044 -0.7057
    1PA     C18 4448   5.075   2.690   5.109 -0.1057 -0.4973  0.3152
    1PA     H8R 4449   5.010   2.733   5.185  2.5889  2.1978  1.3034
    1PA     H8S 4450   5.099   2.586   5.132  2.1552 -0.9460 -3.3341
    1PA     C17 4451   5.206   2.770   5.105 -0.2631 -0.2330  0.4132
    1PA     H7R 4452   5.282   2.726   5.040 -0.3524 -0.1726  0.2690
    1PA     H7S 4453   5.196   2.872   5.069 -2.0104 -0.9201 -1.2401
    1PA     C16 4454   5.270   2.762   5.244  0.2554  0.2808  0.2037
    1PA     H6R 4455   5.188   2.788   5.311 -0.1769  1.1142 -0.6352
    1PA     H6S 4456   5.300   2.659   5.263  3.5153  0.8394 -1.1800
    1PA     C15 4457   5.393   2.852   5.266  0.3396  0.2263 -0.0481
    1PA     H5R 4458   5.455   2.843   5.176 -0.6152  3.3939 -1.1278
    1PA     H5S 4459   5.354   2.952   5.251 -1.1363 -0.3092  0.0874
    1PA     C14 4460   5.475   2.826   5.393  0.1095 -0.0229  0.0505
    1PA     H4R 4461   5.406   2.844   5.475  1.9446  0.7367  1.5099
    1PA     H4S 4462   5.507   2.722   5.385  2.6594  0.6839  0.0079
    1PA     C13 4463   5.595   2.921   5.405 -0.0437  0.1757  0.0162
    1PA     H3R 4464   5.670   2.887   5.333  1.5756 -3.2507  3.0162
    1PA     H3S 4465   5.558   3.022   5.385  2.4819  0.9936 -1.0058
    1PA     C12 4466   5.664   2.916   5.542 -0.0475 -0.0378  0.0111
    1PA     H2R 4467   5.690   2.818   5.582  1.7601  0.1101 -0.7024
    1PA     H2S 4468   5.754   2.978   5.538 -1.4769  2.0867 -1.4797
    2PC     C11 4469   5.574   2.990   5.638  0.2738  0.3756 -0.0005
    2PC     O12 4470   5.512   2.933   5.726  0.0406  0.5236 -0.0671
    2PC     O11 4471   5.560   3.120   5.606 -0.0887  0.2780 -0.2443
    2PC      C1 4472   5.473   3.207   5.681 -0.6640  0.0130 -0.5949
    2PC      HR 4473   5.370   3.175   5.663 -1.3117  1.9497 -0.6114
    2PC      HS 4474   5.496   3.197   5.787 -1.9548 -1.4513 -0.4080
    2PC      C2 4475   5.483   3.350   5.625 -0.0329  0.1614 -0.1194
    2PC      HX 4476   5.585   3.382   5.605 -0.0843  0.6632  0.4103
    2PC      C3 4477   5.423   3.448   5.727  0.2660  0.2053  0.0132
    2PC      HA 4478   5.504   3.476   5.795 -0.7904 -0.0790  1.4104
    2PC      HB 4479   5.381   3.530   5.667 -0.3669  0.2863  0.5695
    2PC     O31 4480   5.324   3.384   5.809  0.2466  0.3386  0.0942
    2PC     P31 4481   5.267   3.467   5.933 -0.0854  0.3240 -0.0477
    2PC     O32 4482   5.175   3.573   5.855  0.2118  0.2395 -0.5204
    2PC     C31 4483   5.084   3.525   5.754  0.1760  0.0862 -0.4170
    2PC     H1A 4484   5.141   3.483   5.670 -0.6786 -2.7010  0.2917
    2PC     H1B 4485   5.018   3.450   5.797  1.0467 -0.5912 -0.2446
    2PC     C32 4486   5.000   3.647   5.713 -0.6256 -0.2734  0.1399
    2PC     H2A 4487   5.063   3.735   5.721 -1.3631  0.1603  1.5002
    2PC     H2B 4488   4.971   3.634   5.609  0.2514  3.1560 -0.6510
    2PC     N31 4489   4.886   3.699   5.794 -0.3048  0.2014  0.2912
    2PC     C33 4490   4.836   3.827   5.733  0.4181  0.2660 -0.1717
    2PC     H3A 4491   4.904   3.905   5.767  2.0110 -0.6698 -1.1053
    2PC     H3B 4492   4.825   3.821   5.625  1.5128  3.5595 -0.5487
    2PC     H3C 4493   4.735   3.852   5.766  0.5393  0.6477 -0.0887
    2PC     C34 4494   4.778   3.595   5.789  0.1183 -0.1919 -0.8640
    2PC     H4A 4495   4.800   3.502   5.841 -0.7687  0.9014  1.5929
    2PC     H4B 4496   4.692   3.647   5.832  1.0780  0.3138  0.5105
    2PC     H4C 4497   4.746   3.574   5.687 -1.6013  1.2797 -0.6835
    2PC     C35 4498   4.925   3.728   5.936 -0.1233 -0.1303  0.3109
    2PC     H5A 4499   4.837   3.759   5.993 -1.5264 -1.1557 -1.1870
    2PC     H5B 4500   4.995   3.811   5.930  2.2011 -1.9190  1.3809
    2PC     H5C 4501   4.973   3.638   5.973 -1.8061 -0.7885  0.9950
    2PC     O33 4502   5.183   3.380   6.018  0.3024  0.0543  0.0579
    2PC     O34 4503   5.376   3.530   6.011 -0.0742  0.7232 -0.3832
    2PC     O21 4504   5.398   3.343   5.508 -0.0758  0.2623 -0.0937
    2PC     C21 4505   5.407   3.430   5.406  0.0933  0.1839 -0.1467
    2PC     O22 4506   5.486   3.521   5.398  0.0347  0.2851  0.3703
    3OL     C12 4507   5.304   3.411   5.297 -0.1476  0.4848  0.0274
    3OL     H2R 4508   5.305   3.505   5.241  0.3500  0.3089 -0.2618
    3OL     H2S 4509   5.206   3.392   5.340  0.1480  1.5392  1.2438
    3OL     C13 4510   5.353   3.303   5.199 -0.2902  0.3831  0.0685
    3OL     H3R 4511   5.359   3.210   5.256 -1.0035 -0.7656 -1.6666
    3OL     H3S 4512   5.445   3.342   5.156  0.1336 -0.9423 -0.2467
    3OL     C14 4513   5.250   3.273   5.090  0.3612  0.1600 -0.4873
    3OL     H4R 4514   5.213   3.364   5.043  0.6587  0.4910 -0.0829
    3OL     H4S 4515   5.158   3.232   5.132 -0.2421  0.7397 -1.2070
    3OL     C15 4516   5.317   3.176   4.991  0.9456 -0.1426  0.2027
    3OL     H5R 4517   5.356   3.088   5.043  2.1226 -0.2761 -0.8602
    3OL     H5S 4518   5.395   3.235   4.941 -0.0417  2.4713  1.5436
    3OL     C16 4519   5.215   3.138   4.884  0.4806 -0.0157  0.5989
    3OL     H6R 4520   5.163   3.223   4.838 -0.5974  0.9479  3.3612
    3OL     H6S 4521   5.132   3.079   4.926 -1.2267  0.8490 -1.3622
    3OL     C17 4522   5.286   3.050   4.780 -0.1659  0.0388  0.1067
    3OL     H7R 4523   5.325   2.962   4.830 -0.1735  0.5226  0.9771
    3OL     H7S 4524   5.368   3.109   4.739 -1.6077  2.6676  0.7857
    3OL     C18 4525   5.183   3.016   4.671  0.2251 -0.4919 -0.0976
    3OL     H8R 4526   5.095   2.964   4.709  0.9293 -0.5528  1.5236
    3OL     H8S 4527   5.221   2.956   4.587 -2.8827 -2.0235 -0.5745
    3OL     C19 4528   5.149   3.147   4.606  0.6923 -0.0928  0.4543
    3OL     H9R 4529   5.088   3.220   4.660 -0.5558 -2.1763  2.0007
    3OL    C110 4530   5.194   3.189   4.488 -0.2884 -0.5582 -0.0975
    3OL    H10R 4531   5.172   3.286   4.445 -0.7686 -0.3423  0.6035
    3OL    C111 4532   5.272   3.104   4.391 -0.0631  0.0841 -0.4809
    3OL    H11R 4533   5.345   3.044   4.446 -0.2008 -0.5842 -1.0111
    3OL    H11S 4534   5.334   3.169   4.328  0.6475 -1.0206 -0.9544
    3OL    C112 4535   5.182   3.012   4.309 -0.1067 -0.2248 -0.0887
    3OL    H12R 4536   5.088   3.064   4.290  0.3703  0.7667  0.2284
    3OL    H12S 4537   5.156   2.925   4.370  2.0040 -0.5128  0.4524
    3OL    C113 4538   5.243   2.965   4.176  0.4501  0.3520 -0.0379
    3OL    H13R 4539   5.315   2.883   4.184 -0.0601 -0.1211 -0.1879
    3OL    H13S 4540   5.289   3.052   4.129  0.7872  0.6383  0.8024
    3OL    C114 4541   5.126   2.909   4.094  0.3903 -0.0009  0.2815
    3OL    H14R 4542   5.052   2.985   4.065 -1.6313 -1.5596  1.1195
    3OL    H14S 4543   5.071   2.837   4.154  0.3805 -0.3099 -0.0935
    3OL    C115 4544   5.175   2.847   3.962  0.4184 -0.5145  0.5318
    3OL    H15R 4545   5.263   2.785   3.977  0.3832 -0.5051  0.7861
    3OL    H15S 4546   5.206   2.932   3.901 -1.9643  0.2024  0.1956
    3OL    C116 4547   5.063   2.778   3.883  0.3061  0.4781 -0.1887
    3OL    H16R 4548   4.965   2.826   3.872 -1.9525 -3.5734  0.5043
    3OL    H16S 4549   5.042   2.688   3.940  0.0411 -1.6900 -3.4263
    3OL    C117 4550   5.110   2.730   3.745 -0.5983  0.1390 -0.3888
    3OL    H17R 4551   5.209   2.684   3.750 -0.3043  0.8377  0.5478
    3OL    H17S 4552   5.112   2.823   3.687  0.5787  0.9497  0.8821
    3OL    C118 4553   5.009   2.629   3.690 -1.0557  0.2129  0.3089
    3OL    H18R 4554   5.045   2.589   3.595 -1.1318  1.8360 -0.4362
    3OL    H18S 4555   4.916   2.680   3.662 -1.4838  0.0858  1.4369
    3OL    H18T 4556   4.991   2.554   3.767  0.4598 -0.4285  0.0695
    1PA    C116 4557   4.604   1.057   4.103  0.5727  0.1156  0.2377
    1PA    H16R 4558   4.702   1.106   4.104  0.3442  0.5834  0.0913
    1PA    H16S 4559   4.527   1.123   4.062  0.0706 -0.2781  0.5385
    1PA    H16T 4560   4.609   0.965   4.044  0.2794  0.2536 -0.0072
    1PA    C115 4561   4.588   1.021   4.251  0.2941 -0.0385  0.1715
    1PA    H15R 4562   4.536   0.925   4.252  0.5138 -0.1648  1.3064
    1PA    H15S 4563   4.685   1.002   4.298  0.8614  1.8437 -0.1360
    1PA    C114 4564   4.509   1.134   4.319  0.5579  0.2292  0.0367
    1PA    H14R 4565   4.556   1.227   4.285 -0.0716 -0.0291 -1.6710
    1PA    H14S 4566   4.404   1.131   4.290  0.5601  2.3288 -0.3520
    1PA    C113 4567   4.508   1.134   4.472 -0.7462 -0.3498  0.0447
    1PA    H13R 4568   4.447   1.221   4.499 -0.3365  0.3196 -1.0980
    1PA    H13S 4569   4.471   1.041   4.516 -0.2064 -0.7328 -0.3002
    1PA    C112 4570   4.642   1.175   4.534 -0.8447 -0.1301  0.1163
    1PA    H12R 4571   4.720   1.127   4.474 -1.4535 -2.2115  0.8981
    1PA    H12S 4572   4.639   1.284   4.531 -0.1319  0.0763  3.2559
    1PA    C111 4573   4.656   1.140   4.683 -0.5238 -0.0634  0.1034
    1PA    H11R 4574   4.732   1.210   4.719 -0.5202  0.5996 -1.1441
    1PA    H11S 4575   4.568   1.174   4.739  0.3883  2.4990  0.1292
    1PA    C110 4576   4.709   0.999   4.709 -0.3164 -0.0345 -0.1668
    1PA    H10R 4577   4.663   0.926   4.642  2.2076 -1.3836 -0.5893
    1PA    H10S 4578   4.812   0.987   4.674 -0.6444  1.5309 -1.8214
    1PA     C19 4579   4.695   0.965   4.858  0.5372  0.2538 -0.0149
    1PA     H9R 4580   4.768   1.029   4.908  1.1183 -0.6026  0.2550
    1PA     H9S 4581   4.592   0.988   4.887  0.6549  2.4436 -1.0677
    1PA     C18 4582   4.743   0.821   4.878  0.4634  0.2677  0.2709
    1PA     H8R 4583   4.672   0.750   4.834  1.2794 -0.5335  0.2348
    1PA     H8S 4584   4.842   0.827   4.831 -0.4671  2.6774 -1.6442
    1PA     C17 4585   4.767   0.786   5.025 -0.0114 -0.2369  0.2321
    1PA     H7R 4586   4.854   0.721   5.037  1.0044  1.3564  2.0553
    1PA     H7S 4587   4.788   0.874   5.086  0.6713 -0.7818  0.7917
    1PA     C16 4588   4.640   0.723   5.085 -0.3353 -0.0471 -0.2465
    1PA     H6R 4589   4.641   0.718   5.194  2.1118 -0.8010 -0.2398
    1PA     H6S 4590   4.556   0.788   5.062 -0.6207 -0.0748  0.6940
    1PA     C15 4591   4.598   0.585   5.031  0.7608 -0.1884 -0.7792
    1PA     H5R 4592   4.494   0.573   5.063  0.9009 -0.2626 -0.3428
    1PA     H5S 4593   4.583   0.595   4.923 -0.5373 -1.7407 -0.7798
    1PA     C14 4594   4.686   0.468   5.077  0.4442 -0.1055  0.0512
    1PA     H4R 4595   4.634   0.376   5.049 -0.6603  0.6935 -0.5883
    1PA     H4S 4596   4.775   0.469   5.014  0.4839  0.2182  0.1112
    1PA     C13 4597   4.697   0.452   5.229 -0.1911 -0.0132  0.1111
    1PA     H3R 4598   4.758   0.535   5.265  0.5935 -0.2218 -0.7190
    1PA     H3S 4599   4.601   0.464   5.280 -0.0602 -0.4549  0.4721
    1PA     C12 4600   4.769   0.323   5.271  0.2948  0.2065 -0.0447
    1PA     H2R 4601   4.698   0.242   5.251  0.1592 -0.3033  2.2724
    1PA     H2S 4602   4.855   0.304   5.206  0.6797  0.6940  0.3148
    2PC     C11 4603   4.807   0.307   5.416  0.2445 -0.7915 -0.1338
    2PC     O12 4604   4.736   0.251   5.497 -0.2059 -0.4071 -0.2547
    2PC     O11 4605   4.929   0.352   5.447 -0.2134  0.0273  0.5483
    2PC      C1 4606   4.982   0.337   5.580  0.3696  0.0171  0.3194
    2PC      HR 4607   5.069   0.402   5.593  0.5845 -0.0885 -0.5171
    2PC      HS 4608   4.903   0.368   5.648 -1.2747 -0.1649 -1.4115
    2PC      C2 4609   5.008   0.188   5.604 -0.1424 -0.0130  0.6966
    2PC      HX 4610   4.916   0.130   5.593  0.9027 -1.4836 -0.8621
    2PC      C3 4611   5.061   0.166   5.746 -0.1493  0.2676  0.7440
    2PC      HA 4612   5.151   0.227   5.751  1.1379 -1.3637 -1.0063
    2PC      HB 4613   4.978   0.194   5.812 -0.5992  0.3706  0.1389
    2PC     O31 4614   5.098   0.028   5.764 -0.0771  0.2356  0.3572
    2PC     P31 4615   5.169  -0.014   5.901  0.2187 -0.3309  0.0337
    2PC     O32 4616   5.321   0.010   5.855  0.1988 -0.0871  0.0965
    2PC     C31 4617   5.373  -0.082   5.757 -0.5428 -0.3543 -0.0572
    2PC     H1A 4618   5.362  -0.181   5.800  0.2564 -0.9203 -1.1114
    2PC     H1B 4619   5.323  -0.082   5.660  3.6424 -3.2726 -2.5485
    2PC     C32 4620   5.515  -0.044   5.710 -0.5220 -0.1906  0.1365
    2PC     H2A 4621   5.533  -0.082   5.610  0.8079  1.0329 -0.1206
    2PC     H2B 4622   5.518   0.064   5.724 -1.5000 -0.0484 -0.6265
    2PC     N31 4623   5.633  -0.094   5.788 -0.1932 -0.4181 -0.4986
    2PC     C33 4624   5.617  -0.041   5.928 -0.1908 -0.9589 -0.2919
    2PC     H3A 4625   5.542  -0.099   5.982 -2.6757  3.8688  2.1383
    2PC     H3B 4626   5.710  -0.037   5.984 -0.7331  1.2173  0.5557
    2PC     H3C 4627   5.576   0.060   5.932 -3.5862 -2.1925  3.8378
    2PC     C34 4628   5.625  -0.243   5.789 -0.4161 -0.4075  0.6160
    2PC     H4A 4629   5.704  -0.283   5.854  0.3461  0.6649  0.3619
    2PC     H4B 4630   5.527  -0.270   5.828 -1.7595  1.1104 -1.5185
    2PC     H4C 4631   5.642  -0.277   5.687 -0.6553  2.7894 -0.5946
    2PC     C35 4632   5.763  -0.044   5.734  0.0252 -0.1655  0.2528
    2PC     H5A 4633   5.843  -0.102   5.781 -0.9021 -0.6501  1.2729
    2PC     H5B 4634   5.776   0.061   5.762  2.1567 -0.6120  1.1722
    2PC     H5C 4635   5.768  -0.067   5.628 -1.8890 -0.2077  0.1406
    2PC     O33 4636   5.142   0.086   6.007 -0.8838 -0.0543 -0.4921
    2PC     O34 4637   5.118  -0.144   5.950  0.2513 -0.3091  0.1251
    2PC     O21 4638   5.100   0.145   5.502 -0.6505  0.3331  0.0874
    2PC     C21 4639   5.097   0.018   5.460 -0.6394  0.6280 -0.8468
    2PC     O22 4640   5.018  -0.065   5.500  1.0205 -0.4273  0.4039
    3OL     C12 4641   5.201  -0.014   5.356 -0.1903 -0.4700 -0.0873
    3OL     H2R 4642   5.296   0.039   5.366 -0.1976 -0.6835  1.2764
    3OL     H2S 4643   5.158   0.003   5.257  0.3086 -0.0342 -0.2340
    3OL     C13 4644   5.216  -0.167   5.354 -0.6817 -0.5152 -0.8234
    3OL     H3R 4645   5.127  -0.199   5.299 -0.5153  0.1352 -1.4994
    3OL     H3S 4646   5.207  -0.212   5.453 -2.1462  0.9827 -0.2142
    3OL     C14 4647   5.352  -0.206   5.294 -0.5039 -0.7713 -0.2596
    3OL     H4R 4648   5.357  -0.313   5.314  0.9875 -0.4588  1.2931
    3OL     H4S 4649   5.429  -0.158   5.355 -0.8149 -0.8460  0.2027
    3OL     C15 4650   5.383  -0.169   5.149  0.6720  0.1045  0.2028
    3OL     H5R 4651   5.394  -0.062   5.132  1.0706  0.0081 -0.1714
    3OL     H5S 4652   5.289  -0.205   5.108  0.5840  0.0858  0.4177
    3OL     C16 4653   5.511  -0.239   5.101  0.5157  0.0648 -0.1572
    3OL     H6R 4654   5.518  -0.346   5.123 -1.5053  0.2284  1.5770
    3OL     H6S 4655   5.590  -0.193   5.161  0.2870 -0.0510  0.2345
    3OL     C17 4656   5.523  -0.200   4.953 -0.2183 -0.5047 -0.3737
    3OL     H7R 4657   5.532  -0.093   4.933  0.3306 -0.6251 -0.8115
    3OL     H7S 4658   5.435  -0.241   4.904 -0.6150  2.5352 -2.4915
    3OL     C18 4659   5.649  -0.260   4.889 -0.1150 -0.6207 -0.0658
    3OL     H8R 4660   5.662  -0.366   4.913 -2.1717 -0.9308 -0.1545
    3OL     H8S 4661   5.732  -0.196   4.920 -1.4563  0.3574  1.6485
    3OL     C19 4662   5.633  -0.252   4.739  0.1232  0.3469 -0.0467
    3OL     H9R 4663   5.530  -0.235   4.708  0.1800 -0.2189 -0.5760
    3OL    C110 4664   5.726  -0.277   4.648  0.5894  0.3995  0.4128
    3OL    H10R 4665   5.702  -0.262   4.543  2.3280  1.7956  0.1547
    3OL    C111 4666   5.847  -0.366   4.668  0.0847 -0.3733  0.0628
    3OL    H11R 4667   5.845  -0.446   4.594 -1.1258  1.0491 -1.5465
    3OL    H11S 4668   5.854  -0.405   4.769  1.1271 -0.0194  0.1409
    3OL    C112 4669   5.970  -0.285   4.624  0.0832 -0.3108  0.1754
    3OL    H12R 4670   6.060  -0.345   4.633  0.4471  0.2976  0.6204
    3OL    H12S 4671   5.983  -0.206   4.698  2.4669  0.6784 -1.1869
    3OL    C113 4672   5.966  -0.227   4.482 -0.0005 -0.1815  0.2296
    3OL    H13R 4673   6.062  -0.177   4.472 -0.7564  1.2600 -0.1249
    3OL    H13S 4674   5.896  -0.144   4.472 -0.5751 -0.3426  2.4654
    3OL    C114 4675   5.953  -0.335   4.374  0.2245  0.3458 -0.3307
    3OL    H14R 4676   5.857  -0.386   4.384  0.5282  0.0388  1.1658
    3OL    H14S 4677   6.035  -0.406   4.378 -2.1127 -2.4570  1.9395
    3OL    C115 4678   5.949  -0.268   4.236  0.0985  0.3587 -0.3217
    3OL    H15R 4679   6.038  -0.206   4.222 -0.7851  2.1356  1.4855
    3OL    H15S 4680   5.857  -0.210   4.224  0.1016  0.3709 -0.2855
    3OL    C116 4681   5.949  -0.384   4.136  0.2705 -0.0710  0.1746
    3OL    H16R 4682   5.859  -0.442   4.157  0.3970 -0.3888 -0.1549
    3OL    H16S 4683   6.027  -0.458   4.155 -0.3139 -0.2787  1.9896
    3OL    C117 4684   5.961  -0.333   3.992 -0.0992  0.0898  0.1988
    3OL    H17R 4685   6.038  -0.256   3.987  1.5626 -1.5391 -0.9410
    3OL    H17S 4686   5.868  -0.281   3.970 -0.6674 -1.6110 -1.7562
    3OL    C118 4687   5.996  -0.443   3.891 -1.0325 -0.0924  0.0679
    3OL    H18R 4688   6.100  -0.472   3.905 -1.4583 -1.6175  0.2820
    3OL    H18S 4689   5.970  -0.415   3.788  0.5088  0.2800 -0.2459
    3OL    H18T 4690   5.930  -0.529   3.905  0.1447 -1.2960 -1.3440
    1PA    C116 4691   0.857   2.549   4.401 -0.2603  0.0922 -0.5272
    1PA    H16R 4692   0.750   2.554   4.383 -0.0722 -0.4009 -1.8458
    1PA    H16S 4693   0.916   2.533   4.311  3.6872  2.9715  1.2177
    1PA    H16T 4694   0.893   2.644   4.443 -0.1629 -0.3716  0.4713
    1PA    C115 4695   0.874   2.443   4.511 -0.2602  0.8446  0.2177
    1PA    H15R 4696   0.797   2.457   4.587 -0.0954  1.8899  0.2031
    1PA    H15S 4697   0.858   2.347   4.461 -2.3047  0.5521  1.3225
    1PA    C114 4698   1.014   2.439   4.572  0.0341  0.1476 -0.4811
    1PA    H14R 4699   1.041   2.542   4.597 -0.4959 -0.2305  1.8391
    1PA    H14S 4700   1.010   2.384   4.666  0.3203 -2.4322 -1.8918
    1PA    C113 4701   1.118   2.375   4.478  0.2312  0.3714 -0.4177
    1PA    H13R 4702   1.101   2.412   4.377  1.5254 -0.3808 -0.9320
    1PA    H13S 4703   1.219   2.405   4.507 -0.7470  1.6686  1.9435
    1PA    C112 4704   1.102   2.223   4.471  0.2793  0.3438  0.0497
    1PA    H12R 4705   1.096   2.184   4.573  0.4358  0.6876  0.1905
    1PA    H12S 4706   1.008   2.194   4.424 -1.2593  2.1956  1.8242
    1PA    C111 4707   1.212   2.154   4.390  0.1021 -0.1378  0.2114
    1PA    H11R 4708   1.218   2.188   4.286  1.5048  0.0847  0.3422
    1PA    H11S 4709   1.299   2.189   4.446  0.1706 -3.4521  2.4566
    1PA    C110 4710   1.200   2.001   4.392 -0.7113 -0.0865 -0.2647
    1PA    H10R 4711   1.095   1.971   4.388 -1.4366  2.3090 -0.5718
    1PA    H10S 4712   1.254   1.952   4.311  1.8189  0.4742  0.9605
    1PA     C19 4713   1.263   1.945   4.521  0.1313 -0.2077 -0.7230
    1PA     H9R 4714   1.218   1.984   4.612 -0.2166 -0.2925 -0.8558
    1PA     H9S 4715   1.242   1.838   4.512  1.7904 -0.4972 -1.5945
    1PA     C18 4716   1.415   1.967   4.525  0.1017 -0.0322 -0.5504
    1PA     H8R 4717   1.461   1.922   4.437  1.9768  0.1975  0.2672
    1PA     H8S 4718   1.440   2.073   4.522 -0.1723  0.0387 -0.3537
    1PA     C17 4719   1.482   1.904   4.648  0.3485  0.8120 -0.2438
    1PA     H7R 4720   1.440   1.805   4.666  2.2941 -0.4653 -2.1938
    1PA     H7S 4721   1.590   1.907   4.631  0.4169 -2.5967 -1.1093
    1PA     C16 4722   1.455   1.979   4.779 -0.0806  0.1900  0.0265
    1PA     H6R 4723   1.499   2.078   4.767  1.1017 -0.0431  2.0111
    1PA     H6S 4724   1.350   1.996   4.804 -0.4192  2.0471 -2.3539
    1PA     C15 4725   1.519   1.903   4.896 -0.0773  0.2042  0.0339
    1PA     H5R 4726   1.472   1.804   4.898  0.1699  0.0928  0.3921
    1PA     H5S 4727   1.624   1.883   4.872 -0.0500 -1.2272  1.2029
    1PA     C14 4728   1.514   1.988   5.024  0.0173  0.3041 -0.0279
    1PA     H4R 4729   1.582   2.072   5.007  0.2613 -0.2726 -2.2758
    1PA     H4S 4730   1.409   2.015   5.035 -0.3332 -1.5866  1.7966
    1PA     C13 4731   1.539   1.902   5.148 -0.1272 -0.0910 -0.2693
    1PA     H3R 4732   1.526   1.968   5.235  2.5615 -0.9342  0.8788
    1PA     H3S 4733   1.470   1.818   5.152 -0.6260  0.3063 -0.4990
    1PA     C12 4734   1.686   1.860   5.158 -0.0872  0.0337 -0.3286
    1PA     H2R 4735   1.714   1.795   5.075 -2.3199  0.2033 -1.2629
    1PA     H2S 4736   1.752   1.947   5.156 -0.8954  0.6741  0.2571
    2PC     C11 4737   1.712   1.793   5.291 -0.3220  0.5301 -0.0300
    2PC     O12 4738   1.626   1.722   5.340 -0.0863  0.2284 -0.0500
    2PC     O11 4739   1.825   1.829   5.354 -0.0168 -0.5639  0.0608
    2PC      C1 4740   1.850   1.772   5.484  0.6849 -0.2069  0.0862
    2PC      HR 4741   1.917   1.833   5.545 -1.3849  1.1932  1.0466
    2PC      HS 4742   1.757   1.780   5.540  1.4993  3.1758  1.1798
    2PC      C2 4743   1.896   1.625   5.478  0.4058 -0.2768 -0.4156
    2PC      HX 4744   1.809   1.562   5.454 -1.2027  1.6059  0.1716
    2PC      C3 4745   1.960   1.569   5.606 -0.1783 -0.0988 -0.0410
    2PC      HA 4746   2.068   1.581   5.604 -0.1825 -0.1706 -0.9027
    2PC      HB 4747   1.920   1.613   5.698 -0.4118 -0.1307 -0.1245
    2PC     O31 4748   1.937   1.427   5.610  0.3632 -0.1809  0.2298
    2PC     P31 4749   1.810   1.355   5.676  0.1464 -0.1063 -0.1025
    2PC     O32 4750   1.801   1.416   5.823  0.0709  0.1383 -0.2078
    2PC     C31 4751   1.800   1.323   5.933  0.1518  0.0273 -0.3013
    2PC     H1A 4752   1.747   1.379   6.010  1.6644  1.6275 -0.3775
    2PC     H1B 4753   1.747   1.230   5.912  0.3558 -0.1212 -0.1743
    2PC     C32 4754   1.944   1.283   5.972 -0.0510 -0.5219 -0.1018
    2PC     H2A 4755   1.947   1.203   6.046  0.0241 -0.2859  0.1531
    2PC     H2B 4756   1.988   1.248   5.879 -0.2624 -0.4923 -0.2142
    2PC     N31 4757   2.039   1.382   6.032 -0.0626 -0.6017  0.0495
    2PC     C33 4758   2.161   1.306   6.076  0.0593 -0.0674  0.6645
    2PC     H3A 4759   2.206   1.267   5.984 -0.7936 -1.8911  0.9600
    2PC     H3B 4760   2.226   1.371   6.134 -0.4259  0.2405  0.8708
    2PC     H3C 4761   2.133   1.214   6.128  1.1775 -2.0414 -1.9596
    2PC     C34 4762   2.088   1.470   5.921 -0.4001 -0.3108  0.1293
    2PC     H4A 4763   2.151   1.553   5.956 -1.8840  0.3106  1.4759
    2PC     H4B 4764   2.143   1.416   5.844  0.9746 -1.6620  1.9653
    2PC     H4C 4765   1.996   1.511   5.880  0.6513 -0.8404 -2.9869
    2PC     C35 4766   1.980   1.468   6.140  0.1563 -0.0310 -0.2808
    2PC     H5A 4767   1.881   1.508   6.121  0.0020  0.0105  0.5690
    2PC     H5B 4768   2.037   1.561   6.147  0.6711 -0.1348 -2.4571
    2PC     H5C 4769   1.986   1.423   6.239  1.0999 -0.2740 -0.4374
    2PC     O33 4770   1.695   1.404   5.597  0.3138  0.8185  0.2234
    2PC     O34 4771   1.820   1.207   5.672 -0.3576 -0.1515  0.2791
    2PC     O21 4772   1.977   1.614   5.360  0.2290  0.2132 -0.5836
    2PC     C21 4773   2.095   1.678   5.352  0.1380  0.5413  0.4808
    2PC     O22 4774   2.149   1.745   5.437  0.6649  0.4300  0.2374
    3OL     C12 4775   2.158   1.662   5.216  0.6373  0.6662  0.6966
    3OL     H2R 4776   2.108   1.579   5.166  0.3658 -0.2607  2.4371
    3OL     H2S 4777   2.257   1.622   5.238 -0.5725 -2.7480  0.5579
    3OL     C13 4778   2.145   1.793   5.137  0.1317  0.2074 -0.0008
    3OL     H3R 4779   2.209   1.867   5.187  1.2549  0.5908 -1.8867
    3OL     H3S 4780   2.043   1.833   5.139 -0.1412 -0.4748 -0.0957
    3OL     C14 4781   2.189   1.776   4.991  0.0866  0.1582 -0.0088
    3OL     H4R 4782   2.143   1.698   4.931  1.3220 -0.7937  0.2431
    3OL     H4S 4783   2.297   1.761   4.986 -0.1459 -1.1577 -2.5707
    3OL     C15 4784   2.169   1.910   4.919 -0.1179 -0.1053 -0.4442
    3OL     H5R 4785   2.217   1.990   4.976 -1.8131 -1.1517  2.7266
    3OL     H5S 4786   2.061   1.927   4.923 -0.5322 -2.4739 -0.2391
    3OL     C16 4787   2.217   1.895   4.774  0.6613  0.0830 -0.2091
    3OL     H6R 4788   2.161   1.816   4.724  0.0214  0.5669 -0.2742
    3OL     H6S 4789   2.323   1.869   4.781  0.7913 -0.0049 -2.1388
    3OL     C17 4790   2.188   2.018   4.687 -0.2135  0.5133  0.6678
    3OL     H7R 4791   2.183   2.101   4.757 -1.9354  0.6326  0.4472
    3OL     H7S 4792   2.093   2.000   4.636  1.0845 -1.9392 -1.1361
    3OL     C18 4793   2.306   2.044   4.591 -0.2038  0.0287  0.5471
    3OL     H8R 4794   2.403   2.025   4.637  1.1238 -0.7213 -2.3576
    3OL     H8S 4795   2.302   2.152   4.579  0.3812  0.0032  0.1325
    3OL     C19 4796   2.296   1.979   4.455  0.0514 -0.0454  0.5631
    3OL     H9R 4797   2.245   1.883   4.460 -0.9661  0.4001 -0.6653
    3OL    C110 4798   2.315   2.045   4.342 -0.4040  0.1289  0.5843
    3OL    H10R 4799   2.289   2.004   4.245 -0.2479  1.8264 -0.2190
    3OL    C111 4800   2.396   2.171   4.324 -0.3328  0.0060  0.0313
    3OL    H11R 4801   2.458   2.181   4.413 -1.1715 -2.1712  0.9323
    3OL    H11S 4802   2.322   2.251   4.330 -2.1668 -1.7253  2.2721
    3OL    C112 4803   2.469   2.162   4.189 -0.2929 -0.0873  0.0592
    3OL    H12R 4804   2.395   2.139   4.113 -0.3362  2.0331 -0.6182
    3OL    H12S 4805   2.546   2.085   4.194 -1.2033 -0.9605  1.0104
    3OL    C113 4806   2.515   2.302   4.143  0.0456 -0.3071 -0.2760
    3OL    H13R 4807   2.430   2.368   4.163 -0.2650 -0.6526 -0.4317
    3OL    H13S 4808   2.522   2.291   4.035 -1.5392 -1.9061 -0.2748
    3OL    C114 4809   2.642   2.350   4.214 -0.2930 -0.0291  0.1468
    3OL    H14R 4810   2.633   2.349   4.323 -0.1645 -0.3676  0.1529
    3OL    H14S 4811   2.640   2.458   4.197  0.0641 -0.0060  0.2425
    3OL    C115 4812   2.777   2.293   4.168  0.0122  0.5008  0.3751
    3OL    H15R 4813   2.789   2.321   4.063  0.6571 -2.2288 -0.3490
    3OL    H15S 4814   2.777   2.184   4.171 -0.6495  0.4677 -0.3498
    3OL    C116 4815   2.890   2.349   4.255  0.1520  0.2259  0.3712
    3OL    H16R 4816   2.873   2.448   4.299 -0.0382 -0.3059  1.5168
    3OL    H16S 4817   2.982   2.358   4.196  1.5218  1.7164  2.5619
    3OL    C117 4818   2.915   2.244   4.364  0.1202 -0.3850 -0.2063
    3OL    H17R 4819   2.940   2.149   4.316 -2.1413 -1.0362 -0.2311
    3OL    H17S 4820   2.825   2.238   4.426  0.6711  1.9800  0.9386
    3OL    C118 4821   3.016   2.300   4.465 -0.4630  0.3046  0.0019
    3OL    H18R 4822   3.019   2.230   4.549  2.4897 -0.6392 -0.7567
    3OL    H18S 4823   2.981   2.398   4.499 -1.9925 -0.2758  0.1695
    3OL    H18T 4824   3.119   2.300   4.430 -0.4368 -0.3558  0.0658
    1PA    C116 4825   5.213   2.064   4.125 -0.0686  0.2223  0.7114
    1PA    H16R 4826   5.231   2.128   4.211  0.5406  0.9989  0.0284
    1PA    H16S 4827   5.163   2.128   4.052  0.5580 -0.3800 -0.2688
    1PA    H16T 4828   5.310   2.035   4.083 -0.9996  0.4697 -1.7795
    1PA    C115 4829   5.122   1.946   4.158  0.0911 -0.0727  0.1103
    1PA    H15R 4830   5.023   1.988   4.179 -0.2479 -0.6033 -0.3897
    1PA    H15S 4831   5.107   1.876   4.075 -1.6550 -0.4121  0.6518
    1PA    C114 4832   5.180   1.859   4.270  0.1034  0.2063  0.3217
    1PA    H14R 4833   5.284   1.837   4.244  0.2457  0.3362  0.7716
    1PA    H14S 4834   5.181   1.911   4.365 -0.1379 -0.0948  0.4910
    1PA    C113 4835   5.101   1.729   4.288 -0.1799  0.3309 -0.0088
    1PA    H13R 4836   4.997   1.743   4.320 -0.0269 -1.6198  1.5881
    1PA    H13S 4837   5.099   1.676   4.193  0.7676 -0.4541  0.3934
    1PA    C112 4838   5.166   1.632   4.388 -0.1182  0.0271 -0.3400
    1PA    H12R 4839   5.267   1.615   4.350  0.1956  2.2410 -0.6528
    1PA    H12S 4840   5.166   1.667   4.492  1.1857  1.2384 -0.7207
    1PA    C111 4841   5.074   1.509   4.394 -0.7691  0.5303  0.1440
    1PA    H11R 4842   4.971   1.545   4.396 -0.6408  0.9106  0.0853
    1PA    H11S 4843   5.072   1.457   4.298 -2.4327  2.0069 -0.6943
    1PA    C110 4844   5.115   1.419   4.512  0.6445  0.0939 -0.6563
    1PA    H10R 4845   5.137   1.489   4.593 -1.3891 -1.1518  1.0801
    1PA    H10S 4846   5.020   1.374   4.542  0.7886 -0.0365 -0.3958
    1PA     C19 4847   5.225   1.317   4.482  0.4035 -0.3492 -0.0412
    1PA     H9R 4848   5.192   1.244   4.407 -0.4907  0.5990 -0.6031
    1PA     H9S 4849   5.318   1.369   4.459  0.7942 -0.5547  1.0247
    1PA     C18 4850   5.252   1.246   4.615  0.4723 -0.4282 -0.0967
    1PA     H8R 4851   5.348   1.194   4.611  0.9328  0.1441  2.0610
    1PA     H8S 4852   5.249   1.323   4.692 -0.7633  1.1530 -1.6531
    1PA     C17 4853   5.140   1.143   4.635  0.1590 -0.0293  0.2097
    1PA     H7R 4854   5.041   1.187   4.652 -0.1314 -0.4771 -0.3072
    1PA     H7S 4855   5.140   1.076   4.549  0.2890 -0.1587  0.3116
    1PA     C16 4856   5.159   1.063   4.764 -0.2144 -0.1551  0.1889
    1PA     H6R 4857   5.082   0.986   4.777  0.1304 -0.5511 -0.1050
    1PA     H6S 4858   5.253   1.010   4.748 -1.1914 -1.8051 -0.3577
    1PA     C15 4859   5.151   1.139   4.897  0.3023  0.3863 -0.0887
    1PA     H5R 4860   5.195   1.091   4.985 -0.4307  0.8634  0.5521
    1PA     H5S 4861   5.208   1.230   4.878 -1.3524  1.1582 -1.5708
    1PA     C14 4862   5.010   1.188   4.932  0.0981  0.0894 -0.4908
    1PA     H4R 4863   4.963   1.252   4.857  1.8443  2.3610  0.2080
    1PA     H4S 4864   4.953   1.098   4.954 -2.8081  1.4552 -1.8829
    1PA     C13 4865   5.012   1.264   5.065  0.1814  0.1278 -0.5142
    1PA     H3R 4866   5.064   1.198   5.135  2.0532  0.1182 -1.8501
    1PA     H3S 4867   5.072   1.355   5.063  0.8825 -0.2427  1.4216
    1PA     C12 4868   4.868   1.287   5.113  0.4049  0.0657  0.1998
    1PA     H2R 4869   4.800   1.306   5.030 -1.2788 -0.9200  1.2835
    1PA     H2S 4870   4.822   1.191   5.137  0.2933  0.2220  0.6357
    2PC     C11 4871   4.854   1.381   5.230  0.0818 -0.0895  0.2899
    2PC     O12 4872   4.950   1.440   5.277  0.2992 -0.2493  0.0470
    2PC     O11 4873   4.731   1.387   5.283  0.0419  0.6000  0.1379
    2PC      C1 4874   4.708   1.469   5.399 -0.0142  0.0254  0.5396
    2PC      HR 4875   4.606   1.451   5.434  0.3118  0.0854  1.5524
    2PC      HS 4876   4.779   1.433   5.474  1.8535  0.6358 -0.8519
    2PC      C2 4877   4.720   1.618   5.365  0.4463 -0.1260  0.0139
    2PC      HX 4878   4.801   1.637   5.294  1.9828  0.0529  1.7397
    2PC      C3 4879   4.734   1.708   5.489  0.1248 -0.0715  0.0125
    2PC      HA 4880   4.838   1.693   5.518  0.3898  1.2124 -0.2047
    2PC      HB 4881   4.716   1.811   5.456 -1.3744 -0.3904 -0.2511
    2PC     O31 4882   4.652   1.665   5.599 -0.0708  0.1933 -0.0292
    2PC     P31 4883   4.667   1.752   5.733  0.0199  0.1420 -0.0053
    2PC     O32 4884   4.826   1.751   5.753  0.1473 -0.4251 -1.0059
    2PC     C31 4885   4.891   1.623   5.768  0.6412 -0.0738 -0.0724
    2PC     H1A 4886   4.861   1.566   5.856  0.4431 -0.2045 -0.2228
    2PC     H1B 4887   4.882   1.564   5.676  0.6876  0.0995 -0.1904
    2PC     C32 4888   5.043   1.638   5.783  0.5840  0.7135 -0.2066
    2PC     H2A 4889   5.081   1.536   5.783 -0.0817  0.4519 -1.1526
    2PC     H2B 4890   5.088   1.704   5.710  0.1121  1.6376  0.3218
    2PC     N31 4891   5.100   1.697   5.909  0.3566  0.4675  0.0161
    2PC     C33 4892   5.249   1.717   5.901  0.4163 -0.1532 -0.5175
    2PC     H3A 4893   5.285   1.757   5.996 -0.0242 -1.9454  0.4579
    2PC     H3B 4894   5.283   1.616   5.876  0.0657 -0.4131  0.0331
    2PC     H3C 4895   5.271   1.781   5.816  2.5256 -0.3749 -0.1754
    2PC     C34 4896   5.040   1.829   5.946 -0.0778  0.2017  0.2581
    2PC     H4A 4897   4.932   1.820   5.960 -0.0343  0.3677  0.7331
    2PC     H4B 4898   5.091   1.864   6.036 -0.3576  0.6281  0.2544
    2PC     H4C 4899   5.061   1.905   5.872 -1.9818  0.4617 -0.0754
    2PC     C35 4900   5.071   1.608   6.026 -0.2668 -0.4299 -0.7992
    2PC     H5A 4901   5.128   1.642   6.113 -0.8623  0.7123 -0.8339
    2PC     H5B 4902   5.089   1.501   6.014 -0.4131 -0.4451 -0.8889
    2PC     H5C 4903   4.967   1.631   6.049  0.4239  0.7886  1.3583
    2PC     O33 4904   4.602   1.884   5.713 -0.3271 -0.0643 -0.2552
    2PC     O34 4905   4.605   1.680   5.846 -0.3448  0.1521 -0.1975
    2PC     O21 4906   4.606   1.665   5.290  0.6651  0.5413  0.0932
    2PC     C21 4907   4.612   1.785   5.229 -0.7601  1.0697  0.9466
    2PC     O22 4908   4.710   1.857   5.238 -0.0928  0.2846  0.1012
    3OL     C12 4909   4.493   1.811   5.140 -0.2476  0.0160 -0.0661
    3OL     H2R 4910   4.401   1.839   5.191 -0.8713  1.0154 -1.6828
    3OL     H2S 4911   4.476   1.715   5.091 -1.1738 -0.4625  1.1441
    3OL     C13 4912   4.513   1.900   5.017 -0.2347 -0.0841 -0.1364
    3OL     H3R 4913   4.617   1.881   4.991 -0.2943 -0.8593  0.1562
    3OL     H3S 4914   4.488   2.002   5.047 -1.5331 -0.8544  1.5534
    3OL     C14 4915   4.406   1.877   4.908 -0.4342 -0.2089  0.0847
    3OL     H4R 4916   4.303   1.887   4.944 -1.0618 -0.0120 -1.6793
    3OL     H4S 4917   4.434   1.778   4.870 -0.1980  0.2431 -0.9543
    3OL     C15 4918   4.428   1.981   4.797  0.0152 -0.1558  0.2208
    3OL     H5R 4919   4.530   1.971   4.759 -0.7517 -1.2687 -1.6439
    3OL     H5S 4920   4.403   2.078   4.841 -0.4133 -0.8243  1.5118
    3OL     C16 4921   4.321   1.966   4.688  0.2512  0.0247 -0.0359
    3OL     H6R 4922   4.227   1.995   4.735 -0.9382 -0.1058 -2.2318
    3OL     H6S 4923   4.312   1.863   4.655  1.1453 -0.0468 -0.0882
    3OL     C17 4924   4.343   2.060   4.569 -0.2870  0.1137 -0.0683
    3OL     H7R 4925   4.375   2.158   4.606 -0.6189 -0.4512  1.8120
    3OL     H7S 4926   4.248   2.053   4.515 -0.6416 -2.1247  0.7649
    3OL     C18 4927   4.451   1.997   4.479  0.0605  0.8432 -0.1739
    3OL     H8R 4928   4.428   1.894   4.450  2.0471  1.3522 -4.2315
    3OL     H8S 4929   4.547   1.994   4.530 -0.9913  1.1400  1.9619
    3OL     C19 4930   4.466   2.073   4.349 -0.0537  0.6958 -0.2741
    3OL     H9R 4931   4.382   2.131   4.314  0.9355  2.3837  0.0645
    3OL    C110 4932   4.576   2.084   4.277  0.3421  0.1027  0.2263
    3OL    H10R 4933   4.560   2.137   4.184 -0.8118 -2.9080 -1.4146
    3OL    C111 4934   4.715   2.033   4.306  0.2802 -0.4877 -0.5124
    3OL    H11R 4935   4.769   2.071   4.219 -0.9715 -0.6105 -1.3600
    3OL    H11S 4936   4.727   1.927   4.329  1.3966 -0.2996 -0.1631
    3OL    C112 4937   4.780   2.110   4.421 -0.2620 -0.3275 -0.3105
    3OL    H12R 4938   4.724   2.100   4.514 -1.5986  1.3833 -0.8785
    3OL    H12S 4939   4.799   2.215   4.396 -2.5383 -0.0970 -1.2657
    3OL    C113 4940   4.915   2.049   4.462 -0.1969 -0.0108 -0.0533
    3OL    H13R 4941   4.987   2.050   4.380  0.0172  0.1744  0.1332
    3OL    H13S 4942   4.898   1.945   4.488 -0.5352  0.5637  2.3034
    3OL    C114 4943   4.981   2.121   4.581  0.3585 -0.6393  0.0245
    3OL    H14R 4944   4.941   2.223   4.586  0.0154 -0.7910  4.4948
    3OL    H14S 4945   5.089   2.127   4.576  0.4275 -0.5379  1.2648
    3OL    C115 4946   4.944   2.068   4.721 -0.2605  0.1190  0.1602
    3OL    H15R 4947   4.977   1.964   4.712  0.4824  0.5079 -2.6473
    3OL    H15S 4948   4.838   2.056   4.741 -0.1796 -0.9459  0.0121
    3OL    C116 4949   5.033   2.123   4.833 -0.3621  0.4918  0.0567
    3OL    H16R 4950   5.137   2.136   4.803 -0.2209 -0.5769  0.0363
    3OL    H16S 4951   5.035   2.051   4.915 -1.4606 -0.5407 -0.7740
    3OL    C117 4952   5.002   2.256   4.903  0.0989  0.4762  0.2904
    3OL    H17R 4953   4.895   2.251   4.923 -0.2055 -1.9433 -1.5001
    3OL    H17S 4954   5.013   2.335   4.828 -1.7229 -0.0566 -0.5992
    3OL    C118 4955   5.096   2.274   5.023 -0.2632  0.7866  0.5301
    3OL    H18R 4956   5.202   2.254   5.007 -0.1915  1.0966  0.6096
    3OL    H18S 4957   5.061   2.212   5.106 -1.8617  1.0910  0.1163
    3OL    H18T 4958   5.093   2.378   5.057  0.2719  0.9108  0.2070
    1PA    C116 4959   1.841   0.816   3.589  0.4234 -0.0215 -0.1329
    1PA    H16R 4960   1.851   0.732   3.520 -0.0815  0.1795 -0.4554
    1PA    H16S 4961   1.832   0.768   3.687 -2.1817 -0.3868 -0.4827
    1PA    H16T 4962   1.921   0.890   3.593 -1.3283  1.9463  0.1990
    1PA    C115 4963   1.709   0.885   3.554 -0.0334 -0.8569 -0.0917
    1PA    H15R 4964   1.718   0.907   3.447  1.1022  0.9160  0.3268
    1PA    H15S 4965   1.624   0.819   3.569 -0.2251  0.0948  4.1523
    1PA    C114 4966   1.694   1.020   3.626 -0.5343 -0.8389 -0.2283
    1PA    H14R 4967   1.791   1.069   3.634 -1.4704  0.9740  0.5286
    1PA    H14S 4968   1.635   1.092   3.568  1.1856  2.4427  1.7899
    1PA    C113 4969   1.631   0.993   3.763 -0.1116 -0.3792  0.0577
    1PA    H13R 4970   1.544   0.933   3.736  1.1150 -0.9985 -2.8737
    1PA    H13S 4971   1.695   0.938   3.832 -1.2082 -2.3187 -0.3861
    1PA    C112 4972   1.589   1.131   3.818 -0.2921 -0.2969 -0.2838
    1PA    H12R 4973   1.683   1.187   3.824 -0.5618  0.1922 -0.5933
    1PA    H12S 4974   1.523   1.186   3.751 -0.2763 -1.0082 -0.9081
    1PA    C111 4975   1.516   1.119   3.952 -0.3185 -0.2616 -0.2956
    1PA    H11R 4976   1.462   1.210   3.978 -1.5551 -1.3250  1.0272
    1PA    H11S 4977   1.450   1.032   3.949  2.3655 -2.3991 -1.7007
    1PA    C110 4978   1.623   1.090   4.058 -0.1727 -0.2293 -0.4341
    1PA    H10R 4979   1.697   1.011   4.041  1.7679  0.8561  2.1995
    1PA    H10S 4980   1.681   1.182   4.070  0.6208 -0.8359  0.5557
    1PA     C19 4981   1.554   1.063   4.192  0.3873 -0.2149 -0.1417
    1PA     H9R 4982   1.489   1.148   4.213 -1.0510 -1.1172 -0.8654
    1PA     H9S 4983   1.486   0.978   4.193  1.5504 -1.1899 -1.0233
    1PA     C18 4984   1.659   1.057   4.304 -0.4021  0.7355  0.6707
    1PA     H8R 4985   1.728   0.977   4.277 -1.5544 -1.2109  3.1119
    1PA     H8S 4986   1.718   1.149   4.312  1.5178 -0.3387 -0.4284
    1PA     C17 4987   1.607   1.007   4.440 -0.0168 -0.8644  0.2503
    1PA     H7R 4988   1.547   1.087   4.483  1.0739  0.8425 -1.2574
    1PA     H7S 4989   1.555   0.911   4.437 -0.0401 -0.8426 -0.0969
    1PA     C16 4990   1.729   0.990   4.532 -0.1603  0.0108  0.6151
    1PA     H6R 4991   1.771   0.902   4.483  0.3273 -0.5295  1.9554
    1PA     H6S 4992   1.801   1.071   4.533  1.2156 -1.1147 -0.9821
    1PA     C15 4993   1.685   0.929   4.666  0.3880 -0.5964  0.5229
    1PA     H5R 4994   1.609   0.994   4.708 -1.1755 -0.9507 -1.5745
    1PA     H5S 4995   1.647   0.827   4.655 -0.9309 -0.4469  3.0038
    1PA     C14 4996   1.800   0.912   4.766  0.2594  0.6774  0.8969
    1PA     H4R 4997   1.886   0.858   4.726  0.4151  1.0169  0.7737
    1PA     H4S 4998   1.833   1.011   4.798 -2.0500  2.1888 -1.0816
    1PA     C13 4999   1.749   0.832   4.887 -0.2892 -0.3698 -0.0147
    1PA     H3R 5000   1.651   0.871   4.913 -1.0815 -1.0988 -1.7619
    1PA     H3S 5001   1.732   0.728   4.857 -1.7517 -0.1443 -0.0479
    1PA     C12 5002   1.850   0.840   5.002 -0.4057  0.4464  0.0375
    1PA     H2R 5003   1.944   0.817   4.952 -0.2587  0.5581  0.2588
    1PA     H2S 5004   1.844   0.941   5.041 -0.2132  1.1041 -1.5758
    2PC     C11 5005   1.802   0.741   5.106  0.4158  0.3972  0.3780
    2PC     O12 5006   1.788   0.773   5.222  0.2976  0.1458  0.4355
    2PC     O11 5007   1.790   0.616   5.058 -0.0006  0.5069  0.1863
    2PC      C1 5008   1.761   0.512   5.154  0.2443  0.1721 -0.0995
    2PC      HR 5009   1.778   0.412   5.112 -0.0924 -0.3533  0.9832
    2PC      HS 5010   1.823   0.537   5.240  1.2899  1.4613 -1.1862
    2PC      C2 5011   1.615   0.518   5.202  0.3076 -0.4241  0.1813
    2PC      HX 5012   1.587   0.616   5.244  0.7851  0.4567 -1.4686
    2PC      C3 5013   1.588   0.420   5.317 -0.2948 -0.3875  0.0747
    2PC      HA 5014   1.502   0.359   5.288 -1.7910  2.4482 -2.0155
    2PC      HB 5015   1.677   0.358   5.329  0.8924  1.3552  0.6559
    2PC     O31 5016   1.566   0.489   5.441 -0.0761 -0.3311  0.0833
    2PC     P31 5017   1.657   0.451   5.567  0.3286  0.2047 -0.0440
    2PC     O32 5018   1.797   0.504   5.509  0.7113 -0.4885  0.2232
    2PC     C31 5019   1.817   0.645   5.533 -0.1440 -0.2664 -0.3064
    2PC     H1A 5020   1.729   0.698   5.496  0.3657  0.1124 -0.9998
    2PC     H1B 5021   1.830   0.661   5.640  0.4039 -0.1863 -0.3802
    2PC     C32 5022   1.947   0.690   5.464  0.0066  0.3400  0.3640
    2PC     H2A 5023   2.028   0.619   5.484 -1.1619 -1.7659 -1.8737
    2PC     H2B 5024   1.937   0.675   5.357 -2.1860  1.4933  0.3635
    2PC     N31 5025   1.997   0.829   5.489  0.1767  0.3513 -0.0388
    2PC     C33 5026   2.047   0.831   5.630 -0.3407 -0.1103  0.1557
    2PC     H3A 5027   2.080   0.932   5.653 -1.5382  0.2478  0.3981
    2PC     H3B 5028   1.961   0.804   5.692  1.0313 -0.8092  1.8597
    2PC     H3C 5029   2.119   0.754   5.657 -1.4847 -0.9684  0.8638
    2PC     C34 5030   2.116   0.851   5.401  0.5907 -0.5016  0.2992
    2PC     H4A 5031   2.148   0.955   5.406  0.2909 -0.4022  0.1833
    2PC     H4B 5032   2.203   0.792   5.429  2.0500 -0.2825 -3.2706
    2PC     H4C 5033   2.091   0.831   5.296  0.5384  1.7450 -0.1751
    2PC     C35 5034   1.889   0.933   5.482 -0.2802 -0.1376 -0.4023
    2PC     H5A 5035   1.817   0.916   5.561 -0.1111 -0.6505 -0.3571
    2PC     H5B 5036   1.852   0.919   5.380  0.2109  2.5176 -1.0231
    2PC     H5C 5037   1.932   1.032   5.500  0.4190 -0.7394  1.4713
    2PC     O33 5038   1.610   0.504   5.696 -0.1411 -0.0229 -0.1175
    2PC     O34 5039   1.661   0.303   5.582  0.6331  0.2072 -0.0937
    2PC     O21 5040   1.528   0.494   5.091 -0.3515  0.1712  0.5608
    2PC     C21 5041   1.465   0.596   5.029  0.2904  0.2382  0.0024
    2PC     O22 5042   1.457   0.706   5.080 -0.1433  0.2868 -0.1693
    3OL     C12 5043   1.396   0.556   4.901  0.5373 -0.1951  0.0006
    3OL     H2R 5044   1.291   0.563   4.929  0.7344  0.0353  0.6993
    3OL     H2S 5045   1.414   0.453   4.872 -1.0647  0.0811 -2.2168
    3OL     C13 5046   1.432   0.643   4.780 -0.6179  0.1757 -0.0884
    3OL     H3R 5047   1.539   0.644   4.756 -0.5304  1.5487  0.2548
    3OL     H3S 5048   1.406   0.748   4.796  1.1429  0.5441  0.6342
    3OL     C14 5049   1.347   0.611   4.657 -0.5338  0.3709 -0.1993
    3OL     H4R 5050   1.241   0.627   4.678 -0.7624 -1.3820  0.1844
    3OL     H4S 5051   1.353   0.506   4.625 -2.6526  0.4024 -0.8793
    3OL     C15 5052   1.390   0.693   4.535  0.4831 -0.5916 -0.5080
    3OL     H5R 5053   1.490   0.659   4.508  0.5457 -0.3777 -0.5452
    3OL     H5S 5054   1.400   0.800   4.553 -0.5111 -0.1507 -2.2856
    3OL     C16 5055   1.297   0.670   4.415  0.0234  0.4505 -0.3581
    3OL     H6R 5056   1.197   0.711   4.436 -0.4003 -0.0450 -1.3216
    3OL     H6S 5057   1.282   0.564   4.396  3.1183 -0.0372 -0.5919
    3OL     C17 5058   1.338   0.741   4.285 -0.0986  0.2416 -0.5122
    3OL     H7R 5059   1.373   0.843   4.301  0.5375 -0.2472  1.4702
    3OL     H7S 5060   1.257   0.748   4.213 -1.3500 -1.0539  0.7071
    3OL     C18 5061   1.463   0.674   4.227  0.1078  0.1373  0.0417
    3OL     H8R 5062   1.548   0.664   4.294  0.4334 -3.0375 -0.6618
    3OL     H8S 5063   1.502   0.733   4.144  1.6249  0.1098  0.7044
    3OL     C19 5064   1.426   0.543   4.161 -1.2532  0.2399  0.5677
    3OL     H9R 5065   1.359   0.555   4.077  0.7841  1.4969 -0.9750
    3OL    C110 5066   1.462   0.423   4.203  0.4754  0.2969 -0.6430
    3OL    H10R 5067   1.424   0.337   4.149 -2.3911  1.2443 -0.3033
    3OL    C111 5068   1.565   0.392   4.310  0.5060  0.1261 -0.7208
    3OL    H11R 5069   1.596   0.485   4.359 -1.1889  1.6790 -2.3805
    3OL    H11S 5070   1.651   0.333   4.277  0.6757 -0.2054  0.2989
    3OL    C112 5071   1.500   0.302   4.416  0.2028  0.3001 -0.7560
    3OL    H12R 5072   1.491   0.203   4.372 -1.5046  0.9738 -2.0526
    3OL    H12S 5073   1.404   0.348   4.441  0.8542  0.6938  1.2634
    3OL    C113 5074   1.586   0.303   4.543 -0.2680 -0.6665 -0.4270
    3OL    H13R 5075   1.604   0.404   4.581 -0.3494 -1.3511  1.5872
    3OL    H13S 5076   1.684   0.261   4.519 -0.4333 -2.2737  1.3969
    3OL    C114 5077   1.526   0.230   4.665  0.3059 -0.8599 -0.2571
    3OL    H14R 5078   1.517   0.122   4.652 -0.6707 -0.8403  0.1977
    3OL    H14S 5079   1.422   0.262   4.671  0.4502  0.0798 -1.9453
    3OL    C115 5080   1.597   0.265   4.797 -0.5467  0.3463 -0.1034
    3OL    H15R 5081   1.593   0.372   4.818  1.1703 -0.0085  2.4126
    3OL    H15S 5082   1.699   0.230   4.784 -1.0891 -0.8458 -1.6136
    3OL    C116 5083   1.536   0.179   4.909 -0.1341  0.1494 -0.0284
    3OL    H16R 5084   1.521   0.075   4.879 -2.6393  1.1073 -2.5506
    3OL    H16S 5085   1.437   0.219   4.933 -1.3336 -2.6736  0.1413
    3OL    C117 5086   1.613   0.177   5.041 -0.1783 -0.3050 -0.0096
    3OL    H17R 5087   1.641   0.279   5.067 -0.5009 -0.1241 -0.3818
    3OL    H17S 5088   1.705   0.120   5.024 -0.0205 -0.7068  1.8957
    3OL    C118 5089   1.532   0.106   5.150 -0.7834  0.1922 -0.1367
    3OL    H18R 5090   1.581   0.113   5.247 -0.6367  1.0796 -0.2635
    3OL    H18S 5091   1.524  -0.000   5.129 -2.8561  0.2655  0.0636
    3OL    H18T 5092   1.431   0.148   5.160 -0.3269  1.2114  0.4420
    1PA    C116 5093   5.326   3.532   4.552 -0.1832  0.1435  0.3848
    1PA    H16R 5094   5.298   3.637   4.566 -1.0757 -0.1968  1.2665
    1PA    H16S 5095   5.276   3.470   4.627 -0.0253  0.1721  0.5172
    1PA    H16T 5096   5.295   3.496   4.455  1.0580 -0.7944  0.3121
    1PA    C115 5097   5.479   3.517   4.563 -0.1662 -0.0942 -0.1597
    1PA    H15R 5098   5.534   3.580   4.494  2.2593 -0.7688  1.0511
    1PA    H15S 5099   5.507   3.556   4.661 -1.6871 -1.4692  0.8769
    1PA    C114 5100   5.519   3.369   4.564 -0.0782 -0.0704  0.3883
    1PA    H14R 5101   5.466   3.315   4.642  2.1808  1.0618  2.8570
    1PA    H14S 5102   5.503   3.321   4.467  1.9169  0.6989 -0.3805
    1PA    C113 5103   5.667   3.345   4.598 -0.0931 -0.3302  0.2700
    1PA    H13R 5104   5.680   3.236   4.600  0.0524 -0.3729 -1.5184
    1PA    H13S 5105   5.722   3.391   4.516  0.8605 -2.7287 -0.5344
    1PA    C112 5106   5.715   3.390   4.736  0.2891 -0.4101  0.1629
    1PA    H12R 5107   5.701   3.498   4.732 -1.1294 -0.6053 -0.4481
    1PA    H12S 5108   5.649   3.349   4.812 -1.5172  0.7832 -0.7054
    1PA    C111 5109   5.864   3.359   4.758  0.4021  0.1883  0.2581
    1PA    H11R 5110   5.882   3.360   4.866 -0.9042 -3.0377  0.5995
    1PA    H11S 5111   5.885   3.253   4.747  0.4622  0.3852 -1.8132
    1PA    C110 5112   5.958   3.457   4.686 -0.2243  0.9691  0.4923
    1PA    H10R 5113   5.951   3.436   4.579  0.0660 -2.1278  0.9847
    1PA    H10S 5114   5.925   3.558   4.713  0.9312  2.4013 -2.9193
    1PA     C19 5115   6.103   3.444   4.734 -0.1813 -0.3182  0.0581
    1PA     H9R 5116   6.111   3.459   4.842  1.5306 -1.0921  0.0754
    1PA     H9S 5117   6.131   3.340   4.719 -1.0593 -0.1960 -3.2340
    1PA     C18 5118   6.200   3.531   4.653 -0.3983  0.2516  0.4009
    1PA     H8R 5119   6.221   3.483   4.557 -1.7868 -1.6993  1.0052
    1PA     H8S 5120   6.160   3.630   4.629 -3.5064 -1.1509 -0.7276
    1PA     C17 5121   6.338   3.529   4.720 -0.3445 -0.5288  0.2805
    1PA     H7R 5122   6.362   3.424   4.737 -4.1739 -1.3945  1.2601
    1PA     H7S 5123   6.404   3.578   4.648 -1.7200 -1.7713 -1.9273
    1PA     C16 5124   6.343   3.608   4.852 -0.5033  0.0884 -0.0772
    1PA     H6R 5125   6.331   3.715   4.831 -0.1754  0.3531  1.0206
    1PA     H6S 5126   6.266   3.572   4.920  0.4085  0.5609  1.2438
    1PA     C15 5127   6.473   3.592   4.932 -0.5278  0.0765 -0.0392
    1PA     H5R 5128   6.450   3.607   5.038 -2.4262 -1.3712 -0.1902
    1PA     H5S 5129   6.511   3.490   4.921 -2.2179 -0.7996  1.7273
    1PA     C14 5130   6.582   3.690   4.886  0.1129 -0.4433  0.3558
    1PA     H4R 5131   6.591   3.682   4.778 -0.5870 -1.1563  0.3445
    1PA     H4S 5132   6.554   3.794   4.904 -0.5105 -0.4546 -0.5117
    1PA     C13 5133   6.708   3.674   4.974  0.0338 -0.2528  0.5046
    1PA     H3R 5134   6.731   3.572   5.004 -0.6915 -0.3020  0.9148
    1PA     H3S 5135   6.787   3.701   4.903 -1.0184 -3.6445 -2.2642
    1PA     C12 5136   6.708   3.760   5.101  0.0388  0.2227  0.1855
    1PA     H2R 5137   6.691   3.865   5.075 -4.3749 -0.2196  0.5708
    1PA     H2S 5138   6.626   3.725   5.163  0.3925 -0.5953  0.2086
    2PC     C11 5139   6.835   3.753   5.182 -0.0132 -0.5782  0.2098
    2PC     O12 5140   6.836   3.766   5.303  0.6228  0.0720  0.1444
    2PC     O11 5141   6.937   3.718   5.102  0.0396 -0.1854  0.1002
    2PC      C1 5142   7.067   3.703   5.161  0.0467 -0.3998  0.0304
    2PC      HR 5143   7.134   3.703   5.074 -2.1296  0.8487 -1.7400
    2PC      HS 5144   7.088   3.782   5.233  0.0664  0.7212 -1.1662
    2PC      C2 5145   7.073   3.568   5.234 -0.2203 -0.1663  0.4804
    2PC      HX 5146   6.978   3.552   5.286 -0.4769  0.1255  0.1043
    2PC      C3 5147   7.180   3.574   5.345  0.1737 -0.4296  0.1170
    2PC      HA 5148   7.278   3.573   5.296  0.2199  1.7081  0.0566
    2PC      HB 5149   7.172   3.669   5.399  3.1860 -0.3630  0.6083
    2PC     O31 5150   7.154   3.474   5.445 -0.3368 -0.4067  0.0134
    2PC     P31 5151   7.268   3.455   5.556  0.0647 -0.0712 -0.3350
    2PC     O32 5152   7.173   3.375   5.658  0.0535  0.3198 -0.0393
    2PC     C31 5153   7.081   3.272   5.619  0.2075  0.0085  0.4162
    2PC     H1A 5154   6.993   3.311   5.568  0.1500 -0.9151 -0.2068
    2PC     H1B 5155   7.116   3.199   5.546 -0.7748  0.3022 -0.3790
    2PC     C32 5156   7.038   3.203   5.750  0.0368  0.0987  0.4089
    2PC     H2A 5157   6.990   3.109   5.722  1.9815 -0.9569  0.3949
    2PC     H2B 5158   7.119   3.169   5.815  0.5701  0.7577  0.1026
    2PC     N31 5159   6.956   3.275   5.853 -0.4905  0.1981 -0.0742
    2PC     C33 5160   6.817   3.293   5.802 -0.3154 -0.4132 -0.8018
    2PC     H3A 5161   6.824   3.374   5.728 -0.2612 -0.9116 -1.3461
    2PC     H3B 5162   6.782   3.203   5.752 -1.2773 -1.7643  2.0924
    2PC     H3C 5163   6.746   3.316   5.882  0.0567  1.2467 -0.9159
    2PC     C34 5164   6.948   3.178   5.967 -0.4447  0.6265  0.2946
    2PC     H4A 5165   6.917   3.079   5.931  1.2992  0.6107 -1.3527
    2PC     H4B 5166   7.046   3.172   6.015 -1.3988  0.7389  2.3260
    2PC     H4C 5167   6.873   3.213   6.037 -2.3350 -2.4996  0.0280
    2PC     C35 5168   7.018   3.398   5.911  0.2767 -0.1177 -0.2011
    2PC     H5A 5169   7.127   3.390   5.912  0.3048  0.0975 -0.8352
    2PC     H5B 5170   6.982   3.393   6.014 -1.6321 -0.8106 -0.8535
    2PC     H5C 5171   6.981   3.482   5.852 -0.7342 -1.4485 -1.5447
    2PC     O33 5172   7.385   3.371   5.520  0.1597  0.0022 -0.1991
    2PC     O34 5173   7.323   3.579   5.614 -0.7662  0.0087  0.2979
    2PC     O21 5174   7.102   3.466   5.137 -0.3367  0.6928 -0.4766
    2PC     C21 5175   7.001   3.394   5.085  0.1777 -0.4733  0.0888
    2PC     O22 5176   6.888   3.384   5.128 -0.0680  0.7086 -0.2235
    3OL     C12 5177   7.048   3.305   4.973  0.3646  0.1053 -0.3038
    3OL     H2R 5178   7.012   3.202   4.987  2.5158 -0.7389 -0.6626
    3OL     H2S 5179   7.156   3.303   4.984  0.1931 -0.6425  1.7115
    3OL     C13 5180   7.009   3.358   4.834  0.1361  0.1105 -0.2381
    3OL     H3R 5181   7.075   3.307   4.764  1.8929  1.3655  0.4146
    3OL     H3S 5182   7.020   3.466   4.827 -0.6202  0.2392  0.3597
    3OL     C14 5183   6.863   3.328   4.799  0.1360 -0.2523  0.0639
    3OL     H4R 5184   6.796   3.372   4.875  0.9837  0.8853  0.1823
    3OL     H4S 5185   6.845   3.222   4.785  0.3683 -0.7140  2.6377
    3OL     C15 5186   6.832   3.399   4.667 -0.2650  0.4753  0.5400
    3OL     H5R 5187   6.903   3.374   4.588  2.0311  0.7515  2.4294
    3OL     H5S 5188   6.835   3.506   4.690 -0.0872  1.0030 -1.7122
    3OL     C16 5189   6.689   3.374   4.616  0.0749  0.0716 -0.2371
    3OL     H6R 5190   6.622   3.414   4.693 -0.4918 -0.3999 -0.4766
    3OL     H6S 5191   6.675   3.267   4.603  1.9117 -0.0963 -1.1288
    3OL     C17 5192   6.654   3.459   4.493  0.4203 -0.4853 -0.7197
    3OL     H7R 5193   6.738   3.449   4.423 -0.9385  0.5952 -2.5914
    3OL     H7S 5194   6.653   3.566   4.514  0.4776  0.0786 -3.2652
    3OL     C18 5195   6.524   3.419   4.423 -0.2635  0.2429  0.1173
    3OL     H8R 5196   6.460   3.388   4.505  0.9215 -2.1033  0.2276
    3OL     H8S 5197   6.544   3.331   4.362 -0.9542  0.5421 -0.5676
    3OL     C19 5198   6.468   3.530   4.337 -0.7262 -0.1284 -0.0626
    3OL     H9R 5199   6.406   3.597   4.395 -0.5031 -0.5301  0.6500
    3OL    C110 5200   6.481   3.534   4.205  0.3124  0.0923  0.0392
    3OL    H10R 5201   6.428   3.609   4.146 -3.4485 -2.2401  0.1114
    3OL    C111 5202   6.562   3.441   4.118 -0.3084 -0.3541 -0.0710
    3OL    H11R 5203   6.661   3.431   4.162 -0.3320  1.2609  0.4118
    3OL    H11S 5204   6.573   3.497   4.025 -1.0797  1.0978  0.6737
    3OL    C112 5205   6.508   3.300   4.091  0.4723 -0.8194  0.7373
    3OL    H12R 5206   6.519   3.231   4.175  2.0430 -2.6829 -0.9045
    3OL    H12S 5207   6.564   3.257   4.008 -0.1704 -1.1851  0.4857
    3OL    C113 5208   6.365   3.295   4.036  0.7272  0.5081 -0.1030
    3OL    H13R 5209   6.315   3.388   4.064  0.4412  0.2441  0.2939
    3OL    H13S 5210   6.308   3.212   4.079  0.5761  0.4993 -0.3184
    3OL    C114 5211   6.376   3.281   3.884 -0.7780 -0.0603 -0.1830
    3OL    H14R 5212   6.430   3.187   3.868 -2.7749 -1.1544 -0.8496
    3OL    H14S 5213   6.433   3.366   3.845  1.8429 -2.2421 -1.4432
    3OL    C115 5214   6.237   3.261   3.824 -0.7532 -0.5737 -0.0742
    3OL    H15R 5215   6.167   3.199   3.881 -1.5877  0.9007  0.5550
    3OL    H15S 5216   6.246   3.201   3.733  0.6576 -3.5010  1.8392
    3OL    C116 5217   6.158   3.392   3.806  0.0200 -0.0612  0.2540
    3OL    H16R 5218   6.232   3.464   3.771 -0.1423 -0.1723 -0.3253
    3OL    H16S 5219   6.100   3.432   3.889 -2.0653 -1.5916 -0.3877
    3OL    C117 5220   6.052   3.390   3.695  0.0442  0.4974  0.2187
    3OL    H17R 5221   6.088   3.325   3.615  0.2734  1.8854 -0.8490
    3OL    H17S 5222   6.049   3.489   3.649 -0.7116  1.1105  1.5348
    3OL    C118 5223   5.915   3.360   3.759 -0.0194 -0.9283 -0.5502
    3OL    H18R 5224   5.830   3.336   3.695  0.3846  0.7348 -1.7873
    3OL    H18S 5225   5.886   3.442   3.824 -0.3713 -2.3266  1.1065
    3OL    H18T 5226   5.930   3.271   3.821  0.4772 -1.0949 -0.9005
    1PA    C116 5227   4.253   3.045   3.732 -0.4597  0.0307 -0.0089
    1PA    H16R 5228   4.176   3.092   3.793 -1.6712 -2.6555  0.6700
    1PA    H16S 5229   4.242   3.086   3.632 -2.8498  0.9493  0.5596
    1PA    H16T 5230   4.354   3.064   3.768  0.3875  0.1559 -2.2805
    1PA    C115 5231   4.228   2.894   3.725 -0.5523  0.0448  0.0112
    1PA    H15R 5232   4.136   2.874   3.669 -1.5213  0.1821  1.4921
    1PA    H15S 5233   4.312   2.854   3.668 -0.8340 -0.8660  0.2201
    1PA    C114 5234   4.218   2.832   3.865 -0.0246  0.1706  0.1064
    1PA    H14R 5235   4.300   2.876   3.922  1.4570 -0.9068 -1.0870
    1PA    H14S 5236   4.122   2.874   3.894 -0.0604  0.1360  0.0393
    1PA    C113 5237   4.219   2.678   3.871  0.2161  0.1857  0.4666
    1PA    H13R 5238   4.155   2.648   3.788 -0.4558 -1.8724  1.6613
    1PA    H13S 5239   4.317   2.642   3.839 -0.1929 -0.8160  0.3121
    1PA    C112 5240   4.174   2.634   4.011  0.0222 -0.1580  0.2953
    1PA    H12R 5241   4.229   2.679   4.093  0.2928  0.8800 -0.4465
    1PA    H12S 5242   4.071   2.670   4.013 -0.0752 -0.1839 -1.9466
    1PA    C111 5243   4.171   2.480   4.016 -0.0366 -0.1583  0.2438
    1PA    H11R 5244   4.115   2.458   3.924 -0.4505  1.7939 -0.0193
    1PA    H11S 5245   4.276   2.449   4.012 -0.6934 -2.5117 -2.1197
    1PA    C110 5246   4.097   2.422   4.137 -0.5528 -0.6922 -0.3254
    1PA    H10R 5247   3.999   2.471   4.146 -0.5086 -0.8760  1.4076
    1PA    H10S 5248   4.056   2.321   4.124 -0.6624 -0.6833 -0.0549
    1PA     C19 5249   4.188   2.435   4.259 -0.5050  0.4432 -0.4779
    1PA     H9R 5250   4.289   2.400   4.237 -0.3911  0.4053  0.0722
    1PA     H9S 5251   4.186   2.541   4.285 -1.1840  0.6075 -1.1474
    1PA     C18 5252   4.115   2.369   4.377  0.4832 -0.2945 -0.2716
    1PA     H8R 5253   4.013   2.406   4.385  0.3548 -0.9323  1.6205
    1PA     H8S 5254   4.114   2.262   4.354  3.8732 -0.4965  0.0228
    1PA     C17 5255   4.191   2.391   4.509  0.1638  0.3137 -0.1839
    1PA     H7R 5256   4.281   2.329   4.502  0.3491  0.7487 -3.9376
    1PA     H7S 5257   4.232   2.491   4.524  1.6654 -0.3376  0.2817
    1PA     C16 5258   4.111   2.352   4.634 -0.1509 -0.0715 -0.5000
    1PA     H6R 5259   4.024   2.416   4.649 -0.7779 -1.2756  1.2741
    1PA     H6S 5260   4.073   2.251   4.619 -1.6057  0.2326  0.8100
    1PA     C15 5261   4.193   2.360   4.763 -0.5201 -0.4399 -0.2404
    1PA     H5R 5262   4.276   2.289   4.761  0.0302  0.2088 -1.1027
    1PA     H5S 5263   4.239   2.458   4.778  0.8479 -0.7799 -1.9340
    1PA     C14 5264   4.100   2.335   4.883 -0.2069 -0.9675 -0.1049
    1PA     H4R 5265   4.008   2.394   4.876  1.2885  1.8903  2.1775
    1PA     H4S 5266   4.066   2.231   4.881  1.8183 -1.7098  1.0202
    1PA     C13 5267   4.175   2.350   5.016 -0.1413  0.2714 -0.2705
    1PA     H3R 5268   4.269   2.295   5.022  0.4538  1.0963 -1.5387
    1PA     H3S 5269   4.194   2.455   5.041  0.8221 -0.2784  1.4353
    1PA     C12 5270   4.079   2.297   5.123  0.3746  0.1178  0.1234
    1PA     H2R 5271   3.985   2.353   5.129 -1.0377 -2.2909  2.3247
    1PA     H2S 5272   4.049   2.193   5.108 -0.0408 -0.3565  3.5423
    2PC     C11 5273   4.136   2.318   5.261  0.4903 -0.0376  0.0987
    2PC     O12 5274   4.133   2.226   5.340 -0.5077  0.4154  0.5972
    2PC     O11 5275   4.203   2.434   5.280  0.0755  0.2876 -0.3887
    2PC      C1 5276   4.273   2.456   5.404 -0.1716 -0.1402 -0.1695
    2PC      HR 5277   4.304   2.560   5.394  0.7127 -0.4592 -0.8527
    2PC      HS 5278   4.220   2.447   5.499  1.6777 -0.6299  0.8508
    2PC      C2 5279   4.399   2.371   5.422  0.0897  0.1919 -0.4297
    2PC      HX 5280   4.374   2.265   5.428 -1.2902  0.5280  0.0023
    2PC      C3 5281   4.453   2.403   5.563 -0.0029 -0.0358 -0.3421
    2PC      HA 5282   4.378   2.380   5.639  0.6903  0.7633  0.6012
    2PC      HB 5283   4.545   2.344   5.573 -0.8435 -1.4230 -0.5108
    2PC     O31 5284   4.490   2.542   5.567 -0.0884 -0.0263  0.1193
    2PC     P31 5285   4.474   2.633   5.698  0.0355 -0.0946  0.1821
    2PC     O32 5286   4.580   2.544   5.779  0.6652  0.2911 -0.2196
    2PC     C31 5287   4.717   2.547   5.733  0.3334 -0.1506 -1.2637
    2PC     H1A 5288   4.716   2.475   5.651 -0.3761 -0.1828 -1.2402
    2PC     H1B 5289   4.758   2.645   5.708  0.9513 -0.2268 -0.5710
    2PC     C32 5290   4.803   2.478   5.840 -0.4352 -0.0424 -0.5667
    2PC     H2A 5291   4.759   2.381   5.860 -0.9252 -0.0404 -1.5601
    2PC     H2B 5292   4.905   2.469   5.803 -0.1891  0.2228  0.0338
    2PC     N31 5293   4.809   2.549   5.972  0.4639  0.1094 -0.6844
    2PC     C33 5294   4.894   2.471   6.068 -0.0970 -0.3116 -0.5250
    2PC     H3A 5295   4.913   2.523   6.162 -1.2883 -1.8199  0.6044
    2PC     H3B 5296   4.841   2.377   6.086  1.0592 -0.8437  0.1992
    2PC     H3C 5297   4.991   2.447   6.025  0.2633 -0.1164  0.1709
    2PC     C34 5298   4.876   2.682   5.955  0.2514  0.2709 -0.2949
    2PC     H4A 5299   4.969   2.669   5.898  0.2981 -0.2830 -0.0996
    2PC     H4B 5300   4.800   2.741   5.903 -0.1756  1.7464  1.8851
    2PC     H4C 5301   4.898   2.722   6.053 -1.0287  1.0707 -0.3193
    2PC     C35 5302   4.678   2.573   6.040  0.7161  0.4380 -0.3065
    2PC     H5A 5303   4.626   2.650   5.982 -1.2179  0.7961  1.7674
    2PC     H5B 5304   4.693   2.595   6.146  1.2883 -2.0888  0.2057
    2PC     H5C 5305   4.625   2.479   6.023 -0.4348  1.0966 -0.5174
    2PC     O33 5306   4.529   2.770   5.701  0.0386 -0.0977  0.2971
    2PC     O34 5307   4.341   2.643   5.763 -0.1749  0.1647 -0.2857
    2PC     O21 5308   4.499   2.410   5.326  0.3156 -0.0044 -0.2742
    2PC     C21 5309   4.510   2.332   5.217  0.5025 -0.4423  0.0513
    2PC     O22 5310   4.436   2.241   5.188  0.1546 -0.2342  0.2899
    3OL     C12 5311   4.611   2.386   5.118  0.0689 -0.0494 -0.1804
    3OL     H2R 5312   4.711   2.348   5.139  0.4491  0.9399 -0.1528
    3OL     H2S 5313   4.625   2.494   5.129 -1.9317  0.3918 -1.4572
    3OL     C13 5314   4.579   2.348   4.973 -0.1088 -0.0508 -0.1415
    3OL     H3R 5315   4.473   2.367   4.958  0.5176  2.5931 -1.7412
    3OL     H3S 5316   4.595   2.240   4.960  1.3131  0.2366 -1.0570
    3OL     C14 5317   4.641   2.436   4.864 -0.2959  0.0404 -0.1733
    3OL     H4R 5318   4.749   2.425   4.876 -0.2705 -0.6366 -0.9649
    3OL     H4S 5319   4.610   2.537   4.893  0.4545  0.4868 -0.9017
    3OL     C15 5320   4.583   2.399   4.727 -0.6308  0.6737 -0.2057
    3OL     H5R 5321   4.475   2.386   4.740 -0.3471 -0.9544  0.7998
    3OL     H5S 5322   4.617   2.296   4.713 -1.7592 -0.0338  1.8125
    3OL     C16 5323   4.636   2.493   4.618  0.1060 -0.1235 -0.5432
    3OL     H6R 5324   4.745   2.484   4.619  0.2497  0.9970  1.8375
    3OL     H6S 5325   4.602   2.596   4.629 -1.6220 -0.6072 -1.0790
    3OL     C17 5326   4.582   2.452   4.481  0.4988 -0.5226 -0.5781
    3OL     H7R 5327   4.478   2.483   4.482  1.1292  1.7309 -0.3460
    3OL     H7S 5328   4.584   2.344   4.460 -2.0419 -0.8554  0.5882
    3OL     C18 5329   4.641   2.539   4.369  0.0755  0.3245 -0.1524
    3OL     H8R 5330   4.744   2.503   4.358 -0.3680 -0.9073 -0.4440
    3OL     H8S 5331   4.644   2.646   4.389 -0.0330  0.1210  1.0330
    3OL     C19 5332   4.577   2.498   4.239 -0.0890 -0.4222  0.1589
    3OL     H9R 5333   4.585   2.392   4.213  0.8747  0.0603 -1.7082
    3OL    C110 5334   4.540   2.578   4.140 -0.5688 -0.0138  0.6603
    3OL    H10R 5335   4.510   2.542   4.042  0.4471  0.0759  0.2970
    3OL    C111 5336   4.563   2.727   4.142 -0.1215 -0.0652 -0.0962
    3OL    H11R 5337   4.640   2.757   4.213  1.6235 -2.5748 -0.8073
    3OL    H11S 5338   4.469   2.780   4.161 -1.3545 -1.5523 -1.6544
    3OL    C112 5339   4.619   2.775   4.007 -0.1712 -0.0822 -0.1225
    3OL    H12R 5340   4.560   2.731   3.926  0.8447 -1.5240 -0.1331
    3OL    H12S 5341   4.721   2.747   3.983  0.3953  1.1906  0.7364
    3OL    C113 5342   4.628   2.928   4.002  0.6573 -0.1313 -0.1403
    3OL    H13R 5343   4.694   2.964   4.081  1.7407 -1.1415 -0.5437
    3OL    H13S 5344   4.528   2.966   4.018  1.5750  2.7610 -0.7738
    3OL    C114 5345   4.671   2.973   3.862 -0.0419  0.1364 -0.2690
    3OL    H14R 5346   4.596   2.932   3.793 -1.9126 -1.0245  2.3040
    3OL    H14S 5347   4.770   2.938   3.833  0.0831  0.9564 -0.8624
    3OL    C115 5348   4.678   3.125   3.843 -0.2126  0.2265  0.3604
    3OL    H15R 5349   4.755   3.161   3.912  0.2177 -0.3821  0.2088
    3OL    H15S 5350   4.577   3.160   3.862 -0.6826 -1.4362  1.1317
    3OL    C116 5351   4.721   3.152   3.698 -0.3052 -0.3828  0.2145
    3OL    H16R 5352   4.637   3.110   3.642 -1.4851 -1.3942  2.5853
    3OL    H16S 5353   4.817   3.107   3.674 -1.2447 -1.3677 -1.9326
    3OL    C117 5354   4.728   3.303   3.668  0.3958 -0.3198  0.6890
    3OL    H17R 5355   4.818   3.342   3.716  0.2452  1.0305 -0.0788
    3OL    H17S 5356   4.641   3.363   3.696 -0.5994  0.1502 -2.9917
    3OL    C118 5357   4.742   3.327   3.517 -1.0770  0.0214  0.5905
    3OL    H18R 5358   4.820   3.261   3.478 -1.3687 -0.2429  0.4524
    3OL    H18S 5359   4.765   3.432   3.501 -1.6599  0.5629  2.9444
    3OL    H18T 5360   4.647   3.310   3.467  0.0287  0.9379 -1.9894
    1PA    C116 5361   4.729   4.267   3.967 -0.4115 -0.0528 -0.7800
    1PA    H16R 5362   4.747   4.272   4.074 -2.0865  0.9597 -0.5039
    1PA    H16S 5363   4.691   4.364   3.936  0.7490  0.5089 -0.4926
    1PA    H16T 5364   4.818   4.263   3.904 -0.8100 -0.0160 -1.3538
    1PA    C115 5365   4.630   4.153   3.940 -0.5179 -0.1058 -0.1750
    1PA    H15R 5366   4.534   4.205   3.949 -1.3142 -0.8799 -3.0620
    1PA    H15S 5367   4.647   4.128   3.835 -1.4217  1.2524 -0.6610
    1PA    C114 5368   4.664   4.034   4.031 -0.6864  0.5289  0.7303
    1PA    H14R 5369   4.764   3.996   4.014 -0.8780  0.2987  0.1030
    1PA    H14S 5370   4.669   4.056   4.138 -1.3913 -0.9862  1.0989
    1PA    C113 5371   4.574   3.912   4.002  0.2860  0.0301 -0.2574
    1PA    H13R 5372   4.480   3.947   3.960  0.6319  3.0135  1.1520
    1PA    H13S 5373   4.610   3.847   3.922 -3.4656 -0.0515 -2.0933
    1PA    C112 5374   4.554   3.827   4.128  0.2513 -0.1568 -0.3883
    1PA    H12R 5375   4.651   3.796   4.166  1.2265  3.2749  0.3481
    1PA    H12S 5376   4.509   3.883   4.211 -0.1973 -2.9709  1.3930
    1PA    C111 5377   4.470   3.701   4.104  0.6746 -0.4958 -0.1091
    1PA    H11R 5378   4.503   3.653   4.011  0.7342 -0.9267  0.1328
    1PA    H11S 5379   4.480   3.628   4.184  1.1324  0.3330  0.6120
    1PA    C110 5380   4.321   3.735   4.092  0.6635 -0.5489 -0.1161
    1PA    H10R 5381   4.313   3.827   4.035  3.0142  0.1341  0.5809
    1PA    H10S 5382   4.269   3.652   4.044  0.0333  0.0075 -0.4141
    1PA     C19 5383   4.267   3.766   4.232 -0.4094 -0.7697 -0.4654
    1PA     H9R 5384   4.270   3.678   4.298 -0.5504 -0.1545  0.3735
    1PA     H9S 5385   4.328   3.843   4.279 -0.9551 -0.4056 -0.3469
    1PA     C18 5386   4.118   3.802   4.228 -0.3279 -0.3570  0.1108
    1PA     H8R 5387   4.113   3.904   4.189  2.1512  0.4276  1.6146
    1PA     H8S 5388   4.064   3.731   4.165 -3.0029  0.0438  1.7988
    1PA     C17 5389   4.074   3.797   4.375 -0.4599 -0.0685  0.0812
    1PA     H7R 5390   4.097   3.701   4.422  1.1656  0.3950  0.2765
    1PA     H7S 5391   4.134   3.864   4.437  0.7827 -2.1257  1.1969
    1PA     C16 5392   3.924   3.828   4.379 -0.4910 -0.2073 -0.0047
    1PA     H6R 5393   3.897   3.920   4.327 -0.9776  2.0128  3.7880
    1PA     H6S 5394   3.880   3.746   4.321  1.1539 -0.8760 -0.3485
    1PA     C15 5395   3.871   3.848   4.522 -0.2308  0.0528  0.0545
    1PA     H5R 5396   3.936   3.927   4.561 -1.5190  0.7863  0.7926
    1PA     H5S 5397   3.773   3.896   4.519 -0.8679 -0.9943  2.4267
    1PA     C14 5398   3.854   3.725   4.611  0.3832  0.1716  0.3393
    1PA     H4R 5399   3.792   3.652   4.560 -1.6911  0.3945  2.3591
    1PA     H4S 5400   3.949   3.678   4.637  0.0844 -0.2314  0.7230
    1PA     C13 5401   3.796   3.755   4.750  0.6981  0.3212  0.4398
    1PA     H3R 5402   3.868   3.827   4.790 -2.0572  1.2418  4.3585
    1PA     H3S 5403   3.695   3.797   4.746  0.4721  0.1429  2.7344
    1PA     C12 5404   3.796   3.637   4.848  0.3564  0.2609  0.3662
    1PA     H2R 5405   3.709   3.572   4.834  1.7473 -2.2499  2.5839
    1PA     H2S 5406   3.881   3.569   4.841  0.3278 -0.2687  3.4169
    2PC     C11 5407   3.785   3.690   4.989 -0.1212 -0.1696  0.4937
    2PC     O12 5408   3.709   3.777   5.025  0.3916  0.3517  0.3213
    2PC     O11 5409   3.883   3.632   5.060  0.2095  0.0074  0.1859
    2PC      C1 5410   3.913   3.677   5.194  0.3742  0.0061  0.1505
    2PC      HR 5411   3.998   3.617   5.228  1.4288  1.1216 -0.4776
    2PC      HS 5412   3.940   3.782   5.189 -1.5115  0.6001  1.3273
    2PC      C2 5413   3.797   3.657   5.292 -0.3172  0.1879 -0.6145
    2PC      HX 5414   3.718   3.717   5.246  2.0008  0.9920 -3.8765
    2PC      C3 5415   3.831   3.713   5.431  0.0245 -0.8041 -0.2882
    2PC      HA 5416   3.927   3.677   5.469 -0.0363 -2.5837 -1.6794
    2PC      HB 5417   3.830   3.822   5.421 -1.6032 -0.9195 -1.9559
    2PC     O31 5418   3.726   3.678   5.522  0.1770 -0.2866  0.0888
    2PC     P31 5419   3.726   3.727   5.675  0.2173 -0.0567  0.0165
    2PC     O32 5420   3.606   3.833   5.674  0.2155 -0.0577  0.1212
    2PC     C31 5421   3.615   3.952   5.755 -0.5284  0.1573 -0.1056
    2PC     H1A 5422   3.513   3.990   5.762 -0.5781  0.1817 -0.8763
    2PC     H1B 5423   3.659   3.938   5.853 -0.7904  1.2672  0.1804
    2PC     C32 5424   3.703   4.050   5.676  0.2054 -0.1525  0.3254
    2PC     H2A 5425   3.785   3.993   5.630  1.9858  1.9802  0.6894
    2PC     H2B 5426   3.643   4.105   5.604 -0.5553 -1.7238 -0.2781
    2PC     N31 5427   3.774   4.152   5.760  0.0456  0.2204  0.0071
    2PC     C33 5428   3.824   4.267   5.678 -0.5189  0.4147 -0.0709
    2PC     H3A 5429   3.900   4.228   5.610  1.3862  1.2505  1.4824
    2PC     H3B 5430   3.746   4.320   5.623  2.0546  2.2107 -2.2833
    2PC     H3C 5431   3.865   4.348   5.738  0.5920  1.1699 -1.7569
    2PC     C34 5432   3.681   4.207   5.865  0.0245 -0.0576  0.1346
    2PC     H4A 5433   3.714   4.300   5.911 -1.6547 -0.6868  2.8118
    2PC     H4B 5434   3.582   4.222   5.822 -1.4785 -2.2041  2.5832
    2PC     H4C 5435   3.656   4.136   5.944  3.0145 -0.1529  1.1289
    2PC     C35 5436   3.900   4.096   5.818 -0.1088  0.3595  0.4873
    2PC     H5A 5437   3.987   4.123   5.758  0.1754 -2.4055 -0.5170
    2PC     H5B 5438   3.890   3.988   5.806 -1.2335  0.5425 -0.3670
    2PC     H5C 5439   3.910   4.125   5.922 -1.3422  3.2810 -0.0917
    2PC     O33 5440   3.709   3.615   5.771  0.0251  0.2233  0.3099
    2PC     O34 5441   3.858   3.789   5.699 -0.0029  0.4346 -0.0311
    2PC     O21 5442   3.750   3.521   5.298  0.2806  0.0222  0.5445
    2PC     C21 5443   3.809   3.426   5.373  0.3481 -0.2624  0.1313
    2PC     O22 5444   3.919   3.439   5.422  0.4341  0.3699 -0.2242
    3OL     C12 5445   3.744   3.290   5.368  0.0950 -0.1280 -0.2987
    3OL     H2R 5446   3.651   3.281   5.424 -0.1283  1.3135 -0.3970
    3OL     H2S 5447   3.810   3.217   5.416 -1.2720 -1.8578 -0.9366
    3OL     C13 5448   3.701   3.251   5.225 -0.3582 -0.5931 -0.0421
    3OL     H3R 5449   3.779   3.280   5.154 -0.6662  0.8401  0.1636
    3OL     H3S 5450   3.608   3.302   5.199 -0.4828 -1.6377 -1.7396
    3OL     C14 5451   3.679   3.101   5.202 -0.1432 -0.6742  0.2603
    3OL     H4R 5452   3.598   3.066   5.267  0.8199 -1.1744  1.2129
    3OL     H4S 5453   3.765   3.049   5.243  0.4013 -0.1583 -0.1977
    3OL     C15 5454   3.654   3.075   5.053  0.5310 -0.5432  0.1202
    3OL     H5R 5455   3.595   3.154   5.004  0.1651 -0.6540  0.3821
    3OL     H5S 5456   3.584   2.991   5.049  0.2061 -0.2443 -1.8755
    3OL     C16 5457   3.780   3.044   4.971  0.5698 -0.2081  0.0516
    3OL     H6R 5458   3.835   2.963   5.019 -0.6298 -2.6018 -2.3768
    3OL     H6S 5459   3.849   3.129   4.968 -0.1959  0.4481  0.3157
    3OL     C17 5460   3.741   2.994   4.831  0.0666  0.7886 -0.1749
    3OL     H7R 5461   3.635   2.969   4.827 -0.2663  1.9764  0.5601
    3OL     H7S 5462   3.795   2.901   4.815 -0.6852 -0.0742  1.9321
    3OL     C18 5463   3.776   3.092   4.718  0.4039  0.1776 -0.6029
    3OL     H8R 5464   3.722   3.046   4.635 -0.4113 -1.3743  0.7239
    3OL     H8S 5465   3.885   3.089   4.706  0.1997  0.3516 -2.9669
    3OL     C19 5466   3.725   3.231   4.744  0.2205 -0.0778  0.4445
    3OL     H9R 5467   3.698   3.261   4.845  0.4509  0.8964  0.2283
    3OL    C110 5468   3.726   3.321   4.647 -0.0726 -0.7304 -0.1739
    3OL    H10R 5469   3.698   3.422   4.678  1.1088 -0.6580  0.7148
    3OL    C111 5470   3.751   3.308   4.499 -0.0321  0.4587 -0.2861
    3OL    H11R 5471   3.719   3.401   4.451 -0.0058 -0.0903 -1.4064
    3OL    H11S 5472   3.704   3.218   4.459 -0.0439 -0.6652  2.0541
    3OL    C112 5473   3.900   3.309   4.462 -0.0303 -0.4882 -0.3300
    3OL    H12R 5474   3.959   3.230   4.509 -0.5089 -0.9921 -0.5689
    3OL    H12S 5475   3.949   3.397   4.503  1.5086 -1.3400 -0.2660
    3OL    C113 5476   3.915   3.317   4.309  0.2174  0.4854 -0.2560
    3OL    H13R 5477   4.017   3.348   4.285  1.7933 -1.0015  3.6337
    3OL    H13S 5478   3.841   3.384   4.266  0.5057  0.9246 -0.0867
    3OL    C114 5479   3.894   3.179   4.248 -0.3861  0.3587  0.2321
    3OL    H14R 5480   3.798   3.136   4.277  0.2799 -1.0340  0.4542
    3OL    H14S 5481   3.970   3.106   4.278 -0.0233 -0.0507 -1.5407
    3OL    C115 5482   3.892   3.177   4.094  0.3957 -0.4038  0.2210
    3OL    H15R 5483   3.982   3.227   4.058  0.8943 -0.8486  0.8260
    3OL    H15S 5484   3.795   3.221   4.067 -0.2818 -0.9888  1.6050
    3OL    C116 5485   3.896   3.034   4.039  0.3758 -0.3202 -0.0008
    3OL    H16R 5486   3.830   2.965   4.093  0.6558  0.0613  0.8571
    3OL    H16S 5487   4.002   3.011   4.054  1.0147  1.9510 -0.6225
    3OL    C117 5488   3.856   3.018   3.892  0.4813 -1.2338  0.0657
    3OL    H17R 5489   3.884   2.916   3.863  1.0611 -0.6981 -1.3237
    3OL    H17S 5490   3.930   3.082   3.843  0.4274  0.6184  2.2302
    3OL    C118 5491   3.709   3.054   3.867  0.6695 -0.3703  0.1737
    3OL    H18R 5492   3.681   3.134   3.935  0.5339 -2.1307  2.3072
    3OL    H18S 5493   3.649   2.970   3.902 -0.0107 -0.1875 -0.5277
    3OL    H18T 5494   3.690   3.082   3.763 -0.3640 -0.0882  0.4350
    1PA    C116 5495   5.554   3.222   4.170  0.3005  0.1742 -0.3326
    1PA    H16R 5496   5.556   3.176   4.269  0.4512  0.2513 -0.2991
    1PA    H16S 5497   5.470   3.179   4.115 -0.4159 -0.1069  0.9463
    1PA    H16T 5498   5.544   3.330   4.175  2.8522  0.5138 -1.1440
    1PA    C115 5499   5.678   3.195   4.083  0.2961 -0.1142 -0.2513
    1PA    H15R 5500   5.657   3.098   4.038 -0.6738  0.5709 -1.3097
    1PA    H15S 5501   5.680   3.257   3.994 -1.1255  0.5523  0.1602
    1PA    C114 5502   5.809   3.214   4.162 -0.1026  0.1647  0.3508
    1PA    H14R 5503   5.881   3.239   4.084 -1.8980  0.7196 -1.2259
    1PA    H14S 5504   5.794   3.301   4.227  0.6288 -0.4874  1.4199
    1PA    C113 5505   5.850   3.091   4.244  0.0058  0.1075  0.2103
    1PA    H13R 5506   5.757   3.049   4.281 -0.1337  2.3114  2.6560
    1PA    H13S 5507   5.888   3.020   4.170  0.6334  2.0850 -1.4861
    1PA    C112 5508   5.955   3.108   4.355  0.4057  0.6286 -0.2398
    1PA    H12R 5509   5.932   3.202   4.407  0.4502  1.4574 -1.6553
    1PA    H12S 5510   5.939   3.026   4.425  4.1334 -0.5572 -0.5555
    1PA    C111 5511   6.104   3.115   4.318  0.5049  0.2869  0.0928
    1PA    H11R 5512   6.143   3.018   4.286  1.2823  0.3096  0.9340
    1PA    H11S 5513   6.104   3.177   4.228 -0.9709  0.1160 -0.0574
    1PA    C110 5514   6.194   3.177   4.426  0.4383 -0.3105  0.4966
    1PA    H10R 5515   6.298   3.183   4.394  0.0714  2.8057 -0.4334
    1PA    H10S 5516   6.169   3.283   4.434  2.1557  0.1969 -0.4440
    1PA     C19 5517   6.176   3.121   4.568 -0.4348 -0.4728  0.3270
    1PA     H9R 5518   6.248   3.185   4.618 -1.1922  1.7125 -1.2117
    1PA     H9S 5519   6.087   3.148   4.625  0.0013  0.0291  0.7727
    1PA     C18 5520   6.211   2.973   4.589  0.5202 -0.2473  0.3575
    1PA     H8R 5521   6.201   2.947   4.695 -1.7108 -0.0311  0.2600
    1PA     H8S 5522   6.128   2.912   4.551  0.1162 -1.6575  3.2167
    1PA     C17 5523   6.348   2.923   4.543  0.3001  0.4098 -1.0621
    1PA     H7R 5524   6.347   2.819   4.577  0.0549  0.8561  0.3433
    1PA     H7S 5525   6.356   2.917   4.434 -0.7433  1.0567 -1.1825
    1PA     C16 5526   6.469   2.998   4.599 -0.2571  0.6759 -0.2048
    1PA     H6R 5527   6.558   2.955   4.554  0.6692  1.2096  1.0420
    1PA     H6S 5528   6.459   3.105   4.579 -0.4110  0.5611 -0.7463
    1PA     C15 5529   6.482   2.983   4.751  0.3159  0.1253 -0.3022
    1PA     H5R 5530   6.387   3.020   4.792 -0.1490  1.6773 -2.5826
    1PA     H5S 5531   6.480   2.877   4.777 -2.7225  0.3464  0.7857
    1PA     C14 5532   6.611   3.041   4.811  0.0740  0.1549  0.2008
    1PA     H4R 5533   6.697   2.988   4.769  1.5651  2.5772  0.0406
    1PA     H4S 5534   6.634   3.144   4.782  1.4659 -0.2388 -0.1421
    1PA     C13 5535   6.616   3.023   4.963  0.0613 -0.1914  0.1623
    1PA     H3R 5536   6.538   3.093   4.992  0.3984  1.1088 -1.8361
    1PA     H3S 5537   6.579   2.926   4.997 -0.4415  0.5530  1.8700
    1PA     C12 5538   6.748   3.059   5.034 -0.1486  0.5321  0.1963
    1PA     H2R 5539   6.833   3.067   4.967  0.4685  0.9102  1.0065
    1PA     H2S 5540   6.740   3.163   5.066  0.9975  0.4064  0.9502
    2PC     C11 5541   6.790   2.968   5.147 -0.4430 -0.0538 -0.1603
    2PC     O12 5542   6.763   2.850   5.158  0.2295 -0.1756  0.2352
    2PC     O11 5543   6.863   3.030   5.241 -0.4811 -0.1045 -0.0976
    2PC      C1 5544   6.918   2.967   5.358 -0.0467  0.5301  0.0438
    2PC      HR 5545   6.960   3.040   5.428  0.9916 -1.5104  1.6462
    2PC      HS 5546   6.852   2.900   5.413  0.5545 -0.2438 -0.1594
    2PC      C2 5547   7.042   2.886   5.318 -0.5139  0.0581 -0.4760
    2PC      HX 5548   7.015   2.823   5.234  1.5021  0.6268 -1.6359
    2PC      C3 5549   7.101   2.809   5.437  0.1448  0.0945 -0.7740
    2PC      HA 5550   7.034   2.728   5.467 -2.0929  2.0561 -0.1977
    2PC      HB 5551   7.187   2.753   5.400 -0.7081 -1.7726 -0.0685
    2PC     O31 5552   7.129   2.898   5.546  0.1241 -0.3954 -0.3608
    2PC     P31 5553   7.213   2.851   5.673 -0.0361 -0.0826 -0.1369
    2PC     O32 5554   7.359   2.909   5.639 -0.3081  0.4170 -0.4505
    2PC     C31 5555   7.374   3.045   5.593 -0.1085  0.7361  0.5314
    2PC     H1A 5556   7.347   3.049   5.488 -0.2749 -1.0656  0.4699
    2PC     H1B 5557   7.304   3.098   5.658  0.7208  2.3742  0.1357
    2PC     C32 5558   7.517   3.097   5.617  0.2135  0.0408  0.1394
    2PC     H2A 5559   7.583   3.030   5.562  0.9848  0.5599  0.4274
    2PC     H2B 5560   7.537   3.198   5.583 -1.3708  0.2485 -0.2885
    2PC     N31 5561   7.566   3.093   5.758 -0.4250 -0.0711  0.3627
    2PC     C33 5562   7.483   3.178   5.850  0.0694 -0.3426  1.0697
    2PC     H3A 5563   7.527   3.164   5.949 -0.1395  0.4865  1.2806
    2PC     H3B 5564   7.505   3.281   5.823  0.6013 -0.3344  1.5132
    2PC     H3C 5565   7.377   3.150   5.856 -0.4071  1.5437  1.9296
    2PC     C34 5566   7.577   2.955   5.816  0.2099 -0.2464 -0.1651
    2PC     H4A 5567   7.645   2.897   5.754  1.3280  0.1147  0.6823
    2PC     H4B 5568   7.624   2.971   5.913  1.5129 -0.2878 -0.7673
    2PC     H4C 5569   7.476   2.918   5.831 -0.1410  0.1723 -1.3976
    2PC     C35 5570   7.706   3.145   5.768 -0.5520  0.3347  0.0755
    2PC     H5A 5571   7.717   3.253   5.762 -0.1243  0.3453  0.8244
    2PC     H5B 5572   7.772   3.101   5.692 -1.0045  1.4133 -0.9651
    2PC     H5C 5573   7.731   3.120   5.871  0.2361 -0.9425 -0.3897
    2PC     O33 5574   7.173   2.905   5.805 -0.5562 -0.3531 -0.1834
    2PC     O34 5575   7.205   2.703   5.673 -0.5158 -0.0633  0.6060
    2PC     O21 5576   7.153   2.969   5.277  0.2379 -0.4599  0.4689
    2PC     C21 5577   7.188   2.980   5.148 -0.1927  0.6080  0.4346
    2PC     O22 5578   7.110   2.936   5.065  0.2234 -0.4423  0.5804
    3OL     C12 5579   7.324   3.042   5.126 -0.0475  0.1469 -0.0116
    3OL     H2R 5580   7.377   3.022   5.219  0.3371  0.5361 -0.1448
    3OL     H2S 5581   7.319   3.149   5.106  3.7653  0.5548  0.5131
    3OL     C13 5582   7.403   2.980   5.011 -0.4507 -0.0055 -0.2095
    3OL     H3R 5583   7.339   2.964   4.924 -1.4756 -0.5770  0.6359
    3OL     H3S 5584   7.435   2.881   5.043  0.2526  0.4936  0.6997
    3OL     C14 5585   7.540   3.041   4.976 -0.3210 -0.0376  0.2420
    3OL     H4R 5586   7.596   3.049   5.070  0.2982 -0.9570 -0.0328
    3OL     H4S 5587   7.521   3.142   4.942 -0.7702  0.8476  2.8911
    3OL     C15 5588   7.614   2.962   4.867  0.0802  0.8046 -0.1030
    3OL     H5R 5589   7.631   2.858   4.897  2.8533  1.0475 -0.5629
    3OL     H5S 5590   7.711   3.010   4.859  0.6927 -0.2859  0.5730
    3OL     C16 5591   7.541   2.960   4.731  0.3487  0.0840 -0.2382
    3OL     H6R 5592   7.523   3.062   4.697  0.2210  0.2220  0.2387
    3OL     H6S 5593   7.445   2.910   4.742 -2.4922  4.6697 -1.7863
    3OL     C17 5594   7.623   2.893   4.619  0.2739 -0.0569 -0.2094
    3OL     H7R 5595   7.599   2.787   4.625  1.9497 -0.3899  1.7739
    3OL     H7S 5596   7.731   2.907   4.632  0.0898  0.9655  0.3696
    3OL     C18 5597   7.569   2.944   4.485  0.1560 -0.7230 -0.4178
    3OL     H8R 5598   7.623   2.903   4.399  2.4647  1.0887  0.0589
    3OL     H8S 5599   7.581   3.052   4.492 -0.6565 -0.7157  1.3458
    3OL     C19 5600   7.427   2.902   4.460 -0.1696  0.2519 -0.2533
    3OL     H9R 5601   7.385   2.846   4.543 -0.6451  1.4880  0.3699
    3OL    C110 5602   7.352   2.929   4.353 -0.2017  0.5786 -0.1491
    3OL    H10R 5603   7.252   2.886   4.348  0.0731 -0.0443 -0.4579
    3OL    C111 5604   7.390   3.016   4.237 -0.1406  0.4725 -0.2081
    3OL    H11R 5605   7.497   3.035   4.247 -0.2491  1.9577 -1.3343
    3OL    H11S 5606   7.343   3.114   4.249  0.9014  0.9554  0.1223
    3OL    C112 5607   7.344   2.955   4.104 -0.2822  0.0208  0.0491
    3OL    H12R 5608   7.238   2.977   4.090 -0.3835 -0.1331  0.5339
    3OL    H12S 5609   7.362   2.847   4.105  1.1223  0.2198  2.1573
    3OL    C113 5610   7.427   3.012   3.988  0.6572 -1.0875  0.1517
    3OL    H13R 5611   7.533   2.992   4.004  1.0312  1.6452  1.5839
    3OL    H13S 5612   7.406   3.119   3.984  0.4568 -1.1473 -0.5528
    3OL    C114 5613   7.388   2.943   3.856 -0.2835  0.1539 -0.2374
    3OL    H14R 5614   7.317   2.864   3.876  1.0262 -0.3180  3.2022
    3OL    H14S 5615   7.479   2.902   3.811  0.1427  2.1051 -1.2950
    3OL    C115 5616   7.335   3.036   3.746 -0.4303  0.1370 -0.1805
    3OL    H15R 5617   7.410   3.114   3.729 -0.5201  0.1153 -0.6888
    3OL    H15S 5618   7.254   3.102   3.778 -0.3297 -0.4757  1.3906
    3OL    C116 5619   7.300   2.956   3.620 -0.0688  0.0026 -0.1953
    3OL    H16R 5620   7.212   2.896   3.643 -0.6377  0.3911 -1.2702
    3OL    H16S 5621   7.374   2.883   3.585  1.3698  0.5213  1.6008
    3OL    C117 5622   7.247   3.049   3.510  0.1522  0.1920 -0.1426
    3OL    H17R 5623   7.182   3.125   3.552 -0.5273 -1.0287  1.0691
    3OL    H17S 5624   7.196   2.986   3.436  0.7686 -0.9930  0.4134
    3OL    C118 5625   7.357   3.118   3.428  0.2731 -0.6170 -0.6741
    3OL    H18R 5626   7.421   3.175   3.495 -2.7323 -0.8807  2.6714
    3OL    H18S 5627   7.320   3.188   3.353  0.6365  1.5369  1.0500
    3OL    H18T 5628   7.429   3.048   3.385  0.6453 -0.5454 -0.1807
    1PA    C116 5629   1.622   1.794   3.836  0.3061 -0.0328  0.2294
    1PA    H16R 5630   1.617   1.901   3.812 -1.5149  0.5069  2.5953
    1PA    H16S 5631   1.568   1.741   3.757 -0.7612  0.3274  0.6925
    1PA    H16T 5632   1.722   1.752   3.836  0.2047 -0.2890 -0.4106
    1PA    C115 5633   1.558   1.768   3.973  0.3698  0.1198  0.2886
    1PA    H15R 5634   1.595   1.836   4.050 -1.0703  1.4782 -0.1580
    1PA    H15S 5635   1.451   1.790   3.972  0.0918 -0.8134  2.6646
    1PA    C114 5636   1.586   1.629   4.032 -0.4478 -0.1183  0.1317
    1PA    H14R 5637   1.552   1.552   3.964 -0.6794 -1.0558  1.2701
    1PA    H14S 5638   1.694   1.610   4.029 -0.4682 -0.0843 -1.2423
    1PA    C113 5639   1.524   1.600   4.170 -0.2426  0.1527  0.2830
    1PA    H13R 5640   1.548   1.682   4.238 -0.5824  1.0652 -0.6665
    1PA    H13S 5641   1.417   1.591   4.154 -0.1031 -3.0113  0.6735
    1PA    C112 5642   1.564   1.462   4.223  0.0760  0.3260  0.4986
    1PA    H12R 5643   1.524   1.382   4.161  0.7500  2.0658 -2.3731
    1PA    H12S 5644   1.673   1.452   4.219  0.2115  0.5636  2.3771
    1PA    C111 5645   1.514   1.451   4.368  0.2908  0.1541  0.5614
    1PA    H11R 5646   1.574   1.377   4.420  0.2699 -1.2439 -1.2989
    1PA    H11S 5647   1.535   1.552   4.406  1.5061  0.9542 -1.9856
    1PA    C110 5648   1.363   1.427   4.389  0.2742 -0.4647 -0.2408
    1PA    H10R 5649   1.303   1.497   4.331  0.5954 -0.0376 -0.0602
    1PA    H10S 5650   1.355   1.328   4.342 -1.4504 -0.3465 -0.2446
    1PA     C19 5651   1.328   1.417   4.538 -0.0320  0.0479 -0.2771
    1PA     H9R 5652   1.235   1.362   4.553 -1.1955  1.6316 -1.3190
    1PA     H9S 5653   1.405   1.367   4.597 -0.5182 -0.5954 -0.1783
    1PA     C18 5654   1.293   1.555   4.593  0.1641  0.1429 -0.3881
    1PA     H8R 5655   1.378   1.622   4.576  1.5647 -1.6470 -0.6683
    1PA     H8S 5656   1.211   1.596   4.533  0.0712  1.8107  0.7937
    1PA     C17 5657   1.260   1.567   4.743  0.0126 -0.3418 -0.3831
    1PA     H7R 5658   1.343   1.539   4.809  0.7170  0.3367 -0.9612
    1PA     H7S 5659   1.235   1.669   4.772 -1.1420  0.0551 -2.5280
    1PA     C16 5660   1.154   1.469   4.794  0.0325  0.0930  0.5128
    1PA     H6R 5661   1.070   1.477   4.724  0.1320 -1.7659  0.1071
    1PA     H6S 5662   1.186   1.364   4.800  0.1214  0.1411  0.8683
    1PA     C15 5663   1.096   1.508   4.931 -0.5830  0.1908  0.2302
    1PA     H5R 5664   1.041   1.420   4.964  1.9755 -1.9007 -0.6182
    1PA     H5S 5665   1.181   1.531   4.996  0.4473 -0.6770 -0.7510
    1PA     C14 5666   1.006   1.632   4.934 -0.5793  0.2040 -0.1585
    1PA     H4R 5667   1.071   1.712   4.897 -0.8306 -0.0400 -1.1574
    1PA     H4S 5668   0.912   1.624   4.880 -1.0499  2.0692  0.3121
    1PA     C13 5669   0.966   1.674   5.076 -0.1632  0.1440 -0.0198
    1PA     H3R 5670   1.027   1.623   5.150 -0.8012 -1.4481 -0.5461
    1PA     H3S 5671   0.976   1.782   5.084  2.0892 -0.0113 -0.3128
    1PA     C12 5672   0.819   1.645   5.111 -0.3155  0.6859 -0.2052
    1PA     H2R 5673   0.763   1.691   5.029 -2.8632 -1.2140  0.3430
    1PA     H2S 5674   0.802   1.537   5.113  0.9258  0.3839  4.4082
    2PC     C11 5675   0.771   1.690   5.247  0.2564  0.1738  0.1681
    2PC     O12 5676   0.831   1.750   5.334  0.4453  0.1553  0.0522
    2PC     O11 5677   0.644   1.651   5.267  0.2810 -0.0120 -0.0342
    2PC      C1 5678   0.576   1.670   5.392  0.7541  0.0377  0.2170
    2PC      HR 5679   0.480   1.618   5.397  0.5923  0.3650  0.5209
    2PC      HS 5680   0.630   1.631   5.479  0.1916 -0.2445  0.4387
    2PC      C2 5681   0.547   1.817   5.424 -0.0477 -0.1781  0.5004
    2PC      HX 5682   0.635   1.882   5.429 -1.2549  1.6031 -0.0900
    2PC      C3 5683   0.482   1.828   5.562 -0.0831 -0.3127  0.4938
    2PC      HA 5684   0.376   1.804   5.557  0.3686 -2.2023 -2.4811
    2PC      HB 5685   0.533   1.769   5.638 -0.9106  0.7954  1.9691
    2PC     O31 5686   0.494   1.968   5.593 -0.0157 -0.3259  0.5268
    2PC     P31 5687   0.399   2.029   5.707  0.0130  0.1927  0.2752
    2PC     O32 5688   0.516   2.105   5.786  0.1447  0.1325  0.1394
    2PC     C31 5689   0.521   2.069   5.926 -0.0936  0.0186  0.1191
    2PC     H1A 5690   0.419   2.081   5.962 -0.0549 -0.1281  0.2782
    2PC     H1B 5691   0.557   1.968   5.949  0.7440  0.6833  1.8569
    2PC     C32 5692   0.617   2.162   6.001  0.0343 -0.0060 -0.0115
    2PC     H2A 5693   0.650   2.124   6.098  1.6911  0.2509 -0.4465
    2PC     H2B 5694   0.708   2.167   5.942  0.3092 -1.2215  0.2885
    2PC     N31 5695   0.577   2.305   6.026 -0.0457 -0.0292 -0.0051
    2PC     C33 5696   0.437   2.315   6.077  0.0611 -0.0612  0.2997
    2PC     H3A 5697   0.366   2.281   6.001 -0.1210 -0.4789  0.6492
    2PC     H3B 5698   0.435   2.235   6.151 -2.1615  0.0450  0.4256
    2PC     H3C 5699   0.411   2.414   6.116  1.5400  0.8489 -0.9295
    2PC     C34 5700   0.662   2.364   6.135  0.5817 -0.3323 -0.3260
    2PC     H4A 5701   0.766   2.357   6.102  0.2569  0.2907 -1.5211
    2PC     H4B 5702   0.645   2.471   6.133 -0.2598 -0.4668 -2.3657
    2PC     H4C 5703   0.643   2.315   6.231 -0.2494  0.1381 -0.2408
    2PC     C35 5704   0.600   2.381   5.899 -0.0657 -0.1645 -0.0905
    2PC     H5A 5705   0.701   2.357   5.865 -0.4803 -1.1813 -0.6210
    2PC     H5B 5706   0.576   2.484   5.928  1.8024  0.1121  0.6451
    2PC     H5C 5707   0.532   2.346   5.822 -0.8499 -0.6792  0.8211
    2PC     O33 5708   0.306   2.133   5.658 -0.0497 -0.1197 -0.2811
    2PC     O34 5709   0.321   1.940   5.795 -0.4280  0.1693 -0.1362
    2PC     O21 5710   0.445   1.868   5.335 -0.1819 -0.5480  0.4423
    2PC     C21 5711   0.483   1.934   5.224  0.1137 -0.4091  0.6251
    2PC     O22 5712   0.600   1.961   5.210 -0.0627  0.3224  0.5415
    3OL     C12 5713   0.372   1.990   5.139  0.4638 -0.5103  0.1033
    3OL     H2R 5714   0.358   2.089   5.182  0.9899 -1.1167  1.7238
    3OL     H2S 5715   0.277   1.940   5.156  1.2367 -1.5220  1.6756
    3OL     C13 5716   0.412   1.985   4.990  0.4368 -0.0771  0.0805
    3OL     H3R 5717   0.370   1.896   4.943  1.5180 -1.2103  1.1912
    3OL     H3S 5718   0.520   1.991   4.983  0.5270  0.1944  1.4321
    3OL     C14 5719   0.363   2.110   4.915 -0.2054 -0.2156  0.2590
    3OL     H4R 5720   0.420   2.106   4.822  0.5223  2.2199  0.5444
    3OL     H4S 5721   0.403   2.201   4.959 -0.2488 -0.0717  0.0017
    3OL     C15 5722   0.213   2.108   4.885 -0.0659 -0.3329 -0.4415
    3OL     H5R 5723   0.154   2.116   4.976  0.5350 -0.6587 -0.0156
    3OL     H5S 5724   0.194   2.015   4.830  1.1446 -0.8610  0.0014
    3OL     C16 5725   0.171   2.234   4.808  0.1782 -0.4159 -0.7106
    3OL     H6R 5726   0.247   2.255   4.732 -0.7425 -0.9591 -1.8226
    3OL     H6S 5727   0.175   2.317   4.878 -2.4296 -2.2513  1.8309
    3OL     C17 5728   0.028   2.223   4.752 -0.1320 -0.2541  0.0491
    3OL     H7R 5729  -0.053   2.212   4.825 -1.8506  1.1791 -1.5739
    3OL     H7S 5730   0.021   2.134   4.689 -1.3830  1.4378 -2.3220
    3OL     C18 5731  -0.001   2.341   4.660  0.4326  0.0315  0.2312
    3OL     H8R 5732   0.022   2.429   4.720 -1.1025 -0.8625  2.2458
    3OL     H8S 5733  -0.107   2.347   4.634  0.7619 -1.9646 -1.8663
    3OL     C19 5734   0.079   2.331   4.532 -0.2428  0.4153 -0.2267
    3OL     H9R 5735   0.148   2.248   4.521 -1.1720 -0.2615 -1.1563
    3OL    C110 5736   0.061   2.418   4.433  1.0026  0.9116 -0.0389
    3OL    H10R 5737   0.120   2.413   4.342  1.4619 -0.2112  0.3015
    3OL    C111 5738  -0.041   2.529   4.439  0.5024  0.4660 -0.1509
    3OL    H11R 5739   0.017   2.621   4.452 -0.6945  1.6870 -2.6256
    3OL    H11S 5740  -0.113   2.524   4.520 -1.9154  2.4421 -2.0088
    3OL    C112 5741  -0.126   2.521   4.311 -0.4579 -0.3952  0.5277
    3OL    H12R 5742  -0.186   2.430   4.302  0.6519 -1.0053 -1.4388
    3OL    H12S 5743  -0.062   2.510   4.224 -0.9148 -1.4912  0.3200
    3OL    C113 5744  -0.210   2.649   4.296  0.4674  0.1708  0.0745
    3OL    H13R 5745  -0.147   2.738   4.300  1.2079 -0.1608 -2.5630
    3OL    H13S 5746  -0.287   2.651   4.374  0.1949  0.0764 -0.1893
    3OL    C114 5747  -0.286   2.643   4.163  0.2438  0.2184  0.1993
    3OL    H14R 5748  -0.351   2.555   4.165  1.6262 -0.8737 -0.5199
    3OL    H14S 5749  -0.216   2.622   4.082 -0.0428 -1.9372  0.4338
    3OL    C115 5750  -0.376   2.761   4.125  0.3116  0.2953  0.2788
    3OL    H15R 5751  -0.307   2.843   4.108  0.1113  0.3242 -0.3918
    3OL    H15S 5752  -0.452   2.794   4.197 -0.0529 -2.7194  1.4551
    3OL    C116 5753  -0.443   2.728   3.991  0.2985 -0.2749  0.4216
    3OL    H16R 5754  -0.518   2.649   3.993  0.1641 -0.2549 -1.8541
    3OL    H16S 5755  -0.375   2.688   3.916 -0.2835 -0.7663  0.1494
    3OL    C117 5756  -0.516   2.854   3.942  0.2343 -0.4871 -0.0348
    3OL    H17R 5757  -0.438   2.928   3.923  0.1884 -0.3309  0.3585
    3OL    H17S 5758  -0.591   2.878   4.019  0.1453  0.6541 -0.4529
    3OL    C118 5759  -0.566   2.844   3.798 -0.1819  0.9341 -0.0032
    3OL    H18R 5760  -0.654   2.779   3.795 -0.8915  1.8261  0.7900
    3OL    H18S 5761  -0.487   2.806   3.733  0.4372 -0.2387  1.3926
    3OL    H18T 5762  -0.596   2.946   3.770 -1.2569  1.3727  2.5125
    1PA    C116 5763   6.280   1.719   4.074  0.5962 -0.2852 -0.1385
    1PA    H16R 5764   6.224   1.785   4.141  1.1785  0.0079  0.0627
    1PA    H16S 5765   6.216   1.640   4.033 -0.8295  1.8193 -2.2579
    1PA    H16T 5766   6.311   1.785   3.993  0.5424  1.7481  1.4082
    1PA    C115 5767   6.394   1.652   4.152  0.3084 -0.0427  0.5018
    1PA    H15R 5768   6.464   1.601   4.084 -2.5647  0.0039 -2.7629
    1PA    H15S 5769   6.470   1.716   4.199  0.4596 -0.6116  1.0406
    1PA    C114 5770   6.349   1.544   4.250 -0.1714  0.0164  0.3464
    1PA    H14R 5771   6.284   1.592   4.324 -1.0575 -0.8073  0.1149
    1PA    H14S 5772   6.281   1.473   4.203 -0.2700 -0.1212  0.6914
    1PA    C113 5773   6.465   1.472   4.319 -0.1407 -0.0366  0.2390
    1PA    H13R 5774   6.500   1.403   4.243 -2.3870  0.3509 -1.2342
    1PA    H13S 5775   6.545   1.542   4.347  1.1676 -0.7561 -1.5395
    1PA    C112 5776   6.429   1.388   4.442 -0.2306  0.0281  0.2568
    1PA    H12R 5777   6.359   1.311   4.408  0.9310 -0.8519 -0.2008
    1PA    H12S 5778   6.523   1.348   4.480 -0.8254 -0.9687  0.7198
    1PA    C111 5779   6.358   1.466   4.554 -0.3529  0.5414 -0.1744
    1PA    H11R 5780   6.261   1.499   4.515 -0.9744 -2.1232 -1.1267
    1PA    H11S 5781   6.342   1.391   4.632 -2.7848 -0.2454 -1.3302
    1PA    C110 5782   6.442   1.574   4.624  0.4397 -0.1514 -0.0462
    1PA    H10R 5783   6.534   1.530   4.664  0.2751 -0.0448  0.4534
    1PA    H10S 5784   6.466   1.640   4.541  0.7832 -2.4040 -1.8424
    1PA     C19 5785   6.367   1.647   4.736  0.2373 -0.0688 -0.2350
    1PA     H9R 5786   6.316   1.731   4.689 -1.6396  0.2826  2.2434
    1PA     H9S 5787   6.299   1.584   4.793  1.9243 -1.9066 -0.1523
    1PA     C18 5788   6.473   1.696   4.836  0.1412  0.0486 -0.1906
    1PA     H8R 5789   6.525   1.611   4.880  0.4814  1.2015  1.7822
    1PA     H8S 5790   6.548   1.752   4.781 -1.4730  0.1788 -2.3947
    1PA     C17 5791   6.410   1.782   4.947  0.2481 -0.2840  0.1304
    1PA     H7R 5792   6.385   1.880   4.906  0.4446 -0.1671  0.2923
    1PA     H7S 5793   6.322   1.727   4.982 -0.0041  0.2383  0.3352
    1PA     C16 5794   6.512   1.804   5.059  0.0483  0.5461  0.1541
    1PA     H6R 5795   6.542   1.701   5.079 -0.5686 -0.0341 -1.7527
    1PA     H6S 5796   6.602   1.859   5.029  0.3630  0.1837  0.4257
    1PA     C15 5797   6.443   1.868   5.181 -0.1129  0.4267  0.1253
    1PA     H5R 5798   6.357   1.803   5.199  1.0265 -1.9148 -2.1337
    1PA     H5S 5799   6.508   1.848   5.266  0.1868 -1.0982 -0.4246
    1PA     C14 5800   6.412   2.017   5.165 -0.0274  0.3989 -0.3333
    1PA     H4R 5801   6.506   2.064   5.135  1.6922 -2.5368  0.0965
    1PA     H4S 5802   6.339   2.019   5.084 -0.4907 -2.4743 -0.1037
    1PA     C13 5803   6.351   2.074   5.294  0.7975  0.4994  0.0201
    1PA     H3R 5804   6.257   2.022   5.316  0.3337  1.2257 -0.2000
    1PA     H3S 5805   6.420   2.058   5.377  1.2274  0.7165 -0.2916
    1PA     C12 5806   6.306   2.220   5.277 -0.0987  0.2215 -0.0291
    1PA     H2R 5807   6.378   2.276   5.218 -1.6881  1.7892 -0.5778
    1PA     H2S 5808   6.212   2.230   5.222 -1.3071 -0.9048  1.7030
    2PC     C11 5809   6.296   2.290   5.411 -0.0287  0.1161  0.0311
    2PC     O12 5810   6.393   2.337   5.464  0.0400 -0.3692  0.3440
    2PC     O11 5811   6.175   2.284   5.469 -0.2016 -0.7233 -0.3956
    2PC      C1 5812   6.135   2.362   5.583 -0.1874 -0.3323 -0.6552
    2PC      HR 5813   6.041   2.326   5.625 -0.6883  1.6131  0.0104
    2PC      HS 5814   6.208   2.338   5.660 -0.8634  2.0865  0.8324
    2PC      C2 5815   6.129   2.514   5.561 -0.5372 -0.1893  0.3661
    2PC      HX 5816   6.220   2.547   5.508 -0.2993 -1.0973  0.1881
    2PC      C3 5817   6.126   2.587   5.696  0.2403  0.4407  0.0530
    2PC      HA 5818   6.226   2.625   5.716  0.4585  0.6719 -1.3507
    2PC      HB 5819   6.052   2.668   5.702 -0.4364 -0.2042  0.5455
    2PC     O31 5820   6.093   2.504   5.808  0.3590  0.4211  0.0731
    2PC     P31 5821   6.153   2.550   5.950  0.4196 -0.0680  0.2079
    2PC     O32 5822   6.311   2.573   5.937  0.3427  0.7094  0.6116
    2PC     C31 5823   6.398   2.460   5.959 -0.1155  0.1895 -0.2140
    2PC     H1A 5824   6.382   2.420   6.060  0.7330 -1.0929 -0.5536
    2PC     H1B 5825   6.378   2.378   5.889  2.6499 -0.7226 -0.0445
    2PC     C32 5826   6.543   2.508   5.944 -0.0007 -0.2029 -0.3677
    2PC     H2A 5827   6.611   2.429   5.913 -0.0759 -0.1405 -0.7014
    2PC     H2B 5828   6.556   2.577   5.860 -0.0691 -0.1728 -0.3534
    2PC     N31 5829   6.598   2.588   6.058  0.0986 -0.2119 -0.4094
    2PC     C33 5830   6.741   2.612   6.022  0.1390 -0.4075 -0.3797
    2PC     H3A 5831   6.742   2.678   5.935 -0.6427  0.8085  0.5137
    2PC     H3B 5832   6.788   2.664   6.106  1.1017  1.6719 -2.0960
    2PC     H3C 5833   6.790   2.520   5.988 -0.9478 -0.3247 -2.3028
    2PC     C34 5834   6.536   2.724   6.066  0.1016 -0.2485  0.2534
    2PC     H4A 5835   6.432   2.712   6.097 -0.0094  1.5300  0.6970
    2PC     H4B 5836   6.585   2.788   6.139  1.8562 -0.1569 -0.9633
    2PC     H4C 5837   6.550   2.778   5.972 -0.6970  0.7672  0.6876
    2PC     C35 5838   6.589   2.516   6.189  0.5855  0.3638 -0.0564
    2PC     H5A 5839   6.635   2.418   6.173 -0.1373  0.4944 -3.7994
    2PC     H5B 5840   6.481   2.510   6.200  0.8065 -1.8958  1.4601
    2PC     H5C 5841   6.637   2.576   6.267 -1.4542 -0.4311  1.9156
    2PC     O33 5842   6.076   2.654   6.021  0.3271  0.0791 -0.1040
    2PC     O34 5843   6.137   2.427   6.031  0.0581 -0.1438  0.0241
    2PC     O21 5844   6.013   2.540   5.480  0.2225  0.3828 -0.5594
    2PC     C21 5845   6.018   2.660   5.420  0.5521  0.0384 -1.2300
    2PC     O22 5846   6.105   2.743   5.440  0.2376 -0.0671  0.7678
    3OL     C12 5847   5.907   2.683   5.321 -0.2371 -0.3549 -0.4523
    3OL     H2R 5848   5.947   2.691   5.219 -0.1150  0.1552 -0.3664
    3OL     H2S 5849   5.868   2.784   5.339  1.8495  0.4286 -0.0937
    3OL     C13 5850   5.803   2.571   5.311 -0.6112 -0.0696  0.2154
    3OL     H3R 5851   5.743   2.554   5.401 -1.0338  0.3483  0.0155
    3OL     H3S 5852   5.862   2.482   5.291 -2.1988 -1.6979  2.2908
    3OL     C14 5853   5.713   2.595   5.189  0.0153  0.0194 -0.2343
    3OL     H4R 5854   5.778   2.586   5.102 -0.7745 -0.2619 -0.8094
    3OL     H4S 5855   5.670   2.695   5.193 -0.3899 -0.1670  2.9454
    3OL     C15 5856   5.600   2.491   5.176  0.2095 -0.2406  0.1351
    3OL     H5R 5857   5.562   2.486   5.278  1.3905  0.5476  0.6364
    3OL     H5S 5858   5.637   2.392   5.147 -0.8101 -0.4089 -0.6471
    3OL     C16 5859   5.492   2.528   5.073  0.6131  0.7079  0.0416
    3OL     H6R 5860   5.474   2.636   5.078  0.0624  0.6101  0.1931
    3OL     H6S 5861   5.405   2.474   5.109  0.6213  1.3575  1.0881
    3OL     C17 5862   5.533   2.482   4.933 -0.5534  0.6822 -0.2988
    3OL     H7R 5863   5.532   2.373   4.931  2.3249  0.5806 -0.6083
    3OL     H7S 5864   5.635   2.517   4.914 -1.5972  2.3896 -3.5106
    3OL     C18 5865   5.443   2.533   4.819 -0.4198  0.0998 -0.6709
    3OL     H8R 5866   5.436   2.642   4.826 -0.2143  0.0907 -0.3148
    3OL     H8S 5867   5.341   2.500   4.841 -0.1930  0.0274  0.3471
    3OL     C19 5868   5.497   2.490   4.685  0.5684 -0.3342 -0.1439
    3OL     H9R 5869   5.582   2.549   4.652  0.1832  0.6109  0.5052
    3OL    C110 5870   5.443   2.397   4.607  0.4335 -0.6985  0.3776
    3OL    H10R 5871   5.477   2.395   4.504 -1.2894  0.4767 -0.2639
    3OL    C111 5872   5.331   2.301   4.638 -0.0256 -0.2620  0.0931
    3OL    H11R 5873   5.239   2.313   4.582 -0.6652 -1.6622  0.7933
    3OL    H11S 5874   5.296   2.323   4.739  0.9414 -0.1275  0.4156
    3OL    C112 5875   5.389   2.158   4.639  0.4474 -0.0746  0.0450
    3OL    H12R 5876   5.317   2.097   4.693  0.3046  0.5221  0.5353
    3OL    H12S 5877   5.476   2.156   4.704  0.7561  0.0626 -0.3610
    3OL    C113 5878   5.422   2.108   4.498 -0.1605  0.0768 -0.1576
    3OL    H13R 5879   5.483   2.183   4.448  2.8878 -1.5645  0.8230
    3OL    H13S 5880   5.328   2.100   4.443 -0.0107 -0.3872 -0.3550
    3OL    C114 5881   5.491   1.971   4.507 -0.1698  0.0646 -0.2607
    3OL    H14R 5882   5.583   1.984   4.565 -0.3062 -2.7562  0.7584
    3OL    H14S 5883   5.525   1.930   4.412  1.2018  1.2223 -0.2977
    3OL    C115 5884   5.407   1.872   4.588 -0.1881  0.0066 -0.3507
    3OL    H15R 5885   5.307   1.853   4.549 -0.8495  2.0755  0.2349
    3OL    H15S 5886   5.384   1.902   4.691 -0.7224 -0.8180 -0.2173
    3OL    C116 5887   5.480   1.737   4.596 -0.6714 -0.2365  0.0265
    3OL    H16R 5888   5.577   1.757   4.641 -1.4275 -1.5111  2.3759
    3OL    H16S 5889   5.491   1.701   4.493  0.9702 -1.6966  0.6633
    3OL    C117 5890   5.408   1.639   4.690  0.1350 -0.3743  0.5032
    3OL    H17R 5891   5.310   1.621   4.647  1.5448 -2.1553 -2.2625
    3OL    H17S 5892   5.402   1.692   4.785  0.9526 -1.1203  0.9930
    3OL    C118 5893   5.490   1.511   4.714  0.2509 -0.6901 -1.4182
    3OL    H18R 5894   5.487   1.437   4.634 -1.2593 -0.7847 -1.2927
    3OL    H18S 5895   5.460   1.467   4.809 -0.3947  0.0446 -1.2725
    3OL    H18T 5896   5.593   1.545   4.733  0.3961 -1.5734 -0.5542
    1PA    C116 5897   2.720   3.039   3.857  0.7377  0.1973  0.0118
    1PA    H16R 5898   2.719   2.934   3.887 -1.2016  0.1200 -0.1846
    1PA    H16S 5899   2.807   3.050   3.792  1.6806  2.2059  1.5267
    1PA    H16T 5900   2.630   3.057   3.797 -0.0827 -3.4069 -0.1169
    1PA    C115 5901   2.747   3.129   3.978  0.1717  0.1125  0.2057
    1PA    H15R 5902   2.753   3.231   3.939 -0.1263  0.9095  2.1167
    1PA    H15S 5903   2.662   3.115   4.045 -0.1032 -1.1055 -0.3622
    1PA    C114 5904   2.879   3.085   4.042 -0.2093 -0.8894  0.3191
    1PA    H14R 5905   2.877   2.980   4.075  0.7080 -0.9383  0.2520
    1PA    H14S 5906   2.963   3.087   3.972 -0.2045 -1.7054  0.2866
    1PA    C113 5907   2.909   3.169   4.167 -0.1976  0.1020 -0.3450
    1PA    H13R 5908   3.015   3.168   4.193 -0.1039  0.4758 -0.7010
    1PA    H13S 5909   2.880   3.274   4.154 -0.8145  0.0629  0.6087
    1PA    C112 5910   2.820   3.129   4.286  0.3308  0.2576  0.1042
    1PA    H12R 5911   2.724   3.180   4.272  0.1234 -0.2760 -0.5102
    1PA    H12S 5912   2.795   3.023   4.278  0.6124  0.1786  0.2893
    1PA    C111 5913   2.884   3.172   4.418 -0.0994  0.6168  0.1975
    1PA    H11R 5914   2.984   3.132   4.434  0.3724  0.6801 -2.2546
    1PA    H11S 5915   2.906   3.279   4.419  1.3116  0.3814 -1.4694
    1PA    C110 5916   2.788   3.146   4.535  0.4956  0.2968  0.6197
    1PA    H10R 5917   2.713   3.225   4.528  0.6503  0.3068 -1.5974
    1PA    H10S 5918   2.744   3.046   4.528 -1.4086  1.2037 -1.7019
    1PA     C19 5919   2.860   3.162   4.670  0.7214 -0.0200  0.5387
    1PA     H9R 5920   2.931   3.079   4.669 -0.1550 -0.8047  1.2889
    1PA     H9S 5921   2.913   3.256   4.689 -0.2159  0.4889  0.7216
    1PA     C18 5922   2.763   3.133   4.785  0.6258 -0.0061  0.4621
    1PA     H8R 5923   2.688   3.211   4.801  0.6364  0.1499 -0.2256
    1PA     H8S 5924   2.710   3.043   4.753 -0.9656  1.2048 -0.4433
    1PA     C17 5925   2.833   3.107   4.919  0.2410  0.0728  0.6800
    1PA     H7R 5926   2.890   3.014   4.916 -0.8980 -0.6706  1.0552
    1PA     H7S 5927   2.896   3.189   4.952  1.9058 -0.8070 -0.2068
    1PA     C16 5928   2.727   3.090   5.029 -0.2114 -0.0029  0.2346
    1PA     H6R 5929   2.671   3.183   5.039  0.7852  0.5322  0.9918
    1PA     H6S 5930   2.661   3.003   5.021  3.1849 -2.6706 -0.9059
    1PA     C15 5931   2.801   3.070   5.162  0.2841  0.0755 -0.0278
    1PA     H5R 5932   2.879   3.002   5.129 -1.5162 -1.6745 -0.9142
    1PA     H5S 5933   2.859   3.159   5.188  0.5596 -0.2655  0.5573
    1PA     C14 5934   2.718   3.024   5.283  0.4993  0.6521  0.3445
    1PA     H4R 5935   2.699   2.920   5.256  1.4108  0.3913  0.6836
    1PA     H4S 5936   2.786   3.020   5.368  0.3520 -1.5302  0.4141
    1PA     C13 5937   2.590   3.103   5.311 -0.1451 -0.0663 -0.5058
    1PA     H3R 5938   2.631   3.201   5.339  0.0168  0.0134 -1.0177
    1PA     H3S 5939   2.531   3.105   5.219  0.8333 -0.9942 -1.1667
    1PA     C12 5940   2.509   3.038   5.424 -0.2394  0.4036 -0.2971
    1PA     H2R 5941   2.468   2.947   5.377 -0.8558  0.3248  0.3791
    1PA     H2S 5942   2.564   3.010   5.514  0.6963  1.8768 -0.3902
    2PC     C11 5943   2.390   3.121   5.465 -0.3157  0.2159 -0.1332
    2PC     O12 5944   2.310   3.175   5.390 -0.3079 -0.1921 -0.4373
    2PC     O11 5945   2.386   3.128   5.599 -0.0102  0.3282 -0.1294
    2PC      C1 5946   2.297   3.229   5.651 -0.5446 -0.2152  0.0141
    2PC      HR 5947   2.192   3.216   5.624 -0.2598 -3.6409  0.0281
    2PC      HS 5948   2.288   3.202   5.757 -3.2229  0.0042 -0.0852
    2PC      C2 5949   2.350   3.373   5.648  0.0954 -0.4506 -0.1890
    2PC      HX 5950   2.453   3.365   5.682  0.4619 -0.1469 -1.2006
    2PC      C3 5951   2.275   3.461   5.748  0.2001 -0.5621 -0.0125
    2PC      HA 5952   2.209   3.532   5.697  0.7100  0.4641  0.7059
    2PC      HB 5953   2.210   3.403   5.815 -1.3154 -0.3729 -1.2636
    2PC     O31 5954   2.369   3.538   5.824  0.0004 -0.5298  0.2033
    2PC     P31 5955   2.318   3.619   5.953 -0.0954 -0.0340 -0.1418
    2PC     O32 5956   2.273   3.765   5.906  0.1954  0.1140  0.0333
    2PC     C31 5957   2.372   3.869   5.904  0.1706  0.1364 -0.0533
    2PC     H1A 5958   2.395   3.885   6.010 -0.3297 -0.2588  0.1188
    2PC     H1B 5959   2.464   3.841   5.851  0.3750  1.4131 -0.4006
    2PC     C32 5960   2.306   3.993   5.842 -0.2446  0.0130  0.1429
    2PC     H2A 5961   2.285   3.964   5.739 -3.3211 -1.4974  1.0637
    2PC     H2B 5962   2.212   4.010   5.895  0.2431  1.4473  0.5843
    2PC     N31 5963   2.382   4.122   5.841  0.3762 -0.3535 -0.0391
    2PC     C33 5964   2.301   4.216   5.756 -0.3651 -1.0025 -0.0621
    2PC     H3A 5965   2.307   4.181   5.653 -2.0583 -2.8113  0.3988
    2PC     H3B 5966   2.199   4.218   5.793  0.0125  1.7329  1.1095
    2PC     H3C 5967   2.347   4.314   5.764  0.6881 -1.1959 -2.8526
    2PC     C34 5968   2.402   4.188   5.974  0.3816 -0.7702  0.1680
    2PC     H4A 5969   2.472   4.121   6.024  1.6515  0.4450  0.0738
    2PC     H4B 5970   2.454   4.281   5.953 -1.7313  0.3957 -0.1450
    2PC     H4C 5971   2.313   4.204   6.035  0.9777  1.0633  0.6106
    2PC     C35 5972   2.514   4.096   5.774  0.4337 -0.4079  0.0959
    2PC     H5A 5973   2.555   4.197   5.763 -0.2984 -0.2228 -0.9845
    2PC     H5B 5974   2.506   4.058   5.672  2.7884  1.4533 -0.8870
    2PC     H5C 5975   2.564   4.028   5.843 -1.3897 -0.8809  1.0052
    2PC     O33 5976   2.205   3.554   6.023  0.0931  0.0881  0.2853
    2PC     O34 5977   2.420   3.620   6.061  0.0473 -0.5426 -0.2699
    2PC     O21 5978   2.352   3.433   5.517 -0.2778  0.2787  0.1367
    2PC     C21 5979   2.243   3.449   5.442 -0.3340  0.1720  0.1959
    2PC     O22 5980   2.133   3.421   5.485 -0.3733  0.1660  0.0933
    3OL     C12 5981   2.266   3.518   5.310  0.2944 -0.0093  0.2085
    3OL     H2R 5982   2.314   3.614   5.327  0.4247  0.5094 -2.5785
    3OL     H2S 5983   2.175   3.549   5.258  1.2897  1.5099 -0.7078
    3OL     C13 5984   2.362   3.447   5.213  0.0433 -0.1629  0.0695
    3OL     H3R 5985   2.344   3.340   5.205 -0.8180  0.0024 -0.3411
    3OL     H3S 5986   2.464   3.449   5.252 -0.3596 -0.0003  1.1614
    3OL     C14 5987   2.375   3.505   5.072 -0.2940  0.0172  0.1109
    3OL     H4R 5988   2.292   3.573   5.055 -0.8703 -0.4293  1.1030
    3OL     H4S 5989   2.371   3.426   4.997 -0.5799  0.6451 -0.5500
    3OL     C15 5990   2.509   3.580   5.055 -0.5507  0.5482  0.4009
    3OL     H5R 5991   2.590   3.507   5.057 -0.4906  0.5500 -1.0210
    3OL     H5S 5992   2.520   3.646   5.141  1.5331 -2.8468  3.0021
    3OL     C16 5993   2.525   3.658   4.924  0.8276 -0.1046  0.1601
    3OL     H6R 5994   2.589   3.744   4.944  1.1862  0.0155 -1.3424
    3OL     H6S 5995   2.426   3.698   4.899 -0.0811 -0.6611  2.6162
    3OL     C17 5996   2.587   3.565   4.819 -0.3363 -0.1777 -0.4837
    3OL     H7R 5997   2.527   3.474   4.813 -1.4585  0.5293 -0.4052
    3OL     H7S 5998   2.680   3.529   4.862  0.0394 -0.1680 -1.2618
    3OL     C18 5999   2.598   3.634   4.682 -0.2233  0.6800 -0.0514
    3OL     H8R 6000   2.643   3.731   4.702 -0.6058  0.6808  0.8375
    3OL     H8S 6001   2.495   3.652   4.649 -1.0501 -1.2785  1.2678
    3OL     C19 6002   2.676   3.555   4.580 -0.1563  0.8516 -0.1325
    3OL     H9R 6003   2.704   3.455   4.610  1.9128  1.4122 -0.0483
    3OL    C110 6004   2.705   3.584   4.454  0.1021  0.2269 -0.2170
    3OL    H10R 6005   2.748   3.509   4.387 -0.1925 -0.4691  0.3643
    3OL    C111 6006   2.695   3.724   4.401 -0.0852  0.3401  0.1152
    3OL    H11R 6007   2.776   3.746   4.331 -0.3096 -0.3563 -0.3703
    3OL    H11S 6008   2.699   3.792   4.486 -0.7434 -0.2788  0.6508
    3OL    C112 6009   2.572   3.748   4.312 -0.2808  0.0050  0.2948
    3OL    H12R 6010   2.526   3.652   4.290  0.3874 -0.4925  1.0356
    3OL    H12S 6011   2.600   3.804   4.223 -3.0820  2.4052  0.7303
    3OL    C113 6012   2.465   3.838   4.376 -0.5880  0.0163 -0.2271
    3OL    H13R 6013   2.507   3.939   4.379 -1.2412  0.2935 -0.1974
    3OL    H13S 6014   2.457   3.826   4.485  0.8520  3.6751  0.4286
    3OL    C114 6015   2.328   3.841   4.306 -0.5117 -0.0370 -0.3780
    3OL    H14R 6016   2.280   3.746   4.282 -0.8111 -0.3139  1.2198
    3OL    H14S 6017   2.354   3.892   4.213 -0.7673  2.9022  1.0504
    3OL    C115 6018   2.225   3.938   4.365 -0.1432  0.4769 -0.5731
    3OL    H15R 6019   2.171   3.984   4.282 -0.3537 -2.1872 -2.0441
    3OL    H15S 6020   2.266   4.013   4.432  1.3189  0.7935 -1.7638
    3OL    C116 6021   2.118   3.866   4.448 -0.0715  0.9066 -0.1029
    3OL    H16R 6022   2.165   3.820   4.535  1.2661 -0.1349 -1.3141
    3OL    H16S 6023   2.080   3.776   4.399  1.0304 -0.6990  1.8605
    3OL    C117 6024   2.000   3.953   4.492 -0.2431  0.6447 -0.0398
    3OL    H17R 6025   1.965   4.008   4.404  0.1720  1.5579  0.3503
    3OL    H17S 6026   2.036   4.033   4.557 -1.8097  1.1406  0.2698
    3OL    C118 6027   1.883   3.873   4.551 -0.1195  0.4709 -0.0327
    3OL    H18R 6028   1.873   3.781   4.492  0.8389  0.4652 -0.2052
    3OL    H18S 6029   1.784   3.919   4.546 -1.7362 -2.7165 -0.1959
    3OL    H18T 6030   1.914   3.841   4.651 -1.0167  0.2559  0.1876
    1PA    C116 6031   4.094   0.230   4.129  0.4003 -0.5148 -0.1887
    1PA    H16R 6032   4.013   0.292   4.090  0.8362  0.2065  0.0202
    1PA    H16S 6033   4.073   0.190   4.229 -2.5785  1.6064  0.1634
    1PA    H16T 6034   4.128   0.163   4.050  0.4539 -1.6699  0.7883
    1PA    C115 6035   4.201   0.337   4.157  0.2865 -0.5058  0.2249
    1PA    H15R 6036   4.294   0.281   4.147 -0.4939 -1.7785 -0.0731
    1PA    H15S 6037   4.205   0.406   4.072 -0.1341 -1.0273 -0.2274
    1PA    C114 6038   4.182   0.408   4.292  0.3062  0.2679 -0.1720
    1PA    H14R 6039   4.188   0.326   4.364  1.4140 -1.2919 -1.9177
    1PA    H14S 6040   4.265   0.477   4.307  0.1280  0.1091  1.7081
    1PA    C113 6041   4.049   0.485   4.295 -0.1076 -0.4128 -0.6503
    1PA    H13R 6042   4.043   0.545   4.204 -0.8842 -1.5636 -1.3886
    1PA    H13S 6043   3.969   0.412   4.285 -1.9715  1.1584  1.7896
    1PA    C112 6044   4.038   0.575   4.419  0.0986 -0.7535 -0.3822
    1PA    H12R 6045   4.050   0.517   4.510  0.2935  0.1174  0.1612
    1PA    H12S 6046   4.119   0.649   4.413 -2.8456  2.8565  0.6153
    1PA    C111 6047   3.903   0.647   4.420  0.4482 -0.0906  0.0032
    1PA    H11R 6048   3.895   0.689   4.320  2.3502  1.5610  0.4961
    1PA    H11S 6049   3.818   0.582   4.445  0.3146 -0.0206 -0.2682
    1PA    C110 6050   3.901   0.760   4.523 -0.1097 -0.2598  0.1833
    1PA    H10R 6051   3.912   0.725   4.626 -2.3252 -0.3830  0.4281
    1PA    H10S 6052   3.985   0.827   4.508  1.0359 -1.5989  0.4562
    1PA     C19 6053   3.762   0.826   4.519  0.0083 -0.0109  0.1399
    1PA     H9R 6054   3.759   0.928   4.557 -1.1136 -0.5851  1.6669
    1PA     H9S 6055   3.737   0.845   4.414  0.4388 -0.2966 -0.0178
    1PA     C18 6056   3.652   0.745   4.590 -0.3544 -0.0105 -0.4133
    1PA     H8R 6057   3.651   0.649   4.538  2.1547  0.6205 -1.7707
    1PA     H8S 6058   3.685   0.721   4.691 -1.1084  2.0524  0.3761
    1PA     C17 6059   3.520   0.819   4.565  0.0306  0.7825 -0.1455
    1PA     H7R 6060   3.532   0.917   4.611 -0.0799 -0.3927  2.5397
    1PA     H7S 6061   3.495   0.840   4.460 -1.1367  1.4554  0.2417
    1PA     C16 6062   3.399   0.750   4.630  0.6517  0.3910  0.6001
    1PA     H6R 6063   3.308   0.796   4.593  1.8172  2.1167 -0.2514
    1PA     H6S 6064   3.401   0.645   4.597 -0.7541  0.6015 -0.2035
    1PA     C15 6065   3.397   0.762   4.783 -0.1207  0.1626  0.6112
    1PA     H5R 6066   3.478   0.826   4.819  0.3032  1.1235 -1.8477
    1PA     H5S 6067   3.305   0.806   4.822 -0.9169  0.1807 -1.1588
    1PA     C14 6068   3.431   0.627   4.847 -0.5317 -0.4165 -0.3606
    1PA     H4R 6069   3.343   0.561   4.846 -0.9398 -0.3549  4.5053
    1PA     H4S 6070   3.516   0.576   4.803  0.2993  0.0541  0.6569
    1PA     C13 6071   3.478   0.637   4.993 -0.6679  0.1947 -0.3534
    1PA     H3R 6072   3.522   0.541   5.021 -1.2071 -0.2003 -0.8580
    1PA     H3S 6073   3.566   0.702   4.998 -0.6405  0.0705  1.1800
    1PA     C12 6074   3.371   0.675   5.096 -0.1044  0.5062  0.1275
    1PA     H2R 6075   3.330   0.774   5.077  1.6213  1.5725  1.6356
    1PA     H2S 6076   3.289   0.603   5.107  0.0698  0.7547  5.0472
    2PC     C11 6077   3.419   0.680   5.238 -0.1595  0.2026  0.1571
    2PC     O12 6078   3.430   0.780   5.307  0.4997 -0.1811  0.6240
    2PC     O11 6079   3.448   0.558   5.287  0.4819  0.4104  0.3140
    2PC      C1 6080   3.490   0.550   5.424  0.7976  0.0894  0.2008
    2PC      HR 6081   3.539   0.453   5.434 -0.4491 -0.6397 -0.4997
    2PC      HS 6082   3.557   0.634   5.444  0.3485  0.1388  1.6133
    2PC      C2 6083   3.369   0.556   5.518  0.5020 -0.2536 -0.1576
    2PC      HX 6084   3.308   0.644   5.493 -0.1157 -0.6969 -0.2519
    2PC      C3 6085   3.399   0.555   5.669  0.5946  0.0459 -0.1744
    2PC      HA 6086   3.454   0.464   5.691  1.4428  0.5762 -0.0816
    2PC      HB 6087   3.458   0.640   5.705 -1.0490  1.3282 -0.3387
    2PC     O31 6088   3.275   0.560   5.742  0.6396 -0.4630 -0.0646
    2PC     P31 6089   3.280   0.544   5.902 -0.0451 -0.2252 -0.0137
    2PC     O32 6090   3.211   0.680   5.950  0.1271 -0.1220 -0.0555
    2PC     C31 6091   3.302   0.780   5.998  0.1788 -0.1453 -0.1034
    2PC     H1A 6092   3.352   0.743   6.088  0.1170  0.2124  0.0813
    2PC     H1B 6093   3.376   0.805   5.922 -0.6027  1.5235 -0.3651
    2PC     C32 6094   3.212   0.902   6.022  0.4602 -0.0095  0.2799
    2PC     H2A 6095   3.199   0.951   5.925 -0.2205 -0.0806  0.3274
    2PC     H2B 6096   3.115   0.874   6.063  0.3247  0.8517  0.5815
    2PC     N31 6097   3.254   1.013   6.113  0.6267  0.1659 -0.0085
    2PC     C33 6098   3.253   1.143   6.038 -0.3631  0.3837  0.3709
    2PC     H3A 6099   3.326   1.135   5.958 -1.1650 -0.9643 -0.2677
    2PC     H3B 6100   3.153   1.165   6.000  0.6012  0.5396 -2.2684
    2PC     H3C 6101   3.277   1.214   6.117  0.3422 -0.0674  0.5626
    2PC     C34 6102   3.149   1.032   6.218 -0.0356 -1.2888 -0.3859
    2PC     H4A 6103   3.128   0.937   6.267 -0.5726 -0.0239  2.0135
    2PC     H4B 6104   3.182   1.103   6.294 -2.5254 -1.1435  0.6672
    2PC     H4C 6105   3.057   1.058   6.165  0.9253  3.1626 -0.3255
    2PC     C35 6106   3.387   0.994   6.180  0.4189  0.3505  0.4570
    2PC     H5A 6107   3.454   0.975   6.097  0.7472 -4.0064  1.4685
    2PC     H5B 6108   3.386   0.900   6.236 -2.1392 -0.3279 -0.5893
    2PC     H5C 6109   3.419   1.074   6.248  0.3300  0.1380  0.7498
    2PC     O33 6110   3.226   0.417   5.956  0.2103 -0.2919  0.0863
    2PC     O34 6111   3.420   0.533   5.950 -0.1968 -0.1995  0.4346
    2PC     O21 6112   3.295   0.438   5.481 -0.0111 -0.0365  0.1519
    2PC     C21 6113   3.186   0.439   5.404  0.0148 -0.0688  0.1144
    2PC     O22 6114   3.142   0.538   5.348  0.0180 -0.0362  0.1703
    3OL     C12 6115   3.139   0.297   5.389 -0.3039  0.0086  0.3666
    3OL     H2R 6116   3.069   0.283   5.471  0.6816 -1.6657  0.9787
    3OL     H2S 6117   3.224   0.228   5.397 -0.0920  0.0274 -1.3605
    3OL     C13 6118   3.061   0.268   5.260 -0.1465 -0.3174  0.3441
    3OL     H3R 6119   3.067   0.159   5.248  2.9494  0.0405 -3.2983
    3OL     H3S 6120   3.111   0.304   5.170  2.3887 -0.6336  1.5495
    3OL     C14 6121   2.921   0.330   5.256  0.0879  0.1779 -0.3539
    3OL     H4R 6122   2.933   0.438   5.256  1.7062  0.0278  0.0922
    3OL     H4S 6123   2.870   0.302   5.349  0.5767  0.3109 -0.0433
    3OL     C15 6124   2.843   0.270   5.138 -0.2240 -0.4928  0.1842
    3OL     H5R 6125   2.910   0.247   5.055  0.1643 -0.7596  0.5635
    3OL     H5S 6126   2.761   0.336   5.113  1.4999  1.6555 -0.0935
    3OL     C16 6127   2.788   0.132   5.179  0.2169 -0.7064  0.0671
    3OL     H6R 6128   2.748   0.149   5.279  0.0720 -0.8298  0.0300
    3OL     H6S 6129   2.866   0.056   5.187 -1.1191 -2.2460 -0.8915
    3OL     C17 6130   2.681   0.079   5.083  0.0142 -0.2541  0.0407
    3OL     H7R 6131   2.671  -0.029   5.095  1.1117 -0.0669  3.6940
    3OL     H7S 6132   2.716   0.089   4.980  2.2765 -1.6230  0.6082
    3OL     C18 6133   2.537   0.133   5.093 -0.0584 -0.4053 -0.1726
    3OL     H8R 6134   2.539   0.242   5.093 -0.4029 -0.4010 -0.2530
    3OL     H8S 6135   2.489   0.091   5.182 -1.8080 -0.4122 -1.0863
    3OL     C19 6136   2.456   0.091   4.973 -0.4416 -0.6142  0.1564
    3OL     H9R 6137   2.424  -0.012   4.969  1.2485 -1.2496  1.7208
    3OL    C110 6138   2.435   0.171   4.870 -0.2346 -0.7238  0.0285
    3OL    H10R 6139   2.369   0.132   4.792 -0.5157  0.8143 -0.5499
    3OL    C111 6140   2.477   0.315   4.856  0.2075 -0.8672 -0.1251
    3OL    H11R 6141   2.575   0.331   4.902  0.8825  0.7962 -2.0063
    3OL    H11S 6142   2.413   0.380   4.916  2.7766  2.5293 -0.7600
    3OL    C112 6143   2.472   0.368   4.713 -0.1391  1.0748  0.5725
    3OL    H12R 6144   2.526   0.299   4.648 -2.8945 -0.0673 -0.6665
    3OL    H12S 6145   2.530   0.461   4.713 -0.8539  1.5440 -0.3632
    3OL    C113 6146   2.331   0.375   4.654 -0.0647 -0.3641  0.1791
    3OL    H13R 6147   2.286   0.279   4.678  2.9210 -2.3003 -1.3863
    3OL    H13S 6148   2.332   0.391   4.546  1.7810  0.6434  0.3198
    3OL    C114 6149   2.234   0.474   4.722  0.1250 -0.0818  0.0415
    3OL    H14R 6150   2.273   0.565   4.676 -0.6449 -1.3538 -3.5026
    3OL    H14S 6151   2.241   0.482   4.831  1.1110  1.5448 -0.1038
    3OL    C115 6152   2.089   0.456   4.674  0.0694  0.0769  0.1516
    3OL    H15R 6153   2.065   0.350   4.669 -0.2461 -0.0540  2.8442
    3OL    H15S 6154   2.091   0.483   4.569  0.8953  0.3543  0.2275
    3OL    C116 6155   1.983   0.529   4.757 -0.1492 -0.4893  0.3762
    3OL    H16R 6156   2.026   0.630   4.759  1.5693 -1.0737 -2.0637
    3OL    H16S 6157   1.989   0.495   4.861  2.0688  0.1100  0.4839
    3OL    C117 6158   1.844   0.511   4.695 -0.0306  0.0374 -0.0443
    3OL    H17R 6159   1.760   0.544   4.756 -0.5271  0.1376 -0.7683
    3OL    H17S 6160   1.823   0.410   4.660 -2.8137  0.8276 -0.9161
    3OL    C118 6161   1.828   0.592   4.565  0.4677  0.2094 -0.0002
    3OL    H18R 6162   1.900   0.566   4.487  1.0112 -0.1700  0.6153
    3OL    H18S 6163   1.851   0.697   4.584  0.2296  0.3120 -0.2708
    3OL    H18T 6164   1.723   0.594   4.533  0.5076 -0.5365 -0.1981
    1PA    C116 6165   4.660   1.442   4.095 -0.7327  0.0152 -0.2417
    1PA    H16R 6166   4.648   1.531   4.033 -1.0980  0.1129 -0.0318
    1PA    H16S 6167   4.574   1.375   4.092 -0.8533  0.1443  0.1692
    1PA    H16T 6168   4.734   1.380   4.044  0.7019  1.8068 -0.4304
    1PA    C115 6169   4.701   1.485   4.237  0.3428  0.0788 -0.5671
    1PA    H15R 6170   4.692   1.400   4.304 -1.0412  2.1301  2.0269
    1PA    H15S 6171   4.809   1.504   4.232  0.5630 -1.0903 -0.4721
    1PA    C114 6172   4.621   1.605   4.287  0.4786  0.0148 -0.1935
    1PA    H14R 6173   4.621   1.683   4.211 -2.3614  0.0125 -0.3230
    1PA    H14S 6174   4.518   1.570   4.303  0.1604  1.4442  1.1595
    1PA    C113 6175   4.683   1.668   4.412 -0.0019  0.1502 -0.0197
    1PA    H13R 6176   4.785   1.690   4.380 -0.4522 -0.0052 -1.6277
    1PA    H13S 6177   4.626   1.756   4.444  0.2218  0.1057  0.5158
    1PA    C112 6178   4.678   1.581   4.538 -0.1939  0.4950  0.2140
    1PA    H12R 6179   4.575   1.548   4.552 -0.6746  2.3188  1.2450
    1PA    H12S 6180   4.740   1.497   4.506 -0.4067  0.4939 -0.1954
    1PA    C111 6181   4.728   1.643   4.669  0.1185  0.1673  0.2534
    1PA    H11R 6182   4.830   1.677   4.649 -0.5397  0.8488 -2.2611
    1PA    H11S 6183   4.663   1.729   4.689 -3.7683 -2.0009 -1.8493
    1PA    C110 6184   4.725   1.547   4.789  0.0326 -0.3456 -0.1566
    1PA    H10R 6185   4.624   1.514   4.814  0.3374 -0.2291  1.3097
    1PA    H10S 6186   4.785   1.457   4.772  0.0681 -0.6121  1.2674
    1PA     C19 6187   4.772   1.618   4.917  0.2214  0.1965 -0.5259
    1PA     H9R 6188   4.732   1.720   4.917  0.3942  0.2632 -0.2833
    1PA     H9S 6189   4.736   1.572   5.009  0.9853 -1.3035 -0.9547
    1PA     C18 6190   4.924   1.633   4.924  0.2124  0.1470 -0.2104
    1PA     H8R 6191   4.963   1.531   4.931  0.8329  0.2832 -1.3813
    1PA     H8S 6192   4.962   1.683   4.834 -0.8985 -0.4997 -1.0733
    1PA     C17 6193   4.950   1.721   5.046 -0.1723 -0.0527  0.0151
    1PA     H7R 6194   4.908   1.822   5.036  0.0068 -0.0426 -0.6677
    1PA     H7S 6195   4.894   1.688   5.134 -2.8372  1.4713 -0.9824
    1PA     C16 6196   5.101   1.724   5.075 -0.1416  0.4075 -0.1716
    1PA     H6R 6197   5.134   1.634   5.129  2.4728  0.5498 -1.4190
    1PA     H6S 6198   5.149   1.741   4.979  0.6627 -0.3027  0.0930
    1PA     C15 6199   5.129   1.841   5.170  0.1345  0.3182 -0.1427
    1PA     H5R 6200   5.234   1.869   5.154  0.0584  1.8610  1.6290
    1PA     H5S 6201   5.069   1.931   5.153  1.7067  1.2635 -0.8992
    1PA     C14 6202   5.120   1.803   5.318  0.0313  0.1827 -0.1849
    1PA     H4R 6203   5.013   1.791   5.338  0.0633 -1.4812 -0.8288
    1PA     H4S 6204   5.166   1.707   5.343  1.7995  0.9642 -0.3555
    1PA     C13 6205   5.165   1.920   5.406 -0.3100  0.2327 -0.0732
    1PA     H3R 6206   5.273   1.933   5.400 -0.2231 -0.7351 -0.9680
    1PA     H3S 6207   5.114   2.009   5.369 -0.5969 -0.5451 -1.6189
    1PA     C12 6208   5.128   1.901   5.554 -0.7646 -0.1207 -0.2291
    1PA     H2R 6209   5.022   1.902   5.577 -0.5205  1.3917  0.9848
    1PA     H2S 6210   5.169   1.802   5.579  1.6814 -0.1578 -3.6206
    2PC     C11 6211   5.179   2.019   5.633  0.0868 -0.0728 -0.8325
    2PC     O12 6212   5.126   2.127   5.648  0.8342  0.2310 -0.3178
    2PC     O11 6213   5.299   1.987   5.685 -0.2083 -0.1474 -0.1865
    2PC      C1 6214   5.386   2.083   5.749 -0.3847 -0.2299  0.1786
    2PC      HR 6215   5.432   2.134   5.664  0.2463 -0.1426  0.5607
    2PC      HS 6216   5.322   2.150   5.807 -0.5760  2.0043 -2.4571
    2PC      C2 6217   5.491   2.004   5.829 -0.1020 -0.2631 -0.2223
    2PC      HX 6218   5.440   1.942   5.903  1.0320  0.0449  0.8432
    2PC      C3 6219   5.588   2.101   5.897 -0.2393 -0.1890 -0.1310
    2PC      HA 6220   5.685   2.112   5.846  1.3882  0.0722  2.8186
    2PC      HB 6221   5.538   2.192   5.931  1.5195  0.5203  0.6975
    2PC     O31 6222   5.623   2.039   6.022  0.2833 -0.6572 -0.5032
    2PC     P31 6223   5.707   2.124   6.129 -0.2795 -0.4500 -0.2212
    2PC     O32 6224   5.801   2.017   6.202  0.2176 -0.2620 -0.5820
    2PC     C31 6225   5.742   1.935   6.304  0.2249 -0.0180 -0.3791
    2PC     H1A 6226   5.713   2.000   6.387  0.4554 -1.2520  0.7054
    2PC     H1B 6227   5.649   1.884   6.277 -0.5318  0.5402  1.0487
    2PC     C32 6228   5.844   1.828   6.347  0.0313 -0.2617 -0.5202
    2PC     H2A 6229   5.823   1.799   6.450 -2.6970 -1.5346 -1.3517
    2PC     H2B 6230   5.840   1.735   6.290  0.3850 -0.5710 -0.0494
    2PC     N31 6231   5.990   1.864   6.345  0.0388 -0.1473  0.8445
    2PC     C33 6232   6.076   1.777   6.431  0.8825  0.2122  0.3745
    2PC     H3A 6233   6.037   1.780   6.533  0.0090 -0.0435  0.0605
    2PC     H3B 6234   6.084   1.681   6.379 -0.3136  0.9626 -1.3076
    2PC     H3C 6235   6.169   1.833   6.435 -0.5998  2.7507  2.2811
    2PC     C34 6236   6.047   1.858   6.206 -0.3436 -0.5601  0.7041
    2PC     H4A 6237   6.031   1.758   6.165 -1.3224  0.2497 -1.0209
    2PC     H4B 6238   5.975   1.919   6.152  0.9156  1.2751  1.0082
    2PC     H4C 6239   6.150   1.892   6.209 -0.4454 -0.2785  1.0512
    2PC     C35 6240   6.015   2.000   6.402 -0.2021  0.2181  0.0970
    2PC     H5A 6241   6.121   1.996   6.429  0.4682 -0.2639 -2.3783
    2PC     H5B 6242   5.952   2.018   6.489 -0.2186  1.8809 -0.2228
    2PC     H5C 6243   5.991   2.080   6.331 -1.0352 -0.0339  0.0827
    2PC     O33 6244   5.813   2.212   6.076 -0.2952 -0.1959  0.1672
    2PC     O34 6245   5.624   2.197   6.228  0.0894 -0.6648  0.2481
    2PC     O21 6246   5.556   1.911   5.740  0.5981 -0.0622  0.0729
    2PC     C21 6247   5.638   1.951   5.642 -0.0691 -0.0025 -0.4689
    2PC     O22 6248   5.687   2.062   5.633 -0.0288 -0.0473 -0.8093
    3OL     C12 6249   5.695   1.837   5.562 -0.0504 -0.5696  0.3431
    3OL     H2R 6250   5.694   1.754   5.633 -0.0419 -0.4293  0.5078
    3OL     H2S 6251   5.796   1.863   5.529 -0.6548  1.2822 -0.1491
    3OL     C13 6252   5.602   1.801   5.445  0.1694 -0.1079  0.0256
    3OL     H3R 6253   5.602   1.864   5.356  1.0051  0.4013  0.3738
    3OL     H3S 6254   5.499   1.805   5.479  0.0799  1.1565 -0.3221
    3OL     C14 6255   5.635   1.661   5.392 -0.4023 -0.3007  0.1791
    3OL     H4R 6256   5.601   1.596   5.473 -2.6462  2.3158  1.4982
    3OL     H4S 6257   5.741   1.654   5.369  0.2537  2.3002  2.0287
    3OL     C15 6258   5.554   1.615   5.270 -0.2265 -0.3176  0.0683
    3OL     H5R 6259   5.584   1.679   5.186  0.4126 -1.5062 -0.6392
    3OL     H5S 6260   5.449   1.621   5.298  0.1715 -1.5136  2.0010
    3OL     C16 6261   5.574   1.470   5.221  0.2914 -0.2676  0.1308
    3OL     H6R 6262   5.493   1.441   5.155  0.1300 -0.0691  0.2391
    3OL     H6S 6263   5.563   1.408   5.310 -1.7801 -0.3410 -0.1364
    3OL     C17 6264   5.704   1.445   5.144  0.0025 -0.1577 -0.3934
    3OL     H7R 6265   5.789   1.463   5.209  0.2676 -1.5156 -0.3259
    3OL     H7S 6266   5.711   1.522   5.066 -2.9648 -0.6998 -1.3289
    3OL     C18 6267   5.694   1.307   5.077  0.4557 -0.3772 -0.0133
    3OL     H8R 6268   5.606   1.318   5.014 -0.3554 -0.5882  1.0473
    3OL     H8S 6269   5.669   1.235   5.156 -1.7201  2.4963  2.1390
    3OL     C19 6270   5.824   1.263   5.015  0.5041  0.2014 -0.3233
    3OL     H9R 6271   5.909   1.272   5.081 -0.1549  0.2875  0.5341
    3OL    C110 6272   5.829   1.202   4.897  0.1807  0.4898 -0.4905
    3OL    H10R 6273   5.931   1.185   4.863  0.9670  3.3314  0.1033
    3OL    C111 6274   5.715   1.170   4.804 -0.1370  0.0053  0.0650
    3OL    H11R 6275   5.682   1.259   4.752 -1.1799 -0.9161 -0.9044
    3OL    H11S 6276   5.624   1.144   4.859  0.2983  1.2765  1.4674
    3OL    C112 6277   5.756   1.069   4.696  0.1222 -0.0825  0.2446
    3OL    H12R 6278   5.796   0.985   4.755  1.5700  0.9144  0.7403
    3OL    H12S 6279   5.834   1.113   4.634 -0.2899 -1.1165 -1.0653
    3OL    C113 6280   5.643   1.015   4.607 -0.4017  0.3434  0.6482
    3OL    H13R 6281   5.554   1.011   4.670 -2.4690  1.4417 -2.0135
    3OL    H13S 6282   5.667   0.918   4.565 -0.9932  0.2249  0.5680
    3OL    C114 6283   5.625   1.114   4.491  0.5702 -0.5122 -0.2504
    3OL    H14R 6284   5.717   1.105   4.434  1.7554  1.7304  1.1406
    3OL    H14S 6285   5.609   1.213   4.534 -0.5175 -1.1895  0.9757
    3OL    C115 6286   5.516   1.076   4.390  0.0702  0.0850  0.0568
    3OL    H15R 6287   5.414   1.065   4.426 -0.1524 -1.4641 -0.9543
    3OL    H15S 6288   5.548   0.976   4.359  0.2586  0.1176  0.1463
    3OL    C116 6289   5.518   1.155   4.258  0.3133 -0.0722 -0.0353
    3OL    H16R 6290   5.615   1.188   4.220  0.3653  1.1664  1.0976
    3OL    H16S 6291   5.460   1.246   4.277  0.6466 -0.1982  1.7946
    3OL    C117 6292   5.443   1.080   4.147 -0.0156  0.4297 -0.1532
    3OL    H17R 6293   5.417   1.152   4.069  2.4881  0.9520 -0.5960
    3OL    H17S 6294   5.342   1.052   4.179 -0.5901  1.3664 -1.0715
    3OL    C118 6295   5.534   0.977   4.080  0.0345  0.0326  0.5188
    3OL    H18R 6296   5.469   0.915   4.017 -1.1479  0.6338  1.1137
    3OL    H18S 6297   5.581   0.908   4.151 -2.2767  0.3963  2.5667
    3OL    H18T 6298   5.610   1.026   4.019  1.4704 -0.0539  2.1402
    1PA    C116 6299   3.857   4.221   4.366 -0.2119  0.5004  0.1823
    1PA    H16R 6300   3.896   4.301   4.430  2.5227  0.5223 -1.3195
    1PA    H16S 6301   3.791   4.151   4.416  0.6244 -0.3974  0.0701
    1PA    H16T 6302   3.793   4.267   4.291  0.4464 -0.2290 -0.8595
    1PA    C115 6303   3.983   4.162   4.300 -0.2558  0.4110  0.1793
    1PA    H15R 6304   4.026   4.101   4.380 -0.8909 -1.6365 -0.9706
    1PA    H15S 6305   3.946   4.098   4.220  0.2631 -1.1127  1.1144
    1PA    C114 6306   4.078   4.272   4.251  0.4035 -0.3331 -0.2276
    1PA    H14R 6307   4.028   4.341   4.184  2.7434  2.3420  0.5924
    1PA    H14S 6308   4.116   4.341   4.326 -0.9441  1.4604 -1.1352
    1PA    C113 6309   4.206   4.214   4.187  0.3212 -0.4017 -0.3318
    1PA    H13R 6310   4.167   4.134   4.124 -0.2782 -0.9185  0.6543
    1PA    H13S 6311   4.249   4.284   4.116 -0.5067 -0.5395 -0.9844
    1PA    C112 6312   4.319   4.164   4.279 -0.0045 -0.3971  0.0762
    1PA    H12R 6313   4.296   4.148   4.384 -0.0934  1.2686  0.3487
    1PA    H12S 6314   4.368   4.073   4.245  1.1836 -0.4151  1.7762
    1PA    C111 6315   4.433   4.266   4.285 -0.2351 -0.1630  0.5193
    1PA    H11R 6316   4.470   4.296   4.187  1.1039  0.0679  1.0762
    1PA    H11S 6317   4.395   4.359   4.329 -0.7036  0.0320 -0.2909
    1PA    C110 6318   4.542   4.224   4.384 -0.1502  0.2440  0.6012
    1PA    H10R 6319   4.499   4.230   4.484 -0.9329 -0.7425  0.3347
    1PA    H10S 6320   4.563   4.120   4.360 -1.2857 -0.2489  1.6149
    1PA     C19 6321   4.673   4.304   4.368 -0.0515 -0.0861 -0.2640
    1PA     H9R 6322   4.722   4.282   4.273 -1.4151 -0.9728 -0.8035
    1PA     H9S 6323   4.634   4.406   4.365 -1.9251 -0.6990  1.0427
    1PA     C18 6324   4.773   4.282   4.482  0.2348 -0.1174 -0.5214
    1PA     H8R 6325   4.732   4.301   4.581 -0.1348 -0.9900 -0.5054
    1PA     H8S 6326   4.802   4.177   4.483  1.4530  0.1923  1.2671
    1PA     C17 6327   4.904   4.362   4.467  0.1116  0.1602 -0.1132
    1PA     H7R 6328   4.948   4.354   4.368  0.4501  0.8981 -0.0265
    1PA     H7S 6329   4.878   4.465   4.492  0.2093 -0.1548  1.4497
    1PA     C16 6330   5.004   4.310   4.571 -0.0392  0.5382  0.2278
    1PA     H6R 6331   4.954   4.291   4.666  0.3709 -1.5658  0.0790
    1PA     H6S 6332   5.050   4.214   4.546 -2.6309 -0.1461 -2.5002
    1PA     C15 6333   5.114   4.414   4.597  0.1862  0.2034  0.6354
    1PA     H5R 6334   5.196   4.406   4.526  2.5419  1.0939  3.0942
    1PA     H5S 6335   5.080   4.517   4.585 -1.2673 -0.5771 -3.4398
    1PA     C14 6336   5.184   4.403   4.733  1.1034  0.9657  0.2325
    1PA     H4R 6337   5.185   4.296   4.758  1.0497  1.3260  1.9098
    1PA     H4S 6338   5.289   4.432   4.734  0.9185  1.6308  1.4077
    1PA     C13 6339   5.121   4.486   4.845  0.1973 -0.1044  0.5322
    1PA     H3R 6340   5.137   4.591   4.822 -1.5493  0.2436  0.7236
    1PA     H3S 6341   5.015   4.458   4.852  0.2996 -1.1109 -1.3442
    1PA     C12 6342   5.189   4.480   4.982  1.1164  0.1308  0.0931
    1PA     H2R 6343   5.222   4.380   5.012 -0.3393 -0.1779  0.7743
    1PA     H2S 6344   5.283   4.535   4.972  1.8089 -0.3546  2.9702
    2PC     C11 6345   5.100   4.542   5.087  0.6850 -0.0594 -0.1582
    2PC     O12 6346   4.996   4.602   5.072  0.7568  0.1709  0.2432
    2PC     O11 6347   5.167   4.533   5.203 -0.0443  0.5400  0.3222
    2PC      C1 6348   5.106   4.554   5.332 -0.2385 -0.3657  0.3900
    2PC      HR 6349   5.044   4.644   5.341  0.3245  0.0082  0.6278
    2PC      HS 6350   5.035   4.472   5.344  0.4865 -1.8194 -3.5706
    2PC      C2 6351   5.205   4.554   5.449 -0.1295 -0.0127  0.3006
    2PC      HX 6352   5.278   4.473   5.448 -0.2763 -0.1470  0.4166
    2PC      C3 6353   5.138   4.556   5.587 -0.3329 -0.1335  0.2042
    2PC      HA 6354   5.060   4.632   5.597 -0.4277 -0.2579  0.4298
    2PC      HB 6355   5.093   4.458   5.603  0.4476 -0.5838 -0.3238
    2PC     O31 6356   5.246   4.579   5.680 -0.2068  0.3312 -0.0538
    2PC     P31 6357   5.206   4.545   5.831  0.1608  0.1365 -0.0015
    2PC     O32 6358   5.322   4.449   5.887 -0.0159  0.0397  0.1999
    2PC     C31 6359   5.441   4.508   5.944  0.1717 -0.0454 -0.0996
    2PC     H1A 6360   5.494   4.560   5.865 -0.2216  0.1928 -0.2069
    2PC     H1B 6361   5.420   4.587   6.017  1.0439 -0.3842  0.5366
    2PC     C32 6362   5.522   4.396   6.009  0.3303  0.5795  0.8007
    2PC     H2A 6363   5.580   4.341   5.935 -1.5088  0.8084 -0.8790
    2PC     H2B 6364   5.597   4.439   6.076  0.8296  0.4646  0.3199
    2PC     N31 6365   5.452   4.286   6.083  0.1207  0.0375 -0.1857
    2PC     C33 6366   5.348   4.343   6.176  0.2876  0.5684 -0.3200
    2PC     H3A 6367   5.269   4.400   6.129 -0.3525  1.6436  1.9513
    2PC     H3B 6368   5.305   4.272   6.248  0.6420  0.5925 -0.0794
    2PC     H3C 6369   5.418   4.403   6.235  0.1892  0.8244 -0.4647
    2PC     C34 6370   5.395   4.190   5.983  0.2204  0.2806 -0.4774
    2PC     H4A 6371   5.330   4.249   5.919  1.2061 -1.3629 -3.1330
    2PC     H4B 6372   5.479   4.172   5.916  1.2148  1.9453  0.2600
    2PC     H4C 6373   5.335   4.107   6.020  1.1395 -0.0144  0.4231
    2PC     C35 6374   5.551   4.203   6.159 -0.1364  0.1556  0.2886
    2PC     H5A 6375   5.639   4.193   6.094  0.0229  1.3784  0.2744
    2PC     H5B 6376   5.511   4.112   6.202 -1.3336  0.5584  0.0692
    2PC     H5C 6377   5.578   4.258   6.249  0.7201 -3.0511  2.1277
    2PC     O33 6378   5.202   4.676   5.900 -0.2999  0.2398 -0.2254
    2PC     O34 6379   5.065   4.506   5.855  0.1946  0.1514  0.2271
    2PC     O21 6380   5.295   4.666   5.440 -0.0745 -0.0907 -0.1283
    2PC     C21 6381   5.248   4.792   5.434 -0.2432 -0.1388  0.1527
    2PC     O22 6382   5.134   4.830   5.452 -0.0919  0.1935  0.4293
    3OL     C12 6383   5.362   4.881   5.391  0.1535 -1.0422 -0.6988
    3OL     H2R 6384   5.453   4.821   5.397 -0.8365 -2.6700 -1.4001
    3OL     H2S 6385   5.377   4.954   5.471 -0.5698 -1.1277 -0.4759
    3OL     C13 6386   5.342   4.960   5.260  0.3732 -0.1196 -0.1886
    3OL     H3R 6387   5.352   5.065   5.288 -0.1463 -0.2486  0.5063
    3OL     H3S 6388   5.242   4.952   5.218  0.0271  0.2219  0.5536
    3OL     C14 6389   5.441   4.916   5.151  0.2004 -0.2410 -0.2966
    3OL     H4R 6390   5.538   4.885   5.190  0.6073  1.0447 -0.2251
    3OL     H4S 6391   5.466   4.991   5.076  0.1964 -1.3090 -1.3931
    3OL     C15 6392   5.400   4.794   5.068 -0.0785 -0.1566 -0.2866
    3OL     H5R 6393   5.310   4.812   5.009  0.9882  0.4227 -1.7914
    3OL     H5S 6394   5.381   4.707   5.132  0.7433 -0.7595 -0.8444
    3OL     C16 6395   5.511   4.746   4.973  0.1685 -0.0652 -0.0446
    3OL     H6R 6396   5.484   4.654   4.922 -2.1992  1.0333 -0.9214
    3OL     H6S 6397   5.609   4.736   5.021  0.9344  0.0144 -1.5505
    3OL     C17 6398   5.525   4.845   4.857 -0.2064 -0.5968 -0.5447
    3OL     H7R 6399   5.566   4.934   4.905  0.2064 -1.2010  0.2524
    3OL     H7S 6400   5.428   4.871   4.813 -0.9653 -1.3942  0.6181
    3OL     C18 6401   5.622   4.798   4.748  0.2809 -0.5707 -0.1235
    3OL     H8R 6402   5.578   4.714   4.694 -0.2155 -0.5873  0.3092
    3OL     H8S 6403   5.703   4.759   4.810  0.7716 -1.5339 -1.3321
    3OL     C19 6404   5.661   4.920   4.669 -0.6242 -0.2113 -0.0241
    3OL     H9R 6405   5.587   5.000   4.673 -1.3404 -0.9085  2.6532
    3OL    C110 6406   5.764   4.926   4.586 -0.1928 -0.5816  0.4750
    3OL    H10R 6407   5.787   5.016   4.528  2.2875 -1.0881  0.5864
    3OL    C111 6408   5.867   4.817   4.570  0.0166 -0.3643  0.3299
    3OL    H11R 6409   5.826   4.724   4.609 -0.3824 -2.3815 -4.2738
    3OL    H11S 6410   5.963   4.842   4.615 -0.1783  2.4536 -0.5823
    3OL    C112 6411   5.893   4.796   4.420 -0.1453 -0.6243  0.3378
    3OL    H12R 6412   5.914   4.888   4.365 -0.7472 -1.3016 -1.0541
    3OL    H12S 6413   5.804   4.757   4.372 -0.3781 -0.1619  0.3869
    3OL    C113 6414   6.015   4.706   4.397 -0.2221 -0.6205 -0.0875
    3OL    H13R 6415   5.994   4.612   4.448  2.7482 -0.9554  0.7038
    3OL    H13S 6416   6.094   4.765   4.445 -0.7066 -0.3222  0.3516
    3OL    C114 6417   6.048   4.681   4.249 -0.2181 -0.0829 -0.1800
    3OL    H14R 6418   5.950   4.671   4.201 -0.1427  0.4278 -0.4470
    3OL    H14S 6419   6.103   4.587   4.248  0.6992  0.4358  0.3553
    3OL    C115 6420   6.133   4.791   4.185 -0.4128 -0.1770 -0.6049
    3OL    H15R 6421   6.220   4.819   4.245 -2.4104  0.4879  2.1655
    3OL    H15S 6422   6.076   4.884   4.170  0.9975  0.9001  0.4424
    3OL    C116 6423   6.184   4.732   4.053  0.0509 -0.5625 -0.2538
    3OL    H16R 6424   6.094   4.715   3.994 -1.6246  1.0992  1.6740
    3OL    H16S 6425   6.234   4.636   4.067 -0.7528 -1.2989 -2.1247
    3OL    C117 6426   6.273   4.835   3.981 -0.3071  0.1560  0.3170
    3OL    H17R 6427   6.353   4.878   4.041 -0.9356  0.4793  0.9344
    3OL    H17S 6428   6.215   4.922   3.950  0.1167 -0.0244 -1.0488
    3OL    C118 6429   6.336   4.763   3.861 -0.2082 -0.1331  0.5402
    3OL    H18R 6430   6.379   4.836   3.793 -0.5097 -1.0581 -0.6909
    3OL    H18S 6431   6.258   4.706   3.809 -0.3430  0.0420  0.5486
    3OL    H18T 6432   6.422   4.700   3.884  1.3456  1.8009  0.2699
    1PA    C116 6433   5.810   3.927   3.822 -0.7999  0.3065  0.2601
    1PA    H16R 6434   5.811   3.984   3.729 -2.5127 -1.7641 -1.1467
    1PA    H16S 6435   5.703   3.922   3.845 -1.3035 -0.7772 -1.9795
    1PA    H16T 6436   5.855   3.828   3.812  2.8544  1.9109 -0.7166
    1PA    C115 6437   5.871   3.990   3.948  0.1546  0.0847 -0.0850
    1PA    H15R 6438   5.862   3.914   4.026 -3.4092  0.5678  0.1334
    1PA    H15S 6439   5.975   4.004   3.918  0.3933 -1.2460  0.0543
    1PA    C114 6440   5.796   4.115   3.996 -0.1016  0.0709 -0.4483
    1PA    H14R 6441   5.804   4.198   3.926  1.6165  0.1741 -0.1659
    1PA    H14S 6442   5.689   4.096   4.010  0.0104 -2.2933 -2.1507
    1PA    C113 6443   5.844   4.172   4.130  0.0143 -0.8184 -0.1078
    1PA    H13R 6444   5.780   4.255   4.159 -0.4029 -1.2116  0.1201
    1PA    H13S 6445   5.834   4.093   4.205  2.7254 -0.0223  1.1983
    1PA    C112 6446   5.985   4.230   4.126 -0.3941  0.2004  0.0151
    1PA    H12R 6447   6.061   4.165   4.082  0.2646  0.5207  0.6596
    1PA    H12S 6448   5.993   4.323   4.070  1.7447  1.1613  1.7256
    1PA    C111 6449   6.031   4.270   4.267  0.1910 -0.3207 -0.0201
    1PA    H11R 6450   5.973   4.354   4.306  0.1993 -1.0187  1.5496
    1PA    H11S 6451   6.013   4.193   4.342  1.5527 -2.2691 -1.5864
    1PA    C110 6452   6.176   4.318   4.282 -0.1529  0.6903  0.1997
    1PA    H10R 6453   6.236   4.228   4.264 -0.8079  0.2208  0.3520
    1PA    H10S 6454   6.204   4.386   4.201  0.6824  1.0314  0.7670
    1PA     C19 6455   6.204   4.374   4.422 -0.1797 -0.1937  0.5676
    1PA     H9R 6456   6.122   4.439   4.452 -2.4193 -2.4131 -0.3608
    1PA     H9S 6457   6.215   4.292   4.492 -0.2272 -1.5920 -1.0016
    1PA     C18 6458   6.342   4.441   4.417 -0.3970  0.2243  0.0592
    1PA     H8R 6459   6.411   4.371   4.369  2.3125  2.5628  0.2424
    1PA     H8S 6460   6.342   4.529   4.352  2.1343  0.4270  0.2309
    1PA     C17 6461   6.399   4.476   4.555  0.0205  0.5271 -0.1879
    1PA     H7R 6462   6.360   4.575   4.578 -0.0939  0.7264 -1.1634
    1PA     H7S 6463   6.365   4.400   4.625  1.3477 -1.4261 -1.5432
    1PA     C16 6464   6.552   4.490   4.564  0.0685 -0.0694 -0.0271
    1PA     H6R 6465   6.605   4.395   4.570  0.7354  0.0484 -2.9579
    1PA     H6S 6466   6.597   4.545   4.481 -1.2384  1.2038  0.0604
    1PA     C15 6467   6.591   4.579   4.684  0.5413 -0.1826 -0.0964
    1PA     H5R 6468   6.687   4.628   4.670  1.8803 -2.3875  0.7837
    1PA     H5S 6469   6.521   4.661   4.701  0.2590 -0.8383  2.2752
    1PA     C14 6470   6.610   4.503   4.816 -0.1128  0.1114  0.1715
    1PA     H4R 6471   6.524   4.443   4.842  0.0298  0.1299  0.6980
    1PA     H4S 6472   6.698   4.439   4.805 -0.4814 -0.2572 -0.6213
    1PA     C13 6473   6.630   4.594   4.938  0.3496 -0.1955  0.3256
    1PA     H3R 6474   6.638   4.517   5.015 -0.8294 -0.2096  0.4396
    1PA     H3S 6475   6.721   4.655   4.933 -0.5141  1.0205 -2.3275
    1PA     C12 6476   6.511   4.682   4.978  0.7287  0.6010 -0.2770
    1PA     H2R 6477   6.487   4.762   4.909 -0.6152  0.2848 -0.1944
    1PA     H2S 6478   6.427   4.612   4.978  1.4184 -0.2487  0.0004
    2PC     C11 6479   6.519   4.740   5.118  0.0333 -0.4401  0.2060
    2PC     O12 6480   6.615   4.721   5.190  0.3286 -0.6748 -0.2393
    2PC     O11 6481   6.405   4.795   5.162  0.1096 -0.1457  0.0420
    2PC      C1 6482   6.384   4.812   5.303  0.8161 -0.1978  0.1586
    2PC      HR 6483   6.392   4.716   5.354  1.2038 -0.2181  0.0628
    2PC      HS 6484   6.462   4.880   5.339  1.3608 -0.3296 -0.7416
    2PC      C2 6485   6.239   4.858   5.327  0.8543 -0.2009  0.3961
    2PC      HX 6486   6.211   4.943   5.266 -0.8074 -1.1664 -0.2523
    2PC      C3 6487   6.220   4.905   5.472  0.3321  0.4116  0.1337
    2PC      HA 6488   6.252   5.008   5.489 -0.0504  0.9176 -1.9520
    2PC      HB 6489   6.113   4.905   5.495  0.7584 -0.9335  2.4892
    2PC     O31 6490   6.273   4.812   5.568 -0.1303 -0.1929 -0.1949
    2PC     P31 6491   6.241   4.833   5.724 -0.0634  0.2364 -0.2391
    2PC     O32 6492   6.310   4.702   5.785 -0.0716  0.3667  0.0539
    2PC     C31 6493   6.437   4.654   5.738 -0.1629  0.4753 -0.3131
    2PC     H1A 6494   6.437   4.590   5.650 -0.1976 -0.1037  0.1021
    2PC     H1B 6495   6.502   4.743   5.733  1.8200 -0.7096  2.0319
    2PC     C32 6496   6.487   4.562   5.850  0.2093  0.1251 -0.7632
    2PC     H2A 6497   6.404   4.494   5.868  0.1851  0.2470 -0.4064
    2PC     H2B 6498   6.577   4.509   5.818  1.0125 -0.0171  1.4862
    2PC     N31 6499   6.500   4.615   5.990  0.3513 -0.1359 -0.6766
    2PC     C33 6500   6.548   4.758   5.990 -0.0586  0.0038 -0.3497
    2PC     H3A 6501   6.473   4.817   5.936  0.2310  1.2276  0.5527
    2PC     H3B 6502   6.564   4.792   6.092 -1.2848 -1.2931  0.3083
    2PC     H3C 6503   6.643   4.772   5.937  0.7449 -0.4803  0.9267
    2PC     C34 6504   6.364   4.613   6.053  0.5563  0.2905 -0.2129
    2PC     H4A 6505   6.302   4.680   5.992 -0.5998  0.7078  1.3557
    2PC     H4B 6506   6.329   4.510   6.057 -0.3065  0.6171  0.9248
    2PC     H4C 6507   6.367   4.643   6.158 -1.1197  0.7199 -0.2686
    2PC     C35 6508   6.589   4.526   6.071 -0.2014  0.0386  0.1291
    2PC     H5A 6509   6.533   4.434   6.088 -1.2895 -0.0948 -3.4334
    2PC     H5B 6510   6.589   4.579   6.167 -1.7691 -0.1662  0.2676
    2PC     H5C 6511   6.690   4.521   6.031 -0.0359 -1.7649  0.6727
    2PC     O33 6512   6.291   4.960   5.780  0.1278  0.3792 -0.7248
    2PC     O34 6513   6.102   4.838   5.774 -0.0010 -0.1863 -0.0176
    2PC     O21 6514   6.151   4.746   5.303  0.1161  0.2832  0.8066
    2PC     C21 6515   6.017   4.755   5.308  0.1224  0.4075  0.7570
    2PC     O22 6516   5.959   4.860   5.324  0.2144  0.5018  0.4730
    3OL     C12 6517   5.936   4.628   5.292  0.3929  0.2478  0.6432
    3OL     H2R 6518   5.940   4.572   5.385 -0.1061  1.2991  1.3185
    3OL     H2S 6519   5.977   4.580   5.203 -1.3832  1.2327 -0.7721
    3OL     C13 6520   5.787   4.649   5.262  0.4402 -0.0110  0.2231
    3OL     H3R 6521   5.774   4.700   5.166 -2.2050 -0.1609  0.4248
    3OL     H3S 6522   5.744   4.722   5.331 -0.9207 -0.2036 -0.4002
    3OL     C14 6523   5.699   4.523   5.256  0.0033  0.2852  0.3840
    3OL     H4R 6524   5.607   4.544   5.200  0.8789  1.1597 -0.7978
    3OL     H4S 6525   5.676   4.490   5.357 -1.3632  0.8597  0.2761
    3OL     C15 6526   5.772   4.407   5.187  0.0974  0.4428  0.2165
    3OL     H5R 6527   5.853   4.370   5.250 -1.2892 -0.5675  1.4778
    3OL     H5S 6528   5.825   4.441   5.098  1.1993 -1.3493  0.1351
    3OL     C16 6529   5.688   4.284   5.151  0.3465  0.6119 -0.9713
    3OL     H6R 6530   5.627   4.242   5.230  0.7736 -1.8056 -1.8387
    3OL     H6S 6531   5.749   4.195   5.131 -1.1516 -1.9233  4.1688
    3OL     C17 6532   5.600   4.308   5.027 -0.7160  0.4518 -0.2585
    3OL     H7R 6533   5.666   4.323   4.941  0.9958 -0.6049  0.8088
    3OL     H7S 6534   5.547   4.403   5.034  0.1760  1.0465 -1.2798
    3OL     C18 6535   5.509   4.186   5.007  0.2646 -0.3235 -0.0445
    3OL     H8R 6536   5.436   4.166   5.086  0.0951  1.6367  0.3452
    3OL     H8S 6537   5.566   4.092   5.003  0.6927 -0.1058  0.6577
    3OL     C19 6538   5.433   4.212   4.880  0.0611  0.0256  0.1489
    3OL     H9R 6539   5.418   4.319   4.868 -0.6655  0.1653  2.0351
    3OL    C110 6540   5.397   4.124   4.788  0.0171 -0.0297  0.2190
    3OL    H10R 6541   5.340   4.161   4.703  1.3383  1.5053 -0.0541
    3OL    C111 6542   5.418   3.975   4.791 -0.2896 -0.0713  0.3181
    3OL    H11R 6543   5.520   3.935   4.797 -0.4881 -2.1843 -5.0311
    3OL    H11S 6544   5.402   3.945   4.687 -1.7550  0.5023  0.3577
    3OL    C112 6545   5.311   3.896   4.869  0.0936 -0.0095  0.9122
    3OL    H12R 6546   5.215   3.900   4.817  0.5437  0.6713  0.0966
    3OL    H12S 6547   5.292   3.952   4.960 -1.3161  0.5974  0.2766
    3OL    C113 6548   5.345   3.747   4.883 -0.2699 -0.2680 -0.7151
    3OL    H13R 6549   5.448   3.756   4.918 -0.1795  2.1550 -1.3754
    3OL    H13S 6550   5.356   3.697   4.787  1.4539 -3.2192  0.8780
    3OL    C114 6551   5.256   3.684   4.991  0.4191  0.0187  0.0359
    3OL    H14R 6552   5.250   3.745   5.081 -0.3437 -1.3651  0.9535
    3OL    H14S 6553   5.302   3.586   5.005 -0.8234 -0.6335 -0.2761
    3OL    C115 6554   5.117   3.661   4.928  0.1509 -0.2104  0.7079
    3OL    H15R 6555   5.120   3.589   4.846 -0.0375  0.5190  0.0602
    3OL    H15S 6556   5.082   3.744   4.868  0.0699 -0.9230 -0.2469
    3OL    C116 6557   5.021   3.609   5.036  0.3252 -0.6750  0.6457
    3OL    H16R 6558   5.019   3.678   5.121 -1.0227 -0.7853  0.7291
    3OL    H16S 6559   5.068   3.526   5.088  0.2100 -0.6446  0.8020
    3OL    C117 6560   4.882   3.562   4.990  0.3025  0.1720 -0.1901
    3OL    H17R 6561   4.842   3.618   4.905  0.7122  0.7802  0.0142
    3OL    H17S 6562   4.810   3.574   5.071 -0.0371  2.9030 -0.8225
    3OL    C118 6563   4.876   3.411   4.960  0.8755  0.0433  0.3225
    3OL    H18R 6564   4.786   3.390   4.903  0.5486 -0.0604  0.8744
    3OL    H18S 6565   4.874   3.352   5.052  3.0977 -0.9643 -0.2132
    3OL    H18T 6566   4.968   3.388   4.906  1.4819  0.9140  0.9430
    1PA    C116 6567   4.889   6.364   3.534  0.7443  0.3724  0.9851
    1PA    H16R 6568   4.972   6.330   3.470 -1.0431  0.0099 -1.2950
    1PA    H16S 6569   4.895   6.473   3.539  1.6802  0.4099 -0.2621
    1PA    H16T 6570   4.799   6.340   3.477  0.4919  1.6991  0.7981
    1PA    C115 6571   4.880   6.297   3.672  0.1780 -0.2622  0.6487
    1PA    H15R 6572   4.777   6.300   3.706  0.5841 -1.4221  2.0589
    1PA    H15S 6573   4.906   6.192   3.659 -1.4699 -0.4487 -1.9547
    1PA    C114 6574   4.962   6.359   3.786  0.5570  0.4356  0.0099
    1PA    H14R 6575   5.064   6.321   3.775  0.9664  1.2041  1.0438
    1PA    H14S 6576   4.965   6.468   3.780  1.3196  0.4989  1.1711
    1PA    C113 6577   4.915   6.329   3.929  0.0773 -0.2015 -0.2793
    1PA    H13R 6578   4.982   6.367   4.005  0.1175 -1.5809  0.4041
    1PA    H13S 6579   4.824   6.384   3.952  0.6179  1.1878 -1.3149
    1PA    C112 6580   4.903   6.179   3.959 -0.5399 -0.0506  0.2526
    1PA    H12R 6581   4.811   6.149   3.908  0.5556 -0.2673 -1.6668
    1PA    H12S 6582   4.985   6.124   3.913 -0.2448 -1.0325  1.8805
    1PA    C111 6583   4.899   6.137   4.107  0.3788  0.7450  0.5131
    1PA    H11R 6584   4.903   6.028   4.100 -0.3421  0.7658 -0.4154
    1PA    H11S 6585   4.989   6.178   4.153  1.3582  0.1741 -0.8038
    1PA    C110 6586   4.769   6.170   4.181  0.1278  0.3944  0.2345
    1PA    H10R 6587   4.756   6.278   4.174 -0.7713  0.2509 -0.4891
    1PA    H10S 6588   4.686   6.117   4.134  0.7084  0.7612 -1.2801
    1PA     C19 6589   4.790   6.111   4.321 -0.7180 -0.0947  0.1613
    1PA     H9R 6590   4.834   6.011   4.318 -0.5144  0.0186 -1.9100
    1PA     H9S 6591   4.868   6.174   4.365  0.0464 -0.8409 -0.1092
    1PA     C18 6592   4.657   6.099   4.396 -0.7470 -0.6642  0.0203
    1PA     H8R 6593   4.615   6.195   4.426  4.2331  1.9663 -0.5502
    1PA     H8S 6594   4.587   6.055   4.325 -2.6407 -0.6058  1.7427
    1PA     C17 6595   4.678   6.009   4.519  0.0487 -0.3000  0.1524
    1PA     H7R 6596   4.721   5.912   4.491 -3.1434 -2.3613  1.8216
    1PA     H7S 6597   4.741   6.066   4.588  0.5518 -0.5943 -0.0521
    1PA     C16 6598   4.546   5.977   4.590 -0.1586 -0.1305 -0.1520
    1PA     H6R 6599   4.482   6.060   4.619 -0.4395 -0.1121 -0.8120
    1PA     H6S 6600   4.483   5.918   4.523  1.2792 -0.7955 -0.9779
    1PA     C15 6601   4.575   5.888   4.713  0.4943  0.2141 -0.0528
    1PA     H5R 6602   4.650   5.813   4.686  0.5761  0.7727 -1.5160
    1PA     H5S 6603   4.625   5.955   4.784 -1.0854  1.8011 -0.3674
    1PA     C14 6604   4.445   5.833   4.772  0.3363  0.4480 -0.1757
    1PA     H4R 6605   4.385   5.916   4.808 -0.3966 -0.0271 -0.2872
    1PA     H4S 6606   4.397   5.776   4.692  1.5557 -0.0980 -0.5431
    1PA     C13 6607   4.486   5.738   4.885 -0.2127  0.5160  0.0820
    1PA     H3R 6608   4.393   5.684   4.901 -1.2588  2.2008 -0.1183
    1PA     H3S 6609   4.572   5.676   4.858 -1.0298 -0.4232 -0.4365
    1PA     C12 6610   4.512   5.805   5.021  0.0801  0.1309  0.2184
    1PA     H2R 6611   4.598   5.871   5.009  0.6166 -0.1741  2.1040
    1PA     H2S 6612   4.428   5.866   5.054 -0.7994 -0.6121 -0.5817
    2PC     C11 6613   4.548   5.703   5.126 -0.2131  0.0649  0.2547
    2PC     O12 6614   4.495   5.594   5.135  0.3163 -0.2173 -0.0207
    2PC     O11 6615   4.641   5.745   5.213  0.3589 -0.0348 -0.3057
    2PC      C1 6616   4.676   5.654   5.319 -0.6880  0.0904  0.1520
    2PC      HR 6617   4.749   5.707   5.381  0.3411  0.7343 -1.5441
    2PC      HS 6618   4.584   5.634   5.375 -0.6013 -0.7519 -0.0055
    2PC      C2 6619   4.742   5.528   5.262 -0.1725  0.3697  0.1219
    2PC      HX 6620   4.672   5.480   5.192 -0.6209 -1.5572  1.8003
    2PC      C3 6621   4.760   5.432   5.380  0.0433  0.0582 -0.1628
    2PC      HA 6622   4.668   5.385   5.414 -0.4287 -0.2865 -1.8386
    2PC      HB 6623   4.815   5.342   5.350 -1.0775 -0.9175  0.6335
    2PC     O31 6624   4.838   5.499   5.481  0.1657 -0.1460 -0.1214
    2PC     P31 6625   4.844   5.441   5.630 -0.1808 -0.2062 -0.1298
    2PC     O32 6626   4.930   5.306   5.621 -0.2740 -0.2546 -0.2774
    2PC     C31 6627   4.906   5.208   5.723 -0.3982 -0.5046 -0.5434
    2PC     H1A 6628   4.908   5.256   5.821 -0.8615  0.1985 -0.8695
    2PC     H1B 6629   4.804   5.171   5.707 -1.6871  2.8188 -0.8243
    2PC     C32 6630   5.015   5.101   5.715  0.0481 -0.1922  1.0145
    2PC     H2A 6631   4.987   5.017   5.779  2.2274 -1.2317  0.7248
    2PC     H2B 6632   5.020   5.068   5.611 -0.3008  1.1939  0.5486
    2PC     N31 6633   5.156   5.142   5.748  0.0333  0.6860  0.0156
    2PC     C33 6634   5.197   5.263   5.670  0.5509  0.0840 -0.6561
    2PC     H3A 6635   5.179   5.240   5.565  2.1173 -0.2325 -0.8822
    2PC     H3B 6636   5.138   5.348   5.703 -0.6674 -0.2521 -1.8843
    2PC     H3C 6637   5.305   5.281   5.681  0.8159 -0.9521 -1.3772
    2PC     C34 6638   5.173   5.165   5.895  0.1781 -0.3515  0.1674
    2PC     H4A 6639   5.099   5.095   5.935 -0.0329 -0.8540 -1.0627
    2PC     H4B 6640   5.278   5.149   5.917  0.4483  0.5998 -0.3953
    2PC     H4C 6641   5.159   5.272   5.913  0.4569 -0.2142 -0.3978
    2PC     C35 6642   5.247   5.030   5.710 -0.4961  0.1755  0.2356
    2PC     H5A 6643   5.347   5.053   5.748 -0.6884 -0.3147  1.0826
    2PC     H5B 6644   5.238   5.017   5.602  1.5263  2.1859 -0.2495
    2PC     H5C 6645   5.208   4.937   5.751 -1.4241 -0.8671 -2.7816
    2PC     O33 6646   4.899   5.547   5.717  0.5439 -0.5991 -0.1007
    2PC     O34 6647   4.712   5.398   5.682 -0.3972  0.9816  0.3412
    2PC     O21 6648   4.870   5.545   5.199 -0.2067 -0.1976 -0.1062
    2PC     C21 6649   4.880   5.585   5.071  0.0632  0.1605  0.0257
    2PC     O22 6650   4.780   5.601   5.003 -0.1499  0.2868  0.3658
    3OL     C12 6651   5.020   5.583   5.015 -0.0653  0.4026 -0.3120
    3OL     H2R 6652   5.093   5.548   5.089  0.0431  2.6586  0.7283
    3OL     H2S 6653   5.036   5.691   5.005  0.5491  0.5020  1.3880
    3OL     C13 6654   5.035   5.510   4.881  0.1587 -0.1888  0.0308
    3OL     H3R 6655   4.964   5.427   4.882 -1.8043  1.3746  1.4242
    3OL     H3S 6656   5.132   5.460   4.874  0.1591 -0.1069 -0.5941
    3OL     C14 6657   5.015   5.609   4.766 -0.2026 -0.0404  0.2194
    3OL     H4R 6658   5.090   5.688   4.778  0.6329 -0.7282 -0.3631
    3OL     H4S 6659   4.916   5.655   4.773 -0.4700 -0.6645  0.6242
    3OL     C15 6660   5.028   5.536   4.632 -0.3570  0.2608  0.0399
    3OL     H5R 6661   4.952   5.459   4.626  0.4481 -0.5986  0.6493
    3OL     H5S 6662   5.129   5.494   4.635 -0.5869 -0.2207  1.0384
    3OL     C16 6663   5.016   5.631   4.512  0.2264  0.4625  0.1359
    3OL     H6R 6664   5.099   5.701   4.522 -0.1313  0.9354 -0.1101
    3OL     H6S 6665   4.929   5.698   4.520  1.4871  2.4497 -1.5478
    3OL     C17 6666   5.009   5.565   4.373  0.4065  0.6760  0.0250
    3OL     H7R 6667   4.928   5.493   4.365 -0.6982  1.6964  1.5210
    3OL     H7S 6668   5.104   5.511   4.367 -0.2411 -0.3685 -1.0812
    3OL     C18 6669   4.989   5.664   4.258  0.5066  0.8546  0.1611
    3OL     H8R 6670   5.077   5.729   4.264  1.2053 -0.2116  2.5420
    3OL     H8S 6671   4.901   5.724   4.285 -0.0027  0.6279 -0.9418
    3OL     C19 6672   4.975   5.601   4.122 -0.1455 -0.2270  0.7214
    3OL     H9R 6673   4.878   5.602   4.074 -0.5785  0.0444  1.5893
    3OL    C110 6674   5.069   5.526   4.066 -0.0466  0.4042  0.0404
    3OL    H10R 6675   5.050   5.483   3.968  0.3650 -1.1582  0.6169
    3OL    C111 6676   5.210   5.521   4.118 -0.2171  0.1555  0.4750
    3OL    H11R 6677   5.221   5.433   4.182  2.3567 -0.2661 -0.4093
    3OL    H11S 6678   5.245   5.603   4.182  1.0247  0.4181 -0.5090
    3OL    C112 6679   5.316   5.506   4.008 -0.5090 -0.0393  0.2201
    3OL    H12R 6680   5.407   5.487   4.065 -0.9559  0.9418  1.2812
    3OL    H12S 6681   5.346   5.593   3.950  0.9331 -0.1665  0.7480
    3OL    C113 6682   5.302   5.397   3.901  0.0997  0.5987 -0.5246
    3OL    H13R 6683   5.205   5.389   3.852  0.0512 -0.5955 -0.2670
    3OL    H13S 6684   5.307   5.304   3.959  0.1714  0.8946 -0.0496
    3OL    C114 6685   5.419   5.388   3.803  0.4808 -0.2151 -0.0105
    3OL    H14R 6686   5.418   5.287   3.762 -1.2322  1.0629 -3.5772
    3OL    H14S 6687   5.510   5.398   3.862 -0.4671  3.4371  1.0982
    3OL    C115 6688   5.436   5.499   3.698  0.1737 -0.3078 -0.1597
    3OL    H15R 6689   5.539   5.499   3.659  0.0944  1.5270 -0.4702
    3OL    H15S 6690   5.419   5.597   3.743  0.7829 -0.8800  1.3615
    3OL    C116 6691   5.339   5.496   3.579 -0.5951  0.9013  0.4188
    3OL    H16R 6692   5.234   5.483   3.607 -0.2006 -1.5909  0.9712
    3OL    H16S 6693   5.356   5.403   3.523 -2.7006  0.1135  0.9995
    3OL    C117 6694   5.348   5.628   3.502 -0.3680  0.9053  0.4502
    3OL    H17R 6695   5.454   5.650   3.486 -0.4787  1.2684  0.2087
    3OL    H17S 6696   5.294   5.706   3.556 -0.7395 -0.0038  1.4345
    3OL    C118 6697   5.285   5.616   3.362  0.4004 -0.5463  0.2101
    3OL    H18R 6698   5.176   5.613   3.358  0.2941 -0.7629  2.1339
    3OL    H18S 6699   5.313   5.528   3.303 -2.4459 -2.1485  1.0709
    3OL    H18T 6700   5.302   5.712   3.313 -1.6202 -0.2620  0.0022
    1PA    C116 6701   1.938   1.335   4.179  0.6094 -0.1119 -0.0062
    1PA    H16R 6702   1.945   1.444   4.173  0.5101 -0.1583 -1.1233
    1PA    H16S 6703   1.834   1.302   4.176  0.8333 -0.8145 -0.3368
    1PA    H16T 6704   1.986   1.291   4.091  3.3180  2.0212  0.2870
    1PA    C115 6705   2.014   1.289   4.304  0.0967 -0.3841  0.2064
    1PA    H15R 6706   1.956   1.335   4.385  1.9628  1.6929  0.4518
    1PA    H15S 6707   2.017   1.180   4.313  0.4081 -0.5433 -1.5440
    1PA    C114 6708   2.159   1.337   4.302 -0.1721  0.4364  0.0169
    1PA    H14R 6709   2.209   1.267   4.369 -0.9944 -0.4627 -0.2883
    1PA    H14S 6710   2.188   1.342   4.196  0.1656 -2.7978 -0.1446
    1PA    C113 6711   2.162   1.480   4.358 -0.3848  0.1995  0.6328
    1PA    H13R 6712   2.105   1.550   4.297  0.5965 -0.5364 -1.2210
    1PA    H13S 6713   2.128   1.476   4.462  0.1644  2.1285  0.9259
    1PA    C112 6714   2.301   1.546   4.365  0.1422 -0.7535 -0.5232
    1PA    H12R 6715   2.352   1.538   4.269  0.5814 -1.2366 -0.2553
    1PA    H12S 6716   2.284   1.653   4.377  2.1619 -0.2969 -1.3581
    1PA    C111 6717   2.390   1.498   4.481 -0.9217 -0.7455  0.3101
    1PA    H11R 6718   2.433   1.588   4.525 -0.6574  1.2363 -3.5162
    1PA    H11S 6719   2.322   1.455   4.555 -0.6350 -1.0177  0.4168
    1PA    C110 6720   2.491   1.390   4.441  0.0338  0.3199 -0.2054
    1PA    H10R 6721   2.437   1.310   4.391  0.5017 -0.6700  0.8355
    1PA    H10S 6722   2.559   1.425   4.363  1.2938  1.8701  1.4947
    1PA     C19 6723   2.562   1.342   4.568 -0.0723  0.3669 -0.1288
    1PA     H9R 6724   2.628   1.423   4.601 -0.4261  1.4835 -2.0223
    1PA     H9S 6725   2.482   1.318   4.638 -0.6124 -0.1601 -0.9179
    1PA     C18 6726   2.657   1.226   4.538 -0.9493 -0.3421 -0.1783
    1PA     H8R 6727   2.596   1.146   4.495 -0.1437 -0.2427 -1.5618
    1PA     H8S 6728   2.731   1.257   4.464 -2.2874  2.6419 -0.3853
    1PA     C17 6729   2.716   1.181   4.673  0.4655 -0.1135 -0.7038
    1PA     H7R 6730   2.766   1.271   4.710 -0.6508  0.7083 -1.1250
    1PA     H7S 6731   2.635   1.152   4.740  0.9260 -0.8904 -0.4701
    1PA     C16 6732   2.808   1.058   4.662 -0.3525 -0.7536 -0.5049
    1PA     H6R 6733   2.752   0.970   4.630  1.0564 -1.7700 -0.2572
    1PA     H6S 6734   2.889   1.073   4.590  0.2359 -3.4036 -0.4822
    1PA     C15 6735   2.877   1.026   4.795  0.4754  0.0602 -0.7300
    1PA     H5R 6736   2.811   0.994   4.875  0.2259  0.1833 -0.8848
    1PA     H5S 6737   2.948   0.947   4.773  0.4876  0.1544 -1.0353
    1PA     C14 6738   2.960   1.144   4.847  0.0291  0.1352 -0.1801
    1PA     H4R 6739   3.022   1.179   4.764 -0.9697  1.5673 -0.3580
    1PA     H4S 6740   2.903   1.226   4.891  1.2988  0.3841  1.0770
    1PA     C13 6741   3.052   1.085   4.955  0.0642 -0.4462 -0.5244
    1PA     H3R 6742   2.990   1.094   5.044  1.6088  2.9306  0.3768
    1PA     H3S 6743   3.086   0.982   4.939  0.8899 -0.6136  1.9061
    1PA     C12 6744   3.178   1.173   4.966  0.3760 -0.9133 -0.3474
    1PA     H2R 6745   3.228   1.153   4.872  0.5017 -0.8853 -0.2859
    1PA     H2S 6746   3.163   1.281   4.970  1.1777 -0.8122  2.5063
    2PC     C11 6747   3.258   1.150   5.092  0.5151 -0.1288 -0.2872
    2PC     O12 6748   3.211   1.078   5.177  0.5378 -0.3772 -0.4825
    2PC     O11 6749   3.373   1.218   5.105  0.3476  0.1247 -0.1475
    2PC      C1 6750   3.419   1.233   5.240 -0.4019  0.1595  0.1118
    2PC      HR 6751   3.334   1.251   5.306 -1.7258 -1.7542 -0.9562
    2PC      HS 6752   3.469   1.142   5.274  2.9233  1.8302  0.0975
    2PC      C2 6753   3.529   1.341   5.242 -0.0241 -0.2228  0.2365
    2PC      HX 6754   3.601   1.335   5.160  1.6237  2.4875  1.3835
    2PC      C3 6755   3.614   1.335   5.369  0.7174  0.0805 -0.2403
    2PC      HA 6756   3.669   1.240   5.376  0.0702 -0.2637  0.2929
    2PC      HB 6757   3.679   1.422   5.378  0.9311 -0.0880 -0.1187
    2PC     O31 6758   3.517   1.342   5.475  0.5394 -0.5838 -0.3531
    2PC     P31 6759   3.575   1.331   5.624  0.0927  0.3185 -0.1093
    2PC     O32 6760   3.696   1.435   5.614  0.1285  0.2719 -0.1613
    2PC     C31 6761   3.809   1.422   5.702 -0.1463 -0.4852  0.0806
    2PC     H1A 6762   3.787   1.383   5.802  1.6158 -0.4288  0.5213
    2PC     H1B 6763   3.866   1.340   5.658  0.4319 -1.1063  1.8989
    2PC     C32 6764   3.877   1.559   5.698 -0.3964 -0.3795 -0.6522
    2PC     H2A 6765   3.977   1.550   5.740 -1.4369 -1.6202  1.7505
    2PC     H2B 6766   3.870   1.596   5.595 -1.5587 -0.4669 -0.6200
    2PC     N31 6767   3.819   1.666   5.785  0.0059 -0.2800 -0.5032
    2PC     C33 6768   3.831   1.640   5.932 -0.3224  0.1754 -0.3940
    2PC     H3A 6769   3.814   1.732   5.988  1.1882  0.2807 -0.0681
    2PC     H3B 6770   3.767   1.559   5.969  1.3142 -0.8153  0.3669
    2PC     H3C 6771   3.935   1.611   5.944 -0.3167  0.1447 -0.5189
    2PC     C34 6772   3.891   1.797   5.773  0.3081 -0.3737  0.2260
    2PC     H4A 6773   3.895   1.832   5.670 -0.5103 -1.2689 -0.1330
    2PC     H4B 6774   3.832   1.862   5.838  0.2217  0.5068 -0.7023
    2PC     H4C 6775   3.989   1.783   5.818 -0.3120 -1.9745  1.1523
    2PC     C35 6776   3.678   1.687   5.739 -0.1537 -0.3903 -0.0662
    2PC     H5A 6777   3.672   1.666   5.632  1.2580  2.1817 -0.7259
    2PC     H5B 6778   3.644   1.790   5.749  1.4430  0.3567 -1.8897
    2PC     H5C 6779   3.622   1.615   5.799  1.6811  0.4521  2.8369
    2PC     O33 6780   3.463   1.371   5.713 -0.1610 -0.3618 -0.1191
    2PC     O34 6781   3.605   1.192   5.666  0.1921  0.4741  0.3397
    2PC     O21 6782   3.461   1.467   5.229 -0.0668 -0.3069 -0.4224
    2PC     C21 6783   3.532   1.579   5.208 -0.1252 -0.1757  0.0660
    2PC     O22 6784   3.651   1.578   5.185 -0.1161  0.2470  0.0922
    3OL     C12 6785   3.443   1.701   5.203 -0.1662 -0.2166 -0.2267
    3OL     H2R 6786   3.433   1.754   5.298 -2.0190  0.8151 -0.9610
    3OL     H2S 6787   3.340   1.674   5.181 -0.5922 -0.4037  1.8151
    3OL     C13 6788   3.493   1.810   5.108 -0.4734 -0.1308 -0.2896
    3OL     H3R 6789   3.416   1.886   5.091 -0.3428 -0.1790 -1.1586
    3OL     H3S 6790   3.526   1.772   5.011  1.5360  1.0047 -0.0968
    3OL     C14 6791   3.610   1.891   5.166 -0.4247 -0.1088 -0.4184
    3OL     H4R 6792   3.701   1.832   5.180 -0.4308  0.1030  0.5401
    3OL     H4S 6793   3.596   1.929   5.267  3.0896 -0.7070  0.4401
    3OL     C15 6794   3.643   2.010   5.075 -0.3490  0.2126  0.0281
    3OL     H5R 6795   3.695   2.089   5.130  1.8730 -0.9761 -0.2349
    3OL     H5S 6796   3.555   2.059   5.033  1.1808  3.8201  0.6774
    3OL     C16 6797   3.710   1.971   4.942  0.8688  0.2312  0.6260
    3OL     H6R 6798   3.640   1.914   4.882  0.1428  1.6419  0.0756
    3OL     H6S 6799   3.795   1.903   4.947  2.2061  1.6088 -1.6945
    3OL     C17 6800   3.759   2.092   4.861  0.0052 -0.1350 -0.4624
    3OL     H7R 6801   3.839   2.145   4.912  0.9977 -0.9227 -1.1452
    3OL     H7S 6802   3.675   2.160   4.850  0.0002 -0.0093  0.2886
    3OL     C18 6803   3.824   2.043   4.730  0.2228 -0.5990 -0.1854
    3OL     H8R 6804   3.769   1.961   4.683  2.8458 -1.7310 -1.4647
    3OL     H8S 6805   3.921   2.001   4.757  0.1034 -2.3149 -2.2031
    3OL     C19 6806   3.834   2.168   4.646  0.0736 -0.5420 -0.1190
    3OL     H9R 6807   3.840   2.259   4.705  0.3162 -2.2786  2.7422
    3OL    C110 6808   3.818   2.176   4.515 -0.3258  0.0079 -0.0426
    3OL    H10R 6809   3.818   2.277   4.475  1.9297  0.5670  1.2310
    3OL    C111 6810   3.793   2.068   4.412 -0.7124 -0.3187  0.3885
    3OL    H11R 6811   3.688   2.083   4.385 -0.4763  2.4197  0.6692
    3OL    H11S 6812   3.804   1.971   4.460 -2.1050 -0.1037  1.1983
    3OL    C112 6813   3.879   2.087   4.286 -0.4473  0.4152  0.6746
    3OL    H12R 6814   3.985   2.088   4.311 -0.0736 -1.2489 -0.6525
    3OL    H12S 6815   3.863   2.184   4.238  0.6678 -0.2294 -1.0964
    3OL    C113 6816   3.864   1.982   4.175  0.0133  0.6465  0.3920
    3OL    H13R 6817   3.758   1.969   4.154  0.7424 -1.3410 -2.7462
    3OL    H13S 6818   3.899   1.888   4.217 -0.3159 -0.0888 -0.9274
    3OL    C114 6819   3.940   2.013   4.045 -0.1660  0.1519  0.1674
    3OL    H14R 6820   4.045   2.036   4.059 -0.0275  0.2606 -0.9267
    3OL    H14S 6821   3.897   2.107   4.010  1.8334  1.8997  2.1148
    3OL    C115 6822   3.925   1.903   3.939  1.0029 -0.0215  0.1683
    3OL    H15R 6823   3.817   1.883   3.937  1.0041 -0.5724  2.2958
    3OL    H15S 6824   3.973   1.811   3.975  1.6527 -0.0510 -0.7681
    3OL    C116 6825   3.973   1.949   3.801  0.7805  0.2852  0.1907
    3OL    H16R 6826   4.080   1.971   3.793  1.3297 -2.3658 -1.2330
    3OL    H16S 6827   3.902   2.024   3.770 -0.1514 -0.7063 -0.1316
    3OL    C117 6828   3.948   1.841   3.694  0.3674  0.2000  0.3705
    3OL    H17R 6829   3.958   1.910   3.610  1.9605  0.8426  1.0330
    3OL    H17S 6830   3.848   1.799   3.697 -0.1214  1.3596  1.3643
    3OL    C118 6831   4.069   1.747   3.683 -0.2881 -0.6158  0.1349
    3OL    H18R 6832   4.162   1.802   3.695  0.7328 -2.7261  2.8146
    3OL    H18S 6833   4.075   1.697   3.586  0.2884 -0.9630  0.3440
    3OL    H18T 6834   4.068   1.681   3.770  2.2145 -0.2663  0.5059
    1PA    C116 6835   3.259   2.015   4.200  0.0291  0.4036  0.0737
    1PA    H16R 6836   3.274   2.097   4.270  1.1749  1.8002 -1.7017
    1PA    H16S 6837   3.317   1.933   4.243 -0.2906 -0.0792 -0.3965
    1PA    H16T 6838   3.157   1.975   4.201  0.9764 -2.1997  0.1194
    1PA    C115 6839   3.311   2.063   4.063 -0.1963 -0.0320 -0.1668
    1PA    H15R 6840   3.277   1.995   3.984  1.4819 -1.5455  0.3348
    1PA    H15S 6841   3.269   2.161   4.040 -1.2250  0.1383  2.1333
    1PA    C114 6842   3.464   2.070   4.060 -0.1703 -0.1827  0.5273
    1PA    H14R 6843   3.503   1.997   4.130  0.9859 -0.9372 -0.8536
    1PA    H14S 6844   3.495   2.041   3.960 -0.0123  0.6590  0.3191
    1PA    C113 6845   3.525   2.208   4.086 -0.2943 -0.0735  0.2498
    1PA    H13R 6846   3.628   2.214   4.050 -0.9087  0.3495 -1.5380
    1PA    H13S 6847   3.468   2.285   4.034  0.0295 -0.4350 -0.6630
    1PA    C112 6848   3.526   2.244   4.235 -0.1516 -0.1092  0.2580
    1PA    H12R 6849   3.515   2.150   4.289  0.6271  1.4913  3.5118
    1PA    H12S 6850   3.626   2.272   4.268 -1.0540  0.7558  2.5673
    1PA    C111 6851   3.424   2.350   4.280 -0.4346 -0.4143  0.3400
    1PA    H11R 6852   3.422   2.439   4.217 -1.1687 -1.3468 -0.9973
    1PA    H11S 6853   3.326   2.303   4.270 -0.3933 -0.6180  0.8414
    1PA    C110 6854   3.440   2.390   4.428  0.7934  0.0884  0.0793
    1PA    H10R 6855   3.401   2.303   4.481 -0.3612  1.6946  2.0090
    1PA    H10S 6856   3.546   2.400   4.452  0.8519  0.9913 -0.4990
    1PA     C19 6857   3.349   2.510   4.456 -0.0060 -0.2728 -0.9090
    1PA     H9R 6858   3.375   2.592   4.389 -2.3580  0.3743 -1.1128
    1PA     H9S 6859   3.245   2.485   4.433  0.3699 -1.8266 -1.0594
    1PA     C18 6860   3.365   2.545   4.605  0.0155 -0.1268 -0.9459
    1PA     H8R 6861   3.469   2.552   4.636 -0.4850  2.3058  0.4511
    1PA     H8S 6862   3.329   2.647   4.623  1.7171  0.4093 -0.4590
    1PA     C17 6863   3.284   2.447   4.690 -0.0764  0.6853 -0.0850
    1PA     H7R 6864   3.179   2.462   4.665  0.0976 -0.8073 -1.8727
    1PA     H7S 6865   3.323   2.349   4.661  1.8570  1.7831 -1.3984
    1PA     C16 6866   3.327   2.476   4.835  1.0428 -0.7697 -0.1062
    1PA     H6R 6867   3.435   2.466   4.832  1.1195  0.1522 -2.1309
    1PA     H6S 6868   3.292   2.575   4.862 -2.3078 -1.1840 -2.2652
    1PA     C15 6869   3.259   2.381   4.936 -0.1730  0.4271  0.2326
    1PA     H5R 6870   3.154   2.407   4.948 -0.3861 -0.4944  0.4075
    1PA     H5S 6871   3.264   2.280   4.895 -3.0911  0.2060  0.2426
    1PA     C14 6872   3.323   2.391   5.075 -0.1893  0.1786  0.2571
    1PA     H4R 6873   3.420   2.339   5.075 -0.4326 -0.2826 -0.1713
    1PA     H4S 6874   3.351   2.488   5.115  0.8735 -0.2680  0.6622
    1PA     C13 6875   3.242   2.307   5.175 -0.5810 -0.2499 -0.4087
    1PA     H3R 6876   3.148   2.360   5.190 -0.1286  0.1816  1.2028
    1PA     H3S 6877   3.214   2.215   5.125 -1.8231 -0.6636  0.9723
    1PA     C12 6878   3.312   2.260   5.304 -0.5048  0.3824 -0.2171
    1PA     H2R 6879   3.270   2.165   5.335  0.3913  0.5717  1.7090
    1PA     H2S 6880   3.420   2.243   5.300 -0.4689  0.7396 -0.9457
    2PC     C11 6881   3.299   2.349   5.425 -0.4712 -0.2386  0.2421
    2PC     O12 6882   3.349   2.300   5.525  0.3034 -0.1218 -0.0827
    2PC     O11 6883   3.232   2.464   5.413 -0.1378 -0.0629  0.0596
    2PC      C1 6884   3.218   2.547   5.530 -0.1039  0.3089 -0.1975
    2PC      HR 6885   3.131   2.611   5.515 -0.0048 -0.0287 -2.6810
    2PC      HS 6886   3.192   2.484   5.615  1.6716 -1.5177 -0.9268
    2PC      C2 6887   3.341   2.635   5.557 -0.2486  0.4320  0.0594
    2PC      HX 6888   3.428   2.574   5.580 -0.4812 -0.1751 -0.6329
    2PC      C3 6889   3.326   2.726   5.679  0.2820  0.3055  0.2228
    2PC      HA 6890   3.282   2.824   5.655  0.8653  0.5577  0.1780
    2PC      HB 6891   3.265   2.671   5.751  2.5867 -2.4075  0.2593
    2PC     O31 6892   3.454   2.753   5.738  0.5696  0.4041 -0.4499
    2PC     P31 6893   3.465   2.847   5.867 -0.1199 -0.4207  0.2194
    2PC     O32 6894   3.581   2.773   5.949  0.2732  0.2499  0.2770
    2PC     C31 6895   3.538   2.693   6.061  0.0512 -0.0999 -0.0550
    2PC     H1A 6896   3.441   2.644   6.052 -0.2956  0.0860  2.2715
    2PC     H1B 6897   3.614   2.619   6.086 -2.9532 -3.2428  0.5290
    2PC     C32 6898   3.518   2.789   6.179  0.2309 -0.3915  0.2142
    2PC     H2A 6899   3.465   2.880   6.149  0.1502 -0.5216 -0.0431
    2PC     H2B 6900   3.463   2.732   6.254  1.9709 -1.3415  0.8385
    2PC     N31 6901   3.639   2.836   6.255  0.1436 -0.0827  0.1646
    2PC     C33 6902   3.607   2.938   6.360  0.5094  0.2524 -0.0491
    2PC     H3A 6903   3.542   2.885   6.429 -0.5863 -0.2484 -1.4063
    2PC     H3B 6904   3.705   2.972   6.395 -0.0389 -0.8036  2.7559
    2PC     H3C 6905   3.560   3.020   6.306  1.4934 -0.1454 -1.5914
    2PC     C34 6906   3.692   2.713   6.321 -0.2515 -0.4876 -0.2564
    2PC     H4A 6907   3.780   2.744   6.378 -2.3057 -1.6336  3.9342
    2PC     H4B 6908   3.622   2.663   6.389  0.0778  0.8737  1.1298
    2PC     H4C 6909   3.716   2.641   6.243  0.6521 -0.0467 -0.3911
    2PC     C35 6910   3.741   2.896   6.163  0.7109 -0.1360  0.7616
    2PC     H5A 6911   3.697   2.983   6.115  2.0820 -0.4870 -1.2230
    2PC     H5B 6912   3.772   2.827   6.084 -1.1185 -2.0887  1.6510
    2PC     H5C 6913   3.830   2.910   6.225  0.3695  2.5821  0.7290
    2PC     O33 6914   3.518   2.971   5.806 -0.0257 -0.7155 -0.3042
    2PC     O34 6915   3.331   2.841   5.930 -0.4091 -0.0614 -0.3543
    2PC     O21 6916   3.366   2.718   5.442  0.1815 -0.1198 -0.2480
    2PC     C21 6917   3.272   2.802   5.397  0.4183  0.6144  0.5976
    2PC     O22 6918   3.162   2.820   5.444 -0.0705  0.2228 -0.3563
    3OL     C12 6919   3.323   2.876   5.275 -0.0010  0.0601  0.0804
    3OL     H2R 6920   3.364   2.806   5.202 -0.9352  0.3188 -0.7212
    3OL     H2S 6921   3.395   2.952   5.305 -1.9102  1.1534  2.2650
    3OL     C13 6922   3.202   2.946   5.212 -0.1452  0.0630  0.3612
    3OL     H3R 6923   3.168   3.019   5.287 -1.0893  0.2972 -0.2695
    3OL     H3S 6924   3.131   2.865   5.198  1.7819 -1.6065 -0.1140
    3OL     C14 6925   3.230   3.023   5.083 -0.3846 -0.4254  0.0176
    3OL     H4R 6926   3.299   3.105   5.101 -0.7479  0.3837 -1.9836
    3OL     H4S 6927   3.136   3.073   5.061 -1.1988 -0.4278  3.0912
    3OL     C15 6928   3.260   2.925   4.968 -0.2875 -0.1215 -0.2181
    3OL     H5R 6929   3.169   2.876   4.931 -2.0454  3.7465 -1.5690
    3OL     H5S 6930   3.335   2.849   4.991  0.7274  0.9497  0.1032
    3OL     C16 6931   3.307   3.004   4.845  0.3539 -0.4259 -0.1720
    3OL     H6R 6932   3.402   3.055   4.860  0.1980 -0.4016  0.8457
    3OL     H6S 6933   3.237   3.078   4.805  0.8287 -0.6387 -1.4219
    3OL     C17 6934   3.331   2.911   4.726  0.5164 -0.4595 -0.1142
    3OL     H7R 6935   3.235   2.866   4.699 -0.0085 -0.0525  0.9852
    3OL     H7S 6936   3.403   2.841   4.769 -0.0198 -0.2936  1.0740
    3OL     C18 6937   3.395   2.970   4.600  0.2662 -0.1832 -0.1131
    3OL     H8R 6938   3.444   2.889   4.544 -0.0044 -2.0086  2.1302
    3OL     H8S 6939   3.475   3.039   4.626  0.5390 -0.2134 -0.8328
    3OL     C19 6940   3.290   3.041   4.519 -0.2517 -0.6056  0.1821
    3OL     H9R 6941   3.189   3.051   4.559 -0.8324  1.7126 -1.6243
    3OL    C110 6942   3.321   3.117   4.415  0.0970 -0.5951  0.2926
    3OL    H10R 6943   3.244   3.174   4.363  2.1580  1.4875 -0.6630
    3OL    C111 6944   3.445   3.108   4.331 -0.1768 -0.3552 -0.1412
    3OL    H11R 6945   3.493   3.010   4.339 -0.8757 -0.7276 -0.4571
    3OL    H11S 6946   3.514   3.172   4.387 -0.6751 -0.8771  1.0879
    3OL    C112 6947   3.439   3.151   4.183  0.2626 -0.2673 -0.1371
    3OL    H12R 6948   3.532   3.129   4.130  1.2362  1.4016  0.7798
    3OL    H12S 6949   3.431   3.260   4.181  0.7459 -0.1476  2.0525
    3OL    C113 6950   3.319   3.099   4.102  0.2325 -0.2068 -0.1320
    3OL    H13R 6951   3.238   3.134   4.166  2.1320 -0.6318  2.6790
    3OL    H13S 6952   3.308   2.991   4.097  0.5834 -0.4328  2.5654
    3OL    C114 6953   3.314   3.160   3.961  0.4284  0.5375  0.1745
    3OL    H14R 6954   3.250   3.093   3.903 -1.4211  1.7354  0.7472
    3OL    H14S 6955   3.420   3.165   3.934  0.1156 -1.7787 -1.8611
    3OL    C115 6956   3.247   3.298   3.960 -0.0282  0.3161 -0.1913
    3OL    H15R 6957   3.318   3.352   4.023 -0.5801 -0.5985  1.2761
    3OL    H15S 6958   3.145   3.298   4.000  0.0342 -3.4701  0.3696
    3OL    C116 6959   3.241   3.365   3.823  0.1964  0.4818 -0.1206
    3OL    H16R 6960   3.338   3.350   3.777 -0.6770 -2.2681 -1.2542
    3OL    H16S 6961   3.229   3.473   3.839  2.7730  0.6225  1.2573
    3OL    C117 6962   3.130   3.331   3.722 -0.0807  0.1657  0.2877
    3OL    H17R 6963   3.151   3.381   3.627  0.6666 -3.5822 -1.7213
    3OL    H17S 6964   3.027   3.356   3.749  0.8449  3.6209  1.1774
    3OL    C118 6965   3.139   3.183   3.683  0.1132  0.2987 -0.1797
    3OL    H18R 6966   3.243   3.161   3.656 -0.0591  0.3767 -0.9210
    3OL    H18S 6967   3.082   3.167   3.591  2.6388 -0.2698 -1.7440
    3OL    H18T 6968   3.094   3.116   3.757  0.9509  0.9279  0.9341
    1PA    C116 6969   3.159   0.988   3.908  0.4231  0.0947 -0.2975
    1PA    H16R 6970   3.076   0.922   3.883 -0.4544  1.3086 -0.6944
    1PA    H16S 6971   3.221   0.957   3.824 -1.4618  0.0616 -1.7479
    1PA    H16T 6972   3.120   1.090   3.900  0.9295  0.4581  1.4406
    1PA    C115 6973   3.216   0.960   4.048 -0.2627  0.0543 -0.0211
    1PA    H15R 6974   3.285   1.039   4.080 -0.2338  0.1202 -0.2424
    1PA    H15S 6975   3.147   0.958   4.132 -0.8943  1.9602 -0.4321
    1PA    C114 6976   3.292   0.827   4.043  0.0155  0.1922  0.5259
    1PA    H14R 6977   3.227   0.749   4.002  2.1134 -1.6997  0.5998
    1PA    H14S 6978   3.370   0.831   3.967 -2.8671 -1.2623 -2.7663
    1PA    C113 6979   3.337   0.783   4.184  0.2561 -0.4338  0.2573
    1PA    H13R 6980   3.403   0.865   4.212  0.8806 -1.1449  0.8865
    1PA    H13S 6981   3.250   0.784   4.250 -1.3268  1.8177 -1.6549
    1PA    C112 6982   3.428   0.659   4.185  0.2816 -0.4156  0.2063
    1PA    H12R 6983   3.476   0.650   4.087  1.3869 -2.1072  0.8618
    1PA    H12S 6984   3.508   0.672   4.259  0.5666 -0.5409 -0.0778
    1PA    C111 6985   3.338   0.539   4.219 -0.0164 -0.2937 -0.1456
    1PA    H11R 6986   3.299   0.560   4.319 -2.1780 -1.2394 -0.7432
    1PA    H11S 6987   3.246   0.538   4.161 -1.7591 -0.5526  2.4723
    1PA    C110 6988   3.401   0.400   4.199  0.5301 -0.0614 -0.0832
    1PA    H10R 6989   3.317   0.331   4.205  1.1883 -0.9725 -1.1300
    1PA    H10S 6990   3.442   0.393   4.098 -2.6893 -0.7486 -1.4869
    1PA     C19 6991   3.521   0.383   4.292  0.6029 -0.5957 -0.2750
    1PA     H9R 6992   3.592   0.310   4.252 -0.1427 -2.3568  1.4332
    1PA     H9S 6993   3.575   0.477   4.297  1.2631 -0.9724 -0.1600
    1PA     C18 6994   3.484   0.355   4.438  0.4212  0.4122 -0.1230
    1PA     H8R 6995   3.583   0.366   4.483  0.2525  0.8041  0.1628
    1PA     H8S 6996   3.429   0.438   4.482 -0.1145  0.4945 -0.9445
    1PA     C17 6997   3.428   0.217   4.473  0.0364  0.5171 -0.3291
    1PA     H7R 6998   3.353   0.190   4.398 -0.3762 -1.1799  0.6306
    1PA     H7S 6999   3.504   0.142   4.452 -0.4149 -0.2363  0.6270
    1PA     C16 7000   3.365   0.221   4.613  0.3380 -0.7109 -0.1469
    1PA     H6R 7001   3.297   0.306   4.621  1.4191  0.1991 -0.3805
    1PA     H6S 7002   3.301   0.132   4.612  1.3157 -1.4866  1.5954
    1PA     C15 7003   3.463   0.237   4.730 -0.0776 -0.1192  0.1259
    1PA     H5R 7004   3.525   0.149   4.749 -0.1211 -0.4768 -1.2810
    1PA     H5S 7005   3.536   0.317   4.714  0.9407 -0.8005  1.2607
    1PA     C14 7006   3.383   0.257   4.859 -0.1354  0.0777  0.0606
    1PA     H4R 7007   3.334   0.354   4.862  0.4309  0.3609  1.7406
    1PA     H4S 7008   3.301   0.186   4.860  1.4146 -1.8235  1.6525
    1PA     C13 7009   3.461   0.235   4.990 -0.1466 -0.0218  0.0502
    1PA     H3R 7010   3.510   0.138   4.982 -0.0064 -0.0153  0.7470
    1PA     H3S 7011   3.545   0.304   5.003 -0.7242  0.8236 -0.6011
    1PA     C12 7012   3.371   0.223   5.113 -0.2188 -0.1052 -0.0103
    1PA     H2R 7013   3.326   0.322   5.130 -1.0735 -0.4344 -0.3378
    1PA     H2S 7014   3.292   0.150   5.098 -0.7921  0.7820 -1.5109
    2PC     C11 7015   3.451   0.181   5.234  0.0743 -0.0640 -0.1890
    2PC     O12 7016   3.558   0.229   5.264  0.0524 -0.3904  0.4267
    2PC     O11 7017   3.388   0.086   5.305  0.2270 -0.2638 -0.3217
    2PC      C1 7018   3.440   0.033   5.429 -0.9450  0.0196  0.3062
    2PC      HR 7019   3.549   0.037   5.431 -0.9395  0.6086 -0.6328
    2PC      HS 7020   3.402   0.100   5.507 -1.1246  1.5213 -0.9960
    2PC      C2 7021   3.397  -0.111   5.460 -0.2273 -0.3193 -0.2476
    2PC      HX 7022   3.296  -0.125   5.421  0.1689 -1.5636 -0.8664
    2PC      C3 7023   3.403  -0.136   5.611 -0.2771  0.3416 -0.1309
    2PC      HA 7024   3.338  -0.068   5.666  0.9821  1.2116  0.3144
    2PC      HB 7025   3.382  -0.243   5.624 -2.1756  0.4886 -1.5404
    2PC     O31 7026   3.538  -0.112   5.656 -0.2611  0.0366 -0.0118
    2PC     P31 7027   3.588  -0.176   5.794 -0.0247  0.1502 -0.0448
    2PC     O32 7028   3.604  -0.327   5.745 -0.6332  0.0606  0.0220
    2PC     C31 7029   3.504  -0.427   5.773 -0.3931 -0.0091  0.6605
    2PC     H1A 7030   3.478  -0.414   5.878  1.4818  0.1872  1.1359
    2PC     H1B 7031   3.408  -0.412   5.723 -0.0728 -1.8970 -0.6484
    2PC     C32 7032   3.545  -0.572   5.742 -0.4804 -0.0340  0.6599
    2PC     H2A 7033   3.457  -0.633   5.758 -1.4193  0.6844 -1.4463
    2PC     H2B 7034   3.581  -0.579   5.639  0.6612  1.3799  0.9260
    2PC     N31 7035   3.661  -0.634   5.814 -0.3595 -0.8553 -0.2212
    2PC     C33 7036   3.788  -0.555   5.792 -1.1816  0.4971 -0.2488
    2PC     H3A 7037   3.784  -0.453   5.829  1.7150  0.3968  0.5589
    2PC     H3B 7038   3.871  -0.599   5.847 -0.9801  1.9160  0.6042
    2PC     H3C 7039   3.814  -0.558   5.686  0.1275 -0.5494  0.0822
    2PC     C34 7040   3.617  -0.628   5.957 -0.4208 -0.5258 -0.2528
    2PC     H4A 7041   3.697  -0.664   6.022 -1.2237  0.4062  1.3118
    2PC     H4B 7042   3.595  -0.523   5.976  0.2249 -0.4221 -0.0482
    2PC     H4C 7043   3.527  -0.687   5.971  0.8406 -2.3361  0.5512
    2PC     C35 7044   3.686  -0.771   5.759  0.0960 -0.5907 -0.6932
    2PC     H5A 7045   3.588  -0.820   5.752 -0.4302  0.4503 -0.9143
    2PC     H5B 7046   3.749  -0.819   5.834 -1.3160 -1.6775 -0.1588
    2PC     H5C 7047   3.740  -0.767   5.664 -1.9126  1.7028 -1.8674
    2PC     O33 7048   3.719  -0.130   5.845  0.2936 -0.1173 -0.6178
    2PC     O34 7049   3.499  -0.154   5.911 -0.6769  0.0211 -0.5156
    2PC     O21 7050   3.488  -0.185   5.376 -0.4336 -0.1202 -0.6480
    2PC     C21 7051   3.486  -0.319   5.369 -1.0177 -0.1136 -0.6782
    2PC     O22 7052   3.424  -0.383   5.452  0.3597  0.0746  0.5513
    3OL     C12 7053   3.564  -0.378   5.254  0.1474 -0.4461  0.2565
    3OL     H2R 7054   3.656  -0.424   5.290 -1.6777 -2.3503  2.8909
    3OL     H2S 7055   3.588  -0.299   5.183 -0.7338  0.4627  0.9247
    3OL     C13 7056   3.488  -0.495   5.191 -0.7945  0.2529  0.0579
    3OL     H3R 7057   3.396  -0.458   5.147 -0.6384  1.1519  0.4691
    3OL     H3S 7058   3.458  -0.570   5.265 -1.1372  0.7471  0.4297
    3OL     C14 7059   3.577  -0.561   5.085  0.3491 -0.0594  1.1879
    3OL     H4R 7060   3.671  -0.589   5.133  1.9354  0.0954 -1.6046
    3OL     H4S 7061   3.604  -0.488   5.009  2.3075 -0.4341  1.4558
    3OL     C15 7062   3.505  -0.683   5.028  0.1958  0.5579  0.0349
    3OL     H5R 7063   3.476  -0.753   5.106  1.3776  0.8174  0.7359
    3OL     H5S 7064   3.580  -0.741   4.971 -1.6694  0.6379 -2.7106
    3OL     C16 7065   3.383  -0.651   4.941 -0.0245 -0.1531  0.0769
    3OL     H6R 7066   3.418  -0.605   4.849  1.7760 -1.3755  0.0929
    3OL     H6S 7067   3.312  -0.579   4.982  1.1634  0.7779  0.5431
    3OL     C17 7068   3.320  -0.787   4.904  0.2644 -0.2219 -0.1693
    3OL     H7R 7069   3.290  -0.840   4.995  0.0664  0.3269  0.0938
    3OL     H7S 7070   3.391  -0.856   4.859  0.8127 -1.1011  1.9206
    3OL     C18 7071   3.196  -0.787   4.813 -0.5522  0.0794  0.9191
    3OL     H8R 7072   3.228  -0.736   4.722  1.9569  0.2224  1.8028
    3OL     H8S 7073   3.114  -0.727   4.855  0.1872  0.7902  1.3955
    3OL     C19 7074   3.151  -0.928   4.789 -0.4128  0.1528  0.2165
    3OL     H9R 7075   3.080  -0.973   4.858 -0.2952  0.3977  0.4959
    3OL    C110 7076   3.175  -1.006   4.684 -0.2425 -0.0637  0.4153
    3OL    H10R 7077   3.136  -1.108   4.677 -0.0577 -0.0600 -0.8155
    3OL    C111 7078   3.258  -0.973   4.563 -0.3886  0.1527  0.3751
    3OL    H11R 7079   3.338  -1.046   4.558 -0.4623  0.1131 -0.4415
    3OL    H11S 7080   3.298  -0.873   4.583  0.1495 -0.0298  0.2100
    3OL    C112 7081   3.176  -0.965   4.433  0.1630 -0.1002  0.0088
    3OL    H12R 7082   3.237  -0.923   4.354 -0.0687 -0.9053 -0.6160
    3OL    H12S 7083   3.091  -0.897   4.443 -0.2365 -0.9018  3.8246
    3OL    C113 7084   3.133  -1.103   4.380 -0.1322 -0.0326  0.0713
    3OL    H13R 7085   3.068  -1.155   4.450 -0.0547  0.4410  0.5065
    3OL    H13S 7086   3.231  -1.150   4.383 -0.2318 -0.2788 -0.4198
    3OL    C114 7087   3.074  -1.089   4.239 -0.8507 -0.2559  0.3463
    3OL    H14R 7088   3.152  -1.045   4.176 -1.3605  0.2564  0.0575
    3OL    H14S 7089   2.991  -1.018   4.252 -3.3434 -2.6787 -1.1207
    3OL    C115 7090   3.023  -1.226   4.192 -0.0537 -0.3891 -0.1363
    3OL    H15R 7091   2.946  -1.266   4.258  0.7048 -1.7032 -0.0036
    3OL    H15S 7092   3.110  -1.290   4.208 -0.0121 -0.2378  0.2652
    3OL    C116 7093   2.976  -1.216   4.046  0.2292  0.3911 -0.1803
    3OL    H16R 7094   3.054  -1.183   3.977 -0.3246  1.5127 -0.2861
    3OL    H16S 7095   2.900  -1.138   4.048  0.4932  0.6736 -0.8687
    3OL    C117 7096   2.915  -1.348   3.995  0.2406  0.2917  0.0599
    3OL    H17R 7097   2.878  -1.346   3.892  1.3592 -1.8115 -0.4358
    3OL    H17S 7098   2.828  -1.378   4.053 -0.8009  0.3127 -1.4454
    3OL    C118 7099   3.015  -1.464   3.985  0.4522  0.4688  0.0967
    3OL    H18R 7100   3.056  -1.489   4.083 -0.0419  2.5782  0.9110
    3OL    H18S 7101   3.103  -1.431   3.929  0.7724  1.3546  1.0804
    3OL    H18T 7102   2.967  -1.552   3.943 -1.1258  0.1289  2.4075
    1PA    C116 7103   5.142   3.548   4.140 -0.1188 -0.3573 -0.8091
    1PA    H16R 7104   5.249   3.557   4.160 -0.3853  4.2106 -0.3862
    1PA    H16S 7105   5.086   3.620   4.200 -0.5318 -1.4889  0.1885
    1PA    H16T 7106   5.120   3.574   4.036  1.7227  0.7340 -0.9812
    1PA    C115 7107   5.083   3.411   4.171 -0.2685  0.0613  0.8211
    1PA    H15R 7108   5.125   3.341   4.099 -0.3810 -0.0609  0.8731
    1PA    H15S 7109   5.125   3.388   4.270  2.9539 -0.1912 -0.5046
    1PA    C114 7110   4.930   3.404   4.165 -0.2397  0.1979 -0.0631
    1PA    H14R 7111   4.886   3.478   4.232 -0.6661 -0.6248  0.5758
    1PA    H14S 7112   4.896   3.422   4.062 -0.2287 -1.0710 -0.3038
    1PA    C113 7113   4.876   3.265   4.202 -0.6085  0.3189 -0.1410
    1PA    H13R 7114   4.790   3.242   4.139 -1.3246 -2.4040  1.6343
    1PA    H13S 7115   4.953   3.193   4.174 -0.1592  0.0821  1.6028
    1PA    C112 7116   4.833   3.265   4.349 -0.6377 -0.2499 -0.1466
    1PA    H12R 7117   4.910   3.299   4.419 -0.0264 -0.6893 -0.5985
    1PA    H12S 7118   4.749   3.335   4.344  0.2628  0.7879 -1.4894
    1PA    C111 7119   4.777   3.126   4.384 -0.6632 -0.3598 -0.6149
    1PA    H11R 7120   4.718   3.091   4.300  0.3444  0.5554 -1.7402
    1PA    H11S 7121   4.863   3.058   4.389  1.4990  2.2419  0.3563
    1PA    C110 7122   4.698   3.106   4.514  0.2941 -0.1417  0.0137
    1PA    H10R 7123   4.630   3.190   4.531 -1.1848 -1.4086  0.6407
    1PA    H10S 7124   4.642   3.013   4.500 -1.6050  1.0626 -0.8321
    1PA     C19 7125   4.791   3.085   4.634  0.3749  0.2431  0.0202
    1PA     H9R 7126   4.845   2.992   4.615 -0.8281 -0.0240 -2.3705
    1PA     H9S 7127   4.863   3.165   4.653  0.5215  0.8438 -2.7526
    1PA     C18 7128   4.704   3.080   4.761 -0.2728 -0.1771 -0.4362
    1PA     H8R 7129   4.665   3.181   4.772  0.2205 -0.2146  2.4323
    1PA     H8S 7130   4.619   3.011   4.756 -0.2187 -0.6081  2.6824
    1PA     C17 7131   4.789   3.058   4.887 -0.4566  0.3330 -0.2187
    1PA     H7R 7132   4.834   2.958   4.882 -1.5970 -0.1722 -1.0158
    1PA     H7S 7133   4.870   3.130   4.886 -1.7153  1.9669  2.9250
    1PA     C16 7134   4.703   3.069   5.013  0.3607  0.3320  0.3445
    1PA     H6R 7135   4.679   3.172   5.039  2.3690  0.5465  1.5917
    1PA     H6S 7136   4.612   3.017   4.980  1.5875 -0.9644 -1.1311
    1PA     C15 7137   4.756   2.998   5.138 -0.7949 -0.5224  0.3680
    1PA     H5R 7138   4.683   3.009   5.219  1.5045  1.3917  2.3363
    1PA     H5S 7139   4.779   2.891   5.128 -0.4602 -0.3354 -0.9650
    1PA     C14 7140   4.882   3.072   5.185 -0.4435 -0.5117 -0.5772
    1PA     H4R 7141   4.959   3.073   5.107  0.0960  1.4758 -0.0701
    1PA     H4S 7142   4.857   3.174   5.213 -0.4757  0.1039 -2.6461
    1PA     C13 7143   4.936   3.013   5.316 -0.7084  0.7576  0.1191
    1PA     H3R 7144   4.857   3.015   5.392 -1.0500  0.4090 -0.2183
    1PA     H3S 7145   4.952   2.906   5.297  0.2547  0.4873  2.2352
    1PA     C12 7146   5.070   3.078   5.350  0.0905 -0.5394 -0.4725
    1PA     H2R 7147   5.145   3.025   5.290  1.1098 -0.6938  0.8950
    1PA     H2S 7148   5.065   3.184   5.326  1.6446 -0.6512 -1.4137
    2PC     C11 7149   5.092   3.073   5.499  0.2828  0.1043 -0.4752
    2PC     O12 7150   5.091   3.178   5.559  0.5101  0.0680 -0.4094
    2PC     O11 7151   5.121   2.953   5.553 -0.3971  0.1814  0.0842
    2PC      C1 7152   5.168   2.948   5.688 -0.8849  0.2889  0.2614
    2PC      HR 7153   5.265   2.995   5.706 -0.2931 -0.8222  0.0759
    2PC      HS 7154   5.092   2.990   5.754  0.9913  0.4813  2.4471
    2PC      C2 7155   5.171   2.806   5.748  0.5807  0.1835 -0.0221
    2PC      HX 7156   5.068   2.771   5.752  0.9479 -1.3025 -2.0731
    2PC      C3 7157   5.224   2.800   5.892  0.4202 -0.2917  0.0159
    2PC      HA 7158   5.331   2.823   5.884  0.2405  0.0537 -1.6961
    2PC      HB 7159   5.166   2.875   5.947 -2.3623 -0.5086 -2.3908
    2PC     O31 7160   5.185   2.672   5.946  0.2536 -0.3549 -0.2544
    2PC     P31 7161   5.201   2.644   6.103  0.2183  0.1607 -0.1582
    2PC     O32 7162   5.088   2.735   6.172 -0.2211 -0.4762 -0.0297
    2PC     C31 7163   5.120   2.805   6.293 -0.5400  0.9637 -0.7600
    2PC     H1A 7164   5.034   2.868   6.320 -0.1829  0.3836  2.0355
    2PC     H1B 7165   5.127   2.727   6.369  1.5897  0.4471 -1.4498
    2PC     C32 7166   5.239   2.901   6.286  0.3588 -0.1222 -0.5294
    2PC     H2A 7167   5.324   2.851   6.239 -0.2502 -0.2866 -1.4873
    2PC     H2B 7168   5.219   2.980   6.214 -0.2443  1.0967  0.9156
    2PC     N31 7169   5.288   2.962   6.414 -0.2503  0.1870 -0.4405
    2PC     C33 7170   5.416   3.039   6.396 -0.1965  0.2145  0.0554
    2PC     H3A 7171   5.459   3.050   6.496  1.1456 -0.0129 -0.4777
    2PC     H3B 7172   5.479   2.980   6.330 -2.0852  1.5848 -3.2207
    2PC     H3C 7173   5.397   3.139   6.358 -3.6336 -0.3349 -0.0186
    2PC     C34 7174   5.192   3.061   6.472  0.5655  0.0526  1.2107
    2PC     H4A 7175   5.100   3.008   6.496  1.2638  0.0007  4.0884
    2PC     H4B 7176   5.231   3.108   6.563  1.3616 -1.7977  1.8634
    2PC     H4C 7177   5.175   3.136   6.394 -1.1591  1.7116  3.0818
    2PC     C35 7178   5.316   2.851   6.511 -0.0607  0.0275 -0.6749
    2PC     H5A 7179   5.359   2.896   6.601  0.1700 -0.3328 -0.6033
    2PC     H5B 7180   5.387   2.787   6.460 -1.4336 -0.8852 -1.4931
    2PC     H5C 7181   5.222   2.799   6.531  0.2918  0.1854  1.6757
    2PC     O33 7182   5.191   2.499   6.132 -0.3867  0.2675  0.1949
    2PC     O34 7183   5.340   2.674   6.145  0.0464  0.0339  0.5081
    2PC     O21 7184   5.261   2.725   5.670  0.2121 -0.4001  0.1559
    2PC     C21 7185   5.230   2.595   5.654  0.4272 -0.4779  0.3721
    2PC     O22 7186   5.135   2.539   5.703 -0.0392  0.0656  0.0932
    3OL     C12 7187   5.312   2.527   5.547  0.0971  0.3670 -0.4351
    3OL     H2R 7188   5.411   2.500   5.584 -0.2180 -1.8693 -1.0753
    3OL     H2S 7189   5.321   2.594   5.462 -1.0520  0.5566 -0.4283
    3OL     C13 7190   5.233   2.403   5.502  0.0405  0.0690  0.4648
    3OL     H3R 7191   5.135   2.442   5.473  0.9759  2.5095  0.3636
    3OL     H3S 7192   5.225   2.337   5.589 -0.1695 -0.3697  0.1207
    3OL     C14 7193   5.284   2.333   5.375 -0.5366  0.1624  0.1760
    3OL     H4R 7194   5.297   2.409   5.298  0.6778 -0.6161 -0.4329
    3OL     H4S 7195   5.208   2.263   5.339 -2.1563  0.2520  3.1083
    3OL     C15 7196   5.417   2.256   5.390  0.0462  1.0554 -0.3279
    3OL     H5R 7197   5.382   2.174   5.453 -4.6086  0.0251 -3.7002
    3OL     H5S 7198   5.499   2.308   5.439  1.0066 -0.3901 -0.3599
    3OL     C16 7199   5.459   2.188   5.259 -0.4784 -0.4344  0.2558
    3OL     H6R 7200   5.463   2.259   5.176 -2.8026 -1.5403 -0.8781
    3OL     H6S 7201   5.389   2.107   5.242 -0.0163 -0.7669 -0.1006
    3OL     C17 7202   5.602   2.134   5.273 -0.2740 -0.0277 -0.2079
    3OL     H7R 7203   5.604   2.082   5.369 -1.5015 -0.2741 -0.2957
    3OL     H7S 7204   5.669   2.219   5.284  2.9570 -2.1734 -1.4865
    3OL     C18 7205   5.653   2.054   5.152 -0.0309 -0.7543  0.3650
    3OL     H8R 7206   5.625   2.115   5.066 -0.0253 -1.6828 -0.3026
    3OL     H8S 7207   5.604   1.958   5.136 -0.1382 -0.3937 -1.7777
    3OL     C19 7208   5.800   2.023   5.169  0.3543  1.0216  0.5340
    3OL     H9R 7209   5.833   1.958   5.250 -0.1101 -1.5491 -1.2242
    3OL    C110 7210   5.901   2.068   5.097  0.2207 -0.2757 -0.5136
    3OL    H10R 7211   6.001   2.029   5.114  0.6422  0.2593 -1.6713
    3OL    C111 7212   5.887   2.160   4.978 -0.4722  0.2763 -0.0131
    3OL    H11R 7213   5.968   2.234   4.971 -1.4323  1.1824 -2.2804
    3OL    H11S 7214   5.795   2.218   4.985 -1.4796 -1.1160 -1.1928
    3OL    C112 7215   5.886   2.098   4.838  0.0661  0.6971 -0.2107
    3OL    H12R 7216   5.819   2.160   4.779  3.5343  1.6076 -3.5531
    3OL    H12S 7217   5.866   1.991   4.843 -0.6246  0.8617  3.0707
    3OL    C113 7218   6.029   2.118   4.786  0.2595  0.4819  0.2271
    3OL    H13R 7219   6.106   2.087   4.856 -0.5633 -0.9833  0.5344
    3OL    H13S 7220   6.043   2.225   4.767 -0.1199  0.7928  1.5675
    3OL    C114 7221   6.042   2.038   4.656  0.3600  0.6905  0.1077
    3OL    H14R 7222   5.974   2.074   4.578  0.3631 -0.7973 -0.6187
    3OL    H14S 7223   6.023   1.933   4.679 -1.0157  0.6910 -0.9064
    3OL    C115 7224   6.188   2.064   4.615  0.5013  0.0343  0.1713
    3OL    H15R 7225   6.254   2.029   4.695 -0.4021  0.4484  1.1292
    3OL    H15S 7226   6.201   2.172   4.608 -2.2118  0.3613 -1.0763
    3OL    C116 7227   6.207   2.007   4.474 -0.1082 -0.3083  0.2243
    3OL    H16R 7228   6.122   2.037   4.413  0.7850 -0.8171 -1.3151
    3OL    H16S 7229   6.216   1.899   4.482 -0.4060 -0.2995  0.7646
    3OL    C117 7230   6.338   2.064   4.418 -0.7356  0.4498 -0.5073
    3OL    H17R 7231   6.420   2.030   4.482 -0.0396  0.5318 -1.3360
    3OL    H17S 7232   6.343   2.172   4.430  0.5155  0.1758  2.4221
    3OL    C118 7233   6.361   2.028   4.271  0.4391 -0.3433 -0.1411
    3OL    H18R 7234   6.438   2.097   4.235 -1.3101  1.8134  0.0629
    3OL    H18S 7235   6.268   2.045   4.217  0.6596  1.9762  0.1162
    3OL    H18T 7236   6.386   1.922   4.263 -0.8019 -0.5689 -1.2697
    1PA    C116 7237   2.874   2.472   3.780  0.0377  0.5547 -0.5918
    1PA    H16R 7238   2.807   2.453   3.696  0.9101 -2.4138 -0.7348
    1PA    H16S 7239   2.836   2.409   3.861  2.2656 -0.0999  0.0035
    1PA    H16T 7240   2.975   2.436   3.760  0.0146 -1.1355  1.8481
    1PA    C115 7241   2.881   2.622   3.811  0.3946  0.4971 -0.3901
    1PA    H15R 7242   2.895   2.681   3.720  0.6943  0.6554 -0.2424
    1PA    H15S 7243   2.789   2.662   3.854  0.1753 -1.4210  1.0644
    1PA    C114 7244   2.997   2.659   3.904  0.4391  0.5540 -0.4690
    1PA    H14R 7245   3.090   2.627   3.857  0.6869 -0.6217  0.7732
    1PA    H14S 7246   3.008   2.767   3.917 -0.2508  0.4894  0.7584
    1PA    C113 7247   2.981   2.598   4.043  0.4777 -0.3308 -0.8480
    1PA    H13R 7248   2.890   2.636   4.089  0.7263  0.2400 -0.8166
    1PA    H13S 7249   2.959   2.493   4.024 -2.2990  0.1396 -0.6410
    1PA    C112 7250   3.106   2.615   4.131 -0.0291 -0.5258 -0.0765
    1PA    H12R 7251   3.103   2.555   4.222 -0.6067  2.4203  2.0236
    1PA    H12S 7252   3.200   2.588   4.082  1.3772  1.3432  1.4022
    1PA    C111 7253   3.126   2.759   4.182 -0.3918 -0.4094 -0.2625
    1PA    H11R 7254   3.230   2.753   4.215 -0.1760 -1.5045 -1.0691
    1PA    H11S 7255   3.104   2.826   4.098 -0.8455 -0.9720 -0.6028
    1PA    C110 7256   3.031   2.794   4.297 -0.0848 -0.0993 -0.1043
    1PA    H10R 7257   3.055   2.896   4.329  0.5569  0.0157 -0.9259
    1PA    H10S 7258   2.928   2.791   4.260 -0.5082  0.2112  0.9920
    1PA     C19 7259   3.040   2.704   4.421 -0.2913 -0.0050 -0.0195
    1PA     H9R 7260   3.026   2.600   4.393  3.3727 -0.6833  0.1663
    1PA     H9S 7261   3.141   2.718   4.461 -0.9156  1.0840  1.2681
    1PA     C18 7262   2.941   2.757   4.525  0.2303  0.3377  0.3076
    1PA     H8R 7263   2.963   2.859   4.557  0.0200 -0.3000  2.6933
    1PA     H8S 7264   2.841   2.750   4.482  0.3997 -2.0134  0.1539
    1PA     C17 7265   2.950   2.664   4.647  0.0987  0.2831  0.2751
    1PA     H7R 7266   2.913   2.564   4.622  0.0595  0.4155 -0.2075
    1PA     H7S 7267   3.055   2.657   4.676  0.7250 -1.3947 -2.0785
    1PA     C16 7268   2.868   2.719   4.765 -0.4517  0.1019 -0.0199
    1PA     H6R 7269   2.886   2.826   4.772 -1.9094  0.3263  0.7890
    1PA     H6S 7270   2.761   2.717   4.744 -0.9587  0.9622  2.2084
    1PA     C15 7271   2.887   2.642   4.896  0.0263 -0.0479 -0.1769
    1PA     H5R 7272   2.852   2.539   4.889  3.2526 -1.6224  3.1189
    1PA     H5S 7273   2.994   2.637   4.920  0.2048 -0.1450 -0.9553
    1PA     C14 7274   2.815   2.711   5.012  0.4021  0.0118  0.0232
    1PA     H4R 7275   2.869   2.798   5.050 -0.5611  0.5982  0.1006
    1PA     H4S 7276   2.712   2.741   4.991 -0.4872 -1.8411  1.4239
    1PA     C13 7277   2.799   2.620   5.135 -0.0788  0.0981  0.0260
    1PA     H3R 7278   2.738   2.665   5.213  0.0041  1.0106 -0.4177
    1PA     H3S 7279   2.737   2.539   5.096 -1.9768  1.9024 -0.9253
    1PA     C12 7280   2.932   2.576   5.197 -0.1023  0.1023  0.0801
    1PA     H2R 7281   3.004   2.539   5.123 -1.0059  0.2844 -0.9199
    1PA     H2S 7282   2.979   2.654   5.256 -0.9609  0.3947  0.3830
    2PC     C11 7283   2.893   2.457   5.282 -0.7210  0.1001 -0.2030
    2PC     O12 7284   2.865   2.344   5.247 -0.0195 -0.3413  0.6389
    2PC     O11 7285   2.895   2.501   5.409 -0.0662 -0.2843 -0.0756
    2PC      C1 7286   2.860   2.416   5.520 -0.3927 -0.1128 -0.0450
    2PC      HR 7287   2.765   2.362   5.515  0.8115 -2.3776  0.5554
    2PC      HS 7288   2.952   2.358   5.528  2.2447  3.6111 -0.7208
    2PC      C2 7289   2.853   2.503   5.646 -0.0187 -0.0105 -0.0936
    2PC      HX 7290   2.906   2.597   5.629 -1.1886  0.6912 -0.0244
    2PC      C3 7291   2.904   2.430   5.771  0.2589  0.3076 -0.0191
    2PC      HA 7292   3.013   2.436   5.779  0.3779 -2.7851  2.1080
    2PC      HB 7293   2.861   2.493   5.849  0.8976  1.6593 -0.7211
    2PC     O31 7294   2.852   2.296   5.775  0.7244  0.1321  0.1535
    2PC     P31 7295   2.918   2.190   5.875  0.0087 -0.2474  0.2296
    2PC     O32 7296   2.845   2.213   6.016  0.0408  0.0445  0.1984
    2PC     C31 7297   2.904   2.159   6.135 -0.0772  0.3060  0.3767
    2PC     H1A 7298   3.012   2.175   6.134 -0.1873  1.2119 -1.3467
    2PC     H1B 7299   2.869   2.218   6.220 -0.8300  0.0906  0.2213
    2PC     C32 7300   2.860   2.012   6.136  0.1461  0.2261 -0.3926
    2PC     H2A 7301   2.897   1.952   6.053  1.6910 -2.1751  1.8547
    2PC     H2B 7302   2.922   1.965   6.213  1.5287 -0.4376 -1.8580
    2PC     N31 7303   2.714   1.984   6.154  0.3079 -0.4275 -0.0554
    2PC     C33 7304   2.657   2.066   6.265  0.6056 -0.0031 -0.2132
    2PC     H3A 7305   2.549   2.049   6.276  0.6389  0.2587  0.6356
    2PC     H3B 7306   2.718   2.033   6.348 -0.1784 -1.6979 -0.2691
    2PC     H3C 7307   2.669   2.172   6.243 -1.3109  0.6680  1.6234
    2PC     C34 7308   2.639   2.019   6.029 -0.5300 -0.3798  0.4512
    2PC     H4A 7309   2.661   2.120   5.992 -3.3130 -0.1724 -0.8848
    2PC     H4B 7310   2.671   1.949   5.951  0.1838 -2.1474  2.2451
    2PC     H4C 7311   2.531   2.020   6.045 -0.8386  2.1489 -1.1388
    2PC     C35 7312   2.691   1.839   6.186  0.0534 -0.3486  0.1209
    2PC     H5A 7313   2.591   1.821   6.226  0.2742  0.3952  1.0258
    2PC     H5B 7314   2.769   1.793   6.246  0.2000 -1.0840 -0.6198
    2PC     H5C 7315   2.701   1.794   6.087 -1.6364  1.4071 -0.9100
    2PC     O33 7316   2.923   2.047   5.836  0.0924 -0.1694 -0.0440
    2PC     O34 7317   3.061   2.226   5.889 -0.0928  0.0382  0.5515
    2PC     O21 7318   2.714   2.527   5.676  0.1023  0.1497  0.3395
    2PC     C21 7319   2.659   2.644   5.640 -0.0164  0.0170  0.0915
    2PC     O22 7320   2.723   2.735   5.591  0.4082 -0.2459  0.1488
    3OL     C12 7321   2.509   2.653   5.655 -0.0277  0.3111 -0.1913
    3OL     H2R 7322   2.479   2.758   5.647 -1.0619  0.1836  1.5304
    3OL     H2S 7323   2.496   2.637   5.762  0.3144  2.0548  0.1481
    3OL     C13 7324   2.439   2.560   5.555  0.1735 -0.0744  0.0253
    3OL     H3R 7325   2.333   2.565   5.582 -0.1928 -1.9470 -0.9111
    3OL     H3S 7326   2.471   2.456   5.567  0.8685  0.1540  0.1612
    3OL     C14 7327   2.452   2.602   5.409 -0.0068  0.3556  0.1317
    3OL     H4R 7328   2.556   2.617   5.380 -0.3061  0.3580 -1.0186
    3OL     H4S 7329   2.409   2.701   5.392  1.4261  1.0505  0.3999
    3OL     C15 7330   2.401   2.495   5.311  0.6123  0.4329 -0.2838
    3OL     H5R 7331   2.293   2.485   5.321  0.7417 -0.5116  0.2137
    3OL     H5S 7332   2.438   2.398   5.343 -4.3192 -1.5298  0.4322
    3OL     C16 7333   2.440   2.520   5.165  0.2826 -0.8970 -0.6097
    3OL     H6R 7334   2.412   2.429   5.111 -2.1668 -0.9062  0.5237
    3OL     H6S 7335   2.547   2.544   5.165  0.2712 -0.7245  1.0612
    3OL     C17 7336   2.370   2.642   5.104  0.3410 -0.7740 -0.4334
    3OL     H7R 7337   2.282   2.673   5.161 -0.4727  0.0088 -2.0208
    3OL     H7S 7338   2.338   2.617   5.002  2.0433 -3.3169 -0.4354
    3OL     C18 7339   2.460   2.762   5.073 -0.2320 -0.1520  0.2870
    3OL     H8R 7340   2.512   2.746   4.978  1.2844  4.1886  0.1474
    3OL     H8S 7341   2.538   2.781   5.146 -3.0437  2.0214  3.0277
    3OL     C19 7342   2.374   2.886   5.060 -0.3844 -0.2654  0.2180
    3OL     H9R 7343   2.320   2.913   5.150 -1.6218 -2.4360  0.2067
    3OL    C110 7344   2.358   2.965   4.955 -0.1541 -0.4666  0.0303
    3OL    H10R 7345   2.296   3.048   4.987  1.0983  0.3262  0.4470
    3OL    C111 7346   2.455   2.967   4.840 -0.2727 -0.7337 -0.0772
    3OL    H11R 7347   2.545   2.914   4.872 -0.7497 -0.2008  2.3580
    3OL    H11S 7348   2.479   3.070   4.811 -2.1927 -0.6166 -1.4128
    3OL    C112 7349   2.393   2.920   4.708  0.1652  0.0128 -0.5621
    3OL    H12R 7350   2.296   2.968   4.691  0.4152  1.1947  1.1060
    3OL    H12S 7351   2.379   2.813   4.729  1.3358  0.3353  2.3215
    3OL    C113 7352   2.489   2.939   4.590  0.1908 -0.0603 -0.5530
    3OL    H13R 7353   2.582   2.886   4.609 -1.2543 -3.6446 -2.3555
    3OL    H13S 7354   2.502   3.047   4.577 -2.6351  0.6226  1.3695
    3OL    C114 7355   2.425   2.885   4.461 -0.5210 -0.3457 -0.0885
    3OL    H14R 7356   2.332   2.938   4.439  0.8489  2.3393  0.2535
    3OL    H14S 7357   2.400   2.780   4.477  0.9843 -0.7004  0.0787
    3OL    C115 7358   2.524   2.896   4.344  0.1342 -0.3767  0.4532
    3OL    H15R 7359   2.622   2.854   4.365  1.3376  1.2661 -1.4876
    3OL    H15S 7360   2.529   2.999   4.306 -0.8992  0.1581  1.6810
    3OL    C116 7361   2.461   2.821   4.225  0.2581  0.0355  0.1224
    3OL    H16R 7362   2.363   2.862   4.199 -0.5225 -0.6354  1.7965
    3OL    H16S 7363   2.440   2.719   4.259 -1.1542  0.5234  0.8256
    3OL    C117 7364   2.552   2.817   4.102 -0.1792  0.2249 -0.2093
    3OL    H17R 7365   2.649   2.780   4.136  0.5578  1.0339 -1.3700
    3OL    H17S 7366   2.575   2.919   4.072  1.9517  0.8304  3.0429
    3OL    C118 7367   2.510   2.719   3.992  0.2817  0.5750 -0.7008
    3OL    H18R 7368   2.422   2.761   3.941  1.2821  1.3594 -1.8281
    3OL    H18S 7369   2.492   2.617   4.028  1.6791  0.0213 -1.5001
    3OL    H18T 7370   2.586   2.723   3.914 -0.6441  1.9016 -1.5842
    1PA    C116 7371   4.296   3.385   3.925  0.1666 -0.2745  0.2041
    1PA    H16R 7372   4.305   3.314   3.843 -1.3522  2.2034 -2.3148
    1PA    H16S 7373   4.381   3.453   3.921  0.4722 -0.6237  0.7408
    1PA    H16T 7374   4.208   3.443   3.896  0.1328 -0.7476 -0.6720
    1PA    C115 7375   4.281   3.325   4.065  0.1192  0.4513  0.5144
    1PA    H15R 7376   4.250   3.402   4.137 -2.5958 -0.0968  0.0472
    1PA    H15S 7377   4.194   3.258   4.059 -0.9398  1.6974  1.4195
    1PA    C114 7378   4.400   3.248   4.122 -0.1020 -0.2455  0.0479
    1PA    H14R 7379   4.424   3.167   4.053 -0.1798 -0.3796  0.1746
    1PA    H14S 7380   4.489   3.311   4.120 -0.6156  0.4696 -0.4231
    1PA    C113 7381   4.377   3.197   4.266  0.4336 -0.0402  0.2104
    1PA    H13R 7382   4.472   3.148   4.286 -0.0989 -0.9647  0.5345
    1PA    H13S 7383   4.365   3.282   4.333 -0.3621  0.5152 -0.6184
    1PA    C112 7384   4.273   3.084   4.268 -0.0038  0.3534 -0.0163
    1PA    H12R 7385   4.177   3.119   4.231 -0.2390 -0.7729 -0.5275
    1PA    H12S 7386   4.307   3.000   4.206 -0.3748 -0.2042  0.5270
    1PA    C111 7387   4.261   3.032   4.412  0.3539  0.4314  0.0444
    1PA    H11R 7388   4.359   3.019   4.458  0.3472  0.2058 -0.0041
    1PA    H11S 7389   4.208   3.116   4.458  0.8750  1.3731 -1.0203
    1PA    C110 7390   4.171   2.909   4.426  0.4544  0.3231 -0.2626
    1PA    H10R 7391   4.075   2.910   4.374 -0.5430 -2.0785  1.3563
    1PA    H10S 7392   4.225   2.822   4.387  0.8114  0.3899  0.0789
    1PA     C19 7393   4.124   2.894   4.571  0.4378  0.7722 -0.2220
    1PA     H9R 7394   4.079   2.986   4.611  2.0928  0.6664  2.0782
    1PA     H9S 7395   4.058   2.808   4.584  1.3008 -0.1149 -1.6168
    1PA     C18 7396   4.240   2.863   4.666 -0.3110 -0.4054  0.3376
    1PA     H8R 7397   4.283   2.767   4.636  0.7459  0.5870 -1.5723
    1PA     H8S 7398   4.332   2.922   4.655  1.5320 -2.9400  1.0712
    1PA     C17 7399   4.202   2.874   4.814  0.5043  0.3396  0.4999
    1PA     H7R 7400   4.240   2.962   4.866 -2.1978  1.2884  1.0303
    1PA     H7S 7401   4.095   2.879   4.836  0.5062  0.6954  0.4272
    1PA     C16 7402   4.243   2.748   4.892  0.3834 -0.3914 -0.5908
    1PA     H6R 7403   4.197   2.745   4.991  0.4138  0.9371 -0.5125
    1PA     H6S 7404   4.210   2.655   4.846  0.2800 -1.2371  1.1018
    1PA     C15 7405   4.394   2.734   4.918  0.3531 -0.0631 -0.2184
    1PA     H5R 7406   4.417   2.627   4.920 -0.5570 -0.2622  0.0285
    1PA     H5S 7407   4.446   2.779   4.833  1.1010 -2.3135 -1.0280
    1PA     C14 7408   4.441   2.799   5.049  0.0337 -0.0205 -0.1256
    1PA     H4R 7409   4.547   2.825   5.044  0.5272 -1.4659  1.6196
    1PA     H4S 7410   4.374   2.886   5.053 -2.2599 -1.6851  0.0205
    1PA     C13 7411   4.417   2.714   5.175 -0.3515  0.0702 -0.1333
    1PA     H3R 7412   4.310   2.715   5.196 -0.7092  0.4973 -1.8096
    1PA     H3S 7413   4.467   2.618   5.159  1.2227  0.3695  2.3712
    1PA     C12 7414   4.502   2.768   5.291 -0.2725  0.2552 -0.2735
    1PA     H2R 7415   4.521   2.683   5.358 -1.3840 -3.1257 -3.8979
    1PA     H2S 7416   4.592   2.815   5.253 -0.2574  0.9107  0.5310
    2PC     C11 7417   4.423   2.871   5.368 -0.1785 -0.2191  0.4695
    2PC     O12 7418   4.317   2.852   5.424 -0.4104 -0.0482  0.0856
    2PC     O11 7419   4.478   2.993   5.362  0.4127 -0.4508  0.9778
    2PC      C1 7420   4.447   3.089   5.465  0.2396  0.2669  0.2701
    2PC      HR 7421   4.344   3.124   5.463  0.1559  0.4632  3.4342
    2PC      HS 7422   4.467   3.048   5.564 -1.8034  1.0988  1.0729
    2PC      C2 7423   4.546   3.202   5.434  0.2547  0.3090  0.4736
    2PC      HX 7424   4.639   3.157   5.399 -0.2241  1.2513 -2.2491
    2PC      C3 7425   4.575   3.294   5.553  0.3231 -0.2250  0.8746
    2PC      HA 7426   4.640   3.252   5.631 -0.5787  2.7792  3.4943
    2PC      HB 7427   4.636   3.383   5.533  2.1898 -1.9502 -1.6340
    2PC     O31 7428   4.450   3.339   5.608  0.1290 -0.1157  0.3496
    2PC     P31 7429   4.447   3.461   5.713  0.1103  0.2217 -0.0416
    2PC     O32 7430   4.291   3.457   5.748  0.1404 -0.3468  0.0356
    2PC     C31 7431   4.198   3.510   5.652 -0.0158 -0.1282  0.3023
    2PC     H1A 7432   4.222   3.613   5.625  0.3391 -0.2000  0.3340
    2PC     H1B 7433   4.205   3.454   5.558  2.4374 -1.1817  1.0146
    2PC     C32 7434   4.057   3.484   5.706 -0.1606 -0.0701 -0.0410
    2PC     H2A 7435   4.040   3.545   5.795 -2.1732 -0.4403 -0.1202
    2PC     H2B 7436   3.989   3.525   5.632  0.4033  1.3626  0.2062
    2PC     N31 7437   4.009   3.344   5.731  0.2902 -0.1780  0.2331
    2PC     C33 7438   4.055   3.234   5.640 -0.0235  0.2527 -0.4461
    2PC     H3A 7439   4.032   3.256   5.535  1.5339  1.3102 -0.6027
    2PC     H3B 7440   4.161   3.217   5.658 -0.0600  0.3078 -0.1775
    2PC     H3C 7441   4.001   3.148   5.678 -0.5720 -0.4143 -2.5983
    2PC     C34 7442   4.049   3.298   5.868  0.3595  0.4767  0.4376
    2PC     H4A 7443   4.018   3.193   5.867  1.2397  0.1988  1.1082
    2PC     H4B 7444   4.156   3.302   5.890 -0.0908  1.1872  2.7268
    2PC     H4C 7445   4.001   3.358   5.946 -1.1550  0.1853 -0.2321
    2PC     C35 7446   3.859   3.348   5.738  0.3047  0.0476  0.4437
    2PC     H5A 7447   3.821   3.422   5.808  1.0690 -0.0869  1.0146
    2PC     H5B 7448   3.834   3.249   5.778 -0.3845 -0.1231 -0.3918
    2PC     H5C 7449   3.823   3.362   5.636 -1.8423 -2.1140  0.8240
    2PC     O33 7450   4.499   3.449   5.851 -0.2394  0.2294  0.0934
    2PC     O34 7451   4.498   3.594   5.675  0.3376  0.1230 -0.0832
    2PC     O21 7452   4.493   3.279   5.325  0.2789 -0.1794  0.1126
    2PC     C21 7453   4.576   3.364   5.262 -0.1254 -0.1725 -0.4168
    2PC     O22 7454   4.697   3.367   5.278 -0.1259 -0.2573 -0.3939
    3OL     C12 7455   4.503   3.459   5.171 -0.1545 -0.2738 -0.5003
    3OL     H2R 7456   4.455   3.391   5.101  1.2164 -1.4369 -0.3612
    3OL     H2S 7457   4.569   3.530   5.120  0.2002  1.3641  2.0343
    3OL     C13 7458   4.404   3.547   5.249  0.5491  0.1581 -0.0734
    3OL     H3R 7459   4.459   3.576   5.338  1.2014 -0.4820 -0.2571
    3OL     H3S 7460   4.330   3.478   5.291  1.0683  0.0531  0.6791
    3OL     C14 7461   4.322   3.655   5.176  0.3395  0.1853  0.2007
    3OL     H4R 7462   4.251   3.702   5.244 -0.6001 -1.8583  0.7066
    3OL     H4S 7463   4.265   3.614   5.093  2.3031 -0.7082 -0.7803
    3OL     C15 7464   4.421   3.762   5.130  0.1822  0.2825  0.0890
    3OL     H5R 7465   4.487   3.716   5.056 -1.0023  1.2053 -1.6040
    3OL     H5S 7466   4.468   3.815   5.214 -0.4513  2.8446 -1.0690
    3OL     C16 7467   4.346   3.871   5.051 -0.5668 -0.2674  0.0413
    3OL     H6R 7468   4.425   3.944   5.037  1.6287 -2.7312 -1.3678
    3OL     H6S 7469   4.258   3.910   5.103 -0.6791 -0.5503  0.0689
    3OL     C17 7470   4.285   3.824   4.919  0.0867 -0.1762 -0.2966
    3OL     H7R 7471   4.193   3.771   4.945  0.0371 -0.7184 -1.4747
    3OL     H7S 7472   4.351   3.755   4.866  1.9624  1.5380 -0.2715
    3OL     C18 7473   4.255   3.945   4.830 -0.0870 -0.4161 -0.5680
    3OL     H8R 7474   4.270   4.035   4.890  1.3264 -2.4029  2.2862
    3OL     H8S 7475   4.152   3.945   4.793 -0.1097 -1.7661 -0.5660
    3OL     C19 7476   4.342   3.938   4.707 -0.1152  0.1982 -0.6288
    3OL     H9R 7477   4.304   3.879   4.623 -1.1848 -1.2863  0.8383
    3OL    C110 7478   4.449   4.012   4.681  0.1606  0.0281  0.0121
    3OL    H10R 7479   4.476   4.003   4.576  0.5765  1.0384  0.0246
    3OL    C111 7480   4.517   4.112   4.771 -0.3177  0.8828 -0.5617
    3OL    H11R 7481   4.495   4.092   4.876 -1.4934 -2.8027 -1.3590
    3OL    H11S 7482   4.473   4.208   4.744  0.8641  1.7908  0.5954
    3OL    C112 7483   4.669   4.104   4.753 -0.1850  0.6735  0.5383
    3OL    H12R 7484   4.715   4.197   4.788 -1.6082  1.2212  1.0145
    3OL    H12S 7485   4.693   4.086   4.648 -1.9358 -0.2837  0.2710
    3OL    C113 7486   4.743   3.996   4.832 -0.0136  0.7305  0.4575
    3OL    H13R 7487   4.843   3.987   4.790 -0.9185 -0.6359 -1.5895
    3OL    H13S 7488   4.681   3.906   4.840 -2.5388  2.4327  1.0620
    3OL    C114 7489   4.764   4.045   4.976  0.0732  0.1481  0.6465
    3OL    H14R 7490   4.670   4.060   5.030  1.6713  2.4143  3.0273
    3OL    H14S 7491   4.815   4.141   4.970  0.3984 -0.0673 -0.2493
    3OL    C115 7492   4.845   3.938   5.050  0.0184 -0.3894 -0.0527
    3OL    H15R 7493   4.850   3.844   4.995  0.0615 -1.1487  1.2066
    3OL    H15S 7494   4.798   3.916   5.146  1.9521 -0.4609  0.9311
    3OL    C116 7495   4.989   3.989   5.067 -0.0282 -0.0102 -0.7618
    3OL    H16R 7496   5.027   4.016   4.969  0.1204  3.6845  0.1762
    3OL    H16S 7497   5.052   3.908   5.105 -1.2097 -0.3261  0.6500
    3OL    C117 7498   5.002   4.106   5.166  0.0862 -0.1989 -0.5521
    3OL    H17R 7499   4.955   4.071   5.259  2.0348  0.6260  0.8007
    3OL    H17S 7500   4.951   4.194   5.126 -1.2897 -1.6315 -2.0665
    3OL    C118 7501   5.143   4.152   5.206 -0.3563  0.0644  0.7607
    3OL    H18R 7502   5.149   4.238   5.273  0.8967  0.5014  0.1257
    3OL    H18S 7503   5.195   4.178   5.114 -1.2258 -2.8213 -0.6816
    3OL    H18T 7504   5.187   4.058   5.239 -3.2779 -2.0155 -0.7847
    1PA    C116 7505   0.569   3.084   4.512 -0.0317 -0.2978 -0.0572
    1PA    H16R 7506   0.665   3.133   4.497 -0.7611  1.4674  0.7791
    1PA    H16S 7507   0.594   2.986   4.554  0.4595 -0.1540 -0.0142
    1PA    H16T 7508   0.509   3.136   4.587  1.7964  1.6635  0.1175
    1PA    C115 7509   0.487   3.054   4.386 -0.2269  0.1266 -0.0355
    1PA    H15R 7510   0.544   2.984   4.324 -0.9997 -0.2148 -0.3753
    1PA    H15S 7511   0.391   3.011   4.415 -0.4536 -0.0889 -1.0576
    1PA    C114 7512   0.450   3.185   4.316 -0.1252 -0.0041 -0.3358
    1PA    H14R 7513   0.376   3.163   4.238 -0.8346 -0.5647  0.4867
    1PA    H14S 7514   0.399   3.244   4.391 -0.3844 -0.2264 -0.3340
    1PA    C113 7515   0.567   3.263   4.255  0.3694 -0.2153  0.3423
    1PA    H13R 7516   0.645   3.273   4.331  2.0882  0.4220 -1.4294
    1PA    H13S 7517   0.600   3.193   4.178 -1.1802  1.4635 -1.9637
    1PA    C112 7518   0.522   3.391   4.183  0.7296 -0.3729 -0.1722
    1PA    H12R 7519   0.589   3.408   4.099  1.7291 -2.1564  0.1932
    1PA    H12S 7520   0.420   3.377   4.148 -0.0456  1.9322  0.9508
    1PA    C111 7521   0.533   3.508   4.282 -0.8692  0.0340 -0.4531
    1PA    H11R 7522   0.509   3.481   4.385  2.2134 -0.3836  0.2473
    1PA    H11S 7523   0.636   3.543   4.285 -0.7731 -0.2273 -0.6496
    1PA    C110 7524   0.456   3.634   4.240 -0.0251  0.2479 -1.3821
    1PA    H10R 7525   0.475   3.664   4.136  0.8339 -0.8053 -1.5444
    1PA    H10S 7526   0.350   3.612   4.247  0.3763 -1.6612 -0.6425
    1PA     C19 7527   0.492   3.764   4.314 -0.2391 -0.4202 -0.0741
    1PA     H9R 7528   0.599   3.788   4.305 -0.1876 -0.5924  0.0709
    1PA     H9S 7529   0.430   3.844   4.273  1.9353  0.1355 -2.6496
    1PA     C18 7530   0.466   3.739   4.463  0.3217  0.2398  0.1396
    1PA     H8R 7531   0.372   3.687   4.480 -0.6168  0.4726 -3.5654
    1PA     H8S 7532   0.544   3.667   4.489 -0.3940 -0.8114 -0.5613
    1PA     C17 7533   0.470   3.871   4.541  0.5023  0.4530 -0.2263
    1PA     H7R 7534   0.568   3.919   4.528  0.2797  0.7443 -0.8571
    1PA     H7S 7535   0.403   3.945   4.498  0.6064  1.0128  0.5489
    1PA     C16 7536   0.447   3.859   4.692  0.0205 -0.1558 -0.3452
    1PA     H6R 7537   0.347   3.819   4.711  0.9306 -2.1858  0.4516
    1PA     H6S 7538   0.521   3.791   4.735  1.0050 -0.1836 -2.0153
    1PA     C15 7539   0.458   3.998   4.756 -0.5596 -0.2397 -0.0509
    1PA     H5R 7540   0.550   4.053   4.732 -1.7540  2.9693  2.0421
    1PA     H5S 7541   0.380   4.070   4.730  0.7327  0.9458 -0.7948
    1PA     C14 7542   0.455   3.989   4.909  0.6815 -0.4195 -0.0233
    1PA     H4R 7543   0.383   3.913   4.939 -0.8908  1.4946  1.3341
    1PA     H4S 7544   0.554   3.964   4.948  1.7252 -2.7088 -3.6670
    1PA     C13 7545   0.403   4.122   4.965  0.4208 -0.3988 -0.3102
    1PA     H3R 7546   0.465   4.207   4.933 -2.6867  1.7929 -0.9398
    1PA     H3S 7547   0.301   4.138   4.930  0.2445  0.3918  0.5254
    1PA     C12 7548   0.399   4.132   5.118 -0.2793  0.2864 -0.3668
    1PA     H2R 7549   0.337   4.057   5.168  2.0094  0.3126  2.8310
    1PA     H2S 7550   0.496   4.105   5.161 -1.7276 -1.8727  1.7884
    2PC     C11 7551   0.349   4.270   5.154 -0.3744  0.2411 -0.3232
    2PC     O12 7552   0.393   4.376   5.113  0.2569  0.0650 -0.1253
    2PC     O11 7553   0.250   4.276   5.244 -0.0753 -0.6346  0.0803
    2PC      C1 7554   0.213   4.404   5.298 -0.3133 -0.3124 -0.8306
    2PC      HR 7555   0.305   4.438   5.347 -1.5188  2.7241 -0.4689
    2PC      HS 7556   0.196   4.473   5.215  0.4191  0.3578 -0.4394
    2PC      C2 7557   0.093   4.406   5.394  0.5230 -0.1103  0.2289
    2PC      HX 7558   0.069   4.502   5.440  2.3883 -0.0049  1.0779
    2PC      C3 7559   0.118   4.301   5.503  0.0300 -0.6263 -0.1476
    2PC      HA 7560   0.142   4.205   5.459  2.1580  0.4525 -1.4931
    2PC      HB 7561   0.206   4.328   5.562  0.9011 -1.9864 -0.7771
    2PC     O31 7562   0.011   4.291   5.599  0.0865  0.3699  0.0352
    2PC     P31 7563   0.010   4.201   5.732  0.2750  0.0435 -0.1817
    2PC     O32 7564  -0.079   4.078   5.683  0.2229  0.3505 -0.8789
    2PC     C31 7565  -0.216   4.100   5.645  0.0753  0.4694 -0.2909
    2PC     H1A 7566  -0.251   4.185   5.704  0.8061  0.3344  0.3481
    2PC     H1B 7567  -0.217   4.113   5.536 -2.4118 -3.0965 -0.8887
    2PC     C32 7568  -0.310   3.982   5.674  0.2076  0.5058  0.3018
    2PC     H2A 7569  -0.404   3.997   5.620 -0.3849 -0.0489  1.1514
    2PC     H2B 7570  -0.256   3.890   5.651  0.6628  1.0268 -0.8434
    2PC     N31 7571  -0.371   3.977   5.811 -0.3260 -0.1596  0.0442
    2PC     C33 7572  -0.461   4.093   5.840  0.4103  0.2881  0.5782
    2PC     H3A 7573  -0.513   4.076   5.934  1.0661  2.1089  1.2973
    2PC     H3B 7574  -0.400   4.181   5.860 -0.1203  0.5656  0.9699
    2PC     H3C 7575  -0.530   4.112   5.757  0.0121  2.1461  1.2982
    2PC     C34 7576  -0.447   3.849   5.828  0.2897 -0.5597 -0.1484
    2PC     H4A 7577  -0.499   3.862   5.924 -0.7618  0.0112 -0.7724
    2PC     H4B 7578  -0.513   3.834   5.743 -1.3227  2.0368  0.5421
    2PC     H4C 7579  -0.367   3.775   5.832  0.1496 -0.6776  0.8992
    2PC     C35 7580  -0.263   3.987   5.914 -0.1342 -0.3818 -0.1329
    2PC     H5A 7581  -0.196   3.901   5.905  1.5675  1.0123 -1.7003
    2PC     H5B 7582  -0.315   3.996   6.010 -0.1239  0.6868 -0.2238
    2PC     H5C 7583  -0.203   4.076   5.896 -1.6047  0.2533 -2.1378
    2PC     O33 7584   0.142   4.153   5.777  0.0753 -0.5674 -0.2383
    2PC     O34 7585  -0.033   4.264   5.859  0.3713 -0.0287 -0.1141
    2PC     O21 7586  -0.015   4.372   5.306  0.4742 -0.1980  0.3228
    2PC     C21 7587  -0.144   4.391   5.340  0.4108 -0.5452  0.2758
    2PC     O22 7588  -0.181   4.448   5.441 -0.0876 -0.0078 -0.2035
    3OL     C12 7589  -0.245   4.338   5.241  0.1231  0.0027  0.2729
    3OL     H2R 7590  -0.345   4.346   5.284  0.6415  1.7762  1.2335
    3OL     H2S 7591  -0.224   4.233   5.219 -0.3245 -0.0112 -0.0997
    3OL     C13 7592  -0.237   4.412   5.107 -0.1358 -0.0558  0.2250
    3OL     H3R 7593  -0.139   4.392   5.064  0.4757  0.6281  1.2427
    3OL     H3S 7594  -0.243   4.520   5.124 -0.9387 -0.3779  2.3468
    3OL     C14 7595  -0.341   4.363   5.006 -0.0054 -0.4866  0.2944
    3OL     H4R 7596  -0.437   4.394   5.048  0.4195  1.1304  0.1738
    3OL     H4S 7597  -0.330   4.255   4.995 -0.3757 -0.4411 -0.6901
    3OL     C15 7598  -0.326   4.435   4.871  0.6202 -0.7011  0.2510
    3OL     H5R 7599  -0.226   4.411   4.833  1.1546 -0.7412  1.6203
    3OL     H5S 7600  -0.325   4.542   4.893 -0.7381 -0.8930  1.3313
    3OL     C16 7601  -0.434   4.402   4.767  0.3820 -0.1834  0.3320
    3OL     H6R 7602  -0.470   4.302   4.791 -0.6227  0.2291  0.5896
    3OL     H6S 7603  -0.400   4.401   4.663  0.3969  0.1257  0.3350
    3OL     C17 7604  -0.550   4.502   4.768 -0.1771 -0.8246  0.0103
    3OL     H7R 7605  -0.524   4.599   4.725 -0.5469 -0.5804  0.3311
    3OL     H7S 7606  -0.586   4.518   4.869 -1.0975  2.9946 -0.7619
    3OL     C18 7607  -0.681   4.448   4.707 -0.3868 -0.0513 -0.2387
    3OL     H8R 7608  -0.757   4.518   4.741  1.1927  1.1460  0.9812
    3OL     H8S 7609  -0.702   4.350   4.750 -1.3813  0.3748  0.2731
    3OL     C19 7610  -0.675   4.431   4.557 -0.3603  0.5172 -0.3048
    3OL     H9R 7611  -0.576   4.451   4.516 -0.4096  0.7809 -0.2979
    3OL    C110 7612  -0.769   4.379   4.479 -0.1498 -0.5189  0.1137
    3OL    H10R 7613  -0.738   4.359   4.377  0.7748  1.0264  0.0546
    3OL    C111 7614  -0.912   4.357   4.522 -0.2622 -0.2391 -0.1171
    3OL    H11R 7615  -0.968   4.451   4.515  0.4303  0.0721 -2.7837
    3OL    H11S 7616  -0.912   4.327   4.627 -0.2638 -1.2344 -0.3900
    3OL    C112 7617  -0.992   4.252   4.443  0.1020 -0.2845 -0.4312
    3OL    H12R 7618  -0.997   4.279   4.337  0.8413  1.7096  0.0041
    3OL    H12S 7619  -1.092   4.251   4.487  0.6980  0.1002  0.9855
    3OL    C113 7620  -0.928   4.115   4.465 -0.0811 -0.2140  0.5851
    3OL    H13R 7621  -0.905   4.098   4.571 -1.5518 -1.2911  0.7543
    3OL    H13S 7622  -0.836   4.105   4.406 -0.4133  0.4182 -0.0386
    3OL    C114 7623  -1.018   4.001   4.417  0.3528 -0.0690 -0.5997
    3OL    H14R 7624  -1.015   4.022   4.310  0.6970  1.9390 -0.2325
    3OL    H14S 7625  -1.122   4.009   4.451  0.0851 -0.7710 -1.2043
    3OL    C115 7626  -0.962   3.859   4.436 -0.2047 -0.2265 -0.0793
    3OL    H15R 7627  -1.050   3.795   4.438 -1.1857  1.1029  1.1193
    3OL    H15S 7628  -0.917   3.852   4.535 -1.5509 -0.8175  0.5045
    3OL    C116 7629  -0.872   3.801   4.325  0.0132 -1.1919  0.5912
    3OL    H16R 7630  -0.814   3.719   4.368 -1.1629 -1.6440  1.3621
    3OL    H16S 7631  -0.801   3.878   4.295 -0.7755 -0.4043  0.6930
    3OL    C117 7632  -0.948   3.744   4.205  0.2075  0.4949 -0.3607
    3OL    H17R 7633  -1.005   3.824   4.158  3.0204  1.8449 -1.7191
    3OL    H17S 7634  -1.011   3.665   4.245  0.4319  1.0910  1.2239
    3OL    C118 7635  -0.859   3.701   4.087 -0.3004 -0.2244 -0.4810
    3OL    H18R 7636  -0.769   3.760   4.070 -0.9192  0.0752 -3.2413
    3OL    H18S 7637  -0.916   3.696   3.994 -1.8888 -2.3029  0.5125
    3OL    H18T 7638  -0.825   3.601   4.114  1.4309  0.5057  0.1782
    1PA    C116 7639   5.865   2.331   4.192  0.1319  0.2557  0.0893
    1PA    H16R 7640   5.860   2.435   4.157 -2.3434  0.3895  0.6861
    1PA    H16S 7641   5.826   2.264   4.116  2.1594  0.4470 -1.1881
    1PA    H16T 7642   5.969   2.299   4.207 -0.5489 -1.7372  0.8192
    1PA    C115 7643   5.797   2.310   4.328  0.0243 -0.0996 -0.0210
    1PA    H15R 7644   5.702   2.363   4.326 -0.2970 -0.4360  2.7522
    1PA    H15S 7645   5.783   2.203   4.347  0.7949 -0.0508  0.8736
    1PA    C114 7646   5.872   2.357   4.453  0.2247  0.2212 -0.2599
    1PA    H14R 7647   5.814   2.333   4.543  0.3668  2.8415  0.6207
    1PA    H14S 7648   5.965   2.303   4.469 -0.5399 -0.4147  2.8005
    1PA    C113 7649   5.884   2.510   4.459  0.8318  0.1741 -0.2006
    1PA    H13R 7650   5.939   2.552   4.375 -0.2079  0.0490 -0.9738
    1PA    H13S 7651   5.784   2.553   4.447  1.2873  0.6041 -2.9115
    1PA    C112 7652   5.952   2.569   4.583  0.1638  0.1124  0.2047
    1PA    H12R 7653   6.055   2.536   4.569  0.2972 -0.4686  2.2320
    1PA    H12S 7654   5.943   2.678   4.589  0.2936  0.2285 -1.3059
    1PA    C111 7655   5.916   2.499   4.715  0.3244  0.0752  0.2299
    1PA    H11R 7656   5.811   2.523   4.733  0.1549 -0.4586 -0.0414
    1PA    H11S 7657   5.930   2.392   4.704  0.7339  0.1367  0.1429
    1PA    C110 7658   5.997   2.546   4.836 -0.1288 -0.0129  0.5691
    1PA    H10R 7659   5.994   2.656   4.832  2.0212  0.1009  0.7808
    1PA    H10S 7660   5.942   2.510   4.923  0.2401 -0.1529  0.7458
    1PA     C19 7661   6.143   2.499   4.829 -0.3780 -0.7669  0.3404
    1PA     H9R 7662   6.141   2.406   4.772 -0.0587 -2.6696  3.2568
    1PA     H9S 7663   6.191   2.579   4.771 -0.8870  0.0262  0.9759
    1PA     C18 7664   6.225   2.475   4.956  0.4167 -0.3222 -0.0788
    1PA     H8R 7665   6.155   2.420   5.019 -0.7846  0.6992 -0.4772
    1PA     H8S 7666   6.319   2.422   4.939 -0.0667 -0.3666 -3.0433
    1PA     C17 7667   6.253   2.611   5.022 -0.4264 -0.2492  0.1491
    1PA     H7R 7668   6.313   2.669   4.952 -1.8685 -0.6868 -1.4824
    1PA     H7S 7669   6.160   2.666   5.037 -0.7516 -0.3563 -1.3283
    1PA     C16 7670   6.340   2.598   5.149  0.2620  0.0750 -0.2802
    1PA     H6R 7671   6.294   2.542   5.231  2.3154 -1.6755 -0.2239
    1PA     H6S 7672   6.434   2.547   5.129  0.6100  0.2008  0.9639
    1PA     C15 7673   6.366   2.742   5.193 -0.4977  0.0590  0.2501
    1PA     H5R 7674   6.416   2.794   5.110 -0.1913  2.3634  1.7825
    1PA     H5S 7675   6.273   2.797   5.210 -0.7937 -0.2507 -0.3388
    1PA     C14 7676   6.456   2.750   5.318 -0.1925 -0.2594  0.0543
    1PA     H4R 7677   6.408   2.700   5.402 -0.1192 -1.2846 -0.5103
    1PA     H4S 7678   6.548   2.694   5.300 -0.6372 -1.5450  1.5674
    1PA     C13 7679   6.505   2.892   5.349 -0.0906 -0.1461 -0.5969
    1PA     H3R 7680   6.579   2.886   5.429 -1.9151 -1.7239  1.0920
    1PA     H3S 7681   6.552   2.936   5.261  0.1289 -0.3162 -0.5651
    1PA     C12 7682   6.395   2.992   5.389 -0.0930 -0.3218 -0.1534
    1PA     H2R 7683   6.452   3.085   5.393  1.6208 -1.3651  0.2385
    1PA     H2S 7684   6.308   2.990   5.322 -0.2539 -1.1856  0.0635
    2PC     C11 7685   6.336   2.978   5.527 -0.0730 -0.0610 -0.1173
    2PC     O12 7686   6.379   2.906   5.615 -0.2164  0.3248  0.2691
    2PC     O11 7687   6.225   3.054   5.527 -0.2419 -0.3057 -0.1334
    2PC      C1 7688   6.116   3.031   5.618  0.5644 -0.0238  0.9201
    2PC      HR 7689   6.051   2.946   5.596 -0.5732  1.0098  0.2178
    2PC      HS 7690   6.154   3.010   5.719 -0.4454  1.0810  1.5448
    2PC      C2 7691   6.033   3.159   5.624 -0.1080 -0.4248  0.2941
    2PC      HX 7692   6.096   3.248   5.623 -1.6996  0.7600 -0.8883
    2PC      C3 7693   5.954   3.172   5.755  0.1880 -0.1863  0.4506
    2PC      HA 7694   6.031   3.174   5.832  0.4659  0.5290  0.1638
    2PC      HB 7695   5.889   3.260   5.755 -0.1114 -0.4045  0.8409
    2PC     O31 7696   5.876   3.052   5.771  0.1055 -0.1664  0.2115
    2PC     P31 7697   5.803   3.026   5.911  0.0701 -0.1525  0.1962
    2PC     O32 7698   5.758   2.875   5.879 -0.1242  0.0244 -0.3821
    2PC     C31 7699   5.673   2.824   5.984  0.1941  0.4367  0.0828
    2PC     H1A 7700   5.730   2.785   6.069 -0.2738  2.5107  1.4257
    2PC     H1B 7701   5.605   2.904   6.013  0.1190  0.6682 -0.7074
    2PC     C32 7702   5.588   2.716   5.915  0.1475  0.5517 -0.0406
    2PC     H2A 7703   5.499   2.710   5.978  0.5683 -0.5279  0.4808
    2PC     H2B 7704   5.577   2.746   5.811  2.5235  0.2048 -0.4359
    2PC     N31 7705   5.644   2.578   5.906  0.0698  0.5396 -0.3398
    2PC     C33 7706   5.778   2.576   5.839  0.2570 -0.5368  0.0433
    2PC     H3A 7707   5.823   2.477   5.829  2.0375  0.3884 -1.9677
    2PC     H3B 7708   5.783   2.614   5.737 -0.1126 -1.8505 -0.4930
    2PC     H3C 7709   5.848   2.636   5.898  0.4347 -0.0013 -0.6943
    2PC     C34 7710   5.672   2.516   6.040  0.0875  0.4764 -0.3727
    2PC     H4A 7711   5.717   2.419   6.018  0.5403  0.1272  1.8988
    2PC     H4B 7712   5.739   2.572   6.105 -1.0095 -0.6812  1.8789
    2PC     H4C 7713   5.572   2.490   6.077  0.3267  0.3390  0.1847
    2PC     C35 7714   5.565   2.488   5.816  0.1848  0.3224 -0.2258
    2PC     H5A 7715   5.462   2.493   5.851 -0.2129  1.0825 -1.4187
    2PC     H5B 7716   5.598   2.384   5.823 -1.4152 -0.1655  0.4777
    2PC     H5C 7717   5.567   2.531   5.715  0.1320  0.4764 -0.1619
    2PC     O33 7718   5.894   3.045   6.026  0.4190 -0.3324 -0.0483
    2PC     O34 7719   5.684   3.111   5.937  0.0708 -0.0846 -0.0194
    2PC     O21 7720   5.945   3.148   5.510  0.0161  0.4378  0.1083
    2PC     C21 7721   5.899   3.260   5.452 -0.0820  0.3649  0.0468
    2PC     O22 7722   5.948   3.367   5.481 -0.1437  0.4019  0.0157
    3OL     C12 7723   5.793   3.233   5.348 -0.2382 -0.1975  0.3490
    3OL     H2R 7724   5.696   3.204   5.389 -1.3351  1.3155 -1.0454
    3OL     H2S 7725   5.832   3.168   5.269  1.3048  1.0782  0.0171
    3OL     C13 7726   5.755   3.361   5.273 -0.0249 -0.3720 -0.0627
    3OL     H3R 7727   5.737   3.444   5.342 -0.5656  1.1532 -1.9460
    3OL     H3S 7728   5.661   3.349   5.220 -0.2124 -0.2017  0.2277
    3OL     C14 7729   5.862   3.413   5.176  0.0231  0.8081  0.5964
    3OL     H4R 7730   5.846   3.368   5.078 -0.1836 -0.3888  1.1645
    3OL     H4S 7731   5.964   3.390   5.207 -0.4333 -1.0283  0.8316
    3OL     C15 7732   5.838   3.563   5.153 -0.1853  0.7949  0.7296
    3OL     H5R 7733   5.825   3.627   5.241 -1.2209  0.1167  1.0957
    3OL     H5S 7734   5.750   3.582   5.090  0.7843  1.7231 -0.3814
    3OL     C16 7735   5.958   3.612   5.072 -0.6555  0.4380 -0.2005
    3OL     H6R 7736   5.963   3.570   4.971 -0.4723  1.4022 -0.6060
    3OL     H6S 7737   6.048   3.581   5.126  0.1571 -0.3807 -1.9558
    3OL     C17 7738   5.960   3.766   5.069  0.0280  0.4530  0.6027
    3OL     H7R 7739   6.048   3.814   5.027 -1.2467  2.3193 -0.0522
    3OL     H7S 7740   5.938   3.808   5.168  0.0869  1.5643  0.1512
    3OL     C18 7741   5.852   3.823   4.975  0.2450  0.0648  0.1141
    3OL     H8R 7742   5.754   3.783   5.000 -0.2497  1.4281  0.4646
    3OL     H8S 7743   5.863   3.784   4.874 -1.1734  0.8910 -0.3844
    3OL     C19 7744   5.842   3.973   4.992 -0.2627  0.0088  0.3372
    3OL     H9R 7745   5.844   4.001   5.097 -2.8276  1.0905  0.1646
    3OL    C110 7746   5.850   4.065   4.897 -1.4244 -0.0927  0.1308
    3OL    H10R 7747   5.857   4.170   4.924 -0.5294 -0.1970  0.3262
    3OL    C111 7748   5.842   4.034   4.749  0.2194  0.7071 -0.1511
    3OL    H11R 7749   5.778   4.104   4.695 -0.9608 -0.0684  0.1980
    3OL    H11S 7750   5.791   3.938   4.739  0.6167  0.4031  0.6304
    3OL    C112 7751   5.986   4.029   4.698  0.1787  0.7021 -0.2641
    3OL    H12R 7752   6.044   3.962   4.762 -0.2846  0.9776  0.4513
    3OL    H12S 7753   6.026   4.131   4.699 -2.3075  1.7439 -0.0610
    3OL    C113 7754   5.993   3.972   4.556  0.1635 -0.5092  0.2149
    3OL    H13R 7755   5.931   4.037   4.494 -0.0443 -0.2775  0.6634
    3OL    H13S 7756   5.956   3.869   4.552 -0.1807 -0.3780 -0.0654
    3OL    C114 7757   6.138   3.981   4.508 -0.0633  0.1028 -0.3755
    3OL    H14R 7758   6.205   3.926   4.575 -0.5394  0.8192  0.7087
    3OL    H14S 7759   6.178   4.082   4.507  0.6432 -0.1434 -2.2447
    3OL    C115 7760   6.160   3.915   4.371  0.1742  0.1010 -0.3370
    3OL    H15R 7761   6.266   3.913   4.342 -0.1170  0.7764 -1.5528
    3OL    H15S 7762   6.109   3.981   4.300 -1.2805  0.1935  0.7682
    3OL    C116 7763   6.094   3.780   4.341  0.0560  0.1514 -0.3020
    3OL    H16R 7764   5.985   3.789   4.338 -0.0580 -1.1026 -0.3827
    3OL    H16S 7765   6.117   3.697   4.408 -2.3719 -1.7243 -1.6027
    3OL    C117 7766   6.139   3.717   4.208  0.0557 -0.7463  0.1147
    3OL    H17R 7767   6.243   3.685   4.221 -0.2931 -1.5420  1.0937
    3OL    H17S 7768   6.128   3.781   4.121 -0.5905  1.3804  1.6724
    3OL    C118 7769   6.064   3.592   4.163 -0.4034 -0.1408 -0.8239
    3OL    H18R 7770   5.956   3.609   4.162 -0.5687 -1.1396 -1.5451
    3OL    H18S 7771   6.085   3.506   4.227 -0.7706  1.2668  1.2927
    3OL    H18T 7772   6.091   3.570   4.059 -2.4476  0.9313 -1.6559
    1PA    C116 7773   5.476   5.864   3.792  0.6731  0.1619 -0.0990
    1PA    H16R 7774   5.566   5.820   3.833  1.1776  1.4366  0.2237
    1PA    H16S 7775   5.431   5.808   3.710  2.1164  0.3455 -1.0426
    1PA    H16T 7776   5.409   5.857   3.878  0.1715 -0.5460 -0.5442
    1PA    C115 7777   5.470   6.012   3.750  0.3458  0.2124  0.1240
    1PA    H15R 7778   5.525   6.025   3.657 -0.4715 -1.7888 -0.7047
    1PA    H15S 7779   5.367   6.044   3.732  0.0214  0.6129  2.2989
    1PA    C114 7780   5.538   6.104   3.853  0.1387  0.0384  0.4210
    1PA    H14R 7781   5.642   6.078   3.831 -0.7740 -3.0693 -0.8690
    1PA    H14S 7782   5.525   6.211   3.832  2.0469  0.1942 -0.1569
    1PA    C113 7783   5.502   6.070   3.998 -0.5698 -0.1702  0.2022
    1PA    H13R 7784   5.394   6.078   4.014 -0.5227  1.1326 -0.0200
    1PA    H13S 7785   5.529   5.968   4.026 -1.8812 -0.2282  1.3651
    1PA    C112 7786   5.565   6.173   4.093  0.0185 -0.0610 -0.2970
    1PA    H12R 7787   5.655   6.219   4.053  0.4546  1.1016  1.8938
    1PA    H12S 7788   5.501   6.262   4.101  2.1852  1.5961 -0.3438
    1PA    C111 7789   5.580   6.109   4.232 -0.0771  0.3959 -0.0729
    1PA    H11R 7790   5.630   6.013   4.224 -0.7967 -0.0160  0.2759
    1PA    H11S 7791   5.646   6.172   4.291 -0.0336 -1.1132  1.5332
    1PA    C110 7792   5.446   6.074   4.299  0.1109 -0.0370  0.0742
    1PA    H10R 7793   5.377   6.024   4.232  0.2431 -1.0692  0.6863
    1PA    H10S 7794   5.465   6.007   4.383 -1.5091 -1.4315 -0.6134
    1PA     C19 7795   5.373   6.197   4.353  0.3635  0.1516 -0.0119
    1PA     H9R 7796   5.445   6.239   4.423 -0.7572 -0.1098  1.3466
    1PA     H9S 7797   5.357   6.268   4.272 -2.1347 -1.5029 -1.0646
    1PA     C18 7798   5.237   6.170   4.420  0.1125  0.7267 -0.2751
    1PA     H8R 7799   5.184   6.265   4.414 -0.7234  0.3285  0.5757
    1PA     H8S 7800   5.182   6.094   4.364 -0.2640  1.0087 -0.2833
    1PA     C17 7801   5.243   6.102   4.558 -0.4519  0.0077 -0.5963
    1PA     H7R 7802   5.279   5.999   4.548 -0.4181  0.1642 -2.4779
    1PA     H7S 7803   5.314   6.148   4.627 -1.8309 -0.2390  1.0296
    1PA     C16 7804   5.107   6.078   4.624 -0.3574 -0.1855 -0.4714
    1PA     H6R 7805   5.042   6.165   4.634 -1.6651 -1.2191  0.4679
    1PA     H6S 7806   5.053   6.000   4.570  0.9171 -0.4273 -1.4489
    1PA     C15 7807   5.124   6.039   4.771 -0.2838  0.1508 -0.3908
    1PA     H5R 7808   5.176   5.943   4.776 -0.1065  0.2708  0.0675
    1PA     H5S 7809   5.186   6.113   4.822  0.1490 -2.0599  2.5204
    1PA     C14 7810   4.987   6.022   4.838  0.1459 -0.3234  0.3830
    1PA     H4R 7811   4.921   6.105   4.814  0.0284 -0.6602 -0.5092
    1PA     H4S 7812   4.948   5.934   4.787  3.0237 -1.6680  0.3267
    1PA     C13 7813   5.009   6.007   4.989  0.5035  0.0467  0.3689
    1PA     H3R 7814   5.083   5.927   4.999  1.8136  1.1218 -0.2589
    1PA     H3S 7815   5.048   6.101   5.030 -0.4260  0.2102  0.9148
    1PA     C12 7816   4.879   5.972   5.062  0.1438  0.9041  0.1542
    1PA     H2R 7817   4.803   6.050   5.055 -2.6477 -1.6686 -0.8659
    1PA     H2S 7818   4.837   5.883   5.014 -0.5914  0.9290  0.7299
    2PC     C11 7819   4.919   5.954   5.206  0.1756  0.2566  0.0682
    2PC     O12 7820   4.892   6.037   5.290  0.4095  0.6287 -0.2220
    2PC     O11 7821   4.986   5.843   5.241 -0.1756 -0.0285 -0.1533
    2PC      C1 7822   5.034   5.818   5.375  0.2444 -0.3268 -0.3548
    2PC      HR 7823   5.085   5.910   5.403  0.8269 -0.7370 -0.0480
    2PC      HS 7824   4.946   5.807   5.439  0.0930 -1.1327 -0.6915
    2PC      C2 7825   5.133   5.701   5.377 -0.0691 -0.5823  0.2251
    2PC      HX 7826   5.080   5.613   5.338 -3.5913  1.0274  0.9445
    2PC      C3 7827   5.181   5.681   5.522 -0.0742  0.2209  0.3410
    2PC      HA 7828   5.096   5.648   5.582 -0.5795 -0.7202 -0.8519
    2PC      HB 7829   5.249   5.596   5.513  0.5665  0.9507 -3.8626
    2PC     O31 7830   5.241   5.802   5.572  0.2951  0.3127 -0.3057
    2PC     P31 7831   5.333   5.784   5.702  0.0250 -0.0012 -0.1566
    2PC     O32 7832   5.222   5.770   5.817 -0.1316  0.4334 -0.2493
    2PC     C31 7833   5.195   5.882   5.902 -0.5750 -0.1390  0.3723
    2PC     H1A 7834   5.199   5.977   5.849  1.5950 -0.9294 -1.0242
    2PC     H1B 7835   5.095   5.864   5.941 -0.6590 -1.4209 -0.3886
    2PC     C32 7836   5.295   5.887   6.019 -0.0128 -0.7334 -0.0757
    2PC     H2A 7837   5.393   5.861   5.977  0.0244 -0.5270 -0.1200
    2PC     H2B 7838   5.304   5.992   6.048  0.0377 -0.4900 -0.9374
    2PC     N31 7839   5.271   5.801   6.139  0.1181 -0.2515  0.3031
    2PC     C33 7840   5.310   5.657   6.121 -0.0465 -0.2332 -0.2407
    2PC     H3A 7841   5.408   5.654   6.074  1.0030  2.2075  1.5892
    2PC     H3B 7842   5.325   5.616   6.221 -0.7432  0.8541  0.3335
    2PC     H3C 7843   5.235   5.612   6.055 -0.7222 -1.8268  1.4977
    2PC     C34 7844   5.358   5.865   6.243  0.0177  0.3433  0.0237
    2PC     H4A 7845   5.458   5.825   6.222 -0.8635 -0.9908 -1.9691
    2PC     H4B 7846   5.348   5.973   6.235 -0.4557  0.2603 -0.6556
    2PC     H4C 7847   5.321   5.819   6.334  1.2732 -1.0293 -0.1104
    2PC     C35 7848   5.134   5.802   6.199 -0.1129 -0.2350 -0.2164
    2PC     H5A 7849   5.106   5.897   6.244 -0.8125 -0.2471 -0.6052
    2PC     H5B 7850   5.133   5.723   6.274  0.9952  1.2725  1.4740
    2PC     H5C 7851   5.058   5.784   6.123 -0.6064  2.5767 -0.4737
    2PC     O33 7852   5.416   5.662   5.699 -0.1427 -0.1302  0.3453
    2PC     O34 7853   5.450   5.873   5.723 -0.1220  0.1197  0.1542
    2PC     O21 7854   5.248   5.713   5.292 -0.4287  0.4809 -0.1284
    2PC     C21 7855   5.332   5.816   5.274  0.7298 -0.3623  0.3051
    2PC     O22 7856   5.316   5.924   5.326  0.1865 -0.4443  0.3102
    3OL     C12 7857   5.445   5.778   5.182  0.0042 -0.4951 -0.5456
    3OL     H2R 7858   5.473   5.673   5.197 -0.8037 -0.3070  3.0570
    3OL     H2S 7859   5.531   5.840   5.209  0.7138 -2.1444  1.1856
    3OL     C13 7860   5.403   5.803   5.036 -0.5581 -0.1215 -0.3201
    3OL     H3R 7861   5.339   5.889   5.018 -1.6196 -0.9716 -0.7599
    3OL     H3S 7862   5.341   5.716   5.010  0.7713 -1.5662  1.0697
    3OL     C14 7863   5.519   5.809   4.936 -0.3417 -0.1277 -0.0701
    3OL     H4R 7864   5.577   5.718   4.950 -1.8502 -1.3007 -1.2144
    3OL     H4S 7865   5.573   5.902   4.957 -0.3921  0.0145 -0.5703
    3OL     C15 7866   5.477   5.816   4.789  0.1699 -0.2806 -0.2250
    3OL     H5R 7867   5.568   5.828   4.729  1.7318 -1.9675  1.6739
    3OL     H5S 7868   5.397   5.889   4.772  0.5523  0.8734  2.4310
    3OL     C16 7869   5.429   5.678   4.743 -0.6898  0.0354 -0.2885
    3OL     H6R 7870   5.335   5.652   4.792 -3.5253  2.7551 -3.7166
    3OL     H6S 7871   5.504   5.601   4.760 -0.2798  0.6962  0.9893
    3OL     C17 7872   5.403   5.677   4.592  0.3575  0.9737 -0.4816
    3OL     H7R 7873   5.357   5.763   4.543  0.4358 -0.0573 -2.4953
    3OL     H7S 7874   5.322   5.607   4.574  0.6556  0.1880  1.0682
    3OL     C18 7875   5.520   5.635   4.502  0.6340  0.1829  0.2369
    3OL     H8R 7876   5.540   5.528   4.512  1.1099  0.2293 -0.1608
    3OL     H8S 7877   5.601   5.699   4.538  1.9835 -0.2236 -1.8717
    3OL     C19 7878   5.477   5.673   4.362  0.3841 -0.2609  0.1915
    3OL     H9R 7879   5.370   5.667   4.343  0.3406 -0.5211  0.5045
    3OL    C110 7880   5.556   5.744   4.282 -0.3755  1.3517  0.8288
    3OL    H10R 7881   5.512   5.784   4.192 -1.2882  0.4011  0.8218
    3OL    C111 7882   5.705   5.760   4.298 -0.1785 -0.3188  0.8446
    3OL    H11R 7883   5.736   5.668   4.350  0.1096  0.3211  1.8444
    3OL    H11S 7884   5.719   5.842   4.368 -1.0107  0.3789  0.2098
    3OL    C112 7885   5.781   5.763   4.166  0.1252  0.2805  1.0315
    3OL    H12R 7886   5.888   5.759   4.189  0.7588 -0.0506 -1.5653
    3OL    H12S 7887   5.752   5.860   4.127  2.2720  1.4272  2.0675
    3OL    C113 7888   5.756   5.639   4.078  0.2447  0.7712  0.2907
    3OL    H13R 7889   5.652   5.635   4.043  0.2444 -2.6099  0.3634
    3OL    H13S 7890   5.776   5.553   4.142  0.2883  0.0164 -0.7209
    3OL    C114 7891   5.839   5.630   3.950  0.7114 -0.4981  0.6679
    3OL    H14R 7892   5.820   5.717   3.887 -1.0884 -1.0609  0.3946
    3OL    H14S 7893   5.799   5.540   3.903  0.2151  0.0502  0.0268
    3OL    C115 7894   5.990   5.612   3.973  0.7862 -0.1666  0.4457
    3OL    H15R 7895   6.015   5.512   4.010 -1.1621 -1.0434 -0.4365
    3OL    H15S 7896   6.028   5.678   4.052 -0.9262 -0.6298  1.7220
    3OL    C116 7897   6.065   5.638   3.842  0.0996  0.2248  0.1222
    3OL    H16R 7898   6.164   5.594   3.857  0.8446  1.1261 -1.8727
    3OL    H16S 7899   6.076   5.745   3.822  0.0465  0.3246  0.6145
    3OL    C117 7900   6.014   5.563   3.719  0.6192  0.1364 -0.0402
    3OL    H17R 7901   5.917   5.608   3.700  0.5210 -1.1700 -3.3774
    3OL    H17S 7902   6.003   5.454   3.718  1.1563  0.0355 -2.4138
    3OL    C118 7903   6.099   5.593   3.595  0.2791  0.2734 -0.2397
    3OL    H18R 7904   6.121   5.700   3.601 -1.6369  0.5932  2.9630
    3OL    H18S 7905   6.049   5.580   3.498  1.1879  1.3190 -0.8782
    3OL    H18T 7906   6.194   5.539   3.598  0.3149  0.3284 -0.3265
    1PA    C116 7907   2.222   5.542   3.433 -0.1481  0.0257 -0.1940
    1PA    H16R 7908   2.169   5.447   3.424  2.2251 -1.5622  1.3943
    1PA    H16S 7909   2.311   5.546   3.370  0.3085  2.3984  0.4979
    1PA    H16T 7910   2.151   5.617   3.395 -1.0040 -0.9598 -0.6103
    1PA    C115 7911   2.264   5.564   3.579  0.0801  0.1999 -0.2859
    1PA    H15R 7912   2.308   5.662   3.598  2.4492 -0.2696 -2.6581
    1PA    H15S 7913   2.178   5.542   3.642  0.6816 -2.1658 -0.1872
    1PA    C114 7914   2.356   5.445   3.610 -0.1077  0.0491 -0.3046
    1PA    H14R 7915   2.292   5.358   3.597 -1.2703  0.8371  0.0072
    1PA    H14S 7916   2.437   5.441   3.536 -0.8642 -0.3185 -1.1292
    1PA    C113 7917   2.411   5.453   3.753 -0.6162  0.1925 -0.1156
    1PA    H13R 7918   2.478   5.538   3.768  1.0008 -1.3095  1.7157
    1PA    H13S 7919   2.328   5.462   3.823  0.1640  1.3554  0.7061
    1PA    C112 7920   2.486   5.321   3.775 -0.3536  0.3790  0.1241
    1PA    H12R 7921   2.428   5.231   3.753  2.1253 -1.8685  2.0747
    1PA    H12S 7922   2.567   5.330   3.702 -0.3065  1.7018  0.3153
    1PA    C111 7923   2.550   5.314   3.914  0.1640 -0.3292 -0.1406
    1PA    H11R 7924   2.640   5.253   3.922  1.9809  1.9032 -1.8749
    1PA    H11S 7925   2.575   5.415   3.948 -0.9447 -0.2361  0.4678
    1PA    C110 7926   2.450   5.271   4.023 -0.1085  0.3935 -0.0962
    1PA    H10R 7927   2.367   5.342   4.025 -0.9475 -0.5741  0.3708
    1PA    H10S 7928   2.414   5.177   3.981 -1.4928  1.3259 -1.0880
    1PA     C19 7929   2.508   5.253   4.164 -0.5674 -0.4264 -0.0069
    1PA     H9R 7930   2.425   5.207   4.219 -1.7639  0.8081 -0.7174
    1PA     H9S 7931   2.594   5.186   4.156 -0.1801 -0.1161  1.4241
    1PA     C18 7932   2.550   5.390   4.218  0.0317 -0.3653 -0.6032
    1PA     H8R 7933   2.588   5.456   4.140  1.6089  0.8391  1.0958
    1PA     H8S 7934   2.460   5.441   4.254  0.2980  0.6364 -1.3158
    1PA     C17 7935   2.661   5.389   4.324 -0.5794  0.4853  0.0648
    1PA     H7R 7936   2.743   5.331   4.279  0.3429  1.4794  0.4185
    1PA     H7S 7937   2.689   5.490   4.354 -0.5506 -0.5966  4.2418
    1PA     C16 7938   2.627   5.301   4.445 -0.1697 -0.3178 -0.3938
    1PA     H6R 7939   2.527   5.329   4.478  0.1864  1.2112 -0.5572
    1PA     H6S 7940   2.611   5.200   4.408 -0.2062 -1.4237  2.3500
    1PA     C15 7941   2.729   5.292   4.560 -0.5556  0.8250  0.0495
    1PA     H5R 7942   2.822   5.258   4.514 -0.7032 -0.2363  0.5189
    1PA     H5S 7943   2.766   5.389   4.593 -0.6756  0.3765  1.5802
    1PA     C14 7944   2.685   5.224   4.690  0.4898 -0.4720 -0.2447
    1PA     H4R 7945   2.601   5.279   4.736  1.1187 -0.3642  0.8073
    1PA     H4S 7946   2.648   5.122   4.679 -4.4744  1.0726 -0.7513
    1PA     C13 7947   2.791   5.210   4.800  0.1243 -0.1035  0.1598
    1PA     H3R 7948   2.749   5.143   4.876 -0.2115  0.2347  0.2757
    1PA     H3S 7949   2.865   5.149   4.748 -1.4037 -2.2960  0.3890
    1PA     C12 7950   2.864   5.334   4.851  0.2108  0.1847 -0.6546
    1PA     H2R 7951   2.923   5.384   4.773  3.1574 -1.2675  0.4875
    1PA     H2S 7952   2.789   5.394   4.904  0.6967  0.3451 -0.1355
    2PC     C11 7953   2.960   5.293   4.960 -0.4902 -0.2160 -0.1835
    2PC     O12 7954   3.067   5.239   4.942 -0.2183 -0.1026  1.0146
    2PC     O11 7955   2.912   5.330   5.080 -0.2898  0.3097 -0.2618
    2PC      C1 7956   2.996   5.312   5.195 -0.4979  0.7055 -0.0450
    2PC      HR 7957   3.029   5.208   5.202  2.4641  1.4222 -1.6112
    2PC      HS 7958   3.084   5.375   5.180  0.2384  0.1633  1.6670
    2PC      C2 7959   2.928   5.370   5.320  0.1661  0.0747  0.6235
    2PC      HX 7960   2.997   5.377   5.404  1.7280  1.1005 -0.6947
    2PC      C3 7961   2.814   5.272   5.352 -0.1278  0.2112  0.0141
    2PC      HA 7962   2.728   5.286   5.286  0.2478  0.5871 -0.4036
    2PC      HB 7963   2.843   5.167   5.343 -2.0092 -0.3735  0.3830
    2PC     O31 7964   2.771   5.298   5.487  0.2009  0.1812  0.1248
    2PC     P31 7965   2.709   5.181   5.576 -0.0380  0.1755 -0.0483
    2PC     O32 7966   2.566   5.157   5.509 -0.1078 -0.3894  0.2967
    2PC     C31 7967   2.463   5.249   5.551  0.0821  0.0802 -0.2686
    2PC     H1A 7968   2.461   5.271   5.658  0.6128 -0.5312 -0.1288
    2PC     H1B 7969   2.471   5.337   5.485  0.0682 -0.5411 -1.1166
    2PC     C32 7970   2.338   5.166   5.520  0.0531 -0.0612  0.2219
    2PC     H2A 7971   2.345   5.126   5.419 -1.5893 -1.9212  0.7879
    2PC     H2B 7972   2.342   5.082   5.589  1.3204 -0.4984 -0.3589
    2PC     N31 7973   2.205   5.227   5.552  0.1911  0.4646 -0.1969
    2PC     C33 7974   2.184   5.352   5.471  0.3153  0.3826 -0.3550
    2PC     H3A 7975   2.259   5.425   5.502  1.3831 -0.7985 -0.0680
    2PC     H3B 7976   2.201   5.330   5.365  0.4050  0.3688 -0.3381
    2PC     H3C 7977   2.083   5.387   5.490  0.0466 -0.0041 -1.0231
    2PC     C34 7978   2.101   5.132   5.500  0.6259 -0.1209 -0.0018
    2PC     H4A 7979   2.129   5.031   5.530  1.7775 -0.1456 -1.0705
    2PC     H4B 7980   2.000   5.149   5.537  0.3444  1.8166 -1.4612
    2PC     H4C 7981   2.105   5.142   5.392 -1.5870 -0.2874 -0.1434
    2PC     C35 7982   2.186   5.246   5.699 -0.6719 -0.0231 -0.2386
    2PC     H5A 7983   2.095   5.299   5.727 -0.5162 -0.8854  2.2121
    2PC     H5B 7984   2.258   5.317   5.741 -1.4679  1.1364 -0.7690
    2PC     H5C 7985   2.196   5.147   5.744  0.7155  0.7838  1.3510
    2PC     O33 7986   2.787   5.055   5.582 -0.1409  0.0591 -0.9742
    2PC     O34 7987   2.687   5.230   5.714  0.1864  0.4570 -0.1122
    2PC     O21 7988   2.861   5.496   5.299  0.1357 -0.0044  0.2465
    2PC     C21 7989   2.932   5.603   5.259 -0.3126  0.3542  0.4061
    2PC     O22 7990   3.052   5.617   5.243 -0.3112  0.1319  0.2115
    3OL     C12 7991   2.834   5.716   5.243 -0.1986  0.3796 -0.1224
    3OL     H2R 7992   2.833   5.781   5.331 -2.6097 -1.0251  0.9842
    3OL     H2S 7993   2.737   5.666   5.242 -0.1013  0.0978  1.5114
    3OL     C13 7994   2.849   5.793   5.111  0.4193 -0.2279 -0.4129
    3OL     H3R 7995   2.755   5.847   5.098  2.0993  2.5064 -2.5492
    3OL     H3S 7996   2.861   5.723   5.028 -0.5808 -1.5988  0.5698
    3OL     C14 7997   2.959   5.900   5.108  0.1466  0.0750  0.1911
    3OL     H4R 7998   2.961   5.945   5.008  3.3828  1.6701  0.8323
    3OL     H4S 7999   3.056   5.854   5.130  0.2878 -0.2303 -1.0183
    3OL     C15 8000   2.928   6.009   5.212 -0.6432 -0.0725  0.1133
    3OL     H5R 8001   2.916   5.967   5.312  0.2513 -1.0093 -0.1512
    3OL     H5S 8002   2.831   6.049   5.183 -0.7049  0.8823  1.5284
    3OL     C16 8003   3.032   6.121   5.219 -0.6385 -0.0600 -0.1528
    3OL     H6R 8004   3.132   6.079   5.225 -0.0688  1.3422  0.8134
    3OL     H6S 8005   3.013   6.197   5.295  3.4613 -1.0044  2.1208
    3OL     C17 8006   3.026   6.216   5.098  0.2145 -0.2056 -0.3161
    3OL     H7R 8007   2.930   6.267   5.088  1.0528  1.4329 -0.1898
    3OL     H7S 8008   3.035   6.161   5.004  2.4770  0.9668 -0.8308
    3OL     C18 8009   3.130   6.328   5.109 -0.1541  0.0742  0.3717
    3OL     H8R 8010   3.228   6.286   5.134  0.9105  1.0827 -1.8513
    3OL     H8S 8011   3.104   6.397   5.190  0.1434  0.7903 -0.1381
    3OL     C19 8012   3.134   6.397   4.976  0.1404 -0.3194  0.1735
    3OL     H9R 8013   3.074   6.488   4.974 -0.7479 -0.8833  0.4344
    3OL    C110 8014   3.197   6.353   4.868 -0.3440 -0.0623 -0.2173
    3OL    H10R 8015   3.186   6.405   4.773 -0.5119 -0.6597 -0.5310
    3OL    C111 8016   3.303   6.246   4.866 -0.3662 -0.0929  0.2091
    3OL    H11R 8017   3.333   6.210   4.965  2.0363 -0.6847 -0.6605
    3OL    H11S 8018   3.395   6.283   4.821  1.4550 -2.5056  1.7398
    3OL    C112 8019   3.261   6.120   4.789 -0.4371 -0.0036  0.1019
    3OL    H12R 8020   3.165   6.082   4.824 -0.8762  0.2295 -0.8162
    3OL    H12S 8021   3.342   6.048   4.798  2.8085  3.4459  0.7767
    3OL    C113 8022   3.247   6.157   4.641 -0.0966  0.1845  0.1164
    3OL    H13R 8023   3.346   6.160   4.595 -0.5824 -0.0147 -0.9841
    3OL    H13S 8024   3.201   6.254   4.619 -0.9725 -0.4868 -1.2039
    3OL    C114 8025   3.171   6.047   4.566  0.1484  0.0157  0.1187
    3OL    H14R 8026   3.202   5.946   4.595  0.6537  0.3269  0.6843
    3OL    H14S 8027   3.197   6.062   4.461 -1.1143  0.8495 -0.0948
    3OL    C115 8028   3.020   6.071   4.578  0.1539 -0.0495  0.3230
    3OL    H15R 8029   3.000   6.174   4.546  0.6582  0.1984  0.7908
    3OL    H15S 8030   2.988   6.053   4.681 -0.9104 -3.2657 -0.4706
    3OL    C116 8031   2.947   5.978   4.480  0.5999 -0.3332  0.2546
    3OL    H16R 8032   3.000   5.985   4.385  0.9417 -0.6563  0.4222
    3OL    H16S 8033   2.848   6.012   4.449  1.5669  0.8526 -1.7356
    3OL    C117 8034   2.944   5.834   4.532  0.5262 -0.2300  0.5395
    3OL    H17R 8035   2.887   5.824   4.625  0.0698 -0.7455  0.2102
    3OL    H17S 8036   3.043   5.798   4.561  1.0835  0.8398  0.0147
    3OL    C118 8037   2.869   5.743   4.434  0.4387  0.2390  0.1667
    3OL    H18R 8038   2.761   5.753   4.445  0.5430 -0.8160  3.2964
    3OL    H18S 8039   2.886   5.636   4.452  0.4632  0.3060  0.5472
    3OL    H18T 8040   2.914   5.771   4.338  0.5888 -0.4873  0.0137
    1PA    C116 8041   2.812   3.546   3.804 -0.3221  0.6350 -0.1434
    1PA    H16R 8042   2.762   3.488   3.881  0.1348  0.7988  0.2835
    1PA    H16S 8043   2.833   3.493   3.711  0.5943 -0.1271  0.4886
    1PA    H16T 8044   2.739   3.621   3.772  0.2647  1.9478  1.4814
    1PA    C115 8045   2.931   3.624   3.862  0.3538 -0.4598 -0.0413
    1PA    H15R 8046   3.003   3.546   3.888  1.3652  0.3609 -0.3042
    1PA    H15S 8047   2.981   3.682   3.785  0.1123  1.2117  1.0167
    1PA    C114 8048   2.895   3.694   3.993 -0.3228  0.4572 -0.7080
    1PA    H14R 8049   2.811   3.760   3.968  0.0757  1.6312  0.8716
    1PA    H14S 8050   2.864   3.622   4.069 -0.7892  0.6124 -0.7413
    1PA    C113 8051   3.016   3.776   4.038  0.0352 -0.1047 -0.6426
    1PA    H13R 8052   3.045   3.841   3.955  1.0135  0.5713  0.2015
    1PA    H13S 8053   2.975   3.841   4.116 -0.7598 -0.1024 -1.0572
    1PA    C112 8054   3.130   3.701   4.109 -0.3791  0.3765  0.5596
    1PA    H12R 8055   3.183   3.652   4.027  2.3243  3.4511  0.2473
    1PA    H12S 8056   3.203   3.777   4.137  0.5636  0.4797 -1.9820
    1PA    C111 8057   3.090   3.600   4.217 -0.5920  0.2848  0.3962
    1PA    H11R 8058   3.022   3.654   4.284  0.9733  2.4685  0.3307
    1PA    H11S 8059   3.035   3.518   4.171 -0.9110 -0.7515  2.4970
    1PA    C110 8060   3.212   3.542   4.291 -0.2378  0.1627 -0.2822
    1PA    H10R 8061   3.267   3.486   4.215 -3.1948 -0.9089 -1.7865
    1PA    H10S 8062   3.279   3.616   4.335  1.6626 -1.8016  0.2963
    1PA     C19 8063   3.176   3.435   4.395 -0.1285  0.1325 -0.2749
    1PA     H9R 8064   3.095   3.379   4.347  1.3326 -0.3261 -2.3142
    1PA     H9S 8065   3.253   3.363   4.420  0.9817  1.2061 -0.4773
    1PA     C18 8066   3.123   3.502   4.522 -0.6518  0.0895 -0.4666
    1PA     H8R 8067   3.194   3.580   4.549  1.0513 -2.6101  4.0496
    1PA     H8S 8068   3.022   3.537   4.498 -0.7384 -0.3395 -0.7363
    1PA     C17 8069   3.117   3.403   4.640  0.4610 -0.1110 -0.5740
    1PA     H7R 8070   3.030   3.425   4.701  0.0939 -1.5881 -0.5359
    1PA     H7S 8071   3.108   3.298   4.613 -2.3366 -1.0223  3.0863
    1PA     C16 8072   3.238   3.400   4.735 -0.2593  0.0590  0.3619
    1PA     H6R 8073   3.235   3.299   4.778 -0.1146 -0.7243 -1.3664
    1PA     H6S 8074   3.332   3.411   4.681  0.2112  1.3541  1.4028
    1PA     C15 8075   3.228   3.508   4.843 -0.2849 -0.2399  0.6605
    1PA     H5R 8076   3.244   3.606   4.797  1.1930 -0.2143  1.1828
    1PA     H5S 8077   3.126   3.501   4.882  1.0041  0.3671  4.5551
    1PA     C14 8078   3.334   3.500   4.954  0.0712  0.0065  0.3419
    1PA     H4R 8079   3.329   3.394   4.981  0.3271 -0.5703 -1.6715
    1PA     H4S 8080   3.432   3.515   4.908  0.6460  0.2672  1.6127
    1PA     C13 8081   3.309   3.588   5.077 -0.2160  0.7079 -0.2152
    1PA     H3R 8082   3.291   3.689   5.039 -3.1512  0.5553  0.5501
    1PA     H3S 8083   3.218   3.554   5.127 -0.2595 -2.5614 -2.2304
    1PA     C12 8084   3.429   3.568   5.170 -0.3875  0.1739 -0.1088
    1PA     H2R 8085   3.473   3.470   5.149 -0.4239  0.2192 -0.3966
    1PA     H2S 8086   3.508   3.642   5.152  0.6488 -0.7168  0.6210
    2PC     C11 8087   3.395   3.563   5.317  0.0388 -0.5234 -0.0281
    2PC     O12 8088   3.410   3.464   5.385  0.1137 -0.4140  0.1153
    2PC     O11 8089   3.340   3.678   5.361  0.4745 -0.0360 -0.7480
    2PC      C1 8090   3.306   3.682   5.500 -0.6759  0.2533 -1.0259
    2PC      HR 8091   3.258   3.592   5.538 -1.0399  0.9220  0.1564
    2PC      HS 8092   3.399   3.692   5.558 -0.3541  3.2659 -1.8729
    2PC      C2 8093   3.208   3.798   5.525 -0.2983  0.3376  0.1597
    2PC      HX 8094   3.253   3.894   5.501 -0.0919  1.0194  2.9274
    2PC      C3 8095   3.162   3.797   5.672 -0.9011  0.2859 -0.0250
    2PC      HA 8096   3.234   3.857   5.728 -0.6492  0.0235 -0.0620
    2PC      HB 8097   3.060   3.832   5.684 -2.1051 -2.7638 -0.5322
    2PC     O31 8098   3.161   3.667   5.732  0.1491  0.3987  0.2612
    2PC     P31 8099   3.099   3.643   5.878 -0.5572 -0.1055 -0.1179
    2PC     O32 8100   3.022   3.505   5.850 -0.1301 -0.4226  0.2422
    2PC     C31 8101   3.103   3.406   5.785 -0.0844 -0.0292 -0.3157
    2PC     H1A 8102   3.089   3.420   5.678  0.5229 -0.3095 -0.4357
    2PC     H1B 8103   3.209   3.410   5.812 -0.4728  2.9981  1.0824
    2PC     C32 8104   3.048   3.272   5.838  0.3001  0.1435  0.5468
    2PC     H2A 8105   3.022   3.284   5.943 -2.1211  1.3509 -0.1281
    2PC     H2B 8106   2.952   3.268   5.787  0.5474  0.6588  0.0250
    2PC     N31 8107   3.128   3.146   5.822 -0.0157  0.0010  0.0646
    2PC     C33 8108   3.270   3.159   5.867  0.0115  0.3538 -0.1199
    2PC     H3A 8109   3.328   3.070   5.842  1.0584  0.7541  0.7796
    2PC     H3B 8110   3.322   3.246   5.827  2.3957  0.5289  2.9612
    2PC     H3C 8111   3.277   3.171   5.976  0.4617  3.0330 -0.3649
    2PC     C34 8112   3.059   3.033   5.892 -0.5258  0.0577 -0.3362
    2PC     H4A 8113   3.115   2.941   5.874  0.3701  0.2107  1.3999
    2PC     H4B 8114   3.069   3.050   6.000  0.9591  0.4776 -0.5216
    2PC     H4C 8115   2.952   3.031   5.870 -0.8456  1.7230  0.8489
    2PC     C35 8116   3.129   3.122   5.674 -0.3492  0.0977  0.0457
    2PC     H5A 8117   3.139   3.221   5.631  2.1678 -0.3383 -0.5051
    2PC     H5B 8118   3.031   3.081   5.648 -0.0874 -0.1404 -0.5762
    2PC     H5C 8119   3.210   3.062   5.632 -0.7069 -1.2940  1.2616
    2PC     O33 8120   3.206   3.627   5.979 -0.2228  1.0025 -0.2910
    2PC     O34 8121   3.016   3.750   5.936  0.2188  0.5151 -0.1428
    2PC     O21 8122   3.096   3.767   5.440 -0.1747  0.1480  0.0659
    2PC     C21 8123   3.008   3.863   5.410 -0.1164  0.1405 -0.1348
    2PC     O22 8124   3.007   3.973   5.463  0.0498  0.0062  0.1462
    3OL     C12 8125   2.920   3.832   5.292 -0.2791  0.5291 -0.1174
    3OL     H2R 8126   2.840   3.906   5.283  0.5545  1.2115 -3.8950
    3OL     H2S 8127   2.875   3.735   5.312  1.3216  0.1974  2.2536
    3OL     C13 8128   2.998   3.830   5.160 -0.4522 -0.2875 -0.2112
    3OL     H3R 8129   3.081   3.759   5.159 -0.0171  0.2101 -0.3403
    3OL     H3S 8130   3.035   3.931   5.141 -1.0034  0.3796  2.0004
    3OL     C14 8131   2.895   3.783   5.055 -0.3033 -0.3181 -0.3450
    3OL     H4R 8132   2.799   3.835   5.051 -0.7154 -1.1364 -1.2300
    3OL     H4S 8133   2.875   3.683   5.093  1.5844 -0.0566  1.5729
    3OL     C15 8134   2.947   3.778   4.911 -0.1572 -0.5916 -0.2838
    3OL     H5R 8135   2.914   3.688   4.858  1.2382 -0.7808 -0.8585
    3OL     H5S 8136   3.056   3.779   4.913 -0.1519 -0.7083 -0.5034
    3OL     C16 8137   2.894   3.900   4.835  0.0568 -0.4854 -0.2639
    3OL     H6R 8138   2.933   3.987   4.888  2.2626 -2.1255  0.9519
    3OL     H6S 8139   2.785   3.896   4.828 -0.0470  1.7890 -1.0607
    3OL     C17 8140   2.949   3.896   4.692  0.3639  0.6070 -0.1844
    3OL     H7R 8141   2.906   3.813   4.636  0.0785  2.4647 -2.9382
    3OL     H7S 8142   3.058   3.907   4.689  0.9333 -3.3204  0.7254
    3OL     C18 8143   2.900   4.023   4.621 -0.1718  0.6127  0.1892
    3OL     H8R 8144   2.921   4.113   4.679  1.1542 -0.3408  1.2477
    3OL     H8S 8145   2.795   4.006   4.599  0.2906 -2.2948 -0.2075
    3OL     C19 8146   2.978   4.046   4.493  0.0593 -0.2249  0.1759
    3OL     H9R 8147   3.086   4.033   4.490  0.7392  3.9149  0.8606
    3OL    C110 8148   2.929   4.099   4.383  0.5065  0.0027  0.0862
    3OL    H10R 8149   2.992   4.114   4.295  1.3623 -1.0648  0.4975
    3OL    C111 8150   2.798   4.174   4.377  0.3044 -0.3690 -0.2228
    3OL    H11R 8151   2.801   4.266   4.435  1.8090 -1.9401  2.3654
    3OL    H11S 8152   2.728   4.116   4.436  0.9304  0.9366  1.9326
    3OL    C112 8153   2.750   4.195   4.233 -0.5366 -0.0138  0.1057
    3OL    H12R 8154   2.815   4.259   4.173 -0.6422 -1.1859 -1.3380
    3OL    H12S 8155   2.653   4.245   4.244 -0.1606  0.2328  3.0521
    3OL    C113 8156   2.730   4.063   4.158  0.2359  0.3146 -0.6958
    3OL    H13R 8157   2.643   4.022   4.210  0.4782  0.2166 -0.3719
    3OL    H13S 8158   2.815   3.997   4.174  0.9614  1.2879 -0.4959
    3OL    C114 8159   2.695   4.080   4.009 -0.5430 -0.1225 -0.5684
    3OL    H14R 8160   2.643   4.174   3.996 -0.0716  0.2248  0.0112
    3OL    H14S 8161   2.621   4.007   3.975 -0.4458 -0.3318 -0.3371
    3OL    C115 8162   2.822   4.087   3.924 -0.0488 -0.1379  0.1604
    3OL    H15R 8163   2.902   4.029   3.971  1.1416  1.9152  0.7651
    3OL    H15S 8164   2.860   4.189   3.918 -0.5416  0.0328 -0.1555
    3OL    C116 8165   2.792   4.037   3.782 -0.0044  0.1049  0.0646
    3OL    H16R 8166   2.690   4.065   3.757 -0.1553  1.0860  1.6881
    3OL    H16S 8167   2.811   3.929   3.786 -1.5575 -0.1483  1.1264
    3OL    C117 8168   2.890   4.101   3.682 -0.2955 -0.4063 -0.5602
    3OL    H17R 8169   2.903   4.209   3.692  1.0969 -0.6494  0.7003
    3OL    H17S 8170   2.841   4.096   3.585  0.6414 -0.3839 -1.0426
    3OL    C118 8171   3.020   4.021   3.689  0.3789  0.6815 -0.2924
    3OL    H18R 8172   3.005   3.922   3.645  2.2278 -0.4792  1.5277
    3OL    H18S 8173   3.056   4.000   3.790 -0.9118 -0.8035 -0.0924
    3OL    H18T 8174   3.103   4.064   3.632 -0.3566  3.9521  0.9290
    1PA    C116 8175   3.517   5.307   3.880 -0.1416  0.7273  0.1876
    1PA    H16R 8176   3.441   5.229   3.883  0.3120  0.2488 -0.4321
    1PA    H16S 8177   3.562   5.277   3.785  0.5057 -2.3244  1.3455
    1PA    H16T 8178   3.483   5.411   3.887  0.6502  0.9561  0.7958
    1PA    C115 8179   3.618   5.282   3.992  0.0795  0.4293 -0.0768
    1PA    H15R 8180   3.636   5.175   4.002 -0.2498  0.4267  0.5451
    1PA    H15S 8181   3.710   5.335   3.963 -0.7277  1.3160 -1.0872
    1PA    C114 8182   3.580   5.338   4.130  0.8014  0.7698 -0.0094
    1PA    H14R 8183   3.553   5.443   4.123 -1.8868  0.1567  0.0230
    1PA    H14S 8184   3.489   5.289   4.166  1.2532  0.7656  1.1747
    1PA    C113 8185   3.696   5.315   4.229  0.1824  0.3643  0.6369
    1PA    H13R 8186   3.792   5.308   4.177 -0.1832  0.8747 -0.1249
    1PA    H13S 8187   3.700   5.400   4.297  0.0399  1.8077 -1.0595
    1PA    C112 8188   3.679   5.188   4.313  0.3397 -0.0248  0.0889
    1PA    H12R 8189   3.604   5.201   4.391  2.8546 -0.4553  2.7879
    1PA    H12S 8190   3.640   5.108   4.250 -3.0381 -0.1807  2.1219
    1PA    C111 8191   3.812   5.143   4.375  0.4152 -0.0360 -0.0793
    1PA    H11R 8192   3.889   5.148   4.298 -0.8371  0.7887 -1.3260
    1PA    H11S 8193   3.843   5.213   4.453  3.0380  1.7784 -2.5642
    1PA    C110 8194   3.789   5.004   4.436 -0.1318  0.1062  0.0454
    1PA    H10R 8195   3.735   5.009   4.531 -1.4805 -1.5959 -0.5733
    1PA    H10S 8196   3.739   4.936   4.367 -2.0748 -0.2827  1.7531
    1PA     C19 8197   3.927   4.940   4.456 -0.2735 -0.1600  0.1888
    1PA     H9R 8198   3.976   4.924   4.359  0.2782 -0.5136  0.5175
    1PA     H9S 8199   3.995   5.009   4.506 -1.2593  0.9510  0.0180
    1PA     C18 8200   3.911   4.811   4.537 -0.1933 -0.3178 -0.0449
    1PA     H8R 8201   3.891   4.838   4.641 -0.9510 -0.4100 -0.1623
    1PA     H8S 8202   3.824   4.754   4.502  0.5313  0.3536 -3.3173
    1PA     C17 8203   4.041   4.729   4.538  0.0561  0.0737 -0.1393
    1PA     H7R 8204   4.046   4.681   4.440 -0.2956  0.2408 -0.2410
    1PA     H7S 8205   4.127   4.795   4.540  0.7234 -0.7795  0.0561
    1PA     C16 8206   4.048   4.618   4.644 -0.2979 -0.2561 -0.4554
    1PA     H6R 8207   4.045   4.649   4.749 -3.3434 -1.1359 -0.1914
    1PA     H6S 8208   3.964   4.552   4.622 -0.0703  0.0385 -2.4327
    1PA     C15 8209   4.179   4.540   4.628 -0.1326  0.0676 -0.6814
    1PA     H5R 8210   4.184   4.514   4.522  1.2449  0.2156 -0.6790
    1PA     H5S 8211   4.260   4.611   4.648 -0.5326  0.2323  0.4087
    1PA     C14 8212   4.193   4.409   4.706 -0.1149  0.5525  0.1438
    1PA     H4R 8213   4.096   4.360   4.698  0.5993 -0.6822 -1.5716
    1PA     H4S 8214   4.273   4.345   4.668 -1.4464 -1.4024  0.5107
    1PA     C13 8215   4.227   4.444   4.852  0.3202  0.1072  0.1521
    1PA     H3R 8216   4.331   4.476   4.856  1.1268 -2.3874  0.9808
    1PA     H3S 8217   4.167   4.529   4.886 -0.4045 -0.6548  0.8166
    1PA     C12 8218   4.202   4.324   4.945  0.1353 -0.0735 -0.1277
    1PA     H2R 8219   4.098   4.294   4.959  0.2237  0.3944  1.8563
    1PA     H2S 8220   4.265   4.247   4.899  0.8436  1.2199 -1.4323
    2PC     C11 8221   4.260   4.364   5.078  0.3066  0.2072 -0.2830
    2PC     O12 8222   4.279   4.480   5.109  0.1095  0.2763 -0.4229
    2PC     O11 8223   4.286   4.261   5.161 -0.4864  0.3577  0.1607
    2PC      C1 8224   4.321   4.278   5.300 -0.5215  0.0276  0.2111
    2PC      HR 8225   4.281   4.374   5.333  1.2225  1.0664 -0.5688
    2PC      HS 8226   4.276   4.196   5.357  0.7731 -0.7334  0.1728
    2PC      C2 8227   4.472   4.272   5.323 -0.4351  0.5447 -0.1845
    2PC      HX 8228   4.514   4.171   5.313 -0.6636  0.2386  1.5839
    2PC      C3 8229   4.506   4.308   5.468 -0.4796 -0.2068  0.0174
    2PC      HA 8230   4.456   4.243   5.541  1.2875 -0.8794  0.6951
    2PC      HB 8231   4.614   4.303   5.486 -0.1295  0.1813 -1.8151
    2PC     O31 8232   4.458   4.439   5.503  0.2237 -0.0180  0.2955
    2PC     P31 8233   4.498   4.518   5.636  0.0936  0.4266  0.0752
    2PC     O32 8234   4.479   4.399   5.743 -0.2111 -0.0396 -0.4868
    2PC     C31 8235   4.548   4.412   5.869 -0.5681  0.0783 -0.3033
    2PC     H1A 8236   4.656   4.421   5.860 -0.4266  0.8822  1.7696
    2PC     H1B 8237   4.527   4.510   5.913 -0.4762  0.4480 -1.0803
    2PC     C32 8238   4.517   4.296   5.966 -0.2004  0.1627 -0.0856
    2PC     H2A 8239   4.517   4.202   5.910  2.5883  1.6927 -3.0180
    2PC     H2B 8240   4.596   4.304   6.041 -1.4453 -0.8639  1.3856
    2PC     N31 8241   4.385   4.311   6.035 -0.1062  0.0742  0.1142
    2PC     C33 8242   4.401   4.415   6.142 -0.0423 -0.2935  0.4625
    2PC     H3A 8243   4.309   4.439   6.196  0.5083 -0.2699  1.4290
    2PC     H3B 8244   4.470   4.364   6.210  0.9296  0.0478 -0.2432
    2PC     H3C 8245   4.439   4.510   6.104 -0.1403 -1.0564 -1.6561
    2PC     C34 8246   4.271   4.354   5.949 -0.1424 -0.1679  0.0407
    2PC     H4A 8247   4.296   4.455   5.917 -0.4952 -0.8626 -2.6739
    2PC     H4B 8248   4.268   4.283   5.866 -1.4649 -0.6125  0.4358
    2PC     H4C 8249   4.175   4.355   6.002 -0.2666 -0.1224 -0.1837
    2PC     C35 8250   4.346   4.186   6.107  0.1356 -0.0989 -0.0548
    2PC     H5A 8251   4.336   4.105   6.034  1.5053 -1.8824  1.6122
    2PC     H5B 8252   4.248   4.203   6.152  0.1939 -0.3749  0.1817
    2PC     H5C 8253   4.417   4.162   6.186 -1.5464 -1.1179  1.2224
    2PC     O33 8254   4.637   4.566   5.638  0.0701  0.5174 -0.5220
    2PC     O34 8255   4.407   4.631   5.665 -0.0250  0.4353 -0.3300
    2PC     O21 8256   4.547   4.352   5.230 -0.0817 -0.0731 -0.4442
    2PC     C21 8257   4.674   4.319   5.204 -0.1957 -0.9246  0.0571
    2PC     O22 8258   4.740   4.246   5.275 -0.0095 -0.3130  0.5098
    3OL     C12 8259   4.733   4.396   5.089 -0.1056 -0.2258  0.5667
    3OL     H2R 8260   4.819   4.343   5.047 -0.0413 -0.5058  1.0500
    3OL     H2S 8261   4.764   4.494   5.124  1.7904  1.1858 -4.1909
    3OL     C13 8262   4.629   4.425   4.979  0.6153 -0.5267 -0.2056
    3OL     H3R 8263   4.536   4.464   5.022  2.6609  0.3184  4.0531
    3OL     H3S 8264   4.601   4.329   4.937  0.2506 -0.4603 -0.1140
    3OL     C14 8265   4.686   4.511   4.865 -0.1356 -0.0050 -0.1983
    3OL     H4R 8266   4.776   4.457   4.832  0.1041 -0.5936  1.3453
    3OL     H4S 8267   4.703   4.609   4.910  2.8505 -1.1238  1.4015
    3OL     C15 8268   4.598   4.527   4.740 -0.4284  0.1844  0.0339
    3OL     H5R 8269   4.502   4.566   4.776 -0.5964  0.5984 -0.8462
    3OL     H5S 8270   4.577   4.434   4.687  0.1703  0.4478 -0.6779
    3OL     C16 8271   4.661   4.638   4.655 -0.0771  0.2544  0.3808
    3OL     H6R 8272   4.760   4.600   4.628 -0.2756  0.4282 -0.6438
    3OL     H6S 8273   4.685   4.721   4.721  1.9530 -0.0016  0.0139
    3OL     C17 8274   4.572   4.666   4.533 -0.2922  0.0310  0.4846
    3OL     H7R 8275   4.474   4.700   4.565 -1.0891  0.7620 -2.4481
    3OL     H7S 8276   4.557   4.569   4.485  2.1073 -0.4846  0.6377
    3OL     C18 8277   4.634   4.762   4.430 -0.3931 -0.3787  0.0391
    3OL     H8R 8278   4.740   4.735   4.433 -0.6825 -1.5896  0.0007
    3OL     H8S 8279   4.636   4.864   4.467  0.1314 -0.5144  0.3983
    3OL     C19 8280   4.567   4.744   4.296 -0.0958  0.1275 -0.1775
    3OL     H9R 8281   4.486   4.809   4.264 -1.1697 -2.0555 -2.1962
    3OL    C110 8282   4.622   4.675   4.198 -0.0742  0.3232 -0.3044
    3OL    H10R 8283   4.576   4.683   4.100 -3.4603  1.4089  1.2325
    3OL    C111 8284   4.753   4.601   4.200 -0.3875 -0.2334 -0.0870
    3OL    H11R 8285   4.732   4.494   4.185  1.6780 -0.9328  1.5858
    3OL    H11S 8286   4.812   4.612   4.291 -2.9112  1.1525  1.4692
    3OL    C112 8287   4.844   4.627   4.079 -0.0833  0.0969  0.2133
    3OL    H12R 8288   4.846   4.735   4.063 -1.6809  0.0645 -0.3858
    3OL    H12S 8289   4.798   4.592   3.987 -0.3994  1.7795 -0.3105
    3OL    C113 8290   4.983   4.563   4.092  0.0691  0.3438 -0.1723
    3OL    H13R 8291   4.980   4.455   4.106 -1.2595  0.2985 -0.6354
    3OL    H13S 8292   5.024   4.588   4.190  1.0553 -0.4890 -0.3528
    3OL    C114 8293   5.092   4.590   3.987  0.1788 -0.2057 -0.2031
    3OL    H14R 8294   5.187   4.555   4.027  0.2559 -0.1948 -0.3779
    3OL    H14S 8295   5.109   4.697   3.978  3.1899 -0.5972 -0.2335
    3OL    C115 8296   5.061   4.522   3.852 -0.0614 -0.2634 -0.1203
    3OL    H15R 8297   4.977   4.575   3.807  1.3101  1.0855 -1.2194
    3OL    H15S 8298   5.042   4.415   3.847  0.2807 -0.5757  3.1336
    3OL    C116 8299   5.178   4.543   3.755  0.0971  0.1127  0.1463
    3OL    H16R 8300   5.145   4.516   3.654 -1.4474  3.7767 -0.4755
    3OL    H16S 8301   5.258   4.473   3.781  2.3537  1.9962 -1.3245
    3OL    C117 8302   5.237   4.684   3.745  0.1388  0.0659 -0.2768
    3OL    H17R 8303   5.280   4.715   3.840 -1.4243  0.8993  0.2056
    3OL    H17S 8304   5.156   4.753   3.718  0.8308  0.4164 -1.5765
    3OL    C118 8305   5.352   4.692   3.643  0.4167 -0.0601  0.0279
    3OL    H18R 8306   5.399   4.788   3.620 -0.3135  0.1302 -0.7040
    3OL    H18S 8307   5.320   4.641   3.552  2.3250 -0.5076 -0.4344
    3OL    H18T 8308   5.428   4.625   3.685 -0.7659 -1.3749  0.1594
    1PA    C116 8309   3.194   4.207   4.022 -0.2005 -0.3852  0.1525
    1PA    H16R 8310   3.136   4.275   4.085  2.3173  1.3029  0.8163
    1PA    H16S 8311   3.205   4.113   4.077 -0.7709  0.7081  2.2574
    1PA    H16T 8312   3.144   4.185   3.928 -0.0135  1.7884 -0.5109
    1PA    C115 8313   3.330   4.275   3.998 -0.4220  0.1117  0.2870
    1PA    H15R 8314   3.392   4.232   3.920  0.7594  0.8659  0.7855
    1PA    H15S 8315   3.315   4.380   3.972  3.0789  0.3872 -1.1807
    1PA    C114 8316   3.419   4.282   4.123 -0.0485 -0.1966  0.0388
    1PA    H14R 8317   3.502   4.350   4.105 -0.2860  0.3885  1.1141
    1PA    H14S 8318   3.362   4.332   4.201  0.2942  0.6352 -0.2327
    1PA    C113 8319   3.467   4.149   4.183  0.9835  0.0279 -0.2731
    1PA    H13R 8320   3.397   4.072   4.150  0.6993 -0.5819  1.6743
    1PA    H13S 8321   3.553   4.113   4.125  0.5909  0.5381 -1.1998
    1PA    C112 8322   3.498   4.147   4.333  0.0076  0.2011 -0.0629
    1PA    H12R 8323   3.578   4.217   4.362  0.8313 -1.6547  2.4952
    1PA    H12S 8324   3.420   4.176   4.404 -1.0534 -1.8891 -0.3006
    1PA    C111 8325   3.560   4.013   4.375 -0.2076  0.1215  0.0035
    1PA    H11R 8326   3.630   3.979   4.298 -0.7301  1.5459 -1.1428
    1PA    H11S 8327   3.610   4.040   4.469  0.6326  0.3116 -0.4902
    1PA    C110 8328   3.444   3.915   4.392 -0.0372 -0.1877 -0.6033
    1PA    H10R 8329   3.382   3.908   4.303 -0.5008  1.9237 -0.4946
    1PA    H10S 8330   3.495   3.820   4.411  1.1666  0.6492  0.4634
    1PA     C19 8331   3.355   3.939   4.515  0.2053 -0.3831 -0.3895
    1PA     H9R 8332   3.317   4.040   4.500  1.9487  0.4500  0.4744
    1PA     H9S 8333   3.263   3.881   4.520 -0.5596  0.3611 -3.6577
    1PA     C18 8334   3.424   3.945   4.652  0.4386 -0.6464 -0.4944
    1PA     H8R 8335   3.468   3.851   4.687  1.8064  0.3064  0.4604
    1PA     H8S 8336   3.504   4.019   4.647  0.0421 -0.1565  0.3133
    1PA     C17 8337   3.333   4.000   4.762  0.6746 -0.3829 -0.4293
    1PA     H7R 8338   3.303   4.103   4.743 -1.0159 -0.9262 -0.9463
    1PA     H7S 8339   3.243   3.938   4.752  1.6448 -1.8121 -0.4886
    1PA     C16 8340   3.415   3.997   4.892 -0.6977  0.1205  0.4756
    1PA     H6R 8341   3.433   3.891   4.910 -2.7365  0.0576  2.5157
    1PA     H6S 8342   3.507   4.054   4.873 -1.3824  1.0687 -0.1265
    1PA     C15 8343   3.348   4.068   5.010 -0.1520  0.8360  0.3631
    1PA     H5R 8344   3.348   4.177   5.003  0.7122  0.7696 -0.9666
    1PA     H5S 8345   3.242   4.041   5.012  0.1194 -0.5225 -1.4614
    1PA     C14 8346   3.427   4.024   5.135  0.3600 -0.0881 -0.2759
    1PA     H4R 8347   3.423   3.915   5.141 -1.1108 -0.2564 -2.9001
    1PA     H4S 8348   3.534   4.047   5.133 -0.0577  2.1437  0.4399
    1PA     C13 8349   3.376   4.100   5.258  0.6885  0.2833 -0.3647
    1PA     H3R 8350   3.381   4.208   5.247  0.3094  0.1796 -1.6795
    1PA     H3S 8351   3.269   4.077   5.267  1.3059 -2.9664  0.0787
    1PA     C12 8352   3.457   4.068   5.384  0.2054 -0.1597 -0.1592
    1PA     H2R 8353   3.434   3.966   5.414 -1.7827  1.0720  3.0580
    1PA     H2S 8354   3.564   4.077   5.363  0.8448 -0.8732  2.4279
    2PC     C11 8355   3.411   4.148   5.503 -0.1948  0.1196 -0.4975
    2PC     O12 8356   3.486   4.221   5.565  0.5155 -0.4420 -0.6826
    2PC     O11 8357   3.279   4.137   5.521 -0.1170  0.2243  0.1865
    2PC      C1 8358   3.205   4.212   5.619 -0.3709  0.0420  0.1352
    2PC      HR 8359   3.102   4.174   5.618 -0.2362 -0.3300  0.1623
    2PC      HS 8360   3.251   4.192   5.716  2.5652 -0.4656 -1.2446
    2PC      C2 8361   3.192   4.361   5.585 -0.4934 -0.0522 -0.2297
    2PC      HX 8362   3.287   4.393   5.542 -0.0754 -0.4367  0.3913
    2PC      C3 8363   3.170   4.441   5.714 -0.4920  0.3179 -0.4581
    2PC      HA 8364   3.256   4.435   5.781 -1.3694 -0.3033  0.6431
    2PC      HB 8365   3.151   4.545   5.687  1.1398  0.8165  0.1594
    2PC     O31 8366   3.048   4.392   5.772  0.4778 -0.9566  0.5436
    2PC     P31 8367   2.993   4.461   5.905  0.2997  0.0260 -0.0357
    2PC     O32 8368   3.095   4.410   6.018 -0.0421  0.1260  0.3208
    2PC     C31 8369   3.094   4.272   6.057  0.2849  0.1738  0.4926
    2PC     H1A 8370   2.990   4.243   6.071  0.7144 -0.8329  1.8689
    2PC     H1B 8371   3.142   4.209   5.982  1.8323  0.0877  1.4811
    2PC     C32 8372   3.175   4.266   6.188  0.2593 -0.4731  0.4840
    2PC     H2A 8373   3.182   4.163   6.221  0.3859 -1.0536 -1.2852
    2PC     H2B 8374   3.277   4.303   6.175 -0.3762  1.3747  0.3975
    2PC     N31 8375   3.117   4.336   6.308 -0.3681 -0.1214 -0.0151
    2PC     C33 8376   3.207   4.311   6.425  0.1205 -0.5076 -0.4667
    2PC     H3A 8377   3.198   4.388   6.502  0.9033  2.1844 -2.8888
    2PC     H3B 8378   3.178   4.214   6.464 -2.6715  0.7918  1.0380
    2PC     H3C 8379   3.309   4.317   6.387  0.5958  0.8644  0.8798
    2PC     C34 8380   3.130   4.484   6.293  0.2454 -0.1107  0.5692
    2PC     H4A 8381   3.150   4.535   6.387  2.4167 -1.2504  0.7834
    2PC     H4B 8382   3.219   4.498   6.230  0.8476  1.0904  1.6343
    2PC     H4C 8383   3.042   4.515   6.236 -1.0437 -0.9234  2.0289
    2PC     C35 8384   2.973   4.304   6.333 -0.3994  0.4124  0.5010
    2PC     H5A 8385   2.932   4.384   6.395 -1.3865  2.4857 -2.5582
    2PC     H5B 8386   2.955   4.205   6.376 -3.2315  0.9872  0.8507
    2PC     H5C 8387   2.917   4.314   6.240 -1.1170  1.2413  1.0018
    2PC     O33 8388   2.985   4.609   5.891  0.2563  0.0422  0.1422
    2PC     O34 8389   2.854   4.425   5.942  0.0703  0.1402 -0.7662
    2PC     O21 8390   3.086   4.370   5.488 -0.1940 -0.1351 -0.5668
    2PC     C21 8391   3.110   4.438   5.374  0.0241  0.5223 -0.1374
    2PC     O22 8392   3.212   4.499   5.349  0.2420 -0.1100 -0.8276
    3OL     C12 8393   3.003   4.419   5.269 -0.3718  0.0693  0.3467
    3OL     H2R 8394   2.999   4.511   5.211  0.1069 -0.0339  0.1519
    3OL     H2S 8395   2.911   4.403   5.326  0.1040 -1.6182  0.7109
    3OL     C13 8396   3.027   4.298   5.178 -0.0191  0.2392  0.2157
    3OL     H3R 8397   3.049   4.216   5.247  1.1795  0.1732 -0.2203
    3OL     H3S 8398   3.113   4.321   5.114  1.2608 -3.1088  0.5201
    3OL     C14 8399   2.906   4.265   5.090  0.4226 -0.2192 -0.2350
    3OL     H4R 8400   2.820   4.264   5.158  1.4014  1.4961  1.1181
    3OL     H4S 8401   2.915   4.166   5.046  1.5016 -0.3993  0.3644
    3OL     C15 8402   2.875   4.364   4.977  0.7260  0.2777  0.1093
    3OL     H5R 8403   2.866   4.467   5.013  1.4415  0.6935 -0.8600
    3OL     H5S 8404   2.774   4.347   4.938 -0.4642  1.2132  2.5832
    3OL     C16 8405   2.977   4.368   4.863  0.1010 -0.1484 -0.4777
    3OL     H6R 8406   3.014   4.268   4.836  0.9952  0.2180 -0.6606
    3OL     H6S 8407   3.067   4.423   4.891 -0.3823  0.0173  0.7925
    3OL     C17 8408   2.910   4.426   4.738 -0.3481 -0.2634 -0.2899
    3OL     H7R 8409   2.863   4.520   4.770 -1.8574 -1.1279  0.1331
    3OL     H7S 8410   2.816   4.374   4.717 -1.0895  1.0295 -0.3379
    3OL     C18 8411   2.990   4.434   4.607 -0.2553 -0.2551 -0.2331
    3OL     H8R 8412   2.928   4.451   4.519  1.5697 -2.4688 -2.0694
    3OL     H8S 8413   3.034   4.335   4.595 -1.2398 -0.5108 -2.0940
    3OL     C19 8414   3.101   4.536   4.619 -0.3421 -0.0996 -0.7182
    3OL     H9R 8415   3.097   4.607   4.701  2.3540 -1.0702  0.3601
    3OL    C110 8416   3.201   4.543   4.533  0.1544 -0.0707 -0.1481
    3OL    H10R 8417   3.274   4.621   4.554 -1.8670  1.7539  0.5801
    3OL    C111 8418   3.223   4.467   4.405  0.4804 -0.1345 -0.0541
    3OL    H11R 8419   3.152   4.384   4.395 -0.8634  0.8350  1.0785
    3OL    H11S 8420   3.323   4.423   4.397  0.6976  0.2264  0.6199
    3OL    C112 8421   3.203   4.563   4.287 -0.0579 -0.2715 -0.0767
    3OL    H12R 8422   3.111   4.622   4.294 -1.3967 -2.4061  1.9446
    3OL    H12S 8423   3.180   4.503   4.199 -2.5473 -0.2997  0.5094
    3OL    C113 8424   3.326   4.651   4.262 -0.2991  0.1041  0.0444
    3OL    H13R 8425   3.404   4.588   4.219  0.6636  2.2294 -1.4849
    3OL    H13S 8426   3.366   4.703   4.349  0.9940 -2.2505  0.9583
    3OL    C114 8427   3.312   4.751   4.146 -0.0784 -0.1548 -0.2083
    3OL    H14R 8428   3.228   4.817   4.171 -0.6642 -1.8168  2.7558
    3OL    H14S 8429   3.267   4.701   4.060 -1.7531 -2.5270  1.8649
    3OL    C115 8430   3.439   4.834   4.125 -0.0706 -0.1848 -0.2779
    3OL    H15R 8431   3.469   4.875   4.222  1.0637 -1.0472 -0.2393
    3OL    H15S 8432   3.423   4.926   4.069  2.2185  0.1984 -0.4123
    3OL    C116 8433   3.563   4.754   4.081 -0.0611  0.0046 -0.5942
    3OL    H16R 8434   3.536   4.711   3.984 -3.0472  0.4087 -0.0422
    3OL    H16S 8435   3.591   4.675   4.151  0.4316  0.7220  0.0451
    3OL    C117 8436   3.692   4.835   4.065 -0.1575  0.2388 -0.2006
    3OL    H17R 8437   3.716   4.875   4.164 -0.8499 -1.8051  0.8361
    3OL    H17S 8438   3.673   4.916   3.994 -5.6982 -0.7038 -0.2028
    3OL    C118 8439   3.810   4.749   4.018 -0.4812 -0.3365  0.0376
    3OL    H18R 8440   3.772   4.710   3.923 -0.6504  2.7228 -1.2507
    3OL    H18S 8441   3.840   4.674   4.092  1.9786  0.4477 -0.0729
    3OL    H18T 8442   3.899   4.807   3.994  0.5344 -0.5298  2.9670
    1PA    C116 8443   5.608   0.241   4.040  0.0266 -0.0093  0.1669
    1PA    H16R 8444   5.665   0.330   4.066  1.9918 -1.0151 -0.5043
    1PA    H16S 8445   5.527   0.275   3.974  3.1007  0.0935 -3.9855
    1PA    H16T 8446   5.671   0.190   3.966  0.6707  1.4842 -0.3408
    1PA    C115 8447   5.556   0.164   4.162 -0.4248  0.1993  0.1101
    1PA    H15R 8448   5.488   0.083   4.139  0.6976  0.0744 -3.2599
    1PA    H15S 8449   5.637   0.106   4.207 -3.0077 -3.6045  0.3012
    1PA    C114 8450   5.496   0.262   4.264  0.0839  0.1899  0.4232
    1PA    H14R 8451   5.576   0.326   4.302  2.7430 -2.3278 -0.5673
    1PA    H14S 8452   5.409   0.317   4.228 -0.2887  0.4103  1.5979
    1PA    C113 8453   5.438   0.187   4.385  0.0586 -0.6719 -0.1178
    1PA    H13R 8454   5.369   0.109   4.352 -1.0848 -0.3500  1.4131
    1PA    H13S 8455   5.526   0.145   4.435  0.2612 -0.2257 -0.0955
    1PA    C112 8456   5.372   0.276   4.491  0.5776 -0.2943 -0.1057
    1PA    H12R 8457   5.448   0.349   4.517  2.4736 -1.0851 -2.9225
    1PA    H12S 8458   5.286   0.329   4.450  0.8622  2.3985  2.4764
    1PA    C111 8459   5.327   0.194   4.613  0.5009 -0.1337 -0.0261
    1PA    H11R 8460   5.253   0.124   4.576 -1.6490  0.9694  1.9424
    1PA    H11S 8461   5.406   0.134   4.658 -1.1678 -1.1295  1.7018
    1PA    C110 8462   5.264   0.273   4.728 -0.5854 -0.2212 -0.5508
    1PA    H10R 8463   5.327   0.356   4.757 -0.1104 -0.4697 -0.8651
    1PA    H10S 8464   5.173   0.319   4.689 -0.8809 -2.0829 -2.2422
    1PA     C19 8465   5.240   0.188   4.854 -0.1269 -0.0028 -0.3150
    1PA     H9R 8466   5.323   0.118   4.870  0.3857  0.5832 -0.3844
    1PA     H9S 8467   5.249   0.254   4.941  0.3618  1.3991 -1.3887
    1PA     C18 8468   5.102   0.121   4.842  0.0758 -0.3711 -0.6101
    1PA     H8R 8469   5.027   0.182   4.793  0.9143  1.4432  0.2616
    1PA     H8S 8470   5.128   0.035   4.780  0.8364 -1.2011  0.8018
    1PA     C17 8471   5.056   0.060   4.975  1.0578 -0.1206 -0.1405
    1PA     H7R 8472   5.133  -0.003   5.019  1.0655  0.2899  0.4469
    1PA     H7S 8473   5.033   0.142   5.045  1.8987 -1.6815  2.0674
    1PA     C16 8474   4.934  -0.027   4.942  0.3610  0.6590  0.3375
    1PA     H6R 8475   4.860   0.030   4.884 -0.5687 -0.7597  0.0834
    1PA     H6S 8476   4.958  -0.118   4.888 -0.8738  1.5591 -1.8477
    1PA     C15 8477   4.874  -0.078   5.074 -0.1572 -0.5069 -0.3356
    1PA     H5R 8478   4.946  -0.150   5.114  0.0893 -0.0532  0.0439
    1PA     H5S 8479   4.862   0.006   5.142  2.2815  0.0620 -0.5351
    1PA     C14 8480   4.743  -0.153   5.046 -0.0569 -0.6469 -0.4347
    1PA     H4R 8481   4.674  -0.088   4.991  0.2978 -1.0466 -1.3804
    1PA     H4S 8482   4.760  -0.237   4.978  0.6887 -0.6183 -0.2905
    1PA     C13 8483   4.669  -0.196   5.173  0.1776  0.5172  0.1096
    1PA     H3R 8484   4.736  -0.255   5.235 -1.3450 -2.0541 -0.5651
    1PA     H3S 8485   4.637  -0.114   5.238 -0.7425 -1.7157  2.6784
    1PA     C12 8486   4.543  -0.280   5.145  0.8109 -0.5441  0.4019
    1PA     H2R 8487   4.468  -0.208   5.111  0.9443 -0.5591  0.0642
    1PA     H2S 8488   4.560  -0.352   5.064 -1.5907 -0.3356 -0.3495
    2PC     C11 8489   4.491  -0.348   5.269 -0.0952 -0.5491  0.0240
    2PC     O12 8490   4.528  -0.315   5.379  0.2131  0.4514 -0.3688
    2PC     O11 8491   4.408  -0.451   5.245 -0.9033  0.1223 -0.1254
    2PC      C1 8492   4.344  -0.502   5.363  0.0356 -0.3389  0.1941
    2PC      HR 8493   4.296  -0.596   5.335  2.2833 -0.8088 -2.5448
    2PC      HS 8494   4.421  -0.520   5.439 -0.1971  0.0571  0.5279
    2PC      C2 8495   4.241  -0.404   5.422 -0.1612  0.0635 -0.8024
    2PC      HX 8496   4.260  -0.300   5.395  0.1333  0.2946  0.2645
    2PC      C3 8497   4.222  -0.403   5.574  0.0247 -0.1651 -0.7779
    2PC      HA 8498   4.305  -0.348   5.618 -0.4821 -0.8166  1.1053
    2PC      HB 8499   4.133  -0.345   5.596  0.3280  0.7041 -1.7583
    2PC     O31 8500   4.212  -0.537   5.626  0.1938  0.1046 -0.0350
    2PC     P31 8501   4.276  -0.584   5.765 -0.0898 -0.2138 -0.0102
    2PC     O32 8502   4.425  -0.569   5.709 -0.0401  0.1134  0.2042
    2PC     C31 8503   4.505  -0.688   5.690 -0.4583 -0.1251 -0.0721
    2PC     H1A 8504   4.476  -0.759   5.768 -0.9796  1.4538  1.2416
    2PC     H1B 8505   4.467  -0.726   5.595 -1.5254 -1.2912  0.7782
    2PC     C32 8506   4.656  -0.667   5.678 -0.4328 -0.0852  0.2989
    2PC     H2A 8507   4.703  -0.759   5.644  0.5608  0.2006  0.8445
    2PC     H2B 8508   4.674  -0.589   5.604 -0.8524  0.2641  0.5617
    2PC     N31 8509   4.731  -0.634   5.804  0.3763 -0.0577 -0.1783
    2PC     C33 8510   4.878  -0.619   5.779  0.3849  0.7848  0.3422
    2PC     H3A 8511   4.925  -0.713   5.753  0.7205  0.5731  1.6358
    2PC     H3B 8512   4.885  -0.558   5.689 -1.5043  1.0402  0.3102
    2PC     H3C 8513   4.926  -0.583   5.870  2.0380 -3.3354  1.3107
    2PC     C34 8514   4.680  -0.503   5.856  0.0295 -0.1979 -0.1583
    2PC     H4A 8515   4.703  -0.428   5.780  0.2602 -1.0732 -0.9735
    2PC     H4B 8516   4.572  -0.505   5.868 -0.4043  1.2955 -2.8298
    2PC     H4C 8517   4.739  -0.478   5.944  0.5655  2.6812 -1.2086
    2PC     C35 8518   4.708  -0.746   5.901 -0.0389  0.4515  0.3187
    2PC     H5A 8519   4.745  -0.839   5.857  0.7714  0.2662  1.3462
    2PC     H5B 8520   4.600  -0.757   5.910  0.0853  0.1726  1.5716
    2PC     H5C 8521   4.760  -0.722   5.994  0.8007  1.6717 -0.4358
    2PC     O33 8522   4.252  -0.496   5.881 -0.4296  0.3566 -0.5079
    2PC     O34 8523   4.229  -0.719   5.805 -0.3671 -0.2888 -0.5796
    2PC     O21 8524   4.115  -0.439   5.364 -0.7860 -0.1901  0.6638
    2PC     C21 8525   4.085  -0.406   5.237  0.1111 -0.1846  0.4520
    2PC     O22 8526   4.153  -0.328   5.173 -0.2856 -0.4681 -0.3394
    3OL     C12 8527   3.957  -0.466   5.185  0.0281  0.7079 -0.4008
    3OL     H2R 8528   3.896  -0.381   5.152  0.8534  1.9230  1.0957
    3OL     H2S 8529   3.907  -0.524   5.263 -0.8254  1.1971 -0.5667
    3OL     C13 8530   3.985  -0.551   5.060  0.2120  0.0915  0.0577
    3OL     H3R 8531   4.045  -0.484   4.999  1.7661 -0.0767  1.3461
    3OL     H3S 8532   3.894  -0.592   5.015  0.2443 -0.2550  0.3035
    3OL     C14 8533   4.068  -0.674   5.099 -0.0600 -0.0642  0.1542
    3OL     H4R 8534   4.003  -0.734   5.163 -1.7144 -0.0102 -1.3833
    3OL     H4S 8535   4.161  -0.642   5.146 -0.7380  1.9870  0.1747
    3OL     C15 8536   4.095  -0.757   4.972 -0.5338 -0.0234  0.0247
    3OL     H5R 8537   4.159  -0.698   4.906  1.0269 -1.8007 -0.1613
    3OL     H5S 8538   4.004  -0.778   4.916  0.6603  0.2500 -2.1355
    3OL     C16 8539   4.156  -0.895   5.001  0.1950  0.3259  0.1711
    3OL     H6R 8540   4.084  -0.949   5.063 -1.9386  0.9960 -1.6005
    3OL     H6S 8541   4.252  -0.880   5.052 -0.2118  0.0838  1.0235
    3OL     C17 8542   4.177  -0.969   4.868  0.3492  0.1879  0.2717
    3OL     H7R 8543   4.266  -1.031   4.878 -1.2511 -2.2358  0.1662
    3OL     H7S 8544   4.190  -0.898   4.786  0.0545  0.6742  0.6388
    3OL     C18 8545   4.060  -1.061   4.833  0.2817  0.3309  0.1211
    3OL     H8R 8546   3.971  -1.004   4.805 -0.8776 -0.2546  2.3711
    3OL     H8S 8547   4.016  -1.118   4.915 -1.7353  0.8407 -0.5251
    3OL     C19 8548   4.099  -1.162   4.728  0.5359  0.6084 -0.0508
    3OL     H9R 8549   4.085  -1.265   4.761 -1.6315  0.8833  0.0023
    3OL    C110 8550   4.115  -1.129   4.601  0.0602 -0.5450 -0.4202
    3OL    H10R 8551   4.137  -1.209   4.530  3.3670 -1.2017  1.1681
    3OL    C111 8552   4.096  -0.989   4.549 -0.7656 -0.3445  0.4008
    3OL    H11R 8553   4.194  -0.944   4.533 -1.1533  0.5333  0.4180
    3OL    H11S 8554   4.039  -0.922   4.614 -0.5077  1.1469 -0.8565
    3OL    C112 8555   4.026  -0.990   4.412 -0.2671 -0.3517  0.1459
    3OL    H12R 8556   3.926  -1.032   4.422  0.0892 -1.3032 -0.1744
    3OL    H12S 8557   4.083  -1.048   4.338 -2.9014 -0.1951 -2.1826
    3OL    C113 8558   4.014  -0.844   4.366  0.3832 -0.4623 -0.4033
    3OL    H13R 8559   4.108  -0.791   4.353  0.8482 -1.3696 -0.8386
    3OL    H13S 8560   3.974  -0.784   4.448  0.0864  0.9499 -1.5407
    3OL    C114 8561   3.914  -0.830   4.250 -0.5452 -0.6785  0.3540
    3OL    H14R 8562   3.889  -0.724   4.247  0.4640 -0.4206  0.6870
    3OL    H14S 8563   3.827  -0.893   4.269 -0.1265 -1.0768  1.0144
    3OL    C115 8564   3.991  -0.874   4.125  0.1812  0.1514  0.4993
    3OL    H15R 8565   4.019  -0.979   4.116  2.2083  0.7079 -0.3266
    3OL    H15S 8566   4.084  -0.817   4.120  0.8073 -0.5852  2.5176
    3OL    C116 8567   3.903  -0.844   4.003  0.4172  0.0461  0.2996
    3OL    H16R 8568   3.832  -0.767   4.033 -1.0466 -1.5952  1.3265
    3OL    H16S 8569   3.847  -0.935   3.979  0.7706  0.2652 -1.4731
    3OL    C117 8570   3.994  -0.792   3.891 -0.0832  0.5012  0.1043
    3OL    H17R 8571   4.080  -0.856   3.874 -0.8090 -0.6126  0.5110
    3OL    H17S 8572   4.032  -0.697   3.929 -0.5624 -0.1546  2.3636
    3OL    C118 8573   3.906  -0.768   3.768 -0.7210 -0.2700  0.4007
    3OL    H18R 8574   3.855  -0.855   3.726 -1.0540  0.1873 -0.1729
    3OL    H18S 8575   3.977  -0.732   3.693  0.8024 -2.0417  0.9173
    3OL    H18T 8576   3.831  -0.692   3.790 -0.3372  0.6337 -1.2395
    1PA    C116 8577   5.963   1.677   3.871  0.1992  0.0056  0.0442
    1PA    H16R 8578   5.931   1.659   3.974  1.6591 -0.3349  0.4532
    1PA    H16S 8579   6.054   1.737   3.864  0.3257 -0.1028  0.6519
    1PA    H16T 8580   5.994   1.584   3.825  4.2314  1.7495 -1.2018
    1PA    C115 8581   5.841   1.729   3.793  0.3088 -0.1048 -0.2005
    1PA    H15R 8582   5.750   1.674   3.817  0.6789 -0.4259  0.5347
    1PA    H15S 8583   5.825   1.835   3.816 -0.2142  0.2003 -1.8794
    1PA    C114 8584   5.856   1.709   3.642 -0.3194 -0.3456 -0.2326
    1PA    H14R 8585   5.957   1.744   3.619 -1.6179  4.2319  0.2126
    1PA    H14S 8586   5.848   1.602   3.620  0.3321 -0.5884  0.6566
    1PA    C113 8587   5.765   1.804   3.563 -0.2529  0.1708  0.3060
    1PA    H13R 8588   5.662   1.791   3.597 -0.0442 -2.2586  0.2348
    1PA    H13S 8589   5.777   1.910   3.584  0.6328  0.3119 -0.8408
    1PA    C112 8590   5.778   1.786   3.411  0.1342  0.2214  0.3342
    1PA    H12R 8591   5.878   1.817   3.378  0.5288 -1.3375 -0.0010
    1PA    H12S 8592   5.764   1.682   3.383 -0.7546  1.0294 -2.6127
    1PA    C111 8593   5.662   1.852   3.335  0.2197  0.0538  0.0577
    1PA    H11R 8594   5.575   1.809   3.385  0.4605  1.7746  2.1027
    1PA    H11S 8595   5.654   1.960   3.351 -0.1959  0.0923 -0.3982
    1PA    C110 8596   5.686   1.830   3.185 -0.4042 -0.2948  0.0062
    1PA    H10R 8597   5.785   1.867   3.160 -0.0517 -0.8980  0.4924
    1PA    H10S 8598   5.683   1.723   3.165  0.1327 -0.2125 -0.5619
    1PA     C19 8599   5.585   1.902   3.095  0.4015  0.6049 -0.1944
    1PA     H9R 8600   5.487   1.869   3.131  0.7412  0.7514  0.8933
    1PA     H9S 8601   5.575   2.011   3.098 -0.9350  0.5201 -0.8209
    1PA     C18 8602   5.601   1.869   2.946  0.1370  0.1020 -0.1142
    1PA     H8R 8603   5.700   1.899   2.913 -0.4746 -0.1112 -2.3203
    1PA     H8S 8604   5.589   1.763   2.924  0.8634 -0.7542  3.0967
    1PA     C17 8605   5.495   1.947   2.866  0.0583 -0.1078 -0.2158
    1PA     H7R 8606   5.396   1.906   2.884 -0.3056  0.4114 -0.9905
    1PA     H7S 8607   5.507   2.052   2.895  1.6729 -0.8043  1.8111
    1PA     C16 8608   5.519   1.926   2.715 -0.3772  0.2230 -0.3316
    1PA     H6R 8609   5.618   1.967   2.695 -0.9102  0.6782 -2.1831
    1PA     H6S 8610   5.511   1.822   2.683 -0.6504  0.7157 -1.9231
    1PA     C15 8611   5.412   2.001   2.634 -0.4770  0.5748  0.1164
    1PA     H5R 8612   5.319   1.946   2.651 -0.1152 -0.0214  0.2093
    1PA     H5S 8613   5.398   2.105   2.664  1.0736  0.6049  0.8267
    1PA     C14 8614   5.438   1.988   2.483  0.0794  0.5124  0.2159
    1PA     H4R 8615   5.529   2.038   2.450  0.1017 -0.0531 -0.6172
    1PA     H4S 8616   5.452   1.881   2.468 -0.8249  0.3830  0.2420
    1PA     C13 8617   5.315   2.039   2.407 -0.7841 -0.1434  1.1412
    1PA     H3R 8618   5.222   1.989   2.435 -0.4120 -2.0475 -0.8283
    1PA     H3S 8619   5.305   2.147   2.425 -2.1934 -0.1689  0.6146
    1PA     C12 8620   5.331   2.014   2.257 -0.2178  0.4073  1.1042
    1PA     H2R 8621   5.419   2.066   2.217 -1.3865  0.9271 -0.9611
    1PA     H2S 8622   5.356   1.908   2.247  1.7595  1.0430 -2.9723
    2PC     C11 8623   5.212   2.033   2.167  0.4746 -0.1114  0.0514
    2PC     O12 8624   5.139   2.128   2.188  0.1412 -0.3427 -0.0491
    2PC     O11 8625   5.206   1.941   2.069  0.2491  0.1573 -0.1884
    2PC      C1 8626   5.083   1.922   1.996  0.0981  0.0891  0.0835
    2PC      HR 8627   5.057   2.016   1.947  2.7265  1.3422  0.8919
    2PC      HS 8628   5.119   1.851   1.922  0.5349 -0.6907  1.0145
    2PC      C2 8629   4.984   1.857   2.094 -0.2360  0.6336  0.1126
    2PC      HX 8630   5.046   1.785   2.147  1.5218  0.4422 -2.0760
    2PC      C3 8631   4.869   1.783   2.024  0.0161  0.3876 -0.0421
    2PC      HA 8632   4.787   1.758   2.092 -1.0875  1.1916 -1.0178
    2PC      HB 8633   4.900   1.691   1.973  0.3887  0.1587  0.5948
    2PC     O31 8634   4.821   1.880   1.929  0.1480  0.2637 -0.2363
    2PC     P31 8635   4.689   1.841   1.848  0.0597 -0.1178  0.0893
    2PC     O32 8636   4.586   1.871   1.967  0.1636  0.6199 -0.0078
    2PC     C31 8637   4.446   1.883   1.936  0.1199 -0.1842 -0.1259
    2PC     H1A 8638   4.419   1.988   1.947 -1.6447 -0.6617  0.4807
    2PC     H1B 8639   4.426   1.833   1.841  1.4803  0.1471 -0.6073
    2PC     C32 8640   4.366   1.812   2.046  0.0634  0.3382  0.1717
    2PC     H2A 8641   4.262   1.800   2.015  0.3863  0.6245 -1.0789
    2PC     H2B 8642   4.411   1.713   2.055 -0.5573 -0.0051 -0.3670
    2PC     N31 8643   4.357   1.874   2.182  0.2020 -0.1860  0.4212
    2PC     C33 8644   4.299   2.012   2.173  0.0584 -0.2311  0.6415
    2PC     H3A 8645   4.266   2.049   2.270  1.1419  0.6768  0.6859
    2PC     H3B 8646   4.372   2.081   2.129  1.7051 -0.9803  2.0738
    2PC     H3C 8647   4.220   2.014   2.098  1.9285  0.5875 -1.4442
    2PC     C34 8648   4.265   1.797   2.272  0.2468  0.5534  1.1186
    2PC     H4A 8649   4.273   1.843   2.370 -0.2724  1.5564  0.7084
    2PC     H4B 8650   4.167   1.805   2.225 -0.0337 -3.0514  0.7811
    2PC     H4C 8651   4.291   1.691   2.280  1.9085  0.4639 -2.7352
    2PC     C35 8652   4.489   1.881   2.253  0.3629 -0.1860  0.1253
    2PC     H5A 8653   4.550   1.950   2.196 -1.1771  2.4720  1.4804
    2PC     H5B 8654   4.543   1.786   2.261  0.6530  0.0912  1.8529
    2PC     H5C 8655   4.465   1.923   2.351 -0.5099  0.0581 -0.1810
    2PC     O33 8656   4.655   1.928   1.733 -0.5524  0.3027  0.5773
    2PC     O34 8657   4.687   1.707   1.785 -0.2170 -0.0698 -0.0059
    2PC     O21 8658   4.921   1.950   2.184  0.1949  0.9323  0.1074
    2PC     C21 8659   4.879   1.904   2.303  0.8762  0.3456  0.1305
    2PC     O22 8660   4.877   1.787   2.335  0.1011  0.2850 -0.1254
    3OL     C12 8661   4.830   2.019   2.388  0.3514  0.1710  0.0647
    3OL     H2R 8662   4.732   2.050   2.352 -0.2139 -1.3643  0.1827
    3OL     H2S 8663   4.899   2.103   2.390  1.3238 -0.5627  3.0822
    3OL     C13 8664   4.821   1.992   2.539  0.2087  1.0915  0.2250
    3OL     H3R 8665   4.781   1.892   2.556  0.1550  1.2926  1.3612
    3OL     H3S 8666   4.760   2.054   2.605 -1.5119 -2.0719  1.8568
    3OL     C14 8667   4.958   1.988   2.608  0.3060 -0.0467 -0.0106
    3OL     H4R 8668   4.979   2.092   2.635 -0.1525 -0.6398  3.0156
    3OL     H4S 8669   5.040   1.960   2.541 -1.1524  0.7502 -2.2562
    3OL     C15 8670   4.974   1.885   2.720 -0.3072 -0.1054  0.0271
    3OL     H5R 8671   4.891   1.888   2.790 -0.1771 -1.7532  0.2879
    3OL     H5S 8672   5.065   1.901   2.779 -0.3996 -1.5705  0.6140
    3OL     C16 8673   4.973   1.738   2.674 -0.7182 -0.2627  0.5342
    3OL     H6R 8674   5.053   1.733   2.601 -0.1007 -1.0793  1.2527
    3OL     H6S 8675   4.874   1.723   2.631 -1.1143  1.4108  0.7618
    3OL     C17 8676   5.009   1.648   2.793 -0.0799 -0.0842  0.4807
    3OL     H7R 8677   5.003   1.547   2.753  0.9834  0.0144  0.0504
    3OL     H7S 8678   4.939   1.664   2.876 -0.6047 -0.7802  0.1876
    3OL     C18 8679   5.145   1.660   2.863 -0.0170  0.5987  0.2428
    3OL     H8R 8680   5.167   1.761   2.900  1.6561 -0.1395  1.3620
    3OL     H8S 8681   5.224   1.644   2.789 -0.2086 -1.5765  0.4570
    3OL     C19 8682   5.160   1.553   2.968 -0.6309  0.3206  0.0542
    3OL     H9R 8683   5.072   1.499   2.999 -0.7484  1.6643  2.2634
    3OL    C110 8684   5.272   1.500   3.016 -0.4596  0.8509  0.2542
    3OL    H10R 8685   5.268   1.419   3.088  0.0316  1.8592  1.4490
    3OL    C111 8686   5.407   1.563   2.997  0.1707 -0.5070  0.1241
    3OL    H11R 8687   5.409   1.667   3.030  3.6618  0.0539 -1.4006
    3OL    H11S 8688   5.426   1.558   2.889 -2.7094 -0.8630 -0.4332
    3OL    C112 8689   5.525   1.507   3.077  0.6680  0.2125 -0.0954
    3OL    H12R 8690   5.619   1.556   3.049  0.1081  0.9066 -0.7995
    3OL    H12S 8691   5.535   1.403   3.047 -0.6079  0.3840 -1.2230
    3OL    C113 8692   5.500   1.507   3.229  0.7096 -0.0873 -0.0879
    3OL    H13R 8693   5.404   1.459   3.251  1.0954 -0.5880  0.5518
    3OL    H13S 8694   5.494   1.611   3.261 -0.2015 -0.2605  0.3371
    3OL    C114 8695   5.611   1.439   3.310  0.6805 -0.4123 -0.3185
    3OL    H14R 8696   5.607   1.454   3.419  0.5183 -1.2107 -0.2095
    3OL    H14S 8697   5.700   1.493   3.277  1.5591 -1.2771  0.5429
    3OL    C115 8698   5.629   1.292   3.269  0.3789 -0.3617 -0.6414
    3OL    H15R 8699   5.665   1.290   3.166  2.8100 -0.5994  0.1312
    3OL    H15S 8700   5.532   1.244   3.271  0.9801 -1.5963  0.0133
    3OL    C116 8701   5.719   1.222   3.373 -0.0879  0.0082  0.0194
    3OL    H16R 8702   5.650   1.162   3.433  0.0347 -1.4132 -1.1963
    3OL    H16S 8703   5.778   1.284   3.441  1.1512 -1.3036  0.1792
    3OL    C117 8704   5.830   1.143   3.303 -0.3502 -0.3645  0.0191
    3OL    H17R 8705   5.880   1.218   3.241 -1.2904  0.0376 -0.2717
    3OL    H17S 8706   5.774   1.077   3.237 -1.4510  0.1403  0.4139
    3OL    C118 8707   5.917   1.068   3.405  0.5899  0.4164 -0.1971
    3OL    H18R 8708   5.988   0.995   3.366  0.5452 -0.4303  1.2511
    3OL    H18S 8709   5.845   1.003   3.453  0.7481 -1.5230 -2.4155
    3OL    H18T 8710   5.968   1.127   3.482  0.9812  0.6897 -0.6586
    1PA    C116 8711   5.899   0.161   3.243 -0.4708  0.2722 -0.0363
    1PA    H16R 8712   5.939   0.247   3.296  0.1792 -0.5231  0.7944
    1PA    H16S 8713   5.985   0.094   3.243 -1.4641 -1.0565  0.0014
    1PA    H16T 8714   5.815   0.108   3.289  1.3876 -0.8322  2.2665
    1PA    C115 8715   5.883   0.191   3.093  0.6034 -0.2711 -0.2615
    1PA    H15R 8716   5.839   0.105   3.042 -1.8280  0.3516  0.6890
    1PA    H15S 8717   5.810   0.270   3.078  0.5265 -0.5489 -1.4651
    1PA    C114 8718   6.014   0.229   3.022  0.8629  0.4392  0.5817
    1PA    H14R 8719   6.045   0.315   3.081  0.4541  0.9954 -0.0061
    1PA    H14S 8720   6.080   0.142   3.029 -0.7064 -0.6817  2.3627
    1PA    C113 8721   5.998   0.288   2.881 -0.8276 -0.3139  0.4353
    1PA    H13R 8722   6.091   0.299   2.824  0.1628 -2.4936  1.5076
    1PA    H13S 8723   5.936   0.220   2.822  1.0548 -1.2956 -0.5176
    1PA    C112 8724   5.931   0.425   2.888 -0.7786 -0.3008  0.6584
    1PA    H12R 8725   5.920   0.455   2.783  3.0573  1.1456  0.4898
    1PA    H12S 8726   5.834   0.423   2.937 -0.0022  0.2566  2.2855
    1PA    C111 8727   6.017   0.535   2.952 -0.3802 -0.4796  0.4335
    1PA    H11R 8728   6.041   0.511   3.056  0.6881  1.2124  0.6105
    1PA    H11S 8729   6.112   0.533   2.898  0.8609 -4.6708  2.3298
    1PA    C110 8730   5.955   0.676   2.947  0.6202 -0.0462 -0.1697
    1PA    H10R 8731   5.968   0.700   2.842  0.7970 -1.2586 -0.4396
    1PA    H10S 8732   5.851   0.678   2.982  1.3523  2.4183  2.2803
    1PA     C19 8733   6.032   0.777   3.034 -0.2670  0.0258  0.5500
    1PA     H9R 8734   6.038   0.740   3.136  0.2304  0.0495  0.5308
    1PA     H9S 8735   6.135   0.778   2.998 -0.2444 -0.8320  0.5600
    1PA     C18 8736   5.959   0.912   3.029 -0.8627 -0.2917  0.5264
    1PA     H8R 8737   5.852   0.898   3.045 -0.7870 -2.1785 -0.3195
    1PA     H8S 8738   5.992   0.977   3.111  2.3789 -1.8785  0.6511
    1PA     C17 8739   5.974   0.985   2.895 -0.5482 -0.4649  0.4673
    1PA     H7R 8740   6.082   0.997   2.886 -0.5029  0.2797  1.7839
    1PA     H7S 8741   5.942   0.926   2.808 -2.1141 -0.6326  1.1266
    1PA     C16 8742   5.898   1.118   2.883  0.3447 -0.0108 -0.3446
    1PA     H6R 8743   5.793   1.100   2.907  0.4768  1.4907  1.6400
    1PA     H6S 8744   5.945   1.184   2.956 -1.6861  1.7558 -0.5374
    1PA     C15 8745   5.917   1.176   2.742 -0.0222 -0.4094 -0.5586
    1PA     H5R 8746   6.025   1.171   2.727  0.2162 -0.5687  0.9806
    1PA     H5S 8747   5.864   1.119   2.665 -1.7587  2.0353 -1.2782
    1PA     C14 8748   5.858   1.318   2.739 -0.2169 -0.4847 -0.3649
    1PA     H4R 8749   5.900   1.366   2.828  0.3261 -2.3290  0.4255
    1PA     H4S 8750   5.885   1.368   2.646  1.8975 -2.4762 -0.9316
    1PA     C13 8751   5.706   1.310   2.753 -0.2038 -0.5154 -0.2356
    1PA     H3R 8752   5.675   1.225   2.692  0.5504 -2.7549  2.3254
    1PA     H3S 8753   5.678   1.278   2.854  1.0364  0.4009  0.4282
    1PA     C12 8754   5.628   1.434   2.707 -0.3729 -0.3857  0.3834
    1PA     H2R 8755   5.519   1.427   2.717 -0.8864 -0.4822 -3.6094
    1PA     H2S 8756   5.668   1.523   2.756 -0.7584  0.1368 -0.2267
    2PC     C11 8757   5.648   1.452   2.558  0.6207 -0.2789  0.5296
    2PC     O12 8758   5.631   1.555   2.496  0.4020 -0.5959  0.0569
    2PC     O11 8759   5.675   1.341   2.487 -0.0268 -0.0161 -0.1322
    2PC      C1 8760   5.702   1.346   2.346  0.0063 -0.6314 -0.1525
    2PC      HR 8761   5.698   1.246   2.304  1.3150  0.3295 -2.7781
    2PC      HS 8762   5.633   1.418   2.300  0.2571  0.5927  1.2819
    2PC      C2 8763   5.845   1.395   2.318 -0.1597  0.0311  0.1321
    2PC      HX 8764   5.856   1.483   2.382 -0.9142 -0.7032  1.3202
    2PC      C3 8765   5.862   1.439   2.172  0.0964 -0.2540  0.0769
    2PC      HA 8766   5.802   1.525   2.141 -0.5896  0.5020  3.1657
    2PC      HB 8767   5.968   1.460   2.159 -0.2053  0.7911 -0.8419
    2PC     O31 8768   5.839   1.330   2.081  0.0834 -0.0619 -0.1508
    2PC     P31 8769   5.851   1.355   1.923  0.6105 -0.0108 -0.1053
    2PC     O32 8770   5.693   1.372   1.899  0.4793 -0.4581  0.4171
    2PC     C31 8771   5.604   1.273   1.954  0.0525 -0.2433  0.1204
    2PC     H1A 8772   5.633   1.173   1.922  0.8981 -0.2107  0.7430
    2PC     H1B 8773   5.610   1.274   2.063 -0.9716  2.1668  0.2112
    2PC     C32 8774   5.460   1.298   1.907 -0.0737  0.3092  0.7831
    2PC     H2A 8775   5.425   1.394   1.946 -0.2631  1.3415 -1.7326
    2PC     H2B 8776   5.447   1.309   1.799 -0.2809  0.2113  0.7995
    2PC     N31 8777   5.366   1.190   1.950 -0.1646 -0.0906 -0.3693
    2PC     C33 8778   5.358   1.187   2.100  0.1316 -0.1486 -0.3547
    2PC     H3A 8779   5.286   1.104   2.104  0.3871 -0.3189  1.1294
    2PC     H3B 8780   5.451   1.160   2.151 -1.2848 -1.7277  1.5881
    2PC     H3C 8781   5.320   1.283   2.135 -1.7400 -0.8613 -0.2942
    2PC     C34 8782   5.229   1.222   1.897 -0.0820  0.5772 -0.1939
    2PC     H4A 8783   5.161   1.143   1.931  0.4199  0.7469  1.2925
    2PC     H4B 8784   5.188   1.319   1.927 -1.9218  0.0920 -0.9964
    2PC     H4C 8785   5.242   1.221   1.789  1.6761 -2.3570 -0.0517
    2PC     C35 8786   5.396   1.050   1.906 -0.8264 -0.4035  0.1571
    2PC     H5A 8787   5.497   1.018   1.930 -0.4803 -1.2214 -2.1680
    2PC     H5B 8788   5.389   1.050   1.797 -2.2542  1.6511  0.1724
    2PC     H5C 8789   5.319   0.975   1.927 -0.0361 -1.6223 -1.1383
    2PC     O33 8790   5.934   1.472   1.888  0.3337  0.1733 -0.1499
    2PC     O34 8791   5.903   1.242   1.842  0.0089 -0.7646  0.5407
    2PC     O21 8792   5.942   1.296   2.357 -0.0607  0.1748  0.2512
    2PC     C21 8793   6.064   1.340   2.391 -0.0463 -0.0076  0.4379
    2PC     O22 8794   6.095   1.458   2.388 -0.5120  0.1048 -0.7147
    3OL     C12 8795   6.156   1.228   2.432 -0.3132 -0.3030  0.2355
    3OL     H2R 8796   6.184   1.184   2.336  1.4926  0.7742  0.2044
    3OL     H2S 8797   6.099   1.151   2.483  1.6644 -1.7552  0.3731
    3OL     C13 8798   6.288   1.266   2.502 -0.3191 -0.2618  0.2234
    3OL     H3R 8799   6.332   1.342   2.436 -2.3716  1.1840  0.3945
    3OL     H3S 8800   6.354   1.180   2.499 -2.7324 -2.2582 -2.8539
    3OL     C14 8801   6.267   1.325   2.642 -0.0473  0.4744 -0.0407
    3OL     H4R 8802   6.241   1.242   2.707 -1.6086  0.8761 -0.1123
    3OL     H4S 8803   6.173   1.381   2.640  0.1230  1.0467  3.0235
    3OL     C15 8804   6.392   1.398   2.693 -0.0889  0.3720  0.2111
    3OL     H5R 8805   6.432   1.472   2.623  1.8254  1.5890  2.4513
    3OL     H5S 8806   6.474   1.325   2.702 -0.1932  0.4499  2.0578
    3OL     C16 8807   6.373   1.457   2.833  0.1567  0.0888  0.3648
    3OL     H6R 8808   6.354   1.376   2.904 -1.2303  0.5705  0.5769
    3OL     H6S 8809   6.291   1.529   2.836 -0.2993 -0.3413 -0.9819
    3OL     C17 8810   6.494   1.532   2.890  0.3195 -0.2683  0.4987
    3OL     H7R 8811   6.497   1.631   2.843  0.7934  0.7125  2.5080
    3OL     H7S 8812   6.588   1.480   2.871 -1.4804 -3.5956 -0.0171
    3OL     C18 8813   6.476   1.560   3.039 -0.2844 -0.2136  0.4178
    3OL     H8R 8814   6.484   1.467   3.096  0.6569  1.0230  2.4490
    3OL     H8S 8815   6.377   1.604   3.052 -0.0962  0.4960 -0.5032
    3OL     C19 8816   6.580   1.655   3.092 -0.3369  0.0018  0.1330
    3OL     H9R 8817   6.634   1.709   3.014  0.6561 -2.0740 -0.6900
    3OL    C110 8818   6.616   1.667   3.219 -0.0185  0.2798  0.0215
    3OL    H10R 8819   6.673   1.753   3.251  1.1102 -1.2565  2.4394
    3OL    C111 8820   6.566   1.588   3.338 -0.8150 -0.0251 -0.5027
    3OL    H11R 8821   6.479   1.535   3.300 -2.1608  2.0771 -0.4885
    3OL    H11S 8822   6.539   1.662   3.413 -0.9562 -0.5377 -0.0420
    3OL    C112 8823   6.661   1.482   3.397  0.1325  0.9137 -0.3124
    3OL    H12R 8824   6.674   1.410   3.317 -2.6967 -1.2523  0.9753
    3OL    H12S 8825   6.606   1.416   3.465  1.3051 -0.3497 -0.5538
    3OL    C113 8826   6.783   1.541   3.469  0.0572  0.1379  0.4673
    3OL    H13R 8827   6.747   1.607   3.549 -1.6581 -0.3743  0.1683
    3OL    H13S 8828   6.842   1.601   3.399  1.0294  1.0028  1.9569
    3OL    C114 8829   6.876   1.432   3.523  0.2933  0.3088  0.4058
    3OL    H14R 8830   6.891   1.360   3.442 -1.4857 -0.3606  0.6244
    3OL    H14S 8831   6.841   1.377   3.611  0.3754 -0.4671 -0.0410
    3OL    C115 8832   7.013   1.488   3.564  0.6102  0.0331 -0.2641
    3OL    H15R 8833   7.038   1.577   3.506 -1.8449  0.2304 -1.1564
    3OL    H15S 8834   7.094   1.415   3.555  2.0102  1.3191  1.1886
    3OL    C116 8835   7.006   1.534   3.710  0.0363 -0.2700 -0.1927
    3OL    H16R 8836   6.983   1.450   3.777 -0.5045 -1.4011 -1.7534
    3OL    H16S 8837   6.926   1.607   3.722 -1.9728 -1.9339 -2.4889
    3OL    C117 8838   7.135   1.595   3.768  0.1660 -0.6897 -0.0301
    3OL    H17R 8839   7.153   1.687   3.711  0.3865 -1.5274 -1.3457
    3OL    H17S 8840   7.223   1.534   3.747  0.2440 -0.6750  0.2452
    3OL    C118 8841   7.127   1.630   3.917  0.8711  0.2904 -0.2151
    3OL    H18R 8842   7.228   1.650   3.954  1.3880 -3.9008  1.1296
    3OL    H18S 8843   7.079   1.557   3.982  0.9447  0.2113 -0.2507
    3OL    H18T 8844   7.075   1.723   3.943  1.9275  0.8752 -0.1127
    1PA    C116 8845   6.053   2.101   3.995 -0.3225 -0.2411 -0.1164
    1PA    H16R 8846   6.110   2.147   4.076 -2.3650  1.6690  0.3196
    1PA    H16S 8847   6.039   1.995   4.015 -2.6998 -0.0810 -0.6541
    1PA    H16T 8848   5.953   2.145   3.992  0.7365  2.2929 -0.4622
    1PA    C115 8849   6.113   2.122   3.855  0.2448 -0.1414  0.1385
    1PA    H15R 8850   6.209   2.071   3.855  2.0043  2.8991  1.8384
    1PA    H15S 8851   6.046   2.079   3.780  1.2399 -1.4592 -0.0260
    1PA    C114 8852   6.142   2.272   3.841  0.2839 -0.1872 -0.2619
    1PA    H14R 8853   6.057   2.333   3.873  0.2589 -0.3935  0.0590
    1PA    H14S 8854   6.223   2.294   3.910 -1.0055 -3.1071  2.4459
    1PA    C113 8855   6.171   2.301   3.693  0.4472 -0.1632 -0.2251
    1PA    H13R 8856   6.269   2.256   3.673  0.0091 -0.6890 -1.2458
    1PA    H13S 8857   6.102   2.249   3.627  0.2227  0.2008 -0.2777
    1PA    C112 8858   6.181   2.453   3.669  0.1125 -0.0644  0.2491
    1PA    H12R 8859   6.081   2.493   3.688  0.1186 -0.2977  0.7941
    1PA    H12S 8860   6.250   2.503   3.738  0.0176  0.0012  0.2950
    1PA    C111 8861   6.215   2.493   3.525 -0.9202  0.2632  0.0900
    1PA    H11R 8862   6.255   2.594   3.528 -0.2763  0.0469 -0.8022
    1PA    H11S 8863   6.292   2.425   3.487 -0.9064  0.0501  0.4987
    1PA    C110 8864   6.098   2.480   3.427 -0.9534  0.3596  0.1168
    1PA    H10R 8865   6.068   2.377   3.407  0.8573 -0.1688 -0.0435
    1PA    H10S 8866   6.008   2.525   3.469 -1.0724 -2.0658  2.7420
    1PA     C19 8867   6.142   2.547   3.296  0.0198 -0.1408  0.1814
    1PA     H9R 8868   6.185   2.644   3.321 -0.6191 -0.3687  2.3234
    1PA     H9S 8869   6.233   2.499   3.257 -0.0022  0.0841 -0.1488
    1PA     C18 8870   6.027   2.573   3.198  0.1373 -0.7825 -0.1357
    1PA     H8R 8871   5.964   2.490   3.167 -0.1932 -1.6332  2.5972
    1PA     H8S 8872   5.958   2.637   3.252  2.2489  1.7250 -0.1899
    1PA     C17 8873   6.077   2.650   3.074  0.5425 -0.0024  0.5004
    1PA     H7R 8874   6.013   2.737   3.064  1.7383  0.7540 -1.1395
    1PA     H7S 8875   6.175   2.695   3.092  0.9050 -0.4335 -0.3398
    1PA     C16 8876   6.070   2.570   2.943  0.0837  0.0899  0.4667
    1PA     H6R 8877   6.127   2.478   2.959 -2.6316 -1.8467 -0.3502
    1PA     H6S 8878   5.967   2.538   2.931  0.0248  0.5303 -0.2142
    1PA     C15 8879   6.113   2.658   2.825 -0.1045  0.1629  0.4527
    1PA     H5R 8880   6.222   2.669   2.817 -0.2951  0.4627 -4.3924
    1PA     H5S 8881   6.097   2.604   2.732 -2.5277 -0.2017  1.0159
    1PA     C14 8882   6.037   2.791   2.822  0.0560  0.2517  0.3012
    1PA     H4R 8883   5.930   2.770   2.825  0.0307  0.4563  1.9898
    1PA     H4S 8884   6.061   2.855   2.908  0.9793  1.2258 -0.6501
    1PA     C13 8885   6.050   2.862   2.687  0.6115  0.5170  0.4872
    1PA     H3R 8886   6.014   2.797   2.607  1.9202  0.9266 -0.4730
    1PA     H3S 8887   5.984   2.949   2.697 -1.1582 -0.6281 -0.5561
    1PA     C12 8888   6.188   2.904   2.636  0.6232 -0.3886 -0.2594
    1PA     H2R 8889   6.236   2.987   2.689  3.1422  0.5806 -3.7354
    1PA     H2S 8890   6.255   2.820   2.659 -0.3544 -1.5772 -1.5707
    2PC     C11 8891   6.198   2.948   2.492  0.0204 -0.1108 -0.2183
    2PC     O12 8892   6.100   2.983   2.431 -0.1124 -0.1310 -0.0171
    2PC     O11 8893   6.318   2.932   2.434  0.2391  0.0823  0.1693
    2PC      C1 8894   6.342   2.956   2.294 -0.0407 -0.0481  0.0980
    2PC      HR 8895   6.430   2.907   2.253 -0.8534 -1.2473 -0.2908
    2PC      HS 8896   6.258   2.905   2.246 -0.0222 -0.0054  0.0204
    2PC      C2 8897   6.352   3.106   2.264  0.0460 -0.0819 -0.0460
    2PC      HX 8898   6.267   3.160   2.307  0.1375  0.7498 -0.8840
    2PC      C3 8899   6.355   3.143   2.115  0.3485  0.1336  0.0127
    2PC      HA 8900   6.263   3.097   2.077 -0.6226  1.1796  1.0146
    2PC      HB 8901   6.344   3.251   2.103  0.2703  0.1498  0.2223
    2PC     O31 8902   6.477   3.093   2.058  0.2815 -0.1289  0.1001
    2PC     P31 8903   6.529   3.146   1.916 -0.0400 -0.0314  0.0171
    2PC     O32 8904   6.399   3.177   1.828  0.2931  0.7935 -0.1951
    2PC     C31 8905   6.404   3.173   1.684  0.0648 -0.4863 -0.1785
    2PC     H1A 8906   6.487   3.236   1.653  0.0129 -0.7807 -0.9415
    2PC     H1B 8907   6.425   3.074   1.642  1.1061 -0.1894 -0.3858
    2PC     C32 8908   6.265   3.222   1.641  0.3010 -0.2200 -0.6432
    2PC     H2A 8909   6.227   3.293   1.714  0.5098  0.1984 -0.9377
    2PC     H2B 8910   6.275   3.271   1.544  0.9983  0.9555  0.0015
    2PC     N31 8911   6.153   3.123   1.629  0.2059 -0.2475  0.4038
    2PC     C33 8912   6.029   3.203   1.601  0.8015  0.4641 -0.2533
    2PC     H3A 8913   5.944   3.136   1.585  0.2761  0.7176  1.3379
    2PC     H3B 8914   6.007   3.267   1.686  3.5612 -0.7363  1.5170
    2PC     H3C 8915   6.050   3.255   1.508 -1.2335 -0.0132 -1.0434
    2PC     C34 8916   6.170   3.023   1.519  0.4478 -0.0652  0.2750
    2PC     H4A 8917   6.188   3.072   1.423  1.3159  0.3621  0.6488
    2PC     H4B 8918   6.252   2.955   1.541  0.0835 -1.0801 -1.2976
    2PC     H4C 8919   6.074   2.971   1.517 -0.0450  0.6897 -2.9736
    2PC     C35 8920   6.126   3.049   1.757  0.0034 -0.5266  0.2000
    2PC     H5A 8921   6.089   3.123   1.828 -1.3961 -2.2400  1.3621
    2PC     H5B 8922   6.215   2.993   1.786 -0.6909 -1.6708  0.1916
    2PC     H5C 8923   6.045   2.978   1.737 -1.7623  1.8913 -1.8576
    2PC     O33 8924   6.613   3.267   1.926  0.0435 -0.0741 -0.1572
    2PC     O34 8925   6.611   3.044   1.846  0.3572  0.1412  0.2284
    2PC     O21 8926   6.479   3.144   2.321  0.0089  0.1972 -0.1453
    2PC     C21 8927   6.503   3.275   2.333 -0.2490  0.2498 -0.1870
    2PC     O22 8928   6.433   3.368   2.300 -0.4815  0.1563  0.0440
    3OL     C12 8929   6.639   3.304   2.393 -0.3407  0.6116 -0.1496
    3OL     H2R 8930   6.683   3.385   2.335  1.0139 -1.3036 -1.9456
    3OL     H2S 8931   6.702   3.217   2.373 -1.6369 -0.8795  1.8452
    3OL     C13 8932   6.637   3.333   2.543 -0.6406  0.1501 -0.0605
    3OL     H3R 8933   6.588   3.429   2.561 -1.4788  0.2691 -2.6127
    3OL     H3S 8934   6.741   3.338   2.578 -0.9040  1.6626  0.5853
    3OL     C14 8935   6.573   3.224   2.629  0.0623 -0.1242  0.1263
    3OL     H4R 8936   6.472   3.208   2.591  0.9001 -0.5462 -2.0797
    3OL     H4S 8937   6.574   3.261   2.732 -1.2011 -0.5178  0.3044
    3OL     C15 8938   6.642   3.087   2.615 -0.5094 -0.3625 -0.4596
    3OL     H5R 8939   6.742   3.101   2.657 -0.3993 -0.5416 -0.6651
    3OL     H5S 8940   6.652   3.068   2.508  0.5166 -0.0173 -0.4377
    3OL     C16 8941   6.571   2.973   2.688  0.3331 -0.3656  0.3802
    3OL     H6R 8942   6.631   2.883   2.676 -0.6206 -0.7785 -1.6679
    3OL     H6S 8943   6.475   2.946   2.643 -0.6246  0.2345  1.9417
    3OL     C17 8944   6.531   3.010   2.832  0.3200  0.4514  0.1701
    3OL     H7R 8945   6.442   3.072   2.820  1.1343  1.9114  1.3356
    3OL     H7S 8946   6.614   3.053   2.888  0.6492 -0.5924  0.4975
    3OL     C18 8947   6.482   2.891   2.916  0.3696  0.1904 -0.1671
    3OL     H8R 8948   6.568   2.836   2.955  0.9619  0.3198 -1.2477
    3OL     H8S 8949   6.431   2.818   2.853  1.9956 -1.5657  0.4512
    3OL     C19 8950   6.387   2.937   3.024  0.4362  0.1348 -0.0847
    3OL     H9R 8951   6.304   2.996   2.987  1.1043  0.4451 -1.1289
    3OL    C110 8952   6.382   2.909   3.153 -0.1949  0.0101 -0.1303
    3OL    H10R 8953   6.298   2.946   3.211  0.5488 -1.8182  2.3048
    3OL    C111 8954   6.489   2.838   3.233  0.0983  0.0192 -0.5096
    3OL    H11R 8955   6.571   2.800   3.172 -1.6313 -1.6657 -1.9390
    3OL    H11S 8956   6.443   2.758   3.292  1.6617 -0.3029  0.3293
    3OL    C112 8957   6.547   2.944   3.327 -0.1368 -0.0356 -0.2988
    3OL    H12R 8958   6.465   2.974   3.392 -0.1188  2.4975 -1.3154
    3OL    H12S 8959   6.578   3.043   3.292 -0.8336  0.9470  1.6979
    3OL    C113 8960   6.653   2.889   3.424 -0.4855  0.1307  0.1758
    3OL    H13R 8961   6.741   2.869   3.363 -1.5462 -3.6100 -0.3947
    3OL    H13S 8962   6.633   2.797   3.480  1.2373 -0.0540  0.5240
    3OL    C114 8963   6.681   2.984   3.542 -0.5887  0.6303 -0.1957
    3OL    H14R 8964   6.591   2.982   3.605 -0.4548 -0.2790 -0.0193
    3OL    H14S 8965   6.691   3.084   3.502 -0.9354  0.8148  0.1703
    3OL    C115 8966   6.803   2.948   3.628 -0.6473  0.1003 -0.3291
    3OL    H15R 8967   6.883   2.962   3.554  0.3655 -1.3286  0.4510
    3OL    H15S 8968   6.800   2.849   3.674 -2.7720  0.7430  1.0629
    3OL    C116 8969   6.833   3.056   3.732  0.4282 -0.4188 -0.0830
    3OL    H16R 8970   6.742   3.074   3.790  0.8871  0.1812  0.4694
    3OL    H16S 8971   6.851   3.152   3.684  0.8206 -0.0469  0.7768
    3OL    C117 8972   6.952   3.010   3.817  0.1977 -0.3181  0.2979
    3OL    H17R 8973   7.042   3.026   3.758 -0.2254  0.2168 -0.2156
    3OL    H17S 8974   6.940   2.905   3.843 -1.5513 -0.3373 -0.4903
    3OL    C118 8975   6.987   3.085   3.946 -0.4683 -0.8865  0.8133
    3OL    H18R 8976   6.970   3.192   3.928 -1.1661 -0.8280  1.7220
    3OL    H18S 8977   7.086   3.057   3.983 -1.4798 -2.6522  2.3577
    3OL    H18T 8978   6.926   3.055   4.032 -0.1186 -1.2600  0.9331
    1PA    C116 8979   4.324   4.459   3.919  0.6192 -0.3530 -0.5094
    1PA    H16R 8980   4.390   4.413   3.993 -0.3598 -1.3588 -0.2307
    1PA    H16S 8981   4.292   4.552   3.966  1.3448 -0.8837  1.1178
    1PA    H16T 8982   4.391   4.478   3.835  1.4006  0.6050  0.2982
    1PA    C115 8983   4.199   4.379   3.879  0.4902 -0.1763 -0.4619
    1PA    H15R 8984   4.138   4.368   3.969 -0.7901  0.5625 -1.2142
    1PA    H15S 8985   4.143   4.436   3.805  1.7124  0.1430 -1.1847
    1PA    C114 8986   4.251   4.244   3.830  0.7412 -0.2252 -0.0694
    1PA    H14R 8987   4.310   4.189   3.904 -0.8154 -1.0605  0.5829
    1PA    H14S 8988   4.165   4.177   3.818  2.3474 -2.4732  0.1515
    1PA    C113 8989   4.332   4.258   3.700  0.4213 -0.1607 -0.2630
    1PA    H13R 8990   4.286   4.332   3.634  2.1975  2.5339  1.2993
    1PA    H13S 8991   4.435   4.290   3.720  0.1116  0.2394  0.7646
    1PA    C112 8992   4.335   4.120   3.633  0.1618 -0.1099 -0.3774
    1PA    H12R 8993   4.404   4.060   3.692  2.0766  0.4412 -1.9448
    1PA    H12S 8994   4.234   4.078   3.632  0.0213 -0.4605  4.4772
    1PA    C111 8995   4.404   4.128   3.496  0.7288  0.4103 -0.0649
    1PA    H11R 8996   4.484   4.201   3.511  0.4881  0.4197  1.3254
    1PA    H11S 8997   4.450   4.032   3.469  2.1530  0.4300  1.9618
    1PA    C110 8998   4.311   4.167   3.381  0.3978  0.1932  0.1268
    1PA    H10R 8999   4.246   4.081   3.369 -0.6017  0.9195  0.2045
    1PA    H10S 9000   4.256   4.260   3.398  1.1583  1.4146 -3.3056
    1PA     C19 9001   4.386   4.213   3.255  0.4061  0.4078  0.2086
    1PA     H9R 9002   4.450   4.293   3.294 -0.1013  0.8701  0.1078
    1PA     H9S 9003   4.447   4.127   3.227  0.1719  0.2866  0.0668
    1PA     C18 9004   4.300   4.255   3.136  0.3388 -0.1933  0.0406
    1PA     H8R 9005   4.215   4.188   3.120  0.5675 -0.4528 -0.0786
    1PA     H8S 9006   4.257   4.354   3.157  0.4540  0.1700 -1.2842
    1PA     C17 9007   4.386   4.271   3.010  0.4683  0.1807  0.1740
    1PA     H7R 9008   4.480   4.321   3.034 -0.4098  1.8965  0.1659
    1PA     H7S 9009   4.411   4.170   2.976 -1.1349  0.0472 -0.7460
    1PA     C16 9010   4.300   4.340   2.903  0.2654 -0.1192  0.1407
    1PA     H6R 9011   4.201   4.295   2.894 -0.7080  1.9396 -0.1959
    1PA     H6S 9012   4.270   4.441   2.933  2.0894  1.4601 -2.7728
    1PA     C15 9013   4.371   4.348   2.767 -0.0842 -0.2940 -0.0520
    1PA     H5R 9014   4.470   4.394   2.775  0.0413 -0.3043 -1.3845
    1PA     H5S 9015   4.389   4.251   2.719  1.2603  1.2341 -2.8426
    1PA     C14 9016   4.294   4.431   2.664 -0.0905 -0.2554 -0.0158
    1PA     H4R 9017   4.223   4.363   2.615 -0.9560 -0.7770  1.8707
    1PA     H4S 9018   4.235   4.511   2.709  4.8987  2.3509  2.7372
    1PA     C13 9019   4.392   4.489   2.561 -0.1550 -0.0017  0.0653
    1PA     H3R 9020   4.443   4.580   2.593  0.0180 -0.1239  0.1434
    1PA     H3S 9021   4.460   4.409   2.530 -0.5842 -1.2481  2.1316
    1PA     C12 9022   4.316   4.524   2.433  0.5277 -0.2709 -0.4203
    1PA     H2R 9023   4.261   4.439   2.390 -1.0201  0.1448  0.6405
    1PA     H2S 9024   4.241   4.599   2.458  0.3714 -1.2556  2.3645
    2PC     C11 9025   4.411   4.567   2.324  0.7853  0.0268 -0.0779
    2PC     O12 9026   4.442   4.684   2.310  0.4326  0.1798  0.3680
    2PC     O11 9027   4.465   4.463   2.259  0.3077 -0.8303  0.8610
    2PC      C1 9028   4.578   4.498   2.176 -0.1899  0.0922  0.5562
    2PC      HR 9029   4.556   4.575   2.102 -2.2214 -0.9580 -0.0106
    2PC      HS 9030   4.652   4.540   2.244 -0.4118  2.8009 -0.7306
    2PC      C2 9031   4.629   4.377   2.096 -0.5745  0.3368 -0.0697
    2PC      HX 9032   4.724   4.399   2.047  0.5328 -1.7989  0.9453
    2PC      C3 9033   4.529   4.329   1.991 -0.0090 -0.1589 -0.3877
    2PC      HA 9034   4.441   4.297   2.048  1.7564 -0.4144  2.3454
    2PC      HB 9035   4.504   4.413   1.926 -0.4948  2.1975  2.6156
    2PC     O31 9036   4.590   4.225   1.912  0.2986 -0.1575 -0.1549
    2PC     P31 9037   4.514   4.131   1.807 -0.1236  0.1414 -0.1226
    2PC     O32 9038   4.628   4.161   1.698 -0.3550 -0.1827 -0.4569
    2PC     C31 9039   4.615   4.100   1.569  0.2119  0.0425 -0.6209
    2PC     H1A 9040   4.513   4.118   1.535  0.0611 -0.2447 -0.3256
    2PC     H1B 9041   4.683   4.151   1.500  0.3125  0.2663 -0.3555
    2PC     C32 9042   4.656   3.952   1.573  0.5679  0.1558  0.0811
    2PC     H2A 9043   4.755   3.940   1.616  0.8777  3.5647  0.6098
    2PC     H2B 9044   4.583   3.895   1.630  0.9070 -0.8611 -0.4746
    2PC     N31 9045   4.646   3.881   1.441 -0.1411  0.1391  0.1400
    2PC     C33 9046   4.744   3.927   1.338  0.0211 -0.5587 -0.0250
    2PC     H3A 9047   4.718   4.032   1.324  2.0568 -0.2507 -2.1020
    2PC     H3B 9048   4.849   3.919   1.369 -0.7808 -1.4725  2.6791
    2PC     H3C 9049   4.724   3.879   1.242  0.3185 -2.4981  0.8424
    2PC     C34 9050   4.660   3.735   1.474 -0.3864  0.2267  0.6435
    2PC     H4A 9051   4.752   3.725   1.531  0.0095  1.2119  0.2097
    2PC     H4B 9052   4.572   3.692   1.521  0.1717  0.6560  2.1163
    2PC     H4C 9053   4.662   3.683   1.378 -0.7833 -1.6218  1.5836
    2PC     C35 9054   4.510   3.904   1.383  0.1095 -0.7597 -0.8383
    2PC     H5A 9055   4.501   3.843   1.293  2.6504  0.1501 -1.7784
    2PC     H5B 9056   4.486   4.009   1.364  1.8678 -0.0996  0.3768
    2PC     H5C 9057   4.433   3.861   1.448  0.0408  1.0811  0.3495
    2PC     O33 9058   4.535   3.995   1.863 -0.1580  0.2255  0.0971
    2PC     O34 9059   4.373   4.148   1.766 -0.1331 -0.1236 -0.2044
    2PC     O21 9060   4.652   4.265   2.184 -0.1827  0.5556  0.1127
    2PC     C21 9061   4.759   4.278   2.264  0.0965  0.2895 -0.2153
    2PC     O22 9062   4.829   4.375   2.277  0.0030  0.3039  0.2144
    3OL     C12 9063   4.762   4.164   2.363 -0.5873  0.4407 -0.0111
    3OL     H2R 9064   4.796   4.072   2.315 -0.1905  0.6330 -0.1067
    3OL     H2S 9065   4.659   4.147   2.395 -0.0280 -0.6478  1.3412
    3OL     C13 9066   4.876   4.194   2.462  0.5040 -0.4488 -0.9716
    3OL     H3R 9067   4.849   4.283   2.520 -0.5221 -1.6807  0.5107
    3OL     H3S 9068   4.972   4.216   2.414  0.9590  0.1028  0.1597
    3OL     C14 9069   4.906   4.079   2.560 -0.2868  0.3885  0.2817
    3OL     H4R 9070   4.995   4.099   2.619 -1.9576 -0.2137  3.1851
    3OL     H4S 9071   4.936   3.990   2.504  0.4714  0.2919  0.8394
    3OL     C15 9072   4.784   4.045   2.648  0.2471 -0.5783  0.6555
    3OL     H5R 9073   4.792   3.944   2.688 -1.9117 -0.2542  2.0611
    3OL     H5S 9074   4.684   4.046   2.605 -0.4471 -0.5856  2.2452
    3OL     C16 9075   4.771   4.146   2.762 -0.2884  0.0629  0.0339
    3OL     H6R 9076   4.664   4.151   2.784 -0.4866  0.0483 -0.8885
    3OL     H6S 9077   4.811   4.245   2.736 -0.6784  0.1875 -0.1070
    3OL     C17 9078   4.855   4.098   2.881  0.0505  0.7441  0.0736
    3OL     H7R 9079   4.959   4.109   2.850 -0.1051 -1.1142 -1.2683
    3OL     H7S 9080   4.848   3.991   2.902  0.1607  0.7065 -0.0784
    3OL     C18 9081   4.831   4.175   3.012 -0.4848  0.2410  0.2734
    3OL     H8R 9082   4.725   4.178   3.040 -1.5317  0.5179 -3.1736
    3OL     H8S 9083   4.855   4.275   2.974  1.5143 -1.2139 -2.7010
    3OL     C19 9084   4.926   4.133   3.121 -0.0963 -0.4869 -0.3412
    3OL     H9R 9085   5.026   4.114   3.082  0.4086 -0.2572  0.8100
    3OL    C110 9086   4.895   4.124   3.249  0.0829  0.3772 -0.2290
    3OL    H10R 9087   4.967   4.092   3.324 -0.7659  0.4327  0.6256
    3OL    C111 9088   4.765   4.169   3.312 -0.0044 -0.1439 -0.0268
    3OL    H11R 9089   4.688   4.094   3.327 -1.2598  1.3406  1.2977
    3OL    H11S 9090   4.707   4.238   3.250 -1.2965 -1.0012  0.1989
    3OL    C112 9091   4.783   4.217   3.456  0.3669 -0.1840 -0.0585
    3OL    H12R 9092   4.686   4.247   3.496 -0.7151 -0.6998 -2.1697
    3OL    H12S 9093   4.842   4.309   3.458 -1.3607  0.9681  0.6800
    3OL    C113 9094   4.859   4.126   3.553 -0.2340 -0.2500  0.3551
    3OL    H13R 9095   4.839   4.156   3.656 -0.2957 -2.2093  0.9653
    3OL    H13S 9096   4.968   4.133   3.546  0.0656 -1.9034  2.2697
    3OL    C114 9097   4.819   3.979   3.538 -0.4595 -0.2011  0.4632
    3OL    H14R 9098   4.845   3.930   3.443 -0.5459 -2.6491  1.6065
    3OL    H14S 9099   4.710   3.980   3.546 -0.4467  0.0017  0.6126
    3OL    C115 9100   4.878   3.891   3.649  0.4324 -0.0569  0.1153
    3OL    H15R 9101   4.853   3.933   3.747 -0.9233  0.0356 -0.2477
    3OL    H15S 9102   4.986   3.902   3.641  0.2999  0.0073 -2.4373
    3OL    C116 9103   4.830   3.745   3.649 -0.4137  0.2161  0.4230
    3OL    H16R 9104   4.855   3.697   3.554 -0.5059 -1.0548  1.0331
    3OL    H16S 9105   4.722   3.740   3.668 -0.2824  1.8666  1.8173
    3OL    C117 9106   4.887   3.669   3.768  0.7147 -0.2353 -0.3888
    3OL    H17R 9107   4.855   3.564   3.764 -1.3706  0.3801 -0.7037
    3OL    H17S 9108   4.854   3.714   3.862  0.5336 -3.5234  1.2718
    3OL    C118 9109   5.041   3.667   3.771  0.7031 -0.7178  0.3659
    3OL    H18R 9110   5.075   3.634   3.673  1.5934  0.4218  0.2702
    3OL    H18S 9111   5.079   3.595   3.843  1.1565 -1.9010 -1.0256
    3OL    H18T 9112   5.088   3.760   3.803 -0.9524 -1.0096  4.2176
    1PA    C116 9113   5.224   1.718   3.488 -0.2094 -0.2069  0.0520
    1PA    H16R 9114   5.202   1.665   3.581 -0.2180 -0.5160 -0.1287
    1PA    H16S 9115   5.177   1.817   3.481 -0.1948 -0.1432  0.7727
    1PA    H16T 9116   5.332   1.735   3.496 -0.1263 -1.1580  1.3375
    1PA    C115 9117   5.170   1.639   3.368 -0.0762  0.1459 -0.2419
    1PA    H15R 9118   5.191   1.698   3.279  0.6621  0.5737  0.1948
    1PA    H15S 9119   5.225   1.545   3.360  0.6941  0.6443 -0.9764
    1PA    C114 9120   5.021   1.602   3.371 -0.1279  0.3985  0.5916
    1PA    H14R 9121   5.007   1.534   3.287  0.6984 -1.6312  2.0025
    1PA    H14S 9122   5.004   1.545   3.463  0.4173  0.0407  0.4762
    1PA    C113 9123   4.934   1.728   3.358  0.2087  0.5469 -0.2762
    1PA    H13R 9124   4.950   1.788   3.448  0.4551 -1.7887  1.3261
    1PA    H13S 9125   4.965   1.777   3.266 -0.9468 -3.5720 -3.1509
    1PA    C112 9126   4.786   1.688   3.350  0.2769  0.2669 -0.1521
    1PA    H12R 9127   4.774   1.610   3.426 -0.8383 -0.0408 -0.6261
    1PA    H12S 9128   4.722   1.769   3.385  1.8315  1.8128 -0.7477
    1PA    C111 9129   4.740   1.640   3.212 -0.5012 -0.9061  0.4950
    1PA    H11R 9130   4.824   1.618   3.147  0.0444 -0.1010  0.9170
    1PA    H11S 9131   4.675   1.553   3.206 -1.3254 -0.5023  2.6449
    1PA    C110 9132   4.663   1.750   3.137  0.2849 -0.1609  0.7730
    1PA    H10R 9133   4.618   1.705   3.048  1.6182 -0.7909  0.3854
    1PA    H10S 9134   4.583   1.796   3.195  0.2228 -0.1114  0.6478
    1PA     C19 9135   4.747   1.873   3.097 -0.5363  0.1458 -0.0475
    1PA     H9R 9136   4.792   1.918   3.186  0.2018 -0.7475  0.0512
    1PA     H9S 9137   4.840   1.842   3.049  0.4330  1.3333  0.9849
    1PA     C18 9138   4.677   1.971   3.002 -0.0880  0.3700 -0.1503
    1PA     H8R 9139   4.644   1.904   2.921 -2.3515  1.1020  0.1032
    1PA     H8S 9140   4.584   2.005   3.048 -1.7368 -1.3453 -1.9907
    1PA     C17 9141   4.772   2.087   2.970  0.3571  0.0217 -0.1089
    1PA     H7R 9142   4.790   2.157   3.052  3.3323 -0.6027 -0.1338
    1PA     H7S 9143   4.866   2.041   2.939 -0.2319 -1.0358 -0.3726
    1PA     C16 9144   4.706   2.173   2.860  0.0805  0.2973  0.2695
    1PA     H6R 9145   4.665   2.108   2.783  0.1144 -0.8460  1.1799
    1PA     H6S 9146   4.618   2.214   2.909 -1.2329 -0.9555 -0.9374
    1PA     C15 9147   4.799   2.285   2.811 -0.0155  0.1714 -0.2016
    1PA     H5R 9148   4.811   2.358   2.891 -2.8293  3.3077 -2.4079
    1PA     H5S 9149   4.901   2.249   2.792  0.3446  0.9632  0.1950
    1PA     C14 9150   4.738   2.355   2.689 -0.3192  0.3923  0.0786
    1PA     H4R 9151   4.705   2.278   2.620 -1.0263  0.2694  0.5338
    1PA     H4S 9152   4.650   2.414   2.715 -0.6288  0.8751 -1.9688
    1PA     C13 9153   4.854   2.442   2.638  0.6574 -0.8249  0.1885
    1PA     H3R 9154   4.903   2.501   2.715  1.3010  0.9181 -1.4699
    1PA     H3S 9155   4.936   2.386   2.592  3.3045  2.4616  0.5559
    1PA     C12 9156   4.801   2.545   2.537  0.0313 -1.0707  0.2611
    1PA     H2R 9157   4.731   2.612   2.587  0.2724 -0.8657  0.3253
    1PA     H2S 9158   4.886   2.595   2.491  1.0257 -1.9400  1.1146
    2PC     C11 9159   4.732   2.489   2.415 -0.1984  0.0063 -0.1150
    2PC     O12 9160   4.760   2.382   2.364 -0.7819 -0.1725 -0.0653
    2PC     O11 9161   4.633   2.571   2.378 -0.2787  0.0324  0.1525
    2PC      C1 9162   4.548   2.546   2.264 -0.4625  0.7712  0.1182
    2PC      HR 9163   4.495   2.639   2.244 -0.2926  0.2361 -3.4912
    2PC      HS 9164   4.606   2.520   2.175  0.2238  1.0374  0.4756
    2PC      C2 9165   4.447   2.436   2.299 -0.2521  0.4563 -0.2552
    2PC      HX 9166   4.499   2.343   2.327  1.3570  1.7481  1.2885
    2PC      C3 9167   4.357   2.401   2.180 -0.2752  0.4941 -0.2483
    2PC      HA 9168   4.282   2.330   2.216 -0.5436  1.4291  1.1108
    2PC      HB 9169   4.300   2.490   2.153  0.5907  1.2034  0.2200
    2PC     O31 9170   4.443   2.353   2.075 -0.2171 -0.1378  0.0852
    2PC     P31 9171   4.380   2.331   1.929  0.1193  0.0949 -0.0954
    2PC     O32 9172   4.276   2.211   1.950  0.0546  0.1659 -0.0068
    2PC     C31 9173   4.137   2.226   1.916 -0.0722 -0.0323  0.4170
    2PC     H1A 9174   4.079   2.137   1.942  0.3474 -0.1028  1.1454
    2PC     H1B 9175   4.097   2.310   1.973 -2.2881 -1.9280  1.8436
    2PC     C32 9176   4.112   2.256   1.768  0.0361  0.0679  0.4189
    2PC     H2A 9177   4.016   2.309   1.770 -1.1543 -1.9796  0.0220
    2PC     H2B 9178   4.188   2.322   1.727  0.5412 -1.5987 -1.4824
    2PC     N31 9179   4.100   2.134   1.681  0.1847  0.0705  0.3948
    2PC     C33 9180   4.237   2.075   1.667 -0.1618 -0.6447  0.0114
    2PC     H3A 9181   4.295   2.142   1.603  0.0021  0.1627  0.9862
    2PC     H3B 9182   4.287   2.075   1.764  1.6366  1.3051 -0.8479
    2PC     H3C 9183   4.218   1.973   1.632 -1.4292 -1.1592  2.0251
    2PC     C34 9184   4.001   2.028   1.718 -0.4385  0.6637  0.4413
    2PC     H4A 9185   3.907   2.082   1.729  0.3276  2.0453  0.4259
    2PC     H4B 9186   3.998   1.962   1.632 -1.5549  0.7437  0.3978
    2PC     H4C 9187   4.031   1.979   1.811  1.2844  0.7798 -0.0274
    2PC     C35 9188   4.077   2.180   1.540 -0.0348 -0.6401  0.1959
    2PC     H5A 9189   4.140   2.268   1.527 -0.4877 -0.3206  0.1292
    2PC     H5B 9190   3.972   2.203   1.523 -0.3274 -2.0305  0.0327
    2PC     H5C 9191   4.104   2.103   1.468  0.5105  1.3014 -1.7889
    2PC     O33 9192   4.303   2.455   1.905  0.0247  0.0199 -0.1771
    2PC     O34 9193   4.486   2.325   1.826  0.0045 -0.0335 -0.2067
    2PC     O21 9194   4.355   2.479   2.401 -0.1028  0.0137  0.0717
    2PC     C21 9195   4.343   2.402   2.510 -0.2969 -0.4751 -0.2919
    2PC     O22 9196   4.421   2.316   2.545 -0.1315 -0.3247 -0.2883
    3OL     C12 9197   4.212   2.430   2.580 -0.2706  0.8337 -0.7405
    3OL     H2R 9198   4.178   2.327   2.593  4.5836 -1.0511 -0.7602
    3OL     H2S 9199   4.147   2.475   2.505  1.1771  0.7784 -2.0889
    3OL     C13 9200   4.228   2.518   2.705  0.1849  0.0517 -0.2367
    3OL     H3R 9201   4.331   2.504   2.740  0.5717 -3.9717 -2.3971
    3OL     H3S 9202   4.201   2.618   2.670 -3.5604 -0.4891  0.7197
    3OL     C14 9203   4.127   2.486   2.815  0.3681  0.2667 -0.0024
    3OL     H4R 9204   4.145   2.385   2.853 -0.4410  0.3832  0.7174
    3OL     H4S 9205   4.028   2.478   2.769  1.1137  2.0884 -2.0590
    3OL     C15 9206   4.106   2.600   2.915  0.6711  0.0206  0.3457
    3OL     H5R 9207   4.000   2.625   2.920  0.0536 -2.2811 -0.3495
    3OL     H5S 9208   4.149   2.691   2.871 -2.1727  0.5701 -1.5353
    3OL     C16 9209   4.157   2.572   3.057  0.1842 -0.4080  0.4358
    3OL     H6R 9210   4.259   2.532   3.063 -0.4065 -2.0283  0.3252
    3OL     H6S 9211   4.090   2.495   3.098 -1.4495  2.0489  2.7068
    3OL     C17 9212   4.128   2.700   3.136  0.3878 -0.1680  0.1221
    3OL     H7R 9213   4.023   2.730   3.137  0.4688  0.1251  1.3279
    3OL     H7S 9214   4.188   2.782   3.095 -0.2028  0.9061  1.3229
    3OL     C18 9215   4.155   2.691   3.287 -0.2726  0.0964  0.2603
    3OL     H8R 9216   4.144   2.790   3.330 -1.9000  0.2617 -0.4447
    3OL     H8S 9217   4.259   2.670   3.313  0.4030  3.1130  0.2959
    3OL     C19 9218   4.055   2.601   3.356 -0.1940  0.1889  0.4953
    3OL     H9R 9219   3.950   2.608   3.330 -0.0970 -0.7417 -0.2010
    3OL    C110 9220   4.083   2.503   3.440 -0.2215  0.1796  0.4935
    3OL    H10R 9221   3.994   2.456   3.482 -1.5534  0.4012 -1.8940
    3OL    C111 9222   4.219   2.442   3.462 -0.2883  0.0581  0.5688
    3OL    H11R 9223   4.283   2.503   3.526  0.3135  0.7421 -0.6654
    3OL    H11S 9224   4.267   2.431   3.365 -0.9445  0.9156  0.1303
    3OL    C112 9225   4.193   2.310   3.537  0.3863 -0.2205  0.3110
    3OL    H12R 9226   4.124   2.243   3.486 -2.1206  2.3987  0.0589
    3OL    H12S 9227   4.149   2.329   3.635 -0.0775  0.8192 -0.0784
    3OL    C113 9228   4.326   2.236   3.561  0.4606 -0.0797  0.3363
    3OL    H13R 9229   4.312   2.147   3.622  0.9661 -1.0976 -0.9875
    3OL    H13S 9230   4.407   2.292   3.608  4.6853 -2.5775 -3.2084
    3OL    C114 9231   4.382   2.179   3.430 -0.0504  0.2178 -0.0195
    3OL    H14R 9232   4.380   2.265   3.363  0.5286  0.9577  0.8789
    3OL    H14S 9233   4.315   2.102   3.390 -0.7998  0.6145  0.4419
    3OL    C115 9234   4.519   2.113   3.453 -0.1971 -0.0268  0.1604
    3OL    H15R 9235   4.530   2.031   3.381  0.2323  1.2363 -1.2580
    3OL    H15S 9236   4.512   2.065   3.551 -1.2081 -0.0184  0.1037
    3OL    C116 9237   4.639   2.205   3.425 -0.1660 -0.1775 -0.2072
    3OL    H16R 9238   4.645   2.280   3.504 -3.1594 -1.6510  1.6326
    3OL    H16S 9239   4.623   2.253   3.329  1.1350 -1.6919 -1.2399
    3OL    C117 9240   4.774   2.134   3.407 -0.0174  0.1249 -0.2900
    3OL    H17R 9241   4.781   2.091   3.307  2.1995  0.3275 -0.2780
    3OL    H17S 9242   4.786   2.059   3.486  1.4436  0.5332 -0.0925
    3OL    C118 9243   4.887   2.236   3.428  0.4533 -0.5171  0.3611
    3OL    H18R 9244   4.983   2.185   3.425 -0.1748 -1.7695  0.5728
    3OL    H18S 9245   4.897   2.289   3.523  0.0688  4.7336 -2.1475
    3OL    H18T 9246   4.880   2.311   3.349  1.6734 -0.0299  0.6856
    1PA    C116 9247   5.255   0.964   3.839 -0.1765  0.5808  0.1039
    1PA    H16R 9248   5.275   0.890   3.916 -1.8134  1.6571  1.6471
    1PA    H16S 9249   5.146   0.972   3.838 -0.6160 -3.2164  1.6166
    1PA    H16T 9250   5.302   1.055   3.876 -2.0317  1.2725  0.9221
    1PA    C115 9251   5.305   0.910   3.705  0.1023 -0.0022  0.4393
    1PA    H15R 9252   5.244   0.824   3.675  0.6005  0.2226 -1.3558
    1PA    H15S 9253   5.289   0.977   3.620  0.2151 -1.5518 -0.8638
    1PA    C114 9254   5.453   0.869   3.717  0.0357 -0.4374 -0.1858
    1PA    H14R 9255   5.517   0.953   3.741 -0.6081  1.4247 -4.1840
    1PA    H14S 9256   5.464   0.792   3.794  1.2259  1.2767  1.4140
    1PA    C113 9257   5.509   0.807   3.588  0.0287  0.0763 -0.4360
    1PA    H13R 9258   5.614   0.780   3.603  0.0579 -0.1738 -1.0620
    1PA    H13S 9259   5.462   0.712   3.562 -0.4562 -0.0151  0.6977
    1PA    C112 9260   5.485   0.895   3.464 -0.3224  0.3246 -0.1953
    1PA    H12R 9261   5.379   0.919   3.453 -0.7822 -0.3796  2.0471
    1PA    H12S 9262   5.531   0.993   3.473 -0.4323  0.2812  1.0939
    1PA    C111 9263   5.544   0.832   3.337  0.1636  0.3921 -0.0058
    1PA    H11R 9264   5.645   0.793   3.342 -0.5960 -1.7371 -0.4037
    1PA    H11S 9265   5.487   0.739   3.332 -1.3747  1.2680  0.5489
    1PA    C110 9266   5.513   0.913   3.210  0.5270  0.6610  0.0744
    1PA    H10R 9267   5.405   0.925   3.202  0.6350  0.3418 -3.1610
    1PA    H10S 9268   5.554   1.014   3.212  0.9372  0.5119  2.7688
    1PA     C19 9269   5.566   0.835   3.089 -0.7533 -0.1257  0.0016
    1PA     H9R 9270   5.667   0.799   3.107 -1.1234 -1.9505 -1.2507
    1PA     H9S 9271   5.504   0.745   3.092  0.2473 -0.7987  2.5399
    1PA     C18 9272   5.554   0.918   2.960 -1.3508 -0.1690  0.0286
    1PA     H8R 9273   5.447   0.935   2.943 -1.2157  0.5316 -0.1722
    1PA     H8S 9274   5.609   1.012   2.958  0.9005 -1.4340 -2.5599
    1PA     C17 9275   5.626   0.835   2.854 -0.2899  0.2031  0.4403
    1PA     H7R 9276   5.729   0.815   2.882 -0.8817 -0.6516  2.1309
    1PA     H7S 9277   5.572   0.741   2.837 -2.2415  1.1727  1.0361
    1PA     C16 9278   5.643   0.899   2.715  0.0246 -0.7112  0.0466
    1PA     H6R 9279   5.688   0.998   2.725 -0.6578 -0.1766 -1.8498
    1PA     H6S 9280   5.706   0.839   2.650 -1.8119 -2.0018 -0.6269
    1PA     C15 9281   5.517   0.929   2.632  0.6131  0.2039 -0.5225
    1PA     H5R 9282   5.463   1.004   2.690  1.9985  0.0905  0.9847
    1PA     H5S 9283   5.551   0.972   2.537 -0.6028  1.0490 -0.6010
    1PA     C14 9284   5.427   0.807   2.611  0.0430  0.5170  0.0922
    1PA     H4R 9285   5.393   0.775   2.709  1.2848  1.1425  0.7483
    1PA     H4S 9286   5.332   0.840   2.566  1.2538  0.7534 -2.4457
    1PA     C13 9287   5.480   0.694   2.523 -0.3036  0.6416 -0.2828
    1PA     H3R 9288   5.505   0.735   2.425 -2.5840  0.2096 -1.1014
    1PA     H3S 9289   5.565   0.652   2.578 -0.1507 -0.2462 -1.1488
    1PA     C12 9290   5.375   0.584   2.503  0.2249  0.1340 -0.2992
    1PA     H2R 9291   5.405   0.484   2.471 -1.2886 -1.0909  1.8475
    1PA     H2S 9292   5.329   0.566   2.601  1.2030  0.2216  0.1870
    2PC     C11 9293   5.266   0.634   2.412 -0.1368 -0.0386  0.0372
    2PC     O12 9294   5.269   0.736   2.346 -0.8601 -0.0364 -0.0055
    2PC     O11 9295   5.154   0.559   2.419  0.2751 -0.6641  0.0175
    2PC      C1 9296   5.044   0.581   2.328 -0.3600  0.6832  1.0694
    2PC      HR 9297   4.996   0.673   2.360  2.0089  1.8061  1.6740
    2PC      HS 9298   5.080   0.590   2.225 -0.7845  0.9072  0.9408
    2PC      C2 9299   4.944   0.465   2.341 -0.0103  0.2638  0.0917
    2PC      HX 9300   4.992   0.368   2.322  1.7833  0.5546  2.5496
    2PC      C3 9301   4.851   0.482   2.221  0.1411  0.4514 -0.0010
    2PC      HA 9302   4.909   0.503   2.131 -0.7131  1.8222 -0.2631
    2PC      HB 9303   4.785   0.395   2.210  1.0227  0.0250 -2.7288
    2PC     O31 9304   4.768   0.595   2.252 -0.3220  0.0494  0.2539
    2PC     P31 9305   4.672   0.657   2.140  0.0922  0.0084 -0.1265
    2PC     O32 9306   4.647   0.791   2.224 -0.0037  0.1725 -0.4147
    2PC     C31 9307   4.755   0.883   2.250 -0.1869  0.4464 -0.6252
    2PC     H1A 9308   4.835   0.819   2.288 -0.0656  0.4983 -0.7901
    2PC     H1B 9309   4.786   0.931   2.156 -3.0825  0.7643 -1.5224
    2PC     C32 9310   4.707   0.988   2.350  0.1496  0.1543 -0.1568
    2PC     H2A 9311   4.664   0.940   2.438 -1.1180  0.7948 -0.4138
    2PC     H2B 9312   4.788   1.058   2.373 -0.6532  1.5325 -1.3110
    2PC     N31 9313   4.608   1.090   2.302  0.0136  0.0794 -0.0357
    2PC     C33 9314   4.486   1.026   2.243 -0.0371  0.1122  0.0334
    2PC     H3A 9315   4.513   0.964   2.157 -0.8930  2.1383 -1.7992
    2PC     H3B 9316   4.437   0.968   2.321  1.4716 -0.0006  0.9334
    2PC     H3C 9317   4.412   1.097   2.206  2.4091  2.7379 -0.1783
    2PC     C34 9318   4.572   1.175   2.420  0.1931 -0.0492  0.1130
    2PC     H4A 9319   4.545   1.112   2.505  0.0126 -1.3271 -0.8639
    2PC     H4B 9320   4.652   1.244   2.447 -1.2439  0.5887  3.2948
    2PC     H4C 9321   4.489   1.232   2.380  1.1374  0.2897 -1.4473
    2PC     C35 9322   4.676   1.183   2.207 -0.2780 -0.5176 -0.8372
    2PC     H5A 9323   4.614   1.270   2.184  0.2353 -0.3797 -1.7691
    2PC     H5B 9324   4.704   1.133   2.114 -1.7271  0.9282 -2.1091
    2PC     H5C 9325   4.764   1.223   2.259 -1.7683  1.8367  0.0162
    2PC     O33 9326   4.738   0.664   2.008 -0.1092  0.5191 -0.2001
    2PC     O34 9327   4.546   0.580   2.144  0.1128 -0.0253 -0.1313
    2PC     O21 9328   4.870   0.468   2.464 -0.0337 -0.3295  0.0926
    2PC     C21 9329   4.788   0.364   2.490  0.1037 -0.3395  0.4886
    2PC     O22 9330   4.789   0.260   2.428  0.1851 -0.3217  0.4594
    3OL     C12 9331   4.685   0.390   2.597  0.1196  0.2140  0.3767
    3OL     H2R 9332   4.591   0.402   2.544  0.4735 -0.2667 -0.3732
    3OL     H2S 9333   4.723   0.480   2.646  4.0973 -1.4802  0.8129
    3OL     C13 9334   4.649   0.265   2.679 -0.4283 -0.1279 -0.3739
    3OL     H3R 9335   4.671   0.166   2.638  0.3937 -1.0680  2.1443
    3OL     H3S 9336   4.542   0.256   2.699 -0.6126  2.2940  0.0135
    3OL     C14 9337   4.712   0.276   2.819 -0.1567  0.2527 -0.5245
    3OL     H4R 9338   4.817   0.305   2.815 -0.0014 -0.1959  0.1010
    3OL     H4S 9339   4.721   0.178   2.866  1.5339  0.6288 -0.0151
    3OL     C15 9340   4.634   0.373   2.909  0.0419 -0.2136  0.1590
    3OL     H5R 9341   4.531   0.336   2.909 -0.4376  1.0524 -0.1805
    3OL     H5S 9342   4.631   0.471   2.859  2.1298 -1.0398 -1.7506
    3OL     C16 9343   4.677   0.376   3.056  0.0388  0.0049  0.1564
    3OL     H6R 9344   4.784   0.394   3.067  0.3811 -0.2330 -2.3135
    3OL     H6S 9345   4.654   0.275   3.089 -1.8768  0.1202 -0.7294
    3OL     C17 9346   4.585   0.471   3.134  0.3074  0.2524  0.1740
    3OL     H7R 9347   4.482   0.444   3.109  1.0664 -2.1897 -0.6073
    3OL     H7S 9348   4.612   0.573   3.108  1.2764 -0.3315 -1.2501
    3OL     C18 9349   4.607   0.466   3.286  0.2347 -0.6878  0.1605
    3OL     H8R 9350   4.704   0.509   3.310 -0.6491  1.6974 -0.3029
    3OL     H8S 9351   4.614   0.362   3.320 -1.1879 -0.4405  1.2994
    3OL     C19 9352   4.484   0.526   3.349  0.4549 -0.0360 -0.0181
    3OL     H9R 9353   4.396   0.469   3.319  0.8982 -2.1460  2.2799
    3OL    C110 9354   4.475   0.623   3.439 -0.0499  0.4228 -0.5570
    3OL    H10R 9355   4.376   0.651   3.472 -0.2713 -3.5530  3.0340
    3OL    C111 9356   4.592   0.695   3.500 -0.2835  0.0686  0.3258
    3OL    H11R 9357   4.582   0.804   3.496  2.1069  0.3330 -0.8505
    3OL    H11S 9358   4.678   0.689   3.432  0.9161 -1.8610  1.8787
    3OL    C112 9359   4.623   0.661   3.646 -0.0800 -0.2422  0.2117
    3OL    H12R 9360   4.699   0.720   3.698 -0.0981 -0.1517  0.1349
    3OL    H12S 9361   4.660   0.559   3.635 -2.3642 -1.0486 -0.6650
    3OL    C113 9362   4.490   0.657   3.724 -0.2686 -0.1164 -0.1051
    3OL    H13R 9363   4.425   0.581   3.680  0.9525 -0.5821 -1.1955
    3OL    H13S 9364   4.432   0.749   3.720 -0.2115 -0.1004 -2.8255
    3OL    C114 9365   4.520   0.621   3.870 -0.1478  0.3678 -0.0092
    3OL    H14R 9366   4.591   0.685   3.923 -0.5129  1.2072 -0.5022
    3OL    H14S 9367   4.572   0.525   3.878  1.4347  1.3087  1.7412
    3OL    C115 9368   4.390   0.615   3.951 -0.0984  0.1453  0.0538
    3OL    H15R 9369   4.416   0.555   4.038  0.7238  0.4031 -0.0026
    3OL    H15S 9370   4.312   0.569   3.889  0.1149 -1.1414  0.7098
    3OL    C116 9371   4.349   0.754   4.001 -0.0378  0.2277 -0.1215
    3OL    H16R 9372   4.299   0.801   3.916 -1.3971  2.7622  1.9344
    3OL    H16S 9373   4.432   0.817   4.035 -0.9697  0.7078  1.4074
    3OL    C117 9374   4.245   0.733   4.112 -0.2512  0.3310 -0.3018
    3OL    H17R 9375   4.284   0.665   4.188 -1.7890 -1.0314 -0.6703
    3OL    H17S 9376   4.156   0.686   4.070  0.3520  0.0761 -1.3041
    3OL    C118 9377   4.200   0.858   4.190  0.2418  0.3168  0.0072
    3OL    H18R 9378   4.150   0.927   4.122 -1.2382 -0.3200  0.4211
    3OL    H18S 9379   4.286   0.899   4.244 -0.4576 -1.4867  2.7221
    3OL    H18T 9380   4.124   0.832   4.263  0.9389 -1.2382  0.2279
    1PA    C116 9381   1.193   0.825   3.902  0.9245  0.4515  0.1516
    1PA    H16R 9382   1.118   0.891   3.946  1.4400  1.9708 -1.1462
    1PA    H16S 9383   1.292   0.849   3.941  1.9112 -0.8084 -1.4324
    1PA    H16T 9384   1.185   0.720   3.930  1.1548 -0.0456 -1.5383
    1PA    C115 9385   1.215   0.835   3.750 -0.1947 -0.3353 -0.0740
    1PA    H15R 9386   1.317   0.803   3.731 -0.6166 -0.9446 -1.3512
    1PA    H15S 9387   1.147   0.764   3.703 -0.9257  0.8946 -0.9616
    1PA    C114 9388   1.208   0.981   3.701  0.5974 -0.3698 -0.2882
    1PA    H14R 9389   1.138   1.045   3.754  1.6660 -0.1496  0.9015
    1PA    H14S 9390   1.305   1.028   3.722 -0.2670  0.7470  1.3869
    1PA    C113 9391   1.188   0.982   3.549 -0.5369 -0.2493 -0.1445
    1PA    H13R 9392   1.125   0.895   3.530 -1.4591  0.7812 -2.1593
    1PA    H13S 9393   1.118   1.059   3.515 -0.0772  0.2101 -0.0604
    1PA    C112 9394   1.316   0.979   3.463 -0.4033 -0.0887  0.0480
    1PA    H12R 9395   1.368   1.074   3.473 -0.1549  0.4198 -4.2293
    1PA    H12S 9396   1.374   0.889   3.484 -2.8245 -1.8596 -0.4353
    1PA    C111 9397   1.279   0.969   3.315  0.1479 -0.2690 -0.0799
    1PA    H11R 9398   1.358   0.912   3.266 -0.0771 -1.0361  0.4279
    1PA    H11S 9399   1.187   0.911   3.309  0.3364 -0.4379 -1.9310
    1PA    C110 9400   1.264   1.107   3.250 -0.1098 -0.1601  0.2082
    1PA    H10R 9401   1.192   1.169   3.303 -2.3886 -0.1464 -2.6293
    1PA    H10S 9402   1.359   1.159   3.240 -0.6554  1.0642  1.1473
    1PA     C19 9403   1.214   1.093   3.105  0.2303  0.1039  0.0636
    1PA     H9R 9404   1.111   1.057   3.104  0.4511 -0.5439 -0.8979
    1PA     H9S 9405   1.211   1.189   3.054  0.5716  0.2815  0.3784
    1PA     C18 9406   1.294   1.007   3.006 -0.0960 -0.1006 -0.0264
    1PA     H8R 9407   1.281   0.901   3.027  2.2700 -0.5441 -0.4627
    1PA     H8S 9408   1.263   1.015   2.902  0.2361  1.8835 -0.0195
    1PA     C17 9409   1.442   1.049   3.013  0.1054 -0.8514  0.2596
    1PA     H7R 9410   1.439   1.153   2.979  1.2294 -1.6832 -2.7867
    1PA     H7S 9411   1.484   1.033   3.112  3.0925 -2.6302 -1.1432
    1PA     C16 9412   1.524   0.964   2.914  0.5883 -0.0904 -0.0016
    1PA     H6R 9413   1.630   0.986   2.909  0.2876  1.2405 -1.0054
    1PA     H6S 9414   1.515   0.859   2.944  0.5878 -0.5189 -1.4255
    1PA     C15 9415   1.487   0.982   2.766  0.4943 -0.2235  0.0053
    1PA     H5R 9416   1.539   0.921   2.693 -0.9523 -0.1988 -1.0871
    1PA     H5S 9417   1.382   0.953   2.755  0.3355 -0.7438  2.3631
    1PA     C14 9418   1.501   1.122   2.704 -0.1731 -0.1609 -0.0132
    1PA     H4R 9419   1.438   1.188   2.764 -0.9811 -1.4891  0.6481
    1PA     H4S 9420   1.607   1.148   2.699 -0.0203 -0.8500 -0.6246
    1PA     C13 9421   1.434   1.114   2.566  0.1813 -0.0124 -0.1946
    1PA     H3R 9422   1.488   1.041   2.505 -2.1770 -0.2021 -2.2111
    1PA     H3S 9423   1.333   1.073   2.571  0.4276 -0.8439 -1.4472
    1PA     C12 9424   1.432   1.245   2.486  0.1959 -0.0889 -0.3212
    1PA     H2R 9425   1.396   1.331   2.544  4.3537  0.7942  1.3264
    1PA     H2S 9426   1.535   1.265   2.456  0.6694  0.9701  1.7797
    2PC     C11 9427   1.341   1.223   2.368 -0.2690 -0.2020  0.0537
    2PC     O12 9428   1.390   1.164   2.274  0.0095  0.3295 -0.1420
    2PC     O11 9429   1.213   1.265   2.371 -0.3789 -0.5459  0.1848
    2PC      C1 9430   1.134   1.254   2.252 -0.5891  0.0184  0.2729
    2PC      HR 9431   1.050   1.325   2.248 -0.2426  0.3907 -1.0727
    2PC      HS 9432   1.198   1.274   2.165  0.5984  1.0058  1.3418
    2PC      C2 9433   1.077   1.114   2.227  0.4231 -0.4292  0.4275
    2PC      HX 9434   1.151   1.036   2.248  0.0059 -0.6234  1.2261
    2PC      C3 9435   1.029   1.100   2.082  0.3176  0.1608  0.4036
    2PC      HA 9436   1.112   1.099   2.011 -1.1229 -2.1914 -1.3891
    2PC      HB 9437   0.980   1.003   2.074 -0.9878  0.5084  3.0322
    2PC     O31 9438   0.933   1.205   2.059  0.2380 -0.0887 -0.4103
    2PC     P31 9439   0.862   1.236   1.918 -0.3558 -0.2427 -0.1476
    2PC     O32 9440   0.780   1.365   1.968  0.5817  0.3198 -0.0273
    2PC     C31 9441   0.651   1.391   1.910  0.8843  0.2101 -0.7571
    2PC     H1A 9442   0.650   1.351   1.808 -0.6478 -1.0198 -0.2984
    2PC     H1B 9443   0.574   1.342   1.970  0.7164  1.5028  0.1090
    2PC     C32 9444   0.620   1.541   1.908  0.3229  0.1077 -0.0249
    2PC     H2A 9445   0.530   1.553   1.847  0.2714 -0.5733 -0.0872
    2PC     H2B 9446   0.594   1.571   2.009  1.3313 -0.5227  0.4349
    2PC     N31 9447   0.731   1.634   1.869  0.2783  0.1473 -0.0586
    2PC     C33 9448   0.794   1.587   1.742  0.2998  0.2551 -0.0881
    2PC     H3A 9449   0.847   1.669   1.695 -0.4044  3.6425  4.3932
    2PC     H3B 9450   0.841   1.488   1.749 -1.1648 -0.6256 -1.6974
    2PC     H3C 9451   0.715   1.556   1.672  0.2566 -0.2726  0.1848
    2PC     C34 9452   0.674   1.770   1.843 -0.6083 -0.1195  0.4299
    2PC     H4A 9453   0.751   1.847   1.834 -0.5143 -0.2319  0.2738
    2PC     H4B 9454   0.634   1.762   1.742 -1.9993  0.8560  0.8746
    2PC     H4C 9455   0.594   1.789   1.915 -0.6568 -1.1143  0.6495
    2PC     C35 9456   0.833   1.647   1.978 -0.5054  0.8032  0.6106
    2PC     H5A 9457   0.906   1.566   1.970 -0.0867  1.3668 -2.0499
    2PC     H5B 9458   0.786   1.665   2.075  0.9109 -0.9101  1.6761
    2PC     H5C 9459   0.886   1.737   1.949 -0.9476  1.6943  2.4052
    2PC     O33 9460   0.968   1.258   1.817 -0.5320 -0.6136 -0.4130
    2PC     O34 9461   0.786   1.119   1.870 -0.0949 -0.4291 -0.1126
    2PC     O21 9462   0.971   1.105   2.325 -0.0312  0.1579 -0.0077
    2PC     C21 9463   1.001   1.047   2.442  0.4301  0.3375 -0.0331
    2PC     O22 9464   1.108   0.996   2.467  0.1944 -0.2172 -0.1473
    3OL     C12 9465   0.886   1.047   2.540  0.1265 -0.0013 -0.3877
    3OL     H2R 9466   0.862   0.941   2.555  1.4636  0.0332  2.6737
    3OL     H2S 9467   0.800   1.103   2.502 -0.6785  1.8548  3.6584
    3OL     C13 9468   0.936   1.103   2.674  0.2035 -0.2683 -0.3037
    3OL     H3R 9469   1.036   1.066   2.699  1.6647  2.4227 -1.6409
    3OL     H3S 9470   0.871   1.070   2.755 -0.0635  1.5762  0.2784
    3OL     C14 9471   0.936   1.256   2.679  0.1906 -0.2959  0.6531
    3OL     H4R 9472   0.834   1.294   2.668  0.1515 -0.2614  1.0976
    3OL     H4S 9473   0.988   1.299   2.593  0.1259  0.2501  0.8784
    3OL     C15 9474   1.005   1.311   2.805  0.3076 -0.2135  0.5545
    3OL     H5R 9475   1.110   1.289   2.785  0.0709  0.8735 -2.2981
    3OL     H5S 9476   0.970   1.256   2.893 -0.1526  1.1401  1.2491
    3OL     C16 9477   0.978   1.460   2.826  0.6894 -0.0488 -0.1160
    3OL     H6R 9478   0.871   1.480   2.823  0.5248 -0.3581  2.0984
    3OL     H6S 9479   1.032   1.504   2.741  1.6950 -2.6177 -0.9062
    3OL     C17 9480   1.033   1.509   2.961 -0.0426  0.1100  0.1283
    3OL     H7R 9481   1.001   1.441   3.040 -0.2341  1.8355  1.5904
    3OL     H7S 9482   0.995   1.608   2.986 -0.1261 -0.1524  1.0667
    3OL     C18 9483   1.186   1.506   2.962 -0.0421 -0.2278 -0.3939
    3OL     H8R 9484   1.220   1.587   2.898 -0.6820  0.9472  0.7084
    3OL     H8S 9485   1.213   1.410   2.918 -1.9563 -0.7779 -0.4389
    3OL     C19 9486   1.250   1.532   3.097 -0.0897 -0.2266 -0.3716
    3OL     H9R 9487   1.229   1.460   3.175  0.1078 -0.2178 -0.3106
    3OL    C110 9488   1.333   1.631   3.126 -0.4959  0.1702 -0.5467
    3OL    H10R 9489   1.374   1.631   3.227  0.3154 -0.3918 -0.8663
    3OL    C111 9490   1.391   1.740   3.039  1.0780  0.1578  0.4439
    3OL    H11R 9491   1.333   1.744   2.947  3.1666 -0.0794 -0.9456
    3OL    H11S 9492   1.488   1.726   2.992  0.7655 -0.4056 -0.0404
    3OL    C112 9493   1.382   1.871   3.119  0.5257  0.4967 -0.1654
    3OL    H12R 9494   1.417   1.851   3.220  1.5108  0.0077 -0.5877
    3OL    H12S 9495   1.279   1.905   3.125  0.4928  1.2378 -3.2631
    3OL    C113 9496   1.481   1.978   3.069  0.4935  0.3106 -0.6364
    3OL    H13R 9497   1.582   1.938   3.067  0.6577  0.7461 -1.0449
    3OL    H13S 9498   1.486   2.050   3.151 -0.4000 -0.3723  0.0437
    3OL    C114 9499   1.450   2.057   2.941  0.1167  0.9650 -0.1507
    3OL    H14R 9500   1.448   1.994   2.852 -2.9306  1.1405 -0.2927
    3OL    H14S 9501   1.531   2.129   2.926  0.2022  1.1983  1.2667
    3OL    C115 9502   1.321   2.139   2.950 -0.1692  0.5159 -0.1292
    3OL    H15R 9503   1.310   2.175   3.052 -0.4747 -0.9224  0.3750
    3OL    H15S 9504   1.237   2.074   2.925  3.3111 -3.0787 -4.1930
    3OL    C116 9505   1.326   2.247   2.842  0.0332  0.3063 -0.3305
    3OL    H16R 9506   1.352   2.209   2.743 -3.2200  2.9600 -2.4744
    3OL    H16S 9507   1.395   2.328   2.868  0.2540 -0.5408  1.8719
    3OL    C117 9508   1.187   2.309   2.816 -0.2622 -0.4373 -0.5385
    3OL    H17R 9509   1.107   2.236   2.804 -0.9708 -0.0085  1.3098
    3OL    H17S 9510   1.198   2.373   2.729  1.2916  0.7701  0.4887
    3OL    C118 9511   1.153   2.411   2.925  0.3431 -0.4998 -0.2881
    3OL    H18R 9512   1.063   2.459   2.887 -0.3687 -1.4587  0.1299
    3OL    H18S 9513   1.238   2.470   2.961  1.0237 -2.2760  1.2024
    3OL    H18T 9514   1.122   2.359   3.016  0.0730  0.0834 -0.0430
    1PA    C116 9515   2.338   0.675   3.752 -0.7154 -0.4554 -0.6700
    1PA    H16R 9516   2.393   0.677   3.846 -0.6465  0.9212 -0.7174
    1PA    H16S 9517   2.352   0.574   3.711 -1.1359 -0.7506 -0.0867
    1PA    H16T 9518   2.234   0.698   3.774 -0.3602  2.2986 -1.5216
    1PA    C115 9519   2.390   0.775   3.648 -0.9892  0.1341 -0.2437
    1PA    H15R 9520   2.365   0.873   3.689 -1.1593 -0.5966  1.4817
    1PA    H15S 9521   2.498   0.763   3.635 -1.1251 -1.1134 -0.2851
    1PA    C114 9522   2.313   0.773   3.515 -0.4132  0.6044 -0.5910
    1PA    H14R 9523   2.209   0.794   3.538 -0.3255  0.2478  0.1426
    1PA    H14S 9524   2.350   0.858   3.457 -0.5289  0.1947 -1.2790
    1PA    C113 9525   2.326   0.645   3.430 -0.1322  0.1752  0.0876
    1PA    H13R 9526   2.430   0.612   3.422 -0.0760  0.3119  0.2417
    1PA    H13S 9527   2.268   0.568   3.480  0.6234  0.5507  1.5999
    1PA    C112 9528   2.273   0.679   3.290 -0.5737  0.3090  0.2854
    1PA    H12R 9529   2.192   0.752   3.295 -2.1578 -1.2977 -0.7228
    1PA    H12S 9530   2.352   0.725   3.230 -0.6757 -0.3381 -0.3616
    1PA    C111 9531   2.216   0.554   3.221  0.4897  0.0227 -0.1033
    1PA    H11R 9532   2.278   0.467   3.242 -0.2864 -0.1338  1.7546
    1PA    H11S 9533   2.110   0.535   3.241  0.8533 -2.2449 -0.0330
    1PA    C110 9534   2.198   0.571   3.070  0.1223  0.0674 -0.0555
    1PA    H10R 9535   2.126   0.652   3.054 -0.1276  0.1054  1.1471
    1PA    H10S 9536   2.293   0.608   3.032  1.2820 -1.2641  1.4608
    1PA     C19 9537   2.140   0.444   3.006 -0.1170  0.1768 -0.0604
    1PA     H9R 9538   2.065   0.399   3.071 -2.1514  0.8740 -1.8022
    1PA     H9S 9539   2.089   0.475   2.914 -0.4796 -1.1457 -0.3184
    1PA     C18 9540   2.266   0.358   2.985 -0.2512 -0.0793  0.1786
    1PA     H8R 9541   2.335   0.406   2.915 -0.9852  0.1643 -0.3910
    1PA     H8S 9542   2.311   0.325   3.079 -0.4656 -0.6904  0.0687
    1PA     C17 9543   2.223   0.223   2.926  0.3934 -0.1519 -0.1318
    1PA     H7R 9544   2.170   0.159   2.997  0.2321  0.1060 -0.0194
    1PA     H7S 9545   2.150   0.239   2.847 -1.9123  1.2911  2.1311
    1PA     C16 9546   2.346   0.140   2.888  0.4731 -0.0789 -0.0375
    1PA     H6R 9547   2.429   0.155   2.957 -1.1166  1.2801  1.6793
    1PA     H6S 9548   2.314   0.037   2.907  1.7258 -0.4222  0.2993
    1PA     C15 9549   2.394   0.164   2.744  0.3345 -0.4014 -0.1406
    1PA     H5R 9550   2.317   0.136   2.672  1.0352 -1.6455 -0.4322
    1PA     H5S 9551   2.417   0.271   2.734 -0.5930 -0.3822 -3.0659
    1PA     C14 9552   2.518   0.078   2.715  0.5808 -0.2740  0.5094
    1PA     H4R 9553   2.587   0.107   2.794  0.8193  3.9176 -0.9538
    1PA     H4S 9554   2.483  -0.024   2.727 -0.6483  0.2768  1.8984
    1PA     C13 9555   2.568   0.092   2.570 -0.1716 -0.0135  0.2694
    1PA     H3R 9556   2.493   0.071   2.494  0.2813 -0.4381 -0.0605
    1PA     H3S 9557   2.610   0.192   2.554  1.7299 -1.1541 -2.7762
    1PA     C12 9558   2.688   0.005   2.530  0.3154  0.4511  0.6964
    1PA     H2R 9559   2.769   0.021   2.601 -2.4608  1.7426  3.8542
    1PA     H2S 9560   2.663  -0.101   2.529  2.3406 -0.0717  0.3427
    2PC     C11 9561   2.710   0.038   2.384 -0.1710  0.0343  0.5275
    2PC     O12 9562   2.650  -0.013   2.292 -0.2327 -0.0350  0.6055
    2PC     O11 9563   2.819   0.114   2.369 -0.0789 -0.2589 -0.3630
    2PC      C1 9564   2.859   0.163   2.240  0.1121 -0.1796 -0.2741
    2PC      HR 9565   2.959   0.207   2.240  0.2463 -0.4234  1.4755
    2PC      HS 9566   2.858   0.077   2.174  0.7514 -0.4057  0.0037
    2PC      C2 9567   2.752   0.268   2.208  0.2377  0.1074  0.2313
    2PC      HX 9568   2.651   0.226   2.204  0.4339 -0.2887 -1.3575
    2PC      C3 9569   2.777   0.326   2.068 -0.3427 -0.3677 -0.0726
    2PC      HA 9570   2.866   0.388   2.069 -1.2041  0.9059  0.3049
    2PC      HB 9571   2.796   0.239   2.004  0.7925 -0.4666  0.3822
    2PC     O31 9572   2.660   0.402   2.033  0.1851  0.4328 -0.1299
    2PC     P31 9573   2.669   0.474   1.890  0.3709  0.2293 -0.2215
    2PC     O32 9574   2.555   0.585   1.913  0.0390 -0.0432 -0.5399
    2PC     C31 9575   2.589   0.705   1.985 -0.5451 -0.0446 -0.2515
    2PC     H1A 9576   2.626   0.679   2.084 -0.6348  1.6013  0.2271
    2PC     H1B 9577   2.656   0.755   1.914 -1.1361 -1.2852 -1.7523
    2PC     C32 9578   2.458   0.779   2.010 -0.3472  0.0744  0.4513
    2PC     H2A 9579   2.385   0.705   2.043  0.5269 -1.6130 -1.2000
    2PC     H2B 9580   2.472   0.864   2.077 -0.3899  0.4879 -0.0612
    2PC     N31 9581   2.394   0.853   1.896  0.3047  0.3066  0.2318
    2PC     C33 9582   2.273   0.920   1.955 -0.2506 -0.1041 -0.4278
    2PC     H3A 9583   2.206   0.849   2.004 -1.4214  1.3414  0.1207
    2PC     H3B 9584   2.297   1.002   2.022  0.9093 -0.6336 -0.1631
    2PC     H3C 9585   2.220   0.968   1.873 -1.4644  1.2125  1.0722
    2PC     C34 9586   2.498   0.948   1.844  0.4113 -0.0405 -0.1958
    2PC     H4A 9587   2.458   1.007   1.762 -1.5058 -0.9168  0.0483
    2PC     H4B 9588   2.516   1.008   1.933  0.4745 -0.9126  0.4005
    2PC     H4C 9589   2.582   0.884   1.816 -1.7863 -2.0766 -2.7430
    2PC     C35 9590   2.352   0.756   1.789  0.7742 -0.1049  0.4174
    2PC     H5A 9591   2.267   0.694   1.816 -1.1864  0.8667 -2.9481
    2PC     H5B 9592   2.436   0.690   1.767  2.3363  1.2142  2.0142
    2PC     H5C 9593   2.316   0.813   1.704 -0.9299 -0.9884  0.4949
    2PC     O33 9594   2.790   0.550   1.853 -0.1076  0.8455 -0.5465
    2PC     O34 9595   2.658   0.392   1.767 -0.2183 -0.4006  0.2410
    2PC     O21 9596   2.758   0.374   2.305 -0.1119  0.1195  0.2435
    2PC     C21 9597   2.647   0.421   2.363 -0.0536  0.0767  0.3888
    2PC     O22 9598   2.535   0.375   2.353 -0.1816  0.3066  0.7591
    3OL     C12 9599   2.675   0.558   2.417  0.1770  0.1174  0.1646
    3OL     H2R 9600   2.591   0.589   2.479 -0.5007 -1.3452 -0.0045
    3OL     H2S 9601   2.678   0.627   2.333 -0.9254 -1.6908 -1.4178
    3OL     C13 9602   2.794   0.562   2.514  0.1547 -0.1197  0.2002
    3OL     H3R 9603   2.789   0.665   2.548  0.0784 -0.3649  0.9656
    3OL     H3S 9604   2.892   0.541   2.471  0.6939 -0.1673  1.3889
    3OL     C14 9605   2.764   0.457   2.623 -0.1653  0.1184  0.3432
    3OL     H4R 9606   2.755   0.357   2.579  0.6442  0.5499 -0.8553
    3OL     H4S 9607   2.671   0.476   2.676 -0.8182 -2.5116  0.2982
    3OL     C15 9608   2.880   0.460   2.723  0.3590  0.5898 -0.2667
    3OL     H5R 9609   2.890   0.560   2.767 -0.9593 -0.2788  2.2455
    3OL     H5S 9610   2.967   0.430   2.665  1.2748  0.5518  1.0813
    3OL     C16 9611   2.863   0.371   2.847  0.0126  1.0716  0.0409
    3OL     H6R 9612   2.965   0.360   2.884 -0.0748 -1.2931 -0.2696
    3OL     H6S 9613   2.834   0.274   2.806  0.4504  0.4164  1.2401
    3OL     C17 9614   2.757   0.416   2.948 -0.9915 -0.3855 -0.3310
    3OL     H7R 9615   2.664   0.442   2.897 -0.4338  1.0097 -0.6964
    3OL     H7S 9616   2.797   0.503   3.000 -0.4343 -1.4285  1.0616
    3OL     C18 9617   2.733   0.312   3.058 -0.3916 -0.2062 -0.0283
    3OL     H8R 9618   2.822   0.315   3.122  1.9379  1.1531 -3.0892
    3OL     H8S 9619   2.729   0.210   3.019 -2.3317 -0.2829  0.3048
    3OL     C19 9620   2.609   0.347   3.137 -0.1837 -0.2294  0.3118
    3OL     H9R 9621   2.512   0.321   3.096 -0.9943  1.2909  1.1888
    3OL    C110 9622   2.616   0.401   3.258  0.2084 -0.2001  0.2782
    3OL    H10R 9623   2.523   0.424   3.309 -0.3747 -0.5736 -0.6008
    3OL    C111 9624   2.737   0.446   3.336  0.5101  0.1811 -0.3934
    3OL    H11R 9625   2.737   0.550   3.370 -0.5561 -0.1680  0.7793
    3OL    H11S 9626   2.826   0.434   3.275  1.0125  0.3020  0.3006
    3OL    C112 9627   2.757   0.366   3.466  0.3518  0.3587 -0.2584
    3OL    H12R 9628   2.857   0.386   3.506 -0.7431  0.0583  2.8393
    3OL    H12S 9629   2.744   0.260   3.444 -0.9813  0.2721  0.8546
    3OL    C113 9630   2.660   0.401   3.579  0.3695  0.1070 -0.1653
    3OL    H13R 9631   2.558   0.393   3.542  0.5865 -0.2647 -0.6902
    3OL    H13S 9632   2.690   0.506   3.583 -1.6657  0.8373 -2.2587
    3OL    C114 9633   2.699   0.304   3.691  0.4051  0.3565  0.0410
    3OL    H14R 9634   2.797   0.334   3.730 -0.0903  0.9913  0.8278
    3OL    H14S 9635   2.694   0.205   3.645  1.2679  0.3048  0.0411
    3OL    C115 9636   2.619   0.308   3.822  0.3056 -0.0431 -0.0066
    3OL    H15R 9637   2.513   0.284   3.809  0.6311 -0.5511 -2.3443
    3OL    H15S 9638   2.628   0.404   3.872 -1.6522 -0.6465  1.6532
    3OL    C116 9639   2.685   0.203   3.913  0.6502  0.4244  0.2840
    3OL    H16R 9640   2.789   0.226   3.936  0.5552 -0.1066  1.2674
    3OL    H16S 9641   2.672   0.110   3.856  0.4553 -0.2725  1.4451
    3OL    C117 9642   2.617   0.179   4.048 -0.5203 -1.1536 -0.5530
    3OL    H17R 9643   2.686   0.128   4.116 -0.6803 -0.9006 -0.2000
    3OL    H17S 9644   2.533   0.113   4.025  0.0706 -1.5224 -1.7648
    3OL    C118 9645   2.584   0.306   4.127 -0.1355 -0.5580 -1.3339
    3OL    H18R 9646   2.674   0.366   4.140 -0.8428  0.1975  0.4607
    3OL    H18S 9647   2.543   0.285   4.226 -0.3811  0.4303 -1.2143
    3OL    H18T 9648   2.507   0.372   4.086 -0.3710  3.6324  4.5053
    1PA    C116 9649   0.471   4.101   3.492  0.3843 -0.0121 -0.7312
    1PA    H16R 9650   0.518   4.031   3.562  1.5343  0.4802 -0.9750
    1PA    H16S 9651   0.503   4.067   3.393 -0.0243  0.6986 -1.1169
    1PA    H16T 9652   0.365   4.087   3.512  0.3669  2.4779  1.4692
    1PA    C115 9653   0.511   4.245   3.529  0.4981 -0.1248 -0.4154
    1PA    H15R 9654   0.494   4.250   3.637 -1.9977 -0.2703 -0.7405
    1PA    H15S 9655   0.620   4.255   3.527  0.6322 -1.3070 -0.0711
    1PA    C114 9656   0.431   4.351   3.452  0.3397  0.5072  0.5994
    1PA    H14R 9657   0.323   4.335   3.460  0.0145  2.3133  0.2416
    1PA    H14S 9658   0.453   4.444   3.505 -1.0818  1.0091  0.3522
    1PA    C113 9659   0.459   4.367   3.302  0.6526 -0.4902  0.5427
    1PA    H13R 9660   0.430   4.275   3.250 -0.1872  0.6185 -1.0343
    1PA    H13S 9661   0.392   4.446   3.268 -2.4689 -2.5547  1.5322
    1PA    C112 9662   0.609   4.387   3.277  0.5199 -0.3133 -0.1474
    1PA    H12R 9663   0.637   4.477   3.333 -1.3184 -1.1873  2.3352
    1PA    H12S 9664   0.671   4.311   3.326  0.6554 -1.7340 -2.4064
    1PA    C111 9665   0.655   4.402   3.132  0.9104 -0.3301 -0.0277
    1PA    H11R 9666   0.762   4.426   3.136  0.9996  0.0963 -2.7011
    1PA    H11S 9667   0.643   4.308   3.077  2.3035 -0.1818 -0.6462
    1PA    C110 9668   0.572   4.512   3.064 -0.2149 -1.1497 -0.0090
    1PA    H10R 9669   0.464   4.495   3.071 -0.9982  2.3630 -1.6034
    1PA    H10S 9670   0.586   4.610   3.111  2.6537 -1.6585  0.4190
    1PA     C19 9671   0.621   4.526   2.920 -0.0289  0.2069  0.1681
    1PA     H9R 9672   0.712   4.586   2.920  0.3385 -0.3492  0.0944
    1PA     H9S 9673   0.653   4.433   2.873 -1.9917  0.8656 -2.7958
    1PA     C18 9674   0.508   4.590   2.837 -0.2046 -0.2585  0.0438
    1PA     H8R 9675   0.429   4.516   2.825 -1.0791  0.6530  0.0644
    1PA     H8S 9676   0.455   4.667   2.894 -0.8073  0.4290 -1.4172
    1PA     C17 9677   0.569   4.631   2.703 -0.4745  0.2548  0.0751
    1PA     H7R 9678   0.615   4.730   2.707  0.7941 -0.3447  0.9304
    1PA     H7S 9679   0.649   4.560   2.681 -2.7156 -1.3573 -3.9463
    1PA     C16 9680   0.462   4.625   2.593 -0.5564  0.3709  0.1489
    1PA     H6R 9681   0.412   4.529   2.595 -1.1267  0.4752 -3.2660
    1PA     H6S 9682   0.379   4.694   2.606  0.0065  0.8780  1.1482
    1PA     C15 9683   0.498   4.646   2.445 -1.1617 -0.2814 -0.0970
    1PA     H5R 9684   0.403   4.666   2.396 -1.0058 -0.8943 -0.6605
    1PA     H5S 9685   0.556   4.739   2.438 -1.2935 -0.2276 -0.4933
    1PA     C14 9686   0.574   4.535   2.372 -0.5504  0.2022 -0.2118
    1PA     H4R 9687   0.608   4.561   2.272 -1.1869  1.9683 -0.0080
    1PA     H4S 9688   0.659   4.503   2.433 -0.0308  0.7189 -0.6547
    1PA     C13 9689   0.474   4.420   2.346  0.0049 -0.2405 -0.4159
    1PA     H3R 9690   0.399   4.421   2.426  2.3626  0.5026  1.9574
    1PA     H3S 9691   0.425   4.457   2.256  1.4007  2.3631 -0.2255
    1PA     C12 9692   0.550   4.291   2.313  0.0905 -0.2263 -0.2770
    1PA     H2R 9693   0.617   4.320   2.232  0.3393 -0.8732 -0.3095
    1PA     H2S 9694   0.604   4.250   2.399 -2.5654 -0.8179  1.1980
    2PC     C11 9695   0.445   4.191   2.271 -0.3325  0.1230 -0.0569
    2PC     O12 9696   0.427   4.148   2.159  0.2728  0.0904 -0.1464
    2PC     O11 9697   0.374   4.151   2.377 -0.3626  0.4095  0.0339
    2PC      C1 9698   0.282   4.042   2.355  0.0234  0.1004 -0.0548
    2PC      HR 9699   0.214   4.035   2.440  0.3629  2.0452  0.4139
    2PC      HS 9700   0.224   4.066   2.266 -0.3733 -0.7325 -0.0303
    2PC      C2 9701   0.356   3.908   2.341  0.0044  0.1033 -0.1855
    2PC      HX 9702   0.439   3.911   2.270 -0.6209  0.6563 -0.9161
    2PC      C3 9703   0.254   3.813   2.276 -0.1154  0.3300 -0.3304
    2PC      HA 9704   0.168   3.795   2.342  0.1496  3.5053  1.0925
    2PC      HB 9705   0.218   3.872   2.191 -1.3149  1.0778  0.6493
    2PC     O31 9706   0.300   3.689   2.221  0.0675  0.3108 -0.1363
    2PC     P31 9707   0.404   3.682   2.099  0.0456 -0.0318 -0.1368
    2PC     O32 9708   0.546   3.698   2.171  0.0168 -0.2818 -0.0213
    2PC     C31 9709   0.657   3.641   2.099  0.1651 -0.2092  0.1505
    2PC     H1A 9710   0.641   3.533   2.089 -0.7108 -0.1701  0.9538
    2PC     H1B 9711   0.663   3.686   2.000 -0.1794 -0.6981 -0.0950
    2PC     C32 9712   0.792   3.664   2.168  0.1069 -0.1462  0.2451
    2PC     H2A 9713   0.785   3.638   2.274  0.9423  2.2222  0.9324
    2PC     H2B 9714   0.873   3.602   2.128 -0.5152  0.4244 -2.0532
    2PC     N31 9715   0.863   3.794   2.147 -0.4200 -0.0334 -0.8632
    2PC     C33 9716   1.003   3.786   2.198 -0.6835 -1.0735 -0.2885
    2PC     H3A 9717   1.049   3.702   2.146  0.3312  0.3377 -1.7620
    2PC     H3B 9718   1.060   3.879   2.190  1.3079 -2.1898  0.2657
    2PC     H3C 9719   0.993   3.775   2.306  0.0563  1.0325  0.0302
    2PC     C34 9720   0.871   3.823   2.000  0.1243  0.4144 -0.7483
    2PC     H4A 9721   0.938   3.908   1.992  0.6828  0.0719  0.2235
    2PC     H4B 9722   0.909   3.740   1.940 -0.7556  0.5528 -1.5366
    2PC     H4C 9723   0.770   3.843   1.963 -1.1374 -1.6517  1.2991
    2PC     C35 9724   0.801   3.914   2.213  0.7088 -0.1983  0.5184
    2PC     H5A 9725   0.840   4.011   2.183  0.4653 -0.9585 -2.5877
    2PC     H5B 9726   0.790   3.907   2.321  0.0177  2.4979  0.6978
    2PC     H5C 9727   0.697   3.926   2.185  1.3575 -0.6457 -2.4249
    2PC     O33 9728   0.389   3.556   2.022  0.1648  0.3839 -0.8392
    2PC     O34 9729   0.393   3.776   1.985 -0.6158  0.4052  0.2763
    2PC     O21 9730   0.391   3.860   2.472 -0.1511  0.5781  0.0317
    2PC     C21 9731   0.520   3.855   2.510 -0.2954  0.4904  0.5096
    2PC     O22 9732   0.611   3.906   2.448 -0.2693 -0.1285  0.0287
    3OL     C12 9733   0.539   3.789   2.645  0.0106 -0.2598  0.1088
    3OL     H2R 9734   0.461   3.822   2.714  0.4348 -1.6388  1.2933
    3OL     H2S 9735   0.636   3.815   2.688  0.2558 -0.1222 -0.5116
    3OL     C13 9736   0.534   3.636   2.633  0.5116 -0.2365 -0.4539
    3OL     H3R 9737   0.578   3.610   2.537 -1.4399  0.2474 -1.5548
    3OL     H3S 9738   0.433   3.596   2.623  0.8018 -0.4769 -2.9655
    3OL     C14 9739   0.614   3.553   2.734 -0.2194  0.0931  0.4191
    3OL     H4R 9740   0.715   3.548   2.692 -0.7457  0.4805 -0.9546
    3OL     H4S 9741   0.574   3.451   2.728 -1.8475  0.7325 -0.0469
    3OL     C15 9742   0.603   3.602   2.879 -0.2255  0.3042  0.3477
    3OL     H5R 9743   0.498   3.617   2.907 -1.2291 -0.8498 -2.3910
    3OL     H5S 9744   0.645   3.702   2.888 -0.5968  0.4329  0.6525
    3OL     C16 9745   0.678   3.514   2.980  0.4365  0.1125 -0.2988
    3OL     H6R 9746   0.781   3.502   2.946  0.5892 -0.9253  0.4932
    3OL     H6S 9747   0.633   3.414   2.985  0.5757 -0.0762 -2.1201
    3OL     C17 9748   0.673   3.576   3.120  0.4549 -0.1979 -0.1605
    3OL     H7R 9749   0.704   3.680   3.123 -1.0265  0.2549  0.3465
    3OL     H7S 9750   0.760   3.545   3.178  2.4013  0.9395 -2.3194
    3OL     C18 9751   0.541   3.535   3.187  0.2484  0.0354 -0.4233
    3OL     H8R 9752   0.537   3.426   3.195  2.1994 -0.0260  0.1408
    3OL     H8S 9753   0.455   3.554   3.122 -0.2303  0.4182  0.2998
    3OL     C19 9754   0.527   3.603   3.321 -0.4010 -0.1156 -0.4075
    3OL     H9R 9755   0.603   3.578   3.395  1.4095  0.4402 -2.0043
    3OL    C110 9756   0.430   3.683   3.362 -0.1375  0.0857 -0.1695
    3OL    H10R 9757   0.439   3.726   3.462  0.8686 -0.8258  0.1580
    3OL    C111 9758   0.328   3.751   3.275  0.1193 -0.2096 -0.7027
    3OL    H11R 9759   0.332   3.708   3.174  2.2229  0.6341 -1.0161
    3OL    H11S 9760   0.354   3.857   3.271  2.4878 -0.7701 -2.0510
    3OL    C112 9761   0.188   3.737   3.337  0.2301  0.5159 -0.2839
    3OL    H12R 9762   0.194   3.763   3.443 -3.0866  0.9426 -0.1018
    3OL    H12S 9763   0.154   3.633   3.337  1.5518  0.0593  1.0184
    3OL    C113 9764   0.092   3.838   3.270 -0.1891 -0.2163 -0.8009
    3OL    H13R 9765   0.116   3.834   3.164 -0.3190  0.2027 -0.8428
    3OL    H13S 9766   0.116   3.938   3.305 -1.6973 -0.1277  0.0307
    3OL    C114 9767  -0.052   3.797   3.302 -0.0264 -0.1554  0.0495
    3OL    H14R 9768  -0.073   3.797   3.409  0.7255  0.4700  0.1975
    3OL    H14S 9769  -0.075   3.700   3.258 -1.3188  0.4153 -0.6162
    3OL    C115 9770  -0.144   3.898   3.231 -0.1548 -0.2922  0.0199
    3OL    H15R 9771  -0.128   3.889   3.124  3.2631 -2.9401  0.5743
    3OL    H15S 9772  -0.126   4.001   3.261  0.5271 -0.5349  0.4574
    3OL    C116 9773  -0.292   3.882   3.270 -0.4324  1.0357 -0.4215
    3OL    H16R 9774  -0.334   3.782   3.255  0.1907  0.5502  0.8565
    3OL    H16S 9775  -0.355   3.947   3.210 -0.8314  1.5086  0.4926
    3OL    C117 9776  -0.310   3.916   3.419 -0.0567 -0.4539 -0.0078
    3OL    H17R 9777  -0.257   4.009   3.442  1.3761 -1.0820 -0.6741
    3OL    H17S 9778  -0.277   3.830   3.477  1.8696 -0.5045 -1.0892
    3OL    C118 9779  -0.459   3.941   3.444  0.0115 -0.3623  0.3089
    3OL    H18R 9780  -0.470   3.957   3.552 -0.0543  0.3263  0.2059
    3OL    H18S 9781  -0.525   3.865   3.401 -1.1434  0.4978  0.5185
    3OL    H18T 9782  -0.485   4.037   3.398  0.4104  1.4138  3.4494
    1PA    C116 9783   0.146   2.930   4.217  0.5246 -0.8016  0.0937
    1PA    H16R 9784   0.169   2.825   4.238 -2.1489 -1.3995  0.3944
    1PA    H16S 9785   0.081   2.976   4.291 -0.2234 -0.8047 -0.5519
    1PA    H16T 9786   0.230   2.999   4.212 -1.4855  1.8005  0.4143
    1PA    C115 9787   0.069   2.919   4.085 -0.1694 -0.0997  0.4344
    1PA    H15R 9788  -0.034   2.898   4.112 -0.9754 -0.1002 -2.3802
    1PA    H15S 9789   0.068   3.020   4.043  0.3038 -0.3338 -0.1694
    1PA    C114 9790   0.123   2.814   3.986 -0.6393 -0.1670  0.2475
    1PA    H14R 9791   0.201   2.859   3.925 -0.9729 -1.2446 -1.0127
    1PA    H14S 9792   0.170   2.728   4.034  0.3277  0.1914 -0.0507
    1PA    C113 9793   0.020   2.766   3.884  0.0357 -0.4774 -0.2927
    1PA    H13R 9794   0.070   2.732   3.793 -1.0406  1.4678 -1.7059
    1PA    H13S 9795  -0.040   2.685   3.926  0.9485 -0.4651  1.0793
    1PA    C112 9796  -0.062   2.883   3.827  0.4968 -0.3393 -0.6770
    1PA    H12R 9797  -0.122   2.919   3.911  0.1214 -0.5406 -0.8542
    1PA    H12S 9798   0.004   2.967   3.804 -1.2610  1.5634  0.8499
    1PA    C111 9799  -0.153   2.836   3.712 -0.1082 -0.1097 -0.2956
    1PA    H11R 9800  -0.101   2.783   3.632 -0.8824  0.6799 -1.3563
    1PA    H11S 9801  -0.225   2.766   3.756  2.0262 -1.7764  0.7284
    1PA    C110 9802  -0.223   2.954   3.643  0.2998  0.4224  0.1949
    1PA    H10R 9803  -0.295   2.999   3.712 -2.9102 -1.3735 -1.7439
    1PA    H10S 9804  -0.151   3.030   3.613  1.6376 -0.6795  0.4925
    1PA     C19 9805  -0.306   2.903   3.525  0.0741 -0.3398  0.6743
    1PA     H9R 9806  -0.251   2.870   3.436  0.2950  1.6490  0.0114
    1PA     H9S 9807  -0.374   2.823   3.555 -0.5392  0.7740  2.3816
    1PA     C18 9808  -0.400   3.014   3.477 -0.3120 -0.8571  0.2280
    1PA     H8R 9809  -0.479   3.030   3.551 -0.7746  0.2363 -0.4789
    1PA     H8S 9810  -0.337   3.101   3.461 -2.6101  1.0345  0.9371
    1PA     C17 9811  -0.476   2.988   3.346 -0.9774 -0.5404  0.5451
    1PA     H7R 9812  -0.412   2.983   3.257 -0.7115 -0.0205  0.7075
    1PA     H7S 9813  -0.516   2.887   3.361  1.1577 -1.1735  2.6738
    1PA     C16 9814  -0.587   3.091   3.324  0.1505  0.5714 -0.0860
    1PA     H6R 9815  -0.651   3.063   3.408  0.1674 -3.9348 -1.3089
    1PA     H6S 9816  -0.549   3.192   3.338 -0.2953  0.7769 -0.3134
    1PA     C15 9817  -0.658   3.078   3.188 -0.6069  0.1004  0.3459
    1PA     H5R 9818  -0.668   2.973   3.159  1.2028  0.0488 -0.2115
    1PA     H5S 9819  -0.754   3.130   3.190 -0.5206  0.3573 -1.0399
    1PA     C14 9820  -0.569   3.141   3.080 -0.3216 -0.1301  0.4447
    1PA     H4R 9821  -0.534   3.242   3.101 -2.8554  0.9579 -0.1906
    1PA     H4S 9822  -0.471   3.095   3.067 -0.0163  0.7984 -0.6683
    1PA     C13 9823  -0.636   3.126   2.943 -0.0513  0.2580  0.2688
    1PA     H3R 9824  -0.650   3.019   2.923 -1.3847  0.7323 -1.6214
    1PA     H3S 9825  -0.738   3.164   2.947 -0.7759 -1.5326 -0.2201
    1PA     C12 9826  -0.568   3.208   2.832 -0.3034 -0.1191 -0.1702
    1PA     H2R 9827  -0.587   3.313   2.857 -1.2542 -0.3624  0.1853
    1PA     H2S 9828  -0.461   3.187   2.832 -0.2771  0.0124 -0.6588
    2PC     C11 9829  -0.628   3.187   2.696 -0.3293 -0.0543 -0.1691
    2PC     O12 9830  -0.720   3.110   2.673 -0.0391 -0.4424 -0.0354
    2PC     O11 9831  -0.575   3.275   2.610  0.3045 -0.1383  0.1305
    2PC      C1 9832  -0.613   3.266   2.471  0.4569 -0.5418  0.1147
    2PC      HR 9833  -0.561   3.184   2.422  0.6829  0.2680 -1.0284
    2PC      HS 9834  -0.720   3.248   2.459  0.3212  0.0839  0.3201
    2PC      C2 9835  -0.579   3.405   2.415 -0.5013 -0.1461  0.4828
    2PC      HX 9836  -0.649   3.477   2.456 -0.4109  0.5062 -0.4774
    2PC      C3 9837  -0.593   3.396   2.262  0.4679 -0.0876  0.3785
    2PC      HA 9838  -0.698   3.375   2.238  0.0376 -0.0985  2.0861
    2PC      HB 9839  -0.576   3.490   2.210 -1.8764 -0.4320 -1.1487
    2PC     O31 9840  -0.503   3.302   2.201  0.3967  0.0668  0.0334
    2PC     P31 9841  -0.487   3.303   2.042  0.0734  0.3366  0.0014
    2PC     O32 9842  -0.331   3.341   2.040  0.0933  0.2611  0.0893
    2PC     C31 9843  -0.296   3.465   1.974 -0.1214  0.4417  0.3121
    2PC     H1A 9844  -0.309   3.454   1.866  0.7275  2.5685 -0.0436
    2PC     H1B 9845  -0.368   3.539   2.009  0.3829  1.0256  0.1166
    2PC     C32 9846  -0.149   3.480   2.012  0.1805 -0.1101 -0.5939
    2PC     H2A 9847  -0.148   3.437   2.113 -0.8309  1.2162  0.0074
    2PC     H2B 9848  -0.084   3.421   1.947 -1.5306 -2.5116 -0.2294
    2PC     N31 9849  -0.089   3.618   2.006  0.5972 -0.2597 -0.0433
    2PC     C33 9850   0.055   3.605   2.045  0.3642 -0.2698  0.8268
    2PC     H3A 9851   0.104   3.700   2.021 -0.0948  0.1795  1.6222
    2PC     H3B 9852   0.055   3.588   2.153  0.7139  0.3660  0.9365
    2PC     H3C 9853   0.098   3.524   1.986  1.0866  1.4331 -1.1008
    2PC     C34 9854  -0.095   3.668   1.865 -0.4570  0.1733  0.1416
    2PC     H4A 9855  -0.199   3.658   1.834 -0.6201  1.2576  0.3048
    2PC     H4B 9856  -0.059   3.771   1.860  0.2651 -0.1105 -2.5332
    2PC     H4C 9857  -0.033   3.600   1.806 -0.3677  2.2261 -2.3007
    2PC     C35 9858  -0.161   3.715   2.094  0.2409  0.0854 -0.7026
    2PC     H5A 9859  -0.162   3.671   2.195  0.8364 -0.2719 -0.8463
    2PC     H5B 9860  -0.261   3.724   2.051 -1.0677  0.5661  2.1790
    2PC     H5C 9861  -0.107   3.809   2.092 -1.8572  1.4018 -4.2846
    2PC     O33 9862  -0.530   3.177   1.977 -0.4692  0.0849  0.8405
    2PC     O34 9863  -0.568   3.403   1.968  0.1566  0.4526  0.0645
    2PC     O21 9864  -0.443   3.441   2.446 -0.5506  0.1480  0.3560
    2PC     C21 9865  -0.391   3.562   2.420 -0.2083 -0.0356  0.1894
    2PC     O22 9866  -0.452   3.655   2.371  0.8567  0.6616  0.1413
    3OL     C12 9867  -0.247   3.576   2.462 -0.3080 -0.3159  0.6289
    3OL     H2R 9868  -0.231   3.683   2.480 -2.0232 -0.0546  0.7462
    3OL     H2S 9869  -0.189   3.553   2.372  1.9440  0.4325  1.7930
    3OL     C13 9870  -0.194   3.473   2.562  0.4453 -0.1138  0.4453
    3OL     H3R 9871  -0.087   3.495   2.561  0.2978  0.6469 -1.1943
    3OL     H3S 9872  -0.201   3.369   2.531  2.3325 -0.3856  0.7738
    3OL     C14 9873  -0.253   3.500   2.701  0.1213  0.2224  0.2443
    3OL     H4R 9874  -0.362   3.509   2.703  0.1124  0.3032 -0.4239
    3OL     H4S 9875  -0.224   3.594   2.748  2.4863  0.0377 -0.6979
    3OL     C15 9876  -0.214   3.396   2.807 -0.0019 -0.0066  0.0657
    3OL     H5R 9877  -0.105   3.393   2.821  0.0064 -1.8557 -0.0328
    3OL     H5S 9878  -0.253   3.297   2.780 -1.5591  0.8364 -0.8626
    3OL     C16 9879  -0.284   3.429   2.940  0.2488  0.0409  0.1855
    3OL     H6R 9880  -0.390   3.438   2.916  0.1247  0.0570  0.7422
    3OL     H6S 9881  -0.251   3.527   2.977 -0.2221 -0.5525  2.2943
    3OL     C17 9882  -0.269   3.326   3.052 -0.0907  0.1997  0.3772
    3OL     H7R 9883  -0.305   3.232   3.010  0.9918 -0.2329  0.3783
    3OL     H7S 9884  -0.328   3.349   3.141  1.1846  3.3665  0.5306
    3OL     C18 9885  -0.127   3.298   3.103 -0.0369  0.0126  0.1255
    3OL     H8R 9886  -0.058   3.279   3.020  1.2076  0.0982  1.1195
    3OL     H8S 9887  -0.122   3.210   3.168 -0.1514  0.9985  1.5021
    3OL     C19 9888  -0.076   3.417   3.180 -0.0443  0.4225 -0.4959
    3OL     H9R 9889  -0.074   3.507   3.120  0.7451  0.0813 -0.9995
    3OL    C110 9890  -0.028   3.411   3.303  0.6927 -0.1323 -0.7979
    3OL    H10R 9891   0.007   3.500   3.354 -0.6712 -1.1200  2.0793
    3OL    C111 9892  -0.030   3.297   3.402  0.6449  0.4136 -0.1632
    3OL    H11R 9893   0.061   3.237   3.399  1.8060  2.1424 -0.6469
    3OL    H11S 9894  -0.115   3.231   3.384  2.5888 -2.7168  1.2990
    3OL    C112 9895  -0.036   3.348   3.547 -0.4878 -0.2472  0.0333
    3OL    H12R 9896  -0.023   3.260   3.611 -1.7035 -1.2629 -1.0556
    3OL    H12S 9897  -0.133   3.395   3.567 -0.6902 -0.2641 -0.8790
    3OL    C113 9898   0.070   3.449   3.592 -0.3524 -0.1424 -0.5153
    3OL    H13R 9899   0.058   3.473   3.698 -2.4452  0.1282 -0.7652
    3OL    H13S 9900   0.041   3.540   3.539  0.0118 -0.1443 -0.7179
    3OL    C114 9901   0.212   3.398   3.567 -0.0463  0.2854  0.3230
    3OL    H14R 9902   0.230   3.393   3.460 -1.1318  1.8896  0.0424
    3OL    H14S 9903   0.216   3.292   3.592  1.7045 -0.3842 -2.3633
    3OL    C115 9904   0.322   3.484   3.630  0.1406 -0.0499  0.4582
    3OL    H15R 9905   0.285   3.586   3.621 -1.0345 -0.5681 -0.9206
    3OL    H15S 9906   0.418   3.467   3.580 -0.1899 -0.7271  0.0446
    3OL    C116 9907   0.343   3.446   3.778 -0.1990 -0.4384  0.4068
    3OL    H16R 9908   0.411   3.360   3.777  0.2522 -0.1787  2.8718
    3OL    H16S 9909   0.252   3.411   3.826  0.0702 -1.8370 -0.0464
    3OL    C117 9910   0.406   3.559   3.859 -0.2181 -0.2082  0.1023
    3OL    H17R 9911   0.488   3.599   3.798  0.4081 -0.9086  0.4599
    3OL    H17S 9912   0.450   3.520   3.951  0.4947  1.0396  0.3134
    3OL    C118 9913   0.313   3.680   3.876  0.0105 -0.0218  0.0338
    3OL    H18R 9914   0.217   3.642   3.912 -0.4253  0.3756 -0.6798
    3OL    H18S 9915   0.294   3.729   3.780 -0.5980  0.8041  0.5668
    3OL    H18T 9916   0.359   3.747   3.948  2.0959 -0.9689 -0.3439
    1PA    C116 9917   4.883   4.693   3.580 -0.4017 -0.8583 -0.2039
    1PA    H16R 9918   4.966   4.764   3.572 -0.9578 -0.1958 -0.1903
    1PA    H16S 9919   4.840   4.702   3.480  0.9414  1.0269 -0.6766
    1PA    H16T 9920   4.928   4.597   3.607 -2.4992 -1.7025  0.4268
    1PA    C115 9921   4.780   4.736   3.685 -0.1218 -0.5155 -0.0642
    1PA    H15R 9922   4.830   4.770   3.775  0.2597  1.8232 -1.0996
    1PA    H15S 9923   4.732   4.817   3.630  0.0837 -0.3757 -0.0375
    1PA    C114 9924   4.679   4.624   3.717 -0.4139 -0.2431 -0.0243
    1PA    H14R 9925   4.741   4.553   3.772 -1.9889 -0.8925  0.9608
    1PA    H14S 9926   4.608   4.656   3.793  1.5981  0.8957  1.4898
    1PA    C113 9927   4.624   4.550   3.594 -0.5089 -0.1474 -0.0394
    1PA    H13R 9928   4.704   4.530   3.522 -1.9698 -1.1259 -1.4484
    1PA    H13S 9929   4.584   4.455   3.628 -2.8057  0.6063 -0.4913
    1PA    C112 9930   4.508   4.632   3.536 -0.3987  0.1387  0.1384
    1PA    H12R 9931   4.431   4.639   3.613  0.0425 -0.6531  0.6716
    1PA    H12S 9932   4.541   4.734   3.516 -0.8378  0.5284  1.2947
    1PA    C111 9933   4.443   4.552   3.422 -0.3906 -0.1214  0.3140
    1PA    H11R 9934   4.431   4.445   3.441 -0.1007 -0.4031 -0.9953
    1PA    H11S 9935   4.347   4.605   3.416 -0.1949  0.3208  0.9271
    1PA    C110 9936   4.537   4.573   3.302 -0.0090  0.0920  0.6479
    1PA    H10R 9937   4.637   4.531   3.316 -0.2746 -1.4405 -1.5464
    1PA    H10S 9938   4.495   4.512   3.222 -1.2302  0.0953  1.2608
    1PA     C19 9939   4.550   4.716   3.249  0.1310 -0.1096  0.1426
    1PA     H9R 9940   4.589   4.788   3.321  1.1158 -0.2941 -0.1770
    1PA     H9S 9941   4.614   4.709   3.160 -0.4156 -0.3254 -0.2354
    1PA     C18 9942   4.424   4.778   3.187  0.3031  0.4142  0.3136
    1PA     H8R 9943   4.342   4.727   3.239  1.2997  0.1295  1.6839
    1PA     H8S 9944   4.426   4.884   3.213  0.5496 -0.0798  2.5615
    1PA     C17 9945   4.414   4.755   3.036  0.1945  0.4806  0.3111
    1PA     H7R 9946   4.505   4.791   2.988  0.0419  0.2665 -0.1412
    1PA     H7S 9947   4.404   4.648   3.016 -1.1301  0.0288  2.9555
    1PA     C16 9948   4.289   4.826   2.982 -0.2640 -0.4224  0.1726
    1PA     H6R 9949   4.202   4.770   3.019 -0.7582  0.2189  0.0034
    1PA     H6S 9950   4.284   4.934   2.994 -0.3493 -0.3335 -0.5639
    1PA     C15 9951   4.289   4.809   2.829 -0.8059 -0.7391  0.2042
    1PA     H5R 9952   4.377   4.845   2.775 -0.9002 -0.2626  0.3567
    1PA     H5S 9953   4.276   4.708   2.792  2.0053 -0.0468 -3.2027
    1PA     C14 9954   4.178   4.899   2.772  0.4956  0.4751 -0.4829
    1PA     H4R 9955   4.080   4.871   2.813  0.8136 -1.0419 -0.6988
    1PA     H4S 9956   4.200   5.005   2.788  1.2453  0.4499 -1.2886
    1PA     C13 9957   4.178   4.883   2.619 -0.5320  0.3923 -0.4854
    1PA     H3R 9958   4.267   4.935   2.582  0.9018 -1.3201  0.3923
    1PA     H3S 9959   4.177   4.781   2.582 -1.4424  0.5666 -0.9668
    1PA     C12 9960   4.045   4.941   2.570 -0.6881  0.1663 -0.3292
    1PA     H2R 9961   3.961   4.903   2.629 -0.7014  1.1727  0.3378
    1PA     H2S 9962   4.044   5.050   2.579  1.8817  0.2843 -0.6658
    2PC     C11 9963   4.015   4.894   2.430  0.2286  0.4926 -0.6423
    2PC     O12 9964   4.054   4.792   2.376  0.2029  0.3879 -0.4645
    2PC     O11 9965   3.949   4.994   2.370 -0.5359  0.0692 -0.5142
    2PC      C1 9966   3.918   4.987   2.229  0.2972 -0.0122 -0.7021
    2PC      HR 9967   3.891   5.090   2.202 -0.3953  0.9216  2.9857
    2PC      HS 9968   4.005   4.952   2.174  0.3530  1.3553 -1.5459
    2PC      C2 9969   3.794   4.899   2.207  0.3855 -0.2828 -0.1472
    2PC      HX 9970   3.827   4.801   2.241  1.3509  0.0935  0.0294
    2PC      C3 9971   3.750   4.889   2.060 -0.2924 -0.2999  0.0556
    2PC      HA 9972   3.819   4.822   2.009  0.5626  1.2537 -0.9008
    2PC      HB 9973   3.646   4.854   2.057 -0.9465  1.3430  1.5708
    2PC     O31 9974   3.762   5.017   1.996  0.3626 -0.1766  0.4194
    2PC     P31 9975   3.744   5.024   1.837  0.1134 -0.0006  0.4561
    2PC     O32 9976   3.898   5.021   1.796 -0.0698  0.1462 -0.2614
    2PC     C31 9977   4.004   5.070   1.880  0.1247  0.2702 -0.5738
    2PC     H1A 9978   3.978   5.174   1.901  2.0281  1.2337 -2.5915
    2PC     H1B 9979   4.025   5.008   1.968 -0.7584 -1.0420 -1.2538
    2PC     C32 9980   4.141   5.064   1.812  0.6197 -0.3959  0.4504
    2PC     H2A 9981   4.208   5.122   1.874 -0.3045  0.3219  0.7969
    2PC     H2B 9982   4.180   4.962   1.818  1.9269 -0.0078 -0.7051
    2PC     N31 9983   4.162   5.115   1.672 -0.3358  0.1585  0.5057
    2PC     C33 9984   4.304   5.105   1.627 -0.6188  0.2282 -0.4286
    2PC     H3A 9985   4.322   5.169   1.541 -0.6972  0.9740  0.0990
    2PC     H3B 9986   4.367   5.144   1.708 -1.7420 -0.3278  0.7518
    2PC     H3C 9987   4.332   5.002   1.605 -0.1247  0.0941  0.7662
    2PC     C34 9988   4.089   5.036   1.567  0.1769  0.2131  0.1084
    2PC     H4A 9989   3.983   5.040   1.590  0.1659 -2.1287  0.6969
    2PC     H4B 9990   4.118   5.078   1.471 -0.2418  2.0892  0.7636
    2PC     H4C 9991   4.117   4.932   1.584 -0.8386  0.2482  2.2965
    2PC     C35 9992   4.121   5.259   1.673 -0.0099  0.2515  0.2949
    2PC     H5A 9993   4.012   5.255   1.679 -0.0188 -0.5165 -0.2305
    2PC     H5B 9994   4.145   5.316   1.583 -0.5462 -2.1934 -1.5010
    2PC     H5C 9995   4.141   5.301   1.772 -2.3704 -0.2915  1.0588
    2PC     O33 9996   3.686   4.904   1.773  0.5680 -0.2377  0.4871
    2PC     O34 9997   3.672   5.139   1.776  0.3726 -0.1928 -0.2221
    2PC     O21 9998   3.693   4.964   2.286  0.0530 -0.5416 -0.3585
    2PC     C21 9999   3.571   4.910   2.305  0.0665 -0.3217  0.3908
    2PC     O2210000   3.528   4.812   2.247  0.0814  0.3204 -0.7417
    3OL     C1210001   3.492   4.997   2.398 -0.0371  0.2386 -0.2114
    3OL     H2R10002   3.389   4.959   2.399  0.0802 -0.0786  0.5700
    3OL     H2S10003   3.484   5.096   2.353 -0.9106 -0.5752 -1.9172
    3OL     C1310004   3.553   5.007   2.539  0.0055 -0.7434 -0.1547
    3OL     H3R10005   3.628   5.086   2.538 -0.8725  0.1206 -1.4000
    3OL     H3S10006   3.606   4.914   2.560 -1.1285 -1.2428  0.5753
    3OL     C1410007   3.447   5.037   2.646 -0.1875  0.1074 -0.5799
    3OL     H4R10008   3.362   4.973   2.624  1.1315 -1.9221 -0.0102
    3OL     H4S10009   3.409   5.137   2.621  0.0410 -0.2072 -2.3570
    3OL     C1510010   3.492   5.016   2.791 -0.0074 -0.0707 -0.6628
    3OL     H5R10011   3.548   4.923   2.808  0.7760  0.6112  0.6644
    3OL     H5S10012   3.402   5.011   2.852 -0.9265  1.3424 -1.8301
    3OL     C1610013   3.560   5.141   2.847 -0.2420 -0.2723  0.0788
    3OL     H6R10014   3.543   5.152   2.955  1.8849  1.5772  0.2962
    3OL     H6S10015   3.510   5.217   2.786  2.4279 -0.8409 -3.0873
    3OL     C1710016   3.711   5.146   2.825 -0.2286 -0.3580  0.1512
    3OL     H7R10017   3.749   5.248   2.823  2.3067 -1.1892  1.2257
    3OL     H7S10018   3.729   5.089   2.733 -0.4101  0.7388 -0.5763
    3OL     C1810019   3.774   5.087   2.952  0.2819  0.6324  0.3691
    3OL     H8R10020   3.719   4.994   2.969  1.7158 -0.1241  1.0645
    3OL     H8S10021   3.762   5.156   3.035 -0.5022  1.7550 -0.6437
    3OL     C1910022   3.921   5.055   2.940  0.0937  0.0016 -0.3831
    3OL     H9R10023   3.955   5.022   2.842 -0.0754 -2.3176  0.3023
    3OL    C11010024   4.005   5.073   3.041 -0.3816 -0.8502  0.1690
    3OL    H10R10025   4.106   5.045   3.014  0.5175  1.5744  0.8018
    3OL    C11110026   3.972   5.117   3.182 -0.2514 -0.3518  0.0431
    3OL    H11R10027   3.868   5.091   3.201  0.2554 -1.0745  2.0851
    3OL    H11S10028   3.993   5.223   3.198  1.2844 -0.4835 -0.8470
    3OL    C11210029   4.060   5.054   3.290 -0.0392 -0.1923 -0.0341
    3OL    H12R10030   4.043   4.946   3.297  1.2004 -0.3556  0.7917
    3OL    H12S10031   4.028   5.103   3.382  0.1666  0.5032 -0.3284
    3OL    C11310032   4.207   5.081   3.258 -0.0135 -0.4720 -0.1622
    3OL    H13R10033   4.211   5.182   3.217  1.8861 -1.1530 -1.8201
    3OL    H13S10034   4.241   5.016   3.178 -3.3539 -1.0001 -1.2691
    3OL    C11410035   4.288   5.070   3.388 -0.5046  0.1830  0.2062
    3OL    H14R10036   4.295   4.968   3.426 -3.4436  0.3620  1.5324
    3OL    H14S10037   4.237   5.121   3.470  0.5597  1.2199  0.2619
    3OL    C11510038   4.427   5.134   3.372 -0.1551 -0.6512 -0.1160
    3OL    H15R10039   4.422   5.242   3.356 -2.3893 -0.6475  0.2557
    3OL    H15S10040   4.474   5.094   3.282  0.5855  0.5556 -0.2834
    3OL    C11610041   4.508   5.109   3.499 -0.0833 -0.5806 -0.1475
    3OL    H16R10042   4.516   5.000   3.503  0.6400 -0.5681 -0.8965
    3OL    H16S10043   4.446   5.139   3.584 -1.0343 -0.5508 -0.8455
    3OL    C11710044   4.646   5.177   3.496 -0.2284 -0.2203  0.8314
    3OL    H17R10045   4.681   5.194   3.598  0.2564  1.1562  0.4511
    3OL    H17S10046   4.628   5.282   3.472  0.3452 -0.1235  0.8211
    3OL    C11810047   4.745   5.099   3.409 -0.3431  0.5365  0.0108
    3OL    H18R10048   4.838   5.157   3.407  0.3479 -0.4981 -2.1279
    3OL    H18S10049   4.763   5.004   3.460 -1.6741  1.8151  3.1129
    3OL    H18T10050   4.702   5.072   3.312 -1.6500  0.4928  0.5794
    1PA    C11610051   0.314   0.714   3.402  0.1935 -0.0356  0.6383
    1PA    H16R10052   0.337   0.781   3.485  0.2272  1.6189 -0.6582
    1PA    H16S10053   0.411   0.696   3.354  0.2989  0.7244  0.5572
    1PA    H16T10054   0.246   0.764   3.334  1.9016  2.1098  0.3784
    1PA    C11510055   0.253   0.585   3.458 -0.9285  0.2193  0.0180
    1PA    H15R10056   0.176   0.599   3.533 -1.5245 -1.0984 -0.3101
    1PA    H15S10057   0.195   0.537   3.379 -1.1209 -1.1579  0.9576
    1PA    C11410058   0.356   0.492   3.524 -0.7601  0.1457 -0.3446
    1PA    H14R10059   0.434   0.473   3.451 -1.5325  0.0930 -1.1803
    1PA    H14S10060   0.413   0.538   3.604  0.5672 -0.3081 -1.0034
    1PA    C11310061   0.304   0.353   3.565  0.5611 -0.1767  0.2683
    1PA    H13R10062   0.380   0.308   3.629  1.7675  1.0402 -0.2641
    1PA    H13S10063   0.223   0.377   3.634  1.3664  1.9805  0.5510
    1PA    C11210064   0.250   0.261   3.455 -0.3307  0.1715  0.4090
    1PA    H12R10065   0.169   0.321   3.412 -0.2784  1.1882  1.6599
    1PA    H12S10066   0.326   0.255   3.377  0.2649 -0.6096  1.0291
    1PA    C11110067   0.197   0.125   3.503  0.3075 -0.1394  0.2411
    1PA    H11R10068   0.271   0.070   3.562  1.3309 -0.1170 -0.9754
    1PA    H11S10069   0.107   0.136   3.564  0.4125 -1.6108  0.6960
    1PA    C11010070   0.152   0.031   3.391 -0.3981  0.5330 -0.0501
    1PA    H10R10071   0.229   0.037   3.314  0.7678  3.3691  1.1908
    1PA    H10S10072   0.164  -0.071   3.429  0.1548  1.1443  1.4931
    1PA     C1910073   0.012   0.060   3.335 -0.4151  0.5136 -0.0179
    1PA     H9R10074  -0.065   0.057   3.412 -1.8027 -0.4583 -1.3871
    1PA     H9S10075   0.011   0.166   3.310  0.6268  0.5509  0.0662
    1PA     C1810076  -0.033  -0.029   3.218 -0.1229  0.3617 -0.0145
    1PA     H8R10077  -0.073  -0.119   3.265  2.8852  0.0260  2.2938
    1PA     H8S10078  -0.122   0.012   3.170  0.0164 -0.6448 -1.1537
    1PA     C1710079   0.086  -0.059   3.125 -0.0635 -0.1657  0.2300
    1PA     H7R10080   0.118   0.033   3.077 -0.7372 -0.1215 -0.1465
    1PA     H7S10081   0.170  -0.103   3.179  0.3826 -3.4096 -2.7482
    1PA     C1610082   0.075  -0.172   3.022  0.2471  0.3221 -0.3371
    1PA     H6R10083   0.178  -0.208   3.014  1.0216  2.2364  0.2506
    1PA     H6S10084   0.010  -0.247   3.065  0.8791  0.5566  1.0800
    1PA     C1510085   0.025  -0.112   2.890  0.1851 -0.0727 -0.4939
    1PA     H5R10086  -0.079  -0.078   2.899  0.4573  1.0888 -1.3931
    1PA     H5S10087   0.083  -0.022   2.871  0.3322 -0.3204 -1.2570
    1PA     C1410088   0.046  -0.209   2.773 -0.1091 -0.0599 -0.5589
    1PA     H4R10089   0.153  -0.226   2.759  0.4507  1.4010  1.5517
    1PA     H4S10090  -0.007  -0.303   2.793 -2.8988  1.4184 -0.5399
    1PA     C1310091  -0.019  -0.154   2.645 -0.1497 -0.0709 -0.5429
    1PA     H3R10092  -0.124  -0.183   2.631  0.3943 -1.9484 -1.0272
    1PA     H3S10093  -0.013  -0.046   2.659  0.7853 -0.4441  2.6446
    1PA     C1210094   0.060  -0.195   2.521 -0.1108  0.1429 -0.5901
    1PA     H2R10095   0.168  -0.195   2.537 -0.1321  2.6164 -0.1341
    1PA     H2S10096   0.030  -0.297   2.495 -2.5079  1.0967 -1.8713
    2PC     C1110097   0.043  -0.100   2.405 -0.1081  0.3834 -0.3932
    2PC     O1210098   0.135  -0.041   2.352  0.0659  0.1784 -0.3210
    2PC     O1110099  -0.083  -0.111   2.361 -0.2406  0.0526  0.0566
    2PC      C110100  -0.125  -0.058   2.234  0.1740  0.9766  0.2898
    2PC      HR10101  -0.120   0.051   2.232  2.0059  0.9189 -1.5020
    2PC      HS10102  -0.061  -0.091   2.151  0.1318 -2.0025  1.3258
    2PC      C210103  -0.269  -0.107   2.213  0.4566  0.3700 -0.2995
    2PC      HX10104  -0.268  -0.215   2.223 -0.5331  0.3420 -0.3265
    2PC      C310105  -0.315  -0.076   2.070 -0.6245 -0.1954 -0.0857
    2PC      HA10106  -0.228  -0.075   2.004  1.3675  1.3860  2.3483
    2PC      HB10107  -0.392  -0.148   2.042  1.7406 -2.3753 -1.3272
    2PC     O3110108  -0.363   0.060   2.073  0.6970  0.2748  0.4123
    2PC     P3110109  -0.399   0.136   1.936 -0.0622 -0.1276  0.3831
    2PC     O3210110  -0.265   0.220   1.910  0.0967 -0.4849  0.0341
    2PC     C3110111  -0.218   0.224   1.774  0.1999 -1.0595  0.0496
    2PC     H1A10112  -0.214   0.122   1.736 -0.0540 -1.1920  0.3773
    2PC     H1B10113  -0.294   0.282   1.721 -0.2430  2.5657  4.0623
    2PC     C3210114  -0.086   0.304   1.770 -0.1729 -0.4253  0.2155
    2PC     H2A10115  -0.057   0.315   1.665 -0.3598 -0.7850  0.1231
    2PC     H2B10116  -0.102   0.402   1.814 -1.2015  0.8568 -2.7647
    2PC     N3110117   0.037   0.241   1.827 -0.1375 -0.2598  0.3185
    2PC     C3310118   0.084   0.124   1.746  0.0138 -0.1797  0.2896
    2PC     H3A10119   0.059   0.133   1.641 -2.0984 -0.7715  0.6876
    2PC     H3B10120   0.190   0.112   1.765 -0.1054 -0.2216  0.9545
    2PC     H3C10121   0.035   0.034   1.784 -3.1987  0.3857 -2.1169
    2PC     C3410122   0.145   0.344   1.809 -0.0333 -0.3888  0.2015
    2PC     H4A10123   0.146   0.358   1.701 -1.5134  0.7786  0.3012
    2PC     H4B10124   0.111   0.436   1.857  0.3722 -0.8856  1.4765
    2PC     H4C10125   0.239   0.299   1.841 -0.6876 -2.0140 -0.0715
    2PC     C3510126   0.013   0.198   1.969 -0.4452  0.3088  0.4422
    2PC     H5A10127   0.108   0.189   2.021  0.1585 -0.2809 -0.7375
    2PC     H5B10128  -0.039   0.102   1.962  0.4656 -0.2153  0.7105
    2PC     H5C10129  -0.040   0.281   2.016  0.6349  1.8215 -0.9174
    2PC     O3310130  -0.410   0.026   1.837  0.0108 -0.2625  0.5229
    2PC     O3410131  -0.524   0.215   1.945 -0.0191  0.0022 -0.1787
    2PC     O2110132  -0.344  -0.037   2.314 -0.4238 -0.0995 -0.6113
    2PC     C2110133  -0.470  -0.077   2.335 -0.2416 -0.0548  0.6917
    2PC     O2210134  -0.511  -0.184   2.294  0.1241  0.2041 -0.3783
    3OL     C1210135  -0.560   0.029   2.394 -0.1253  0.1408  0.5178
    3OL     H2R10136  -0.629  -0.034   2.449 -1.1637  0.2305 -0.6298
    3OL     H2S10137  -0.624   0.070   2.316  2.6900  1.4415 -1.2925
    3OL     C1310138  -0.487   0.144   2.464  0.3706  0.6649 -0.8157
    3OL     H3R10139  -0.452   0.214   2.388 -1.0562  1.1671 -1.0375
    3OL     H3S10140  -0.401   0.106   2.519  0.1112  0.1933 -0.7336
    3OL     C1410141  -0.583   0.210   2.565  0.3683 -0.3357 -0.1579
    3OL     H4R10142  -0.533   0.293   2.615 -1.6633  2.4760 -2.5241
    3OL     H4S10143  -0.624   0.142   2.640 -0.1759  0.4934  0.3080
    3OL     C1510144  -0.706   0.265   2.493  0.1660 -0.0806  0.3830
    3OL     H5R10145  -0.790   0.230   2.554  0.8819  1.5532  2.4575
    3OL     H5S10146  -0.713   0.232   2.390  0.8389  0.9589 -0.0097
    3OL     C1610147  -0.707   0.419   2.497 -0.7797 -0.0778  0.4175
    3OL     H6R10148  -0.695   0.445   2.602 -1.3107  1.2909  0.1499
    3OL     H6S10149  -0.811   0.448   2.483 -1.7726 -2.2040  2.6525
    3OL     C1710150  -0.605   0.486   2.404 -0.2075 -0.1294  0.9994
    3OL     H7R10151  -0.629   0.455   2.302 -3.3705 -0.8654  1.8865
    3OL     H7S10152  -0.504   0.454   2.431  1.2762  1.5942 -1.9551
    3OL     C1810153  -0.619   0.639   2.405 -0.0109 -0.0976  0.0568
    3OL     H8R10154  -0.608   0.678   2.506 -1.5393 -1.9350  1.0050
    3OL     H8S10155  -0.715   0.662   2.358  0.6201  3.3485  0.2142
    3OL     C1910156  -0.511   0.700   2.320  0.0083 -0.2388 -0.0205
    3OL     H9R10157  -0.533   0.723   2.216  2.1621 -1.5184 -0.8324
    3OL    C11010158  -0.389   0.725   2.365 -0.0325 -0.2458  0.0935
    3OL    H10R10159  -0.319   0.769   2.295 -0.4116  1.1029  0.5267
    3OL    C11110160  -0.333   0.688   2.500 -0.4491 -0.6833  0.1499
    3OL    H11R10161  -0.248   0.622   2.488 -0.3289 -0.3069 -1.1403
    3OL    H11S10162  -0.405   0.649   2.573 -0.1164  1.3705  1.6751
    3OL    C11210163  -0.286   0.821   2.562 -0.0391 -0.4178 -0.7291
    3OL    H12R10164  -0.369   0.878   2.602  1.8869  1.9369  0.1790
    3OL    H12S10165  -0.254   0.886   2.479  0.8027  1.0655  0.7006
    3OL    C11310166  -0.168   0.797   2.658  0.0476  0.4570 -0.6076
    3OL    H13R10167  -0.089   0.757   2.594  0.3525  0.5426 -0.2864
    3OL    H13S10168  -0.187   0.731   2.743 -0.9955  0.4023 -0.8633
    3OL    C11410169  -0.113   0.928   2.715 -0.2071  0.4158 -0.2626
    3OL    H14R10170  -0.183   0.970   2.787  1.0665  1.2780  0.5173
    3OL    H14S10171  -0.104   1.003   2.637 -0.0567  0.5674 -0.1009
    3OL    C11510172   0.022   0.914   2.788 -0.1617  0.3874 -0.3517
    3OL    H15R10173   0.106   0.896   2.721  0.2280 -0.3012  0.3070
    3OL    H15S10174   0.025   0.825   2.852 -1.6038  1.3752  1.1588
    3OL    C11610175   0.063   1.045   2.856 -0.7275 -0.0014  0.7634
    3OL    H16R10176  -0.013   1.075   2.928 -2.5469  0.1375 -1.1032
    3OL    H16S10177   0.069   1.122   2.779  0.0170  1.0468  1.8384
    3OL    C11710178   0.197   1.023   2.926 -0.1863  0.3286 -0.1479
    3OL    H17R10179   0.272   1.010   2.848 -0.1589  1.0112 -0.2392
    3OL    H17S10180   0.190   0.932   2.986 -1.3859  1.9468  2.3987
    3OL    C11810181   0.217   1.134   3.031 -0.0764  0.3684 -0.2104
    3OL    H18R10182   0.231   1.233   2.988 -0.6136 -0.1148 -1.5587
    3OL    H18S10183   0.306   1.120   3.092 -0.4198 -1.3689 -0.0480
    3OL    H18T10184   0.134   1.141   3.102 -1.2453 -2.9855 -1.0353
    1PA    C11610185   3.604   0.423   3.848 -0.4112  0.0728 -0.2238
    1PA    H16R10186   3.550   0.336   3.887 -2.7064  2.6406  2.9873
    1PA    H16S10187   3.556   0.510   3.894  1.5114 -0.6126  3.5337
    1PA    H16T10188   3.708   0.423   3.880 -0.5608  0.4530  0.2913
    1PA    C11510189   3.608   0.433   3.695  0.2093 -0.1240 -0.2226
    1PA    H15R10190   3.650   0.348   3.642  3.1528  0.7483  0.5060
    1PA    H15S10191   3.502   0.446   3.669 -0.0975  2.0364  1.7282
    1PA    C11410192   3.669   0.568   3.656 -0.4680  0.3094  0.1795
    1PA    H14R10193   3.617   0.609   3.569 -1.4576 -0.1766  0.5311
    1PA    H14S10194   3.652   0.640   3.736  1.0744  2.3969 -1.2397
    1PA    C11310195   3.819   0.547   3.629 -0.4063  0.2309  0.5830
    1PA    H13R10196   3.878   0.520   3.717  0.3503  3.1554  1.0890
    1PA    H13S10197   3.831   0.471   3.552 -0.0668  2.1623 -1.3859
    1PA    C11210198   3.893   0.669   3.572  0.2337 -0.3671  0.1140
    1PA    H12R10199   3.836   0.715   3.491  1.2289  1.1737  0.2438
    1PA    H12S10200   3.890   0.738   3.657  2.4770  0.3856 -0.3575
    1PA    C11110201   4.036   0.636   3.529  0.1600  0.0430 -0.4510
    1PA    H11R10202   4.088   0.731   3.513  3.6892 -1.6848 -0.1658
    1PA    H11S10203   4.094   0.601   3.615  1.4810  3.0744  0.0394
    1PA    C11010204   4.056   0.545   3.407  0.5153  0.0511 -0.4019
    1PA    H10R10205   4.144   0.492   3.442 -0.6306 -0.8481  1.2542
    1PA    H10S10206   3.981   0.465   3.403  0.2474  0.3092 -0.5708
    1PA     C1910207   4.076   0.619   3.274  0.5344  0.3685 -0.2213
    1PA     H9R10208   3.975   0.658   3.253 -0.0853 -1.2485 -0.3551
    1PA     H9S10209   4.157   0.692   3.286  0.9179  0.0615 -0.9120
    1PA     C1810210   4.108   0.516   3.165 -0.2049  0.2790 -0.3637
    1PA     H8R10211   4.210   0.485   3.189 -1.1667 -2.1228  0.9657
    1PA     H8S10212   4.040   0.431   3.159 -1.2266  1.1254 -1.2626
    1PA     C1710213   4.101   0.577   3.024  0.0596  0.8862 -0.1187
    1PA     H7R10214   4.002   0.620   3.008 -0.3767 -0.2056 -0.4454
    1PA     H7S10215   4.171   0.660   3.007  1.2626 -0.5389 -2.7343
    1PA     C1610216   4.143   0.471   2.922 -0.1095  0.4685  0.2430
    1PA     H6R10217   4.252   0.475   2.912  0.0708 -3.2824 -1.0863
    1PA     H6S10218   4.122   0.367   2.949 -0.4697  0.1120 -1.3085
    1PA     C1510219   4.090   0.486   2.779  0.1265 -0.1683  0.0844
    1PA     H5R10220   3.986   0.454   2.780  0.0705  0.0069  1.3523
    1PA     H5S10221   4.115   0.583   2.736  1.0498 -1.2763 -2.0872
    1PA     C1410222   4.163   0.381   2.694  0.3950  0.5228 -0.5550
    1PA     H4R10223   4.272   0.394   2.701  0.6755 -1.3192 -0.8695
    1PA     H4S10224   4.145   0.279   2.729  3.8091 -0.5122 -1.4141
    1PA     C1310225   4.124   0.390   2.546 -0.0666  0.1953 -0.4534
    1PA     H3R10226   4.021   0.356   2.531 -0.3029  1.2909 -1.4789
    1PA     H3S10227   4.128   0.491   2.504 -1.4522  0.3125 -0.3640
    1PA     C1210228   4.204   0.281   2.474 -0.5446 -0.5421  0.1116
    1PA     H2R10229   4.311   0.301   2.479 -0.2060 -1.9297 -0.9285
    1PA     H2S10230   4.181   0.188   2.526 -1.1974  0.6958  2.1265
    2PC     C1110231   4.159   0.255   2.333 -0.3587 -0.0358 -0.0445
    2PC     O1210232   4.207   0.310   2.236 -0.4059 -0.3041 -0.2218
    2PC     O1110233   4.044   0.185   2.333 -0.3212 -0.0963  0.4588
    2PC      C110234   3.974   0.163   2.209  0.3544  0.0257  0.0547
    2PC      HR10235   3.874   0.133   2.241  0.9916 -1.6929  0.5754
    2PC      HS10236   3.962   0.261   2.163  0.4931  0.6414  1.2802
    2PC      C210237   4.038   0.044   2.135  0.3366 -0.0458  0.1544
    2PC      HX10238   4.140   0.079   2.121  0.6639 -0.6398  0.9639
    2PC      C310239   3.978  -0.005   2.003 -0.1153  0.3729  0.1993
    2PC      HA10240   3.877  -0.043   2.019 -0.4046  0.7711 -0.6313
    2PC      HB10241   3.966   0.070   1.925 -0.1365 -1.6185 -1.8150
    2PC     O3110242   4.061  -0.113   1.955 -0.1117  0.3425  0.2751
    2PC     P3110243   4.023  -0.164   1.808  0.0283 -0.2245  0.4341
    2PC     O3210244   4.052  -0.322   1.816  0.0131 -0.2180  0.6180
    2PC     C3110245   4.187  -0.362   1.789 -0.0437 -0.3231  0.4905
    2PC     H1A10246   4.179  -0.470   1.774  2.1356 -0.5845  0.8715
    2PC     H1B10247   4.227  -0.322   1.696  1.3465 -1.1297  0.7051
    2PC     C3210248   4.273  -0.322   1.911  0.1450  0.4716  0.1013
    2PC     H2A10249   4.373  -0.316   1.867  0.4469 -2.7671  0.1118
    2PC     H2B10250   4.246  -0.225   1.954  0.0045 -0.0929  1.3205
    2PC     N3110251   4.307  -0.414   2.024 -0.3057 -0.0423 -0.1713
    2PC     C3310252   4.184  -0.467   2.090  0.1417 -0.5815  0.2395
    2PC     H3A10253   4.131  -0.526   2.016  0.9565  0.5262 -1.2776
    2PC     H3B10254   4.208  -0.536   2.171 -1.1505 -1.1760  0.1488
    2PC     H3C10255   4.126  -0.383   2.130 -0.8441  0.8049 -3.6956
    2PC     C3410256   4.379  -0.538   1.980  0.1141  0.1680 -0.0861
    2PC     H4A10257   4.456  -0.509   1.908 -1.6459  2.4572 -1.2071
    2PC     H4B10258   4.417  -0.588   2.069  1.8284 -1.5143 -1.6813
    2PC     H4C10259   4.306  -0.610   1.943  0.4333  0.3289 -1.0638
    2PC     C3510260   4.387  -0.331   2.120  0.3298 -0.3494 -0.4294
    2PC     H5A10261   4.397  -0.377   2.218  1.0831  2.5502  0.9589
    2PC     H5B10262   4.320  -0.245   2.131 -0.4486 -1.0296  0.2294
    2PC     H5C10263   4.482  -0.305   2.073 -1.0824  0.2225 -3.2133
    2PC     O3310264   3.883  -0.141   1.768  0.2438  0.2156 -0.0692
    2PC     O3410265   4.104  -0.084   1.714 -0.1612 -0.4940  0.0388
    2PC     O2110266   4.035  -0.066   2.228 -0.4239 -0.3832 -0.2652
    2PC     C2110267   4.146  -0.108   2.291 -0.2230 -0.3932 -0.6224
    2PC     O2210268   4.253  -0.052   2.281 -0.3179 -0.1878 -0.4728
    3OL     C1210269   4.121  -0.232   2.373 -0.2120 -0.0926 -0.1635
    3OL     H2R10270   4.207  -0.298   2.388 -0.4544 -0.3985 -0.1015
    3OL     H2S10271   4.044  -0.289   2.320 -0.0581  0.4422 -0.9801
    3OL     C1310272   4.083  -0.195   2.517  0.2092 -0.4094  0.0311
    3OL     H3R10273   4.045  -0.285   2.567 -1.1984 -0.1292 -0.4870
    3OL     H3S10274   3.994  -0.132   2.523 -0.4662 -1.3881  0.7686
    3OL     C1410275   4.211  -0.149   2.588 -0.0527 -0.2542  0.4060
    3OL     H4R10276   4.250  -0.066   2.529  1.8023 -1.8336 -0.7088
    3OL     H4S10277   4.294  -0.219   2.592 -0.3613 -0.6378  0.1263
    3OL     C1510278   4.181  -0.108   2.733 -0.0331 -0.2864  0.4193
    3OL     H5R10279   4.158  -0.198   2.789  0.7508 -2.3810 -2.4085
    3OL     H5S10280   4.090  -0.048   2.737  0.5967  0.8645 -1.2926
    3OL     C1610281   4.295  -0.027   2.796  0.3984 -0.6691  0.1281
    3OL     H6R10282   4.309   0.062   2.735 -1.5417 -0.2478  0.2388
    3OL     H6S10283   4.391  -0.078   2.811  0.5801  0.1094  1.8785
    3OL     C1710284   4.262   0.004   2.942  0.6541  0.1536  0.0146
    3OL     H7R10285   4.236  -0.085   2.999  0.8369 -0.2064 -0.4633
    3OL     H7S10286   4.171   0.065   2.943  1.2547  1.0855 -0.8195
    3OL     C1810287   4.372   0.078   3.020  0.9067 -0.2439  0.0363
    3OL     H8R10288   4.394   0.153   2.944 -1.0191  0.3676  0.0305
    3OL     H8S10289   4.461   0.022   3.050  1.6804  2.2601  2.9365
    3OL     C1910290   4.309   0.155   3.133  0.6593 -1.0870  0.4796
    3OL     H9R10291   4.248   0.235   3.091 -1.0162 -1.9595  1.1506
    3OL    C11010292   4.325   0.140   3.263 -0.0208  0.0522  0.7090
    3OL    H10R10293   4.271   0.209   3.328 -1.0476  0.6615 -0.7309
    3OL    C11110294   4.404   0.033   3.334 -0.0397 -0.1323  0.4532
    3OL    H11R10295   4.435  -0.041   3.260  1.2466  1.1427 -0.3208
    3OL    H11S10296   4.340  -0.005   3.414 -1.5146 -0.6408 -0.9019
    3OL    C11210297   4.532   0.083   3.400  0.1610  0.7478 -0.5848
    3OL    H12R10298   4.579   0.150   3.327  0.0559  0.6500 -0.7414
    3OL    H12S10299   4.598   0.001   3.431 -0.5547  1.3738  3.1234
    3OL    C11310300   4.506   0.160   3.531 -0.0189  0.2149 -0.3079
    3OL    H13R10301   4.460   0.090   3.601 -0.5382  1.6575  0.8295
    3OL    H13S10302   4.439   0.245   3.520 -0.0193  0.2838  0.2233
    3OL    C11410303   4.635   0.213   3.594 -0.1543  0.3332 -0.1301
    3OL    H14R10304   4.666   0.287   3.520 -0.8884  0.8312  0.0456
    3OL    H14S10305   4.723   0.148   3.601  0.4919  1.1865 -0.2068
    3OL    C11510306   4.603   0.287   3.725  0.5353 -0.3099  0.4159
    3OL    H15R10307   4.508   0.341   3.716  0.7701 -0.0343 -0.4980
    3OL    H15S10308   4.682   0.360   3.741  0.2237 -0.4408  3.0026
    3OL    C11610309   4.597   0.193   3.846  0.4091 -0.4604  0.2954
    3OL    H16R10310   4.696   0.150   3.863 -0.0332 -0.6673  2.8152
    3OL    H16S10311   4.546   0.101   3.818  1.7917 -0.4166 -2.8390
    3OL    C11710312   4.545   0.258   3.976 -0.1728 -0.0200 -0.1529
    3OL    H17R10313   4.451   0.310   3.959 -0.0762  0.7673  1.5476
    3OL    H17S10314   4.613   0.340   3.999 -1.0719  0.9451 -0.8700
    3OL    C11810315   4.549   0.154   4.089 -0.0571 -0.1961 -0.3174
    3OL    H18R10316   4.518   0.184   4.189 -1.2019  0.1332 -0.7531
    3OL    H18S10317   4.652   0.121   4.106 -0.9146 -4.0439 -1.6868
    3OL    H18T10318   4.489   0.067   4.062 -0.3030  0.3781 -1.7005
    1PA    C11610319   0.963   2.186   3.608  0.3820  0.0147  0.1470
    1PA    H16R10320   0.949   2.194   3.716 -0.4931  0.5366  0.0049
    1PA    H16S10321   1.069   2.187   3.581  1.0978 -1.0280  2.6372
    1PA    H16T10322   0.919   2.089   3.588 -2.0485  0.4306  2.7706
    1PA    C11510323   0.886   2.299   3.537  0.5291  0.0997  0.1215
    1PA    H15R10324   0.778   2.287   3.534  0.6068 -0.6336  0.1076
    1PA    H15S10325   0.898   2.390   3.597 -1.8224 -0.3147  1.3526
    1PA    C11410326   0.926   2.309   3.390 -0.0908  0.3344 -0.0332
    1PA    H14R10327   0.896   2.407   3.351 -1.7075  1.0950  2.8899
    1PA    H14S10328   1.035   2.301   3.380  0.0607  0.0440  1.6784
    1PA    C11310329   0.860   2.200   3.304  0.0290  0.0483  0.2370
    1PA    H13R10330   0.872   2.101   3.347 -2.2884  0.4342  2.0371
    1PA    H13S10331   0.753   2.226   3.301 -0.7029 -2.7350 -1.7319
    1PA    C11210332   0.914   2.215   3.162 -0.4128 -0.0647  0.0547
    1PA    H12R10333   0.893   2.316   3.125 -2.5673  0.2849  2.0179
    1PA    H12S10334   1.022   2.199   3.161 -0.6396 -1.7856 -1.0628
    1PA    C11110335   0.858   2.120   3.055 -0.2321 -0.3763  0.2372
    1PA    H11R10336   0.752   2.106   3.073 -0.3870  1.3824  0.9264
    1PA    H11S10337   0.863   2.152   2.951 -1.1735 -1.8524 -0.2882
    1PA    C11010338   0.935   1.987   3.049 -0.0505 -0.2423 -0.4976
    1PA    H10R10339   1.037   1.993   3.010  1.5443 -0.7550  3.1510
    1PA    H10S10340   0.931   1.931   3.142 -1.3911 -1.1448 -1.0700
    1PA     C1910341   0.857   1.897   2.953 -0.8683 -0.3402  0.2548
    1PA     H9R10342   0.889   1.795   2.978  1.9053  0.3183 -0.3051
    1PA     H9S10343   0.749   1.895   2.969 -0.8647  0.5918  0.4245
    1PA     C1810344   0.895   1.922   2.807 -0.0250 -0.8552  0.3772
    1PA     H8R10345   0.865   2.023   2.779 -1.8052 -0.8803  1.9832
    1PA     H8S10346   1.002   1.911   2.788  0.5967 -0.2182  3.1358
    1PA     C1710347   0.817   1.826   2.716 -0.2711  0.1265 -0.4738
    1PA     H7R10348   0.834   1.724   2.752 -1.1538  0.1250 -0.0172
    1PA     H7S10349   0.709   1.840   2.724 -0.1515  1.4072 -0.8479
    1PA     C1610350   0.855   1.846   2.569 -0.1630  0.4308 -0.4036
    1PA     H6R10351   0.831   1.951   2.547 -0.0120  0.1163 -2.1945
    1PA     H6S10352   0.963   1.836   2.556  0.0721  2.6523 -0.5418
    1PA     C1510353   0.775   1.761   2.471 -0.1964  0.1830 -0.1612
    1PA     H5R10354   0.672   1.752   2.506 -0.1674  0.0260 -0.1150
    1PA     H5S10355   0.772   1.811   2.374 -2.7373 -0.8849 -0.7352
    1PA     C1410356   0.820   1.614   2.464  0.3254  0.3414 -0.1913
    1PA     H4R10357   0.919   1.614   2.419  0.7917  0.6204  0.8102
    1PA     H4S10358   0.820   1.560   2.559  0.4124 -1.1154 -0.9815
    1PA     C1310359   0.725   1.549   2.362  0.4622 -0.0245 -0.0858
    1PA     H3R10360   0.622   1.568   2.393  0.3254  3.2092 -2.1408
    1PA     H3S10361   0.730   1.590   2.261 -1.7748 -0.6539 -0.5060
    1PA     C1210362   0.764   1.400   2.356  0.3969 -0.0961  0.9657
    1PA     H2R10363   0.862   1.397   2.307  0.0119  0.0699  0.1675
    1PA     H2S10364   0.770   1.355   2.455 -2.0846 -0.0511  1.1860
    2PC     C1110365   0.666   1.319   2.275  0.4431  0.7894 -0.0095
    2PC     O1210366   0.557   1.362   2.242  0.0688  0.2332  0.4749
    2PC     O1110367   0.709   1.194   2.254 -0.3751  0.4602  0.2497
    2PC      C110368   0.627   1.103   2.177 -0.1369 -0.0662  0.6141
    2PC      HR10369   0.521   1.097   2.201 -0.2714 -2.4730 -0.3223
    2PC      HS10370   0.639   1.125   2.071  1.3001  1.0006  0.9664
    2PC      C210371   0.678   0.959   2.192  0.0347 -0.0736 -0.0043
    2PC      HX10372   0.786   0.954   2.174 -0.0284 -2.4473 -0.1029
    2PC      C310373   0.614   0.870   2.085 -0.3689 -0.0291  0.1969
    2PC      HA10374   0.664   0.895   1.991 -0.1835 -1.4033 -0.0940
    2PC      HB10375   0.637   0.763   2.091  1.0532  0.0272 -2.4495
    2PC     O3110376   0.474   0.899   2.074 -0.1088  0.9910 -0.6673
    2PC     P3110377   0.402   0.839   1.944  0.1697 -0.1216 -0.3231
    2PC     O3210378   0.289   0.952   1.961  0.1052 -0.2349  0.0071
    2PC     C3110379   0.194   0.970   1.854  0.0625 -0.3702  0.0215
    2PC     H1A10380   0.238   1.003   1.760 -1.5739  2.8769  0.2643
    2PC     H1B10381   0.148   0.874   1.835  0.7127 -0.6245 -0.3119
    2PC     C3210382   0.085   1.070   1.895  0.1995 -0.2134  0.0062
    2PC     H2A10383   0.003   1.062   1.824  1.0544  0.2341 -1.0525
    2PC     H2B10384   0.053   1.046   1.997 -1.5188 -1.5551 -0.8090
    2PC     N3110385   0.131   1.213   1.892  0.5188 -0.2983  0.6136
    2PC     C3310386   0.256   1.226   1.973  0.7091 -0.6662  0.3789
    2PC     H3A10387   0.235   1.202   2.078  0.1411  0.3685  0.5176
    2PC     H3B10388   0.330   1.155   1.935 -0.3270 -1.6746  0.1758
    2PC     H3C10389   0.288   1.330   1.975  2.3834 -1.1663  1.3473
    2PC     C3410390   0.180   1.247   1.755 -0.8005 -0.6034  0.0469
    2PC     H4A10391   0.281   1.209   1.737  0.0561  1.1771  0.8074
    2PC     H4B10392   0.105   1.201   1.691  0.2781 -0.3102 -1.4758
    2PC     H4C10393   0.180   1.356   1.742  1.3314 -0.4228  1.0664
    2PC     C3510394   0.029   1.312   1.939  0.6563  0.3195 -0.3581
    2PC     H5A10395  -0.002   1.291   2.042  2.9135 -2.7002 -0.1753
    2PC     H5B10396  -0.056   1.308   1.871 -1.0238 -0.0029  1.6312
    2PC     H5C10397   0.081   1.407   1.931  1.6695 -0.1904  0.0592
    2PC     O3310398   0.482   0.865   1.822  0.4944 -0.6341 -0.2206
    2PC     O3410399   0.361   0.698   1.960  0.2652 -0.1284 -0.1378
    2PC     O2110400   0.650   0.900   2.321  0.1002 -0.1650 -0.0316
    2PC     C2110401   0.720   0.795   2.367 -0.5984 -0.6415 -0.0521
    2PC     O2210402   0.835   0.772   2.336 -0.5629 -0.1098 -0.3221
    3OL     C1210403   0.634   0.699   2.446 -0.9853 -0.0650  0.2372
    3OL     H2R10404   0.602   0.749   2.537 -0.4608 -2.3689  1.7808
    3OL     H2S10405   0.701   0.620   2.480 -0.9921 -0.3045 -0.2966
    3OL     C1310406   0.526   0.633   2.359 -0.3815 -0.3629 -0.2942
    3OL     H3R10407   0.584   0.562   2.299  0.0764 -0.0131 -0.2773
    3OL     H3S10408   0.483   0.712   2.299  1.0239  0.4768 -0.2384
    3OL     C1410409   0.428   0.559   2.451 -0.1535  0.1002  0.3305
    3OL     H4R10410   0.475   0.504   2.533  1.2278 -0.2113 -0.6433
    3OL     H4S10411   0.381   0.482   2.388  0.1765 -0.6686  1.0091
    3OL     C1510412   0.319   0.657   2.495 -0.4227 -0.0388 -0.0233
    3OL     H5R10413   0.265   0.676   2.402  1.6375 -2.3831 -1.8278
    3OL     H5S10414   0.361   0.749   2.536 -0.1411 -0.2351  0.1277
    3OL     C1610415   0.222   0.595   2.596 -0.3859 -0.3250 -0.1641
    3OL     H6R10416   0.226   0.486   2.588 -1.8257 -0.3196 -1.3362
    3OL     H6S10417   0.125   0.630   2.560  0.6559  0.1559 -2.7204
    3OL     C1710418   0.253   0.643   2.739  1.0245  0.4003 -0.6943
    3OL     H7R10419   0.165   0.622   2.799 -0.6755 -0.2207 -3.2292
    3OL     H7S10420   0.253   0.752   2.740 -0.3060  0.4784 -2.5205
    3OL     C1810421   0.380   0.579   2.796  0.3962 -0.4829 -0.2560
    3OL     H8R10422   0.462   0.613   2.732  1.0761 -0.0150  0.8300
    3OL     H8S10423   0.377   0.470   2.793 -1.0434 -0.4303 -1.5907
    3OL     C1910424   0.407   0.632   2.935 -0.7012 -0.0619 -0.1978
    3OL     H9R10425   0.453   0.730   2.947  0.5838 -0.6677 -0.0064
    3OL    C11010426   0.381   0.572   3.050  0.0758  0.2861  0.1679
    3OL    H10R10427   0.397   0.626   3.142  0.1424  1.4773 -0.5307
    3OL    C11110428   0.330   0.431   3.069  0.1983  0.2682  0.3649
    3OL    H11R10429   0.264   0.409   2.985  1.9686 -2.3120 -0.4821
    3OL    H11S10430   0.265   0.417   3.155 -0.5475  1.4359  0.0123
    3OL    C11210431   0.438   0.321   3.064 -0.1502 -0.0636  0.1007
    3OL    H12R10432   0.496   0.341   3.154 -1.5097 -1.6999  1.4031
    3OL    H12S10433   0.498   0.342   2.975 -1.2020  0.0034 -0.6151
    3OL    C11310434   0.383   0.178   3.073  0.1887 -0.2052 -0.0534
    3OL    H13R10435   0.313   0.149   2.994  0.6655  1.0321 -0.9719
    3OL    H13S10436   0.312   0.181   3.157  0.9546  1.6691  0.5740
    3OL    C11410437   0.502   0.084   3.093  0.4568  0.2268  0.4114
    3OL    H14R10438   0.539   0.116   3.190 -2.0532  1.5348  1.0312
    3OL    H14S10439   0.579   0.097   3.017  1.9638  0.7668  1.9782
    3OL    C11510440   0.454  -0.062   3.099  0.0609  0.3115 -0.4835
    3OL    H15R10441   0.412  -0.081   3.000 -1.1338  0.2351  0.0137
    3OL    H15S10442   0.373  -0.061   3.173  0.7492 -0.6746  0.3059
    3OL    C11610443   0.557  -0.167   3.143 -0.3763  0.1194  0.0964
    3OL    H16R10444   0.584  -0.139   3.246  0.8957  0.8600 -0.4146
    3OL    H16S10445   0.651  -0.160   3.088 -0.5373 -1.0035 -0.3328
    3OL    C11710446   0.496  -0.307   3.131 -0.1606  0.0009  0.3715
    3OL    H17R10447   0.571  -0.373   3.088 -1.8198 -0.4693 -1.9810
    3OL    H17S10448   0.422  -0.310   3.052 -1.9028 -2.8277  1.9265
    3OL    C11810449   0.412  -0.357   3.249 -0.1435 -0.5867  0.1362
    3OL    H18R10450   0.354  -0.445   3.220 -0.3260 -0.6629  0.7102
    3OL    H18S10451   0.346  -0.278   3.287 -1.0240 -0.9658 -0.5679
    3OL    H18T10452   0.482  -0.399   3.321  0.3759 -1.6271 -0.9520
    1PA    C11610453   3.456   1.879   3.690  0.3067 -0.1454 -0.3687
    1PA    H16R10454   3.483   1.978   3.651  1.5567 -0.1403  0.4693
    1PA    H16S10455   3.526   1.869   3.773 -0.5834  0.8816  0.5495
    1PA    H16T10456   3.354   1.881   3.731 -0.0559 -2.7667 -1.0150
    1PA    C11510457   3.474   1.775   3.579  0.0405 -0.6090  0.0203
    1PA    H15R10458   3.572   1.781   3.532 -0.4465  0.1670 -0.9202
    1PA    H15S10459   3.458   1.674   3.618  3.1547 -1.0015  0.5126
    1PA    C11410460   3.382   1.801   3.459  0.0230 -0.0324  0.1549
    1PA    H14R10461   3.403   1.904   3.431  0.7693 -0.3419 -0.4445
    1PA    H14S10462   3.401   1.728   3.380 -1.6720  2.3640 -2.6629
    1PA    C11310463   3.232   1.779   3.487  0.1110 -0.3522  0.3887
    1PA    H13R10464   3.195   1.848   3.563  0.0839 -1.7293  1.6802
    1PA    H13S10465   3.178   1.814   3.399  0.4561 -0.1884  0.2402
    1PA    C11210466   3.189   1.636   3.521 -0.4208 -0.2790  0.0298
    1PA    H12R10467   3.245   1.602   3.608 -2.3604 -3.3979  0.2257
    1PA    H12S10468   3.082   1.639   3.541 -0.6577 -0.5750 -1.0865
    1PA    C11110469   3.204   1.537   3.404  0.2506 -0.0081 -0.1155
    1PA    H11R10470   3.310   1.543   3.377  0.7964  1.1012  2.0799
    1PA    H11S10471   3.193   1.433   3.435  0.8491  0.1970  0.8345
    1PA    C11010472   3.116   1.566   3.282  0.3986  0.1900 -0.1765
    1PA    H10R10473   3.014   1.535   3.308  0.4982 -0.2378 -0.2884
    1PA    H10S10474   3.118   1.671   3.251  3.0767 -0.0735 -1.1093
    1PA     C1910475   3.149   1.489   3.154 -0.5178 -0.1586 -0.2119
    1PA     H9R10476   3.069   1.488   3.080 -1.0806 -3.6543  0.2520
    1PA     H9S10477   3.233   1.539   3.106 -0.7381  0.2075 -0.2180
    1PA     C1810478   3.184   1.340   3.165 -0.0477 -0.0539 -0.2773
    1PA     H8R10479   3.270   1.328   3.232 -1.4699 -0.4660  1.5399
    1PA     H8S10480   3.107   1.271   3.200 -0.3258 -0.9837 -2.5323
    1PA     C1710481   3.231   1.293   3.026  0.3071  0.0251 -0.1864
    1PA     H7R10482   3.299   1.360   2.974 -0.0576  0.7742  0.2840
    1PA     H7S10483   3.291   1.207   3.055  0.0811  0.6959  2.5878
    1PA     C1610484   3.120   1.257   2.926  0.3603  0.3310 -0.3588
    1PA     H6R10485   3.050   1.186   2.972  1.1421  0.4082  1.0113
    1PA     H6S10486   3.064   1.348   2.907  0.6863  0.9365  1.4170
    1PA     C1510487   3.166   1.207   2.789  0.5301  0.2629 -0.2775
    1PA     H5R10488   3.220   1.296   2.753  0.3327  0.5590  0.1468
    1PA     H5S10489   3.228   1.119   2.803  0.7078  0.1362 -1.6512
    1PA     C1410490   3.056   1.160   2.693  0.0631 -0.7194  0.7247
    1PA     H4R10491   2.989   1.093   2.747  0.2194 -0.6584  0.9957
    1PA     H4S10492   2.997   1.246   2.661 -0.8160 -0.8356  1.9455
    1PA     C1310493   3.117   1.088   2.572 -0.0279  0.0589  0.2081
    1PA     H3R10494   3.175   1.168   2.526 -1.6846  0.0405 -2.0609
    1PA     H3S10495   3.186   1.008   2.596  1.0655  0.8619 -0.1879
    1PA     C1210496   3.001   1.049   2.478  0.2352 -0.1055 -0.0508
    1PA     H2R10497   2.952   0.963   2.523 -0.0081 -0.0671 -0.2441
    1PA     H2S10498   2.931   1.133   2.472 -1.1784 -1.3311 -1.4582
    2PC     C1110499   3.050   1.014   2.340  0.3493  0.4269 -0.1498
    2PC     O1210500   2.981   1.036   2.243  0.5336  0.2526 -0.3217
    2PC     O1110501   3.174   0.963   2.347 -0.0638 -0.6541 -0.4746
    2PC      C110502   3.247   0.960   2.223  0.1516  0.3232 -0.3752
    2PC      HR10503   3.188   0.909   2.147 -1.1058  1.1042  0.0535
    2PC      HS10504   3.266   1.059   2.179 -1.1277  0.1451 -1.3844
    2PC      C210505   3.386   0.901   2.250 -0.0044  0.1592  0.0649
    2PC      HX10506   3.435   0.975   2.314  2.0842  0.0736 -1.3164
    2PC      C310507   3.475   0.890   2.125  0.2034 -0.2127  0.2426
    2PC      HA10508   3.485   0.987   2.077 -0.5584  1.6734  3.5355
    2PC      HB10509   3.572   0.852   2.159 -0.3409 -1.7222  0.1801
    2PC     O3110510   3.420   0.791   2.037 -0.3893  0.2865  0.0480
    2PC     P3110511   3.460   0.797   1.882  0.0760 -0.2556  0.1450
    2PC     O3210512   3.387   0.668   1.822 -0.0386 -0.1218 -0.0039
    2PC     C3110513   3.244   0.659   1.838 -0.0038 -0.3523  0.1829
    2PC     H1A10514   3.222   0.638   1.943  2.2568 -1.0820  0.5608
    2PC     H1B10515   3.190   0.751   1.813 -2.8800 -1.2184  2.6127
    2PC     C3210516   3.196   0.539   1.755  0.1082 -0.2445 -0.0414
    2PC     H2A10517   3.229   0.457   1.819  2.9173  0.4626 -0.4522
    2PC     H2B10518   3.087   0.545   1.756  0.1136  2.5307 -2.9478
    2PC     N3110519   3.240   0.513   1.614  0.0944 -0.3335 -0.0295
    2PC     C3310520   3.170   0.392   1.560  0.0285 -0.3150  0.0128
    2PC     H3A10521   3.214   0.362   1.464 -0.2391  0.7164 -0.4433
    2PC     H3B10522   3.185   0.315   1.636 -0.8866  0.3343  0.8835
    2PC     H3C10523   3.062   0.402   1.564  0.0332 -0.6037  1.5983
    2PC     C3410524   3.205   0.637   1.537  0.6063 -0.2591 -0.1411
    2PC     H4A10525   3.203   0.620   1.429 -1.4462 -0.6530 -0.0771
    2PC     H4B10526   3.111   0.673   1.577 -0.4247 -2.0337 -0.8373
    2PC     H4C10527   3.283   0.707   1.570 -0.2269  0.8527 -0.4919
    2PC     C3510528   3.386   0.481   1.614  0.1535 -0.0705  0.2225
    2PC     H5A10529   3.442   0.572   1.636  0.1441  0.4455 -1.6895
    2PC     H5B10530   3.410   0.461   1.509  1.4171  0.8040  0.3185
    2PC     H5C10531   3.414   0.404   1.685 -0.4259  0.4703  1.0498
    2PC     O3310532   3.396   0.921   1.833 -0.0278 -0.1148  0.6400
    2PC     O3410533   3.603   0.805   1.844  0.0337 -0.2702 -0.0189
    2PC     O2110534   3.372   0.772   2.313  0.0667  0.1440  0.0494
    2PC     C2110535   3.364   0.768   2.447  0.0406  0.2145  0.0497
    2PC     O2210536   3.428   0.844   2.516  0.1219  0.1855  0.0073
    3OL     C1210537   3.289   0.649   2.500  0.4560 -0.0692  0.0067
    3OL     H2R10538   3.289   0.563   2.433  3.0398  1.4262 -2.1182
    3OL     H2S10539   3.184   0.678   2.501  0.1648 -0.9431 -1.6435
    3OL     C1310540   3.318   0.621   2.648 -0.5886  0.0599  0.2473
    3OL     H3R10541   3.240   0.552   2.681 -2.5059  1.1404 -1.7955
    3OL     H3S10542   3.311   0.718   2.698 -1.1276  1.0986 -1.7322
    3OL     C1410543   3.462   0.576   2.678 -0.4026  0.5137  0.0455
    3OL     H4R10544   3.541   0.636   2.633  1.3290 -0.4159  1.7213
    3OL     H4S10545   3.474   0.477   2.634  2.2525  0.9738 -0.4460
    3OL     C1510546   3.485   0.564   2.829 -0.3551  0.2830  0.0202
    3OL     H5R10547   3.580   0.511   2.832  0.1345  1.0037 -1.7148
    3OL     H5S10548   3.392   0.520   2.867 -0.4066  1.3333  1.1788
    3OL     C1610549   3.510   0.700   2.895 -0.2141  0.1927  0.1533
    3OL     H6R10550   3.413   0.750   2.893 -0.2685  0.0804 -1.3746
    3OL     H6S10551   3.586   0.754   2.838 -1.6520  0.2315 -1.8109
    3OL     C1710552   3.562   0.676   3.038  0.9464 -0.3755 -0.3503
    3OL     H7R10553   3.651   0.612   3.036  0.2239 -1.6307  2.3904
    3OL     H7S10554   3.493   0.618   3.099  0.1998 -0.3491 -1.1460
    3OL     C1810555   3.591   0.809   3.110 -0.2896  0.1155 -0.7276
    3OL     H8R10556   3.516   0.886   3.093 -0.6941  0.0531  0.6553
    3OL     H8S10557   3.685   0.848   3.070  1.1838 -1.5538  0.9313
    3OL     C1910558   3.609   0.797   3.259 -0.6971  0.2620 -0.6654
    3OL     H9R10559   3.711   0.793   3.296 -0.5794 -0.8812 -1.0600
    3OL    C11010560   3.511   0.790   3.348 -0.1949 -0.7015 -0.1682
    3OL    H10R10561   3.530   0.796   3.455 -1.3057  0.5592 -0.0150
    3OL    C11110562   3.366   0.789   3.307 -0.2493  0.4486 -0.0369
    3OL    H11R10563   3.344   0.693   3.260  0.3063  0.0538  0.5058
    3OL    H11S10564   3.336   0.870   3.240 -1.0603 -1.6402 -2.3604
    3OL    C11210565   3.286   0.797   3.438 -0.3825  0.0254 -0.0914
    3OL    H12R10566   3.182   0.825   3.420 -0.8130 -1.4630 -0.0224
    3OL    H12S10567   3.331   0.875   3.500  0.8213 -0.9763  0.3514
    3OL    C11310568   3.284   0.664   3.514 -0.1845  0.1732  0.1744
    3OL    H13R10569   3.383   0.623   3.538 -0.6328 -1.1961 -0.2111
    3OL    H13S10570   3.241   0.582   3.456 -2.0178  0.6271  0.8500
    3OL    C11410571   3.218   0.691   3.650 -0.1927 -0.2918  0.2641
    3OL    H14R10572   3.130   0.752   3.632  0.4993  0.3166 -1.2504
    3OL    H14S10573   3.282   0.765   3.699 -0.1698 -1.2547  1.7475
    3OL    C11510574   3.199   0.575   3.749  0.6517 -0.0641  0.7018
    3OL    H15R10575   3.133   0.611   3.828  1.4498  1.3601  0.7605
    3OL    H15S10576   3.294   0.555   3.800  0.2542  0.5510  1.7235
    3OL    C11610577   3.128   0.450   3.697 -0.1220  0.5250  0.3237
    3OL    H16R10578   3.203   0.398   3.637 -1.9736 -0.5759 -1.1810
    3OL    H16S10579   3.039   0.483   3.643 -0.5458  1.5009  1.5638
    3OL    C11710580   3.085   0.354   3.809 -0.4947 -0.0259 -0.2773
    3OL    H17R10581   3.024   0.269   3.780 -3.9999  1.9441  0.7720
    3OL    H17S10582   3.016   0.395   3.884 -2.5788 -2.4182 -0.7647
    3OL    C11810583   3.211   0.291   3.871 -0.5826  0.0022 -0.0693
    3OL    H18R10584   3.268   0.370   3.921  0.4122  0.8035 -2.3661
    3OL    H18S10585   3.283   0.247   3.802 -1.0149 -1.4340  0.3799
    3OL    H18T10586   3.183   0.230   3.957 -0.1901  1.2406  0.9770
    1PA    C11610587   0.927   2.278   4.128 -0.3870  0.1848  0.3786
    1PA    H16R10588   0.987   2.292   4.038 -1.8770  1.5869 -0.4470
    1PA    H16S10589   0.996   2.290   4.212 -0.7972 -0.4683  0.8161
    1PA    H16T10590   0.845   2.349   4.133 -0.4905 -0.0212  2.0146
    1PA    C11510591   0.882   2.131   4.124 -0.2944  0.1740 -0.5845
    1PA    H15R10592   0.972   2.070   4.123 -0.6845 -0.5485  1.6367
    1PA    H15S10593   0.821   2.109   4.212  0.5840  0.1253  0.0214
    1PA    C11410594   0.804   2.106   3.994  0.1172  0.0410 -0.8071
    1PA    H14R10595   0.876   2.142   3.921  1.3582  1.5357  1.0415
    1PA    H14S10596   0.785   2.001   3.976 -0.4145 -0.1762  0.8310
    1PA    C11310597   0.673   2.186   3.983 -0.1099 -0.2899 -0.5136
    1PA    H13R10598   0.634   2.199   4.084  0.5288 -0.3319 -0.2571
    1PA    H13S10599   0.695   2.283   3.939  0.2403  0.6480  1.5970
    1PA    C11210600   0.563   2.117   3.901 -0.0723 -0.8355 -0.1129
    1PA    H12R10601   0.550   2.017   3.945 -0.3984 -0.4348  0.7177
    1PA    H12S10602   0.469   2.170   3.919  0.5148  0.3344 -0.4078
    1PA    C11110603   0.600   2.120   3.752  0.1567  0.1294 -0.0424
    1PA    H11R10604   0.590   2.225   3.722 -2.3387 -0.0906 -0.1994
    1PA    H11S10605   0.703   2.089   3.733  0.4382  1.6016 -1.0422
    1PA    C11010606   0.498   2.036   3.672  0.0598  0.4074 -0.2122
    1PA    H10R10607   0.472   1.938   3.712 -1.1594 -0.1279 -2.2261
    1PA    H10S10608   0.411   2.102   3.668 -0.6372 -0.4734  0.1473
    1PA     C1910609   0.553   2.013   3.531 -0.1282 -0.5576 -0.1304
    1PA     H9R10610   0.557   2.107   3.475 -0.9319  0.4238  1.3918
    1PA     H9S10611   0.649   1.964   3.541 -0.4515 -1.1805 -0.0111
    1PA     C1810612   0.452   1.925   3.456 -0.7193  0.3171 -0.3800
    1PA     H8R10613   0.453   1.836   3.520 -0.8018 -0.0560 -0.8916
    1PA     H8S10614   0.355   1.974   3.443 -0.3394  0.6710 -2.0492
    1PA     C1710615   0.499   1.881   3.316  0.3585  0.3415 -0.0325
    1PA     H7R10616   0.586   1.816   3.325 -0.1340 -0.6353 -1.8877
    1PA     H7S10617   0.418   1.819   3.276 -0.1213 -0.3292  1.8436
    1PA     C1610618   0.526   1.990   3.212  0.1772  0.0719 -0.3643
    1PA     H6R10619   0.608   2.051   3.250  0.7746 -0.8343 -0.1872
    1PA     H6S10620   0.562   1.943   3.121 -1.8236 -2.4149  0.0218
    1PA     C1510621   0.411   2.087   3.180  0.1570  0.0425 -0.3816
    1PA     H5R10622   0.348   2.099   3.269  1.6582 -0.2817  0.7685
    1PA     H5S10623   0.441   2.185   3.142 -0.3022  0.4268  0.2212
    1PA     C1410624   0.331   2.013   3.072  0.2777 -0.0262 -0.4236
    1PA     H4R10625   0.340   1.904   3.069  0.7478 -0.0033  0.0008
    1PA     H4S10626   0.224   2.031   3.077  0.2016 -0.2011 -1.3126
    1PA     C1310627   0.376   2.063   2.934  0.2521  0.1273 -0.3770
    1PA     H3R10628   0.362   2.170   2.919  0.9783 -0.0674 -3.0223
    1PA     H3S10629   0.483   2.044   2.923  0.0796 -1.5260  0.4062
    1PA     C1210630   0.299   1.982   2.828  0.1977 -0.2358 -0.0626
    1PA     H2R10631   0.318   1.875   2.837  0.9624  0.0517  2.5661
    1PA     H2S10632   0.191   1.989   2.836  0.1241 -1.8161  0.7143
    2PC     C1110633   0.361   2.014   2.695 -0.0191 -0.1987 -0.1548
    2PC     O1210634   0.465   1.981   2.641 -0.0201  0.0366 -0.3020
    2PC     O1110635   0.269   2.091   2.635  0.1272  0.2811  0.2406
    2PC      C110636   0.269   2.148   2.503 -1.2334  0.0513  0.1264
    2PC      HR10637   0.197   2.230   2.490 -2.3075 -1.0870 -1.3600
    2PC      HS10638   0.370   2.188   2.492 -1.1176  0.3046  1.8740
    2PC      C210639   0.246   2.036   2.402 -0.3399 -0.1150  0.0946
    2PC      HX10640   0.313   1.953   2.424  1.7201  1.6622  0.8181
    2PC      C310641   0.284   2.077   2.259 -0.6672 -0.5957 -0.1355
    2PC      HA10642   0.391   2.102   2.257 -0.7487 -0.2347 -0.0386
    2PC      HB10643   0.271   1.985   2.201 -2.0868 -0.8721  0.5852
    2PC     O3110644   0.202   2.184   2.210  0.3127  0.3125  0.1817
    2PC     P3110645   0.215   2.232   2.057 -0.3582 -0.1185 -0.0134
    2PC     O3210646   0.153   2.112   1.972  0.2138 -0.1553 -0.3850
    2PC     C3110647   0.144   2.129   1.830  0.3747 -0.2381 -0.4047
    2PC     H1A10648   0.087   2.218   1.803 -1.1974 -1.5959 -1.7415
    2PC     H1B10649   0.243   2.146   1.785  1.5422 -4.0709  0.3629
    2PC     C3210650   0.098   2.003   1.756 -0.4409  0.2014 -0.6560
    2PC     H2A10651   0.085   2.029   1.651 -3.6997  0.9054 -0.2036
    2PC     H2B10652   0.173   1.923   1.758 -2.2946 -1.6845  2.6817
    2PC     N3110653  -0.031   1.934   1.790 -0.3684  0.3395 -0.0968
    2PC     C3310654  -0.071   1.835   1.686  0.2901 -0.1038  0.0635
    2PC     H3A10655  -0.160   1.788   1.729  0.3010  0.7460  1.0517
    2PC     H3B10656  -0.082   1.887   1.591 -0.0200  0.1673  0.2467
    2PC     H3C10657   0.011   1.766   1.669  1.5764  1.1967  0.7988
    2PC     C3410658  -0.015   1.864   1.922  0.9790  0.4999 -0.1597
    2PC     H4A10659   0.009   1.937   1.999  0.2606 -1.0642  1.6177
    2PC     H4B10660  -0.104   1.804   1.943  0.4831  1.2498 -0.0390
    2PC     H4C10661   0.069   1.794   1.921  0.8988  0.2806  2.3061
    2PC     C3510662  -0.144   2.031   1.804 -0.5517  0.1170 -0.0271
    2PC     H5A10663  -0.125   2.100   1.887 -2.3720 -0.8887  1.3053
    2PC     H5B10664  -0.238   1.980   1.828 -0.2436 -0.6186 -0.3620
    2PC     H5C10665  -0.155   2.084   1.709  3.7735  0.9590 -0.2419
    2PC     O3310666   0.122   2.342   2.023 -0.2372 -0.0769 -0.2097
    2PC     O3410667   0.346   2.287   2.015 -0.1500 -0.3978  0.2703
    2PC     O2110668   0.111   1.987   2.390 -0.5174  0.2210  0.7123
    2PC     C2110669   0.071   1.888   2.472 -0.1658 -0.5823 -0.0727
    2PC     O2210670   0.138   1.811   2.538  0.0635  0.1841  0.6114
    3OL     C1210671  -0.078   1.869   2.466 -0.2743  0.1651  0.2165
    3OL     H2R10672  -0.098   1.762   2.468 -1.6322  0.2994 -2.0466
    3OL     H2S10673  -0.124   1.902   2.372 -1.3971  0.5457  0.8811
    3OL     C1310674  -0.156   1.936   2.580 -0.4168  0.5946 -0.1269
    3OL     H3R10675  -0.255   1.889   2.578 -0.4752  0.7420 -1.7564
    3OL     H3S10676  -0.170   2.044   2.570 -0.6934  0.6635  0.8608
    3OL     C1410677  -0.095   1.921   2.720 -0.4432 -0.7119 -0.2417
    3OL     H4R10678   0.008   1.957   2.713 -0.6754  0.1747  0.6448
    3OL     H4S10679  -0.091   1.820   2.761 -1.3511 -0.1520  1.3127
    3OL     C1510680  -0.157   2.005   2.833  0.1731 -0.4893 -0.0641
    3OL     H5R10681  -0.263   1.983   2.845  0.1802  0.0403  1.0591
    3OL     H5S10682  -0.162   2.110   2.803  0.5778 -0.1414  1.0609
    3OL     C1610683  -0.084   1.971   2.963 -0.0676 -0.0086  0.1989
    3OL     H6R10684   0.021   2.001   2.956 -0.6306  2.0976  0.1699
    3OL     H6S10685  -0.096   1.863   2.968 -0.6815 -0.2823 -3.9291
    3OL     C1710686  -0.149   2.047   3.080 -0.2326 -0.0611  0.1421
    3OL     H7R10687  -0.249   2.011   3.102  0.3651 -0.9951  1.4195
    3OL     H7S10688  -0.147   2.153   3.051  1.1376  0.0809  0.6722
    3OL     C1810689  -0.067   2.046   3.209  0.2530 -0.0157 -0.1622
    3OL     H8R10690   0.021   2.109   3.192 -1.1986  2.3479  0.5140
    3OL     H8S10691  -0.042   1.943   3.234  1.1193  0.0687 -0.6428
    3OL     C1910692  -0.145   2.114   3.319  0.0078 -0.6190  0.0416
    3OL     H9R10693  -0.129   2.221   3.330  0.3955 -0.8999  3.1118
    3OL    C11010694  -0.231   2.059   3.403 -0.5042 -0.1048 -0.1356
    3OL    H10R10695  -0.295   2.119   3.466 -0.6274  0.6432 -0.9541
    3OL    C11110696  -0.248   1.909   3.409  0.5959 -0.2493 -0.3592
    3OL    H11R10697  -0.213   1.861   3.318  0.8905 -0.3885 -0.1738
    3OL    H11S10698  -0.356   1.899   3.403  0.5035  0.7571 -0.5009
    3OL    C11210699  -0.185   1.853   3.537 -0.0332  0.1882  0.1485
    3OL    H12R10700  -0.192   1.744   3.530 -2.3829  0.1369  1.9859
    3OL    H12S10701  -0.249   1.871   3.624 -1.9814 -2.6118 -0.5562
    3OL    C11310702  -0.039   1.894   3.565 -0.0552  0.1924  0.2611
    3OL    H13R10703  -0.032   2.001   3.586  0.0670  0.4301 -0.9206
    3OL    H13S10704   0.020   1.882   3.474 -0.5366  1.1597 -0.1908
    3OL    C11410705   0.023   1.814   3.680  0.2214 -0.3031 -0.2288
    3OL    H14R10706   0.032   1.710   3.648  0.1676 -0.4706  0.2881
    3OL    H14S10707  -0.047   1.809   3.764  0.6577 -0.3578  0.1317
    3OL    C11510708   0.160   1.866   3.723  0.0227 -0.0116  0.0584
    3OL    H15R10709   0.146   1.965   3.767 -1.4428  0.1844 -0.7702
    3OL    H15S10710   0.227   1.875   3.637  0.5979  2.6034  0.6900
    3OL    C11610711   0.227   1.760   3.812 -0.0937 -0.3386 -0.2418
    3OL    H16R10712   0.335   1.776   3.806 -0.3077  1.2184 -0.5360
    3OL    H16S10713   0.217   1.662   3.764  3.6074 -0.3010 -1.3659
    3OL    C11710714   0.195   1.773   3.961 -0.3698 -0.2367 -0.3094
    3OL    H17R10715   0.086   1.764   3.969 -0.5541  1.8601  0.1597
    3OL    H17S10716   0.221   1.867   4.010 -2.6302  0.4742 -0.3474
    3OL    C11810717   0.266   1.660   4.037  0.0157  0.3483  0.2137
    3OL    H18R10718   0.375   1.662   4.026 -0.0947  1.1814 -1.0065
    3OL    H18S10719   0.234   1.558   4.018 -0.1752  0.6435 -1.1952
    3OL    H18T10720   0.247   1.666   4.144  0.0303  0.4050  0.2128
    1PA    C11610721   4.999   3.922   4.146  0.3689 -0.0964  0.2768
    1PA    H16R10722   4.934   3.899   4.061  1.0150 -2.1053  0.2698
    1PA    H16S10723   4.929   3.978   4.208  1.6543  1.6811  0.2051
    1PA    H16T10724   5.035   3.833   4.197  0.3612 -0.1655  0.1630
    1PA    C11510725   5.109   4.025   4.113  0.3864 -0.2675 -0.2134
    1PA    H15R10726   5.077   4.117   4.064  0.2045 -1.3451 -2.2276
    1PA    H15S10727   5.155   4.059   4.206 -1.4306 -1.5099  1.2358
    1PA    C11410728   5.220   3.967   4.026  0.5182 -0.4654  0.0841
    1PA    H14R10729   5.257   3.874   4.070  0.0635 -1.3090 -1.2581
    1PA    H14S10730   5.180   3.927   3.932  1.5575 -1.8866  0.2030
    1PA    C11310731   5.333   4.069   4.006 -0.0964  0.1794 -0.1371
    1PA    H13R10732   5.349   4.118   4.103 -0.5290 -2.9186  1.6407
    1PA    H13S10733   5.427   4.021   3.980  0.7754  0.1839  2.6038
    1PA    C11210734   5.299   4.174   3.900  0.5699  0.2238 -0.3089
    1PA    H12R10735   5.198   4.211   3.915  0.8214  1.3304 -1.1686
    1PA    H12S10736   5.373   4.255   3.905  2.1130 -1.1108 -0.5701
    1PA    C11110737   5.297   4.114   3.759  0.9010  0.4039 -0.3928
    1PA    H11R10738   5.392   4.061   3.747  1.2189  0.6596  0.8634
    1PA    H11S10739   5.222   4.035   3.754 -0.6878  1.8767 -0.5825
    1PA    C11010740   5.279   4.211   3.641 -0.2479  0.3292 -0.2869
    1PA    H10R10741   5.193   4.277   3.651  0.1734  0.9710 -0.8406
    1PA    H10S10742   5.369   4.272   3.637  0.4475 -0.5290  1.3298
    1PA     C1910743   5.249   4.141   3.508 -0.1127  0.1467 -0.2226
    1PA     H9R10744   5.159   4.081   3.518 -0.9984  1.3950 -0.4389
    1PA     H9S10745   5.224   4.217   3.433 -0.3034  0.2770 -0.0262
    1PA     C1810746   5.367   4.059   3.454 -0.0515  0.5795 -0.7633
    1PA     H8R10747   5.451   4.126   3.438  1.2314 -0.7947 -0.0102
    1PA     H8S10748   5.408   3.992   3.530  0.1021 -1.2189 -2.3391
    1PA     C1710749   5.332   3.983   3.325 -0.1878 -0.5882 -0.0515
    1PA     H7R10750   5.404   3.903   3.303  0.5168  0.3294 -1.1806
    1PA     H7S10751   5.237   3.930   3.332 -0.3120 -0.6847 -2.0036
    1PA     C1610752   5.318   4.083   3.210 -0.2089 -0.2407  0.2502
    1PA     H6R10753   5.224   4.136   3.223 -0.3758 -0.3922 -0.2808
    1PA     H6S10754   5.395   4.159   3.214  0.8568 -1.2260 -0.6853
    1PA     C1510755   5.321   4.010   3.074 -0.1789  0.1085  0.0634
    1PA     H5R10756   5.275   3.914   3.096  1.1736 -0.1065  2.2265
    1PA     H5S10757   5.265   4.071   3.003  0.4063  0.2049 -0.3189
    1PA     C1410758   5.461   3.979   3.020 -0.1790  0.5765 -0.2134
    1PA     H4R10759   5.506   4.073   2.989  2.6769 -0.7620 -0.4347
    1PA     H4S10760   5.518   3.934   3.102  1.0456  1.7391 -0.3827
    1PA     C1310761   5.461   3.898   2.889  0.2428  0.5416 -0.1931
    1PA     H3R10762   5.566   3.872   2.875  0.5865  2.2764 -1.0890
    1PA     H3S10763   5.401   3.807   2.887  0.9154  0.0930 -1.7190
    1PA     C1210764   5.419   3.977   2.764  0.4965  0.6593 -0.2061
    1PA     H2R10765   5.331   4.034   2.794 -0.5661  0.2775 -2.3927
    1PA     H2S10766   5.489   4.053   2.729  1.0950  0.1471 -0.1394
    2PC     C1110767   5.394   3.885   2.648 -0.3074  0.2787  0.2541
    2PC     O1210768   5.286   3.876   2.594 -0.1371  0.6312 -0.1528
    2PC     O1110769   5.493   3.794   2.631 -0.5778 -0.1451  0.9095
    2PC      C110770   5.479   3.677   2.549  0.2990  0.2346  0.2038
    2PC      HR10771   5.376   3.660   2.517  0.0484 -0.5766  1.3597
    2PC      HS10772   5.531   3.693   2.454  0.3883 -0.1838  0.1775
    2PC      C210773   5.534   3.552   2.620 -0.6374 -0.2595  0.0797
    2PC      HX10774   5.643   3.563   2.618 -0.7299  1.3806  1.3722
    2PC      C310775   5.498   3.419   2.552  0.3056 -0.5855  0.2050
    2PC      HA10776   5.530   3.338   2.619  2.2238 -0.5743 -0.6261
    2PC      HB10777   5.391   3.433   2.539  0.2665 -0.2622  0.7997
    2PC     O3110778   5.562   3.418   2.424  0.5179 -0.2297  0.3054
    2PC     P3110779   5.494   3.315   2.322  0.0028 -0.0040  0.4224
    2PC     O3210780   5.348   3.381   2.328  0.0753  0.1632  0.3544
    2PC     C3110781   5.284   3.395   2.200  0.6909  0.2923  0.0601
    2PC     H1A10782   5.349   3.453   2.133  0.9019  0.9431  0.8213
    2PC     H1B10783   5.262   3.294   2.163  2.3284 -0.4578  1.0475
    2PC     C3210784   5.151   3.467   2.226  0.1931 -0.4814 -0.3164
    2PC     H2A10785   5.166   3.572   2.249  0.3357 -0.4882 -0.3806
    2PC     H2B10786   5.083   3.468   2.140  0.4353  1.2652 -0.5248
    2PC     N3110787   5.067   3.406   2.334  0.3070  0.0600  0.0810
    2PC     C3310788   4.927   3.458   2.323  0.4920  0.5251 -0.0881
    2PC     H3A10789   4.921   3.565   2.303 -0.3893  0.5748  0.3816
    2PC     H3B10790   4.892   3.399   2.238  0.5429 -0.7217  0.7397
    2PC     H3C10791   4.884   3.434   2.420 -1.3285  4.4983  0.3116
    2PC     C3410792   5.053   3.257   2.327  0.9147 -0.0382  0.8329
    2PC     H4A10793   4.992   3.238   2.238  2.0962  3.4480 -0.8998
    2PC     H4B10794   5.148   3.204   2.319 -0.0579 -1.5830 -2.4935
    2PC     H4C10795   4.992   3.219   2.410 -0.8737  3.2677  1.1998
    2PC     C3510796   5.113   3.434   2.473  0.7143  0.0327 -0.0487
    2PC     H5A10797   5.130   3.541   2.491 -3.1817  0.4324  2.4637
    2PC     H5B10798   5.199   3.368   2.486  1.4435  0.9771  0.0569
    2PC     H5C10799   5.029   3.408   2.537 -1.7926  0.2579 -3.0580
    2PC     O3310800   5.545   3.332   2.185  0.1210 -0.4786  0.4051
    2PC     O3410801   5.500   3.171   2.357 -0.2390 -0.4150 -1.1542
    2PC     O2110802   5.500   3.561   2.759  0.1117  0.0422  0.2500
    2PC     C2110803   5.549   3.478   2.853  0.0710  0.2815  0.4858
    2PC     O2210804   5.639   3.400   2.829  0.0683  0.4363 -0.0470
    3OL     C1210805   5.472   3.481   2.982 -0.3886 -0.5286  0.2382
    3OL     H2R10806   5.372   3.505   2.947  0.6182 -0.0021 -2.5280
    3OL     H2S10807   5.514   3.561   3.044 -0.8978  0.9327 -1.2358
    3OL     C1310808   5.471   3.343   3.051 -0.0291 -0.6096  0.0850
    3OL     H3R10809   5.404   3.348   3.137 -1.3523 -0.6289 -0.9178
    3OL     H3S10810   5.566   3.313   3.096 -1.3997 -2.3367  1.9933
    3OL     C1410811   5.414   3.228   2.967  0.0919 -0.2656 -0.4746
    3OL     H4R10812   5.483   3.211   2.884  0.7483 -1.5463  0.3002
    3OL     H4S10813   5.321   3.265   2.924  1.1903  3.4128 -0.0515
    3OL     C1510814   5.410   3.096   3.045  0.0432  0.3334  0.5583
    3OL     H5R10815   5.344   3.085   3.131  1.3542 -0.2156  1.5181
    3OL     H5S10816   5.507   3.083   3.093  0.5351 -0.6112 -0.6270
    3OL     C1610817   5.383   2.980   2.947 -0.1840  0.7140  0.1652
    3OL     H6R10818   5.414   2.885   2.990 -0.1087 -0.7565 -2.8753
    3OL     H6S10819   5.445   2.992   2.859  0.4825  0.6067  0.6158
    3OL     C1710820   5.234   2.976   2.911 -0.1307 -0.1415  0.0278
    3OL     H7R10821   5.191   3.074   2.888 -1.2829 -0.3336  1.2834
    3OL     H7S10822   5.183   2.953   3.005 -3.8833  1.3533 -1.4348
    3OL     C1810823   5.201   2.869   2.805 -0.3263  0.1806 -0.2387
    3OL     H8R10824   5.275   2.790   2.817  2.0720  2.4474  1.0797
    3OL     H8S10825   5.232   2.914   2.710 -0.2280 -0.2918 -0.4298
    3OL     C1910826   5.061   2.813   2.799 -0.1733 -0.2769  0.3510
    3OL     H9R10827   5.052   2.705   2.792 -0.9910 -0.1512 -0.7874
    3OL    C11010828   4.948   2.882   2.811  0.1749  0.2779  0.5009
    3OL    H10R10829   4.858   2.821   2.808 -0.2935  0.9481 -2.9367
    3OL    C11110830   4.934   3.031   2.804 -0.2748  0.2157  0.0470
    3OL    H11R10831   4.854   3.051   2.733 -0.3112 -0.8563 -0.2251
    3OL    H11S10832   5.024   3.071   2.756  0.1553 -0.7322  0.0470
    3OL    C11210833   4.894   3.098   2.936 -0.5378  0.2801 -0.0657
    3OL    H12R10834   4.947   3.051   3.019 -0.6990  0.8306  0.3558
    3OL    H12S10835   4.787   3.080   2.953 -0.3119  0.1274  1.2498
    3OL    C11310836   4.931   3.247   2.944  0.1250  0.1312 -0.3170
    3OL    H13R10837   5.035   3.262   2.917 -0.1683 -1.7356 -2.8626
    3OL    H13S10838   4.916   3.266   3.050  0.4175  0.2535 -0.2978
    3OL    C11410839   4.830   3.333   2.866 -0.1102  0.0152 -0.1416
    3OL    H14R10840   4.760   3.362   2.944  0.9206 -0.2008  0.9017
    3OL    H14S10841   4.777   3.275   2.790  0.9709  0.2281 -1.0935
    3OL    C11510842   4.884   3.454   2.788  0.1619  0.1860  0.3078
    3OL    H15R10843   4.815   3.501   2.719  1.3380 -0.8621 -1.6679
    3OL    H15S10844   4.968   3.433   2.722  1.1463 -0.0159  1.5665
    3OL    C11610845   4.931   3.563   2.885  0.2625  0.4158 -0.0003
    3OL    H16R10846   5.018   3.522   2.936  0.5418  0.1576 -0.6770
    3OL    H16S10847   4.852   3.587   2.957  0.3715  1.0302 -0.0730
    3OL    C11710848   4.975   3.695   2.819  1.0384 -0.0162 -0.3508
    3OL    H17R10849   4.886   3.736   2.771  0.4402 -0.2804  0.5050
    3OL    H17S10850   5.045   3.682   2.736 -1.2028 -2.6710 -2.0187
    3OL    C11810851   5.032   3.798   2.918  0.4065 -0.3453  0.3603
    3OL    H18R10852   4.983   3.814   3.015 -2.6353  1.7838 -1.3559
    3OL    H18S10853   5.035   3.893   2.865  1.9863 -0.6492 -0.1335
    3OL    H18T10854   5.131   3.755   2.930  0.5558  0.1843  1.0610
    1PA    C11610855   6.373   1.465   3.762 -0.7583 -0.0020  0.2809
    1PA    H16R10856   6.339   1.544   3.829  2.3703  2.2198 -0.5480
    1PA    H16S10857   6.480   1.486   3.756 -1.0798  2.2070  1.1879
    1PA    H16T10858   6.345   1.375   3.816 -2.1848  0.6148  0.6163
    1PA    C11510859   6.301   1.475   3.627  0.5774 -0.2551 -0.4664
    1PA    H15R10860   6.340   1.565   3.577  0.2315  1.4394  2.1528
    1PA    H15S10861   6.328   1.385   3.572  0.1963 -1.1742  0.8062
    1PA    C11410862   6.149   1.498   3.624  0.5746 -0.2023  0.0246
    1PA    H14R10863   6.102   1.441   3.704 -1.8971 -1.0571 -1.9142
    1PA    H14S10864   6.122   1.604   3.633  1.3824  0.1935 -1.7373
    1PA    C11310865   6.082   1.441   3.498  0.1050 -0.4331  0.3763
    1PA    H13R10866   6.131   1.352   3.458  0.3140  1.0774 -3.0949
    1PA    H13S10867   5.979   1.413   3.522  0.8505 -2.5723  1.2790
    1PA    C11210868   6.067   1.538   3.380  0.5478 -0.6992  0.0983
    1PA    H12R10869   6.014   1.626   3.418 -0.3445 -0.2528 -2.0272
    1PA    H12S10870   6.163   1.583   3.351  0.3435 -0.0328  0.4353
    1PA    C11110871   5.986   1.481   3.263  0.0603 -0.3338  0.2556
    1PA    H11R10872   6.036   1.393   3.223  0.3498 -0.1018  0.1003
    1PA    H11S10873   5.888   1.458   3.307 -0.5777  0.7557 -0.5354
    1PA    C11010874   5.949   1.590   3.162  0.8276 -0.4194 -0.1224
    1PA    H10R10875   5.853   1.567   3.115  0.0768 -1.3179  1.7785
    1PA    H10S10876   5.941   1.683   3.219  0.8775  0.0031 -0.7849
    1PA     C1910877   6.050   1.603   3.047  0.3999 -0.6612 -0.5316
    1PA     H9R10878   6.149   1.615   3.092  0.4039  1.6575 -1.0582
    1PA     H9S10879   6.063   1.508   2.995  2.6265  0.1861 -1.6782
    1PA     C1810880   6.024   1.706   2.936 -0.0109 -0.5131 -0.2976
    1PA     H8R10881   5.973   1.793   2.979 -0.0248 -0.8667  0.4279
    1PA     H8S10882   6.118   1.732   2.888 -0.5687  0.5890 -0.8168
    1PA     C1710883   5.936   1.657   2.820 -0.1236 -0.3044 -0.3004
    1PA     H7R10884   5.981   1.566   2.781 -0.3170 -0.3259 -0.4729
    1PA     H7S10885   5.835   1.627   2.851 -0.4581  1.9441  1.0191
    1PA     C1610886   5.934   1.772   2.719  0.1928 -0.0941 -0.0660
    1PA     H6R10887   5.909   1.862   2.777 -1.2490 -0.9356  0.6679
    1PA     H6S10888   6.037   1.786   2.686  0.9139  0.6990  2.2835
    1PA     C1510889   5.834   1.735   2.609 -0.2697  0.4247  0.1733
    1PA     H5R10890   5.873   1.641   2.570  0.2546  0.0117  1.6115
    1PA     H5S10891   5.738   1.718   2.659 -0.0483  0.3952  0.5947
    1PA     C1410892   5.845   1.850   2.509  0.5248  0.4909  0.3342
    1PA     H4R10893   5.776   1.929   2.539  0.1298  0.2556  0.0398
    1PA     H4S10894   5.947   1.888   2.498 -0.0628  2.1284  0.2675
    1PA     C1310895   5.793   1.813   2.370  0.2400 -0.0553  0.5818
    1PA     H3R10896   5.834   1.716   2.342  1.7648  0.6095  0.3935
    1PA     H3S10897   5.685   1.804   2.363  0.1173 -1.0628  3.0545
    1PA     C1210898   5.842   1.918   2.269  0.0236 -0.3227  0.1977
    1PA     H2R10899   5.844   2.017   2.316 -1.6594 -0.1561 -0.0136
    1PA     H2S10900   5.943   1.902   2.232  1.6680  0.1140  4.0974
    2PC     C1110901   5.752   1.927   2.147  0.7628 -0.3165 -0.3552
    2PC     O1210902   5.752   2.021   2.071  0.3957 -0.0045  0.0232
    2PC     O1110903   5.677   1.817   2.125 -0.0161  0.1351  0.0011
    2PC      C110904   5.591   1.815   2.010 -0.0687  0.7202  0.0245
    2PC      HR10905   5.524   1.900   2.000 -2.3848 -0.8210  1.4760
    2PC      HS10906   5.649   1.798   1.919  2.3836 -2.3364  1.9244
    2PC      C210907   5.501   1.690   2.013 -0.1428  0.7624 -0.3883
    2PC      HX10908   5.575   1.610   2.022 -1.0933 -0.1509 -0.5466
    2PC      C310909   5.417   1.659   1.889 -0.4735  0.0348  0.0096
    2PC      HA10910   5.356   1.569   1.903 -0.7300  0.3236  0.7846
    2PC      HB10911   5.344   1.741   1.888 -0.3911  0.2490  2.9869
    2PC     O3110912   5.500   1.659   1.771 -0.2188  0.2118  0.1867
    2PC     P3110913   5.429   1.631   1.630  0.1266  0.3187 -0.0085
    2PC     O3210914   5.558   1.592   1.544  0.0767  0.1032  0.0129
    2PC     C3110915   5.612   1.463   1.577  0.2784 -0.0119 -0.7301
    2PC     H1A10916   5.650   1.468   1.680  0.4007 -2.0050 -0.6381
    2PC     H1B10917   5.543   1.378   1.578  0.8112 -0.4624 -1.5976
    2PC     C3210918   5.719   1.415   1.478  0.2718  0.0447 -0.7644
    2PC     H2A10919   5.728   1.308   1.497 -0.9455 -0.1892 -1.3655
    2PC     H2B10920   5.659   1.425   1.387 -1.9425 -2.2590  0.3141
    2PC     N3110921   5.852   1.480   1.458  0.3037  0.2088 -0.0494
    2PC     C3310922   5.831   1.621   1.411 -0.9840  0.0048 -0.1251
    2PC     H3A10923   5.784   1.679   1.490  0.0246  1.0396 -0.2506
    2PC     H3B10924   5.932   1.658   1.394  0.0340 -1.8200  1.4832
    2PC     H3C10925   5.774   1.605   1.319 -0.2347 -2.0271 -0.3080
    2PC     C3410926   5.932   1.486   1.585 -0.2074 -0.3450  0.3059
    2PC     H4A10927   6.017   1.545   1.549 -0.7277 -0.8252 -1.8700
    2PC     H4B10928   5.875   1.541   1.660 -1.9171 -0.5421 -0.7958
    2PC     H4C10929   5.950   1.382   1.612 -0.3857  0.0515  2.0176
    2PC     C3510930   5.913   1.394   1.351 -0.0224 -0.2309  0.1190
    2PC     H5A10931   5.912   1.287   1.372 -0.1923 -1.1955 -3.9425
    2PC     H5B10932   6.017   1.421   1.337  0.1797 -0.7396  0.5773
    2PC     H5C10933   5.853   1.407   1.261  0.1864 -0.2802 -0.0276
    2PC     O3310934   5.327   1.524   1.629  0.5392 -0.0833  0.3641
    2PC     O3410935   5.363   1.754   1.582 -0.3987  0.0858  0.1124
    2PC     O2110936   5.419   1.696   2.131 -0.3222 -0.0370 -0.4660
    2PC     C2110937   5.405   1.577   2.192 -0.5777  0.0313 -0.3894
    2PC     O2210938   5.445   1.470   2.150  0.0185  0.1554 -0.1408
    3OL     C1210939   5.330   1.596   2.321  0.1810  0.3939  0.0042
    3OL     H2R10940   5.232   1.633   2.292  0.1679  0.6442  0.3580
    3OL     H2S10941   5.388   1.669   2.378  1.9170  0.3634 -1.6279
    3OL     C1310942   5.314   1.465   2.400 -0.3183  0.4865  0.0637
    3OL     H3R10943   5.411   1.413   2.405  0.0418  1.0730 -0.6576
    3OL     H3S10944   5.253   1.391   2.347  0.2189 -0.8713  1.2722
    3OL     C1410945   5.246   1.485   2.535 -0.4361  0.2766  0.0363
    3OL     H4R10946   5.142   1.520   2.533 -0.8219 -0.5814  2.3350
    3OL     H4S10947   5.301   1.561   2.592  0.4831  0.1998 -0.7328
    3OL     C1510948   5.259   1.355   2.615 -0.1393  0.1380 -0.2380
    3OL     H5R10949   5.267   1.378   2.722  2.0756  0.7930 -0.4989
    3OL     H5S10950   5.351   1.309   2.576  0.7440  1.7813 -0.1814
    3OL     C1610951   5.134   1.267   2.608 -0.0911  0.0621 -0.1557
    3OL     H6R10952   5.098   1.248   2.507 -0.4237  0.9515 -0.2090
    3OL     H6S10953   5.046   1.314   2.652  0.5790  1.8759 -0.6807
    3OL     C1710954   5.168   1.127   2.660 -0.5748 -0.0867 -0.2342
    3OL     H7R10955   5.155   1.113   2.768  2.2729  0.4999  0.2686
    3OL     H7S10956   5.275   1.109   2.649 -0.0810  2.3875  0.0175
    3OL     C1810957   5.084   1.021   2.586 -0.3140 -0.3036 -0.2224
    3OL     H8R10958   5.114   0.923   2.622  1.1914 -0.3872 -1.5677
    3OL     H8S10959   5.112   1.008   2.481  2.2449 -1.0704  0.4743
    3OL     C1910960   4.937   1.052   2.599 -0.2296 -0.0290  0.0940
    3OL     H9R10961   4.913   1.155   2.573  1.0065  0.3706  0.4532
    3OL    C11010962   4.840   0.970   2.636  0.0149 -0.4970 -0.2873
    3OL    H10R10963   4.735   0.997   2.643 -0.6713 -2.4209 -2.1649
    3OL    C11110964   4.863   0.823   2.663  0.1062 -0.3672  0.3775
    3OL    H11R10965   4.940   0.786   2.595 -1.3412 -2.4365 -0.2328
    3OL    H11S10966   4.777   0.765   2.629 -0.3814  0.6356 -0.1652
    3OL    C11210967   4.895   0.809   2.812  0.0427 -0.4618  0.3823
    3OL    H12R10968   4.816   0.844   2.879  1.3710 -0.3515  1.9528
    3OL    H12S10969   4.976   0.880   2.828  0.6151 -0.7153 -1.2516
    3OL    C11310970   4.914   0.667   2.867  0.1694 -0.7957 -0.5122
    3OL    H13R10971   5.002   0.629   2.815  0.5203 -0.7002 -0.0026
    3OL    H13S10972   4.833   0.598   2.841 -0.3732 -0.1084 -0.6800
    3OL    C11410973   4.926   0.661   3.020  0.0831  0.2030 -0.4614
    3OL    H14R10974   4.924   0.558   3.054  0.4463 -0.0989 -1.3261
    3OL    H14S10975   4.838   0.712   3.060 -0.9078 -1.3995 -0.5179
    3OL    C11510976   5.045   0.741   3.075 -0.1175  0.3942 -0.3040
    3OL    H15R10977   5.044   0.848   3.054  2.3753  0.4673 -0.3438
    3OL    H15S10978   5.133   0.691   3.036 -0.3763 -0.9257  0.7308
    3OL    C11610979   5.049   0.726   3.228  0.2063 -0.3349 -0.3788
    3OL    H16R10980   5.143   0.760   3.273  0.3275 -1.5740  0.3425
    3OL    H16S10981   5.049   0.621   3.256  0.2920 -0.0250  0.8303
    3OL    C11710982   4.935   0.800   3.299  0.0071 -0.9433 -0.0636
    3OL    H17R10983   4.839   0.748   3.288 -1.2117  0.5911  2.3936
    3OL    H17S10984   4.928   0.900   3.256  0.4563 -0.6816  0.4779
    3OL    C11810985   4.961   0.821   3.448 -0.2773  0.1370 -0.1549
    3OL    H18R10986   4.897   0.898   3.492  1.8424  0.0690  3.4904
    3OL    H18S10987   5.062   0.863   3.456  1.1062 -2.9372 -0.0297
    3OL    H18T10988   4.951   0.726   3.502  0.2804  0.8673  1.2957
    1PA    C11610989   5.255   3.240   3.870 -0.6211 -0.0544 -0.1496
    1PA    H16R10990   5.154   3.236   3.829 -1.0901 -1.1923  1.0336
    1PA    H16S10991   5.272   3.331   3.928 -1.8221  0.8562 -1.1860
    1PA    H16T10992   5.261   3.154   3.937 -0.1776  0.3319  0.3127
    1PA    C11510993   5.359   3.240   3.757 -0.2955 -0.1902  0.1467
    1PA    H15R10994   5.326   3.307   3.677 -1.8569 -0.5281  0.4610
    1PA    H15S10995   5.445   3.296   3.792  0.7587  0.2501 -2.8422
    1PA    C11410996   5.384   3.096   3.709 -0.6926 -0.1240 -0.2730
    1PA    H14R10997   5.413   3.027   3.789  3.9675  0.6085 -1.0906
    1PA    H14S10998   5.293   3.053   3.667  1.3723 -2.8767 -2.3376
    1PA    C11310999   5.488   3.098   3.596  0.2668  0.1098  0.5951
    1PA    H13R11000   5.458   3.175   3.524 -1.0007 -2.3058 -1.6282
    1PA    H13S11001   5.594   3.108   3.619  0.0880  0.7485  1.1907
    1PA    C11211002   5.478   2.966   3.518  0.0405  0.4915 -0.0302
    1PA    H12R11003   5.376   2.939   3.491 -0.4713 -0.6406  2.6789
    1PA    H12S11004   5.519   2.973   3.417 -1.4969 -0.8984 -0.7959
    1PA    C11111005   5.540   2.846   3.591 -0.8910 -0.0591 -0.1299
    1PA    H11R11006   5.639   2.874   3.628 -1.7641  4.1650 -0.5631
    1PA    H11S11007   5.478   2.827   3.678 -0.3911  3.0883  1.0234
    1PA    C11011008   5.547   2.729   3.491 -0.1995 -0.2433  0.1268
    1PA    H10R11009   5.619   2.761   3.415  0.9361  0.9489  1.6232
    1PA    H10S11010   5.586   2.639   3.539 -0.0363  0.4323  1.3091
    1PA     C1911011   5.417   2.700   3.414 -0.3770 -0.5861  0.5560
    1PA     H9R11012   5.330   2.706   3.479 -0.6670  0.7928  0.0712
    1PA     H9S11013   5.402   2.781   3.343 -0.5412 -1.6682 -0.6887
    1PA     C1811014   5.419   2.565   3.341  0.0834 -0.4180  0.2584
    1PA     H8R11015   5.431   2.478   3.405 -2.9001 -1.1950 -0.1069
    1PA     H8S11016   5.331   2.562   3.277  0.5588  0.3496 -0.4615
    1PA     C1711017   5.540   2.555   3.247  0.2104 -0.2536  0.4046
    1PA     H7R11018   5.632   2.554   3.306  0.4108 -0.4760  0.0930
    1PA     H7S11019   5.533   2.454   3.207  0.7218 -0.6940  1.4034
    1PA     C1611020   5.531   2.650   3.126 -0.0090 -0.3684  0.3302
    1PA     H6R11021   5.431   2.672   3.090  0.2835 -0.8780 -0.8354
    1PA     H6S11022   5.571   2.749   3.151  0.0130  0.2780 -2.0722
    1PA     C1511023   5.604   2.590   3.005 -0.5573  0.1615 -0.2644
    1PA     H5R11024   5.703   2.561   3.040 -0.6576  1.6669  1.3882
    1PA     H5S11025   5.548   2.502   2.974 -0.9784  0.2591  0.2025
    1PA     C1411026   5.622   2.681   2.883 -0.4636 -0.2980 -0.5948
    1PA     H4R11027   5.523   2.703   2.841 -1.0245 -0.7942  0.4318
    1PA     H4S11028   5.661   2.778   2.914 -0.6943 -0.9287  1.8664
    1PA     C1311029   5.711   2.619   2.775 -0.1958  0.3069 -0.7297
    1PA     H3R11030   5.811   2.604   2.816 -0.6375 -1.1348 -0.0864
    1PA     H3S11031   5.673   2.518   2.755 -0.2070  0.2901 -0.6252
    1PA     C1211032   5.725   2.704   2.648 -0.2211  0.7586 -0.4309
    1PA     H2R11033   5.708   2.810   2.668  1.5699  0.8729  0.7639
    1PA     H2S11034   5.827   2.702   2.609 -0.0874  0.7080 -0.0825
    2PC     C1111035   5.626   2.664   2.542 -0.1387 -0.1134 -0.1890
    2PC     O1211036   5.652   2.591   2.449 -0.1339 -0.3023 -0.0402
    2PC     O1111037   5.502   2.713   2.564 -0.1842 -0.4626  0.3496
    2PC      C111038   5.400   2.684   2.467  0.0811  0.1523 -0.1165
    2PC      HR11039   5.311   2.747   2.474  0.0194 -0.0122  0.5716
    2PC      HS11040   5.433   2.674   2.363  0.9366 -0.4289  0.2063
    2PC      C211041   5.346   2.551   2.519 -0.0582  0.2715  0.0453
    2PC      HX11042   5.427   2.479   2.532  0.4702  0.5509 -1.4769
    2PC      C311043   5.253   2.475   2.422  0.2985 -0.1518  0.0284
    2PC      HA11044   5.312   2.456   2.333  0.1942  3.4019 -0.9429
    2PC      HB11045   5.213   2.382   2.463 -1.3497  0.3357 -0.4041
    2PC     O3111046   5.138   2.547   2.373  0.5447 -0.0889 -0.4606
    2PC     P3111047   5.143   2.651   2.252  0.1654  0.0161 -0.3852
    2PC     O3211048   5.012   2.602   2.172  0.3682 -0.0097 -0.7039
    2PC     C3111049   5.028   2.467   2.126  0.1142 -0.0843 -0.5738
    2PC     H1A11050   5.114   2.458   2.058  2.4032 -1.0411  2.2539
    2PC     H1B11051   5.043   2.396   2.208  1.1607  0.1116 -0.5770
    2PC     C3211052   4.897   2.436   2.052 -0.3750 -0.1772  0.3133
    2PC     H2A11053   4.825   2.438   2.133  0.7649  2.3327  1.3657
    2PC     H2B11054   4.890   2.511   1.973  2.5406  2.1519  2.0657
    2PC     N3111055   4.883   2.304   1.981  0.1374  0.1010 -0.3225
    2PC     C3311056   4.840   2.205   2.085  0.3356  0.3897  0.0392
    2PC     H3A11057   4.757   2.245   2.143  0.9775  0.1258  1.1594
    2PC     H3B11058   4.806   2.112   2.039  2.1337  0.3672 -1.3572
    2PC     H3C11059   4.924   2.181   2.150 -0.4958  2.8013  2.1212
    2PC     C3411060   4.772   2.311   1.881 -0.7772 -0.2043  0.6542
    2PC     H4A11061   4.791   2.391   1.810 -1.2251  0.6926  1.5258
    2PC     H4B11062   4.755   2.213   1.835 -0.8001  0.7077 -1.3768
    2PC     H4C11063   4.684   2.345   1.937 -1.3049 -0.7598  0.1844
    2PC     C3511064   5.011   2.257   1.920  0.6556  0.2345  0.6384
    2PC     H5A11065   5.085   2.222   1.993 -0.5086 -2.3648  0.6682
    2PC     H5B11066   5.056   2.331   1.853  2.5237 -0.6925  0.8140
    2PC     H5C11067   4.989   2.168   1.861 -1.0502  0.3386  1.0641
    2PC     O3311068   5.138   2.792   2.298 -0.0092 -0.0137 -0.3093
    2PC     O3411069   5.260   2.643   2.161 -0.0231  0.4761 -0.6753
    2PC     O2111070   5.272   2.562   2.642 -0.1906  0.2775 -0.0339
    2PC     C2111071   5.243   2.452   2.713  0.5115  0.1918  0.1282
    2PC     O2211072   5.275   2.341   2.674 -1.0644 -0.2732  0.0908
    3OL     C1211073   5.194   2.473   2.854 -0.8226 -0.4768 -0.2220
    3OL     H2R11074   5.086   2.489   2.854 -0.8934 -0.9414 -0.3200
    3OL     H2S11075   5.239   2.565   2.891  0.4395 -1.6445  1.2817
    3OL     C1311076   5.224   2.354   2.947 -0.0051 -0.3054 -0.2570
    3OL     H3R11077   5.193   2.383   3.048  1.2533 -2.3178  0.7635
    3OL     H3S11078   5.331   2.337   2.933  0.5064  2.0272  0.3505
    3OL     C1411079   5.158   2.218   2.923  0.6093 -0.6694  0.0987
    3OL     H4R11080   5.165   2.188   2.818  2.3373 -2.0421  0.5458
    3OL     H4S11081   5.057   2.234   2.961  1.1525  1.2965  0.8122
    3OL     C1511082   5.224   2.105   3.003  0.4640 -0.0931  1.0494
    3OL     H5R11083   5.332   2.119   3.014  0.9745 -0.9861 -1.8614
    3OL     H5S11084   5.205   2.011   2.950 -0.4493  0.8193 -0.3107
    3OL     C1611085   5.157   2.086   3.140 -0.6500 -0.8767  0.4180
    3OL     H6R11086   5.055   2.052   3.124 -0.5359 -1.2627  0.5031
    3OL     H6S11087   5.149   2.185   3.187  2.0021 -0.0622 -0.6517
    3OL     C1711088   5.231   1.990   3.234  0.5349 -0.2128  0.1929
    3OL     H7R11089   5.273   1.912   3.169  0.0783  0.8357 -1.4046
    3OL     H7S11090   5.163   1.945   3.307 -1.0408 -1.0691 -1.7123
    3OL     C1811091   5.347   2.049   3.314  0.2164 -0.0354  0.5249
    3OL     H8R11092   5.439   2.069   3.258  0.8450  1.2073  1.9331
    3OL     H8S11093   5.389   1.972   3.379  1.4145 -0.7530 -1.0321
    3OL     C1911094   5.316   2.172   3.396  0.6697  0.4185  0.0183
    3OL     H9R11095   5.299   2.257   3.330 -2.5881 -0.7263 -0.8306
    3OL    C11011096   5.293   2.174   3.526  0.0882  0.1603 -0.0751
    3OL    H10R11097   5.272   2.272   3.569  0.1756 -0.3671  1.1921
    3OL    C11111098   5.307   2.059   3.622  0.6154  0.5960  0.3807
    3OL    H11R11099   5.408   2.049   3.664  0.0002 -0.4721  1.6736
    3OL    H11S11100   5.270   1.965   3.579  2.4831 -0.7607  1.5413
    3OL    C11211101   5.214   2.081   3.742  0.1806 -0.0389  0.1634
    3OL    H12R11102   5.200   2.187   3.762  1.9247  0.4756 -1.0804
    3OL    H12S11103   5.253   2.028   3.829 -0.8586  0.4439  0.9437
    3OL    C11311104   5.075   2.027   3.707  0.1732  0.3982 -0.5000
    3OL    H13R11105   5.090   1.919   3.702  3.4251  0.5874  1.9369
    3OL    H13S11106   5.045   2.062   3.608 -0.4894  0.0463 -0.4336
    3OL    C11411107   4.973   2.050   3.819  0.3456 -0.0940 -0.2395
    3OL    H14R11108   5.009   2.001   3.911  0.1847 -1.5831 -0.9343
    3OL    H14S11109   4.890   1.981   3.801 -0.1757  0.3710  0.3527
    3OL    C11511110   4.909   2.189   3.820  0.6077  0.0249  0.5886
    3OL    H15R11111   4.847   2.211   3.734  0.1155  0.1755  0.9753
    3OL    H15S11112   4.986   2.266   3.824  1.0234 -0.4071  1.0585
    3OL    C11611113   4.821   2.213   3.944 -0.6779 -0.0829 -0.2921
    3OL    H16R11114   4.883   2.187   4.029  2.9247 -0.5256 -2.8386
    3OL    H16S11115   4.744   2.136   3.952  0.7982 -1.5486  0.1435
    3OL    C11711116   4.768   2.356   3.960 -0.3020 -0.0119  0.3066
    3OL    H17R11117   4.665   2.364   3.994 -0.6672 -1.1848 -0.4849
    3OL    H17S11118   4.769   2.403   3.861  0.4908 -0.6787 -0.0096
    3OL    C11811119   4.872   2.436   4.042 -0.6648  0.5155  0.2608
    3OL    H18R11120   4.969   2.391   4.021 -1.1581  0.5461 -2.6157
    3OL    H18S11121   4.840   2.439   4.146 -2.6704  1.1995 -0.3303
    3OL    H18T11122   4.876   2.540   4.011  2.1550  0.7223  1.1332
    1PA    C11611123   1.202   1.600   3.867 -0.1399 -0.3523 -0.2077
    1PA    H16R11124   1.121   1.646   3.809 -1.3543  0.1904  1.8008
    1PA    H16S11125   1.283   1.669   3.843 -0.2280 -0.3145 -0.3951
    1PA    H16T11126   1.181   1.601   3.974 -0.2215 -1.9462 -0.1874
    1PA    C11511127   1.243   1.461   3.817  0.5530 -0.5029  0.7588
    1PA    H15R11128   1.322   1.429   3.885  0.8170  0.3672  0.8768
    1PA    H15S11129   1.152   1.401   3.827  0.3977 -1.1240 -3.0986
    1PA    C11411130   1.294   1.466   3.673 -0.0973 -0.2165  0.5320
    1PA    H14R11131   1.291   1.365   3.632  2.1131 -0.1397  0.0248
    1PA    H14S11132   1.243   1.537   3.608  0.8060  0.4213  0.4968
    1PA    C11311133   1.445   1.493   3.665 -0.2025  0.1626 -0.2951
    1PA    H13R11134   1.471   1.583   3.722 -0.5630  0.9833 -1.4027
    1PA    H13S11135   1.507   1.416   3.712  1.8213  2.6455  1.3720
    1PA    C11211136   1.487   1.520   3.520 -0.2349  0.0830 -0.3191
    1PA    H12R11137   1.417   1.582   3.464 -0.5339 -0.6484 -0.7715
    1PA    H12S11138   1.582   1.575   3.521  0.4015 -0.9696 -0.6063
    1PA    C11111139   1.510   1.388   3.445 -0.2495 -0.1836  0.1428
    1PA    H11R11140   1.568   1.312   3.498  0.7259 -0.9177 -1.8853
    1PA    H11S11141   1.418   1.335   3.420 -0.9457  1.3394 -0.6317
    1PA    C11011142   1.588   1.411   3.315 -0.4107  0.0711  0.0903
    1PA    H10R11143   1.549   1.489   3.249 -0.8410 -0.4350 -0.2730
    1PA    H10S11144   1.682   1.456   3.345 -0.6490 -0.1377  1.1826
    1PA     C1911145   1.612   1.283   3.233  0.0734  0.1250  0.1455
    1PA     H9R11146   1.645   1.195   3.290 -0.9862 -0.2536  0.2016
    1PA     H9S11147   1.524   1.243   3.182  1.4201 -1.4493 -1.0758
    1PA     C1811148   1.716   1.302   3.122 -0.1545  0.0222 -0.0866
    1PA     H8R11149   1.807   1.351   3.158 -1.0132  1.2537  0.4786
    1PA     H8S11150   1.746   1.200   3.097 -1.8491 -0.3599 -0.7080
    1PA     C1711151   1.662   1.380   3.001 -0.0795 -0.0126 -0.1424
    1PA     H7R11152   1.565   1.337   2.976  0.6668 -0.7356 -1.9453
    1PA     H7S11153   1.645   1.485   3.025 -0.2365  0.3951 -1.9326
    1PA     C1611154   1.751   1.368   2.877 -0.0439 -0.6420 -0.0593
    1PA     H6R11155   1.852   1.397   2.908 -0.3538  0.9077 -0.4536
    1PA     H6S11156   1.765   1.261   2.859  0.4217 -0.6480  0.3034
    1PA     C1511157   1.697   1.435   2.750 -0.4742 -0.0420  0.4386
    1PA     H5R11158   1.602   1.388   2.722  0.1981 -0.4380 -1.3109
    1PA     H5S11159   1.685   1.542   2.770 -0.2899 -0.2119  1.4918
    1PA     C1411160   1.792   1.425   2.630 -0.2903  0.6917  0.5188
    1PA     H4R11161   1.869   1.495   2.664  0.9267 -0.4454  0.2221
    1PA     H4S11162   1.832   1.324   2.615 -0.1560  1.0479 -1.9061
    1PA     C1311163   1.734   1.486   2.502 -0.6377 -0.8859 -0.0994
    1PA     H3R11164   1.640   1.435   2.483 -1.7735  1.3209 -0.7685
    1PA     H3S11165   1.709   1.591   2.520  0.7627 -0.6467  0.5928
    1PA     C1211166   1.832   1.473   2.385 -0.1839 -0.1979  0.1961
    1PA     H2R11167   1.930   1.515   2.410 -0.8232  3.0663 -2.0798
    1PA     H2S11168   1.845   1.366   2.367  1.2593  0.1724 -1.1697
    2PC     C1111169   1.770   1.532   2.261  0.1716  0.3309  0.2670
    2PC     O1211170   1.819   1.507   2.153  0.0560 -0.3913  0.3759
    2PC     O1111171   1.694   1.640   2.282  0.1889  0.4366 -0.2006
    2PC      C111172   1.669   1.730   2.173 -0.0917  0.4322 -0.1419
    2PC      HR11173   1.648   1.830   2.213  1.9797  0.9669 -0.2505
    2PC      HS11174   1.762   1.748   2.117 -0.1073  0.2738 -0.2192
    2PC      C211175   1.563   1.674   2.077  0.0948  0.2813 -0.2608
    2PC      HX11176   1.598   1.572   2.057  1.2681  0.2299  1.7563
    2PC      C311177   1.550   1.751   1.945 -0.2782  0.4063 -0.1528
    2PC      HA11178   1.519   1.852   1.970  0.5403  0.4757  0.6232
    2PC      HB11179   1.649   1.751   1.899  0.2442 -2.2590  0.7592
    2PC     O3111180   1.453   1.682   1.864  0.1119 -0.1993 -0.1112
    2PC     P3111181   1.427   1.730   1.714 -0.0018 -0.1372 -0.0712
    2PC     O3211182   1.507   1.622   1.627 -0.1990 -0.0226 -0.3982
    2PC     C3111183   1.440   1.508   1.571 -0.0826 -0.2695 -0.0381
    2PC     H1A11184   1.412   1.449   1.659 -0.5935  2.0891  1.4609
    2PC     H1B11185   1.344   1.537   1.528 -0.8025 -1.5932  0.6025
    2PC     C3211186   1.533   1.413   1.494  0.5334  0.0906  0.2628
    2PC     H2A11187   1.619   1.381   1.554 -1.3515 -0.1127  3.0199
    2PC     H2B11188   1.473   1.328   1.464 -0.7870  0.8209  0.7244
    2PC     N3111189   1.592   1.454   1.362 -0.1300  0.1520 -0.0150
    2PC     C3311190   1.671   1.581   1.371  0.3556 -0.1641  0.1831
    2PC     H3A11191   1.685   1.600   1.264  0.0883  1.1212  0.3721
    2PC     H3B11192   1.620   1.667   1.413 -0.2754 -0.2762 -0.3341
    2PC     H3C11193   1.775   1.567   1.402 -0.1763 -1.6604  1.4040
    2PC     C3411194   1.682   1.347   1.309 -0.1695  0.1122 -0.0019
    2PC     H4A11195   1.646   1.252   1.349  0.2754  0.6296  1.7154
    2PC     H4B11196   1.688   1.355   1.201 -1.2932  0.6820 -0.0338
    2PC     H4C11197   1.775   1.385   1.352  1.2138  0.5708 -3.1566
    2PC     C3511198   1.480   1.470   1.263 -0.4186 -0.0383  0.2763
    2PC     H5A11199   1.437   1.569   1.272  0.1547  0.4080 -1.4148
    2PC     H5B11200   1.409   1.389   1.278 -0.0526 -0.3711  0.2541
    2PC     H5C11201   1.517   1.456   1.161 -2.1002 -2.3237 -0.0853
    2PC     O3311202   1.283   1.741   1.681 -0.0531 -0.4527  0.0528
    2PC     O3411203   1.470   1.869   1.687 -0.0360 -0.1152 -0.0131
    2PC     O2111204   1.438   1.677   2.147  0.1315  0.3825 -0.1994
    2PC     C2111205   1.368   1.567   2.179  0.1507  0.2519 -0.6040
    2PC     O2211206   1.408   1.453   2.164  0.5042  0.1983  0.6137
    3OL     C1211207   1.230   1.582   2.239  0.2818  0.0168 -0.2354
    3OL     H2R11208   1.201   1.486   2.281  3.2809 -0.6731  0.4422
    3OL     H2S11209   1.164   1.617   2.159  0.6286  0.2844 -0.4121
    3OL     C1311210   1.227   1.684   2.354 -0.3817  0.1084 -0.3284
    3OL     H3R11211   1.126   1.715   2.381  0.2836  0.8258  1.4612
    3OL     H3S11212   1.280   1.777   2.332 -1.2324  0.8845  0.8091
    3OL     C1411213   1.290   1.619   2.478 -0.1196  0.4583 -0.2771
    3OL     H4R11214   1.390   1.584   2.448 -0.0748  0.4752 -0.1454
    3OL     H4S11215   1.221   1.536   2.496 -3.1075  2.4190 -1.8620
    3OL     C1511216   1.305   1.709   2.601  0.3938 -0.1684  0.1245
    3OL     H5R11217   1.360   1.655   2.678 -1.6258 -0.3091  1.5359
    3OL     H5S11218   1.209   1.725   2.649 -0.1288 -2.3082 -0.0827
    3OL     C1611219   1.390   1.835   2.580 -0.3635  0.3033 -0.1147
    3OL     H6R11220   1.368   1.905   2.661 -1.0164  0.2012 -0.1957
    3OL     H6S11221   1.340   1.888   2.499 -1.8620 -0.2981  0.3800
    3OL     C1711222   1.540   1.808   2.564 -0.4103  0.1372 -0.2654
    3OL     H7R11223   1.549   1.729   2.489 -1.0447  1.0190 -1.3079
    3OL     H7S11224   1.591   1.761   2.648  0.3268  0.0943 -0.7292
    3OL     C1811225   1.609   1.935   2.512  0.1917 -0.0950 -0.0331
    3OL     H8R11226   1.541   1.983   2.442  0.1618  0.0352  0.0857
    3OL     H8S11227   1.711   1.913   2.478  1.9527  4.7882  1.1983
    3OL     C1911228   1.642   2.033   2.622 -0.3264  0.6828 -0.5659
    3OL     H9R11229   1.563   2.047   2.695 -1.1946  0.6181 -1.4682
    3OL    C11011230   1.758   2.093   2.645 -0.1107  0.0630 -0.0258
    3OL    H10R11231   1.774   2.154   2.734  1.5869  0.6662 -0.7166
    3OL    C11111232   1.891   2.081   2.576  0.3024  0.6659  0.6607
    3OL    H11R11233   1.936   2.176   2.547  0.2790  0.6089  0.4417
    3OL    H11S11234   1.877   2.025   2.484  0.9611  0.8228  0.4563
    3OL    C11211235   2.000   2.002   2.650  0.1005 -0.0011  0.2451
    3OL    H12R11236   2.028   2.046   2.746  0.3196 -1.5318  0.9251
    3OL    H12S11237   2.093   2.002   2.593 -0.3152 -0.7896 -0.4506
    3OL    C11311238   1.946   1.860   2.672  0.1957 -0.0815 -0.0331
    3OL    H13R11239   1.960   1.810   2.576 -1.2410  2.1815 -1.5358
    3OL    H13S11240   1.839   1.854   2.694  0.8184 -0.1444  3.6672
    3OL    C11411241   2.025   1.786   2.780 -0.1479  0.0974  0.3437
    3OL    H14R11242   2.130   1.815   2.770 -0.4506  0.3176 -4.1382
    3OL    H14S11243   2.031   1.677   2.772 -0.6279  0.0185  0.9017
    3OL    C11511244   1.979   1.818   2.923 -0.4230  0.6062  0.1428
    3OL    H15R11245   1.965   1.925   2.934 -0.6827  0.7315 -1.2279
    3OL    H15S11246   2.053   1.781   2.995 -0.1388  0.0757 -0.4128
    3OL    C11611247   1.854   1.737   2.960 -0.4829  0.5667 -0.1478
    3OL    H16R11248   1.876   1.633   2.937 -2.1544  0.1288  0.0616
    3OL    H16S11249   1.769   1.764   2.896  2.0493  1.5876 -3.3256
    3OL    C11711250   1.809   1.746   3.106 -0.6053 -0.9394 -0.0777
    3OL    H17R11251   1.718   1.687   3.121 -0.9604  0.2337  3.1964
    3OL    H17S11252   1.788   1.850   3.132 -0.7826 -0.5899 -1.5573
    3OL    C11811253   1.911   1.704   3.213 -0.5530 -0.3046  0.1233
    3OL    H18R11254   1.862   1.703   3.310  1.6080 -2.0568  1.2895
    3OL    H18S11255   1.990   1.778   3.227  1.4081 -2.1139 -0.8053
    3OL    H18T11256   1.970   1.615   3.190  1.9130  0.6949  2.1158
    1PA    C11611257   1.548   6.277   4.207  0.8842 -0.2981 -0.1218
    1PA    H16R11258   1.620   6.210   4.254 -0.9625 -1.6309  0.9544
    1PA    H16S11259   1.505   6.223   4.122 -1.0480 -1.2431  1.3551
    1PA    H16T11260   1.473   6.305   4.281  0.8859 -0.1658 -0.1704
    1PA    C11511261   1.600   6.415   4.168 -0.1080  0.2493  0.4417
    1PA    H15R11262   1.522   6.472   4.117 -0.3115 -0.0080  0.4677
    1PA    H15S11263   1.629   6.474   4.255  1.1461  3.0368 -1.6744
    1PA    C11411264   1.716   6.424   4.067 -0.5843  0.0808 -0.1278
    1PA    H14R11265   1.743   6.530   4.062  0.9942 -0.3364 -1.3089
    1PA    H14S11266   1.803   6.366   4.100  0.9217  1.4734 -1.4627
    1PA    C11311267   1.668   6.384   3.927 -0.2569 -0.4039 -0.1050
    1PA    H13R11268   1.643   6.278   3.927  2.0272 -1.0371 -2.2679
    1PA    H13S11269   1.575   6.440   3.911 -0.8596 -0.9536  1.3722
    1PA    C11211270   1.778   6.408   3.822 -0.5612  0.5379 -0.2230
    1PA    H12R11271   1.818   6.509   3.823  1.4682 -0.2218 -0.5942
    1PA    H12S11272   1.858   6.339   3.849 -1.0134  0.9853  2.5346
    1PA    C11111273   1.723   6.386   3.680  0.0775 -0.1766 -0.3692
    1PA    H11R11274   1.690   6.282   3.674 -1.3082  0.2899 -1.4968
    1PA    H11S11275   1.638   6.453   3.665 -0.8304 -1.3335 -0.4758
    1PA    C11011276   1.827   6.414   3.570  0.2246  0.2515 -0.1272
    1PA    H10R11277   1.834   6.522   3.568 -0.1705  0.4340  3.1591
    1PA    H10S11278   1.919   6.363   3.598 -0.1884 -0.2150  0.4161
    1PA     C1911279   1.774   6.364   3.435 -0.1748  0.2906  0.0110
    1PA     H9R11280   1.741   6.261   3.444  3.3817 -1.1642 -1.4579
    1PA     H9S11281   1.680   6.413   3.408  0.4963  1.2258 -0.7039
    1PA     C1811282   1.887   6.376   3.331  0.0779 -0.2712  0.2161
    1PA     H8R11283   1.889   6.485   3.333 -1.4895 -0.2170  0.4218
    1PA     H8S11284   1.985   6.346   3.367  0.6775  0.8291 -0.4549
    1PA     C1711285   1.863   6.302   3.198  0.2748 -0.1396  0.1065
    1PA     H7R11286   1.859   6.193   3.208  2.0038 -0.3938 -1.4625
    1PA     H7S11287   1.761   6.322   3.165  0.5119  0.6529 -0.1544
    1PA     C1611288   1.967   6.336   3.090 -0.2016 -0.3046 -0.4088
    1PA     H6R11289   1.952   6.443   3.072 -1.6050 -0.5767 -1.0077
    1PA     H6S11290   2.071   6.320   3.117 -0.3507  1.7580  1.8004
    1PA     C1511291   1.944   6.255   2.962 -0.3731  0.1589 -0.6695
    1PA     H5R11292   1.956   6.151   2.990 -2.1868 -0.3096 -1.4458
    1PA     H5S11293   1.839   6.268   2.933 -0.6378 -0.4137  0.0199
    1PA     C1411294   2.036   6.292   2.844  0.0465  0.6771 -0.1847
    1PA     H4R11295   2.119   6.349   2.886 -0.7552  1.2866  0.6474
    1PA     H4S11296   2.075   6.209   2.785  0.1025  1.8003 -1.7731
    1PA     C1311297   1.965   6.386   2.746 -0.3666  0.4595 -0.0978
    1PA     H3R11298   1.886   6.324   2.703  1.5384 -1.5853 -0.8400
    1PA     H3S11299   1.929   6.477   2.793  1.1031  2.0930 -1.9681
    1PA     C1211300   2.061   6.423   2.631  0.1205 -0.6116 -0.0494
    1PA     H2R11301   2.137   6.490   2.672 -0.2511 -0.1843 -0.0539
    1PA     H2S11302   2.112   6.342   2.579  1.0468  1.8609 -3.3277
    2PC     C1111303   1.988   6.493   2.519 -0.5931 -0.0988  0.7203
    2PC     O1211304   1.902   6.436   2.457 -0.2681  0.0686  0.1030
    2PC     O1111305   2.015   6.624   2.509  0.0682 -0.2457  0.5001
    2PC      C111306   1.974   6.692   2.390 -0.3723 -0.2806  0.6300
    2PC      HR11307   2.027   6.652   2.303 -2.0381 -0.2842 -0.4269
    2PC      HS11308   1.869   6.672   2.366 -1.2196  3.5926  0.4402
    2PC      C211309   1.983   6.844   2.412  0.3013 -0.2280  0.0186
    2PC      HX11310   1.899   6.871   2.476  0.0898  1.2324 -0.8329
    2PC      C311311   1.952   6.929   2.288  0.7954  0.0209  0.0616
    2PC      HA11312   1.867   6.892   2.230  0.5455  0.2421  0.2871
    2PC      HB11313   1.938   7.032   2.320 -0.4941 -0.8738  2.6196
    2PC     O3111314   2.063   6.916   2.197  0.2129 -0.5395 -0.5793
    2PC     P3111315   2.049   7.008   2.066 -0.0395  0.1123 -0.0975
    2PC     O3211316   2.189   6.988   1.991  0.1611 -0.3341  0.3818
    2PC     C3111317   2.260   6.865   1.972  0.1511 -0.2941  0.0767
    2PC     H1A11318   2.335   6.865   2.052  1.4676 -0.6857 -1.1101
    2PC     H1B11319   2.190   6.781   1.978 -0.7401  0.5195  1.6336
    2PC     C3211320   2.318   6.863   1.830  0.1693 -0.5661  0.0871
    2PC     H2A11321   2.355   6.963   1.806  1.3335 -0.6429  1.4416
    2PC     H2B11322   2.396   6.787   1.823  1.1046 -0.0816  3.5389
    2PC     N3111323   2.231   6.843   1.710 -0.0434 -0.0706  0.1574
    2PC     C3311324   2.120   6.943   1.705  0.0118 -0.0350 -0.3554
    2PC     H3A11325   2.071   6.947   1.607 -0.1433 -0.6340 -0.3070
    2PC     H3B11326   2.048   6.922   1.784 -0.5939  2.4413 -0.1654
    2PC     H3C11327   2.169   7.040   1.703  0.9232 -0.3431  2.7947
    2PC     C3411328   2.315   6.863   1.588 -0.4482 -0.2116 -0.1461
    2PC     H4A11329   2.396   6.791   1.582  1.3982  1.6514  1.1231
    2PC     H4B11330   2.253   6.868   1.498  2.2174 -0.3819 -2.0946
    2PC     H4C11331   2.355   6.964   1.598 -0.6281 -0.0422 -1.0467
    2PC     C3511332   2.180   6.702   1.703 -0.3445  0.0489 -0.0853
    2PC     H5A11333   2.134   6.690   1.604 -0.7209  1.2318 -0.0708
    2PC     H5B11334   2.102   6.704   1.779 -0.3673  1.0730 -0.1183
    2PC     H5C11335   2.264   6.633   1.715  0.4496  0.6257 -1.9977
    2PC     O3311336   1.929   6.976   1.986  0.0065  0.5106 -0.3243
    2PC     O3411337   2.011   7.148   2.095 -0.4240 -0.1246  0.5759
    2PC     O2111338   2.111   6.878   2.469  0.0950  0.0226  0.3368
    2PC     C2111339   2.116   6.986   2.548 -0.0552 -0.0849  0.4947
    2PC     O2211340   2.030   7.072   2.546  0.2619  0.2318 -0.6265
    3OL     C1211341   2.250   6.995   2.617  0.5188  0.3933 -0.6396
    3OL     H2R11342   2.327   6.959   2.549 -1.0212 -1.0334 -1.7076
    3OL     H2S11343   2.251   6.929   2.704 -1.7242 -0.2337 -1.0180
    3OL     C1311344   2.276   7.140   2.658  0.4248  0.2610 -0.0958
    3OL     H3R11345   2.190   7.172   2.718  0.9684  0.4029  0.6223
    3OL     H3S11346   2.279   7.200   2.567  1.2367 -0.4374 -0.5471
    3OL     C1411347   2.412   7.160   2.727  0.3682  0.2206  0.0271
    3OL     H4R11348   2.491   7.117   2.666 -0.4838  0.8779 -1.6002
    3OL     H4S11349   2.408   7.109   2.823 -0.1834  1.3893  0.6443
    3OL     C1511350   2.439   7.307   2.761  0.0519  0.1376  0.6583
    3OL     H5R11351   2.370   7.346   2.836  0.1595  0.2393  0.7032
    3OL     H5S11352   2.415   7.367   2.673 -1.3715 -1.1340  0.1345
    3OL     C1611353   2.583   7.335   2.806  0.0455 -0.0250  0.7814
    3OL     H6R11354   2.598   7.438   2.839  1.2042 -0.7524  2.6784
    3OL     H6S11355   2.648   7.331   2.718 -0.2044  0.6498  0.5602
    3OL     C1711356   2.647   7.241   2.909  0.1384 -0.2236  0.5436
    3OL     H7R11357   2.752   7.269   2.924 -0.3883  0.9428  2.3438
    3OL     H7S11358   2.635   7.138   2.874 -2.5504 -0.1437  0.9884
    3OL     C1811359   2.565   7.240   3.039 -0.3332  0.0411  0.2521
    3OL     H8R11360   2.588   7.157   3.106  1.3071 -0.0235 -0.3374
    3OL     H8S11361   2.462   7.226   3.007 -0.8481  0.0222  1.8682
    3OL     C1911362   2.562   7.377   3.099 -0.3845 -0.0518  0.4605
    3OL     H9R11363   2.506   7.456   3.048 -2.7527 -1.4405  0.7527
    3OL    C11011364   2.606   7.403   3.221  0.0817 -0.1028  0.3036
    3OL    H10R11365   2.587   7.502   3.262 -3.8780  0.0008 -1.3324
    3OL    C11111366   2.681   7.310   3.314  0.0144 -0.3076  0.1516
    3OL    H11R11367   2.742   7.237   3.260 -0.5374 -1.4252  0.9909
    3OL    H11S11368   2.601   7.259   3.368  1.3318 -0.7814  1.7261
    3OL    C11211369   2.764   7.392   3.414 -0.0733 -0.2609  0.1867
    3OL    H12R11370   2.784   7.337   3.506  2.0354 -0.5078 -0.3733
    3OL    H12S11371   2.708   7.484   3.432  0.0184  0.1379 -1.3797
    3OL    C11311372   2.895   7.448   3.357 -0.2879  0.1804  0.1275
    3OL    H13R11373   2.888   7.522   3.277  1.2687 -1.6841 -1.8118
    3OL    H13S11374   2.953   7.370   3.309  0.3803  1.2864 -0.9182
    3OL    C11411375   2.975   7.510   3.473  0.1819 -0.5478  0.2013
    3OL    H14R11376   3.076   7.531   3.437 -0.5623 -0.2507 -1.8636
    3OL    H14S11377   2.999   7.438   3.551 -0.4911 -0.8903  0.1039
    3OL    C11511378   2.923   7.644   3.528  0.1998 -0.2619 -0.4619
    3OL    H15R11379   2.833   7.621   3.585  0.6022 -2.2299 -0.5599
    3OL    H15S11380   2.894   7.713   3.449 -1.2061  0.8591  0.9691
    3OL    C11611381   3.026   7.723   3.610 -0.0528 -0.5685  0.1547
    3OL    H16R11382   3.113   7.739   3.547  1.6092 -2.0330  1.9541
    3OL    H16S11383   3.056   7.680   3.706 -0.2481 -2.7526 -0.7077
    3OL    C11711384   2.955   7.853   3.653  0.3186 -0.3294  0.0433
    3OL    H17R11385   2.902   7.904   3.573  2.1053 -1.8677 -2.2593
    3OL    H17S11386   3.034   7.921   3.686 -0.9312  0.5771  1.2453
    3OL    C11811387   2.863   7.833   3.774  0.3605  1.3277  0.3741
    3OL    H18R11388   2.912   7.833   3.872 -1.9525  0.8766  1.6011
    3OL    H18S11389   2.804   7.741   3.769  1.7480  0.4672 -1.2249
    3OL    H18T11390   2.791   7.914   3.772  0.3129  1.2829 -1.5205
    1PA    C11611391   3.554   0.066   3.922 -0.2260 -0.5185 -0.3653
    1PA    H16R11392   3.526  -0.019   3.983  0.6836 -1.0061 -0.6165
    1PA    H16S11393   3.474   0.098   3.855  2.1623  2.6166 -2.0320
    1PA    H16T11394   3.576   0.147   3.993 -0.7334  0.3522 -1.1751
    1PA    C11511395   3.675   0.053   3.828  0.0404  0.1185 -0.1181
    1PA    H15R11396   3.685   0.140   3.762  0.3059  0.1620 -0.0222
    1PA    H15S11397   3.768   0.055   3.885  1.1331  0.9521 -1.8274
    1PA    C11411398   3.657  -0.069   3.736  0.2167 -0.0410  0.0586
    1PA    H14R11399   3.755  -0.077   3.689  0.8237  1.3090  1.0113
    1PA    H14S11400   3.633  -0.161   3.789 -1.2338  0.2565 -0.0266
    1PA    C11311401   3.553  -0.037   3.628  0.1871  0.3516  0.1997
    1PA    H13R11402   3.463  -0.003   3.680 -1.0715 -4.0490  1.3012
    1PA    H13S11403   3.588   0.042   3.560  1.1532 -0.0083  0.2553
    1PA    C11211404   3.522  -0.157   3.537 -0.8355  0.1021  0.8728
    1PA    H12R11405   3.608  -0.202   3.488 -0.4870 -2.0469  3.2243
    1PA    H12S11406   3.481  -0.233   3.605  0.4500 -0.6451  0.8341
    1PA    C11111407   3.423  -0.131   3.423  0.5048  0.1228 -0.2971
    1PA    H11R11408   3.329  -0.107   3.473  0.9800  0.5442  0.4185
    1PA    H11S11409   3.471  -0.045   3.375  0.6592  1.6330  2.3724
    1PA    C11011410   3.415  -0.247   3.323 -0.3419  0.1721 -0.2901
    1PA    H10R11411   3.514  -0.272   3.285  0.0992 -0.2874  1.1079
    1PA    H10S11412   3.376  -0.330   3.384  1.9292  0.3675  1.5436
    1PA     C1911413   3.312  -0.211   3.215 -0.6774 -0.1687 -0.0903
    1PA     H9R11414   3.215  -0.196   3.261  0.6599 -0.7644  3.2075
    1PA     H9S11415   3.345  -0.119   3.165  0.6644 -0.1922  0.7039
    1PA     C1811416   3.312  -0.325   3.111  0.1741 -0.2808  0.0202
    1PA     H8R11417   3.415  -0.323   3.078  0.0615 -0.1808 -0.3254
    1PA     H8S11418   3.297  -0.421   3.160 -2.8695  0.7327  1.3811
    1PA     C1711419   3.211  -0.292   3.001  0.1401  0.3767  0.2400
    1PA     H7R11420   3.108  -0.288   3.037 -0.2170 -0.9604 -0.5461
    1PA     H7S11421   3.249  -0.200   2.955  2.2109 -0.3993  0.3005
    1PA     C1611422   3.206  -0.394   2.886  0.1476  0.2290  0.3722
    1PA     H6R11423   3.178  -0.492   2.927 -0.6063 -0.1668 -1.0384
    1PA     H6S11424   3.120  -0.361   2.828 -2.4912  0.8081  4.2649
    1PA     C1511425   3.337  -0.397   2.806 -0.0839 -0.4221  0.0107
    1PA     H5R11426   3.369  -0.303   2.762  2.2369 -1.6069 -1.0190
    1PA     H5S11427   3.419  -0.421   2.875 -1.2683  0.7741  1.9157
    1PA     C1411428   3.330  -0.509   2.701  0.4648 -0.4947  0.0481
    1PA     H4R11429   3.428  -0.525   2.656  0.0984  1.2667 -1.4568
    1PA     H4S11430   3.299  -0.604   2.746 -2.1352 -0.3654 -1.3476
    1PA     C1311431   3.242  -0.479   2.580  0.4513 -0.2677  0.1156
    1PA     H3R11432   3.226  -0.567   2.518  0.6657 -0.5246  0.4255
    1PA     H3S11433   3.144  -0.451   2.621  0.5580  2.3240 -1.1556
    1PA     C1211434   3.287  -0.357   2.498  0.0351 -0.0008  0.2739
    1PA     H2R11435   3.289  -0.265   2.556 -1.2962 -1.5639  2.9416
    1PA     H2S11436   3.391  -0.370   2.467  0.7843  3.4564  0.9843
    2PC     C1111437   3.203  -0.333   2.375  0.1208 -0.0762  0.2002
    2PC     O1211438   3.221  -0.387   2.267  0.2859  0.3759 -0.0016
    2PC     O1111439   3.115  -0.234   2.396 -0.5713 -0.6164 -0.1001
    2PC      C111440   3.020  -0.193   2.297  0.4783  0.1921 -0.7973
    2PC      HR11441   2.954  -0.114   2.334 -3.0978 -2.0740 -1.8159
    2PC      HS11442   3.068  -0.167   2.202 -0.0293  1.4537 -0.7411
    2PC      C211443   2.912  -0.301   2.284 -0.1930  0.7187  0.2372
    2PC      HX11444   2.966  -0.391   2.253 -0.0053  0.9286 -0.0500
    2PC      C311445   2.828  -0.266   2.160  0.1427 -0.3363 -0.3005
    2PC      HA11446   2.739  -0.214   2.198  1.3520  2.2774 -0.8349
    2PC      HB11447   2.869  -0.205   2.080 -1.1505 -1.1199 -1.6238
    2PC     O3111448   2.781  -0.387   2.098  0.7834 -0.5551 -0.3654
    2PC     P3111449   2.684  -0.368   1.971  0.0950 -0.0939  0.2244
    2PC     O3211450   2.795  -0.362   1.856  0.5878  0.0165  0.6982
    2PC     C3111451   2.748  -0.404   1.726  0.6505  0.4995  0.5168
    2PC     H1A11452   2.831  -0.405   1.655 -0.7175  1.9799 -1.1747
    2PC     H1B11453   2.696  -0.499   1.739  1.4140  0.0363  0.2871
    2PC     C3211454   2.664  -0.289   1.671 -0.4139 -0.5755 -0.1358
    2PC     H2A11455   2.578  -0.284   1.738 -0.7530  2.0406 -0.6635
    2PC     H2B11456   2.724  -0.199   1.679  1.7825 -2.0754  1.0307
    2PC     N3111457   2.602  -0.309   1.535  0.2050 -1.1591 -0.3402
    2PC     C3311458   2.713  -0.293   1.437  0.0956 -0.3004 -0.3359
    2PC     H3A11459   2.671  -0.290   1.336 -3.0809 -1.6932  0.8259
    2PC     H3B11460   2.761  -0.197   1.455 -0.2693  0.0572 -1.2090
    2PC     H3C11461   2.781  -0.378   1.443  2.1479  1.2407 -0.6075
    2PC     C3411462   2.528  -0.437   1.512 -0.9826 -0.5726  0.0912
    2PC     H4A11463   2.437  -0.435   1.572  0.2135  3.5251  2.1400
    2PC     H4B11464   2.502  -0.438   1.407 -0.2428  2.6909 -0.2086
    2PC     H4C11465   2.598  -0.516   1.541 -0.2100  0.6356  1.7177
    2PC     C3511466   2.496  -0.203   1.521  0.5600 -0.7767 -0.1507
    2PC     H5A11467   2.549  -0.114   1.557  1.7236 -1.7811  0.7316
    2PC     H5B11468   2.415  -0.222   1.590  1.6417  2.0652  2.0888
    2PC     H5C11469   2.465  -0.182   1.418 -1.6845  0.1053  0.6527
    2PC     O3311470   2.593  -0.484   1.960  0.4361 -0.4413  0.9873
    2PC     O3411471   2.601  -0.245   1.975 -0.0864 -0.2224  0.4245
    2PC     O2111472   2.820  -0.306   2.395 -0.3767 -0.4586  0.0455
    2PC     C2111473   2.837  -0.409   2.479 -0.0455 -0.1826  0.3206
    2PC     O2211474   2.907  -0.506   2.454  0.5354  0.2706  0.1705
    3OL     C1211475   2.764  -0.391   2.609  0.0399 -0.0420  0.3492
    3OL     H2R11476   2.746  -0.492   2.647 -0.7565  0.0508  0.2279
    3OL     H2S11477   2.669  -0.347   2.579  0.6118  0.0729 -1.3789
    3OL     C1311478   2.856  -0.314   2.704  0.3506  0.0482 -0.0242
    3OL     H3R11479   2.898  -0.236   2.640 -0.3458 -0.1415 -0.7234
    3OL     H3S11480   2.942  -0.378   2.722  1.1162  1.1531  0.3949
    3OL     C1411481   2.791  -0.278   2.839  0.0519  0.1951 -0.2072
    3OL     H4R11482   2.772  -0.371   2.893  0.1510 -1.0242 -2.1446
    3OL     H4S11483   2.689  -0.244   2.820  0.0622  0.4284  0.1532
    3OL     C1511484   2.865  -0.162   2.907 -0.2388  0.2335  0.0430
    3OL     H5R11485   2.846  -0.072   2.847  1.3630  1.9187  1.9324
    3OL     H5S11486   2.968  -0.196   2.902 -0.4104 -0.5490  1.4138
    3OL     C1611487   2.821  -0.139   3.052 -0.1369  0.2698  0.0678
    3OL     H6R11488   2.840  -0.228   3.112  2.2501  1.6783  1.5590
    3OL     H6S11489   2.716  -0.111   3.058 -0.2882  0.0249 -1.2709
    3OL     C1711490   2.907  -0.031   3.119  0.0841  0.0657  0.1145
    3OL     H7R11491   2.893   0.065   3.069  1.8811  0.5930  0.5320
    3OL     H7S11492   3.013  -0.058   3.111  0.5461  1.6522  0.4997
    3OL     C1811493   2.865  -0.016   3.265 -0.1202 -0.0295  0.0648
    3OL     H8R11494   2.875  -0.112   3.317 -1.6605 -0.5191 -0.4684
    3OL     H8S11495   2.759   0.009   3.270 -0.5146 -1.3227 -1.1747
    3OL     C1911496   2.933   0.103   3.327  0.4374 -0.2020 -0.2177
    3OL     H9R11497   2.957   0.182   3.256 -2.4904  0.5903 -0.4388
    3OL    C11011498   2.969   0.114   3.454 -0.1084 -0.7448 -0.0120
    3OL    H10R11499   3.014   0.205   3.493  0.6892 -1.8052  1.6450
    3OL    C11111500   2.946   0.019   3.569 -0.1973 -0.1210  0.4935
    3OL    H11R11501   2.895  -0.071   3.533  0.4059 -0.0305 -0.6398
    3OL    H11S11502   2.880   0.069   3.640  0.5632 -0.5876  1.5442
    3OL    C11211503   3.066  -0.018   3.657  0.3197 -0.0935 -0.1948
    3OL    H12R11504   3.121   0.074   3.680 -0.8156  0.7354 -0.6881
    3OL    H12S11505   3.128  -0.083   3.595 -0.9779  1.1379 -2.9625
    3OL    C11311506   3.025  -0.096   3.782  0.0050 -0.1092 -0.3058
    3OL    H13R11507   2.956  -0.169   3.741 -1.5769 -0.3503  2.4867
    3OL    H13S11508   2.977  -0.032   3.857  0.6188 -0.0939  0.0867
    3OL    C11411509   3.141  -0.168   3.852 -0.2391  0.1758  0.4124
    3OL    H14R11510   3.217  -0.095   3.883  0.0342  0.3515 -0.6234
    3OL    H14S11511   3.192  -0.229   3.776 -2.4341 -2.5460  0.9794
    3OL    C11511512   3.092  -0.246   3.975  0.0986  0.1068  0.5041
    3OL    H15R11513   3.010  -0.313   3.951 -1.1499  1.6661  0.2279
    3OL    H15S11514   3.050  -0.174   4.046  0.6915  0.7409  0.2283
    3OL    C11611515   3.198  -0.325   4.053 -0.1959  0.0726  0.8667
    3OL    H16R11516   3.250  -0.386   3.980 -0.5278 -0.2526  0.8976
    3OL    H16S11517   3.151  -0.397   4.121 -0.8262  0.0379  0.4013
    3OL    C11711518   3.303  -0.240   4.125  0.4944  0.0734 -0.1252
    3OL    H17R11519   3.379  -0.214   4.051  0.0757  1.3319 -0.1415
    3OL    H17S11520   3.352  -0.296   4.205 -0.3386 -1.5235 -0.6873
    3OL    C11811521   3.260  -0.109   4.193  0.1446 -0.4151  0.6018
    3OL    H18R11522   3.179  -0.129   4.264  0.2128 -2.3152  0.1988
    3OL    H18S11523   3.220  -0.036   4.123  0.0466  1.4105  2.4579
    3OL    H18T11524   3.342  -0.064   4.249  0.5719  0.5723 -0.7676
    1PA    C11611525   5.221   6.144   3.320 -0.2657 -0.1488 -0.1406
    1PA    H16R11526   5.204   6.157   3.213 -1.6869  0.7194  0.1702
    1PA    H16S11527   5.325   6.169   3.341 -0.5267  1.7424 -0.9882
    1PA    H16T11528   5.151   6.216   3.362 -1.0721  0.8039 -2.9301
    1PA    C11511529   5.180   6.000   3.356  0.2692 -0.4436 -0.7087
    1PA    H15R11530   5.259   5.931   3.323  1.7469  1.5293 -1.4952
    1PA    H15S11531   5.172   5.988   3.464  1.4375 -0.9116 -0.6515
    1PA    C11411532   5.046   5.965   3.289 -0.4816 -0.2489  0.6635
    1PA    H14R11533   5.027   6.013   3.193 -0.9800 -0.0860  0.8435
    1PA    H14S11534   5.048   5.856   3.284  0.4845 -0.4825  3.6255
    1PA    C11311535   4.935   6.021   3.379 -0.4267  0.1832  0.4671
    1PA    H13R11536   4.962   5.986   3.479 -0.7760 -0.2938  0.3987
    1PA    H13S11537   4.946   6.129   3.380  0.9570  0.0552  0.7203
    1PA    C11211538   4.792   5.982   3.337 -0.4033  0.2518  0.3239
    1PA    H12R11539   4.761   6.025   3.242  0.4800 -0.3882 -0.2803
    1PA    H12S11540   4.782   5.873   3.332  0.4734  0.1637  0.3027
    1PA    C11111541   4.691   6.035   3.440 -0.4591 -0.0489  0.4249
    1PA    H11R11542   4.727   6.015   3.541  0.0595  1.0576  0.4782
    1PA    H11S11543   4.684   6.143   3.425  3.0072  0.9086  4.0727
    1PA    C11011544   4.553   5.967   3.442 -0.3301 -0.3199  0.2165
    1PA    H10R11545   4.561   5.866   3.400 -2.1337 -0.6580  0.6070
    1PA    H10S11546   4.521   5.957   3.546  2.3583 -0.0790  1.1465
    1PA     C1911547   4.440   6.045   3.372 -0.4248 -0.7691 -0.1355
    1PA     H9R11548   4.338   6.033   3.410 -0.9860  3.0324 -0.1157
    1PA     H9S11549   4.455   6.150   3.399  0.3704 -0.6937 -0.8269
    1PA     C1811550   4.439   6.019   3.221 -0.3390 -0.4462 -0.1913
    1PA     H8R11551   4.538   6.039   3.179 -1.0694 -1.3272 -2.4371
    1PA     H8S11552   4.415   5.913   3.214  1.6747 -1.0178  0.8035
    1PA     C1711553   4.336   6.100   3.141 -0.0176  0.1362 -0.0265
    1PA     H7R11554   4.237   6.082   3.183  0.7458 -0.9253  1.4157
    1PA     H7S11555   4.365   6.203   3.161  0.7067 -0.4573  2.2810
    1PA     C1611556   4.345   6.071   2.990  0.2854 -0.5661  0.1218
    1PA     H6R11557   4.282   6.151   2.950 -0.5800 -0.1578  2.1432
    1PA     H6S11558   4.449   6.087   2.960 -0.3176  1.4513 -1.1019
    1PA     C1511559   4.297   5.929   2.960 -0.2394 -0.3960  0.1488
    1PA     H5R11560   4.357   5.867   3.028  0.9504  0.3397 -0.2150
    1PA     H5S11561   4.192   5.909   2.982 -1.0580 -2.5432 -4.4091
    1PA     C1411562   4.323   5.888   2.814  0.1556 -0.3476  0.2056
    1PA     H4R11563   4.416   5.939   2.790  0.4018 -0.2666  1.2665
    1PA     H4S11564   4.350   5.782   2.817 -1.2679 -0.7169  0.4878
    1PA     C1311565   4.206   5.914   2.718  0.3055 -0.0730  0.0973
    1PA     H3R11566   4.125   5.845   2.740  1.0789 -1.2037 -0.5181
    1PA     H3S11567   4.170   6.013   2.748 -1.1102 -1.1519  2.1847
    1PA     C1211568   4.258   5.914   2.574  0.7109  0.3361  0.2382
    1PA     H2R11569   4.186   5.964   2.508  1.4983  1.8323  0.4653
    1PA     H2S11570   4.351   5.969   2.560  0.5779  0.3551 -0.6976
    2PC     C1111571   4.291   5.776   2.522 -0.5573  0.1281 -0.0632
    2PC     O1211572   4.278   5.669   2.579  0.3504  0.3919  0.6823
    2PC     O1111573   4.359   5.790   2.407  0.0460 -0.1610  0.2555
    2PC      C111574   4.381   5.681   2.315 -0.0553  0.0424 -0.0076
    2PC      HR11575   4.416   5.734   2.226 -3.8118  2.5452 -0.2165
    2PC      HS11576   4.448   5.606   2.357 -0.3654  0.9410  2.2288
    2PC      C211577   4.249   5.609   2.286 -0.0699  0.1694 -0.2602
    2PC      HX11578   4.210   5.552   2.371 -3.1328  0.5170 -1.2860
    2PC      C311579   4.263   5.508   2.173 -0.0883  0.1229 -0.2216
    2PC      HA11580   4.261   5.411   2.223 -0.7907  0.4227  0.3352
    2PC      HB11581   4.177   5.507   2.105  0.6670 -0.7180 -1.2115
    2PC     O3111582   4.380   5.514   2.088 -0.1432  0.0508 -0.3030
    2PC     P3111583   4.376   5.462   1.937  0.0568 -0.5723 -0.0963
    2PC     O3211584   4.521   5.514   1.891 -0.1559  0.4113  0.3334
    2PC     C3111585   4.539   5.647   1.839  0.3780  0.0871 -0.3200
    2PC     H1A11586   4.476   5.650   1.749  0.2706 -1.7489 -0.3355
    2PC     H1B11587   4.512   5.723   1.913  1.4310  0.4754 -0.3207
    2PC     C3211588   4.684   5.657   1.791  0.2883  0.9087 -0.4343
    2PC     H2A11589   4.706   5.764   1.786 -1.1408  1.2085 -0.5919
    2PC     H2B11590   4.748   5.620   1.871 -2.0239 -1.1232  0.5804
    2PC     N3111591   4.721   5.595   1.659  0.2351 -0.1216  0.0248
    2PC     C3311592   4.666   5.691   1.558 -0.8117 -0.1639  0.5433
    2PC     H3A11593   4.694   5.658   1.458 -2.2184 -0.6889  0.2886
    2PC     H3B11594   4.558   5.706   1.556 -0.5951  1.4878 -0.2855
    2PC     H3C11595   4.711   5.787   1.582  1.5137 -0.9267 -0.5059
    2PC     C3411596   4.869   5.574   1.650  0.2980  0.1719  0.3219
    2PC     H4A11597   4.898   5.498   1.722 -0.3063 -0.5436 -0.1791
    2PC     H4B11598   4.896   5.531   1.553  0.0335  1.9590 -0.6016
    2PC     H4C11599   4.925   5.666   1.670 -2.1303  1.4702  1.5910
    2PC     C3511600   4.655   5.461   1.647  0.1929 -0.0622 -0.3921
    2PC     H5A11601   4.702   5.388   1.713  4.0788  0.6547 -2.0992
    2PC     H5B11602   4.664   5.436   1.541  1.1791 -2.8316  0.2654
    2PC     H5C11603   4.549   5.473   1.668  0.1944  1.6751 -1.1570
    2PC     O3311604   4.361   5.315   1.931 -0.3478 -0.5177 -0.4662
    2PC     O3411605   4.258   5.520   1.869  0.4495 -0.2064 -0.4762
    2PC     O2111606   4.152   5.706   2.242  0.0117  0.3336 -0.0818
    2PC     C2111607   4.024   5.679   2.271  0.1344  0.2265  0.3632
    2PC     O2211608   3.997   5.569   2.316  0.4258  0.1358  0.3187
    3OL     C1211609   3.935   5.797   2.243 -0.5425 -0.3429  0.0877
    3OL     H2R11610   3.842   5.756   2.202 -1.4214 -0.0567  1.7005
    3OL     H2S11611   3.979   5.849   2.157 -1.6187 -0.7179 -0.7161
    3OL     C1311612   3.918   5.897   2.358  0.5388  0.1008 -0.1281
    3OL     H3R11613   3.854   5.984   2.342 -0.3545 -0.1941  1.6154
    3OL     H3S11614   4.016   5.934   2.390  0.4957  0.3886 -0.3169
    3OL     C1411615   3.855   5.823   2.476  0.1034  0.3719 -0.1868
    3OL     H4R11616   3.935   5.768   2.526 -0.5414  1.1046  1.7325
    3OL     H4S11617   3.771   5.756   2.454 -0.0953  1.1909 -2.0565
    3OL     C1511618   3.798   5.929   2.572 -0.1364  0.3421 -0.2959
    3OL     H5R11619   3.701   5.960   2.534  0.2806  1.6271 -0.3498
    3OL     H5S11620   3.854   6.023   2.574 -1.7841  1.3815  2.4844
    3OL     C1611621   3.784   5.871   2.713  0.2803 -0.2982 -0.5084
    3OL     H6R11622   3.883   5.842   2.747 -0.4901 -0.5421  1.7188
    3OL     H6S11623   3.724   5.780   2.710  0.9140 -0.7165 -0.6484
    3OL     C1711624   3.730   5.967   2.820  1.3615 -0.4042  0.1443
    3OL     H7R11625   3.636   6.010   2.786  1.5471 -1.8618 -2.4067
    3OL     H7S11626   3.809   6.043   2.824  1.5563 -0.6357  0.8475
    3OL     C1811627   3.712   5.894   2.954  0.5706 -0.4167  0.0366
    3OL     H8R11628   3.801   5.837   2.983  0.5828 -0.3812  0.0691
    3OL     H8S11629   3.627   5.827   2.940 -0.5142  0.3532  2.3263
    3OL     C1911630   3.679   5.991   3.065 -0.0702 -0.4046 -0.1600
    3OL     H9R11631   3.586   6.046   3.058 -0.2608 -0.8788 -1.5995
    3OL    C11011632   3.741   6.010   3.181 -0.6409 -0.0855  0.0952
    3OL    H10R11633   3.700   6.086   3.248 -1.2507  2.6038 -3.0590
    3OL    C11111634   3.868   5.945   3.230 -0.0347  0.6432 -0.4851
    3OL    H11R11635   3.938   5.936   3.147 -0.0944  0.3373 -0.5039
    3OL    H11S11636   3.850   5.841   3.258 -0.8670  1.1162  0.8278
    3OL    C11211637   3.928   6.015   3.352  0.0444 -0.2209 -0.0180
    3OL    H12R11638   3.921   6.124   3.339  1.9997 -0.2892 -2.2844
    3OL    H12S11639   4.033   5.987   3.356  0.1230  0.0366 -0.2480
    3OL    C11311640   3.848   5.984   3.480 -0.0290 -0.6030 -0.1567
    3OL    H13R11641   3.863   5.878   3.500  1.8618 -0.2908  0.3409
    3OL    H13S11642   3.742   6.000   3.461 -0.9745 -2.9224  2.5296
    3OL    C11411643   3.894   6.064   3.603  0.0443  0.4206 -0.8379
    3OL    H14R11644   3.852   6.013   3.689 -0.9711  1.1979 -0.8489
    3OL    H14S11645   3.876   6.171   3.595  0.5464  0.5137 -0.7531
    3OL    C11511646   4.044   6.045   3.629 -0.2600 -0.7718  0.1420
    3OL    H15R11647   4.105   6.098   3.555 -0.7019  1.8392  1.5496
    3OL    H15S11648   4.065   5.938   3.617 -0.3103 -0.6520 -1.2149
    3OL    C11611649   4.088   6.082   3.771 -0.3462  0.1230 -0.0608
    3OL    H16R11650   4.173   6.016   3.788 -0.7631  0.0876  2.1290
    3OL    H16S11651   4.014   6.048   3.844  0.5717  0.0460  0.8658
    3OL    C11711652   4.122   6.230   3.794 -0.0593 -0.0493  0.6416
    3OL    H17R11653   4.133   6.251   3.901  0.3493  0.7102  0.4607
    3OL    H17S11654   4.039   6.291   3.759  0.3242 -0.3258 -0.8077
    3OL    C11811655   4.252   6.264   3.720 -0.1521 -0.1877  0.4134
    3OL    H18R11656   4.250   6.239   3.614  2.7796 -0.5930  0.3520
    3OL    H18S11657   4.338   6.217   3.769 -0.0923  0.4542  0.9488
    3OL    H18T11658   4.272   6.371   3.722  0.9417 -0.3705 -0.0473
    1PA    C11611659   4.998   1.337   4.007 -0.4957 -0.1232 -0.5376
    1PA    H16R11660   4.920   1.262   3.992  0.8375 -1.6419 -0.2373
    1PA    H16S11661   5.004   1.381   4.107  1.1714 -0.8893 -0.2653
    1PA    H16T11662   5.094   1.286   3.991 -1.1743 -0.7631 -3.0411
    1PA    C11511663   4.973   1.460   3.919 -0.0710  0.4404  0.1133
    1PA    H15R11664   4.890   1.521   3.955 -1.0430 -0.0610 -1.1491
    1PA    H15S11665   5.053   1.534   3.919  1.9245 -1.5815  1.8560
    1PA    C11411666   4.955   1.412   3.774 -0.4485 -0.2914  0.3939
    1PA    H14R11667   4.955   1.506   3.718  2.2839 -1.0514 -1.1046
    1PA    H14S11668   5.038   1.355   3.732  1.5674  2.2438  0.6841
    1PA    C11311669   4.814   1.353   3.759 -0.3412 -0.5249  0.2954
    1PA    H13R11670   4.799   1.262   3.818 -1.7102 -0.1409  0.5707
    1PA    H13S11671   4.745   1.429   3.794  0.3078 -1.1349  3.2064
    1PA    C11211672   4.807   1.329   3.608 -0.2778 -0.0705  0.2204
    1PA    H12R11673   4.793   1.429   3.565 -0.2048 -0.2700 -0.2718
    1PA    H12S11674   4.893   1.280   3.563  1.9671  1.0858  2.9424
    1PA    C11111675   4.679   1.251   3.575 -0.0760 -0.1565 -0.3663
    1PA    H11R11676   4.676   1.162   3.639  0.2377 -0.4985 -0.8095
    1PA    H11S11677   4.583   1.299   3.591  0.4710  0.5426  0.9045
    1PA    C11011678   4.684   1.198   3.431 -0.1191 -0.0433 -0.4093
    1PA    H10R11679   4.684   1.288   3.369  3.7121 -0.9437 -2.0704
    1PA    H10S11680   4.776   1.140   3.423  0.1839  0.3569  0.0869
    1PA     C1911681   4.556   1.119   3.402 -0.2306 -0.0091 -0.0179
    1PA     H9R11682   4.541   1.040   3.475  1.4685  1.1480  1.6687
    1PA     H9S11683   4.477   1.194   3.391 -0.7141 -0.7811 -2.4766
    1PA     C1811684   4.569   1.053   3.264  0.1480 -0.1347  0.0768
    1PA     H8R11685   4.564   1.132   3.188 -1.2499 -0.7571 -0.5100
    1PA     H8S11686   4.668   1.008   3.259 -0.1814 -0.9702  0.9344
    1PA     C1711687   4.465   0.945   3.234 -0.0365  0.1102 -0.1784
    1PA     H7R11688   4.475   0.872   3.315  5.0422 -0.1858 -0.7821
    1PA     H7S11689   4.360   0.974   3.223 -0.4838 -0.7349  1.4554
    1PA     C1611690   4.504   0.867   3.108  0.0467 -0.1149 -0.0151
    1PA     H6R11691   4.612   0.862   3.092  0.3331  3.1917  0.0827
    1PA     H6S11692   4.474   0.762   3.108  1.6134 -0.5876 -0.7857
    1PA     C1511693   4.445   0.939   2.985  0.0243 -0.0695  0.0220
    1PA     H5R11694   4.337   0.921   2.978  0.3884 -3.1693  0.8331
    1PA     H5S11695   4.460   1.046   3.000  3.6442 -0.4591 -0.0602
    1PA     C1411696   4.511   0.893   2.855 -0.3375  0.6823 -0.4347
    1PA     H4R11697   4.483   0.969   2.782 -3.0764  1.0641  0.8886
    1PA     H4S11698   4.619   0.899   2.868 -0.2818  0.1193 -0.5908
    1PA     C1311699   4.477   0.755   2.797  0.2789  0.5072 -0.3857
    1PA     H3R11700   4.557   0.727   2.728  1.6299 -0.0907  1.3336
    1PA     H3S11701   4.468   0.675   2.871  1.7524 -0.1733 -0.8988
    1PA     C1211702   4.352   0.747   2.708 -0.5120 -0.3192  0.7752
    1PA     H2R11703   4.354   0.651   2.656 -1.9577  0.2986 -0.4671
    1PA     H2S11704   4.254   0.748   2.757 -0.9002  0.7295  0.0113
    2PC     C1111705   4.346   0.861   2.610 -0.0188 -0.6797  0.3194
    2PC     O1211706   4.441   0.888   2.539 -0.8354 -0.2899 -0.6406
    2PC     O1111707   4.227   0.923   2.610  0.2939 -0.0642  0.3186
    2PC      C111708   4.210   1.031   2.517 -0.1283 -0.3973  0.0037
    2PC      HR11709   4.267   1.010   2.426 -2.2184 -2.7924 -0.8601
    2PC      HS11710   4.105   1.027   2.489 -0.7011 -0.3920  2.0066
    2PC      C211711   4.231   1.169   2.581  0.7705 -0.3951 -0.2693
    2PC      HX11712   4.155   1.168   2.660  0.6147 -1.6889 -0.4060
    2PC      C311713   4.206   1.279   2.477  0.0744 -0.5709 -0.2976
    2PC      HA11714   4.100   1.299   2.465 -0.0454 -1.5942 -1.1780
    2PC      HB11715   4.252   1.371   2.514 -0.6986 -1.1002  2.1544
    2PC     O3111716   4.267   1.245   2.351  0.9526  0.5431 -0.1899
    2PC     P3111717   4.255   1.348   2.229 -0.0760  0.7515  0.0802
    2PC     O3211718   4.327   1.278   2.105 -0.2884  0.5006  0.0976
    2PC     C3111719   4.245   1.222   2.000 -0.0867 -0.0282  0.2183
    2PC     H1A11720   4.191   1.137   2.042 -0.0839 -0.0441  0.1897
    2PC     H1B11721   4.176   1.303   1.975  0.7007  2.1583  4.2058
    2PC     C3211722   4.328   1.171   1.882 -0.2964 -0.4927  0.2712
    2PC     H2A11723   4.394   1.251   1.849 -0.8293  0.7507  2.0892
    2PC     H2B11724   4.395   1.092   1.915  0.1887 -0.7225 -1.1654
    2PC     N3111725   4.254   1.130   1.758  0.2638  0.0751 -0.2585
    2PC     C3311726   4.169   1.008   1.774 -0.5151  0.7144  0.5490
    2PC     H3A11727   4.104   1.021   1.861 -0.0617 -0.1257  1.0262
    2PC     H3B11728   4.103   0.996   1.688 -0.2035 -0.4956  0.4657
    2PC     H3C11729   4.225   0.919   1.802 -0.6463  0.8329  1.2086
    2PC     C3411730   4.168   1.244   1.711 -0.2110 -0.1297  0.1046
    2PC     H4A11731   4.230   1.333   1.721 -0.2514 -0.0812 -0.0713
    2PC     H4B11732   4.145   1.229   1.606  0.5663 -0.7197  0.0072
    2PC     H4C11733   4.079   1.248   1.774 -1.5308  1.2581 -1.7436
    2PC     C3511734   4.346   1.098   1.644 -0.0894  0.4298 -0.6464
    2PC     H5A11735   4.383   1.197   1.616  0.3031  0.6107  0.4707
    2PC     H5B11736   4.299   1.051   1.558 -0.5262  1.5251 -1.0236
    2PC     H5C11737   4.428   1.050   1.698 -0.4788  0.9921  0.4749
    2PC     O3311738   4.114   1.370   2.188 -0.0799 -0.4487 -0.5941
    2PC     O3411739   4.328   1.473   2.261  0.3859  0.3782  0.4965
    2PC     O2111740   4.364   1.189   2.632  0.6308 -0.5352  0.1555
    2PC     C2111741   4.393   1.286   2.720 -0.4434 -0.1459  0.1001
    2PC     O2211742   4.308   1.359   2.767  0.1358  0.6621 -0.0755
    3OL     C1211743   4.542   1.305   2.735 -0.4754  0.2463 -0.0690
    3OL     H2R11744   4.590   1.332   2.641 -0.8088 -0.1829 -0.3672
    3OL     H2S11745   4.586   1.217   2.783  0.8234  0.4048 -0.9317
    3OL     C1311746   4.583   1.413   2.837  0.0628  0.1588 -0.1913
    3OL     H3R11747   4.515   1.420   2.922  0.2195 -1.1603  0.0718
    3OL     H3S11748   4.573   1.513   2.795 -2.0408 -0.1754 -0.5836
    3OL     C1411749   4.725   1.389   2.890 -0.0818  0.3147  0.2691
    3OL     H4R11750   4.766   1.478   2.939  3.1271 -1.2287  0.6657
    3OL     H4S11751   4.794   1.372   2.807 -1.0846 -0.5806 -0.4161
    3OL     C1511752   4.750   1.275   2.990 -0.0670 -0.1031 -0.2055
    3OL     H5R11753   4.704   1.180   2.964 -1.5767  0.1731  1.2673
    3OL     H5S11754   4.691   1.307   3.077 -0.1852  0.1626 -0.3790
    3OL     C1611755   4.899   1.270   3.023 -0.1148  0.2183  0.0677
    3OL     H6R11756   4.943   1.369   3.038 -1.2341  0.7198  0.0974
    3OL     H6S11757   4.944   1.234   2.930 -1.0144  0.4808 -0.4817
    3OL     C1711758   4.940   1.176   3.138 -0.4076  0.2344  0.1866
    3OL     H7R11759   4.907   1.078   3.105 -0.4626  0.6016 -0.9017
    3OL     H7S11760   4.894   1.203   3.233 -0.2228 -0.6782  0.5467
    3OL     C1811761   5.093   1.189   3.152 -0.5159  0.4168  1.2528
    3OL     H8R11762   5.119   1.294   3.169  1.6367  0.0072  0.6938
    3OL     H8S11763   5.151   1.148   3.069  2.0940  0.1427  3.0846
    3OL     C1911764   5.125   1.092   3.263 -0.4222 -0.3725  0.5470
    3OL     H9R11765   5.095   0.989   3.245 -2.5737  0.5509 -1.7444
    3OL    C11011766   5.170   1.121   3.384  0.1156  0.3448  0.1883
    3OL    H10R11767   5.178   1.038   3.453  0.7764  0.1529 -0.1161
    3OL    C11111768   5.220   1.256   3.429  0.2399  0.1304  0.6990
    3OL    H11R11769   5.141   1.310   3.482  0.6253  0.5396  0.8643
    3OL    H11S11770   5.261   1.313   3.345 -0.2344 -1.3073 -0.5512
    3OL    C11211771   5.323   1.235   3.541  0.2118 -1.1239  0.5010
    3OL    H12R11772   5.399   1.168   3.499  0.6212 -0.7807  0.6924
    3OL    H12S11773   5.278   1.191   3.630 -1.8039  0.9691  0.5892
    3OL    C11311774   5.386   1.371   3.574 -0.5831 -0.6008 -0.0994
    3OL    H13R11775   5.302   1.429   3.612 -1.7696 -1.0551 -1.8973
    3OL    H13S11776   5.420   1.416   3.480  0.4524 -0.1348  0.4742
    3OL    C11411777   5.511   1.365   3.663 -0.4792  0.3292 -0.1802
    3OL    H14R11778   5.567   1.459   3.654 -1.1609  0.5520 -2.7794
    3OL    H14S11779   5.568   1.277   3.634 -3.5311 -2.9471  2.8044
    3OL    C11511780   5.478   1.351   3.812 -0.4938  0.6264 -0.1538
    3OL    H15R11781   5.560   1.290   3.850 -0.1871  0.4729 -1.0447
    3OL    H15S11782   5.390   1.289   3.831 -0.7607  0.0441 -2.8437
    3OL    C11611783   5.465   1.485   3.886 -0.9143  0.2297  0.5018
    3OL    H16R11784   5.385   1.542   3.839  0.3308  0.4660 -1.4606
    3OL    H16S11785   5.552   1.550   3.887  0.7767 -1.9338  0.9062
    3OL    C11711786   5.442   1.464   4.036 -0.0078 -0.0979  0.6011
    3OL    H17R11787   5.521   1.398   4.072 -0.2776 -2.0343 -2.1073
    3OL    H17S11788   5.346   1.415   4.052  0.5194 -1.3554  0.0253
    3OL    C11811789   5.448   1.602   4.103 -0.8947  0.0192  0.4575
    3OL    H18R11790   5.450   1.585   4.211  1.4834 -3.0742  0.0625
    3OL    H18S11791   5.367   1.665   4.066  0.3216  1.7443  0.5796
    3OL    H18T11792   5.539   1.657   4.078 -0.3716 -0.8358  0.4310
    1PA    C11611793   2.560   4.000   3.473 -0.0562  0.1206  0.2667
    1PA    H16R11794   2.490   4.045   3.403 -0.3488 -1.9867 -0.8851
    1PA    H16S11795   2.632   4.068   3.519  0.2293  0.6551 -0.9282
    1PA    H16T11796   2.499   3.950   3.549 -0.9292 -0.1417 -0.5905
    1PA    C11511797   2.624   3.873   3.414 -0.4469 -0.0678  0.2488
    1PA    H15R11798   2.543   3.809   3.378 -0.1972  0.1619 -0.7477
    1PA    H15S11799   2.679   3.908   3.326  0.8651 -0.0847  1.0395
    1PA    C11411800   2.713   3.795   3.511 -0.3039 -0.1299  0.0660
    1PA    H14R11801   2.786   3.872   3.538 -0.5111 -0.2189  0.8996
    1PA    H14S11802   2.659   3.763   3.600  1.6865 -1.6228  0.8259
    1PA    C11311803   2.791   3.677   3.450 -0.6519 -0.1181 -0.4053
    1PA    H13R11804   2.843   3.713   3.360  1.3086  0.6035  0.9412
    1PA    H13S11805   2.883   3.660   3.506 -0.0431  1.8208 -0.7186
    1PA    C11211806   2.701   3.555   3.427 -0.3229 -0.3574 -0.4328
    1PA    H12R11807   2.634   3.530   3.509 -0.8236 -1.1355 -1.0638
    1PA    H12S11808   2.638   3.575   3.340 -1.9191  0.2362  0.8040
    1PA    C11111809   2.781   3.426   3.407  0.0646 -0.2602  0.4303
    1PA    H11R11810   2.853   3.418   3.488  2.0095  0.7322 -1.1082
    1PA    H11S11811   2.712   3.341   3.407 -1.3876  0.8705 -0.7475
    1PA    C11011812   2.839   3.416   3.265 -0.2260 -0.1734  0.3054
    1PA    H10R11813   2.755   3.400   3.197  0.3232  0.0066 -0.4234
    1PA    H10S11814   2.893   3.501   3.222  1.1872  0.7089  3.5606
    1PA     C1911815   2.938   3.300   3.280 -0.0836 -0.0281  0.4826
    1PA     H9R11816   3.026   3.340   3.332  0.3232 -1.0392  0.5899
    1PA     H9S11817   2.890   3.221   3.339 -0.3276 -0.3529 -0.1473
    1PA     C1811818   2.999   3.269   3.143  0.5873 -0.4709  0.8759
    1PA     H8R11819   3.056   3.354   3.105  0.1632 -0.6798 -0.2549
    1PA     H8S11820   3.078   3.194   3.156  0.0230 -1.1409  0.5168
    1PA     C1711821   2.905   3.224   3.031  0.3046  0.7495  0.6071
    1PA     H7R11822   2.838   3.305   3.002 -1.5631 -0.8777  0.1158
    1PA     H7S11823   2.968   3.203   2.944 -1.8732  0.9765 -1.1069
    1PA     C1611824   2.816   3.103   3.064  0.0442  0.6749 -0.3248
    1PA     H6R11825   2.819   3.042   2.974  0.7752  2.9115 -1.9004
    1PA     H6S11826   2.844   3.040   3.149 -0.7519  0.0477 -0.5216
    1PA     C1511827   2.672   3.148   3.094 -0.0729 -0.0588  0.2498
    1PA     H5R11828   2.676   3.211   3.183  2.2722 -0.2857  0.3609
    1PA     H5S11829   2.644   3.219   3.016  1.4443 -0.2900 -0.5382
    1PA     C1411830   2.564   3.043   3.124  0.5808 -0.7894  0.0703
    1PA     H4R11831   2.584   2.992   3.218 -0.0063 -1.3836 -0.1217
    1PA     H4S11832   2.473   3.099   3.142  0.3741 -1.3302  0.7658
    1PA     C1311833   2.530   2.945   3.011  0.2553 -0.2904 -0.2679
    1PA     H3R11834   2.423   2.922   3.007 -0.0713  0.3154  2.5156
    1PA     H3S11835   2.554   2.982   2.912  0.3366 -0.6896 -0.4012
    1PA     C1211836   2.603   2.811   3.029 -0.3549 -0.5222  0.5591
    1PA     H2R11837   2.707   2.843   3.013 -1.1433  2.3439  0.5275
    1PA     H2S11838   2.592   2.762   3.126 -1.6819 -1.8240 -0.2214
    2PC     C1111839   2.574   2.708   2.924 -0.1428  0.2922 -0.3134
    2PC     O1211840   2.467   2.684   2.871 -0.5038 -0.0018  0.5352
    2PC     O1111841   2.686   2.649   2.880 -0.5123 -0.5741 -0.1230
    2PC      C111842   2.684   2.546   2.779 -0.3908 -0.4426 -0.2591
    2PC      HR11843   2.620   2.465   2.813 -1.8297  1.1087  0.8846
    2PC      HS11844   2.630   2.591   2.695 -2.6812 -0.0736  1.3341
    2PC      C211845   2.824   2.492   2.747 -0.0662 -0.1888  0.6914
    2PC      HX11846   2.903   2.567   2.750  0.2473 -0.5399  1.4560
    2PC      C311847   2.815   2.413   2.615 -0.0748 -0.1252  0.6536
    2PC      HA11848   2.837   2.473   2.526 -0.9298  0.2162  0.6650
    2PC      HB11849   2.898   2.342   2.616 -0.5158 -0.6559  0.1904
    2PC     O3111850   2.695   2.336   2.597 -0.1040  0.0943 -0.1110
    2PC     P3111851   2.674   2.242   2.468  0.0029 -0.1714  0.0637
    2PC     O3211852   2.514   2.239   2.456 -0.0114  0.3269  0.0870
    2PC     C3111853   2.448   2.366   2.456  0.2032  0.4403  0.1199
    2PC     H1A11854   2.459   2.421   2.550  1.2894 -0.6655  0.6495
    2PC     H1B11855   2.491   2.427   2.377 -0.2819  0.6338 -0.0016
    2PC     C3211856   2.298   2.341   2.431  0.3202 -0.4354  0.2946
    2PC     H2A11857   2.265   2.293   2.524 -0.1115 -0.7911 -0.0351
    2PC     H2B11858   2.247   2.437   2.430  2.5698  0.8966  2.3722
    2PC     N3111859   2.252   2.252   2.320 -0.0779 -0.0960  0.1867
    2PC     C3311860   2.342   2.277   2.202 -0.0512  0.3031  0.2912
    2PC     H3A11861   2.327   2.380   2.172  0.1630  0.5518  1.0073
    2PC     H3B11862   2.446   2.266   2.234  1.1885  2.2235 -2.6793
    2PC     H3C11863   2.316   2.203   2.127 -2.2959  0.7259  0.5568
    2PC     C3411864   2.250   2.107   2.358 -0.4897 -0.2493 -0.4108
    2PC     H4A11865   2.351   2.072   2.378  0.3607  1.0172 -2.2044
    2PC     H4B11866   2.196   2.104   2.453  0.2587  0.3872  0.0433
    2PC     H4C11867   2.208   2.041   2.281 -0.7564  0.3133 -0.7567
    2PC     C3511868   2.113   2.287   2.278 -0.0818 -0.7278 -0.3412
    2PC     H5A11869   2.040   2.253   2.352 -1.7387  1.8761 -0.6465
    2PC     H5B11870   2.096   2.239   2.181 -0.7984 -2.3469  0.5321
    2PC     H5C11871   2.105   2.394   2.256 -0.3984 -0.6131  0.3299
    2PC     O3311872   2.745   2.290   2.347 -0.2622  0.4567  0.1520
    2PC     O3411873   2.742   2.111   2.482 -0.2900 -0.3504 -0.1768
    2PC     O2111874   2.855   2.398   2.851 -0.0263 -0.2741  0.6037
    2PC     C2111875   2.980   2.349   2.856  0.0542 -0.1879 -0.3869
    2PC     O2211876   3.072   2.385   2.785  0.3084  0.4953  0.2784
    3OL     C1211877   2.999   2.259   2.976 -0.5288  0.3540  0.1194
    3OL     H2R11878   2.956   2.160   2.959 -1.5764  0.7865  0.1697
    3OL     H2S11879   2.944   2.296   3.063 -0.1680  0.9400  0.1012
    3OL     C1311880   3.145   2.236   3.017 -0.4935 -0.0671 -0.2297
    3OL     H3R11881   3.149   2.219   3.125  2.2518 -2.0341 -0.5353
    3OL     H3S11882   3.204   2.326   3.003 -0.3758 -0.1875 -0.5089
    3OL     C1411883   3.222   2.135   2.931  0.1903  0.2505  0.0116
    3OL     H4R11884   3.219   2.150   2.823 -2.2911 -2.9119 -0.4770
    3OL     H4S11885   3.186   2.033   2.942  0.9367 -0.0295 -0.0860
    3OL     C1511886   3.373   2.137   2.961  0.1688 -0.1284  0.1391
    3OL     H5R11887   3.406   2.237   2.934 -0.8216  0.6738  1.7876
    3OL     H5S11888   3.417   2.055   2.903  1.3355 -1.2219  2.4471
    3OL     C1611889   3.405   2.121   3.110  0.1078 -0.2200  0.1424
    3OL     H6R11890   3.355   2.026   3.132  1.3789 -0.8883  0.2583
    3OL     H6S11891   3.360   2.197   3.173  1.8832 -0.9855  2.5003
    3OL     C1711892   3.557   2.106   3.128  0.2440  0.3978 -0.4714
    3OL     H7R11893   3.602   2.200   3.095 -0.7310  1.0457 -0.0199
    3OL     H7S11894   3.598   2.033   3.057  0.4349 -0.5977  0.6344
    3OL     C1811895   3.596   2.075   3.273 -0.6176  0.1685 -0.2831
    3OL     H8R11896   3.630   1.972   3.288 -1.1445 -0.2634 -1.8726
    3OL     H8S11897   3.509   2.101   3.334 -1.5010  2.1702 -2.2725
    3OL     C1911898   3.711   2.160   3.321 -0.1860 -0.4867 -0.1432
    3OL     H9R11899   3.673   2.258   3.347 -0.5033 -1.0998  1.9367
    3OL    C11011900   3.840   2.130   3.325  0.0227  0.3809 -0.3870
    3OL    H10R11901   3.914   2.201   3.360 -1.1883  0.8788  1.2884
    3OL    C11111902   3.899   1.996   3.292  0.0861  0.2798  0.1354
    3OL    H11R11903   3.866   1.954   3.196  1.6855 -2.4308  0.6542
    3OL    H11S11904   3.869   1.925   3.370  0.6441  0.6193  0.6667
    3OL    C11211905   4.051   1.976   3.281  0.0614  0.3637 -0.4168
    3OL    H12R11906   4.104   2.007   3.372  0.1067  1.4978 -0.8190
    3OL    H12S11907   4.098   2.043   3.210  1.4802  1.0118  1.0601
    3OL    C11311908   4.088   1.831   3.246  0.0314  0.3220 -0.2780
    3OL    H13R11909   4.039   1.816   3.150 -2.8398  1.9685  0.8135
    3OL    H13S11910   4.037   1.769   3.320  1.5044  0.0901  0.5802
    3OL    C11411911   4.241   1.813   3.256 -0.0643 -0.3383  0.0481
    3OL    H14R11912   4.287   1.826   3.354  0.5758  0.5384 -0.3475
    3OL    H14S11913   4.297   1.870   3.182  0.9417 -1.5401 -0.1287
    3OL    C11511914   4.279   1.670   3.218  0.4122 -0.1490 -0.1965
    3OL    H15R11915   4.385   1.654   3.237  0.8900 -1.4092 -3.2754
    3OL    H15S11916   4.253   1.651   3.113 -0.7357  1.3311 -0.2085
    3OL    C11611917   4.206   1.568   3.307 -0.0871  0.3729 -0.0009
    3OL    H16R11918   4.105   1.547   3.270 -0.6648 -0.1285  1.7749
    3OL    H16S11919   4.180   1.615   3.402  0.9847  0.4224  0.2803
    3OL    C11711920   4.275   1.431   3.318 -1.2191 -0.2138 -0.0316
    3OL    H17R11921   4.215   1.366   3.382  0.0198 -0.4717  0.9007
    3OL    H17S11922   4.372   1.433   3.367 -0.9879 -0.8071 -0.4598
    3OL    C11811923   4.297   1.360   3.184  0.1736  0.0014  0.0727
    3OL    H18R11924   4.359   1.422   3.119 -0.0456 -1.1776 -1.2939
    3OL    H18S11925   4.201   1.353   3.133  0.2640 -0.1544 -0.0741
    3OL    H18T11926   4.339   1.262   3.207 -0.9183 -0.0738  1.9570
    1PA    C11611927   5.781   4.726   3.700 -0.0609 -0.0756 -0.0656
    1PA    H16R11928   5.708   4.701   3.777 -1.3783  0.7056 -1.0149
    1PA    H16S11929   5.791   4.638   3.636  2.1974  0.2820 -0.3062
    1PA    H16T11930   5.741   4.810   3.643 -1.3342 -0.6490 -0.0615
    1PA    C11511931   5.918   4.762   3.759 -0.1638  0.2100 -0.0023
    1PA    H15R11932   5.900   4.836   3.838  2.0123  0.6975  0.0904
    1PA    H15S11933   5.974   4.678   3.800  0.4839 -0.8091 -2.7687
    1PA    C11411934   6.021   4.833   3.671 -0.5629 -0.0309 -0.6698
    1PA    H14R11935   5.966   4.913   3.622  0.7009  1.9372  0.9315
    1PA    H14S11936   6.101   4.879   3.731 -0.5676  0.6153 -1.1494
    1PA    C11311937   6.080   4.737   3.567  0.8628  0.2071 -0.1145
    1PA    H13R11938   6.125   4.652   3.619 -3.3039 -0.8838  2.2089
    1PA    H13S11939   6.008   4.686   3.502  0.6725  1.3316 -0.8184
    1PA    C11211940   6.171   4.812   3.468  0.2564  0.7935 -0.2356
    1PA    H12R11941   6.105   4.883   3.418  0.2054  0.9419  0.0375
    1PA    H12S11942   6.251   4.854   3.529  0.8754 -1.8786  0.9507
    1PA    C11111943   6.233   4.716   3.365 -0.3456 -0.0296  0.1548
    1PA    H11R11944   6.303   4.644   3.408  0.4665  1.4504  1.4349
    1PA    H11S11945   6.149   4.663   3.320 -1.0311  0.4354  0.8563
    1PA    C11011946   6.312   4.800   3.265  0.7061 -0.5614  0.5181
    1PA    H10R11947   6.247   4.870   3.211 -1.6044 -1.5122  1.9160
    1PA    H10S11948   6.381   4.854   3.330 -0.3992  0.3687  0.9530
    1PA     C1911949   6.400   4.716   3.171  0.4879 -0.3343  0.1085
    1PA     H9R11950   6.464   4.642   3.219  1.9110  0.6904 -0.1383
    1PA     H9S11951   6.326   4.663   3.110 -0.7182 -1.2324  2.2539
    1PA     C1811952   6.484   4.812   3.085 -0.1263  0.0266 -0.1036
    1PA     H8R11953   6.431   4.839   2.994  0.1197  2.5313  0.4285
    1PA     H8S11954   6.489   4.906   3.139  0.7321  0.3834 -0.7804
    1PA     C1711955   6.625   4.759   3.056 -0.2988 -0.4897 -0.0156
    1PA     H7R11956   6.677   4.833   2.995  0.0007 -0.5724  0.1325
    1PA     H7S11957   6.683   4.739   3.147  0.7066  3.0282  0.2727
    1PA     C1611958   6.617   4.627   2.977  0.4332 -0.4535 -0.1652
    1PA     H6R11959   6.710   4.570   2.983 -0.4120 -1.7825  0.9513
    1PA     H6S11960   6.543   4.559   3.020  0.2411  0.0415  0.3125
    1PA     C1511961   6.577   4.657   2.832  0.2185  0.1367  0.0124
    1PA     H5R11962   6.472   4.684   2.824  0.4247  0.5625 -1.7720
    1PA     H5S11963   6.626   4.749   2.799  0.0301 -0.7337 -2.9091
    1PA     C1411964   6.605   4.537   2.741  0.2110 -0.1182  0.3441
    1PA     H4R11965   6.708   4.503   2.750  0.2945  0.2683  0.9059
    1PA     H4S11966   6.543   4.454   2.774  0.7891  0.6202  3.6105
    1PA     C1311967   6.566   4.564   2.595 -0.3110 -0.1212  0.4812
    1PA     H3R11968   6.462   4.598   2.589 -0.2997 -0.0116  0.8760
    1PA     H3S11969   6.639   4.634   2.555  0.5322 -0.1072  1.9841
    1PA     C1211970   6.582   4.428   2.526 -0.1408 -0.0276  0.3366
    1PA     H2R11971   6.673   4.373   2.554  0.9306  2.2907  1.6467
    1PA     H2S11972   6.508   4.355   2.560  0.6810 -1.6071 -1.0648
    2PC     C1111973   6.571   4.435   2.375  0.3858  0.2827  0.3110
    2PC     O1211974   6.613   4.519   2.299  0.1035  0.1806  0.0441
    2PC     O1111975   6.508   4.326   2.329  0.1750  0.6360 -0.2382
    2PC      C111976   6.464   4.326   2.192 -0.4397 -0.3300 -0.0542
    2PC      HR11977   6.404   4.414   2.165 -0.5777 -0.6909 -0.9547
    2PC      HS11978   6.554   4.338   2.131  0.0408 -0.6777  0.5777
    2PC      C211979   6.399   4.195   2.147  0.0042 -0.4805 -0.2580
    2PC      HX11980   6.478   4.119   2.138  1.3072  0.9188 -1.1795
    2PC      C311981   6.335   4.196   2.007 -0.2104  0.5749 -0.1585
    2PC      HA11982   6.248   4.261   2.002  1.5296  3.1040  0.5355
    2PC      HB11983   6.408   4.233   1.935  0.8012 -2.9172 -1.1468
    2PC     O3111984   6.302   4.060   1.973 -0.1064  0.4571  0.2033
    2PC     P3111985   6.259   4.022   1.823  0.3202 -0.0289  0.2007
    2PC     O3211986   6.406   3.989   1.768 -0.1281 -0.6737 -0.6334
    2PC     C3111987   6.447   4.033   1.637 -0.0938 -0.0240 -0.4100
    2PC     H1A11988   6.381   4.111   1.600  0.6189  0.3241 -0.9670
    2PC     H1B11989   6.553   4.057   1.637 -0.4269  1.6539  0.9689
    2PC     C3211990   6.433   3.905   1.553 -0.3004 -0.1195 -0.2339
    2PC     H2A11991   6.477   3.822   1.607 -0.5740 -0.8088 -1.0464
    2PC     H2B11992   6.331   3.879   1.526  0.3338  0.9867 -4.4597
    2PC     N3111993   6.497   3.901   1.417  0.4000 -0.1105  0.0953
    2PC     C3311994   6.636   3.957   1.431  0.1603  0.6296 -0.4245
    2PC     H3A11995   6.638   4.057   1.474 -1.3716  0.1732  0.8159
    2PC     H3B11996   6.695   3.891   1.496  3.0373  2.1245 -1.3412
    2PC     H3C11997   6.677   3.948   1.330  1.2111  1.1055 -0.0526
    2PC     C3411998   6.512   3.756   1.381 -0.3258 -0.1228 -0.1692
    2PC     H4A11999   6.527   3.758   1.272 -0.1525  2.6100 -0.1862
    2PC     H4B12000   6.600   3.718   1.433 -0.2356  0.7445  0.3330
    2PC     H4C12001   6.424   3.695   1.399 -0.6655  0.4626  0.2061
    2PC     C3512002   6.413   3.977   1.319  0.2748 -0.8153 -0.3491
    2PC     H5A12003   6.481   4.005   1.239  0.5376  0.6262  0.3421
    2PC     H5B12004   6.379   4.066   1.373 -2.6792 -0.9476 -1.8301
    2PC     H5C12005   6.327   3.919   1.284 -2.4400  1.4572  1.9969
    2PC     O3312006   6.184   3.895   1.826  0.1465  0.0701  0.0871
    2PC     O3412007   6.189   4.130   1.749 -0.3162 -0.1512  0.6205
    2PC     O2112008   6.298   4.152   2.239  0.3751  0.1950  0.4702
    2PC     C2112009   6.339   4.083   2.347  0.4589 -0.0695  0.2700
    2PC     O2212010   6.447   4.026   2.351  0.5161  0.0039 -0.2224
    3OL     C1212011   6.234   4.075   2.454  0.1176  0.2161 -0.0415
    3OL     H2R12012   6.211   3.970   2.473 -1.3230  0.8605  2.2336
    3OL     H2S12013   6.142   4.121   2.415 -3.0611 -4.5959  0.8588
    3OL     C1312014   6.285   4.155   2.575  0.4300 -0.0714  0.0157
    3OL     H3R12015   6.204   4.201   2.630  0.8042 -0.7944  1.2142
    3OL     H3S12016   6.342   4.241   2.538  1.0259 -0.6852 -0.5364
    3OL     C1412017   6.379   4.070   2.662  0.2092  0.0765  0.3989
    3OL     H4R12018   6.438   4.143   2.718 -2.2297  0.5100  2.6210
    3OL     H4S12019   6.431   4.006   2.590 -1.0544  0.2587 -0.7156
    3OL     C1512020   6.307   3.981   2.764  0.2356 -0.3297  0.0642
    3OL     H5R12021   6.250   3.909   2.706  1.2704 -0.7665 -0.4410
    3OL     H5S12022   6.238   4.042   2.823  2.8708  1.0029  1.9998
    3OL     C1612023   6.400   3.895   2.852  0.3177  0.1450  0.4433
    3OL     H6R12024   6.333   3.840   2.919 -0.4898  2.8271  2.0131
    3OL     H6S12025   6.458   3.971   2.906 -0.3724  0.5036  0.7060
    3OL     C1712026   6.498   3.802   2.780 -0.2462 -0.2961  0.2318
    3OL     H7R12027   6.573   3.859   2.725  0.1564 -0.9634  0.0875
    3OL     H7S12028   6.446   3.740   2.708 -1.0296 -0.0010  0.5367
    3OL     C1812029   6.572   3.712   2.881  0.2926 -0.7500 -0.5582
    3OL     H8R12030   6.499   3.639   2.916 -0.0679 -0.2115 -0.1640
    3OL     H8S12031   6.604   3.777   2.963 -0.9042 -0.4879 -0.2755
    3OL     C1912032   6.687   3.647   2.809  0.9388  0.0242 -0.2341
    3OL     H9R12033   6.737   3.711   2.737 -1.3940  3.8106  1.2327
    3OL    C11012034   6.715   3.519   2.826  0.3218 -0.1013 -0.1529
    3OL    H10R12035   6.787   3.467   2.763 -0.3624 -0.5454 -0.5906
    3OL    C11112036   6.667   3.441   2.945  0.1365  0.0010 -0.1592
    3OL    H11R12037   6.571   3.397   2.917  0.5975  0.7932 -3.2871
    3OL    H11S12038   6.639   3.509   3.026 -1.1235  1.1472 -1.5178
    3OL    C11212039   6.769   3.337   2.994 -0.1847 -0.4581 -0.4617
    3OL    H12R12040   6.869   3.381   3.003 -0.3042 -0.2555 -0.1193
    3OL    H12S12041   6.762   3.249   2.929  1.0395  0.8139 -2.4011
    3OL    C11312042   6.742   3.295   3.139  0.6368  0.4491 -0.0424
    3OL    H13R12043   6.639   3.263   3.129  0.1274  2.4021 -1.6583
    3OL    H13S12044   6.736   3.379   3.210 -1.7824 -0.6057  1.0877
    3OL    C11412045   6.830   3.181   3.193  0.1688 -0.0609 -0.3510
    3OL    H14R12046   6.820   3.153   3.297 -3.4934  0.2446 -0.5163
    3OL    H14S12047   6.930   3.225   3.199  1.7887 -3.4726  0.0644
    3OL    C11512048   6.844   3.060   3.100  0.1144  0.0542 -0.5095
    3OL    H15R12049   6.863   3.082   2.994  0.2935 -0.2351 -0.5401
    3OL    H15S12050   6.749   3.007   3.107  0.6723 -1.1887 -1.7193
    3OL    C11612051   6.953   2.961   3.142 -0.6056 -0.3801  0.3672
    3OL    H16R12052   6.935   2.925   3.243 -1.2403  1.8361  1.0980
    3OL    H16S12053   7.044   3.020   3.151 -0.9903  0.1950  0.5129
    3OL    C11712054   6.981   2.847   3.042  0.0064 -0.1461  0.2670
    3OL    H17R12055   7.065   2.789   3.080  1.6583  2.6818  1.2653
    3OL    H17S12056   7.019   2.901   2.955  4.5149  0.6450  2.4674
    3OL    C11812057   6.854   2.762   3.029  0.0012 -0.1527  0.3602
    3OL    H18R12058   6.777   2.829   2.990  1.6868  1.3452 -0.5254
    3OL    H18S12059   6.819   2.716   3.122 -0.6695 -0.3739  0.0069
    3OL    H18T12060   6.878   2.695   2.945  0.5589 -0.3463  0.6686
    1PA    C11612061   0.932   1.745   3.543 -0.0011  0.7940 -0.6002
    1PA    H16R12062   0.879   1.832   3.505  1.0977  0.2380 -3.6342
    1PA    H16S12063   0.980   1.767   3.639 -0.3575 -0.0018 -0.2261
    1PA    H16T12064   0.862   1.663   3.561 -0.2431  1.2162  0.4607
    1PA    C11512065   1.036   1.710   3.436  0.0984  0.6002 -0.4414
    1PA    H15R12066   1.063   1.604   3.442  0.9516  0.8699  0.8496
    1PA    H15S12067   0.985   1.729   3.341 -2.5918 -0.0925  0.7764
    1PA    C11412068   1.168   1.788   3.438  0.3000  0.2575 -0.2191
    1PA    H14R12069   1.226   1.768   3.528 -0.0915  0.7880  0.1563
    1PA    H14S12070   1.239   1.750   3.364  1.6641  0.3860  0.9837
    1PA    C11312071   1.152   1.939   3.413 -0.3392  0.1838 -0.2671
    1PA    H13R12072   1.118   1.953   3.310 -0.3896  1.8311 -0.0548
    1PA    H13S12073   1.071   1.979   3.474 -2.2243 -2.2491 -1.0158
    1PA    C11212074   1.287   2.008   3.437  0.1418 -0.7000 -0.3744
    1PA    H12R12075   1.293   2.010   3.546  2.6445  0.7789 -0.4785
    1PA    H12S12076   1.377   1.955   3.405  0.0833 -0.9191 -0.1858
    1PA    C11112077   1.300   2.148   3.375 -0.2600 -0.6320 -0.3061
    1PA    H11R12078   1.291   2.151   3.266  0.3187  0.3808 -0.3398
    1PA    H11S12079   1.230   2.217   3.423 -0.6724 -0.8494 -0.5860
    1PA    C11012080   1.439   2.203   3.409 -0.4858 -0.1563 -0.1372
    1PA    H10R12081   1.465   2.196   3.514  1.2937 -0.5521 -0.5715
    1PA    H10S12082   1.517   2.149   3.354  2.3258  4.7547 -1.5880
    1PA     C1912083   1.455   2.348   3.363  1.0924 -0.3465 -0.2516
    1PA     H9R12084   1.369   2.408   3.394  0.1236 -2.0229  0.4407
    1PA     H9S12085   1.536   2.386   3.426 -0.0820 -0.2835  1.2693
    1PA     C1812086   1.467   2.366   3.211  0.1945 -0.0440 -0.2956
    1PA     H8R12087   1.517   2.285   3.157 -0.5058 -0.4965 -0.2763
    1PA     H8S12088   1.371   2.379   3.162 -0.4720 -3.8106 -0.2906
    1PA     C1712089   1.545   2.496   3.185 -0.0893  0.2609  0.3533
    1PA     H7R12090   1.502   2.580   3.240 -2.4298 -0.3520 -0.4331
    1PA     H7S12091   1.645   2.477   3.224 -0.4046  0.7359  1.4435
    1PA     C1612092   1.549   2.518   3.033 -0.0454  0.2349  0.3508
    1PA     H6R12093   1.597   2.430   2.988  0.5547  0.4373  0.5887
    1PA     H6S12094   1.448   2.531   2.993 -0.0015  1.1930  0.5330
    1PA     C1512095   1.633   2.644   3.008 -0.1025  0.1859 -0.1008
    1PA     H5R12096   1.579   2.719   3.065 -1.4461  0.1954 -1.3253
    1PA     H5S12097   1.738   2.638   3.036 -0.4367  0.2880  1.2547
    1PA     C1412098   1.626   2.673   2.858 -0.1001 -0.0963 -0.1576
    1PA     H4R12099   1.683   2.596   2.806  1.6410  0.1101  1.3573
    1PA     H4S12100   1.518   2.669   2.842 -0.1272 -0.5120  0.1162
    1PA     C1312101   1.682   2.814   2.835 -0.3118  0.0960  0.4972
    1PA     H3R12102   1.651   2.884   2.914  2.3431  1.0312  0.8321
    1PA     H3S12103   1.788   2.821   2.862 -0.1704 -0.7657  0.1883
    1PA     C1212104   1.645   2.873   2.698 -0.1609 -0.1573  0.3469
    1PA     H2R12105   1.688   2.799   2.630 -0.2052 -0.4203  0.5985
    1PA     H2S12106   1.538   2.886   2.677  0.5139  2.1695 -2.1485
    2PC     C1112107   1.705   3.009   2.672  0.1493 -0.2942  0.3425
    2PC     O1212108   1.736   3.087   2.759  0.1317  0.0908  0.0030
    2PC     O1112109   1.719   3.028   2.540 -0.0661  0.0001  0.3613
    2PC      C112110   1.798   3.143   2.503  0.2547 -0.5017 -0.5315
    2PC      HR12111   1.762   3.160   2.401  0.7202  0.2864 -0.5707
    2PC      HS12112   1.759   3.222   2.567 -2.3347  0.1834 -2.7499
    2PC      C212113   1.949   3.119   2.500  0.3811  0.2531 -0.3904
    2PC      HX12114   2.014   3.195   2.455  1.8736  2.0609  4.1776
    2PC      C312115   1.966   2.988   2.422  0.1726  0.0008 -0.0158
    2PC      HA12116   1.909   2.908   2.471  2.3786 -0.9083  1.2012
    2PC      HB12117   1.935   2.989   2.317  0.2907  0.0914 -0.0498
    2PC     O3112118   2.106   2.955   2.418  0.0631 -0.4881  0.0875
    2PC     P3112119   2.182   2.984   2.280 -0.3443  0.0080 -0.0348
    2PC     O3212120   2.190   3.144   2.267  0.0087  0.0056  0.1478
    2PC     C3112121   2.197   3.207   2.138 -0.0936 -0.4936 -0.1060
    2PC     H1A12122   2.272   3.156   2.078  0.0246  0.6735 -0.9868
    2PC     H1B12123   2.100   3.202   2.089  0.3988 -0.9938 -1.0457
    2PC     C3212124   2.226   3.358   2.149 -0.2864 -0.4477 -0.2160
    2PC     H2A12125   2.333   3.372   2.165 -0.1294 -0.3939 -1.2521
    2PC     H2B12126   2.215   3.404   2.051  0.1360  0.2860  0.0757
    2PC     N3112127   2.152   3.441   2.248  0.1729  0.0287 -0.2684
    2PC     C3312128   2.213   3.422   2.383 -0.2024  0.2620 -0.0627
    2PC     H3A12129   2.179   3.498   2.454 -1.6169 -0.0870 -0.3393
    2PC     H3B12130   2.206   3.322   2.426  2.2577 -0.5316 -1.3366
    2PC     H3C12131   2.321   3.441   2.375  0.0528 -0.7277  0.8114
    2PC     C3412132   2.169   3.584   2.204  0.2408 -0.0546 -0.5107
    2PC     H4A12133   2.107   3.598   2.115 -0.6018 -0.4985 -0.0063
    2PC     H4B12134   2.127   3.643   2.285 -0.3147 -0.0671 -0.7887
    2PC     H4C12135   2.275   3.597   2.181 -0.3323  1.5300 -2.5409
    2PC     C3512136   2.005   3.411   2.249  0.2032 -0.1204  0.6716
    2PC     H5A12137   1.998   3.307   2.280 -0.2409 -0.1454  0.4988
    2PC     H5B12138   1.972   3.432   2.147  0.2320  1.9263  1.0382
    2PC     H5C12139   1.961   3.482   2.320 -0.3235  0.7354 -0.4809
    2PC     O3312140   2.324   2.942   2.286 -0.3195  0.0665 -0.2058
    2PC     O3412141   2.133   2.920   2.156 -0.4565 -0.1888  0.1101
    2PC     O2112142   1.996   3.096   2.634 -0.5968  0.0642 -0.0705
    2PC     C2112143   2.024   3.203   2.710 -0.5130 -0.0061  0.0001
    2PC     O2212144   2.019   3.319   2.672  0.3847  0.1806  0.4270
    3OL     C1212145   2.084   3.168   2.844  0.0236 -0.1043 -0.2639
    3OL     H2R12146   2.047   3.239   2.918  1.6201 -0.5512  0.9938
    3OL     H2S12147   2.192   3.182   2.835 -0.3958  3.1644 -1.9630
    3OL     C1312148   2.054   3.027   2.897  0.5175 -0.2759 -0.4379
    3OL     H3R12149   2.093   2.961   2.820 -0.0304 -1.9457  0.6658
    3OL     H3S12150   1.947   3.011   2.911  0.9260 -1.0920  2.4184
    3OL     C1412151   2.114   2.981   3.031 -0.0294  0.1123 -0.0521
    3OL     H4R12152   2.068   3.044   3.107  0.5402  1.2709 -0.6410
    3OL     H4S12153   2.220   3.007   3.037 -0.2427  0.9988  0.0613
    3OL     C1512154   2.101   2.830   3.050  0.5215  0.0468 -0.1745
    3OL     H5R12155   2.147   2.773   2.968  1.9183  1.6792 -0.5904
    3OL     H5S12156   1.993   2.816   3.055  0.3129  1.2788 -0.9473
    3OL     C1612157   2.170   2.791   3.181  0.3143  0.0961 -0.0506
    3OL     H6R12158   2.153   2.856   3.267  1.3525  0.4533 -0.0955
    3OL     H6S12159   2.278   2.785   3.166  0.1131  0.4954 -1.8628
    3OL     C1712160   2.121   2.654   3.231 -0.0524  0.2386 -0.0179
    3OL     H7R12161   2.199   2.600   3.285 -0.8350  0.5940  1.5374
    3OL     H7S12162   2.084   2.595   3.148 -1.0270  1.6120 -0.6045
    3OL     C1812163   1.994   2.658   3.318  0.0801  0.3203  0.1732
    3OL     H8R12164   1.914   2.720   3.275 -0.9591 -0.5429  0.8350
    3OL     H8S12165   2.017   2.701   3.415 -0.3362 -0.7284  0.7439
    3OL     C1912166   1.938   2.520   3.340  0.1757  0.2825  0.1797
    3OL     H9R12167   1.993   2.440   3.291  0.4467  0.8960 -0.5280
    3OL    C11012168   1.830   2.496   3.412 -0.1706  0.4604 -0.2761
    3OL    H10R12169   1.805   2.393   3.435 -0.6254  0.8435  1.0596
    3OL    C11112170   1.731   2.597   3.465 -0.5589 -0.0200 -0.0703
    3OL    H11R12171   1.632   2.587   3.421  0.0616  3.0265 -2.5685
    3OL    H11S12172   1.757   2.701   3.443  1.0671 -0.6456 -1.3489
    3OL    C11212173   1.724   2.576   3.617  0.4216  0.1725  0.0138
    3OL    H12R12174   1.825   2.595   3.652  1.3376 -2.4449 -0.9869
    3OL    H12S12175   1.703   2.471   3.637 -0.1086  0.2019 -0.3638
    3OL    C11312176   1.618   2.658   3.691  0.2644 -0.5077  0.5515
    3OL    H13R12177   1.522   2.631   3.647  0.6193 -0.0940 -0.4957
    3OL    H13S12178   1.634   2.765   3.673  1.3475 -1.0702 -2.3101
    3OL    C11412179   1.632   2.635   3.842 -0.1888 -0.1199  0.6567
    3OL    H14R12180   1.738   2.626   3.871 -0.4550 -2.3485  1.1289
    3OL    H14S12181   1.595   2.536   3.866  0.4781 -0.3090  0.9346
    3OL    C11512182   1.558   2.748   3.916 -0.1373  0.3099  0.0566
    3OL    H15R12183   1.452   2.748   3.891 -1.0507 -0.4620  3.4042
    3OL    H15S12184   1.599   2.839   3.871  2.1769 -0.9817 -0.6442
    3OL    C11612185   1.563   2.739   4.069  0.2599  0.2728  0.0430
    3OL    H16R12186   1.658   2.704   4.110 -0.8175  0.9429  3.3791
    3OL    H16S12187   1.496   2.653   4.079  0.0955  0.5228  1.1626
    3OL    C11712188   1.510   2.854   4.154  0.0016 -0.0219  0.2834
    3OL    H17R12189   1.511   2.819   4.258 -0.5841 -1.6014 -0.2248
    3OL    H17S12190   1.408   2.887   4.133  0.4514  1.6910  0.5716
    3OL    C11812191   1.603   2.976   4.161  0.3752 -0.3020  0.1718
    3OL    H18R12192   1.614   3.021   4.063  0.8644  0.1103  0.4107
    3OL    H18S12193   1.700   2.943   4.202 -0.5224 -2.7479  0.5278
    3OL    H18T12194   1.568   3.053   4.230  0.0918  0.7175 -1.0738
    1PA    C11612195   0.818   6.249   3.829 -0.2668 -0.1002  0.4475
    1PA    H16R12196   0.741   6.274   3.757 -0.3764  2.2519  1.3058
    1PA    H16S12197   0.871   6.344   3.830 -2.4145  1.1843  1.6654
    1PA    H16T12198   0.777   6.230   3.929 -1.1748 -2.5147 -0.2948
    1PA    C11512199   0.924   6.140   3.808 -0.4279 -0.0718 -0.5265
    1PA    H15R12200   1.001   6.159   3.883  0.5850  1.4204 -1.8806
    1PA    H15S12201   0.886   6.038   3.820  0.7643 -0.6338 -1.3932
    1PA    C11412202   1.004   6.136   3.677 -0.0430 -0.0613 -0.2939
    1PA    H14R12203   1.046   6.235   3.656 -3.2383  1.0333 -2.4268
    1PA    H14S12204   1.088   6.068   3.674  1.2437  1.3977  0.8904
    1PA    C11312205   0.904   6.114   3.562 -0.4324 -0.4468  0.1160
    1PA    H13R12206   0.870   6.011   3.553 -0.8000 -0.2436 -1.0528
    1PA    H13S12207   0.814   6.176   3.570 -0.7000 -1.0161  2.0997
    1PA    C11212208   0.968   6.129   3.423 -0.2254 -0.5720  0.1971
    1PA    H12R12209   0.984   6.234   3.399  2.7199 -0.8119  0.7879
    1PA    H12S12210   1.069   6.089   3.415  0.0718  0.4384 -1.7120
    1PA    C11112211   0.886   6.063   3.311 -0.6410  0.6531 -0.2310
    1PA    H11R12212   0.889   5.955   3.323 -2.5754  0.5673 -0.1279
    1PA    H11S12213   0.779   6.087   3.318 -0.1286  2.7780  2.3118
    1PA    C11012214   0.939   6.095   3.171  0.1060  0.3948 -0.0133
    1PA    H10R12215   0.928   6.202   3.151  3.4091  0.6304 -1.0145
    1PA    H10S12216   1.046   6.081   3.158  0.2564 -0.1665  1.6563
    1PA     C1912217   0.865   6.016   3.062  0.3798  0.0700  0.0370
    1PA     H9R12218   0.887   5.910   3.076 -1.0406 -0.2412  0.0891
    1PA     H9S12219   0.757   6.027   3.071  0.4396  1.2561 -0.4507
    1PA     C1812220   0.905   6.066   2.922 -0.2794  0.0048 -0.1776
    1PA     H8R12221   0.865   6.168   2.924 -0.0523  0.2065  4.3990
    1PA     H8S12222   1.014   6.066   2.923 -0.2572  0.9734  1.3774
    1PA     C1712223   0.847   5.985   2.806  0.4317 -0.2352 -0.3708
    1PA     H7R12224   0.878   5.881   2.816  0.7726 -0.3216 -2.0613
    1PA     H7S12225   0.738   5.985   2.819  0.4739  1.6396  0.3213
    1PA     C1612226   0.889   6.029   2.665 -0.2608  0.6131 -0.3216
    1PA     H6R12227   0.856   6.130   2.640 -1.8380  0.5322  1.2029
    1PA     H6S12228   0.998   6.024   2.671 -0.3473 -1.6303 -0.0049
    1PA     C1512229   0.848   5.920   2.566  0.1794  0.1584 -0.0072
    1PA     H5R12230   0.902   5.829   2.592 -0.0571  0.3596  1.2488
    1PA     H5S12231   0.741   5.904   2.550  0.1851 -0.4030  0.4803
    1PA     C1412232   0.897   5.945   2.423  0.3022 -0.7349 -0.1280
    1PA     H4R12233   0.865   6.043   2.388 -0.7695 -1.1687 -0.3933
    1PA     H4S12234   1.006   5.958   2.425  0.4184 -1.6568 -0.1760
    1PA     C1312235   0.868   5.834   2.321 -0.8086 -0.1504 -0.4560
    1PA     H3R12236   0.938   5.753   2.343  1.4748  1.9637  0.5568
    1PA     H3S12237   0.765   5.799   2.322 -0.1007 -2.5750 -2.4925
    1PA     C1212238   0.889   5.875   2.175 -0.0365  0.3785 -0.2015
    1PA     H2R12239   0.811   5.944   2.140 -0.2597 -0.0264 -0.5139
    1PA     H2S12240   0.983   5.930   2.170  1.8779 -2.6452  0.1074
    2PC     C1112241   0.912   5.758   2.082 -0.0372  0.2052  0.0172
    2PC     O1212242   0.850   5.654   2.086 -0.3676  0.3926 -0.0939
    2PC     O1112243   1.019   5.779   2.004 -0.2024  0.0338 -0.2553
    2PC      C112244   1.076   5.665   1.938 -0.5396  0.0785 -0.6290
    2PC      HR12245   1.076   5.577   2.003  2.1123  0.0500 -0.5628
    2PC      HS12246   1.019   5.641   1.847  2.4567 -1.0941 -2.3540
    2PC      C212247   1.222   5.693   1.901 -0.5212  0.6001 -0.1642
    2PC      HX12248   1.217   5.797   1.868 -2.1803  1.5413  2.7407
    2PC      C312249   1.270   5.599   1.790 -0.3057  0.3182  0.1642
    2PC      HA12250   1.224   5.633   1.697 -1.8456  0.6424  1.0062
    2PC      HB12251   1.378   5.606   1.782 -0.1856 -0.8506  0.5509
    2PC     O3112252   1.227   5.464   1.817  0.8607 -0.0238  0.3619
    2PC     P3112253   1.240   5.352   1.703 -0.2412 -0.0288  0.2313
    2PC     O3212254   1.089   5.304   1.680 -0.2345  0.0602  0.0021
    2PC     C3112255   1.026   5.226   1.782 -0.1148  0.3199  0.2774
    2PC     H1A12256   1.069   5.125   1.784  2.2466  1.2248 -1.4233
    2PC     H1B12257   1.036   5.272   1.880 -0.9871 -0.5710  0.8182
    2PC     C3212258   0.876   5.211   1.752  0.0425 -0.2474 -0.2705
    2PC     H2A12259   0.857   5.199   1.646  1.5246  0.7655 -0.6718
    2PC     H2B12260   0.844   5.125   1.810  0.3800  0.3488  0.8352
    2PC     N3112261   0.792   5.330   1.791  0.0804 -0.2077 -0.3117
    2PC     C3312262   0.765   5.347   1.938 -0.3768  0.3287 -0.4556
    2PC     H3A12263   0.853   5.315   1.993 -0.6264  2.0415  1.0066
    2PC     H3B12264   0.757   5.453   1.962  0.9115  0.9627 -2.5551
    2PC     H3C12265   0.680   5.291   1.977  0.0172  1.0730  1.5982
    2PC     C3412266   0.838   5.455   1.723  0.1714 -0.4519 -0.7017
    2PC     H4A12267   0.941   5.471   1.752 -0.1319  1.2989 -0.4525
    2PC     H4B12268   0.815   5.431   1.619 -0.1296  1.6984 -1.1852
    2PC     H4C12269   0.775   5.536   1.760  0.1969 -1.0153  0.6145
    2PC     C3512270   0.657   5.306   1.731 -0.0333  0.8795 -0.5015
    2PC     H5A12271   0.622   5.206   1.757  0.3029  0.6432 -0.9593
    2PC     H5B12272   0.670   5.312   1.623  1.0751  0.4746 -0.4003
    2PC     H5C12273   0.589   5.385   1.766  1.7272  1.8095  0.9908
    2PC     O3312274   1.279   5.399   1.568 -0.9714  0.4202  0.1687
    2PC     O3412275   1.325   5.246   1.760  0.3478 -0.0365 -0.6519
    2PC     O2112276   1.296   5.683   2.025  0.1362  0.2739 -0.5756
    2PC     C2112277   1.395   5.770   2.044  0.5825 -0.3430 -0.0451
    2PC     O2212278   1.453   5.834   1.958 -0.0419 -0.0165 -0.2277
    3OL     C1212279   1.418   5.780   2.193  0.0354 -0.1759  0.0302
    3OL     H2R12280   1.519   5.817   2.213 -1.0141  2.7193  0.4822
    3OL     H2S12281   1.414   5.678   2.233 -0.6054 -0.1456  0.0571
    3OL     C1312282   1.320   5.879   2.257  0.1841  0.3705 -0.5775
    3OL     H3R12283   1.218   5.854   2.228 -0.6018  2.2796  0.3472
    3OL     H3S12284   1.337   5.981   2.221  0.2295  1.2681  1.7810
    3OL     C1412285   1.335   5.890   2.409 -0.3712  0.0421 -0.4966
    3OL     H4R12286   1.244   5.943   2.440 -0.6009 -0.7404  0.1881
    3OL     H4S12287   1.422   5.952   2.432  0.0710 -1.3184  1.8743
    3OL     C1512288   1.350   5.757   2.483 -0.0466  0.2099 -0.2587
    3OL     H5R12289   1.453   5.720   2.484 -0.4686 -1.0193 -0.6717
    3OL     H5S12290   1.313   5.682   2.414  4.5599 -0.4210 -2.4591
    3OL     C1612291   1.289   5.754   2.624  0.1818 -0.1388 -0.1650
    3OL     H6R12292   1.334   5.662   2.663  0.4606  0.4581  0.9673
    3OL     H6S12293   1.182   5.746   2.604 -0.0227  2.1202 -0.1848
    3OL     C1712294   1.324   5.879   2.705  0.0984 -0.0669 -0.2392
    3OL     H7R12295   1.296   5.971   2.654  0.1674  0.1905  0.1788
    3OL     H7S12296   1.432   5.887   2.718  0.0085  0.7265  0.1031
    3OL     C1812297   1.253   5.880   2.842  0.4191  0.5371 -0.0730
    3OL     H8R12298   1.290   5.801   2.908 -2.1703 -0.6245  0.1001
    3OL     H8S12299   1.151   5.850   2.817  1.1577 -0.2565 -2.4884
    3OL     C1912300   1.257   6.015   2.908 -0.5055  0.4588  0.1447
    3OL     H9R12301   1.212   6.094   2.848 -2.0633  0.2627  0.9731
    3OL    C11012302   1.301   6.054   3.027 -0.2356 -0.0902  0.2266
    3OL    H10R12303   1.293   6.158   3.057  1.3983 -0.1811  1.0806
    3OL    C11112304   1.369   5.962   3.125  0.5237 -0.3014 -0.4749
    3OL    H11R12305   1.366   5.858   3.094 -0.6712  0.2102 -2.2436
    3OL    H11S12306   1.315   5.979   3.219  0.0766  3.0757 -1.1954
    3OL    C11212307   1.512   5.998   3.167  0.3594 -0.6590  0.4205
    3OL    H12R12308   1.537   5.959   3.266  0.1595  0.7288  1.0398
    3OL    H12S12309   1.513   6.106   3.184  0.0268 -0.7698  1.2204
    3OL    C11312310   1.621   5.951   3.070  0.5325  0.0943  0.2430
    3OL    H13R12311   1.626   5.843   3.061  0.6579  0.1894 -0.9608
    3OL    H13S12312   1.720   5.984   3.105  2.0855 -2.8629 -1.0464
    3OL    C11412313   1.604   6.004   2.927  0.0851 -0.4939  0.0753
    3OL    H14R12314   1.571   6.108   2.929  1.3504 -0.0722  2.1899
    3OL    H14S12315   1.520   5.961   2.873  0.2351  1.0469 -1.4492
    3OL    C11512316   1.732   5.991   2.843 -0.1970 -0.4518 -0.3591
    3OL    H15R12317   1.772   5.890   2.852  1.4244  0.2516  0.9712
    3OL    H15S12318   1.823   6.043   2.874  0.6576 -1.8150 -0.4991
    3OL    C11612319   1.704   6.037   2.699  0.2579  0.4278 -0.1772
    3OL    H16R12320   1.772   6.120   2.677  1.0805 -0.2563 -0.2666
    3OL    H16S12321   1.605   6.076   2.678 -0.8381 -3.1585 -2.6940
    3OL    C11712322   1.747   5.932   2.595 -0.5272  0.1445 -0.2219
    3OL    H17R12323   1.686   5.843   2.611 -0.0118 -0.1841 -0.0600
    3OL    H17S12324   1.852   5.905   2.604 -1.1976 -2.6169  0.2599
    3OL    C11812325   1.734   5.989   2.453 -0.8773 -0.3295 -0.3830
    3OL    H18R12326   1.783   5.930   2.375 -1.3436 -0.6278 -0.4537
    3OL    H18S12327   1.792   6.081   2.442 -0.7570 -0.4036 -0.3815
    3OL    H18T12328   1.630   5.997   2.422 -1.0689 -1.6999 -0.1659
    1PA    C11612329   2.446   6.396   4.278  0.1033 -0.0989  0.1142
    1PA    H16R12330   2.425   6.416   4.172  0.6039  0.6088  0.1400
    1PA    H16S12331   2.523   6.470   4.301  0.9723 -0.4161 -1.5656
    1PA    H16T12332   2.375   6.430   4.353  0.5685 -0.5104  0.7493
    1PA    C11512333   2.494   6.253   4.304 -0.0492 -0.2874 -0.6262
    1PA    H15R12334   2.508   6.224   4.408  2.9463 -0.4981 -1.0106
    1PA    H15S12335   2.427   6.176   4.264  0.2274 -1.3041  0.7951
    1PA    C11412336   2.629   6.221   4.237  0.3114 -0.0832  0.0041
    1PA    H14R12337   2.708   6.292   4.263  0.3395  0.5297 -1.6484
    1PA    H14S12338   2.660   6.127   4.282  0.4128 -0.7955 -1.5155
    1PA    C11312339   2.615   6.218   4.084  0.1490 -0.1752  0.0205
    1PA    H13R12340   2.538   6.142   4.070  0.4946 -0.2170 -1.9103
    1PA    H13S12341   2.587   6.319   4.055  2.1296  0.9979  1.8205
    1PA    C11212342   2.747   6.186   4.012  0.0099  0.1366 -0.3709
    1PA    H12R12343   2.822   6.265   4.018  1.1486 -0.9466 -0.0727
    1PA    H12S12344   2.784   6.100   4.068 -0.6750  1.5267  2.3711
    1PA    C11112345   2.727   6.154   3.863  0.1355 -0.2706 -0.3024
    1PA    H11R12346   2.823   6.145   3.813 -0.1804 -0.7916 -0.8329
    1PA    H11S12347   2.666   6.065   3.847  0.6812 -0.5346 -0.9755
    1PA    C11012348   2.667   6.278   3.794  0.1038 -0.2040 -0.1552
    1PA    H10R12349   2.574   6.308   3.842 -0.6017  1.7035 -2.5310
    1PA    H10S12350   2.734   6.364   3.806 -2.0782  1.4313  1.0899
    1PA     C1912351   2.630   6.257   3.647 -0.4929 -0.3383  0.0109
    1PA     H9R12352   2.618   6.357   3.606  1.4520 -1.1554 -2.8597
    1PA     H9S12353   2.717   6.220   3.591 -2.0741 -2.3683 -1.2624
    1PA     C1812354   2.512   6.165   3.614 -0.3611 -0.3974 -0.3066
    1PA     H8R12355   2.538   6.062   3.640  1.5620  0.4032  1.1836
    1PA     H8S12356   2.431   6.195   3.682  1.3804  3.9355  0.1883
    1PA     C1712357   2.464   6.181   3.469 -0.0818  0.0184 -0.3557
    1PA     H7R12358   2.371   6.122   3.467  2.1290 -4.0032  1.6186
    1PA     H7S12359   2.446   6.287   3.453 -3.3978 -0.2253  0.9393
    1PA     C1612360   2.569   6.131   3.369  0.6466  0.2863  0.2651
    1PA     H6R12361   2.652   6.202   3.363 -0.8638  2.0065 -1.6366
    1PA     H6S12362   2.614   6.041   3.411 -0.4239 -0.0157  0.7937
    1PA     C1512363   2.508   6.094   3.233  0.3068  0.0777  0.4705
    1PA     H5R12364   2.588   6.063   3.165  0.1172  0.3537  0.1109
    1PA     H5S12365   2.445   6.005   3.232 -2.2867  1.6801 -3.4584
    1PA     C1412366   2.437   6.212   3.164  0.1486 -0.1174  0.2997
    1PA     H4R12367   2.340   6.225   3.213 -0.7325 -0.6510 -1.2469
    1PA     H4S12368   2.490   6.304   3.192  2.2380 -0.6162 -1.7470
    1PA     C1312369   2.427   6.218   3.011 -0.4917 -0.3754  0.3254
    1PA     H3R12370   2.369   6.305   2.979  0.2776  0.4142  0.9963
    1PA     H3S12371   2.529   6.230   2.973 -0.3112 -0.3502  0.8018
    1PA     C1212372   2.349   6.100   2.951 -0.2809 -0.5295  0.3529
    1PA     H2R12373   2.404   6.007   2.962 -1.0908 -1.0477  0.0549
    1PA     H2S12374   2.247   6.090   2.989 -0.7985  0.9002 -0.5447
    2PC     C1112375   2.327   6.106   2.802  0.3274 -0.4467  0.2616
    2PC     O1212376   2.358   6.196   2.727  0.1655 -0.1136  0.5883
    2PC     O1112377   2.259   5.997   2.761  0.0051 -0.2463  0.2581
    2PC      C112378   2.252   5.957   2.623 -0.1897  0.2853  0.1101
    2PC      HR12379   2.168   5.887   2.623 -1.4059  1.6808 -0.0971
    2PC      HS12380   2.211   6.035   2.558  0.0086  0.1091 -0.2263
    2PC      C212381   2.387   5.898   2.579 -0.2241  0.0133  0.3656
    2PC      HX12382   2.464   5.975   2.591 -0.3155  0.1217  0.2594
    2PC      C312383   2.391   5.853   2.433 -0.3600  0.6681  0.1579
    2PC      HA12384   2.385   5.932   2.357 -3.2003 -0.0904 -0.5274
    2PC      HB12385   2.479   5.791   2.412 -0.0084  1.4221 -0.6776
    2PC     O3112386   2.279   5.765   2.410  0.2448 -0.1626  0.3471
    2PC     P3112387   2.262   5.677   2.278 -0.0785  0.0520  0.2460
    2PC     O3212388   2.109   5.703   2.238  0.1140 -0.0587 -0.5839
    2PC     C3112389   2.072   5.841   2.218  0.1477  0.0447  0.0461
    2PC     H1A12390   2.069   5.886   2.317  0.5424  0.7487 -0.2570
    2PC     H1B12391   2.140   5.901   2.156  1.1144  0.6372  1.6196
    2PC     C3212392   1.937   5.858   2.148  0.2939 -0.0614 -0.2692
    2PC     H2A12393   1.869   5.791   2.202  0.1570 -0.2623 -0.6874
    2PC     H2B12394   1.890   5.957   2.159 -2.8319 -1.4583  0.1520
    2PC     N3112395   1.916   5.815   2.006  0.6641 -0.5507 -0.1759
    2PC     C3312396   1.773   5.848   1.975  0.7540 -0.3859 -0.4162
    2PC     H3A12397   1.749   5.770   1.903 -0.1123 -0.6119  0.1120
    2PC     H3B12398   1.717   5.833   2.067 -1.7815  1.1068 -1.6001
    2PC     H3C12399   1.764   5.950   1.937 -0.7870 -0.3923 -0.1050
    2PC     C3412400   1.996   5.899   1.911  0.1565  0.2527  0.0994
    2PC     H4A12401   2.100   5.905   1.942  0.0107  2.4406  0.3312
    2PC     H4B12402   1.975   5.862   1.810  0.3090 -0.1437  0.2138
    2PC     H4C12403   1.945   5.994   1.931  1.0933  0.7896  0.0033
    2PC     C3512404   1.945   5.668   2.001 -0.3075 -0.7424 -0.3363
    2PC     H5A12405   2.054   5.663   1.995 -0.1525 -1.3797  1.9658
    2PC     H5B12406   1.894   5.627   1.914 -1.2578  0.5425 -0.4121
    2PC     H5C12407   1.907   5.622   2.092 -0.6634  1.2257  0.5678
    2PC     O3312408   2.371   5.726   2.191 -0.5990  0.2881 -0.2856
    2PC     O3412409   2.280   5.530   2.282  0.0041  0.0610  0.1912
    2PC     O2112410   2.410   5.782   2.662 -0.3931 -0.0791  0.2850
    2PC     C2112411   2.507   5.781   2.755 -0.1268  0.0532  0.0114
    2PC     O2212412   2.568   5.880   2.791  0.4640 -0.1996 -0.2796
    3OL     C1212413   2.515   5.648   2.825  1.1126 -0.0147 -0.2336
    3OL     H2R12414   2.434   5.635   2.897 -1.0036  1.7533 -2.1474
    3OL     H2S12415   2.605   5.635   2.885  0.3183  0.2257  1.0591
    3OL     C1312416   2.505   5.528   2.730 -0.0663 -0.1181  0.0025
    3OL     H3R12417   2.585   5.528   2.655 -0.9177 -2.1026 -0.9633
    3OL     H3S12418   2.410   5.537   2.677 -0.3078 -1.3738  0.1919
    3OL     C1412419   2.510   5.396   2.808 -0.2085 -0.0146  0.1862
    3OL     H4R12420   2.430   5.381   2.881  0.1403 -1.9956  0.2300
    3OL     H4S12421   2.605   5.402   2.861  0.0367  1.0286 -0.3432
    3OL     C1512422   2.501   5.283   2.704  0.0606 -0.0876  0.2412
    3OL     H5R12423   2.589   5.296   2.642  0.0013  1.2353  0.3957
    3OL     H5S12424   2.412   5.288   2.641  0.1674  1.6075  0.1746
    3OL     C1612425   2.502   5.153   2.786  0.0651 -0.0779  0.2567
    3OL     H6R12426   2.434   5.151   2.871 -0.0055 -2.4225  0.2167
    3OL     H6S12427   2.598   5.132   2.833  0.5452 -3.5045 -1.8925
    3OL     C1712428   2.469   5.034   2.694  0.6625 -0.0480 -0.0006
    3OL     H7R12429   2.546   5.032   2.616  1.0213  0.2449  0.3415
    3OL     H7S12430   2.377   5.053   2.640 -1.1707 -0.9908  2.5998
    3OL     C1812431   2.464   4.903   2.775 -0.3334 -0.4290 -0.6672
    3OL     H8R12432   2.393   4.834   2.728  1.6598 -0.7098 -3.5638
    3OL     H8S12433   2.420   4.928   2.871  1.2252 -0.2355  0.0256
    3OL     C1912434   2.601   4.841   2.784 -0.3234 -0.3089  0.0062
    3OL     H9R12435   2.652   4.831   2.689 -0.1091 -2.0452  0.2662
    3OL    C11012436   2.658   4.792   2.893  0.2166  0.1595 -0.0568
    3OL    H10R12437   2.755   4.743   2.895  1.4834  2.5141  2.2097
    3OL    C11112438   2.597   4.787   3.032  1.2449  0.3924  0.4098
    3OL    H11R12439   2.519   4.711   3.021  1.5285  0.1989 -0.4060
    3OL    H11S12440   2.568   4.886   3.066  2.3882  0.9324 -0.1186
    3OL    C11212441   2.691   4.718   3.132  0.0875 -0.5274  0.8823
    3OL    H12R12442   2.731   4.626   3.091  1.3707 -0.4033  1.8014
    3OL    H12S12443   2.636   4.687   3.222 -1.0124  1.2241  0.8631
    3OL    C11312444   2.809   4.812   3.163  0.0190 -0.2103  0.1925
    3OL    H13R12445   2.777   4.913   3.190 -0.7686  1.2052 -4.9535
    3OL    H13S12446   2.867   4.826   3.072 -2.2347 -0.4214 -1.3663
    3OL    C11412447   2.906   4.760   3.269 -0.0998  0.1969  0.5033
    3OL    H14R12448   3.007   4.794   3.245 -0.7833  2.0995  0.1871
    3OL    H14S12449   2.904   4.651   3.267  0.7202  0.1622  0.9940
    3OL    C11512450   2.876   4.791   3.416 -0.7936  0.2315  0.3549
    3OL    H15R12451   2.939   4.727   3.478 -0.4540  1.9149  1.8362
    3OL    H15S12452   2.773   4.767   3.444 -0.4847  0.6683  2.0067
    3OL    C11612453   2.924   4.932   3.453  0.3930 -0.0769  0.0117
    3OL    H16R12454   2.870   5.007   3.395 -0.9355 -1.2784 -0.3415
    3OL    H16S12455   3.032   4.942   3.434  0.4391  1.3491  0.8415
    3OL    C11712456   2.905   4.959   3.603 -0.3055 -0.6512  0.0274
    3OL    H17R12457   2.942   5.062   3.603  0.0373 -0.7497 -1.3990
    3OL    H17S12458   2.972   4.902   3.667  2.4831  2.0820 -0.2507
    3OL    C11812459   2.763   4.954   3.662 -0.5450  0.2782 -0.4515
    3OL    H18R12460   2.732   4.852   3.639  0.9960 -0.2766 -0.2039
    3OL    H18S12461   2.693   5.013   3.603 -1.7584 -1.9690 -1.3608
    3OL    H18T12462   2.754   4.965   3.770 -0.4730 -0.5056 -0.3609
    1PA    C11612463   0.632   4.726   3.473  0.0384 -0.0318  0.7922
    1PA    H16R12464   0.606   4.812   3.535 -4.2969 -0.9363  0.5272
    1PA    H16S12465   0.657   4.646   3.542  0.7665 -0.4195  0.0964
    1PA    H16T12466   0.542   4.696   3.419  0.5053  1.6462 -1.0933
    1PA    C11512467   0.748   4.760   3.377 -0.7614 -0.5274 -0.3719
    1PA    H15R12468   0.845   4.763   3.428  0.6105 -0.1676 -2.8276
    1PA    H15S12469   0.755   4.689   3.294 -1.4997  1.1415 -1.9053
    1PA    C11412470   0.718   4.903   3.334 -0.1014 -0.2568  0.0418
    1PA    H14R12471   0.613   4.918   3.306  0.8471  0.6221 -3.6337
    1PA    H14S12472   0.728   4.960   3.427 -2.1809  0.5911 -0.1828
    1PA    C11312473   0.809   4.955   3.221 -0.2118 -0.1779 -0.0116
    1PA    H13R12474   0.812   5.064   3.228 -0.9065 -0.2133  1.1880
    1PA    H13S12475   0.910   4.926   3.249 -0.5875  0.4993  2.3211
    1PA    C11212476   0.778   4.902   3.080 -0.4926  0.3789 -0.1636
    1PA    H12R12477   0.845   4.952   3.009  2.1259 -1.8390  0.5385
    1PA    H12S12478   0.800   4.795   3.076  0.4521  0.5970 -1.5558
    1PA    C11112479   0.630   4.907   3.041 -0.6703 -0.4948  0.3595
    1PA    H11R12480   0.623   4.864   2.941 -1.4509  1.0809 -0.2994
    1PA    H11S12481   0.558   4.848   3.097 -3.4023  2.3285  0.1304
    1PA    C11012482   0.577   5.051   3.041 -0.1900 -0.3125  0.0883
    1PA    H10R12483   0.566   5.095   3.141  3.6214  1.0155  0.0596
    1PA    H10S12484   0.659   5.103   2.993 -0.4671 -0.2106 -0.2795
    1PA     C1912485   0.453   5.064   2.951  0.1063 -0.2209 -0.3051
    1PA     H9R12486   0.369   5.002   2.982 -1.0075  0.6123 -1.5217
    1PA     H9S12487   0.419   5.168   2.960  1.5250  0.1315  1.5409
    1PA     C1812488   0.489   5.051   2.802  0.0640  0.0107 -0.3361
    1PA     H8R12489   0.560   5.128   2.772 -0.3697  0.2256 -0.8428
    1PA     H8S12490   0.528   4.952   2.779 -2.1047 -0.7874 -0.8442
    1PA     C1712491   0.357   5.060   2.724 -0.0598 -0.2489 -0.1567
    1PA     H7R12492   0.289   4.975   2.739  1.4473 -1.3376  0.7876
    1PA     H7S12493   0.298   5.143   2.762  0.2899 -0.3788  0.7047
    1PA     C1612494   0.393   5.075   2.576  0.4404  0.1542  0.0054
    1PA     H6R12495   0.442   5.172   2.564  1.0577 -0.4457 -3.1115
    1PA     H6S12496   0.464   5.001   2.538  0.9193  0.6122 -0.0143
    1PA     C1512497   0.266   5.090   2.491  0.4424 -0.0995 -0.0416
    1PA     H5R12498   0.206   5.166   2.540  2.2130  0.5019  1.2919
    1PA     H5S12499   0.297   5.130   2.394  0.4583  0.4083  0.1714
    1PA     C1412500   0.184   4.965   2.454 -0.0153  0.1428  0.1447
    1PA     H4R12501   0.253   4.889   2.415 -1.5151 -1.1961  0.0287
    1PA     H4S12502   0.144   4.928   2.548  1.7655  3.3411  2.3682
    1PA     C1312503   0.073   4.988   2.350 -0.0467 -0.0381  0.1388
    1PA     H3R12504   0.008   5.063   2.397  3.1957  0.9552  3.5549
    1PA     H3S12505   0.101   5.034   2.256  0.8101 -1.5985 -0.4038
    1PA     C1212506  -0.007   4.859   2.324 -0.1182  0.0142  0.1013
    1PA     H2R12507   0.066   4.779   2.314  0.1446  0.1383  0.8830
    1PA     H2S12508  -0.059   4.837   2.418  0.3309 -1.3416  0.0478
    2PC     C1112509  -0.102   4.879   2.209  0.1851 -0.3888 -0.2178
    2PC     O1212510  -0.107   4.980   2.142 -0.5515 -0.2868 -0.0113
    2PC     O1112511  -0.184   4.776   2.183 -0.2628  0.0223 -0.4615
    2PC      C112512  -0.305   4.794   2.108 -0.8475  0.1163  0.4843
    2PC      HR12513  -0.385   4.831   2.172  0.1882 -1.6228  2.9252
    2PC      HS12514  -0.283   4.869   2.031  1.6772  0.5278  1.4979
    2PC      C212515  -0.344   4.665   2.034 -0.1408  0.2037 -0.0510
    2PC      HX12516  -0.259   4.651   1.966  0.8653 -2.1350  1.5256
    2PC      C312517  -0.467   4.680   1.944  0.2103  0.6327 -0.4679
    2PC      HA12518  -0.560   4.652   1.996  2.1031 -1.9372  1.8946
    2PC      HB12519  -0.474   4.779   1.898  0.8555  0.6822 -0.4592
    2PC     O3112520  -0.454   4.591   1.832 -0.0716  0.5694 -0.4515
    2PC     P3112521  -0.580   4.539   1.747 -0.1367 -0.1595  0.0750
    2PC     O3212522  -0.632   4.427   1.849 -0.2176  0.0766  0.2931
    2PC     C3112523  -0.547   4.314   1.874  0.5215  0.4623 -0.4024
    2PC     H1A12524  -0.486   4.281   1.790  0.1362 -2.6198  0.3829
    2PC     H1B12525  -0.481   4.337   1.958 -1.5813  0.2956  1.3899
    2PC     C3212526  -0.632   4.192   1.912  0.1163  0.7094 -0.5033
    2PC     H2A12527  -0.566   4.110   1.941  2.0623  2.9119  1.7796
    2PC     H2B12528  -0.696   4.212   1.998  0.4194  1.0586 -0.3561
    2PC     N3112529  -0.714   4.127   1.805 -0.3870  0.2933  0.1249
    2PC     C3312530  -0.797   4.015   1.861  0.5643 -0.7064 -0.4428
    2PC     H3A12531  -0.868   4.061   1.930  1.3825  1.6298 -1.0656
    2PC     H3B12532  -0.847   3.979   1.771 -0.0955  2.7303 -1.5834
    2PC     H3C12533  -0.729   3.940   1.903  1.1944 -0.3653 -0.8278
    2PC     C3412534  -0.809   4.230   1.750  0.2611  0.6121 -0.4054
    2PC     H4A12535  -0.753   4.300   1.688 -2.1660  2.2906 -0.8387
    2PC     H4B12536  -0.886   4.173   1.698 -2.1731  1.7877  1.6963
    2PC     H4C12537  -0.849   4.277   1.840 -1.8669  0.1791 -1.0659
    2PC     C3512538  -0.625   4.067   1.700 -0.2610 -0.5737  0.7122
    2PC     H5A12539  -0.685   4.023   1.620  1.9168 -1.9596 -0.2516
    2PC     H5B12540  -0.571   3.984   1.745  0.7182  0.5849  1.7592
    2PC     H5C12541  -0.563   4.148   1.660 -2.0675 -0.3245 -1.8713
    2PC     O3312542  -0.687   4.639   1.727 -0.1355 -0.0798  0.4547
    2PC     O3412543  -0.530   4.488   1.617 -0.5740  0.2254 -0.2468
    2PC     O2112544  -0.347   4.548   2.118  0.1634 -0.0201 -0.3483
    2PC     C2112545  -0.429   4.548   2.224  0.1962  0.4435 -0.3212
    2PC     O2212546  -0.513   4.633   2.242  0.0724  0.2763 -0.1095
    3OL     C1212547  -0.414   4.426   2.312  0.4955  0.2070 -0.6959
    3OL     H2R12548  -0.320   4.375   2.291  0.6256  0.7874 -1.6077
    3OL     H2S12549  -0.496   4.356   2.300  1.1606 -0.3209 -2.4515
    3OL     C1312550  -0.413   4.467   2.460  0.1235 -0.0589 -0.6185
    3OL     H3R12551  -0.414   4.375   2.518  0.7285  0.9944  1.1500
    3OL     H3S12552  -0.501   4.524   2.491  0.0215 -0.5812  0.0650
    3OL     C1412553  -0.288   4.542   2.509 -0.0176 -0.3177  0.1409
    3OL     H4R12554  -0.303   4.647   2.482 -2.2838 -0.8408 -0.8828
    3OL     H4S12555  -0.196   4.516   2.458  0.0726 -1.7794  0.9774
    3OL     C1512556  -0.259   4.537   2.660 -0.1192  0.2546  0.1810
    3OL     H5R12557  -0.176   4.604   2.683 -2.3139  2.8989  1.0180
    3OL     H5S12558  -0.233   4.435   2.686  1.0238  0.2036 -1.0711
    3OL     C1612559  -0.375   4.590   2.746 -0.1807 -0.0337  0.2747
    3OL     H6R12560  -0.471   4.547   2.717 -0.3102 -0.1424  0.8528
    3OL     H6S12561  -0.364   4.697   2.727 -1.4645 -0.2026 -1.7013
    3OL     C1712562  -0.348   4.573   2.897 -0.3587 -0.0421  0.3055
    3OL     H7R12563  -0.416   4.643   2.946  0.4259 -0.7219  2.4413
    3OL     H7S12564  -0.243   4.596   2.912  0.5118 -3.1765 -0.2944
    3OL     C1812565  -0.376   4.431   2.948  0.5113 -0.4345 -0.2871
    3OL     H8R12566  -0.327   4.352   2.891  0.9372 -0.2764 -0.1443
    3OL     H8S12567  -0.485   4.425   2.954  0.4666  1.2044  1.2799
    3OL     C1912568  -0.331   4.432   3.092 -0.3861 -0.0157  0.0001
    3OL     H9R12569  -0.379   4.506   3.155  1.0561  1.8386 -0.9652
    3OL    C11012570  -0.236   4.364   3.154 -0.0358  0.0705 -0.4361
    3OL    H10R12571  -0.220   4.380   3.260 -0.9302 -1.0023 -0.1132
    3OL    C11112572  -0.142   4.275   3.075  0.3221  0.5189 -0.5199
    3OL    H11R12573  -0.112   4.324   2.983  0.7746  2.3567  0.5425
    3OL    H11S12574  -0.189   4.179   3.053  0.6033  0.0205  0.9335
    3OL    C11212575  -0.019   4.257   3.166  0.1113  0.3910 -0.2559
    3OL    H12R12576  -0.057   4.223   3.262  1.0975  0.4367  0.1589
    3OL    H12S12577   0.025   4.356   3.178 -2.2953  1.3233  1.8667
    3OL    C11312578   0.085   4.155   3.119 -0.1433 -0.1439  0.3365
    3OL    H13R12579   0.041   4.056   3.128 -1.0968  0.3540  1.3932
    3OL    H13S12580   0.160   4.153   3.198  1.1827 -0.6663 -0.8888
    3OL    C11412581   0.156   4.177   2.985  0.7496  0.0166  0.8259
    3OL    H14R12582   0.198   4.278   2.993  0.7319  0.2209 -1.0864
    3OL    H14S12583   0.090   4.171   2.898  1.8025 -0.8121  0.0621
    3OL    C11512584   0.263   4.070   2.963  0.3510 -0.2461  0.1219
    3OL    H15R12585   0.226   3.967   2.957  0.3381 -0.1742 -1.4430
    3OL    H15S12586   0.341   4.078   3.040 -1.6196 -1.5963  2.3944
    3OL    C11612587   0.337   4.086   2.829  0.2534  0.5134  0.1552
    3OL    H16R12588   0.261   4.070   2.752 -3.5049 -1.8451  3.9017
    3OL    H16S12589   0.402   3.999   2.821 -1.2662 -0.6545  0.0553
    3OL    C11712590   0.423   4.213   2.823 -0.0619  0.7482  0.5586
    3OL    H17R12591   0.499   4.224   2.901 -1.0522 -1.7127  1.9704
    3OL    H17S12592   0.353   4.295   2.837  0.0879  1.0766 -0.5421
    3OL    C11812593   0.488   4.242   2.687 -0.9925 -0.3588 -0.1369
    3OL    H18R12594   0.565   4.168   2.666  0.8075  0.6376  2.4237
    3OL    H18S12595   0.547   4.334   2.682 -0.9694 -0.1738  2.2648
    3OL    H18T12596   0.413   4.259   2.609  0.1807  1.4013 -0.9417
    1PA    C11612597   5.927   5.932   3.483 -0.3459  0.7187 -0.4156
    1PA    H16R12598   5.996   5.960   3.563 -0.0743  0.8336 -0.6886
    1PA    H16S12599   5.905   6.020   3.423 -1.7295 -0.2399 -1.3669
    1PA    H16T12600   5.982   5.869   3.412  3.3784  3.6590 -0.4764
    1PA    C11512601   5.788   5.893   3.535  0.1958  0.1882  0.6757
    1PA    H15R12602   5.795   5.787   3.564  0.0706 -0.8452 -2.6335
    1PA    H15S12603   5.766   5.947   3.627  0.1514  5.1923 -1.9248
    1PA    C11412604   5.683   5.896   3.423  0.8924 -0.1265  0.0023
    1PA    H14R12605   5.578   5.892   3.452  0.2720  1.2256 -1.8156
    1PA    H14S12606   5.699   5.999   3.389 -1.4602 -0.2723 -1.7747
    1PA    C11312607   5.703   5.803   3.303 -0.0325 -0.7545  0.3297
    1PA    H13R12608   5.795   5.838   3.256 -1.0153  0.9326 -0.4192
    1PA    H13S12609   5.723   5.699   3.330 -1.5902 -0.8780  1.0714
    1PA    C11212610   5.582   5.815   3.209  0.1458 -0.7907  0.0936
    1PA    H12R12611   5.490   5.822   3.267  0.5972  1.1332  0.6478
    1PA    H12S12612   5.589   5.914   3.164  0.1653 -0.6409  0.4177
    1PA    C11112613   5.578   5.709   3.098 -0.8805 -0.4199 -0.2290
    1PA    H11R12614   5.589   5.615   3.153  0.3853 -2.4677 -3.6899
    1PA    H11S12615   5.482   5.707   3.045 -0.9045  1.6738 -0.3481
    1PA    C11012616   5.696   5.708   3.000 -0.4287  0.0717  0.3059
    1PA    H10R12617   5.793   5.715   3.049 -0.1567  0.2508 -0.2603
    1PA    H10S12618   5.695   5.611   2.951  0.1662 -0.3409  1.1005
    1PA     C1912619   5.685   5.816   2.892 -0.1330  0.0641  0.2674
    1PA     H9R12620   5.587   5.800   2.846  0.5920 -1.7223 -0.7527
    1PA     H9S12621   5.676   5.913   2.943 -2.8736 -1.2914  2.6735
    1PA     C1812622   5.801   5.804   2.792 -0.2730 -0.3983  0.1575
    1PA     H8R12623   5.890   5.824   2.852  0.6315 -0.5951 -1.0832
    1PA     H8S12624   5.798   5.704   2.749  0.6646 -0.9550  1.3164
    1PA     C1712625   5.790   5.915   2.687 -0.3528 -0.7541 -0.2103
    1PA     H7R12626   5.779   6.013   2.735 -1.1684 -1.3348  0.8241
    1PA     H7S12627   5.886   5.909   2.634 -0.1839  1.7465 -0.3225
    1PA     C1612628   5.677   5.897   2.585 -0.0615 -0.1339 -0.6522
    1PA     H6R12629   5.682   5.802   2.531  1.6356 -0.7598  0.5424
    1PA     H6S12630   5.587   5.900   2.646  1.3083 -0.8820  1.5002
    1PA     C1512631   5.667   6.006   2.478  0.6780  0.5283 -0.0558
    1PA     H5R12632   5.766   6.022   2.435  0.9029  1.1608  0.6709
    1PA     H5S12633   5.595   5.977   2.401 -0.8356  3.1284  0.2518
    1PA     C1412634   5.608   6.135   2.536  0.5598  0.4994 -0.1121
    1PA     H4R12635   5.506   6.122   2.573  0.3589  3.0436  0.4701
    1PA     H4S12636   5.671   6.172   2.617  2.0034 -2.4690  0.2240
    1PA     C1312637   5.591   6.236   2.421  1.1294  0.1548 -0.5046
    1PA     H3R12638   5.692   6.262   2.388  0.8611  1.5302 -0.3332
    1PA     H3S12639   5.540   6.192   2.336 -1.2355  0.5022  0.6497
    1PA     C1212640   5.530   6.373   2.453 -0.1820 -0.4203 -0.4906
    1PA     H2R12641   5.430   6.360   2.496 -0.5672 -0.4842 -1.3849
    1PA     H2S12642   5.598   6.426   2.519 -0.2057 -0.5632 -0.3518
    2PC     C1112643   5.504   6.464   2.335  0.2819  0.4737  0.0808
    2PC     O1212644   5.502   6.440   2.216  0.8437  0.7345  0.0162
    2PC     O1112645   5.481   6.583   2.392  0.3458  0.5535 -0.0590
    2PC      C112646   5.466   6.697   2.305  0.3561  0.0879 -0.6776
    2PC      HR12647   5.491   6.793   2.352 -0.1341  0.4594 -1.1711
    2PC      HS12648   5.534   6.683   2.221  1.2318 -0.6588  0.1162
    2PC      C212649   5.320   6.698   2.260  0.0667  0.3109  0.2484
    2PC      HX12650   5.291   6.598   2.227  2.3306  0.1859 -1.6433
    2PC      C312651   5.300   6.805   2.153  0.4102  0.4008  0.2743
    2PC      HA12652   5.322   6.904   2.195 -1.3717 -0.0067  2.3102
    2PC      HB12653   5.364   6.778   2.068  0.3239 -1.2759  0.7168
    2PC     O3112654   5.166   6.804   2.101  0.6129  0.1208 -0.2453
    2PC     P3112655   5.129   6.835   1.948 -0.0786  0.2210 -0.0597
    2PC     O3212656   4.969   6.833   1.955 -0.0592 -0.2304  0.3067
    2PC     C3112657   4.909   6.703   1.952  0.1263 -0.3201  0.4670
    2PC     H1A12658   4.920   6.667   1.849 -1.2929 -1.7792  0.7725
    2PC     H1B12659   4.965   6.630   2.011 -1.4601 -1.0684  1.1419
    2PC     C3212660   4.759   6.699   1.988  0.0021 -0.0841 -0.0152
    2PC     H2A12661   4.743   6.591   1.998  0.6871 -0.2182 -0.2518
    2PC     H2B12662   4.747   6.747   2.085  0.5668 -2.6847  1.4642
    2PC     N3112663   4.656   6.758   1.897  0.2644  0.1698 -0.1499
    2PC     C3312664   4.529   6.778   1.975  0.1970 -0.5159 -0.0782
    2PC     H3A12665   4.495   6.682   2.015 -0.9979 -0.4939 -1.0078
    2PC     H3B12666   4.558   6.837   2.062  0.4131  0.1205 -0.5784
    2PC     H3C12667   4.452   6.824   1.914  1.5135  0.2025 -1.2509
    2PC     C3412668   4.700   6.888   1.837  0.8835  0.1075  0.1601
    2PC     H4A12669   4.614   6.939   1.793  0.0863 -0.4167  1.0647
    2PC     H4B12670   4.743   6.951   1.915 -0.0305 -0.6238  1.2831
    2PC     H4C12671   4.778   6.869   1.763  0.4050  0.4875 -0.4638
    2PC     C3512672   4.620   6.657   1.792  0.5226 -0.0291 -0.0486
    2PC     H5A12673   4.539   6.704   1.735 -1.0776 -1.9244  0.5380
    2PC     H5B12674   4.584   6.571   1.849  1.5402  0.2117  0.9946
    2PC     H5C12675   4.708   6.632   1.734  0.0372 -1.9829 -0.0086
    2PC     O3312676   5.165   6.973   1.909  0.2777  0.1268 -0.0681
    2PC     O3412677   5.177   6.738   1.847 -0.0292 -0.0495  0.2239
    2PC     O2112678   5.248   6.726   2.382 -0.5773  0.1726 -0.0975
    2PC     C2112679   5.148   6.647   2.424 -0.1742 -0.1573  0.2509
    2PC     O2212680   5.094   6.571   2.347 -0.0878 -0.1431  0.1774
    3OL     C1212681   5.118   6.645   2.572 -0.1317 -0.1019  0.2606
    3OL     H2R12682   5.165   6.556   2.616  0.2042 -0.8762 -1.5652
    3OL     H2S12683   5.009   6.645   2.583 -0.2358  2.1329 -0.3366
    3OL     C1312684   5.176   6.766   2.646  0.4824 -0.1606 -0.1188
    3OL     H3R12685   5.138   6.853   2.592  2.9064  1.5830  0.8108
    3OL     H3S12686   5.284   6.752   2.656  0.4336  0.4160  1.6208
    3OL     C1412687   5.118   6.786   2.787  0.5197 -0.3137 -0.0818
    3OL     H4R12688   5.118   6.688   2.837 -1.1173  0.1544  0.8890
    3OL     H4S12689   5.016   6.823   2.779  0.4067 -0.0105  2.1061
    3OL     C1512690   5.190   6.894   2.868  0.0269  0.4775 -0.6842
    3OL     H5R12691   5.127   6.917   2.954 -1.3814  0.8852 -1.7915
    3OL     H5S12692   5.207   6.987   2.814  0.5312  0.2356 -0.9558
    3OL     C1612693   5.326   6.845   2.921 -0.0215  0.5579 -0.4840
    3OL     H6R12694   5.386   6.800   2.842  2.6152  0.5730  1.3826
    3OL     H6S12695   5.304   6.771   2.998 -2.0501  2.1137  0.5459
    3OL     C1712696   5.402   6.960   2.989 -0.2328  0.2152  0.3428
    3OL     H7R12697   5.329   7.010   3.053 -1.7908 -0.8284 -0.5499
    3OL     H7S12698   5.430   7.038   2.918 -3.3032 -0.1609 -1.4569
    3OL     C1812699   5.523   6.904   3.065 -0.2647  0.1641  0.3552
    3OL     H8R12700   5.571   6.984   3.122  0.2727 -0.4169  0.7350
    3OL     H8S12701   5.589   6.868   2.986  1.3568  1.8794  0.8384
    3OL     C1912702   5.492   6.793   3.162 -0.0471 -0.2987 -0.0997
    3OL     H9R12703   5.449   6.707   3.112  0.6941 -0.2493 -0.8427
    3OL    C11012704   5.506   6.793   3.294  0.6143 -0.4309 -0.1678
    3OL    H10R12705   5.466   6.712   3.353  0.4220 -0.9420 -0.9782
    3OL    C11112706   5.570   6.903   3.375  0.3015  0.0288 -0.5347
    3OL    H11R12707   5.492   6.958   3.428 -0.3768 -1.7722  0.4419
    3OL    H11S12708   5.622   6.975   3.312 -2.2630 -0.1779 -3.0952
    3OL    C11212709   5.666   6.830   3.470 -0.0672  0.1166 -0.0885
    3OL    H12R12710   5.743   6.774   3.418  2.2370  1.7449  1.3558
    3OL    H12S12711   5.614   6.750   3.523 -0.9677  0.6026 -0.2157
    3OL    C11312712   5.740   6.934   3.556  0.3220 -0.4200  0.2247
    3OL    H13R12713   5.669   7.005   3.598  1.0975 -0.7671  2.2452
    3OL    H13S12714   5.804   6.992   3.490 -1.0310  0.3985 -0.4011
    3OL    C11412715   5.820   6.864   3.668  0.2874 -0.1992  0.3874
    3OL    H14R12716   5.889   6.797   3.617 -0.1366  0.1541 -0.6956
    3OL    H14S12717   5.745   6.803   3.719  0.4430  0.8693  1.9467
    3OL    C11512718   5.890   6.960   3.765 -0.0323  0.2036  0.2275
    3OL    H15R12719   5.946   6.903   3.840  0.4612 -1.3903 -1.2919
    3OL    H15S12720   5.816   7.023   3.815 -0.6347 -0.0547 -0.3242
    3OL    C11612721   5.993   7.051   3.696  0.2001  0.0513  0.3702
    3OL    H16R12722   6.020   7.134   3.762 -0.6486  0.4809  0.1913
    3OL    H16S12723   5.947   7.097   3.609  1.8837 -0.3049 -0.7414
    3OL    C11712724   6.124   6.982   3.655 -0.0987 -0.0445 -0.4228
    3OL    H17R12725   6.113   6.884   3.607 -0.0094 -1.1423  1.6764
    3OL    H17S12726   6.190   6.973   3.741 -0.9153 -1.7198  0.0758
    3OL    C11812727   6.203   7.078   3.565 -0.0291  0.2075 -0.0911
    3OL    H18R12728   6.285   7.128   3.618  2.5442 -3.6245 -0.1203
    3OL    H18S12729   6.134   7.147   3.516 -1.4950 -0.2696  1.2237
    3OL    H18T12730   6.249   7.014   3.489 -1.1125 -1.2216  0.4199
    1PA    C11612731   4.632   5.359   3.852 -0.0314  0.8604 -0.0222
    1PA    H16R12732   4.655   5.255   3.875  1.3330  1.2206  0.3335
    1PA    H16S12733   4.661   5.415   3.941  0.0949 -1.7143  1.6361
    1PA    H16T12734   4.699   5.387   3.769 -0.6759 -1.3630 -1.3852
    1PA    C11512735   4.490   5.373   3.795  0.0315 -0.3774 -0.5146
    1PA    H15R12736   4.474   5.299   3.716 -3.8239 -0.2216 -0.0517
    1PA    H15S12737   4.412   5.360   3.870  1.4883  0.0006  1.1536
    1PA    C11412738   4.473   5.511   3.731  0.0269 -0.0516  0.1821
    1PA    H14R12739   4.475   5.592   3.805 -1.4166 -0.4036  0.6372
    1PA    H14S12740   4.554   5.539   3.664  0.2085 -1.2314 -0.1059
    1PA    C11312741   4.348   5.520   3.642  0.0307  0.1883  0.1999
    1PA    H13R12742   4.348   5.459   3.552  0.1697  0.5551 -0.0486
    1PA    H13S12743   4.263   5.471   3.690 -0.2242 -0.9844 -1.3802
    1PA    C11212744   4.331   5.669   3.609  0.3468  0.0285 -0.7112
    1PA    H12R12745   4.324   5.736   3.695 -1.3637  1.1948 -1.6940
    1PA    H12S12746   4.427   5.707   3.573  0.3665 -0.0743 -0.7642
    1PA    C11112747   4.218   5.686   3.506 -0.6859 -0.2529  0.3484
    1PA    H11R12748   4.134   5.624   3.534 -1.6976  1.0989  0.4167
    1PA    H11S12749   4.176   5.787   3.502 -3.9169 -1.5410 -0.9232
    1PA    C11012750   4.255   5.643   3.364 -0.2965  0.7578  0.1283
    1PA    H10R12751   4.351   5.691   3.346 -0.2435  0.6750  0.1896
    1PA    H10S12752   4.281   5.537   3.357 -1.9469  0.3880 -1.4173
    1PA     C1912753   4.151   5.687   3.259  0.3107  0.5129 -0.5843
    1PA     H9R12754   4.054   5.670   3.306  0.5462 -1.5779 -0.7419
    1PA     H9S12755   4.159   5.795   3.244 -3.4934  0.6445 -2.9629
    1PA     C1812756   4.162   5.610   3.126  0.5316  0.0731 -0.3157
    1PA     H8R12757   4.240   5.649   3.061  0.4853  1.2100  0.2897
    1PA     H8S12758   4.177   5.504   3.145 -0.0460 -0.4009 -2.3172
    1PA     C1712759   4.038   5.610   3.035  0.6202  0.1210 -0.4361
    1PA     H7R12760   3.960   5.576   3.103 -0.8953 -0.7367 -2.4945
    1PA     H7S12761   4.016   5.704   2.984 -2.3802  0.2270  0.8459
    1PA     C1612762   4.074   5.523   2.914 -0.2551 -0.1361 -0.5135
    1PA     H6R12763   4.158   5.574   2.867 -1.5467  1.7776 -0.8653
    1PA     H6S12764   4.100   5.422   2.945  1.3422  0.4552  0.1507
    1PA     C1512765   3.960   5.523   2.811 -0.2923  0.2550 -0.4753
    1PA     H5R12766   3.860   5.499   2.847 -0.3286  1.1947  0.0653
    1PA     H5S12767   3.964   5.626   2.775  3.3045  0.2385 -0.5269
    1PA     C1412768   3.983   5.429   2.691 -0.0046  0.0205 -0.2380
    1PA     H4R12769   4.071   5.463   2.636 -0.9999  1.1319 -1.2153
    1PA     H4S12770   3.999   5.329   2.731 -0.3850  0.5927  1.4373
    1PA     C1312771   3.860   5.438   2.600 -0.1737  0.2237  0.0078
    1PA     H3R12772   3.770   5.409   2.655 -1.5508  2.4522 -0.9201
    1PA     H3S12773   3.848   5.533   2.547 -1.4460 -0.6981 -1.4405
    1PA     C1212774   3.880   5.336   2.487 -0.4356  0.1621  0.0149
    1PA     H2R12775   3.975   5.352   2.435 -1.2491 -0.8360 -1.8813
    1PA     H2S12776   3.889   5.238   2.532 -1.2700 -0.2644 -0.7107
    2PC     C1112777   3.763   5.322   2.393 -0.3219 -0.0838 -0.0909
    2PC     O1212778   3.648   5.345   2.423 -0.2649  0.0836  0.0034
    2PC     O1112779   3.796   5.310   2.263  0.1124  0.4732 -0.0380
    2PC      C112780   3.706   5.283   2.154  0.1781  0.5019 -0.0997
    2PC      HR12781   3.766   5.245   2.072  0.0392 -0.9364  0.4406
    2PC      HS12782   3.641   5.197   2.173 -3.1127  3.0196  1.0169
    2PC      C212783   3.639   5.409   2.097 -0.1107  0.2786 -0.2556
    2PC      HX12784   3.612   5.390   1.992 -1.1676 -1.7114  0.3212
    2PC      C312785   3.730   5.531   2.113  0.1063  0.0422  0.3065
    2PC      HA12786   3.730   5.560   2.219 -2.1222 -0.6917  0.5481
    2PC      HB12787   3.833   5.509   2.083 -0.1591 -0.7103 -0.0916
    2PC     O3112788   3.677   5.640   2.036 -0.3790 -0.4982 -0.1259
    2PC     P3112789   3.730   5.665   1.887  0.1438  0.4124  0.2108
    2PC     O3212790   3.671   5.809   1.851 -0.5304 -0.0745 -0.6600
    2PC     C3112791   3.744   5.929   1.885 -0.4582 -0.2405 -0.2262
    2PC     H1A12792   3.742   5.957   1.990  1.0520 -1.5125  0.1809
    2PC     H1B12793   3.849   5.916   1.857 -1.0628  0.5117 -3.2621
    2PC     C3212794   3.684   6.042   1.800 -0.7084 -0.5018 -0.4015
    2PC     H2A12795   3.582   6.058   1.833 -0.4403  2.2805 -0.6827
    2PC     H2B12796   3.737   6.132   1.831  1.3265 -1.7945  0.1276
    2PC     N3112797   3.691   6.035   1.650  0.4399  0.2163 -0.3959
    2PC     C3312798   3.578   5.955   1.593  0.3601 -0.2795  0.4518
    2PC     H3A12799   3.612   5.853   1.617 -0.9632 -0.9086 -0.2313
    2PC     H3B12800   3.487   5.977   1.648 -0.0805 -1.0686  0.0655
    2PC     H3C12801   3.564   5.969   1.486 -0.0398 -4.3288 -0.2110
    2PC     C3412802   3.673   6.168   1.584 -0.0618  0.1607 -0.3696
    2PC     H4A12803   3.673   6.149   1.476 -0.3673 -0.4445 -0.2691
    2PC     H4B12804   3.581   6.218   1.616  0.4796  1.6139 -0.9810
    2PC     H4C12805   3.757   6.229   1.617  0.5180 -2.0101  2.5022
    2PC     C3512806   3.818   5.973   1.598  0.5523  0.5065 -0.4680
    2PC     H5A12807   3.892   6.028   1.656 -0.3755 -0.1985  1.4783
    2PC     H5B12808   3.825   6.000   1.492  2.6754  0.9697 -0.2540
    2PC     H5C12809   3.812   5.865   1.610 -0.1207  0.5236 -0.6020
    2PC     O3312810   3.877   5.659   1.868  0.1386  0.1699  0.2411
    2PC     O3412811   3.671   5.563   1.797  0.4503 -0.3974  0.9112
    2PC     O2112812   3.515   5.438   2.164 -0.0239 -0.3508  0.1860
    2PC     C2112813   3.415   5.349   2.161 -0.4857  0.1721 -0.2417
    2PC     O2212814   3.424   5.241   2.105 -0.1611 -0.0851  0.2933
    3OL     C1212815   3.292   5.388   2.239 -0.2940  0.4644 -0.0863
    3OL     H2R12816   3.217   5.398   2.161 -2.8070 -0.5322  2.0628
    3OL     H2S12817   3.302   5.486   2.287 -2.2913  1.5575 -1.7875
    3OL     C1312818   3.259   5.293   2.355  0.2383  0.3041 -0.0595
    3OL     H3R12819   3.318   5.323   2.442 -1.0150  1.1699  0.5378
    3OL     H3S12820   3.270   5.189   2.325 -0.6579 -0.3499  1.7007
    3OL     C1412821   3.114   5.305   2.406  0.2469  0.1421  0.0032
    3OL     H4R12822   3.097   5.223   2.476  0.7815  0.4777  0.5364
    3OL     H4S12823   3.055   5.281   2.317 -0.6793  0.5016  0.5134
    3OL     C1512824   3.083   5.437   2.478  0.6135  0.4368 -0.3737
    3OL     H5R12825   3.095   5.521   2.409 -0.9852  1.0655  0.0670
    3OL     H5S12826   3.149   5.457   2.562 -0.1093 -2.2840  0.9523
    3OL     C1612827   2.938   5.430   2.527  0.5537 -0.1347 -0.6263
    3OL     H6R12828   2.942   5.370   2.618 -1.6491  1.0527  0.3207
    3OL     H6S12829   2.881   5.374   2.451 -1.7164 -0.9273  1.5170
    3OL     C1712830   2.883   5.567   2.568  0.1055 -0.3395 -0.5329
    3OL     H7R12831   2.786   5.560   2.618  0.2528  1.4490  0.0756
    3OL     H7S12832   2.866   5.626   2.478 -1.4483  0.4260  0.2129
    3OL     C1812833   2.974   5.655   2.655 -0.3792 -0.2303 -0.1322
    3OL     H8R12834   2.928   5.753   2.670 -1.1301 -0.8816  2.1944
    3OL     H8S12835   3.067   5.674   2.602 -0.7509  1.5458 -0.1962
    3OL     C1912836   3.015   5.597   2.788 -0.1079  0.2974  0.0141
    3OL     H9R12837   3.055   5.496   2.785 -1.2202 -0.2337  1.7228
    3OL    C11012838   2.991   5.649   2.908  0.4159  0.4409  0.0603
    3OL    H10R12839   3.013   5.595   2.999 -1.7966  1.1442  1.0884
    3OL    C11112840   2.939   5.788   2.934  0.5639  0.4987  0.0490
    3OL    H11R12841   2.833   5.793   2.911  0.6183 -1.8561 -0.8965
    3OL    H11S12842   2.993   5.860   2.871  1.4940 -0.7494 -0.6120
    3OL    C11212843   2.945   5.827   3.083 -0.2728  0.2718  0.1467
    3OL    H12R12844   3.051   5.823   3.110 -0.1323 -1.6401 -0.5351
    3OL    H12S12845   2.901   5.741   3.134  2.0072 -1.7718 -1.0753
    3OL    C11312846   2.882   5.964   3.112  0.0560  0.3982  0.2756
    3OL    H13R12847   2.779   5.961   3.077 -0.5745 -2.0009  2.0394
    3OL    H13S12848   2.934   6.037   3.050 -0.7466  2.5973  2.0432
    3OL    C11412849   2.882   5.996   3.262  0.0232  0.4115  0.2726
    3OL    H14R12850   2.852   5.906   3.316  1.0277 -0.7100 -0.9655
    3OL    H14S12851   2.810   6.076   3.282 -0.4715 -0.1118  0.6329
    3OL    C11512852   3.018   6.053   3.304  0.1719  0.4998 -0.3214
    3OL    H15R12853   3.031   6.145   3.246 -0.0485 -0.0402 -1.2483
    3OL    H15S12854   3.102   5.988   3.278 -0.3365 -0.9690  1.5205
    3OL    C11612855   3.032   6.083   3.454  0.6624  0.0092 -0.2702
    3OL    H16R12856   2.951   6.145   3.492 -0.4182  0.2550 -2.8022
    3OL    H16S12857   3.130   6.131   3.463  1.5948 -1.4571 -1.8168
    3OL    C11712858   3.032   5.953   3.536  0.5495 -0.0247 -0.3251
    3OL    H17R12859   2.927   5.924   3.523  1.0622 -1.6935 -1.1451
    3OL    H17S12860   3.051   5.963   3.642  0.4186  0.1715 -0.3197
    3OL    C11812861   3.112   5.831   3.489  0.2200 -0.5925  0.5579
    3OL    H18R12862   3.051   5.781   3.413 -0.3621  0.0753  0.5744
    3OL    H18S12863   3.113   5.761   3.573 -1.8881 -1.3160  0.0290
    3OL    H18T12864   3.212   5.864   3.461  0.2302 -0.1377  1.1239
    1PA    C11612865   3.048   0.871   2.910  0.0836  0.0394 -0.2335
    1PA    H16R12866   3.137   0.933   2.911  0.7606 -0.8458 -1.6372
    1PA    H16S12867   2.961   0.936   2.908 -0.6525 -0.9385 -1.1074
    1PA    H16T12868   3.057   0.813   2.818  1.4474 -0.5930  0.2583
    1PA    C11512869   3.044   0.772   3.027  0.0493 -0.0091 -0.2752
    1PA    H15R12870   3.060   0.826   3.121 -1.1131 -0.5251  0.2533
    1PA    H15S12871   2.949   0.718   3.029 -1.4005  2.3386 -1.2258
    1PA    C11412872   3.159   0.671   3.013  0.2072  0.1450 -0.0969
    1PA    H14R12873   3.155   0.632   2.912  1.2170 -0.3001  0.0218
    1PA    H14S12874   3.252   0.726   3.026  0.4561  0.2826 -2.2599
    1PA    C11312875   3.141   0.560   3.118  0.2570  0.8114  0.6258
    1PA    H13R12876   3.129   0.598   3.220  0.2256  0.0655  0.9044
    1PA    H13S12877   3.047   0.512   3.091 -0.4397  0.0850  3.9036
    1PA    C11212878   3.246   0.448   3.111 -0.9412 -0.3360  0.6293
    1PA    H12R12879   3.250   0.413   3.007  1.8623 -0.1879  0.6359
    1PA    H12S12880   3.344   0.488   3.135 -1.3939  0.2120  1.6495
    1PA    C11112881   3.208   0.324   3.193 -0.4186 -0.2266  1.0395
    1PA    H11R12882   3.207   0.343   3.300 -0.0306 -0.5452  1.1017
    1PA    H11S12883   3.107   0.301   3.158  0.5497 -0.7427 -1.6773
    1PA    C11012884   3.305   0.207   3.174 -0.7241 -0.2434 -0.6341
    1PA    H10R12885   3.399   0.239   3.220 -0.8474  1.8275 -1.7088
    1PA    H10S12886   3.291   0.115   3.232  0.0786 -0.1664 -0.2980
    1PA     C1912887   3.337   0.161   3.031  0.3037 -0.9509 -0.1949
    1PA     H9R12888   3.379   0.245   2.976  0.0561 -0.1546  0.8019
    1PA     H9S12889   3.408   0.078   3.033  0.2172 -1.1288 -2.3165
    1PA     C1812890   3.222   0.105   2.946  0.1008 -0.3537 -0.3188
    1PA     H8R12891   3.189   0.012   2.994 -1.5117 -0.4585 -1.5472
    1PA     H8S12892   3.142   0.179   2.950 -1.5628 -2.0652 -0.4154
    1PA     C1712893   3.267   0.088   2.800  0.3493 -0.3561 -0.2415
    1PA     H7R12894   3.309   0.183   2.766 -0.9178  0.8532  1.3881
    1PA     H7S12895   3.352   0.019   2.801 -0.4687 -1.3740  0.5662
    1PA     C1612896   3.146   0.054   2.712  0.2142 -0.3928 -0.0411
    1PA     H6R12897   3.122  -0.052   2.724 -0.9780 -0.1927 -0.5757
    1PA     H6S12898   3.057   0.111   2.742  1.0507  1.5929 -1.1351
    1PA     C1512899   3.173   0.083   2.564  0.6856  0.0970  0.1376
    1PA     H5R12900   3.264   0.037   2.525  0.2735 -0.9589  0.3894
    1PA     H5S12901   3.082   0.050   2.514 -0.0221  1.4215  0.4863
    1PA     C1412902   3.188   0.232   2.529 -0.4411  0.2930  0.4441
    1PA     H4R12903   3.095   0.288   2.533  0.8870  2.5994  0.6819
    1PA     H4S12904   3.259   0.287   2.591  0.7012  1.0898 -1.4850
    1PA     C1312905   3.228   0.245   2.382 -0.5182  0.3068  0.4242
    1PA     H3R12906   3.167   0.184   2.315 -0.3446  1.6967 -1.0584
    1PA     H3S12907   3.219   0.349   2.351  0.1000  0.3217  0.2703
    1PA     C1212908   3.380   0.225   2.366 -0.4929  0.7136  0.1236
    1PA     H2R12909   3.432   0.302   2.424 -0.8045  0.2804  1.0043
    1PA     H2S12910   3.407   0.132   2.417 -0.6786  0.8456  0.4661
    2PC     C1112911   3.425   0.227   2.222 -0.2289 -0.1275  0.1876
    2PC     O1212912   3.354   0.253   2.127 -0.2688 -0.0322  0.2431
    2PC     O1112913   3.557   0.203   2.212 -0.3147 -0.2248 -0.7389
    2PC      C112914   3.623   0.228   2.086  0.2430 -0.0754 -0.4201
    2PC      HR12915   3.730   0.210   2.097  0.2154 -0.2216 -0.3789
    2PC      HS12916   3.578   0.167   2.007  0.0572 -1.1916  0.5068
    2PC      C212917   3.617   0.375   2.044  0.5476  0.0476 -0.0371
    2PC      HX12918   3.514   0.411   2.049  0.3337 -0.3692 -1.1492
    2PC      C312919   3.671   0.406   1.903  0.2611 -0.3023 -0.2245
    2PC      HA12920   3.624   0.351   1.821 -2.2431  0.3159  0.6851
    2PC      HB12921   3.663   0.512   1.880  1.5677 -0.1454 -0.0325
    2PC     O3112922   3.808   0.364   1.908  0.3730  0.0587 -0.2721
    2PC     P3112923   3.918   0.435   1.814  0.5076  0.3695  0.1167
    2PC     O3212924   3.875   0.377   1.671  0.5068 -0.1851  0.3360
    2PC     C3112925   3.946   0.439   1.562 -0.4213  0.3662  0.0298
    2PC     H1A12926   3.957   0.546   1.579  2.6856  0.0844  0.4225
    2PC     H1B12927   4.049   0.404   1.573 -0.5618 -0.6521 -1.5881
    2PC     C3212928   3.889   0.382   1.432 -0.2322  0.2930 -0.0220
    2PC     H2A12929   3.909   0.275   1.424  0.9079  0.4226  0.9057
    2PC     H2B12930   3.783   0.405   1.419 -0.7826 -2.9409 -2.5767
    2PC     N3112931   3.947   0.429   1.302  0.0056  0.0061 -0.0202
    2PC     C3312932   3.887   0.337   1.200  0.4606 -0.0540 -0.2347
    2PC     H3A12933   3.778   0.335   1.203  0.4337 -0.3718 -1.0409
    2PC     H3B12934   3.933   0.346   1.101 -1.3225  4.9259 -0.8904
    2PC     H3C12935   3.912   0.238   1.239  1.3004  0.2229 -0.0614
    2PC     C3412936   3.904   0.570   1.274 -0.5934 -0.1744 -0.0295
    2PC     H4A12937   3.982   0.628   1.323 -0.7923 -0.1567  0.2649
    2PC     H4B12938   3.892   0.584   1.166 -3.8471  0.9279  0.3642
    2PC     H4C12939   3.809   0.598   1.320 -1.6987  0.4976 -2.4962
    2PC     C3512940   4.096   0.424   1.296  0.0191  0.2779  0.0486
    2PC     H5A12941   4.115   0.458   1.194 -1.2799  1.5924  0.2270
    2PC     H5B12942   4.118   0.318   1.312 -0.4935  0.4266  1.9416
    2PC     H5C12943   4.136   0.490   1.372 -0.0540  2.0868 -1.4080
    2PC     O3312944   3.917   0.582   1.832  0.7597  0.3177  0.5747
    2PC     O3412945   4.050   0.386   1.862  0.2926 -0.3324  0.0155
    2PC     O2112946   3.700   0.460   2.126  0.5261  0.2562 -0.2301
    2PC     C2112947   3.646   0.503   2.241  0.2172 -0.0218 -0.2669
    2PC     O2212948   3.528   0.501   2.270  0.3134 -0.0475  0.1261
    3OL     C1212949   3.745   0.551   2.345 -0.3432  0.3702  0.0955
    3OL     H2R12950   3.846   0.544   2.304  0.5842 -1.5350  2.4615
    3OL     H2S12951   3.736   0.474   2.422 -0.2150 -1.3644 -1.5228
    3OL     C1312952   3.716   0.691   2.400 -0.3679  0.2879  0.2927
    3OL     H3R12953   3.608   0.699   2.418 -0.6247 -1.6544 -0.1750
    3OL     H3S12954   3.737   0.762   2.320  0.6513  0.1053  0.3969
    3OL     C1412955   3.803   0.710   2.524 -0.4025 -0.1471  0.3870
    3OL     H4R12956   3.905   0.681   2.495  0.4206  1.6860  1.2649
    3OL     H4S12957   3.772   0.632   2.594  0.8391 -1.0379 -0.0082
    3OL     C1512958   3.799   0.848   2.591  0.1205 -0.2308  0.5999
    3OL     H5R12959   3.703   0.871   2.638  0.5955  0.9539  1.0438
    3OL     H5S12960   3.809   0.927   2.516  1.2592  0.4622  1.4479
    3OL     C1612961   3.901   0.864   2.705  0.4170 -0.2137  0.3339
    3OL     H6R12962   4.004   0.867   2.669  1.0573  2.8686  2.1051
    3OL     H6S12963   3.895   0.779   2.774 -0.3456 -1.5281 -1.2669
    3OL     C1712964   3.886   1.000   2.774  0.2012  0.2185 -0.5476
    3OL     H7R12965   3.782   1.004   2.806  0.3792  0.8376 -0.0282
    3OL     H7S12966   3.906   1.081   2.703  0.2517  0.7649  0.0805
    3OL     C1812967   3.979   1.019   2.894  0.2404  0.4351 -0.6125
    3OL     H8R12968   4.081   1.014   2.855  0.8218 -0.4886  0.9269
    3OL     H8S12969   3.964   0.936   2.963  0.8647  0.9993  0.2307
    3OL     C1912970   3.941   1.144   2.970 -0.5075 -0.1161 -0.0696
    3OL     H9R12971   3.892   1.219   2.908 -0.2497 -0.2005 -0.3766
    3OL    C11012972   3.934   1.155   3.102 -0.4325  0.2596 -0.0971
    3OL    H10R12973   3.897   1.253   3.132 -1.0925 -0.0473  0.0970
    3OL    C11112974   4.012   1.071   3.200  0.2199  0.7862 -0.1551
    3OL    H11R12975   4.112   1.067   3.156 -0.6705 -0.6859 -2.2024
    3OL    H11S12976   3.976   0.969   3.213  3.9286 -0.6214  0.2036
    3OL    C11212977   4.014   1.136   3.339 -0.2197  0.4115  0.0272
    3OL    H12R12978   3.912   1.155   3.372  0.4784  2.4491  1.1456
    3OL    H12S12979   4.069   1.229   3.327  1.2582 -0.1503  1.9797
    3OL    C11312980   4.089   1.048   3.440 -0.4062  0.1829 -0.0319
    3OL    H13R12981   4.184   1.016   3.398  0.0149 -0.4737  1.3674
    3OL    H13S12982   4.039   0.951   3.445 -0.8060  0.2923 -1.4295
    3OL    C11412983   4.095   1.118   3.576 -0.4020  0.3357 -0.1108
    3OL    H14R12984   3.997   1.162   3.597  0.0331  2.5934 -2.3496
    3OL    H14S12985   4.160   1.205   3.564 -0.7781  0.7713  0.8377
    3OL    C11512986   4.152   1.036   3.693 -0.2984  0.7077  0.1053
    3OL    H15R12987   4.255   1.004   3.677 -1.3832 -2.3002 -1.6930
    3OL    H15S12988   4.088   0.947   3.699 -1.0898  1.1312 -1.4133
    3OL    C11612989   4.149   1.110   3.827  0.2846  0.1864  0.4084
    3OL    H16R12990   4.178   1.038   3.904  0.9551 -0.1058 -0.1028
    3OL    H16S12991   4.048   1.144   3.850 -0.0683 -0.9790  0.6551
    3OL    C11712992   4.244   1.230   3.834  0.3602  0.1669 -0.2362
    3OL    H17R12993   4.222   1.299   3.753  0.0564  0.3854  0.0309
    3OL    H17S12994   4.349   1.198   3.829  0.0891 -0.6635 -0.8962
    3OL    C11812995   4.221   1.312   3.961  0.3189  0.2088 -0.2710
    3OL    H18R12996   4.235   1.247   4.048  0.4445  1.3254  0.5676
    3OL    H18S12997   4.119   1.349   3.950  0.4915  0.2045 -2.2806
    3OL    H18T12998   4.295   1.392   3.972 -1.8910  2.2796  0.3240
    1PA    C11612999   5.006   3.578   3.270  0.5065  0.2526 -0.0819
    1PA    H16R13000   4.942   3.655   3.314 -0.4297 -0.1569 -0.6903
    1PA    H16S13001   4.939   3.515   3.212 -0.7422 -1.7607  3.2433
    1PA    H16T13002   5.086   3.630   3.217  2.7768  0.0981  2.9480
    1PA    C11513003   5.062   3.507   3.394  0.1111  0.1044  0.0157
    1PA    H15R13004   5.097   3.594   3.451 -0.4713  0.3593 -0.0142
    1PA    H15S13005   4.990   3.453   3.454 -0.6260  2.5165  1.4329
    1PA    C11413006   5.180   3.419   3.349  0.0930  0.1684 -0.1581
    1PA    H14R13007   5.250   3.470   3.282 -0.6618  0.5288 -0.6954
    1PA    H14S13008   5.235   3.387   3.437 -2.2140  0.4208  1.4733
    1PA    C11313009   5.132   3.286   3.291  0.1064  0.1429 -0.1113
    1PA    H13R13010   5.042   3.296   3.230 -1.9990 -0.1532  2.7553
    1PA    H13S13011   5.203   3.254   3.214  0.2199 -0.7860  0.3616
    1PA    C11213012   5.111   3.166   3.384  0.2286 -0.1810 -0.4986
    1PA    H12R13013   5.204   3.130   3.429 -1.2513 -2.3139  1.0472
    1PA    H12S13014   5.038   3.191   3.461  0.0715  0.6331 -0.9009
    1PA    C11113015   5.069   3.044   3.301 -0.1360 -0.2675 -0.1866
    1PA    H11R13016   4.967   3.053   3.262  0.4367  0.7792 -1.5312
    1PA    H11S13017   5.130   3.029   3.212  0.3750 -3.9350  0.5912
    1PA    C11013018   5.075   2.925   3.399 -0.9598 -0.3158 -0.1805
    1PA    H10R13019   5.169   2.929   3.455 -1.0884  0.5443 -0.0125
    1PA    H10S13020   4.992   2.925   3.469 -1.2164  0.9040 -0.4564
    1PA     C1913021   5.082   2.794   3.319 -0.1336 -0.3010 -0.1418
    1PA     H9R13022   5.146   2.803   3.231 -1.8270 -0.2611 -1.4088
    1PA     H9S13023   5.141   2.721   3.375 -0.9581  0.7032  2.1414
    1PA     C1813024   4.942   2.750   3.276  0.1402 -0.6784 -0.6587
    1PA     H8R13025   4.872   2.742   3.360 -0.0884 -1.5696 -0.9239
    1PA     H8S13026   4.899   2.832   3.219 -0.6163  0.5409  1.5276
    1PA     C1713027   4.946   2.616   3.202  0.1943 -0.5339 -0.9194
    1PA     H7R13028   5.017   2.620   3.119  3.3271 -1.0729  1.5080
    1PA     H7S13029   4.990   2.547   3.276  0.5764 -0.7409 -1.3345
    1PA     C1613030   4.805   2.565   3.168 -0.2576  0.0468  0.0248
    1PA     H6R13031   4.792   2.457   3.161 -0.1471  0.1425 -4.1399
    1PA     H6S13032   4.733   2.593   3.245  0.9442 -1.1610  1.6601
    1PA     C1513033   4.757   2.629   3.037  0.0280  0.2904  0.0392
    1PA     H5R13034   4.760   2.738   3.048 -1.2546  0.3379 -0.0090
    1PA     H5S13035   4.825   2.606   2.954 -0.0551 -0.0594  0.0672
    1PA     C1413036   4.612   2.586   3.016  0.3487 -0.5102 -0.6044
    1PA     H4R13037   4.623   2.479   3.000  0.7721 -0.3374 -1.5039
    1PA     H4S13038   4.551   2.607   3.105 -0.2040 -2.2075 -0.5471
    1PA     C1313039   4.542   2.647   2.894 -0.4492 -0.0367  0.0745
    1PA     H3R13040   4.597   2.631   2.801 -1.7784  0.3761 -0.8163
    1PA     H3S13041   4.459   2.579   2.874  0.8902 -1.2322 -1.8111
    1PA     C1213042   4.515   2.798   2.896 -0.3443 -0.0214  0.2931
    1PA     H2R13043   4.437   2.808   2.972  0.9914 -1.8706  2.0308
    1PA     H2S13044   4.605   2.856   2.919 -0.6947  0.8583 -0.4787
    2PC     C1113045   4.469   2.863   2.768 -0.2733  0.1275  0.3432
    2PC     O1213046   4.447   2.982   2.761 -0.0869  0.1457  0.0400
    2PC     O1113047   4.457   2.777   2.666  0.2140  0.3382  0.1055
    2PC      C113048   4.448   2.827   2.531  0.2622  0.9313  0.3207
    2PC      HR13049   4.511   2.912   2.505  1.0415  0.5979  1.0477
    2PC      HS13050   4.470   2.741   2.468 -2.7215  0.6450 -0.4618
    2PC      C213051   4.306   2.858   2.485  0.1702  0.0983  0.0358
    2PC      HX13052   4.236   2.793   2.539  1.6966 -0.7978  1.0169
    2PC      C313053   4.290   2.856   2.332  0.5507 -0.2367  0.0017
    2PC      HA13054   4.256   2.755   2.307 -0.1876 -0.3650  1.3991
    2PC      HB13055   4.227   2.935   2.292  3.4807  1.7468 -1.0567
    2PC     O3113056   4.420   2.866   2.271  0.4493  0.2389 -0.1421
    2PC     P3113057   4.424   2.897   2.114 -0.0022  0.4448 -0.1130
    2PC     O3213058   4.581   2.916   2.089  0.0055  0.2308 -0.2293
    2PC     C3113059   4.629   2.925   1.954  0.6674 -0.0523 -0.0148
    2PC     H1A13060   4.578   2.841   1.905  0.2998 -1.1604  2.1734
    2PC     H1B13061   4.595   3.021   1.916 -0.6275  0.0545  1.3343
    2PC     C3213062   4.783   2.919   1.951  0.6669  0.0513 -0.2380
    2PC     H2A13063   4.816   3.004   2.011 -0.9758  0.5675 -0.0118
    2PC     H2B13064   4.804   2.821   1.993  0.4935 -0.1555 -0.6243
    2PC     N3113065   4.852   2.931   1.818 -0.2756  0.0773 -0.7383
    2PC     C3313066   4.798   2.845   1.708  0.1017 -0.1025 -0.7831
    2PC     H3A13067   4.785   2.742   1.741  1.5909  0.4003  1.5997
    2PC     H3B13068   4.704   2.889   1.675 -0.3517 -0.8881 -0.5750
    2PC     H3C13069   4.878   2.836   1.634  1.5880 -0.7346  0.8424
    2PC     C3413070   4.855   3.075   1.776 -0.0220  0.2526 -0.1373
    2PC     H4A13071   4.759   3.108   1.736  0.5516 -0.1499 -1.9364
    2PC     H4B13072   4.895   3.131   1.860 -1.6164 -0.3278  1.0547
    2PC     H4C13073   4.919   3.087   1.689 -0.8771 -0.4976 -0.8974
    2PC     C3513074   4.993   2.885   1.843 -0.5344 -0.2445  0.1893
    2PC     H5A13075   5.046   2.935   1.923  1.1556  0.4295 -1.2959
    2PC     H5B13076   5.054   2.888   1.753  1.4231  1.4003  1.4959
    2PC     H5C13077   4.981   2.782   1.878  0.9313 -0.4331  0.1763
    2PC     O3313078   4.357   2.784   2.044  0.0254  0.2927  0.1037
    2PC     O3413079   4.348   3.014   2.067  0.3543  0.7259  0.0074
    2PC     O2113080   4.279   2.991   2.533  0.1033  0.1489 -0.1395
    2PC     C2113081   4.151   3.031   2.534  0.1153  0.1892 -0.2265
    2PC     O2213082   4.056   2.975   2.482  0.0377  0.4438 -0.3610
    3OL     C1213083   4.124   3.156   2.614 -0.2517 -0.3570  0.5131
    3OL     H2R13084   4.033   3.196   2.568  0.1267 -1.6990 -1.4996
    3OL     H2S13085   4.201   3.226   2.582 -0.3242 -0.4353  0.1617
    3OL     C1313086   4.111   3.130   2.765 -0.0106  0.3314  0.6558
    3OL     H3R13087   4.109   3.228   2.812 -1.3385 -0.1238  1.6243
    3OL     H3S13088   4.204   3.085   2.799 -0.1175 -0.3758  0.0340
    3OL     C1413089   3.999   3.037   2.813 -0.2418  0.1875 -0.1511
    3OL     H4R13090   3.999   2.938   2.766 -1.0097 -0.1710  0.5761
    3OL     H4S13091   3.904   3.084   2.787 -0.0883 -0.1588 -1.4483
    3OL     C1513092   4.015   3.001   2.961 -0.2875  0.1308 -0.1593
    3OL     H5R13093   4.108   2.945   2.971 -1.3657 -1.7212  0.0562
    3OL     H5S13094   3.929   2.939   2.987 -3.1644  3.2448 -1.4462
    3OL     C1613095   4.007   3.123   3.054 -0.1745 -0.0450  0.0837
    3OL     H6R13096   3.909   3.170   3.063 -0.3375 -0.1369 -1.0131
    3OL     H6S13097   4.074   3.205   3.026 -1.3052  0.7787 -0.2761
    3OL     C1713098   4.054   3.089   3.196 -0.0494 -0.3268 -0.0253
    3OL     H7R13099   4.084   3.181   3.247 -2.3329  0.5294 -0.1278
    3OL     H7S13100   4.135   3.015   3.194  0.2131 -0.0456  0.0558
    3OL     C1813101   3.940   3.028   3.278  0.1768 -0.2882  0.3162
    3OL     H8R13102   3.909   2.935   3.232 -3.1009  0.9442 -0.2624
    3OL     H8S13103   3.852   3.093   3.270  1.5666  1.4440 -3.2178
    3OL     C1913104   3.989   3.007   3.420  0.5900 -0.1027  0.2036
    3OL     H9R13105   4.093   3.031   3.442  1.1221 -0.9655 -1.2383
    3OL    C11013106   3.905   2.976   3.517  0.0542  0.1788 -0.1633
    3OL    H10R13107   3.940   2.953   3.617  0.0396 -3.1990 -0.8082
    3OL    C11113108   3.767   2.921   3.492 -0.0248  0.1176  0.4036
    3OL    H11R13109   3.754   2.869   3.397 -1.8086  1.0731  0.0698
    3OL    H11S13110   3.692   2.999   3.505  0.1451  0.1495  1.2632
    3OL    C11213111   3.745   2.814   3.601  0.3811 -0.6496 -0.2561
    3OL    H12R13112   3.754   2.855   3.702 -1.0237 -0.5612 -0.1511
    3OL    H12S13113   3.825   2.741   3.589  2.8552  1.9307 -0.6800
    3OL    C11313114   3.604   2.756   3.587 -0.1139  0.5219 -0.2172
    3OL    H13R13115   3.607   2.667   3.650 -0.7586  0.7368  0.1308
    3OL    H13S13116   3.575   2.748   3.482  1.3931  2.2769 -0.8150
    3OL    C11413117   3.509   2.851   3.662 -0.3515 -0.2263  0.4412
    3OL    H14R13118   3.542   2.954   3.649  1.7940 -0.9357 -0.2138
    3OL    H14S13119   3.516   2.821   3.767  2.0904 -0.3423  0.3012
    3OL    C11513120   3.359   2.838   3.629 -0.2985  0.4119 -0.0819
    3OL    H15R13121   3.310   2.866   3.722  2.1322  0.7431  1.1981
    3OL    H15S13122   3.347   2.731   3.611  2.4466  0.3674 -2.3222
    3OL    C11613123   3.313   2.927   3.513  0.4211 -0.3586 -0.9807
    3OL    H16R13124   3.378   2.909   3.427  0.9915 -1.3056 -0.3722
    3OL    H16S13125   3.326   3.028   3.551 -0.0649 -0.5377 -0.2999
    3OL    C11713126   3.166   2.889   3.485  0.2645 -0.4945 -0.0259
    3OL    H17R13127   3.100   2.925   3.564  2.4655  0.4950  1.4850
    3OL    H17S13128   3.143   2.783   3.475 -0.9028 -0.1477 -1.3645
    3OL    C11813129   3.126   2.961   3.355 -0.2278  0.0130  0.4046
    3OL    H18R13130   3.047   2.903   3.308  0.6601 -1.1610  0.3195
    3OL    H18S13131   3.211   2.965   3.287 -0.2264 -1.9501  0.2573
    3OL    H18T13132   3.102   3.065   3.378  1.7505  1.1310 -2.0816
    1PA    C11613133   4.616   2.588   3.536  0.3121 -0.5505  0.4804
    1PA    H16R13134   4.652   2.524   3.617 -0.1285  2.2227  3.0432
    1PA    H16S13135   4.673   2.575   3.444 -0.0642  0.8789  0.0234
    1PA    H16T13136   4.515   2.563   3.502 -0.2430  3.4503 -1.3801
    1PA    C11513137   4.615   2.733   3.586 -0.3406 -0.3007 -0.2351
    1PA    H15R13138   4.567   2.739   3.684  0.8888  0.1746  0.3686
    1PA    H15S13139   4.718   2.769   3.597 -0.7345  1.3136 -1.4198
    1PA    C11413140   4.540   2.831   3.496  0.0574  0.3210  0.1034
    1PA    H14R13141   4.439   2.804   3.466  0.7688 -0.6914 -1.4990
    1PA    H14S13142   4.538   2.924   3.554  2.8723  0.6725 -0.2279
    1PA    C11313143   4.617   2.867   3.368 -0.4549  0.6090 -0.1291
    1PA    H13R13144   4.714   2.908   3.398 -1.0316  0.3528  2.2996
    1PA    H13S13145   4.644   2.773   3.319 -0.1623  0.1913  0.8200
    1PA    C11213146   4.527   2.941   3.268  0.3073  0.1350 -1.1880
    1PA    H12R13147   4.578   2.917   3.174  1.1538  0.5513 -0.8484
    1PA    H12S13148   4.428   2.898   3.253  0.4742 -1.2871  1.2622
    1PA    C11113149   4.534   3.094   3.277  0.3075  0.0857 -0.2465
    1PA    H11R13150   4.504   3.128   3.376  0.7067  3.0971 -1.0586
    1PA    H11S13151   4.633   3.135   3.255  0.1086  1.0042  0.5223
    1PA    C11013152   4.441   3.155   3.171  0.4179  0.2699 -0.2371
    1PA    H10R13153   4.494   3.148   3.076  4.9003 -0.1311  2.0282
    1PA    H10S13154   4.353   3.091   3.172 -0.4150  1.2953  2.3613
    1PA     C1913155   4.408   3.304   3.192  0.5951  0.2606  0.1221
    1PA     H9R13156   4.356   3.300   3.288  2.0724 -1.4583  0.9190
    1PA     H9S13157   4.499   3.363   3.198  0.2657  0.8547 -0.5066
    1PA     C1813158   4.322   3.359   3.077 -0.0497 -0.5347  0.2103
    1PA     H8R13159   4.277   3.269   3.033 -0.2949 -0.8434  1.0758
    1PA     H8S13160   4.254   3.438   3.108 -0.4030 -0.0227 -1.7173
    1PA     C1713161   4.417   3.426   2.976 -0.3006 -0.0751  0.2820
    1PA     H7R13162   4.506   3.481   3.008 -0.9727  1.0358  0.2930
    1PA     H7S13163   4.455   3.338   2.925  1.1403  1.4032 -1.3053
    1PA     C1613164   4.345   3.518   2.876 -0.0717  0.5702  0.7038
    1PA     H6R13165   4.272   3.456   2.824  1.2859  0.3564 -1.0020
    1PA     H6S13166   4.287   3.599   2.922 -2.8689 -0.1833 -1.2325
    1PA     C1513167   4.435   3.569   2.763 -0.0915 -0.3261  0.2800
    1PA     H5R13168   4.492   3.480   2.733  0.0334 -0.5455  1.1281
    1PA     H5S13169   4.371   3.611   2.686 -0.4818  1.0169  1.3012
    1PA     C1413170   4.527   3.681   2.813 -0.0459 -0.1201 -0.2690
    1PA     H4R13171   4.593   3.653   2.895  1.5772  0.7044 -1.2218
    1PA     H4S13172   4.596   3.704   2.731  0.7686  1.0409  0.7013
    1PA     C1313173   4.444   3.806   2.841  0.2389 -0.1250  0.6295
    1PA     H3R13174   4.394   3.797   2.938 -0.6971 -3.4431 -0.0447
    1PA     H3S13175   4.518   3.886   2.842 -0.9274  1.0105  2.1651
    1PA     C1213176   4.344   3.852   2.734  0.7898 -0.0771  0.1332
    1PA     H2R13177   4.242   3.813   2.726 -0.4580  2.9618 -0.7355
    1PA     H2S13178   4.303   3.951   2.758  0.1076 -0.6686  1.4710
    2PC     C1113179   4.403   3.867   2.596  0.1762  0.4245 -0.0845
    2PC     O1213180   4.520   3.851   2.567 -0.0462 -0.5523 -0.5055
    2PC     O1113181   4.308   3.882   2.502  0.2240 -0.2485 -0.2486
    2PC      C113182   4.340   3.858   2.364 -0.1038 -0.3710 -0.3019
    2PC      HR13183   4.276   3.921   2.301  0.0769 -1.6721 -1.8737
    2PC      HS13184   4.442   3.881   2.333 -0.4224  0.9118 -0.4311
    2PC      C213185   4.315   3.710   2.330 -0.1006 -0.3232 -0.5114
    2PC      HX13186   4.378   3.645   2.391  1.1446  1.1609 -0.1506
    2PC      C313187   4.357   3.690   2.184  0.2872 -0.1724 -0.4213
    2PC      HA13188   4.310   3.768   2.123 -1.6195 -1.0308 -0.1304
    2PC      HB13189   4.464   3.682   2.161  0.0601 -2.5110 -0.9328
    2PC     O3113190   4.302   3.569   2.128  0.0606 -0.3175  0.1181
    2PC     P3113191   4.313   3.535   1.972 -0.4020 -0.2494  0.0675
    2PC     O3213192   4.167   3.478   1.942 -0.6084  0.1620  0.2740
    2PC     C3113193   4.054   3.566   1.951 -0.2981  0.5927  0.0027
    2PC     H1A13194   4.038   3.608   2.051  1.2456  0.4512  0.3264
    2PC     H1B13195   4.076   3.648   1.882 -0.2080 -0.6957 -1.5680
    2PC     C3213196   3.938   3.485   1.891 -0.1807  0.3254  0.1335
    2PC     H2A13197   3.904   3.414   1.966  1.1243 -1.4468 -0.8975
    2PC     H2B13198   3.859   3.556   1.864 -0.6094 -0.2456 -0.1181
    2PC     N3113199   3.937   3.405   1.765  0.1661  0.1286  0.2553
    2PC     C3313200   3.799   3.348   1.754  0.0434  0.4245  0.2533
    2PC     H3A13201   3.733   3.435   1.756  1.5001  1.5598  0.0661
    2PC     H3B13202   3.791   3.286   1.665  0.3442  1.2671 -0.3769
    2PC     H3C13203   3.778   3.291   1.845 -1.9123  2.9923  1.5615
    2PC     C3413204   3.958   3.499   1.650  0.3055 -0.3294 -0.0970
    2PC     H4A13205   3.937   3.453   1.553  2.0522 -0.0408 -0.6475
    2PC     H4B13206   3.894   3.584   1.672  0.5635  0.4206 -2.0026
    2PC     H4C13207   4.064   3.526   1.660  0.0276  0.3771  1.1281
    2PC     C3513208   4.037   3.294   1.764  0.1633  0.1267 -0.4614
    2PC     H5A13209   4.139   3.325   1.789  0.4377 -1.1915  0.1814
    2PC     H5B13210   4.032   3.237   1.671  0.9223 -1.3746  0.3669
    2PC     H5C13211   3.995   3.228   1.840  0.3185 -1.5352 -1.7378
    2PC     O3313212   4.374   3.628   1.874 -0.5731 -0.1820  0.0259
    2PC     O3413213   4.425   3.438   1.967  0.2051  0.4553 -0.2563
    2PC     O2113214   4.176   3.681   2.355  0.0054 -0.2883  0.1301
    2PC     C2113215   4.134   3.554   2.369 -0.0819 -0.2673  0.0590
    2PC     O2213216   4.209   3.462   2.394 -0.1722 -0.6407 -0.9988
    3OL     C1213217   3.984   3.540   2.361 -0.0696 -0.3687  0.0072
    3OL     H2R13218   3.943   3.491   2.272  0.9296  0.2600 -0.8343
    3OL     H2S13219   3.941   3.640   2.361  1.4082  0.3311  2.0244
    3OL     C1313220   3.926   3.481   2.490 -0.3761 -0.0593  0.0115
    3OL     H3R13221   3.947   3.374   2.491  0.3367  0.0641 -0.3685
    3OL     H3S13222   3.819   3.501   2.489 -0.1090  1.5474  0.6438
    3OL     C1413223   3.977   3.557   2.613 -0.5847  0.3273 -0.1396
    3OL     H4R13224   3.949   3.662   2.602  0.7239  1.0118  2.3392
    3OL     H4S13225   4.086   3.551   2.620 -0.7226 -0.3770  2.1794
    3OL     C1513226   3.931   3.488   2.742  0.1119  0.0551 -0.0343
    3OL     H5R13227   3.965   3.384   2.749 -0.1494  0.0626  3.1799
    3OL     H5S13228   3.822   3.482   2.746  0.0999  0.1890 -0.1748
    3OL     C1613229   3.979   3.566   2.866 -0.1841  0.1161  0.0422
    3OL     H6R13230   3.924   3.660   2.875 -0.0268  0.2438 -0.3185
    3OL     H6S13231   4.082   3.599   2.853  0.1923 -1.1163 -0.2179
    3OL     C1713232   3.961   3.491   2.998 -0.6725 -0.2543 -0.2293
    3OL     H7R13233   4.030   3.407   3.008  0.1804  0.5015  0.4325
    3OL     H7S13234   3.860   3.452   3.013 -0.9879  1.3668  2.4168
    3OL     C1813235   4.008   3.589   3.107 -0.4452 -0.0715 -0.4903
    3OL     H8R13236   3.943   3.676   3.109 -1.1242 -0.5748  0.0463
    3OL     H8S13237   4.110   3.618   3.082 -0.8803  1.3706 -0.6517
    3OL     C1913238   4.014   3.524   3.243 -0.4419 -0.0012 -0.4570
    3OL     H9R13239   3.967   3.427   3.256 -2.4752  1.1811  1.9505
    3OL    C11013240   4.059   3.583   3.352  0.4433 -0.2455 -0.6846
    3OL    H10R13241   4.042   3.531   3.447 -0.9477  0.2112 -0.6639
    3OL    C11113242   4.107   3.725   3.364  0.2810 -0.2279 -0.2064
    3OL    H11R13243   4.018   3.780   3.394 -0.5078 -2.9297  3.0550
    3OL    H11S13244   4.140   3.762   3.267 -0.8298 -1.5914 -1.1385
    3OL    C11213245   4.206   3.731   3.481 -0.2429  0.5802  0.2102
    3OL    H12R13246   4.190   3.646   3.549 -0.3089  0.1644 -0.3210
    3OL    H12S13247   4.181   3.817   3.542  0.8457  1.3188 -0.3511
    3OL    C11313248   4.354   3.736   3.440 -0.3918 -0.1877 -0.4548
    3OL    H13R13249   4.390   3.730   3.543  1.9519  1.9199 -1.0548
    3OL    H13S13250   4.382   3.829   3.390 -1.2009 -0.8472 -2.2115
    3OL    C11413251   4.400   3.611   3.364 -0.2753 -0.6624  0.3859
    3OL    H14R13252   4.366   3.622   3.261 -1.1192 -2.4683  0.4176
    3OL    H14S13253   4.349   3.524   3.408  0.5308 -0.9588  0.7616
    3OL    C11513254   4.552   3.592   3.367 -0.2314 -0.2576  0.8018
    3OL    H15R13255   4.583   3.489   3.383  0.2490 -0.2903 -0.2957
    3OL    H15S13256   4.586   3.640   3.459  0.6997  0.5968  0.0438
    3OL    C11613257   4.633   3.654   3.253 -0.2479 -0.2896  0.7729
    3OL    H16R13258   4.614   3.602   3.159 -0.0302 -0.0698  0.6030
    3OL    H16S13259   4.740   3.644   3.274 -0.3061 -2.3002  0.3110
    3OL    C11713260   4.605   3.804   3.234  0.8031 -0.1337  0.3824
    3OL    H17R13261   4.609   3.865   3.325  1.9293  0.4881 -0.0655
    3OL    H17S13262   4.499   3.817   3.211  0.5264 -0.0701  1.6019
    3OL    C11813263   4.688   3.861   3.118 -0.2838 -0.1213 -0.4061
    3OL    H18R13264   4.791   3.862   3.156  0.0456  0.4521 -1.2788
    3OL    H18S13265   4.678   3.969   3.104  0.3127  0.0419  0.3780
    3OL    H18T13266   4.680   3.782   3.042  0.2496 -4.7966  3.8328
    1PA    C11613267   1.027   0.826   2.926 -0.2249  0.7518 -0.2148
    1PA    H16R13268   1.123   0.785   2.959 -0.2274  0.3561 -0.6840
    1PA    H16S13269   0.998   0.893   3.006  0.7592 -1.2165  1.9028
    1PA    H16T13270   1.045   0.882   2.834 -1.3276  0.7441 -0.4515
    1PA    C11513271   0.924   0.714   2.902 -0.1605  0.6723 -0.1239
    1PA    H15R13272   0.947   0.646   2.984  3.1210  0.7894 -0.8056
    1PA    H15S13273   0.826   0.758   2.920 -0.0445 -0.3630  3.9563
    1PA    C11413274   0.935   0.664   2.757 -0.3800  1.0816 -0.2859
    1PA    H14R13275   0.925   0.747   2.688  0.6812  0.0538 -1.7390
    1PA    H14S13276   1.032   0.625   2.725 -0.4009  0.3243  0.5185
    1PA    C11313277   0.822   0.565   2.724  0.6658 -0.3358  0.2553
    1PA    H13R13278   0.723   0.610   2.727 -0.0469 -1.8410  0.2224
    1PA    H13S13279   0.850   0.536   2.622  0.3512 -2.0252  0.6152
    1PA    C11213280   0.829   0.437   2.808  0.4592 -0.3626  0.2320
    1PA    H12R13281   0.926   0.387   2.796 -0.3186 -1.5091 -1.9870
    1PA    H12S13282   0.803   0.473   2.908 -1.2760  2.2364 -1.0374
    1PA    C11113283   0.717   0.338   2.774 -0.1842  0.2433  0.5488
    1PA    H11R13284   0.724   0.246   2.833 -0.9771 -1.0124 -1.2087
    1PA    H11S13285   0.626   0.388   2.804  0.4243  2.1920 -0.6584
    1PA    C11013286   0.707   0.293   2.627  0.0145  0.4482  0.4726
    1PA    H10R13287   0.684   0.382   2.567 -1.5186  0.1806  0.6306
    1PA    H10S13288   0.797   0.244   2.590  1.1406  0.8024  2.5627
    1PA     C1913289   0.596   0.192   2.597  0.3158  0.2487  0.0030
    1PA     H9R13290   0.491   0.223   2.608  0.4383 -0.2151  5.9243
    1PA     H9S13291   0.612   0.169   2.492 -0.3621  0.1061 -0.0766
    1PA     C1813292   0.608   0.069   2.688 -0.4338 -0.1335 -0.4003
    1PA     H8R13293   0.713   0.051   2.713 -0.7735  1.5862  3.0260
    1PA     H8S13294   0.556   0.094   2.781 -0.0704  0.4639 -0.3494
    1PA     C1713295   0.541  -0.043   2.608 -1.0441 -0.1420  0.1117
    1PA     H7R13296   0.445  -0.016   2.564 -1.6842  2.0544  2.6298
    1PA     H7S13297   0.609  -0.088   2.535 -2.0615 -0.0279 -0.9342
    1PA     C1613298   0.513  -0.162   2.701  0.1459 -0.2779  0.3095
    1PA     H6R13299   0.596  -0.184   2.769  0.5343  0.1881 -0.0046
    1PA     H6S13300   0.431  -0.133   2.766 -1.5199 -1.8982 -0.9811
    1PA     C1513301   0.477  -0.287   2.620  0.1714 -0.0949  0.0142
    1PA     H5R13302   0.382  -0.274   2.567 -0.2456 -2.0384  0.1952
    1PA     H5S13303   0.551  -0.311   2.543  0.3166  1.4983 -0.3776
    1PA     C1413304   0.454  -0.406   2.714  0.4957 -0.4551 -0.3584
    1PA     H4R13305   0.549  -0.458   2.725 -0.1960 -2.2353 -2.1515
    1PA     H4S13306   0.412  -0.362   2.804  2.1715 -1.3126  0.8908
    1PA     C1313307   0.350  -0.503   2.656 -0.1335  0.2774 -0.4639
    1PA     H3R13308   0.348  -0.591   2.720  0.9069  1.4259  1.2078
    1PA     H3S13309   0.254  -0.449   2.655 -1.0416 -1.2035  1.5097
    1PA     C1213310   0.391  -0.543   2.514  0.1173 -0.2212 -0.2509
    1PA     H2R13311   0.421  -0.463   2.446 -2.1644  1.7907  0.9903
    1PA     H2S13312   0.481  -0.605   2.525  0.5219  0.6589  1.8393
    2PC     C1113313   0.293  -0.629   2.439  0.0391 -0.4161  0.0753
    2PC     O1213314   0.179  -0.647   2.475  0.1585 -0.3043  0.5069
    2PC     O1113315   0.342  -0.690   2.329  0.2326 -0.2843  0.0879
    2PC      C113316   0.246  -0.735   2.232 -0.4257 -0.0569  0.6228
    2PC      HR13317   0.304  -0.792   2.158 -1.2392 -0.8854  0.6033
    2PC      HS13318   0.173  -0.808   2.270  0.9397 -1.5171  0.5664
    2PC      C213319   0.195  -0.612   2.156  0.1454 -0.1517  0.0754
    2PC      HX13320   0.149  -0.637   2.061  0.9059  3.0210 -1.2491
    2PC      C313321   0.303  -0.507   2.124 -0.1943  0.1658 -0.0370
    2PC      HA13322   0.260  -0.413   2.158 -0.8879 -0.3864  0.6491
    2PC      HB13323   0.400  -0.513   2.173 -0.8070  1.0234  1.3187
    2PC     O3113324   0.336  -0.504   1.984  0.2355  0.0860  0.0628
    2PC     P3113325   0.436  -0.392   1.928  0.0878  0.1733 -0.0265
    2PC     O3213326   0.381  -0.360   1.781 -0.1819  0.2471  0.0894
    2PC     C3113327   0.459  -0.394   1.665 -0.2953 -0.1078  0.1146
    2PC     H1A13328   0.538  -0.319   1.652  0.5572 -0.8845  0.6839
    2PC     H1B13329   0.496  -0.496   1.676 -2.5315 -0.7074  3.4105
    2PC     C3213330   0.365  -0.375   1.545 -0.1119 -0.6222 -0.1122
    2PC     H2A13331   0.285  -0.449   1.558  0.8858 -1.5712  0.8513
    2PC     H2B13332   0.334  -0.271   1.552  0.5636 -0.5234  2.2137
    2PC     N3113333   0.422  -0.410   1.411 -0.0018 -0.0125 -0.2252
    2PC     C3313334   0.328  -0.365   1.303  0.2998  0.3422 -0.3442
    2PC     H3A13335   0.388  -0.365   1.212 -0.0753 -0.0179 -0.5959
    2PC     H3B13336   0.253  -0.443   1.287  0.0098  0.8611 -1.6509
    2PC     H3C13337   0.278  -0.270   1.322 -0.6968 -0.3921  0.8151
    2PC     C3413338   0.554  -0.342   1.391  0.0306 -0.1071 -0.3341
    2PC     H4A13339   0.579  -0.359   1.286  1.4274 -1.1908  0.1291
    2PC     H4B13340   0.544  -0.239   1.424 -1.8146 -0.1498 -0.6630
    2PC     H4C13341   0.635  -0.386   1.450  0.9044  0.8014 -0.8305
    2PC     C3513342   0.447  -0.557   1.396 -0.1508 -0.0421 -0.1803
    2PC     H5A13343   0.366  -0.612   1.445 -1.4544  1.2924 -0.7606
    2PC     H5B13344   0.535  -0.592   1.449 -0.2581  1.5563  1.1584
    2PC     H5C13345   0.449  -0.580   1.289 -2.6615  2.2523 -0.8354
    2PC     O3313346   0.418  -0.273   2.015  0.4330 -0.0079  0.2946
    2PC     O3413347   0.578  -0.429   1.948 -0.0760 -0.3513  0.1790
    2PC     O2113348   0.095  -0.537   2.229  0.4328  0.6065 -0.2973
    2PC     C2113349  -0.026  -0.591   2.248  0.4881  0.5134 -0.2020
    2PC     O2213350  -0.067  -0.678   2.175 -0.1352  0.4624  0.1965
    3OL     C1213351  -0.100  -0.527   2.363  0.3563 -0.2015  0.1140
    3OL     H2R13352  -0.060  -0.426   2.371 -2.7978  1.1919 -0.0353
    3OL     H2S13353  -0.085  -0.596   2.446  0.6994 -2.5153 -1.7675
    3OL     C1313354  -0.252  -0.516   2.348  0.4525  0.1863 -0.6067
    3OL     H3R13355  -0.304  -0.603   2.305  2.2002 -0.6874 -1.0394
    3OL     H3S13356  -0.274  -0.435   2.278  2.0960  1.4632  0.2768
    3OL     C1413357  -0.313  -0.484   2.485 -0.4540 -0.1859 -0.9082
    3OL     H4R13358  -0.271  -0.534   2.573 -0.1615  0.3762 -0.7219
    3OL     H4S13359  -0.418  -0.512   2.475 -0.7244 -0.4330  1.8488
    3OL     C1513360  -0.314  -0.333   2.516 -0.9747 -0.2587 -0.5684
    3OL     H5R13361  -0.377  -0.278   2.447 -1.1270 -0.6839 -0.7749
    3OL     H5S13362  -0.214  -0.291   2.508 -1.2135  0.2173 -1.0616
    3OL     C1613363  -0.366  -0.319   2.660  0.0664 -0.1781 -0.1959
    3OL     H6R13364  -0.282  -0.326   2.730  0.6988 -1.7871 -1.0641
    3OL     H6S13365  -0.442  -0.392   2.685 -0.9732  0.5703 -1.0961
    3OL     C1713366  -0.418  -0.178   2.691  0.9183  0.0771  0.1268
    3OL     H7R13367  -0.505  -0.164   2.626 -0.0412 -2.1629  0.8303
    3OL     H7S13368  -0.345  -0.104   2.656  1.4933 -1.0669 -1.1689
    3OL     C1813369  -0.458  -0.152   2.837 -0.0079 -0.6443  0.0149
    3OL     H8R13370  -0.488  -0.047   2.844 -2.6260 -1.3469  0.4572
    3OL     H8S13371  -0.361  -0.175   2.882 -0.5434 -1.2566  0.8796
    3OL     C1913372  -0.573  -0.238   2.883 -0.1175 -0.5600 -0.0966
    3OL     H9R13373  -0.658  -0.239   2.816 -0.2353  1.6933 -0.0586
    3OL    C11013374  -0.557  -0.319   2.987  0.0868  0.0414  0.3520
    3OL    H10R13375  -0.634  -0.395   2.998  1.1244 -1.2022 -0.7360
    3OL    C11113376  -0.445  -0.328   3.087  0.6671  0.1994 -0.2771
    3OL    H11R13377  -0.495  -0.310   3.182  0.4222 -0.4249 -0.2830
    3OL    H11S13378  -0.362  -0.259   3.071  0.1092  0.9906  0.1671
    3OL    C11213379  -0.393  -0.471   3.101  0.2289  0.0316 -0.3552
    3OL    H12R13380  -0.326  -0.498   3.018  1.3816 -0.7755  0.7972
    3OL    H12S13381  -0.478  -0.537   3.120  0.1417  0.5748  1.2666
    3OL    C11313382  -0.311  -0.491   3.229 -0.3847 -0.5140 -0.0424
    3OL    H13R13383  -0.311  -0.598   3.253  0.7252 -0.8582 -1.4386
    3OL    H13S13384  -0.357  -0.448   3.318  0.8452  0.2974  0.2275
    3OL    C11413385  -0.168  -0.435   3.224 -0.6241  0.0585 -0.4886
    3OL    H14R13386  -0.167  -0.327   3.202  0.4685 -0.1335 -1.5237
    3OL    H14S13387  -0.124  -0.488   3.139  0.7300 -0.2450  0.3843
    3OL    C11513388  -0.106  -0.448   3.363 -0.1533  0.5003 -0.6510
    3OL    H15R13389  -0.095  -0.555   3.385 -0.2789  0.2574 -1.7103
    3OL    H15S13390  -0.169  -0.390   3.431  1.0520  2.3633 -1.0738
    3OL    C11613391   0.033  -0.389   3.389  0.4889 -1.1947 -0.1196
    3OL    H16R13392   0.011  -0.283   3.397 -3.3941 -1.9782  2.2194
    3OL    H16S13393   0.099  -0.401   3.303 -0.8556 -0.6440 -1.2681
    3OL    C11713394   0.093  -0.430   3.525  0.4278  0.2202  0.3432
    3OL    H17R13395   0.104  -0.538   3.525  0.1510  0.1852 -0.2758
    3OL    H17S13396   0.026  -0.401   3.606 -0.8102  0.7874 -0.8354
    3OL    C11813397   0.231  -0.368   3.551  0.6246  0.1127 -0.4006
    3OL    H18R13398   0.248  -0.357   3.659  1.8455  0.4883 -0.6093
    3OL    H18S13399   0.242  -0.276   3.494  1.0603 -0.8875 -2.0050
    3OL    H18T13400   0.314  -0.429   3.515  0.9421 -0.6964  1.5422
    1PA    C11613401   5.133   5.174   3.343 -0.0223  0.3698 -0.4304
    1PA    H16R13402   5.204   5.208   3.268  0.5792 -2.2805 -1.1830
    1PA    H16S13403   5.077   5.261   3.377  3.0890  1.6027  1.9631
    1PA    H16T13404   5.077   5.096   3.290  0.7178 -0.8577  0.5457
    1PA    C11513405   5.194   5.094   3.459  0.0158  0.5052 -0.3576
    1PA    H15R13406   5.263   5.159   3.513  0.6438  0.4209 -1.0344
    1PA    H15S13407   5.114   5.065   3.527  1.0600  1.1315  1.1880
    1PA    C11413408   5.276   4.978   3.402 -0.0258 -0.2409  1.0610
    1PA    H14R13409   5.342   5.008   3.320 -0.7776 -2.6545 -0.5484
    1PA    H14S13410   5.344   4.943   3.480 -0.0706  0.0307  1.2207
    1PA    C11313411   5.199   4.849   3.369 -0.4137  0.2318  0.0699
    1PA    H13R13412   5.173   4.809   3.467  0.0186  0.5809  0.3314
    1PA    H13S13413   5.101   4.868   3.326 -0.2301 -0.9955 -0.9422
    1PA    C11213414   5.292   4.746   3.304 -0.0872  0.0382  0.8288
    1PA    H12R13415   5.336   4.774   3.208 -0.3796 -2.5135 -0.1411
    1PA    H12S13416   5.380   4.720   3.363  1.6084 -0.9919 -1.9094
    1PA    C11113417   5.229   4.610   3.271 -0.1642  0.3869 -0.5533
    1PA    H11R13418   5.311   4.551   3.229  0.0213 -1.2125  1.8122
    1PA    H11S13419   5.197   4.550   3.357  0.2392 -0.5521 -1.0349
    1PA    C11013420   5.124   4.607   3.159 -0.3687 -0.0375 -0.3555
    1PA    H10R13421   5.045   4.668   3.203 -0.4954  0.2955 -1.0331
    1PA    H10S13422   5.159   4.656   3.068 -1.9743 -1.0763 -1.5788
    1PA     C1913423   5.072   4.467   3.125  0.1989 -0.4596  0.4711
    1PA     H9R13424   5.065   4.412   3.219  0.1983 -1.9255 -0.3453
    1PA     H9S13425   4.976   4.463   3.072 -1.1104 -0.3736  2.7170
    1PA     C1813426   5.165   4.386   3.034  0.2175  0.3269 -0.2212
    1PA     H8R13427   5.267   4.385   3.073  0.3173  3.3484 -0.1475
    1PA     H8S13428   5.133   4.282   3.048  1.2244  0.2811  2.3471
    1PA     C1713429   5.167   4.413   2.883 -0.0021 -0.3087 -0.3394
    1PA     H7R13430   5.065   4.421   2.844 -1.1915  1.0765  2.7710
    1PA     H7S13431   5.211   4.512   2.873  0.1208 -0.2654  0.5820
    1PA     C1613432   5.251   4.304   2.815  0.0918 -0.1951 -0.4051
    1PA     H6R13433   5.357   4.312   2.836 -0.4156  0.4923  2.2404
    1PA     H6S13434   5.212   4.206   2.841 -0.3029 -0.2803 -1.2643
    1PA     C1513435   5.246   4.307   2.661  0.2193 -0.0402 -0.4066
    1PA     H5R13436   5.308   4.226   2.623  1.8236 -0.1105  2.1088
    1PA     H5S13437   5.145   4.274   2.636  0.3831 -2.0069  1.2653
    1PA     C1413438   5.292   4.443   2.607  0.1613  0.1518  0.0236
    1PA     H4R13439   5.230   4.523   2.650 -2.4607 -1.2693 -0.9053
    1PA     H4S13440   5.397   4.453   2.637  0.4154 -1.2040 -0.3505
    1PA     C1313441   5.278   4.446   2.454 -0.3902 -0.9428  0.0463
    1PA     H3R13442   5.336   4.533   2.423  0.5504 -1.7607 -0.5332
    1PA     H3S13443   5.327   4.356   2.418  3.1152  0.4929  0.8334
    1PA     C1213444   5.134   4.487   2.421 -0.0974 -0.0408 -0.1196
    1PA     H2R13445   5.063   4.418   2.467  2.2281 -1.1204  2.0691
    1PA     H2S13446   5.128   4.586   2.468 -3.0733 -0.5864  0.8453
    2PC     C1113447   5.120   4.495   2.271  0.1545  0.1981 -0.1314
    2PC     O1213448   5.120   4.396   2.201 -0.2393 -0.1219  0.3151
    2PC     O1113449   5.119   4.621   2.225  0.6911  0.2780  0.0637
    2PC      C113450   5.097   4.652   2.086  0.0561 -0.4490 -0.0074
    2PC      HR13451   5.126   4.756   2.065  0.2941 -0.7019 -0.9894
    2PC      HS13452   5.170   4.585   2.039  2.0286 -0.1309  2.3741
    2PC      C213453   4.949   4.637   2.052  0.0079  0.7627 -0.3996
    2PC      HX13454   4.921   4.532   2.067  1.2112  0.7363  2.1841
    2PC      C313455   4.902   4.673   1.910  0.3020 -0.4115 -0.8093
    2PC      HA13456   4.953   4.764   1.878 -1.5165  1.9509  2.3984
    2PC      HB13457   4.919   4.594   1.836  1.4886 -0.4727 -0.4873
    2PC     O3113458   4.760   4.692   1.919  0.4128  0.0932 -0.0167
    2PC     P3113459   4.667   4.681   1.789 -0.0905  0.5978  0.2920
    2PC     O3213460   4.701   4.811   1.702  0.5191  0.2345 -0.0227
    2PC     C3113461   4.655   4.816   1.566  0.1767  0.0913  0.0874
    2PC     H1A13462   4.723   4.763   1.499 -0.5335 -1.9058  0.8467
    2PC     H1B13463   4.556   4.768   1.565  0.9354 -1.6742  1.9606
    2PC     C3213464   4.616   4.956   1.518 -0.6051 -0.1514 -0.0005
    2PC     H2A13465   4.563   4.946   1.423 -0.0999 -0.4012 -0.2552
    2PC     H2B13466   4.557   5.017   1.588 -0.6282  0.0682 -0.2107
    2PC     N3113467   4.733   5.037   1.470 -0.1812 -0.6516  0.1852
    2PC     C3313468   4.859   5.016   1.549  0.0175 -0.0900  0.0166
    2PC     H3A13469   4.845   5.076   1.640  3.9978 -0.6854  1.1934
    2PC     H3B13470   4.873   4.910   1.568  1.6143 -0.1577 -1.3143
    2PC     H3C13471   4.934   5.073   1.494  1.6927 -0.2794  2.0181
    2PC     C3413472   4.768   5.014   1.326  0.5613  0.1993  0.2234
    2PC     H4A13473   4.757   4.906   1.315 -2.8680  0.1087  2.6930
    2PC     H4B13474   4.707   5.073   1.258 -1.8106  1.3244  3.1044
    2PC     H4C13475   4.871   5.033   1.296  0.1702 -0.8787 -1.9733
    2PC     C3513476   4.705   5.183   1.484  0.1464 -0.4508 -1.1335
    2PC     H5A13477   4.799   5.237   1.481  0.1308 -0.1550  1.5778
    2PC     H5B13478   4.665   5.194   1.585  1.4466  1.3751 -0.7627
    2PC     H5C13479   4.631   5.220   1.412  2.2939  2.8629 -1.8418
    2PC     O3313480   4.676   4.558   1.706  0.7501  0.0904  1.1156
    2PC     O3413481   4.524   4.670   1.824 -0.1581  0.3934 -0.0412
    2PC     O2113482   4.866   4.701   2.151 -0.1219  0.0932 -0.0695
    2PC     C2113483   4.856   4.834   2.158 -0.3777  0.0827 -0.2042
    2PC     O2213484   4.913   4.913   2.086 -0.3381 -0.0317 -0.2964
    3OL     C1213485   4.750   4.857   2.264 -0.1922  0.2184 -0.0484
    3OL     H2R13486   4.785   4.828   2.364  1.2788 -0.7431 -0.7960
    3OL     H2S13487   4.671   4.789   2.234 -0.0111  0.0712 -0.1952
    3OL     C1313488   4.697   5.001   2.257  0.3265  0.3944 -0.4458
    3OL     H3R13489   4.650   5.030   2.163  1.2196  0.4420 -0.8898
    3OL     H3S13490   4.787   5.062   2.249  0.3917  0.3564  0.0125
    3OL     C1413491   4.602   5.046   2.369  0.7745 -0.0246  0.1061
    3OL     H4R13492   4.650   5.043   2.467 -2.2933 -2.0861  1.6883
    3OL     H4S13493   4.509   4.989   2.375 -0.3378  1.6832 -0.3040
    3OL     C1513494   4.560   5.189   2.331  0.5434 -0.1663 -0.1825
    3OL     H5R13495   4.472   5.180   2.268 -1.4810  0.2404  2.4259
    3OL     H5S13496   4.637   5.233   2.268 -0.6838  1.2002 -0.7540
    3OL     C1613497   4.525   5.279   2.450 -0.0520 -0.3864 -0.1878
    3OL     H6R13498   4.477   5.371   2.414 -1.6210 -0.7086  0.9779
    3OL     H6S13499   4.617   5.300   2.505  0.5961 -1.3349 -0.8778
    3OL     C1713500   4.437   5.217   2.558  0.1364  0.2791  0.3579
    3OL     H7R13501   4.497   5.137   2.603  0.5353 -0.0379 -0.7139
    3OL     H7S13502   4.348   5.177   2.509 -0.5549  2.9880 -0.7797
    3OL     C1813503   4.389   5.321   2.660 -0.4001  0.0899  0.3049
    3OL     H8R13504   4.339   5.408   2.618 -0.6540 -0.8474 -1.4197
    3OL     H8S13505   4.474   5.356   2.719 -0.4062  0.2203  0.2373
    3OL     C1913506   4.305   5.254   2.766 -0.6300  0.2224  0.2067
    3OL     H9R13507   4.197   5.259   2.757 -0.6037  1.4499  0.3945
    3OL    C11013508   4.352   5.200   2.877  0.0815 -0.4247 -0.3968
    3OL    H10R13509   4.274   5.171   2.947  0.6730 -0.8133  0.1151
    3OL    C11113510   4.492   5.190   2.934 -0.0895  0.0348  0.1145
    3OL    H11R13511   4.565   5.215   2.856 -0.4594 -3.1663 -1.4042
    3OL    H11S13512   4.513   5.088   2.966 -0.0665 -0.0047 -0.0249
    3OL    C11213513   4.492   5.297   3.044  0.0727 -0.7939  0.9250
    3OL    H12R13514   4.436   5.253   3.127 -2.4284 -0.3708 -0.4541
    3OL    H12S13515   4.438   5.384   3.006 -4.0001 -3.9639 -1.3563
    3OL    C11313516   4.639   5.329   3.074 -0.0191 -0.2494  0.8080
    3OL    H13R13517   4.697   5.354   2.985  0.4446 -1.0964  0.8637
    3OL    H13S13518   4.680   5.241   3.125  1.4541  0.8549  1.6407
    3OL    C11413519   4.646   5.435   3.185 -0.2446  0.0235  0.5614
    3OL    H14R13520   4.588   5.400   3.270  0.2756 -0.0294  0.8968
    3OL    H14S13521   4.601   5.523   3.139  0.2947  1.1748  2.1624
    3OL    C11513522   4.791   5.459   3.231 -0.0877 -0.1326  0.1551
    3OL    H15R13523   4.851   5.471   3.140  1.2294 -0.8727  0.8946
    3OL    H15S13524   4.821   5.369   3.285 -0.8413  0.2193  1.1987
    3OL    C11613525   4.805   5.586   3.316 -0.1266 -0.1711  0.2180
    3OL    H16R13526   4.746   5.667   3.274 -0.2764 -0.4417 -0.1016
    3OL    H16S13527   4.905   5.628   3.323 -0.6650  1.2388 -0.3313
    3OL    C11713528   4.754   5.570   3.460  0.2147  0.1608  0.3763
    3OL    H17R13529   4.657   5.520   3.455  0.4605 -0.1786 -1.6697
    3OL    H17S13530   4.734   5.665   3.509  1.1413  0.9337 -0.6874
    3OL    C11813531   4.859   5.487   3.536  0.0020 -0.8349 -0.3946
    3OL    H18R13532   4.843   5.490   3.644  0.8585  2.3102 -0.2680
    3OL    H18S13533   4.949   5.548   3.524 -1.2837  1.4737  0.8789
    3OL    H18T13534   4.879   5.385   3.503  0.4316 -0.8889  0.0251
    1PA    C11613535   0.522   2.747   4.151 -0.0022  0.0073  0.9438
    1PA    H16R13536   0.441   2.804   4.196 -0.7988  1.3405 -1.9260
    1PA    H16S13537   0.570   2.822   4.087 -2.0740  0.0315 -0.6637
    1PA    H16T13538   0.595   2.711   4.224  0.4790 -2.7249 -0.7334
    1PA    C11513539   0.465   2.631   4.069 -0.4145  0.5933  0.3948
    1PA    H15R13540   0.413   2.566   4.140  1.1324  0.2881  1.2986
    1PA    H15S13541   0.385   2.663   4.002 -0.4002 -0.4235 -0.1183
    1PA    C11413542   0.571   2.539   4.006 -0.4442  0.3942  0.6368
    1PA    H14R13543   0.634   2.494   4.082  4.4969  1.9970 -2.0713
    1PA    H14S13544   0.515   2.462   3.953 -1.7083 -0.8386  3.5295
    1PA    C11313545   0.677   2.610   3.922 -0.2614 -0.0173  0.5165
    1PA    H13R13546   0.715   2.696   3.979  1.4288  1.3167 -2.3695
    1PA    H13S13547   0.758   2.541   3.899 -1.7117 -1.2447 -1.2637
    1PA    C11213548   0.616   2.659   3.789 -0.3923 -0.7008  0.3216
    1PA    H12R13549   0.516   2.703   3.785  0.9391  2.4809 -1.4177
    1PA    H12S13550   0.686   2.731   3.747 -1.8338 -0.9213 -2.6904
    1PA    C11113551   0.613   2.548   3.683 -0.4543  0.1286 -0.5509
    1PA    H11R13552   0.711   2.500   3.672  0.1473  0.6348  1.9274
    1PA    H11S13553   0.543   2.467   3.704  0.3352 -0.5099 -0.3261
    1PA    C11013554   0.565   2.609   3.551 -0.0365  0.8425 -0.3806
    1PA    H10R13555   0.457   2.624   3.549 -0.1985 -0.1066  0.7875
    1PA    H10S13556   0.607   2.705   3.520  1.8107 -0.0292 -0.6746
    1PA     C1913557   0.601   2.518   3.433  0.2272  0.0081  0.3333
    1PA     H9R13558   0.708   2.500   3.445  0.1084  0.9483  3.4946
    1PA     H9S13559   0.552   2.421   3.435 -0.5490  0.2656 -2.3261
    1PA     C1813560   0.573   2.563   3.289  0.1270 -0.0099  0.3473
    1PA     H8R13561   0.477   2.607   3.260 -0.0425 -1.9335 -2.3787
    1PA     H8S13562   0.641   2.649   3.285  2.2616 -1.3801  3.4759
    1PA     C1713563   0.613   2.458   3.185 -0.5541  0.2564 -0.1945
    1PA     H7R13564   0.720   2.438   3.189 -0.6485 -0.1514  0.2582
    1PA     H7S13565   0.555   2.370   3.210 -0.4850 -0.4526 -2.2983
    1PA     C1613566   0.580   2.492   3.039  0.1593 -0.0709 -0.4358
    1PA     H6R13567   0.471   2.491   3.033  0.0087  1.0621  1.5151
    1PA     H6S13568   0.606   2.594   3.008  0.3221 -0.1940 -0.7086
    1PA     C1513569   0.648   2.384   2.953 -0.4031 -0.8696  0.1198
    1PA     H5R13570   0.756   2.399   2.943 -0.6005 -0.0412 -0.9524
    1PA     H5S13571   0.620   2.284   2.988 -1.1085  0.0435  2.3905
    1PA     C1413572   0.594   2.405   2.811  0.2032  0.7606  0.1120
    1PA     H4R13573   0.488   2.376   2.812 -0.2277  2.2451  0.1513
    1PA     H4S13574   0.598   2.508   2.774  2.4438  0.4717 -0.5545
    1PA     C1313575   0.657   2.313   2.706 -0.4814  0.2732  0.1189
    1PA     H3R13576   0.659   2.208   2.734  3.0197 -0.1622 -1.2676
    1PA     H3S13577   0.593   2.330   2.619  0.3606  1.0504 -0.3755
    1PA     C1213578   0.801   2.349   2.665 -0.4881 -0.1177 -0.2574
    1PA     H2R13579   0.813   2.453   2.634 -0.6925 -0.0322 -0.0606
    1PA     H2S13580   0.867   2.333   2.751 -0.6481 -2.9258 -0.5579
    2PC     C1113581   0.847   2.260   2.553  0.0006 -0.5940  0.3106
    2PC     O1213582   0.786   2.250   2.448  0.2869  0.6295  0.0122
    2PC     O1113583   0.970   2.213   2.579  0.3690  0.0625 -0.2063
    2PC      C113584   1.040   2.144   2.473 -0.0146 -0.0623 -0.3797
    2PC      HR13585   1.138   2.111   2.507  0.7891 -0.6909 -3.0880
    2PC      HS13586   0.991   2.050   2.446  0.2755 -1.1533  2.5233
    2PC      C213587   1.086   2.240   2.362 -0.0112  0.1153 -0.2259
    2PC      HX13588   0.996   2.273   2.310 -0.9848 -0.0916  1.2527
    2PC      C313589   1.177   2.163   2.266  0.5721  0.2003  0.2515
    2PC      HA13590   1.276   2.147   2.311  0.5414 -1.8918 -0.2872
    2PC      HB13591   1.134   2.062   2.259  0.3108  0.3744 -0.9487
    2PC     O3113592   1.179   2.232   2.140 -0.1420  0.4019  0.3461
    2PC     P3113593   1.066   2.196   2.032  0.0262  0.0935  0.2707
    2PC     O3213594   1.061   2.332   1.947  0.2614 -0.2858 -0.3540
    2PC     C3113595   0.930   2.383   1.917  0.1291  0.0712  0.7758
    2PC     H1A13596   0.872   2.318   1.850 -2.8060  3.0403  0.1527
    2PC     H1B13597   0.876   2.390   2.011 -0.7721 -0.5433  0.3254
    2PC     C3213598   0.948   2.517   1.844  0.7224 -0.2039  0.4142
    2PC     H2A13599   0.862   2.579   1.870  0.0523 -0.5161 -0.9681
    2PC     H2B13600   1.039   2.567   1.877  1.1600 -1.4117  1.0796
    2PC     N3113601   0.971   2.507   1.696 -0.1850 -0.0347  0.2545
    2PC     C3313602   1.022   2.639   1.647 -0.1663  0.1723  0.8325
    2PC     H3A13603   1.064   2.621   1.548  0.4030  0.8238  0.9446
    2PC     H3B13604   0.944   2.715   1.641 -0.2252 -0.0081 -3.2154
    2PC     H3C13605   1.097   2.678   1.716  1.6290  0.7948 -1.3655
    2PC     C3413606   1.068   2.396   1.664 -0.3979 -0.2738  0.4327
    2PC     H4A13607   1.160   2.414   1.720 -0.6330  0.4440  0.6042
    2PC     H4B13608   1.017   2.303   1.688 -2.1536  1.0668  2.3281
    2PC     H4C13609   1.089   2.397   1.557  2.3186 -0.8925  0.9049
    2PC     C3513610   0.844   2.474   1.623 -0.0750 -0.1657  0.1201
    2PC     H5A13611   0.821   2.369   1.638  3.1311 -1.3380 -2.0130
    2PC     H5B13612   0.871   2.482   1.518  2.8918  3.3997  0.9102
    2PC     H5C13613   0.771   2.552   1.646 -1.1172 -0.2666 -2.4900
    2PC     O3313614   1.097   2.083   1.942 -0.3345  0.1006  0.1361
    2PC     O3413615   0.939   2.164   2.100 -0.3962  0.3926 -0.3719
    2PC     O2113616   1.163   2.347   2.420  0.1784  0.1293 -0.5045
    2PC     C2113617   1.105   2.468   2.424  0.1249  0.0980 -0.3266
    2PC     O2213618   1.004   2.487   2.361  0.1073 -0.4692 -0.4782
    3OL     C1213619   1.179   2.572   2.504  0.2473 -0.1831 -0.0704
    3OL     H2R13620   1.226   2.646   2.440  0.6845 -0.3716  0.0316
    3OL     H2S13621   1.267   2.524   2.547  0.9864  0.6186 -0.6348
    3OL     C1313622   1.102   2.639   2.620  0.5731  0.0805 -0.0045
    3OL     H3R13623   1.081   2.554   2.686 -2.7763 -0.3361 -1.4090
    3OL     H3S13624   1.004   2.678   2.595  0.9108  0.1621 -1.2981
    3OL     C1413625   1.191   2.735   2.701  0.7823  0.2655 -0.4493
    3OL     H4R13626   1.231   2.814   2.638  1.1838  0.7670  0.4277
    3OL     H4S13627   1.279   2.680   2.735  0.1298 -1.3168 -1.1858
    3OL     C1513628   1.122   2.780   2.830  0.6899  0.7591 -0.6701
    3OL     H5R13629   1.120   2.701   2.905  0.6162  1.2765 -0.1204
    3OL     H5S13630   1.019   2.813   2.821  1.1058  2.0527 -0.9035
    3OL     C1613631   1.210   2.886   2.900  0.6034  0.3814  0.0190
    3OL     H6R13632   1.225   2.971   2.834 -0.5526  1.5539  1.2086
    3OL     H6S13633   1.306   2.838   2.919  1.0220  1.5996  1.0745
    3OL     C1713634   1.153   2.929   3.035 -0.5238 -0.3161 -0.2194
    3OL     H7R13635   1.049   2.897   3.024 -0.0545 -1.2973 -2.2388
    3OL     H7S13636   1.158   3.038   3.036 -0.7070 -0.2713 -2.0041
    3OL     C1813637   1.229   2.878   3.158 -0.3825 -0.7198 -0.4726
    3OL     H8R13638   1.165   2.898   3.245  0.0803  0.7846 -0.4542
    3OL     H8S13639   1.319   2.934   3.183  1.7318 -2.6010 -3.2696
    3OL     C1913640   1.255   2.729   3.159  0.5512 -0.5637 -0.5166
    3OL     H9R13641   1.339   2.701   3.096  1.2617  2.0691 -0.8883
    3OL    C11013642   1.199   2.637   3.236  0.1798  0.1228  0.0523
    3OL    H10R13643   1.224   2.533   3.214  0.0212  0.0795  0.0736
    3OL    C11113644   1.094   2.654   3.343  0.1994 -0.0671  0.1023
    3OL    H11R13645   0.994   2.614   3.328  0.9384 -1.9814 -0.0670
    3OL    H11S13646   1.082   2.761   3.360  0.4884  0.1144 -0.7769
    3OL    C11213647   1.155   2.582   3.465  0.1566 -0.5143 -0.1388
    3OL    H12R13648   1.261   2.609   3.466 -0.1076  0.5709  0.9888
    3OL    H12S13649   1.141   2.474   3.462 -1.5087 -0.3620  0.8473
    3OL    C11313650   1.103   2.637   3.598  0.6005 -0.7778  0.1464
    3OL    H13R13651   1.000   2.600   3.596  0.7818 -1.3210 -2.3970
    3OL    H13S13652   1.118   2.745   3.597  1.5026 -0.8939 -1.0355
    3OL    C11413653   1.177   2.579   3.719 -0.0569 -0.8619  0.5159
    3OL    H14R13654   1.282   2.609   3.719 -0.2049 -0.3449  0.6703
    3OL    H14S13655   1.175   2.470   3.719  1.2126 -0.9377 -1.1328
    3OL    C11513656   1.116   2.633   3.848 -0.1471  0.1612  0.0525
    3OL    H15R13657   1.009   2.609   3.857  0.4777 -3.1393 -0.1908
    3OL    H15S13658   1.128   2.742   3.845  0.1205  0.1313  0.0286
    3OL    C11613659   1.194   2.572   3.966  0.4390  0.4588 -0.1784
    3OL    H16R13660   1.301   2.587   3.953  0.2566  1.5932 -0.4992
    3OL    H16S13661   1.175   2.465   3.977 -2.4297  1.0679  1.9438
    3OL    C11713662   1.163   2.645   4.097  0.3158  0.3987 -0.1730
    3OL    H17R13663   1.057   2.634   4.121  0.4165  1.3628  0.8065
    3OL    H17S13664   1.181   2.753   4.099  1.5924  0.2197 -0.8962
    3OL    C11813665   1.245   2.585   4.212  0.6379  0.4174 -0.3916
    3OL    H18R13666   1.219   2.481   4.229  0.5976  0.6781  1.3564
    3OL    H18S13667   1.227   2.640   4.305  0.5964 -0.2213 -0.0164
    3OL    H18T13668   1.353   2.576   4.198  1.0077  0.0517  2.2254
    1PA    C11613669   3.771   0.838   4.131  0.3501 -0.0176 -0.1504
    1PA    H16R13670   3.876   0.831   4.160 -0.4770 -1.5448  2.9481
    1PA    H16S13671   3.736   0.735   4.129  4.0932 -1.4600  0.3746
    1PA    H16T13672   3.714   0.883   4.213 -1.2738 -0.6439 -0.8920
    1PA    C11513673   3.763   0.915   3.999  0.0616 -0.5405 -0.4397
    1PA    H15R13674   3.816   1.011   4.001 -3.0443  1.3127 -0.4666
    1PA    H15S13675   3.802   0.856   3.915 -0.3122 -0.2464 -0.8236
    1PA    C11413676   3.624   0.966   3.960  0.1411 -0.1013 -0.1523
    1PA    H14R13677   3.556   0.882   3.948 -0.8883  0.9082 -1.7255
    1PA    H14S13678   3.578   1.020   4.043 -1.7760 -1.5600 -0.1858
    1PA    C11313679   3.626   1.044   3.828  0.3954 -0.2384 -0.2284
    1PA    H13R13680   3.537   1.107   3.824  0.2515 -0.4348 -0.1547
    1PA    H13S13681   3.716   1.104   3.816  1.6168 -2.2910 -2.2410
    1PA    C11213682   3.619   0.953   3.704  0.3880 -0.7263  0.1306
    1PA    H12R13683   3.692   0.872   3.714 -2.1704 -3.5796 -2.0931
    1PA    H12S13684   3.526   0.898   3.684  0.0813 -1.0060  2.0587
    1PA    C11113685   3.644   1.035   3.577 -0.3724  0.2685  0.6086
    1PA    H11R13686   3.732   1.099   3.576 -1.1070  1.3054 -0.8979
    1PA    H11S13687   3.656   0.971   3.490  0.5723  0.9443  0.2217
    1PA    C11013688   3.521   1.118   3.539 -0.2760  0.0576 -0.1716
    1PA    H10R13689   3.434   1.059   3.509 -0.4069  0.2404 -0.1538
    1PA    H10S13690   3.488   1.182   3.621 -0.7974 -1.0043  0.4598
    1PA     C1913691   3.560   1.218   3.429  0.0122  0.0470 -0.0805
    1PA     H9R13692   3.492   1.303   3.431 -1.4104 -1.0238 -0.9202
    1PA     H9S13693   3.661   1.259   3.437  1.3274 -3.0710  0.7638
    1PA     C1813694   3.551   1.153   3.290  0.1240  0.1177 -0.1208
    1PA     H8R13695   3.618   1.067   3.283 -2.8229 -2.3831  0.7070
    1PA     H8S13696   3.448   1.119   3.281  0.5396 -0.8482 -1.5313
    1PA     C1713697   3.570   1.244   3.168 -0.0707 -0.2799 -0.4506
    1PA     H7R13698   3.498   1.326   3.167  1.6211  1.2855  0.4379
    1PA     H7S13699   3.668   1.292   3.181  0.6622 -2.1160  1.3179
    1PA     C1613700   3.574   1.163   3.038  0.1310 -0.4667 -0.3288
    1PA     H6R13701   3.670   1.113   3.027  0.3259  0.1502 -1.6191
    1PA     H6S13702   3.489   1.097   3.017  0.3738 -0.4019 -1.5697
    1PA     C1513703   3.564   1.254   2.915 -0.4102 -0.1077 -0.0271
    1PA     H5R13704   3.492   1.333   2.936 -2.0684 -1.6424  0.3008
    1PA     H5S13705   3.653   1.315   2.897 -0.8573  0.5030 -0.2168
    1PA     C1413706   3.525   1.177   2.788 -0.3252 -0.2929  0.0596
    1PA     H4R13707   3.591   1.090   2.776 -3.1869 -2.6822  0.5641
    1PA     H4S13708   3.425   1.134   2.801 -1.1824  1.4487 -0.5387
    1PA     C1313709   3.526   1.266   2.663  0.2147 -0.4300 -0.0367
    1PA     H3R13710   3.444   1.337   2.664  1.7085  1.3703  0.1945
    1PA     H3S13711   3.619   1.323   2.672 -0.6850  0.7967  2.2763
    1PA     C1213712   3.515   1.184   2.534 -0.5261  0.2141 -0.3910
    1PA     H2R13713   3.608   1.133   2.505  0.9664  1.3822  2.0303
    1PA     H2S13714   3.425   1.123   2.524 -0.0351 -0.4351 -0.9860
    2PC     C1113715   3.496   1.274   2.415  0.1048  0.3922 -0.3607
    2PC     O1213716   3.465   1.228   2.307  0.1609 -0.1148 -0.1613
    2PC     O1113717   3.511   1.404   2.444  0.2139  0.3140 -0.0597
    2PC      C113718   3.497   1.505   2.342 -0.2169 -0.1143 -0.4286
    2PC      HR13719   3.505   1.603   2.390  1.1941 -0.0538 -0.7595
    2PC      HS13720   3.567   1.483   2.261  1.4196  0.5538  0.7563
    2PC      C213721   3.353   1.504   2.287 -0.4099  0.0334  0.0696
    2PC      HX13722   3.315   1.403   2.273  0.1500 -0.0217 -1.2137
    2PC      C313723   3.359   1.574   2.151  0.0613 -0.0994  0.0206
    2PC      HA13724   3.406   1.671   2.168  0.0729  0.0247 -0.6853
    2PC      HB13725   3.413   1.524   2.070  1.4191  1.4379 -0.0716
    2PC     O3113726   3.228   1.594   2.095  0.1628 -0.0735 -0.2113
    2PC     P3113727   3.213   1.710   1.986  0.1587  0.0104 -0.1218
    2PC     O3213728   3.107   1.814   2.046  0.6186 -0.0451  0.7964
    2PC     C3113729   3.081   1.933   1.970  0.0224 -0.6255  0.0841
    2PC     H1A13730   3.051   2.014   2.037  1.1725 -1.7869  2.0928
    2PC     H1B13731   3.170   1.973   1.920 -0.7615 -0.1953 -1.0182
    2PC     C3213732   2.972   1.896   1.868 -0.4340  0.2296  0.2464
    2PC     H2A13733   3.011   1.815   1.806 -1.8253 -2.0760  2.2046
    2PC     H2B13734   2.885   1.853   1.918  0.4339 -0.2128  1.4371
    2PC     N3113735   2.925   2.000   1.771 -0.1010  0.0840 -0.0737
    2PC     C3313736   3.043   2.016   1.679 -0.4010  1.0168 -0.3097
    2PC     H3A13737   3.129   2.038   1.742  0.4558  1.5227 -1.6189
    2PC     H3B13738   3.055   1.926   1.618 -1.6597  1.2428 -0.9237
    2PC     H3C13739   3.040   2.105   1.616 -0.2078  0.9995 -0.3442
    2PC     C3413740   2.812   1.944   1.691 -0.1436  0.2470 -0.1282
    2PC     H4A13741   2.800   2.010   1.605 -0.6165  0.5095  0.1376
    2PC     H4B13742   2.841   1.848   1.648 -1.4301 -0.3548  0.3015
    2PC     H4C13743   2.728   1.955   1.759  0.4036 -0.0314  0.6130
    2PC     C3513744   2.885   2.127   1.840 -0.2326  0.1697 -0.3071
    2PC     H5A13745   2.816   2.181   1.776 -0.1934  1.8687  1.0026
    2PC     H5B13746   2.971   2.187   1.870 -0.0749  0.4511 -1.3142
    2PC     H5C13747   2.828   2.104   1.930 -0.6622 -0.0263 -0.6263
    2PC     O3313748   3.345   1.771   1.956  0.3698 -0.4489 -0.1282
    2PC     O3413749   3.157   1.657   1.860 -0.9490  0.8113  0.0220
    2PC     O2113750   3.264   1.571   2.378 -0.3829  0.0913  0.0528
    2PC     C2113751   3.230   1.515   2.495  0.5358  0.4768  0.5252
    2PC     O2213752   3.245   1.397   2.519  0.7421  0.5334  0.6793
    3OL     C1213753   3.150   1.601   2.590 -0.1239  0.5675 -0.1017
    3OL     H2R13754   3.058   1.549   2.617 -0.1473  0.9362  0.5447
    3OL     H2S13755   3.140   1.696   2.537  1.4164  0.5777 -0.4272
    3OL     C1313756   3.236   1.619   2.716 -0.4832 -0.1529  0.2509
    3OL     H3R13757   3.339   1.632   2.683 -0.8095  0.5032 -0.5543
    3OL     H3S13758   3.236   1.526   2.774  0.9208  0.0217  0.5595
    3OL     C1413759   3.188   1.738   2.800 -0.1305  0.4070 -0.3290
    3OL     H4R13760   3.190   1.828   2.739 -0.5459  1.4400  1.1108
    3OL     H4S13761   3.261   1.759   2.878  0.6442  1.5435 -1.3391
    3OL     C1513762   3.046   1.715   2.854  0.0865  0.0892  0.1180
    3OL     H5R13763   3.051   1.621   2.909  0.1733 -0.4048 -0.7156
    3OL     H5S13764   2.982   1.687   2.769  1.3089  0.4428 -0.9417
    3OL     C1613765   3.002   1.829   2.946  0.2571  0.5317 -0.3481
    3OL     H6R13766   3.025   1.929   2.906  0.3352  1.2707  1.4512
    3OL     H6S13767   3.061   1.819   3.037  2.5504 -0.4142 -1.8676
    3OL     C1713768   2.853   1.818   2.982  0.3872 -0.0444  0.0156
    3OL     H7R13769   2.839   1.714   3.012  0.1284 -0.1703 -0.5407
    3OL     H7S13770   2.789   1.828   2.894 -1.8730  2.7779  1.7815
    3OL     C1813771   2.799   1.905   3.097  0.1639 -0.1284 -0.0272
    3OL     H8R13772   2.697   1.870   3.116 -0.0157  1.0032  1.2306
    3OL     H8S13773   2.796   2.007   3.059 -1.9600  0.0430  0.4754
    3OL     C1913774   2.894   1.906   3.214  0.7726 -0.6271 -0.5132
    3OL     H9R13775   2.981   1.970   3.204  0.6961 -0.4390 -0.0000
    3OL    C11013776   2.883   1.826   3.319 -0.1234  0.4726  0.2452
    3OL    H10R13777   2.968   1.834   3.386  0.7596  2.8501 -1.0339
    3OL    C11113778   2.776   1.722   3.344  0.4685 -0.3214 -0.4647
    3OL    H11R13779   2.796   1.634   3.282  2.1683  0.4584 -1.0892
    3OL    H11S13780   2.677   1.761   3.318  1.5056  2.8377 -0.0569
    3OL    C11213781   2.766   1.693   3.494 -0.1936  0.4972 -0.3447
    3OL    H12R13782   2.855   1.718   3.551  0.1733 -1.1625 -0.1305
    3OL    H12S13783   2.759   1.586   3.514  2.4687  0.4308  0.6160
    3OL    C11313784   2.637   1.744   3.561  0.0084 -0.1487  0.5666
    3OL    H13R13785   2.551   1.704   3.506 -0.6677  2.2013 -0.2416
    3OL    H13S13786   2.643   1.853   3.550 -1.0870 -0.0459  0.8740
    3OL    C11413787   2.623   1.724   3.712 -0.0109 -0.3742  0.5349
    3OL    H14R13788   2.708   1.771   3.762 -0.6863 -0.0508  1.4088
    3OL    H14S13789   2.624   1.618   3.737 -0.1161 -0.4119  0.3852
    3OL    C11513790   2.490   1.780   3.766  0.1102  0.9415 -0.4716
    3OL    H15R13791   2.405   1.754   3.704 -0.8378  0.0257  1.1446
    3OL    H15S13792   2.505   1.888   3.775 -0.3486  1.0385 -0.8315
    3OL    C11613793   2.462   1.742   3.912 -0.4038  0.4459 -0.6938
    3OL    H16R13794   2.544   1.769   3.979 -1.1026  1.2553 -0.1358
    3OL    H16S13795   2.459   1.635   3.932 -0.6463  0.7517  1.1577
    3OL    C11713796   2.325   1.802   3.949 -0.6097 -0.3526 -0.1330
    3OL    H17R13797   2.241   1.757   3.897 -0.3287 -0.9676 -0.0633
    3OL    H17S13798   2.320   1.908   3.922  0.2244 -0.3011 -0.1159
    3OL    C11813799   2.307   1.784   4.100 -0.3281  0.4720  0.0070
    3OL    H18R13800   2.281   1.679   4.119  1.6668 -0.3057 -1.2708
    3OL    H18S13801   2.230   1.853   4.135 -0.4136  0.6428 -0.5202
    3OL    H18T13802   2.395   1.807   4.160  0.7521  1.3028 -1.8231
    1PA    C11613803   2.003   0.822   4.275  0.0536 -0.8135 -0.2934
    1PA    H16R13804   2.083   0.876   4.327  1.5860 -1.4001 -1.9436
    1PA    H16S13805   1.993   0.721   4.314 -0.9274 -0.9161 -0.7880
    1PA    H16T13806   1.910   0.875   4.296  0.7194  0.8789 -1.3454
    1PA    C11513807   2.039   0.817   4.126 -0.0258 -0.5471 -0.3225
    1PA    H15R13808   2.132   0.764   4.103  1.4779  1.7412  0.0793
    1PA    H15S13809   1.951   0.762   4.093 -0.5608  1.8387 -3.2828
    1PA    C11413810   2.027   0.954   4.057 -0.1456 -0.5429 -0.2937
    1PA    H14R13811   1.920   0.962   4.074  0.0345  0.8620  0.3328
    1PA    H14S13812   2.079   1.036   4.107 -0.7690  0.8747 -1.8965
    1PA    C11313813   2.061   0.951   3.908  0.4230  0.3686 -0.1917
    1PA    H13R13814   2.162   0.913   3.892  1.3874  1.4307  2.7307
    1PA    H13S13815   1.980   0.887   3.870  0.3516 -0.1704  0.8523
    1PA    C11213816   2.055   1.088   3.838  0.4372  0.0371 -0.8509
    1PA    H12R13817   2.050   1.075   3.730  2.0108 -1.6312 -0.7910
    1PA    H12S13818   1.967   1.140   3.875 -0.3811 -2.7229  1.5361
    1PA    C11113819   2.185   1.162   3.874 -0.0498  0.0876  0.9097
    1PA    H11R13820   2.208   1.153   3.980  2.7436 -1.6607  0.2682
    1PA    H11S13821   2.269   1.116   3.821 -0.0178  1.0648  0.0742
    1PA    C11013822   2.181   1.310   3.834 -0.2528 -0.1221  0.1227
    1PA    H10R13823   2.161   1.309   3.727  2.8624 -0.6007 -0.5556
    1PA    H10S13824   2.109   1.376   3.883 -0.3810 -0.8028  0.8622
    1PA     C1913825   2.318   1.373   3.862 -0.3054  0.0481 -0.0025
    1PA     H9R13826   2.301   1.480   3.843  0.8043 -0.0849 -2.0384
    1PA     H9S13827   2.345   1.360   3.967 -2.1713 -2.0453  0.2874
    1PA     C1813828   2.438   1.325   3.780 -0.2926 -0.2247  0.1785
    1PA     H8R13829   2.523   1.386   3.813  0.7079 -1.3500 -0.2112
    1PA     H8S13830   2.470   1.221   3.794 -0.2493 -0.1675  0.5174
    1PA     C1713831   2.414   1.337   3.629  0.2731  0.1286  0.1139
    1PA     H7R13832   2.331   1.278   3.591 -0.4776 -0.4264  2.4173
    1PA     H7S13833   2.388   1.442   3.618  1.5486  0.7412  2.2244
    1PA     C1613834   2.540   1.313   3.544  0.1659  0.7555 -0.2243
    1PA     H6R13835   2.621   1.366   3.595 -0.4520  0.9812  0.5417
    1PA     H6S13836   2.562   1.207   3.556  2.1534  1.2571  0.9803
    1PA     C1513837   2.531   1.365   3.400 -0.5938  0.1338 -0.4042
    1PA     H5R13838   2.441   1.330   3.349 -0.2096  1.3082 -1.9528
    1PA     H5S13839   2.505   1.470   3.409  0.3331  0.1876  2.5088
    1PA     C1413840   2.660   1.344   3.320  0.0972  0.7865  0.5294
    1PA     H4R13841   2.739   1.405   3.366  0.6509 -0.2521  0.9809
    1PA     H4S13842   2.682   1.239   3.338  1.6707  1.0110  0.0620
    1PA     C1313843   2.639   1.376   3.171  0.4544  0.7001  0.4580
    1PA     H3R13844   2.555   1.314   3.137  0.1804  0.6928  1.1199
    1PA     H3S13845   2.620   1.483   3.160 -0.6611  0.5754  0.9938
    1PA     C1213846   2.764   1.334   3.094  0.0272  0.2301  0.0163
    1PA     H2R13847   2.852   1.393   3.118  1.7328 -1.4695 -1.6283
    1PA     H2S13848   2.785   1.227   3.102 -0.1609  0.0562 -1.4038
    2PC     C1113849   2.728   1.345   2.948 -0.5130  0.3233  0.1541
    2PC     O1213850   2.672   1.260   2.882  0.0236 -0.0643  0.1933
    2PC     O1113851   2.779   1.454   2.887  0.1601 -0.1834 -0.1944
    2PC      C113852   2.776   1.467   2.743  0.1865 -0.4414 -0.2194
    2PC      HR13853   2.846   1.545   2.712 -1.1902  0.1565 -2.0159
    2PC      HS13854   2.796   1.370   2.697 -0.1061 -1.3418  1.4569
    2PC      C213855   2.637   1.514   2.701  0.0877 -0.1031  0.4650
    2PC      HX13856   2.562   1.462   2.761 -1.5408  1.0058 -0.5225
    2PC      C313857   2.614   1.483   2.552 -0.6534  0.4657  0.4540
    2PC      HA13858   2.624   1.379   2.519  1.1423  1.1267 -1.2337
    2PC      HB13859   2.515   1.521   2.524 -0.2786  0.3036 -1.2131
    2PC     O3113860   2.708   1.557   2.472 -0.2217 -0.3292  0.2099
    2PC     P3113861   2.657   1.608   2.329 -0.1423 -0.0935  0.2655
    2PC     O3213862   2.771   1.551   2.232 -0.3149  0.2967 -0.1724
    2PC     C3113863   2.848   1.434   2.267 -0.4835  0.0847 -0.5074
    2PC     H1A13864   2.884   1.460   2.367  0.3977  1.1786 -1.0922
    2PC     H1B13865   2.779   1.349   2.277  1.0201 -1.2300 -0.9772
    2PC     C3213866   2.964   1.412   2.170  0.0596  0.0969  0.1310
    2PC     H2A13867   3.033   1.496   2.176 -0.2291  0.4309 -0.9943
    2PC     H2B13868   3.010   1.320   2.207 -0.0443  0.7419  1.9610
    2PC     N3113869   2.930   1.384   2.026  0.2015  0.2662  0.0639
    2PC     C3313870   2.833   1.270   2.016  0.4045  0.1211 -0.2517
    2PC     H3A13871   2.881   1.176   2.047 -1.7967 -0.8842  0.2968
    2PC     H3B13872   2.755   1.301   2.086 -0.0519  0.8456 -1.0652
    2PC     H3C13873   2.783   1.272   1.919  0.1944  0.9928 -0.1281
    2PC     C3413874   2.864   1.499   1.956  0.2649  0.1180 -0.2411
    2PC     H4A13875   2.938   1.580   1.949  0.6236 -0.2865 -1.2457
    2PC     H4B13876   2.836   1.467   1.856  0.6797  2.2754 -1.1007
    2PC     H4C13877   2.776   1.538   2.006 -1.8777 -1.7344 -2.3585
    2PC     C3513878   3.055   1.344   1.954  0.0545 -0.4418  0.1880
    2PC     H5A13879   3.051   1.391   1.855  3.8052  0.0710  0.1243
    2PC     H5B13880   3.063   1.235   1.954 -1.8133 -0.6417 -1.3917
    2PC     H5C13881   3.138   1.399   1.999 -2.2034  1.9800  1.6528
    2PC     O3313882   2.518   1.575   2.292 -0.1581  0.4111 -0.1430
    2PC     O3413883   2.664   1.756   2.341 -0.0452 -0.1162  0.4943
    2PC     O2113884   2.633   1.657   2.719 -0.3695 -0.0977  0.3563
    2PC     C2113885   2.517   1.723   2.708 -0.2230  0.0465 -0.3518
    2PC     O2213886   2.411   1.664   2.707 -0.2970  0.1775 -0.3064
    3OL     C1213887   2.530   1.873   2.706  0.2745  0.0145  0.2056
    3OL     H2R13888   2.534   1.903   2.601 -0.8087  0.0072  0.1464
    3OL     H2S13889   2.631   1.901   2.736  1.2515  0.7259 -3.2599
    3OL     C1313890   2.411   1.948   2.767 -0.2645 -0.7567  0.1106
    3OL     H3R13891   2.413   1.933   2.875 -0.2570  0.1685  0.2475
    3OL     H3S13892   2.323   1.907   2.717 -0.9723  1.5104 -0.6222
    3OL     C1413893   2.413   2.098   2.735  0.3695 -0.6604  0.5714
    3OL     H4R13894   2.311   2.136   2.728  0.2035 -1.3129 -1.3049
    3OL     H4S13895   2.459   2.111   2.637  0.9508 -0.4964  0.8622
    3OL     C1513896   2.494   2.184   2.832  0.5505 -0.0963 -0.0701
    3OL     H5R13897   2.543   2.265   2.777 -1.4887  1.3889  0.1774
    3OL     H5S13898   2.576   2.129   2.879  0.9922 -0.1233 -0.8631
    3OL     C1613899   2.401   2.236   2.943  0.5216 -0.1743 -0.0582
    3OL     H6R13900   2.341   2.159   2.992 -0.9755  0.5303 -0.7273
    3OL     H6S13901   2.323   2.288   2.887  0.1574 -0.4581  0.1856
    3OL     C1713902   2.465   2.335   3.041  0.0160  0.1953 -0.1003
    3OL     H7R13903   2.388   2.379   3.105  1.6161  2.3126  0.4704
    3OL     H7S13904   2.508   2.415   2.982 -1.2539  0.3050 -0.9177
    3OL     C1813905   2.575   2.274   3.128  0.3113  0.8561 -0.0084
    3OL     H8R13906   2.654   2.237   3.062  1.1582  0.4262  1.1920
    3OL     H8S13907   2.543   2.199   3.201 -1.3225  1.9912  0.5003
    3OL     C1913908   2.636   2.387   3.207  0.3358  0.9101 -0.1051
    3OL     H9R13909   2.590   2.483   3.186  0.3593  0.4468 -2.6077
    3OL    C11013910   2.734   2.377   3.295 -0.2807 -0.0493  0.4875
    3OL    H10R13911   2.759   2.471   3.344 -1.4216  0.5987 -0.1492
    3OL    C11113912   2.799   2.249   3.342  0.2874  0.0506 -0.0069
    3OL    H11R13913   2.899   2.231   3.303  0.2730 -1.0109  0.3974
    3OL    H11S13914   2.738   2.158   3.334  1.6681 -0.8671 -0.3819
    3OL    C11213915   2.829   2.261   3.492 -0.3762  0.1130  0.1256
    3OL    H12R13916   2.761   2.326   3.547 -1.7650 -0.4367 -0.8909
    3OL    H12S13917   2.926   2.312   3.491 -0.5335  0.4434  0.9663
    3OL    C11313918   2.833   2.124   3.561 -0.1401  0.2880  0.4630
    3OL    H13R13919   2.901   2.059   3.505 -3.6089 -1.3571 -2.2402
    3OL    H13S13920   2.735   2.076   3.561  0.0330 -0.0834 -0.1452
    3OL    C11413921   2.868   2.131   3.710 -0.1936  0.5941  0.4626
    3OL    H14R13922   2.806   2.210   3.754  0.1403  0.2477  1.5985
    3OL    H14S13923   2.967   2.175   3.718 -0.9076  2.5236 -0.5724
    3OL    C11513924   2.868   2.001   3.792 -0.1337 -0.0132 -0.4846
    3OL    H15R13925   2.927   1.936   3.727 -1.2200 -0.0973 -1.4091
    3OL    H15S13926   2.770   1.954   3.802  0.3138 -0.5433  2.1232
    3OL    C11613927   2.926   2.011   3.934 -0.3325  0.2836 -0.4228
    3OL    H16R13928   2.867   2.083   3.990 -1.9952 -2.9820  2.3847
    3OL    H16S13929   3.026   2.055   3.941 -0.3678  0.7444 -2.2477
    3OL    C11713930   2.917   1.875   4.004 -0.2688  0.2025 -0.5699
    3OL    H17R13931   2.824   1.823   3.982 -0.0224 -1.1509  1.2959
    3OL    H17S13932   2.918   1.884   4.113  0.7831  1.4271 -0.6678
    3OL    C11813933   3.027   1.782   3.951 -0.2075 -0.0697  0.0237
    3OL    H18R13934   3.015   1.684   3.999  1.4370 -0.0768  0.4957
    3OL    H18S13935   3.124   1.830   3.967 -0.1203  0.2590 -1.4164
    3OL    H18T13936   3.014   1.762   3.845 -0.9324  1.3011 -0.1579
    1PA    C11613937   1.556   0.280   3.914  0.0037 -0.2663  0.2142
    1PA    H16R13938   1.598   0.179   3.924 -0.6258 -0.3965  1.8638
    1PA    H16S13939   1.455   0.269   3.954  0.0981  1.7405  1.0847
    1PA    H16T13940   1.618   0.340   3.981  0.5220  0.3317 -0.7789
    1PA    C11513941   1.524   0.324   3.770  0.3891 -0.3080  0.1141
    1PA    H15R13942   1.597   0.284   3.699  2.7914  1.4430  1.4353
    1PA    H15S13943   1.428   0.279   3.744 -0.2827  0.3157  1.4089
    1PA    C11413944   1.523   0.477   3.759 -0.0000 -0.3655 -0.7067
    1PA    H14R13945   1.438   0.526   3.808  0.2356 -0.3179 -0.3436
    1PA    H14S13946   1.618   0.507   3.802 -0.5474  0.4479 -0.0326
    1PA    C11313947   1.518   0.533   3.616 -0.3455  0.2908 -0.4411
    1PA    H13R13948   1.527   0.642   3.617  0.1801  0.2520  0.2499
    1PA    H13S13949   1.603   0.495   3.561  1.0637  2.0234  0.4325
    1PA    C11213950   1.388   0.502   3.541 -0.4635  0.2957 -0.2400
    1PA    H12R13951   1.372   0.394   3.543 -0.1944  0.2527 -0.3635
    1PA    H12S13952   1.315   0.557   3.601 -1.5907 -0.8356 -0.5109
    1PA    C11113953   1.377   0.554   3.397  0.1883 -0.0620 -0.4196
    1PA    H11R13954   1.412   0.657   3.406 -2.2613  0.9033 -1.2291
    1PA    H11S13955   1.438   0.499   3.325  0.1121 -0.7266  0.0182
    1PA    C11013956   1.230   0.535   3.359  0.0025 -0.0934  0.3101
    1PA    H10R13957   1.188   0.436   3.377  1.5154 -1.3546 -2.5844
    1PA    H10S13958   1.176   0.601   3.428  0.8446 -0.0215  0.9224
    1PA     C1913959   1.215   0.579   3.213 -0.2187 -0.2091  0.2985
    1PA     H9R13960   1.111   0.590   3.180  0.0477 -1.5013 -1.1365
    1PA     H9S13961   1.259   0.676   3.193  0.7576 -0.6420  0.2862
    1PA     C1813962   1.274   0.465   3.129  0.1487 -0.1420  0.4653
    1PA     H8R13963   1.380   0.441   3.142  0.4341 -2.4444 -4.0589
    1PA     H8S13964   1.218   0.374   3.151 -0.1798 -0.2855 -0.8544
    1PA     C1713965   1.253   0.488   2.978  0.3509 -0.9064  0.3188
    1PA     H7R13966   1.154   0.524   2.951  0.5922  1.1267  1.9157
    1PA     H7S13967   1.324   0.564   2.944  0.6980 -1.1843  0.4103
    1PA     C1613968   1.282   0.366   2.889  0.5538 -0.4817 -0.2024
    1PA     H6R13969   1.379   0.326   2.922  0.0202 -2.0119 -0.4042
    1PA     H6S13970   1.222   0.277   2.910 -0.4051 -0.0840 -1.2070
    1PA     C1513971   1.273   0.396   2.739  0.3077  0.0523 -0.0831
    1PA     H5R13972   1.175   0.432   2.710  0.3049 -1.0537 -1.5715
    1PA     H5S13973   1.338   0.477   2.705 -0.9683 -0.0542 -3.0280
    1PA     C1413974   1.290   0.263   2.665 -0.6276  0.1924 -0.5621
    1PA     H4R13975   1.386   0.224   2.699 -1.7458 -1.4794  0.8947
    1PA     H4S13976   1.214   0.192   2.700 -0.7515  0.3147 -0.5828
    1PA     C1313977   1.296   0.276   2.512 -0.2054  0.5482 -0.5170
    1PA     H3R13978   1.369   0.353   2.486  1.6418 -0.5927  0.9911
    1PA     H3S13979   1.319   0.177   2.474  0.4116 -0.2787  1.8216
    1PA     C1213980   1.156   0.310   2.457 -0.8535 -0.0563  0.7015
    1PA     H2R13981   1.161   0.272   2.355 -0.3277  0.8620  0.3698
    1PA     H2S13982   1.082   0.248   2.508 -0.1330 -0.6687  1.0261
    2PC     C1113983   1.106   0.452   2.454  0.3974  0.3867 -0.2943
    2PC     O1213984   0.987   0.474   2.450  0.2899 -0.2653 -0.7408
    2PC     O1113985   1.213   0.533   2.449  0.6865 -0.0207 -0.7387
    2PC      C113986   1.187   0.672   2.421  0.0902  0.0647  0.2255
    2PC      HR13987   1.127   0.681   2.330  2.7045  1.6742 -1.4609
    2PC      HS13988   1.127   0.719   2.500 -1.6948  0.5856 -1.3745
    2PC      C213989   1.325   0.729   2.389  0.2198 -0.2559  0.2055
    2PC      HX13990   1.316   0.837   2.375 -1.9645 -0.6290 -1.9595
    2PC      C313991   1.378   0.667   2.259  0.1537  0.1994 -0.0431
    2PC      HA13992   1.480   0.699   2.236  0.6227 -0.8717  0.4367
    2PC      HB13993   1.390   0.558   2.269  2.4677  0.2868 -1.2696
    2PC     O3113994   1.292   0.701   2.150  0.0392 -0.0416 -0.0297
    2PC     P3113995   1.294   0.600   2.026 -0.0198  0.0515 -0.1074
    2PC     O3213996   1.166   0.508   2.056  0.0449 -0.0146 -0.0337
    2PC     C3113997   1.048   0.556   1.989  0.3309 -0.1927 -0.6810
    2PC     H1A13998   1.037   0.662   2.015  1.5569  0.3332 -2.1853
    2PC     H1B13999   1.059   0.557   1.881  0.2911  0.1397 -0.6854
    2PC     C3214000   0.924   0.471   2.020  0.3914  0.0980  0.4215
    2PC     H2A14001   0.911   0.476   2.128 -2.6542  1.9626  0.1042
    2PC     H2B14002   0.832   0.505   1.971  0.7037  0.4841  0.0961
    2PC     N3114003   0.931   0.327   1.981  0.7034  0.0865  0.5216
    2PC     C3314004   0.798   0.259   1.983  0.6514  0.1601 -0.0687
    2PC     H3A14005   0.818   0.158   1.947  5.4289  0.0565  2.0938
    2PC     H3B14006   0.748   0.263   2.081  1.0459 -0.5126  0.1665
    2PC     H3C14007   0.737   0.313   1.910  0.7284  3.7022  2.1900
    2PC     C3414008   0.975   0.313   1.838  0.0516 -0.1802  0.3446
    2PC     H4A14009   1.071   0.364   1.836 -0.0479  0.0433  1.1126
    2PC     H4B14010   0.977   0.211   1.799 -0.3632  0.3684 -1.2049
    2PC     H4C14011   0.896   0.359   1.779  0.9589 -2.9586 -3.4262
    2PC     C3514012   1.026   0.244   2.061  0.3695 -0.9459 -0.1266
    2PC     H5A14013   0.995   0.243   2.166  1.1912 -0.8453  0.1292
    2PC     H5B14014   1.125   0.290   2.057 -0.2114  0.6739  2.0033
    2PC     H5C14015   1.035   0.140   2.029 -4.2524 -1.1767 -1.2671
    2PC     O3314016   1.291   0.654   1.888  0.1044  0.0111 -0.1255
    2PC     O3414017   1.419   0.521   2.016  0.2462  0.4511  0.0699
    2PC     O2114018   1.421   0.705   2.494  0.2116 -0.3039  0.2021
    2PC     C2114019   1.546   0.753   2.486  0.1112 -0.0992 -0.1665
    2PC     O2214020   1.582   0.847   2.419 -0.4309 -0.3290 -0.7877
    3OL     C1214021   1.640   0.687   2.584  0.4738  0.2408 -0.2830
    3OL     H2R14022   1.617   0.718   2.686 -3.7250  2.9229 -1.7791
    3OL     H2S14023   1.743   0.720   2.569  0.9427  0.9993  3.5990
    3OL     C1314024   1.635   0.534   2.571 -0.1042  0.1938  0.4094
    3OL     H3R14025   1.660   0.503   2.469 -0.8487 -0.1737  0.3334
    3OL     H3S14026   1.534   0.496   2.586  0.6694 -2.6763 -1.0349
    3OL     C1414027   1.717   0.455   2.674 -0.1855 -0.5993 -0.1228
    3OL     H4R14028   1.823   0.480   2.686  0.1172 -0.2388 -2.8945
    3OL     H4S14029   1.725   0.351   2.642 -1.6579 -0.6657 -0.3498
    3OL     C1514030   1.651   0.447   2.812  0.0365 -0.1022  0.0180
    3OL     H5R14031   1.581   0.364   2.800 -0.6984  0.7805 -2.4143
    3OL     H5S14032   1.594   0.538   2.831 -1.3983 -0.9114 -0.2285
    3OL     C1614033   1.758   0.414   2.916 -0.3531 -0.5298  0.2895
    3OL     H6R14034   1.838   0.488   2.920  1.3649 -2.1896  5.4845
    3OL     H6S14035   1.802   0.315   2.898  1.4334 -0.0098  1.4722
    3OL     C1714036   1.694   0.418   3.055  0.0339  0.0880  0.4553
    3OL     H7R14037   1.612   0.346   3.061  0.5157 -0.3983  1.7035
    3OL     H7S14038   1.654   0.513   3.089  0.4906 -0.1968  1.8815
    3OL     C1814039   1.798   0.364   3.155 -0.0560 -0.3611  0.3117
    3OL     H8R14040   1.867   0.449   3.162  0.5199 -0.7934 -0.0169
    3OL     H8S14041   1.866   0.285   3.123  0.9986  1.7606 -3.3886
    3OL     C1914042   1.742   0.331   3.290 -0.3647  0.0649  0.2910
    3OL     H9R14043   1.634   0.346   3.297 -0.6767 -0.7176 -1.9738
    3OL    C11014044   1.816   0.279   3.386  0.0194 -0.0899 -0.0886
    3OL    H10R14045   1.763   0.244   3.474 -1.7566  0.2777 -0.9817
    3OL    C11114046   1.967   0.272   3.384  0.0137 -0.3544  0.2114
    3OL    H11R14047   1.995   0.276   3.278 -0.5054  0.5609  0.1050
    3OL    H11S14048   1.996   0.179   3.433 -0.1260 -0.2220  0.5443
    3OL    C11214049   2.017   0.386   3.473  0.6498 -0.2071 -0.3201
    3OL    H12R14050   1.989   0.480   3.425 -4.2555 -1.1997  0.0819
    3OL    H12S14051   2.125   0.391   3.463  0.5116 -0.4183 -2.3566
    3OL    C11314052   1.982   0.392   3.623  0.1179 -0.0175 -0.4504
    3OL    H13R14053   1.961   0.292   3.660  0.7388 -0.5250 -1.4398
    3OL    H13S14054   1.887   0.447   3.629 -0.0762 -0.4721  0.8179
    3OL    C11414055   2.071   0.484   3.707 -0.1823 -0.0973 -0.0398
    3OL    H14R14056   2.087   0.578   3.653  0.2232 -0.1755 -0.0626
    3OL    H14S14057   2.170   0.436   3.708 -0.6369 -1.0511  0.1112
    3OL    C11514058   2.018   0.505   3.849  0.1524  0.0369  0.0663
    3OL    H15R14059   1.913   0.529   3.835 -0.0014  0.3856  1.6161
    3OL    H15S14060   2.060   0.596   3.892  0.0663  0.5917 -0.9944
    3OL    C11614061   2.035   0.380   3.937  0.6928  0.2756  0.3103
    3OL    H16R14062   2.138   0.345   3.928  0.0150 -2.3284  1.7202
    3OL    H16S14063   1.977   0.291   3.912  2.8602 -1.4414  1.1583
    3OL    C11714064   2.006   0.414   4.084 -0.0678 -0.0257  0.2355
    3OL    H17R14065   2.040   0.511   4.121  0.1477 -1.0574  2.9575
    3OL    H17S14066   2.050   0.342   4.153  1.4673  1.0901  0.4755
    3OL    C11814067   1.855   0.405   4.110 -0.1748  0.5240 -0.1811
    3OL    H18R14068   1.813   0.482   4.045 -1.4949  0.8397  0.9893
    3OL    H18S14069   1.841   0.425   4.216  0.1296  0.1800 -0.0761
    3OL    H18T14070   1.814   0.305   4.094  0.8548  0.2489 -1.2640
    1PA    C11614071   2.086   2.518   3.825  0.5165  0.0070 -0.4992
    1PA    H16R14072   2.155   2.439   3.854 -0.3835 -0.5348  0.2285
    1PA    H16S14073   1.980   2.494   3.833  0.1114  2.1183  1.2412
    1PA    H16T14074   2.101   2.614   3.874  0.8999 -0.5884  0.5825
    1PA    C11514075   2.103   2.546   3.675  0.2211 -0.3607 -0.6032
    1PA    H15R14076   2.047   2.467   3.624 -2.9444  2.4051 -1.7595
    1PA    H15S14077   2.054   2.637   3.640 -1.2608 -0.5480  0.8723
    1PA    C11414078   2.250   2.545   3.631  0.2236 -0.0757 -0.6051
    1PA    H14R14079   2.259   2.611   3.545 -0.1584 -0.3006 -0.8188
    1PA    H14S14080   2.305   2.599   3.708  1.4453  0.4895 -1.8414
    1PA    C11314081   2.318   2.409   3.606 -0.0814 -0.3598  0.0856
    1PA    H13R14082   2.422   2.442   3.601 -0.5490  1.1540 -0.1787
    1PA    H13S14083   2.308   2.330   3.680 -0.3674  0.2207  0.6806
    1PA    C11214084   2.276   2.348   3.471 -0.0030 -0.0631 -0.0738
    1PA    H12R14085   2.167   2.341   3.473 -0.1844  0.0865 -3.6673
    1PA    H12S14086   2.299   2.419   3.391 -3.1786  1.7510  0.4718
    1PA    C11114087   2.340   2.209   3.455  0.5881  0.2573 -0.5311
    1PA    H11R14088   2.445   2.225   3.429  0.9450  0.2386  0.8561
    1PA    H11S14089   2.356   2.163   3.552  1.9657  1.3521 -0.2090
    1PA    C11014090   2.269   2.122   3.350 -0.0851 -0.3379  0.4071
    1PA    H10R14091   2.172   2.082   3.380  0.3861 -0.5713  1.6888
    1PA    H10S14092   2.262   2.178   3.257  3.2296  0.7841  0.7122
    1PA     C1914093   2.355   1.997   3.327  0.2672 -0.0295  0.0532
    1PA     H9R14094   2.457   2.023   3.297  0.1524 -1.3876 -1.7089
    1PA     H9S14095   2.370   1.940   3.418 -0.6273  2.0587  1.5834
    1PA     C1814096   2.299   1.916   3.209 -0.0501  0.1035  0.1121
    1PA     H8R14097   2.195   1.884   3.224 -0.0333 -0.4282 -0.8446
    1PA     H8S14098   2.307   1.980   3.121 -1.9391 -0.8759 -0.8273
    1PA     C1714099   2.378   1.787   3.180 -0.1043  0.0608  0.1536
    1PA     H7R14100   2.477   1.821   3.148  0.6590 -2.3489 -0.2394
    1PA     H7S14101   2.387   1.714   3.261 -1.8096 -2.2874 -1.6187
    1PA     C1614102   2.302   1.710   3.071  0.2094  0.0996 -0.0921
    1PA     H6R14103   2.200   1.692   3.106 -1.0054  1.5318 -2.5591
    1PA     H6S14104   2.280   1.777   2.988 -1.2820 -0.4381 -0.1562
    1PA     C1514105   2.368   1.578   3.028 -0.0059  0.2491 -0.9081
    1PA     H5R14106   2.468   1.581   2.984  0.5981  0.3589  0.4330
    1PA     H5S14107   2.379   1.522   3.121 -0.0066 -1.6326 -1.9978
    1PA     C1414108   2.276   1.492   2.941 -0.8691 -0.1313  0.3606
    1PA     H4R14109   2.171   1.492   2.971 -0.6680 -1.7311  1.2190
    1PA     H4S14110   2.279   1.538   2.842 -0.3875 -0.9115  0.0017
    1PA     C1314111   2.323   1.345   2.940 -0.4080  0.0197 -0.2211
    1PA     H3R14112   2.427   1.349   2.907 -0.8082  1.8792 -1.4768
    1PA     H3S14113   2.314   1.295   3.036  0.2783 -0.7125 -0.5274
    1PA     C1214114   2.240   1.263   2.841 -0.1706 -0.1592 -0.2740
    1PA     H2R14115   2.271   1.162   2.866  1.0125  0.6863  1.9452
    1PA     H2S14116   2.135   1.271   2.871 -0.0487 -0.2152  0.1648
    2PC     C1114117   2.272   1.304   2.699 -0.6019 -1.0717 -0.6405
    2PC     O1214118   2.378   1.272   2.650 -0.0182 -0.0836 -0.0383
    2PC     O1114119   2.178   1.379   2.640 -0.2600 -0.0895  0.0530
    2PC      C114120   2.205   1.439   2.512  0.2181  0.6537  0.4941
    2PC      HR14121   2.130   1.516   2.494 -0.7855 -0.4594 -0.1959
    2PC      HS14122   2.301   1.491   2.525  1.3759 -1.5835  1.4025
    2PC      C214123   2.208   1.335   2.399  0.0266  0.6363  0.5055
    2PC      HX14124   2.290   1.267   2.423 -0.5183  0.3803  1.7153
    2PC      C314125   2.228   1.392   2.258  0.4741  0.0478  0.3294
    2PC      HA14126   2.150   1.466   2.239  1.3976  1.5354  1.9941
    2PC      HB14127   2.326   1.441   2.247  0.2719  0.1290 -1.4045
    2PC     O3114128   2.222   1.289   2.158 -0.1400  0.3073  0.0949
    2PC     P3114129   2.250   1.330   2.006 -0.3252  0.0001 -0.0218
    2PC     O3214130   2.132   1.271   1.916 -0.2348  0.0583 -0.1796
    2PC     C3114131   1.997   1.293   1.961 -0.0696  0.1133  0.2952
    2PC     H1A14132   1.987   1.262   2.065 -0.3009 -0.4582  0.1129
    2PC     H1B14133   1.979   1.400   1.954  0.2602  0.1294 -0.4550
    2PC     C3214134   1.892   1.207   1.887 -0.3628  0.3780  0.4043
    2PC     H2A14135   1.898   1.232   1.781 -0.5470  0.6085  0.4482
    2PC     H2B14136   1.919   1.102   1.892 -2.0687 -0.2905 -2.3399
    2PC     N3114137   1.749   1.222   1.929 -0.4065 -0.0178  0.4003
    2PC     C3314138   1.661   1.120   1.864  0.1119 -0.0833 -0.2077
    2PC     H3A14139   1.695   1.104   1.762 -0.3739  0.8041 -0.5245
    2PC     H3B14140   1.671   1.027   1.920  2.9158 -1.4622 -2.7251
    2PC     H3C14141   1.555   1.147   1.857 -0.2083 -1.0439  0.6486
    2PC     C3414142   1.725   1.223   2.077 -0.0629 -0.1142  0.4577
    2PC     H4A14143   1.725   1.331   2.093 -1.7887  0.5674 -3.1685
    2PC     H4B14144   1.624   1.184   2.096 -0.0789  0.7915  2.6096
    2PC     H4C14145   1.803   1.168   2.131 -0.9305 -1.5556  0.3027
    2PC     C3514146   1.701   1.350   1.867 -0.1245 -0.2179 -0.2298
    2PC     H5A14147   1.598   1.334   1.835  0.5201  0.4720 -2.8964
    2PC     H5B14148   1.768   1.369   1.782  0.2259  0.7724  0.2562
    2PC     H5C14149   1.698   1.435   1.935 -1.9397  0.2805 -0.8725
    2PC     O3314150   2.256   1.473   1.970 -0.0558 -0.0902 -0.3456
    2PC     O3414151   2.379   1.265   1.969 -0.2461 -0.2915  0.7660
    2PC     O2114152   2.084   1.262   2.401  0.1364  0.4213 -0.3174
    2PC     C2114153   2.069   1.131   2.376 -0.5444  0.4798 -0.2257
    2PC     O2214154   2.160   1.054   2.353 -0.2209  0.8252 -0.1005
    3OL     C1214155   1.931   1.072   2.397 -0.4580  0.4200  0.1818
    3OL     H2R14156   1.877   1.085   2.303 -1.3566  0.6541  0.7176
    3OL     H2S14157   1.873   1.144   2.455 -0.0497  2.4064 -1.7231
    3OL     C1314158   1.937   0.930   2.454 -0.1906  0.4408  0.2056
    3OL     H3R14159   2.001   0.868   2.391  0.4040  1.1117  0.1355
    3OL     H3S14160   1.841   0.881   2.443  0.2064 -0.0064 -1.5642
    3OL     C1414161   1.977   0.938   2.602  0.1428  0.1441  0.1332
    3OL     H4R14162   2.068   0.997   2.611  0.5754 -0.2005 -1.5929
    3OL     H4S14163   2.010   0.840   2.638  0.1044  0.2631  0.4906
    3OL     C1514164   1.868   0.984   2.700 -0.2685  0.1224 -0.3112
    3OL     H5R14165   1.785   0.914   2.687  0.1416 -0.3689 -0.3164
    3OL     H5S14166   1.832   1.077   2.657  1.4173 -0.7269 -4.0349
    3OL     C1614167   1.919   1.004   2.843 -0.2617 -0.2966 -0.2546
    3OL     H6R14168   1.847   1.068   2.894  0.1073 -1.5403  1.9743
    3OL     H6S14169   2.015   1.057   2.847 -0.4039  0.1562 -1.9496
    3OL     C1714170   1.929   0.867   2.913  0.1286 -0.3372 -0.3831
    3OL     H7R14171   1.983   0.800   2.846 -0.7853 -0.4139 -1.0783
    3OL     H7S14172   1.828   0.825   2.916 -0.3639  0.7773 -0.4846
    3OL     C1814173   1.987   0.870   3.055 -0.0224 -0.3206 -0.3219
    3OL     H8R14174   1.977   0.769   3.097  2.3313 -0.3173  0.3478
    3OL     H8S14175   1.932   0.935   3.123 -0.2748 -0.3722 -0.4753
    3OL     C1914176   2.128   0.921   3.039 -0.0588 -0.1376 -0.0663
    3OL     H9R14177   2.184   0.866   2.963  0.9469 -0.0421  0.5987
    3OL    C11014178   2.186   1.024   3.097 -0.3502 -0.2636  0.4537
    3OL    H10R14179   2.291   1.050   3.084 -0.3846  1.1442  2.3673
    3OL    C11114180   2.115   1.112   3.197 -0.5191  0.1950 -0.0634
    3OL    H11R14181   2.009   1.119   3.173 -0.3069  1.8527 -0.6054
    3OL    H11S14182   2.147   1.216   3.189  0.8620 -0.2066 -0.0344
    3OL    C11214183   2.137   1.079   3.346  0.1428  0.2006 -0.1573
    3OL    H12R14184   2.238   1.109   3.375  0.5455  0.0367 -1.3356
    3OL    H12S14185   2.128   0.971   3.362 -2.0793  0.8935  5.0653
    3OL    C11314186   2.030   1.135   3.440 -0.0232 -0.1559 -0.1312
    3OL    H13R14187   2.030   1.086   3.538 -0.0712 -0.3324 -0.2196
    3OL    H13S14188   1.931   1.106   3.405 -0.8015 -0.7159  2.3415
    3OL    C11414189   2.030   1.287   3.464  0.4576 -0.2405  0.4467
    3OL    H14R14190   2.014   1.331   3.365 -0.1589 -3.0108 -0.7836
    3OL    H14S14191   2.126   1.315   3.507  0.2617 -1.2111  1.5542
    3OL    C11514192   1.920   1.334   3.559  0.2417 -0.0452  0.1029
    3OL    H15R14193   1.942   1.300   3.660 -1.1591 -0.6046  0.2415
    3OL    H15S14194   1.829   1.285   3.524 -0.7572  1.2961  0.7196
    3OL    C11614195   1.901   1.486   3.564 -0.4502 -0.1243  0.0285
    3OL    H16R14196   1.807   1.508   3.616  0.4568  1.4645  1.0638
    3OL    H16S14197   1.889   1.519   3.460  2.8591 -0.9024 -0.7098
    3OL    C11714198   2.022   1.550   3.633 -0.1184 -0.3917 -0.3009
    3OL    H17R14199   2.107   1.532   3.567 -0.5786  0.7011 -1.2214
    3OL    H17S14200   2.041   1.512   3.734  0.6014  1.5991  0.3742
    3OL    C11814201   2.016   1.702   3.653  0.5766 -0.4218  0.1928
    3OL    H18R14202   2.117   1.735   3.677  0.4496  0.3816 -0.3326
    3OL    H18S14203   1.953   1.729   3.738 -0.0686 -0.3808 -0.2923
    3OL    H18T14204   1.982   1.763   3.569 -0.2003  0.0212  0.8137
    1PA    C11614205   0.243   2.220   4.155 -0.6736 -0.6223 -0.3085
    1PA    H16R14206   0.202   2.162   4.237 -0.3587 -0.6764 -0.1894
    1PA    H16S14207   0.273   2.318   4.193  0.3809 -1.1729  0.3318
    1PA    H16T14208   0.333   2.168   4.120  0.1509  0.2159  0.5143
    1PA    C11514209   0.134   2.239   4.048 -0.8524 -0.6741 -0.1349
    1PA    H15R14210   0.054   2.164   4.052 -2.2129  0.6775 -1.1340
    1PA    H15S14211   0.078   2.330   4.070  1.2252  0.3063  1.3865
    1PA    C11414212   0.196   2.246   3.908 -0.0195 -0.0967  0.2536
    1PA    H14R14213   0.267   2.328   3.899  2.6860 -2.3857 -0.9067
    1PA    H14S14214   0.251   2.152   3.896 -1.5032 -0.9854  0.1322
    1PA    C11314215   0.087   2.262   3.801  0.0284 -0.6042  0.1276
    1PA    H13R14216   0.018   2.177   3.803 -1.5051  0.6068  0.9359
    1PA    H13S14217   0.031   2.353   3.822  0.5544  0.2386 -1.8787
    1PA    C11214218   0.133   2.258   3.654 -0.4615  0.0223 -0.0461
    1PA    H12R14219   0.192   2.169   3.635  0.1499  0.5171 -0.5339
    1PA    H12S14220   0.048   2.260   3.586 -0.8227  0.8136  0.4108
    1PA    C11114221   0.213   2.383   3.612 -0.3958 -0.1431 -0.4127
    1PA    H11R14222   0.161   2.477   3.633 -1.0529 -0.2225 -1.6179
    1PA    H11S14223   0.297   2.380   3.681 -1.6387  0.2957  1.2008
    1PA    C11014224   0.266   2.377   3.468  0.9233  0.5974  0.0247
    1PA    H10R14225   0.332   2.462   3.452 -0.0569  1.0486 -1.9363
    1PA    H10S14226   0.321   2.285   3.445 -0.2800 -0.1405 -0.0188
    1PA     C1914227   0.149   2.398   3.371  0.4813  0.2085  0.4645
    1PA     H9R14228   0.074   2.321   3.390  2.2245 -1.6944 -0.0058
    1PA     H9S14229   0.109   2.498   3.386 -1.1732 -0.4255  0.4631
    1PA     C1814230   0.206   2.385   3.229 -0.4202  0.1243  0.1030
    1PA     H8R14231   0.292   2.452   3.220 -1.5889  1.5731 -0.8540
    1PA     H8S14232   0.242   2.284   3.213  0.4044  0.5229 -0.6403
    1PA     C1714233   0.105   2.423   3.119 -0.0315  0.1130 -0.2609
    1PA     H7R14234   0.018   2.358   3.122 -1.4789  1.9157 -1.2718
    1PA     H7S14235   0.063   2.523   3.136 -0.6588 -0.0959 -0.5635
    1PA     C1614236   0.175   2.414   2.983  0.2116 -0.2409 -0.1148
    1PA     H6R14237   0.267   2.473   2.987 -2.1631  3.8855  4.1140
    1PA     H6S14238   0.209   2.312   2.966  0.4919 -0.1578 -0.0567
    1PA     C1514239   0.089   2.465   2.867 -0.8255 -0.2436  0.6380
    1PA     H5R14240   0.024   2.544   2.906 -2.0635 -2.2021  2.7570
    1PA     H5S14241   0.152   2.503   2.786 -1.9260  0.9211  0.2872
    1PA     C1414242  -0.002   2.364   2.795  0.5575 -0.7808 -0.3985
    1PA     H4R14243   0.064   2.282   2.764  3.2405  1.1987 -0.3280
    1PA     H4S14244  -0.067   2.329   2.876 -0.7169  1.0258 -0.5913
    1PA     C1314245  -0.086   2.427   2.684  0.2907 -0.5112 -0.0419
    1PA     H3R14246  -0.173   2.483   2.720  0.5220  1.7254 -2.6717
    1PA     H3S14247  -0.034   2.506   2.629 -2.0146  1.6070  0.5768
    1PA     C1214248  -0.130   2.329   2.575  0.4934  0.0865 -0.6681
    1PA     H2R14249  -0.047   2.265   2.543  1.8154  0.5043  1.6426
    1PA     H2S14250  -0.209   2.270   2.622  1.3076 -0.3377  0.2050
    2PC     C1114251  -0.195   2.388   2.453  0.0129  0.3587 -0.2836
    2PC     O1214252  -0.148   2.394   2.341 -0.2046  0.3035 -0.3788
    2PC     O1114253  -0.313   2.446   2.481  0.0067  0.0655  0.3120
    2PC      C114254  -0.371   2.529   2.378  0.5155  0.0922  0.0403
    2PC      HR14255  -0.437   2.602   2.425  0.4465  0.2680 -0.3266
    2PC      HS14256  -0.285   2.584   2.341 -1.1357  3.2316  0.5282
    2PC      C214257  -0.439   2.452   2.264  0.5461  0.1052  0.0129
    2PC      HX14258  -0.368   2.377   2.229  0.5262  0.0368  0.1169
    2PC      C314259  -0.484   2.538   2.145  0.5414 -0.2955 -0.2776
    2PC      HA14260  -0.520   2.636   2.178  1.6518 -0.1236  0.4787
    2PC      HB14261  -0.406   2.557   2.072  2.3294 -2.1183  1.0404
    2PC     O3114262  -0.589   2.469   2.075  0.0728  0.0557  0.0701
    2PC     P3114263  -0.653   2.545   1.949  0.1632 -0.0060 -0.0126
    2PC     O3214264  -0.779   2.619   2.014  0.4612  0.1784  0.3590
    2PC     C3114265  -0.791   2.762   2.011 -0.5977  0.0978  0.3844
    2PC     H1A14266  -0.701   2.798   2.062 -0.3715 -0.0083  0.0687
    2PC     H1B14267  -0.785   2.792   1.906  1.3461 -1.8997 -0.1458
    2PC     C3214268  -0.922   2.788   2.086 -0.2062  0.1439  1.0629
    2PC     H2A14269  -0.991   2.717   2.039  0.9534  1.0022 -2.2445
    2PC     H2B14270  -0.909   2.767   2.192  0.5615 -1.8218  0.6321
    2PC     N3114271  -0.967   2.930   2.075 -0.4419  0.0111  0.2235
    2PC     C3314272  -0.854   3.021   2.111 -0.2492  0.0113 -0.3766
    2PC     H3A14273  -0.898   3.120   2.099 -2.6117 -0.7866  1.1270
    2PC     H3B14274  -0.845   3.002   2.218 -2.1685 -4.4252 -0.8143
    2PC     H3C14275  -0.767   2.994   2.051 -1.6204 -0.9077 -2.0421
    2PC     C3414276  -1.025   2.962   1.940  0.1433 -0.1038 -0.0597
    2PC     H4A14277  -1.107   2.891   1.927  0.2869 -0.4303  0.7831
    2PC     H4B14278  -1.063   3.063   1.956 -1.7688 -1.0318  2.0315
    2PC     H4C14279  -0.954   2.950   1.859 -0.9990  0.3133 -1.1644
    2PC     C3514280  -1.074   2.956   2.177 -0.0024  0.7717  0.5005
    2PC     H5A14281  -1.030   2.945   2.276 -2.1879  1.3336  1.5988
    2PC     H5B14282  -1.162   2.891   2.171 -0.6766  1.4838  2.0616
    2PC     H5C14283  -1.097   3.062   2.162  1.0208  0.6064 -3.5070
    2PC     O3314284  -0.540   2.611   1.879  0.2266 -0.1410 -0.0404
    2PC     O3414285  -0.708   2.443   1.857  0.1107 -0.0673  0.0876
    2PC     O2114286  -0.557   2.400   2.329  0.3748  0.3013 -0.1376
    2PC     C2114287  -0.545   2.283   2.394 -0.2780  0.2486 -0.1031
    2PC     O2214288  -0.440   2.221   2.401 -0.1688  0.3462 -0.8001
    3OL     C1214289  -0.663   2.239   2.477 -0.2727  0.1626 -0.1408
    3OL     H2R14290  -0.713   2.161   2.419 -0.1995 -0.4024  0.5392
    3OL     H2S14291  -0.733   2.321   2.494 -0.3853  0.1731 -0.6413
    3OL     C1314292  -0.625   2.182   2.614 -1.9281  0.1829  0.3465
    3OL     H3R14293  -0.560   2.095   2.609  0.1897  1.7665 -1.6667
    3OL     H3S14294  -0.711   2.154   2.675  0.4485 -2.6079  2.7094
    3OL     C1414295  -0.550   2.294   2.689 -0.3886 -0.7025  0.1728
    3OL     H4R14296  -0.602   2.390   2.694  1.4940  0.2812  2.5658
    3OL     H4S14297  -0.458   2.307   2.633  1.4759 -3.3188  2.3450
    3OL     C1514298  -0.503   2.245   2.826 -0.1308 -0.8052  0.0484
    3OL     H5R14299  -0.413   2.295   2.861  0.6713 -1.4083 -1.1145
    3OL     H5S14300  -0.481   2.138   2.818  1.2205 -0.3896 -2.6000
    3OL     C1614301  -0.602   2.248   2.944 -0.1184  0.2276  0.0345
    3OL     H6R14302  -0.692   2.190   2.923 -0.2246  0.3151  0.2375
    3OL     H6S14303  -0.628   2.352   2.966  2.0445  0.9279 -0.4496
    3OL     C1714304  -0.544   2.195   3.076 -0.0947  0.4492  0.1139
    3OL     H7R14305  -0.449   2.246   3.093  0.3939 -0.1572 -0.7195
    3OL     H7S14306  -0.528   2.089   3.057  0.0730  0.3651  0.7255
    3OL     C1814307  -0.638   2.202   3.197 -0.5743  0.4157 -0.2500
    3OL     H8R14308  -0.727   2.144   3.173 -1.1490  0.3230  1.8505
    3OL     H8S14309  -0.658   2.306   3.222 -1.9339  0.3863 -1.1418
    3OL     C1914310  -0.582   2.136   3.321 -0.1965  0.6707 -0.2806
    3OL     H9R14311  -0.489   2.082   3.303 -0.5607 -0.5825  1.3140
    3OL    C11014312  -0.620   2.149   3.447  0.4586  0.2509 -0.0338
    3OL    H10R14313  -0.564   2.095   3.523  1.4521 -1.4881 -1.9055
    3OL    C11114314  -0.744   2.222   3.492  0.2628 -0.3850  0.4774
    3OL    H11R14315  -0.802   2.162   3.562  1.1676 -1.0469  0.6710
    3OL    H11S14316  -0.814   2.235   3.409  0.6692 -0.2253  0.1528
    3OL    C11214317  -0.717   2.360   3.554 -0.2365 -0.1561  0.1905
    3OL    H12R14318  -0.816   2.404   3.569 -0.1583  0.4073 -0.8541
    3OL    H12S14319  -0.667   2.426   3.483 -0.5974  1.1310  1.0970
    3OL    C11314320  -0.646   2.364   3.690 -0.0458 -0.0143  0.0851
    3OL    H13R14321  -0.595   2.461   3.700 -0.2656  0.3155 -1.6048
    3OL    H13S14322  -0.567   2.289   3.697  2.3032  2.1252 -1.3888
    3OL    C11414323  -0.741   2.350   3.809 -0.1700  0.0386 -0.0076
    3OL    H14R14324  -0.689   2.297   3.889 -1.3986  2.7664  2.7921
    3OL    H14S14325  -0.823   2.285   3.777 -0.4720  0.0395  0.7457
    3OL    C11514326  -0.807   2.479   3.859 -0.0016  0.0830  0.1011
    3OL    H15R14327  -0.841   2.529   3.768 -0.0650  0.3194  0.2518
    3OL    H15S14328  -0.733   2.552   3.891  1.1598  0.2131 -2.6514
    3OL    C11614329  -0.919   2.451   3.961  0.1175 -0.4977  0.0773
    3OL    H16R14330  -0.969   2.547   3.976  1.8351  0.4960 -0.2610
    3OL    H16S14331  -0.874   2.422   4.056  0.0200 -2.6842 -0.4955
    3OL    C11714332  -1.023   2.350   3.912  0.0673 -0.2313 -0.3771
    3OL    H17R14333  -0.982   2.248   3.905  1.3403  0.3641 -2.3958
    3OL    H17S14334  -1.073   2.378   3.820 -1.2637 -0.8222  0.1325
    3OL    C11814335  -1.129   2.341   4.023  0.1713  0.2007 -0.2415
    3OL    H18R14336  -1.101   2.284   4.112  1.2124  0.2260 -0.5397
    3OL    H18S14337  -1.211   2.290   3.973 -0.8698  0.5404  1.0516
    3OL    H18T14338  -1.159   2.441   4.053  2.4291  0.8788  0.0002
    1PA    C11614339   0.627   1.149   2.945  0.2092 -0.5615 -0.0539
    1PA    H16R14340   0.725   1.165   2.900 -0.3925  2.2199 -0.5801
    1PA    H16S14341   0.619   1.210   3.036  1.5225 -2.1640  1.2096
    1PA    H16T14342   0.553   1.185   2.873 -0.2386 -1.5251 -0.0870
    1PA    C11514343   0.604   1.005   2.993 -0.2311 -0.4754 -0.0015
    1PA    H15R14344   0.496   0.994   3.006 -0.7181 -0.6588 -3.2959
    1PA    H15S14345   0.627   0.936   2.911  2.2750  0.6664 -0.3391
    1PA    C11414346   0.674   0.968   3.124  0.2343 -0.1890 -0.1675
    1PA    H14R14347   0.782   0.974   3.104  0.5551  1.6269  1.7661
    1PA    H14S14348   0.660   1.027   3.215 -0.0254  0.5536 -0.6746
    1PA    C11314349   0.645   0.821   3.156  0.1776 -0.1260  0.0734
    1PA    H13R14350   0.539   0.802   3.175 -0.2582 -1.1659 -2.8415
    1PA    H13S14351   0.664   0.753   3.072  0.0434  0.2728 -0.2838
    1PA    C11214352   0.722   0.781   3.283 -0.0717 -0.0806  0.2395
    1PA    H12R14353   0.820   0.831   3.287 -0.4411  0.8101 -1.0746
    1PA    H12S14354   0.656   0.829   3.355  0.3519  0.8577  0.0209
    1PA    C11114355   0.713   0.632   3.318 -0.3006 -0.2133 -0.3756
    1PA    H11R14356   0.761   0.622   3.415 -0.3359  0.2891 -0.3014
    1PA    H11S14357   0.607   0.607   3.328 -0.7975  1.1929 -1.6889
    1PA    C11014358   0.782   0.538   3.218  1.1373  0.0897  0.3188
    1PA    H10R14359   0.731   0.544   3.122  1.5001 -1.6478 -0.0152
    1PA    H10S14360   0.884   0.572   3.198  1.4855 -0.6700  0.7521
    1PA     C1914361   0.783   0.392   3.266 -0.3208 -0.1200 -0.2351
    1PA     H9R14362   0.834   0.384   3.363 -1.3073 -0.3977  0.2729
    1PA     H9S14363   0.679   0.369   3.286 -0.8296  2.2313  0.2162
    1PA     C1814364   0.873   0.312   3.171 -0.0847  0.5046 -0.5499
    1PA     H8R14365   0.825   0.314   3.073 -2.9581  0.3755  0.7310
    1PA     H8S14366   0.970   0.358   3.152 -1.1948  3.2399 -0.0495
    1PA     C1714367   0.881   0.164   3.211 -0.4338  0.5759 -0.2093
    1PA     H7R14368   0.926   0.159   3.310  0.9152 -3.1917 -0.8398
    1PA     H7S14369   0.779   0.128   3.226 -0.7013  1.4008 -0.0067
    1PA     C1614370   0.970   0.066   3.133 -0.1720  0.4515  0.2429
    1PA     H6R14371   1.069   0.112   3.130  0.3733 -0.6926  0.1308
    1PA     H6S14372   0.973  -0.031   3.184 -1.0770  1.5076  2.4562
    1PA     C1514373   0.934   0.041   2.986  0.5728  0.2263  0.0978
    1PA     H5R14374   0.838  -0.011   2.981  0.1571  0.9819  0.1802
    1PA     H5S14375   0.915   0.129   2.926 -0.9737 -1.6255 -2.3134
    1PA     C1414376   1.039  -0.037   2.904  0.2826 -0.1544  0.0836
    1PA     H4R14377   1.135   0.014   2.911  0.8764 -1.1430 -0.6278
    1PA     H4S14378   1.056  -0.133   2.952 -0.3402  0.1858  1.0174
    1PA     C1314379   1.007  -0.052   2.755  0.1425  0.3070  0.0657
    1PA     H3R14380   0.929  -0.127   2.745  0.1093  0.4417 -0.8001
    1PA     H3S14381   0.975   0.043   2.711 -0.0759  0.6246  0.8993
    1PA     C1214382   1.129  -0.103   2.676 -0.1517 -0.4395  0.0961
    1PA     H2R14383   1.211  -0.035   2.697 -0.1320 -0.4533  0.0650
    1PA     H2S14384   1.158  -0.206   2.698  1.9748  0.3803  1.4096
    2PC     C1114385   1.100  -0.092   2.528 -0.0785 -0.4292  0.0826
    2PC     O1214386   1.024  -0.013   2.476  0.2425 -0.0201  0.2314
    2PC     O1114387   1.186  -0.179   2.471 -0.1872 -0.5518  0.1052
    2PC      C114388   1.184  -0.195   2.328  0.3617 -0.2268  0.0582
    2PC      HR14389   1.246  -0.277   2.291 -0.6515 -0.8648 -0.2855
    2PC      HS14390   1.081  -0.220   2.299  0.6716 -0.9803 -0.4120
    2PC      C214391   1.230  -0.069   2.255  0.2258 -0.0852  0.2142
    2PC      HX14392   1.179   0.020   2.294  0.6760  0.3981 -0.2661
    2PC      C314393   1.204  -0.077   2.104 -0.0128 -0.0605  0.2530
    2PC      HA14394   1.105  -0.120   2.089 -0.3552  0.7172  0.2346
    2PC      HB14395   1.206   0.023   2.059  2.3252  1.4034  3.1742
    2PC     O3114396   1.306  -0.160   2.045 -0.5881 -0.4136 -0.2452
    2PC     P3114397   1.307  -0.166   1.884  0.2882 -0.0435 -0.2558
    2PC     O3214398   1.423  -0.061   1.848  0.0567  0.1117 -0.5477
    2PC     C3114399   1.554  -0.106   1.888 -0.1561 -0.3001 -0.3074
    2PC     H1A14400   1.548  -0.131   1.994 -1.5107 -0.7447 -0.4599
    2PC     H1B14401   1.578  -0.199   1.835  0.4710 -0.2695 -0.0769
    2PC     C3214402   1.653   0.007   1.856 -0.1105 -0.2268  0.0907
    2PC     H2A14403   1.627   0.091   1.920  0.4976 -0.4298  0.6206
    2PC     H2B14404   1.754  -0.026   1.878 -0.7048 -0.4643  2.7930
    2PC     N3114405   1.659   0.048   1.712 -0.0347 -0.0450  0.1454
    2PC     C3314406   1.682  -0.069   1.621 -0.2159  0.0236  0.0108
    2PC     H3A14407   1.719  -0.045   1.521 -0.2254  1.7138  0.3803
    2PC     H3B14408   1.763  -0.130   1.660  2.0174  0.7642 -3.0612
    2PC     H3C14409   1.584  -0.117   1.620 -2.8126  4.6382  1.3445
    2PC     C3414410   1.532   0.117   1.670 -0.2036 -0.1004  0.5539
    2PC     H4A14411   1.509   0.184   1.753  1.7267 -0.4050  1.3850
    2PC     H4B14412   1.543   0.165   1.572 -1.5639  0.6926  0.7704
    2PC     H4C14413   1.450   0.045   1.666 -1.9070  1.7852  0.2143
    2PC     C3514414   1.777   0.138   1.697  0.0647 -0.2847 -0.5414
    2PC     H5A14415   1.857   0.084   1.748 -0.7289 -0.6154  0.3671
    2PC     H5B14416   1.767   0.233   1.749 -1.1879 -1.0075  0.6037
    2PC     H5C14417   1.779   0.149   1.588 -2.2671  2.7726 -0.4168
    2PC     O3314418   1.324  -0.300   1.823 -0.1165 -0.1249 -0.1918
    2PC     O3414419   1.177  -0.111   1.841 -0.0716 -0.5088  0.2271
    2PC     O2114420   1.370  -0.053   2.288  0.2257  0.3050  0.0410
    2PC     C2114421   1.431   0.060   2.249  0.2071  0.2572 -0.1290
    2PC     O2214422   1.377   0.149   2.188  0.4136  0.3086 -0.2355
    3OL     C1214423   1.576   0.073   2.288  0.3114 -0.5675 -0.2052
    3OL     H2R14424   1.618   0.154   2.228 -0.2378 -0.3170 -0.2602
    3OL     H2S14425   1.628  -0.018   2.259  0.1876  0.1210 -2.7679
    3OL     C1314426   1.601   0.100   2.437  0.4802 -0.5339 -0.2405
    3OL     H3R14427   1.545   0.183   2.480  0.9110 -0.3723  0.0287
    3OL     H3S14428   1.700   0.137   2.465 -0.1400  2.3081 -1.4989
    3OL     C1414429   1.572  -0.015   2.535 -0.7268  0.6780  0.8616
    3OL     H4R14430   1.620  -0.103   2.494  0.4897  1.0375  1.4721
    3OL     H4S14431   1.463  -0.024   2.539 -0.6701  0.0748  1.1483
    3OL     C1514432   1.638   0.017   2.670  0.5957  0.0359  0.3855
    3OL     H5R14433   1.600   0.117   2.690  0.2946  0.3169 -1.4544
    3OL     H5S14434   1.746   0.032   2.673  0.4912  0.6634  1.3870
    3OL     C1614435   1.596  -0.078   2.783 -0.2716 -0.2837 -0.1876
    3OL     H6R14436   1.644  -0.174   2.762 -2.0651 -1.1369 -0.5129
    3OL     H6S14437   1.489  -0.094   2.776 -0.2050 -0.5080 -0.7584
    3OL     C1714438   1.642  -0.028   2.921 -0.4013  0.0905 -0.2792
    3OL     H7R14439   1.750  -0.013   2.917  0.0463 -2.3597  0.6887
    3OL     H7S14440   1.624  -0.108   2.993 -1.2884  0.6541  0.1351
    3OL     C1814441   1.564   0.091   2.977 -0.1652  0.1683 -0.1136
    3OL     H8R14442   1.579   0.183   2.919  0.1903  0.2248  0.0653
    3OL     H8S14443   1.590   0.116   3.080  0.1832 -0.9420  0.0805
    3OL     C1914444   1.418   0.052   2.968 -0.2625  0.5183 -0.0710
    3OL     H9R14445   1.372   0.036   2.871  1.6761 -0.8924 -0.8183
    3OL    C11014446   1.350   0.029   3.079 -0.1370  0.6422  0.0332
    3OL    H10R14447   1.246  -0.001   3.069  0.0867 -0.3625  0.6241
    3OL    C11114448   1.397   0.043   3.222 -0.1691  0.8975  0.0189
    3OL    H11R14449   1.423   0.146   3.249 -0.0282  0.1184  3.1387
    3OL    H11S14450   1.490  -0.013   3.233  0.4287  1.5532 -1.4199
    3OL    C11214451   1.276   0.015   3.313  0.0578  0.2416  0.1221
    3OL    H12R14452   1.246  -0.090   3.313  0.6133  0.0740  0.5739
    3OL    H12S14453   1.197   0.084   3.281  1.6586  2.1504  0.0608
    3OL    C11314454   1.309   0.040   3.461  0.3433 -0.6135  0.2102
    3OL    H13R14455   1.343   0.142   3.482  1.8158 -1.3979  1.8538
    3OL    H13S14456   1.393  -0.018   3.498  0.3575 -0.3408  0.6011
    3OL    C11414457   1.185   0.011   3.547 -0.1087 -0.0759 -0.2413
    3OL    H14R14458   1.139  -0.085   3.525  0.3805 -0.5446  0.6974
    3OL    H14S14459   1.110   0.080   3.509  0.6876  3.1900  3.4733
    3OL    C11514460   1.202   0.040   3.697 -0.1117  0.1095 -0.2761
    3OL    H15R14461   1.098   0.031   3.731 -0.4226 -1.8184 -1.5788
    3OL    H15S14462   1.245   0.140   3.704  0.4622 -0.1991  0.9139
    3OL    C11614463   1.292  -0.062   3.769 -0.6277 -0.1850 -0.0426
    3OL    H16R14464   1.394  -0.049   3.734 -0.9642  2.9542 -0.1647
    3OL    H16S14465   1.249  -0.161   3.750  0.5596 -0.5546 -0.8643
    3OL    C11714466   1.303  -0.028   3.918 -0.2494  0.0983 -0.1349
    3OL    H17R14467   1.345   0.071   3.937 -0.3151 -0.1532  1.4537
    3OL    H17S14468   1.385  -0.092   3.955 -1.8183 -0.6768  2.2578
    3OL    C11814469   1.177  -0.059   4.001  0.2902  0.0303  0.6787
    3OL    H18R14470   1.093   0.008   3.978 -0.7096 -0.9587  1.4042
    3OL    H18S14471   1.199  -0.060   4.108  1.4506 -1.3789  0.4571
    3OL    H18T14472   1.138  -0.159   3.984 -1.0148  0.2883  1.9288
    1PA    C11614473   4.933   5.371   2.565 -0.1471 -0.9110  0.1506
    1PA    H16R14474   4.884   5.466   2.585 -1.7841 -2.1767  2.6634
    1PA    H16S14475   4.852   5.297   2.557 -1.1317  0.3223 -3.6720
    1PA    H16T14476   4.991   5.370   2.472  0.2461 -1.7581  0.3942
    1PA    C11514477   5.022   5.334   2.684  0.4633 -0.6515 -0.2221
    1PA    H15R14478   4.966   5.330   2.777  1.0804 -2.0188  0.1291
    1PA    H15S14479   5.041   5.229   2.659 -0.5274 -0.4666 -1.9358
    1PA    C11414480   5.155   5.411   2.682  0.1322 -0.0644  0.3279
    1PA    H14R14481   5.237   5.356   2.729 -0.7154 -1.6172  0.0468
    1PA    H14S14482   5.180   5.424   2.577 -1.6200 -1.0324 -0.2529
    1PA    C11314483   5.151   5.553   2.740 -0.4732 -0.0497  0.2608
    1PA    H13R14484   5.227   5.611   2.687 -0.7079 -0.7546 -0.8686
    1PA    H13S14485   5.056   5.604   2.722  0.4525  1.5883 -0.2049
    1PA    C11214486   5.183   5.538   2.890  0.6616  0.1942  0.0520
    1PA    H12R14487   5.097   5.496   2.942  0.4497 -0.1407 -0.5639
    1PA    H12S14488   5.269   5.475   2.912 -0.4976 -0.4942  3.0444
    1PA    C11114489   5.218   5.673   2.955 -0.1757  0.5654 -0.2436
    1PA    H11R14490   5.225   5.657   3.063  0.4597  0.5970 -0.2725
    1PA    H11S14491   5.320   5.707   2.934  1.4784 -2.7849  1.4983
    1PA    C11014492   5.107   5.776   2.933 -0.3082  0.5166  0.1813
    1PA    H10R14493   5.147   5.866   2.980  0.0580  0.1297  0.6102
    1PA    H10S14494   5.091   5.796   2.826 -1.1439  0.5232  0.3056
    1PA     C1914495   4.974   5.739   3.000 -0.0468 -0.1721  0.3283
    1PA     H9R14496   4.930   5.647   2.960 -1.5996 -0.7892  3.2329
    1PA     H9S14497   4.972   5.721   3.107  2.8994 -1.0201  0.3334
    1PA     C1814498   4.867   5.842   2.961  0.4019  0.3097  0.3581
    1PA     H8R14499   4.894   5.942   2.996  0.8716  0.0138  0.8583
    1PA     H8S14500   4.888   5.858   2.855  0.8890  1.9796  0.6681
    1PA     C1714501   4.723   5.797   2.986  0.4580  0.2246  0.5294
    1PA     H7R14502   4.708   5.792   3.094 -1.2252 -0.5269  0.2999
    1PA     H7S14503   4.651   5.867   2.942  1.0649  0.1679 -0.5890
    1PA     C1614504   4.686   5.659   2.928  0.3130  0.5422 -0.1471
    1PA     H6R14505   4.733   5.580   2.987  0.1961 -0.3826 -1.2695
    1PA     H6S14506   4.580   5.633   2.938  0.4019  0.6800  1.4084
    1PA     C1514507   4.718   5.633   2.780  0.4844  0.3282 -0.0720
    1PA     H5R14508   4.824   5.653   2.761  0.4178 -0.1764 -1.0356
    1PA     H5S14509   4.693   5.527   2.773  1.9423 -0.0806  0.4051
    1PA     C1414510   4.633   5.708   2.677  0.0512  0.3870  0.3262
    1PA     H4R14511   4.530   5.673   2.686  0.3812 -0.8789 -0.5624
    1PA     H4S14512   4.658   5.810   2.703 -1.1080  0.4915  1.1099
    1PA     C1314513   4.669   5.681   2.530  0.1258  0.0763  0.4004
    1PA     H3R14514   4.667   5.574   2.505 -0.3318 -0.2988  1.9051
    1PA     H3S14515   4.592   5.736   2.475 -0.4713  0.1927  1.3211
    1PA     C1214516   4.804   5.745   2.495 -0.0693  0.2299 -0.0758
    1PA     H2R14517   4.801   5.849   2.526  0.3433 -0.2658  1.7377
    1PA     H2S14518   4.890   5.702   2.546 -0.2523 -0.0633 -0.0105
    2PC     C1114519   4.814   5.734   2.345  0.6725 -0.4331  0.0190
    2PC     O1214520   4.760   5.653   2.273 -0.3618 -0.0947  0.4081
    2PC     O1114521   4.887   5.835   2.295  0.3812 -0.0096  0.4503
    2PC      C114522   4.901   5.855   2.154  0.2763  0.1877  0.4673
    2PC      HR14523   4.989   5.917   2.133  1.0716 -0.9341  0.4184
    2PC      HS14524   4.919   5.760   2.103  1.4220  0.4955  0.2728
    2PC      C214525   4.774   5.925   2.103  0.4343 -0.0891 -0.3348
    2PC      HX14526   4.682   5.869   2.118  0.5927  0.1968  2.1609
    2PC      C314527   4.801   5.953   1.955  0.1116 -0.4169 -0.4567
    2PC      HA14528   4.855   6.048   1.948 -1.2396  0.4356  0.1431
    2PC      HB14529   4.844   5.867   1.903  0.3702 -0.2899 -0.4576
    2PC     O3114530   4.668   5.967   1.903  0.0426 -0.4171 -0.2825
    2PC     P3114531   4.629   6.020   1.757  0.0484  0.0522 -0.1144
    2PC     O3214532   4.761   5.979   1.676  0.0928  0.0978 -0.0659
    2PC     C3114533   4.816   6.074   1.582 -0.6838  0.4936 -0.1286
    2PC     H1A14534   4.743   6.085   1.501 -0.5358 -1.0196 -0.4941
    2PC     H1B14535   4.829   6.172   1.629 -1.5389 -0.1392  1.5252
    2PC     C3214536   4.946   6.018   1.523 -0.4143  0.6278  0.3330
    2PC     H2A14537   5.003   5.980   1.609  0.8109 -1.1906 -1.2010
    2PC     H2B14538   4.938   5.935   1.453  0.3857  2.0344 -1.4793
    2PC     N3114539   5.038   6.116   1.457 -0.1482  0.4006  0.3659
    2PC     C3314540   5.159   6.035   1.420 -0.5754  0.0655 -0.3284
    2PC     H3A14541   5.223   5.998   1.500 -1.5398 -1.2942 -0.1583
    2PC     H3B14542   5.123   5.942   1.378  2.2462 -2.1091  1.6871
    2PC     H3C14543   5.213   6.093   1.344 -0.9264  1.4749  0.4502
    2PC     C3414544   4.968   6.166   1.335 -1.0056 -0.0840  0.6440
    2PC     H4A14545   5.036   6.241   1.292  0.1685 -1.9027 -0.8219
    2PC     H4B14546   4.958   6.080   1.269  0.5367  0.0300  0.2057
    2PC     H4C14547   4.873   6.210   1.365 -1.1208  0.4179 -0.3953
    2PC     C3514548   5.087   6.226   1.546  0.2515  0.6577 -0.1677
    2PC     H5A14549   5.097   6.183   1.646 -0.7631 -0.0074 -0.3361
    2PC     H5B14550   5.014   6.308   1.550  0.6216  1.0239 -0.6988
    2PC     H5C14551   5.185   6.265   1.519  0.3815  0.3572 -0.1219
    2PC     O3314552   4.507   5.960   1.697 -0.1584  0.3598 -0.0057
    2PC     O3414553   4.594   6.164   1.757  0.3505  0.1267  0.1725
    2PC     O2114554   4.759   6.049   2.176 -0.5879 -0.4119  0.0265
    2PC     C2114555   4.665   6.061   2.271 -0.3091  0.0456  0.2467
    2PC     O2214556   4.577   5.984   2.300 -0.1394 -0.1952  0.1269
    3OL     C1214557   4.687   6.190   2.346  0.3974 -0.1751  0.4276
    3OL     H2R14558   4.678   6.276   2.279 -1.1067 -0.5577  0.1010
    3OL     H2S14559   4.793   6.191   2.374  0.2958  0.4426  0.8191
    3OL     C1314560   4.592   6.207   2.465  0.2380  0.3390  0.2312
    3OL     H3R14561   4.491   6.194   2.426  0.3009  0.4683  0.0209
    3OL     H3S14562   4.592   6.309   2.504  0.2174  0.8380 -1.0183
    3OL     C1414563   4.619   6.098   2.570 -0.2085 -0.0872 -0.0913
    3OL     H4R14564   4.659   6.005   2.529  0.4898  0.7201 -1.2910
    3OL     H4S14565   4.521   6.075   2.613 -0.1446  0.2911  0.2642
    3OL     C1514566   4.707   6.143   2.687  0.0217  0.3296 -0.4217
    3OL     H5R14567   4.795   6.196   2.651  0.9532 -0.4500  0.6029
    3OL     H5S14568   4.745   6.054   2.739 -1.6927  0.0091  0.3370
    3OL     C1614569   4.642   6.238   2.788  0.1093 -0.0073 -0.0435
    3OL     H6R14570   4.535   6.216   2.795  0.0202 -0.1609 -1.5732
    3OL     H6S14571   4.639   6.340   2.749 -1.7279  0.0348  0.1004
    3OL     C1714572   4.705   6.235   2.928 -0.0443 -0.0834  0.0239
    3OL     H7R14573   4.693   6.143   2.985 -1.1780  0.2702  0.3976
    3OL     H7S14574   4.653   6.316   2.980  0.9188  1.2830 -1.0718
    3OL     C1814575   4.857   6.256   2.928 -0.0386 -0.1132 -0.4244
    3OL     H8R14576   4.906   6.181   2.866  1.2919  1.3319 -1.1779
    3OL     H8S14577   4.892   6.241   3.030  0.7915 -0.4707 -0.7600
    3OL     C1914578   4.896   6.395   2.885 -0.1205  0.1185  0.2265
    3OL     H9R14579   4.911   6.400   2.777 -0.8886  2.3204  0.1786
    3OL    C11014580   4.895   6.505   2.958 -0.5486  0.4185 -0.2272
    3OL    H10R14581   4.927   6.592   2.902 -0.8460  0.6947  0.0290
    3OL    C11114582   4.870   6.527   3.105  0.2597 -0.1954  0.0106
    3OL    H11R14583   4.859   6.433   3.160 -0.5163  0.2018  0.5572
    3OL    H11S14584   4.766   6.562   3.113  0.1170 -0.4304 -0.7633
    3OL    C11214585   4.973   6.621   3.168  0.0263  0.4704 -0.5766
    3OL    H12R14586   4.985   6.702   3.096  1.4731 -0.5707 -1.5776
    3OL    H12S14587   5.065   6.561   3.177 -2.1332 -3.0982 -0.2209
    3OL    C11314588   4.916   6.674   3.300 -0.2106 -0.0255 -0.4777
    3OL    H13R14589   4.897   6.597   3.376 -1.2976  0.7954  0.1116
    3OL    H13S14590   4.817   6.716   3.278 -0.8672 -2.5056 -2.8220
    3OL    C11414591   5.005   6.779   3.368 -0.6359 -0.3873  0.6678
    3OL    H14R14592   4.957   6.827   3.453  1.8536 -0.7390  2.3671
    3OL    H14S14593   5.014   6.856   3.291  2.1677 -1.7314 -0.4831
    3OL    C11514594   5.139   6.719   3.413 -0.3923 -0.2994  0.0696
    3OL    H15R14595   5.215   6.797   3.418 -0.0820 -0.4962 -1.2571
    3OL    H15S14596   5.186   6.660   3.334  0.6581  1.3663 -0.5898
    3OL    C11614597   5.135   6.647   3.549 -0.1664  0.3078  0.3985
    3OL    H16R14598   5.100   6.548   3.521  0.7412  0.1839 -0.3327
    3OL    H16S14599   5.072   6.690   3.627  2.3398  0.9590  2.1903
    3OL    C11714600   5.276   6.642   3.609  0.0258  0.2985 -0.0451
    3OL    H17R14601   5.315   6.739   3.640  1.0621 -0.0530 -0.2046
    3OL    H17S14602   5.356   6.611   3.542  0.7368  1.1024  0.4076
    3OL    C11814603   5.289   6.555   3.735 -0.4205 -0.2999 -0.4094
    3OL    H18R14604   5.391   6.551   3.773 -1.3246  0.8829  2.3923
    3OL    H18S14605   5.266   6.452   3.706 -0.4723 -0.1714 -0.8340
    3OL    H18T14606   5.227   6.578   3.823  0.3846 -0.5457  0.2306
    1PA    C11614607   5.732   4.823   3.376  0.6243 -0.0600  0.3588
    1PA    H16R14608   5.640   4.875   3.351  0.3271 -0.9483 -0.4447
    1PA    H16S14609   5.783   4.886   3.449  1.2201  2.6995 -2.2209
    1PA    H16T14610   5.711   4.719   3.401  0.5869  0.0558  0.8042
    1PA    C11514611   5.812   4.810   3.245  0.7326 -0.1320  0.4315
    1PA    H15R14612   5.900   4.749   3.266  0.4152 -0.5823  0.4866
    1PA    H15S14613   5.758   4.756   3.166  1.9018 -0.2966 -0.2779
    1PA    C11414614   5.842   4.947   3.183 -0.7617 -0.2164 -0.5265
    1PA    H14R14615   5.745   4.993   3.163 -1.3342 -0.7553  0.8447
    1PA    H14S14616   5.902   5.009   3.249 -0.5833  1.2576 -2.0132
    1PA    C11314617   5.926   4.942   3.054  0.1751 -0.2786  0.0778
    1PA    H13R14618   6.030   4.929   3.084  0.0214  0.8803  1.2049
    1PA    H13S14619   5.902   4.858   2.988 -1.7770 -0.5480  1.0573
    1PA    C11214620   5.907   5.079   2.988 -0.0807 -0.1981  0.3166
    1PA    H12R14621   5.882   5.156   3.062 -1.9979 -1.8104  1.4727
    1PA    H12S14622   5.994   5.108   2.929  0.5940 -1.1488  0.8262
    1PA    C11114623   5.796   5.075   2.881  0.2352  0.0999 -0.0236
    1PA    H11R14624   5.815   4.982   2.828 -1.4664 -0.8053  0.8782
    1PA    H11S14625   5.700   5.050   2.925 -0.1320 -0.9058 -1.3588
    1PA    C11014626   5.785   5.200   2.793  0.3367  0.0042 -0.1720
    1PA    H10R14627   5.884   5.237   2.767 -0.8119  1.5668 -2.6932
    1PA    H10S14628   5.732   5.167   2.703  1.8578  0.5819 -1.3321
    1PA     C1914629   5.699   5.312   2.853  0.3204 -0.1616  0.1140
    1PA     H9R14630   5.611   5.268   2.901  0.5509  0.1300  0.8214
    1PA     H9S14631   5.761   5.350   2.935  0.7482 -1.5479  0.4535
    1PA     C1814632   5.662   5.429   2.761 -0.2808 -0.2169  0.2846
    1PA     H8R14633   5.588   5.480   2.824 -1.8582 -1.5284 -0.4247
    1PA     H8S14634   5.747   5.496   2.743 -2.0248  1.8891 -0.5723
    1PA     C1714635   5.585   5.390   2.634  0.1239  0.1826 -0.0861
    1PA     H7R14636   5.641   5.329   2.563 -0.8088 -0.5647 -0.1925
    1PA     H7S14637   5.503   5.325   2.665  0.4908 -0.2900 -0.1055
    1PA     C1614638   5.540   5.517   2.561  0.3440  0.2165 -0.1648
    1PA     H6R14639   5.473   5.573   2.627  0.2222 -0.5798  0.3920
    1PA     H6S14640   5.627   5.578   2.534 -1.6671  3.1425 -0.5658
    1PA     C1514641   5.462   5.478   2.434 -0.2342  0.1692  0.2025
    1PA     H5R14642   5.523   5.409   2.376  0.3605 -0.3723  1.4226
    1PA     H5S14643   5.376   5.418   2.465 -1.2593  1.0561 -0.8444
    1PA     C1414644   5.415   5.600   2.354 -0.2000  0.3905  0.5163
    1PA     H4R14645   5.332   5.650   2.405  0.4501  1.0325  0.9629
    1PA     H4S14646   5.499   5.665   2.329  0.2578 -0.3494  0.0670
    1PA     C1314647   5.351   5.540   2.228  0.2869  0.4819  0.2219
    1PA     H3R14648   5.426   5.499   2.160 -1.6181 -0.0631 -1.6563
    1PA     H3S14649   5.284   5.457   2.250 -0.7297  1.1393 -0.2792
    1PA     C1214650   5.270   5.629   2.132 -0.2206 -0.5608 -0.3359
    1PA     H2R14651   5.255   5.568   2.043 -1.2538 -0.6637 -0.1035
    1PA     H2S14652   5.182   5.667   2.183 -0.9969 -2.7989  0.1071
    2PC     C1114653   5.349   5.742   2.070 -1.0792  0.3711  0.2442
    2PC     O1214654   5.431   5.810   2.128 -0.3204 -0.2778 -0.0520
    2PC     O1114655   5.340   5.752   1.937  0.5638  0.1515  0.0962
    2PC      C114656   5.427   5.831   1.854 -0.2097  0.7003 -0.2094
    2PC      HR14657   5.524   5.846   1.902 -0.1626 -0.2644  0.0279
    2PC      HS14658   5.440   5.770   1.765  0.8018 -0.1317  0.4749
    2PC      C214659   5.361   5.968   1.833 -0.3452  0.6316 -0.2251
    2PC      HX14660   5.258   5.956   1.797 -0.4901 -0.2532  0.4251
    2PC      C314661   5.439   6.051   1.731 -0.0489  0.0818 -0.4485
    2PC      HA14662   5.522   6.092   1.789 -0.3338 -0.2695  0.2050
    2PC      HB14663   5.487   5.980   1.662  0.1511  0.3887 -0.6311
    2PC     O3114664   5.360   6.155   1.671 -0.3183 -0.1193 -0.4412
    2PC     P3114665   5.441   6.258   1.579  0.1303 -0.2402 -0.1803
    2PC     O3214666   5.546   6.316   1.686  0.2718 -0.2920 -0.2909
    2PC     C3114667   5.495   6.401   1.790  0.1286 -1.1465  0.3585
    2PC     H1A14668   5.466   6.491   1.735  4.3612 -0.7953 -1.7422
    2PC     H1B14669   5.408   6.353   1.835 -1.1829 -0.0493 -0.8708
    2PC     C3214670   5.596   6.442   1.898  0.0120 -0.0966  0.0877
    2PC     H2A14671   5.672   6.512   1.864  2.7332 -2.7505  0.2749
    2PC     H2B14672   5.548   6.490   1.983 -2.2588 -0.6107 -0.8166
    2PC     N3114673   5.682   6.335   1.960 -0.3692 -0.3444  0.1953
    2PC     C3314674   5.603   6.225   2.024 -0.5475 -0.3454 -0.0221
    2PC     H3A14675   5.663   6.134   2.029 -1.0586 -0.8719 -2.3013
    2PC     H3B14676   5.585   6.256   2.127 -0.6046  2.5507 -0.8098
    2PC     H3C14677   5.513   6.208   1.966 -0.1016 -0.9204 -0.5677
    2PC     C3414678   5.774   6.286   1.852  0.0865  0.4385  0.2210
    2PC     H4A14679   5.727   6.232   1.770  2.2485 -0.0926 -0.7438
    2PC     H4B14680   5.833   6.367   1.808 -0.8043  1.7988  1.4240
    2PC     H4C14681   5.843   6.213   1.896 -0.2772 -1.3999 -2.1020
    2PC     C3514682   5.776   6.403   2.055 -0.1577  0.1272 -0.3448
    2PC     H5A14683   5.707   6.446   2.128 -1.0020  0.2600 -1.2022
    2PC     H5B14684   5.832   6.478   1.999  5.1219 -0.4153  3.4709
    2PC     H5C14685   5.839   6.329   2.104  0.2530  0.2500 -0.6790
    2PC     O3314686   5.521   6.179   1.482 -0.1737  0.1519 -0.7514
    2PC     O3414687   5.377   6.360   1.494  0.0689 -0.0138  0.1341
    2PC     O2114688   5.360   6.051   1.950  0.1518 -0.2641  0.4304
    2PC     C2114689   5.256   6.044   2.035 -0.2378 -0.0545 -0.0235
    2PC     O2214690   5.147   6.001   2.003 -0.1699  0.1900 -0.6030
    3OL     C1214691   5.294   6.101   2.169  0.3299 -0.0155 -0.2006
    3OL     H2R14692   5.363   6.186   2.165  1.3304 -0.8285 -0.8483
    3OL     H2S14693   5.347   6.016   2.212  0.6823  0.4686  0.3364
    3OL     C1314694   5.170   6.128   2.255  0.4245 -0.3002  0.0246
    3OL     H3R14695   5.109   6.038   2.268 -0.4073 -0.0730 -2.0572
    3OL     H3S14696   5.102   6.195   2.203 -1.9788 -1.4065  1.5596
    3OL     C1414697   5.201   6.186   2.394  0.2886  0.4051 -0.2378
    3OL     H4R14698   5.256   6.280   2.388  0.8186  0.0486 -1.1563
    3OL     H4S14699   5.270   6.113   2.436 -0.7985 -0.1287  0.6865
    3OL     C1514700   5.076   6.193   2.482  0.2050  0.1939 -0.3388
    3OL     H5R14701   5.042   6.092   2.506 -0.1516  0.0991 -1.2053
    3OL     H5S14702   4.996   6.241   2.425 -0.8151  0.0554  0.9185
    3OL     C1614703   5.104   6.272   2.611  0.2614 -0.1652 -0.1293
    3OL     H6R14704   5.012   6.290   2.667  0.1312  1.7595 -0.8720
    3OL     H6S14705   5.134   6.373   2.580 -1.1649 -0.1345 -1.5516
    3OL     C1714706   5.210   6.200   2.695  0.2284  0.0222  0.0741
    3OL     H7R14707   5.310   6.202   2.651  0.1472  0.1578 -0.1072
    3OL     H7S14708   5.184   6.094   2.706 -0.8177  0.2647 -0.0018
    3OL     C1814709   5.240   6.256   2.835  0.1491  0.1806  0.0274
    3OL     H8R14710   5.143   6.266   2.884 -0.2218 -1.7212 -0.2224
    3OL     H8S14711   5.301   6.346   2.848  3.5420 -1.9448 -0.0443
    3OL     C1914712   5.319   6.151   2.910 -0.1503  0.3413  0.5714
    3OL     H9R14713   5.268   6.057   2.926  0.0468  0.0075 -0.6283
    3OL    C11014714   5.444   6.169   2.947  0.0243  0.6113 -0.1265
    3OL    H10R14715   5.487   6.087   3.003 -0.5147 -0.4338 -1.2062
    3OL    C11114716   5.542   6.279   2.914  0.1165  0.4804 -0.2891
    3OL    H11R14717   5.488   6.357   2.859  0.1391  1.1874  0.6676
    3OL    H11S14718   5.626   6.240   2.856  0.2510 -2.1637  1.5181
    3OL    C11214719   5.597   6.344   3.042 -0.1269 -0.5666  0.3490
    3OL    H12R14720   5.662   6.427   3.018 -0.7220 -0.7149 -1.9952
    3OL    H12S14721   5.665   6.276   3.094  0.8238  0.2140  0.1346
    3OL    C11314722   5.484   6.400   3.130  0.1951 -0.0426  0.4274
    3OL    H13R14723   5.413   6.321   3.153 -1.4384  0.8725 -1.1937
    3OL    H13S14724   5.425   6.476   3.078  1.5015  0.5238 -0.2913
    3OL    C11414725   5.541   6.463   3.258 -0.2358  0.7605  0.2323
    3OL    H14R14726   5.463   6.528   3.298 -1.2865 -0.6539  0.5449
    3OL    H14S14727   5.628   6.524   3.234 -0.7935  1.5589  0.2143
    3OL    C11514728   5.580   6.355   3.359 -0.0415  0.3430 -0.2817
    3OL    H15R14729   5.651   6.278   3.328 -0.5412 -0.6155  0.8542
    3OL    H15S14730   5.485   6.306   3.383 -1.1605  1.6908 -1.7468
    3OL    C11614731   5.634   6.418   3.488  0.2228  0.1112 -0.2778
    3OL    H16R14732   5.562   6.486   3.535  0.6635  0.4776 -0.1225
    3OL    H16S14733   5.720   6.482   3.464  1.7664 -2.0145 -0.7045
    3OL    C11714734   5.677   6.317   3.596  0.1360  0.4990  0.1248
    3OL    H17R14735   5.609   6.232   3.606  0.3415 -0.0164 -2.2463
    3OL    H17S14736   5.689   6.366   3.692  0.3359 -1.5517  1.1955
    3OL    C11814737   5.815   6.259   3.561  0.1378  0.4743  0.1726
    3OL    H18R14738   5.815   6.203   3.467  0.3537 -1.3244  1.2140
    3OL    H18S14739   5.841   6.185   3.636  1.0826 -0.1263 -0.7269
    3OL    H18T14740   5.887   6.341   3.556 -0.9478  1.4776  0.2728
    1PA    C11614741   2.693   4.522   3.641 -0.2642  0.3037 -0.4404
    1PA    H16R14742   2.593   4.506   3.684 -0.2439  0.4252 -0.3431
    1PA    H16S14743   2.710   4.630   3.632  0.8997  0.1473 -0.2133
    1PA    H16T14744   2.769   4.494   3.714  2.4425  1.2414 -2.7347
    1PA    C11514745   2.690   4.452   3.505 -0.2621 -0.5105 -0.0269
    1PA    H15R14746   2.640   4.355   3.509 -1.7911  0.2871  1.6508
    1PA    H15S14747   2.634   4.509   3.431 -0.1608 -0.2030  0.1326
    1PA    C11414748   2.832   4.426   3.454  0.0035 -0.2716  0.5813
    1PA    H14R14749   2.899   4.511   3.440 -1.4963  0.8959  0.2343
    1PA    H14S14750   2.880   4.366   3.533 -0.5007 -2.0636 -0.4132
    1PA    C11314751   2.827   4.338   3.328  0.0808 -0.1183  0.4716
    1PA    H13R14752   2.770   4.246   3.339  3.3222 -2.4336 -0.4914
    1PA    H13S14753   2.787   4.393   3.243  1.4277  0.4233  0.1492
    1PA    C11214754   2.966   4.290   3.282  0.0625  0.2148  0.0548
    1PA    H12R14755   3.025   4.380   3.267  1.7198 -1.3210 -3.6980
    1PA    H12S14756   3.007   4.238   3.369 -0.4875 -1.6568 -0.7487
    1PA    C11114757   2.975   4.204   3.156  0.1602 -0.4667  0.5182
    1PA    H11R14758   2.909   4.238   3.076 -0.7329 -5.2239 -1.1165
    1PA    H11S14759   3.073   4.217   3.109 -0.5589 -1.5443 -1.4093
    1PA    C11014760   2.948   4.054   3.177  0.0017 -0.4905  0.1575
    1PA    H10R14761   3.026   4.007   3.237 -0.2683 -1.2247 -0.0652
    1PA    H10S14762   2.858   4.057   3.238  1.8007 -0.7189  2.9870
    1PA     C1914763   2.909   3.989   3.044  1.0515  0.2347 -0.5249
    1PA     H9R14764   2.808   4.020   3.016  0.0422  0.2224  2.6873
    1PA     H9S14765   2.974   4.030   2.966 -1.3719  2.0010 -1.7419
    1PA     C1814766   2.910   3.836   3.060  0.3809  0.3046  0.2530
    1PA     H8R14767   3.006   3.805   3.104  0.3932 -0.1190 -0.0619
    1PA     H8S14768   2.828   3.800   3.122 -0.2557 -0.1085 -0.7973
    1PA     C1714769   2.891   3.781   2.918  0.2086  0.5892  0.1661
    1PA     H7R14770   2.792   3.811   2.881  0.1156 -0.0272 -0.1015
    1PA     H7S14771   2.968   3.814   2.849  1.6770 -1.6713  0.6308
    1PA     C1614772   2.886   3.628   2.921  0.6404  0.5740  0.1296
    1PA     H6R14773   2.978   3.583   2.958 -0.3480 -1.5949  0.1172
    1PA     H6S14774   2.798   3.590   2.973  0.7554 -0.0756 -0.1363
    1PA     C1514775   2.869   3.589   2.773 -0.7353 -0.3825  0.5120
    1PA     H5R14776   2.782   3.637   2.728 -0.0979 -1.8213 -2.5276
    1PA     H5S14777   2.962   3.619   2.723 -1.0328 -1.6136 -0.8400
    1PA     C1414778   2.851   3.438   2.756 -0.2665 -0.3585 -0.2508
    1PA     H4R14779   2.918   3.390   2.828 -0.7851  0.1546  0.5901
    1PA     H4S14780   2.754   3.404   2.792 -0.0255  1.5405  2.5100
    1PA     C1314781   2.879   3.396   2.611 -0.8319 -0.5359 -0.3115
    1PA     H3R14782   2.799   3.429   2.544 -1.1010  2.1829  1.2075
    1PA     H3S14783   2.977   3.426   2.572  0.4942 -3.3966  0.5557
    1PA     C1214784   2.892   3.243   2.607  0.2485 -0.4742  0.3101
    1PA     H2R14785   2.946   3.216   2.516  0.2982 -0.8501  0.4516
    1PA     H2S14786   2.944   3.201   2.693  1.1715  1.2766  0.6472
    2PC     C1114787   2.754   3.182   2.597  0.0679 -0.0437  0.1157
    2PC     O1214788   2.680   3.153   2.688  0.3954 -0.0433  0.3872
    2PC     O1114789   2.727   3.148   2.470 -0.0424 -0.0252  0.1341
    2PC      C114790   2.590   3.130   2.430 -0.0324 -0.3429  0.2354
    2PC      HR14791   2.594   3.078   2.335  1.4315 -0.6953  0.4666
    2PC      HS14792   2.528   3.069   2.495 -0.6313 -0.8433 -0.7901
    2PC      C214793   2.512   3.261   2.411 -0.2796 -0.5709 -0.3009
    2PC      HX14794   2.410   3.238   2.377  0.0382 -2.5778 -0.0158
    2PC      C314795   2.588   3.335   2.300 -0.1187  0.4806  0.5036
    2PC      HA14796   2.672   3.382   2.352  0.0553  1.5230 -0.6624
    2PC      HB14797   2.627   3.267   2.224 -2.5020  1.0702 -1.3682
    2PC     O3114798   2.519   3.444   2.236 -0.0399  0.2483  0.0163
    2PC     P3114799   2.599   3.520   2.120 -0.1056  0.0296 -0.1707
    2PC     O3214800   2.464   3.542   2.037 -0.2264  0.5888  0.1701
    2PC     C3114801   2.464   3.630   1.923  0.2112 -0.0902 -0.3635
    2PC     H1A14802   2.476   3.734   1.953 -0.9158  0.3244 -1.2833
    2PC     H1B14803   2.541   3.611   1.848 -1.3534  0.2444 -2.1389
    2PC     C3214804   2.328   3.636   1.853  0.0267  0.0812  0.0055
    2PC     H2A14805   2.303   3.536   1.817 -1.2061 -0.2735  1.7113
    2PC     H2B14806   2.250   3.676   1.918 -1.5875  0.0251 -1.8057
    2PC     N3114807   2.323   3.733   1.739 -0.0872  0.1395  0.0602
    2PC     C3314808   2.354   3.872   1.787 -0.8934  0.5540 -0.5728
    2PC     H3A14809   2.349   3.946   1.708 -0.0558  0.4648 -0.7262
    2PC     H3B14810   2.288   3.904   1.867  0.6964 -0.9680  1.4710
    2PC     H3C14811   2.456   3.867   1.827 -1.1153 -2.1994 -0.1046
    2PC     C3414812   2.427   3.697   1.638 -0.6870 -0.5119 -0.3308
    2PC     H4A14813   2.520   3.743   1.670  0.0801 -2.6867  0.7434
    2PC     H4B14814   2.451   3.590   1.635  0.2144 -0.3162 -0.3203
    2PC     H4C14815   2.394   3.741   1.544  0.8663  0.6688 -0.3646
    2PC     C3514816   2.184   3.738   1.681 -0.0648 -0.3269 -0.0368
    2PC     H5A14817   2.118   3.794   1.747  0.9934  0.7097  0.1954
    2PC     H5B14818   2.148   3.637   1.663 -1.3800 -0.5093  3.0525
    2PC     H5C14819   2.201   3.792   1.588  0.7066  0.2488  0.4188
    2PC     O3314820   2.643   3.653   2.167  0.1652 -0.0387 -0.2264
    2PC     O3414821   2.707   3.445   2.051  0.1926  0.1535  0.1583
    2PC     O2114822   2.506   3.333   2.535  0.1753  0.1997 -0.7213
    2PC     C2114823   2.421   3.294   2.631  0.5656  0.1026 -0.4145
    2PC     O2214824   2.344   3.201   2.618  0.2854  0.2813 -0.0634
    3OL     C1214825   2.435   3.383   2.753  1.1763 -0.3536 -0.1442
    3OL     H2R14826   2.512   3.331   2.810  0.4149 -0.7340  0.5491
    3OL     H2S14827   2.346   3.365   2.814  0.8106  0.7556 -0.3244
    3OL     C1314828   2.458   3.533   2.728 -0.3773 -0.0920 -0.1033
    3OL     H3R14829   2.378   3.586   2.675 -0.7000  1.2305  1.6052
    3OL     H3S14830   2.547   3.550   2.667  0.4870  1.3937  1.4789
    3OL     C1414831   2.474   3.598   2.866  0.2913 -0.3362 -0.0640
    3OL     H4R14832   2.569   3.564   2.908 -0.3533 -0.9372  0.9361
    3OL     H4S14833   2.390   3.575   2.931 -0.5852  0.0634 -1.0231
    3OL     C1514834   2.489   3.749   2.844 -0.6255 -0.2213  0.0723
    3OL     H5R14835   2.397   3.791   2.802 -1.4600  0.8989  2.7827
    3OL     H5S14836   2.577   3.761   2.780  0.8693  0.3265  2.1526
    3OL     C1614837   2.507   3.822   2.978  0.2585 -0.0466 -0.1362
    3OL     H6R14838   2.549   3.921   2.961  1.0395  0.2408  2.9773
    3OL     H6S14839   2.582   3.769   3.037 -0.4444  0.1552  0.9508
    3OL     C1714840   2.376   3.835   3.056  0.6181  0.0711  0.4493
    3OL     H7R14841   2.407   3.864   3.157 -1.0471  2.0110  0.4644
    3OL     H7S14842   2.303   3.755   3.051 -0.0131  0.7134 -1.4361
    3OL     C1814843   2.303   3.958   3.000  0.1838 -0.1987  0.4233
    3OL     H8R14844   2.268   3.941   2.897 -0.2360  0.5267  0.4375
    3OL     H8S14845   2.375   4.040   2.999  3.3837 -2.7505 -2.1484
    3OL     C1914846   2.187   3.994   3.089  0.0940  0.4338  0.0575
    3OL     H9R14847   2.199   3.952   3.188 -0.2830  0.1721 -0.0043
    3OL    C11014848   2.089   4.079   3.061  0.0420  0.1250 -0.7170
    3OL    H10R14849   2.019   4.106   3.140  1.4405  2.5538 -0.2161
    3OL    C11114850   2.069   4.165   2.939 -0.1213 -0.0677 -0.8272
    3OL    H11R14851   2.140   4.144   2.859  1.7846  0.4646  0.6747
    3OL    H11S14852   2.080   4.271   2.961  0.0222 -0.2450 -0.0536
    3OL    C11214853   1.935   4.130   2.872 -0.2683  0.3796 -0.7722
    3OL    H12R14854   1.916   4.022   2.876 -0.3109  0.3180 -2.1611
    3OL    H12S14855   1.938   4.153   2.765  0.7310  0.8709 -0.6510
    3OL    C11314856   1.825   4.206   2.946  0.0671  0.2426 -0.1284
    3OL    H13R14857   1.823   4.313   2.924  1.9083  0.3580  0.1283
    3OL    H13S14858   1.844   4.199   3.053 -4.2318 -1.2644  0.7617
    3OL    C11414859   1.684   4.157   2.909  0.0798 -0.1079  0.2701
    3OL    H14R14860   1.672   4.050   2.893  0.6711 -0.1959  0.3813
    3OL    H14S14861   1.664   4.199   2.810 -0.4554 -1.6290 -0.2941
    3OL    C11514862   1.570   4.196   3.003 -0.5829  0.6152 -0.8009
    3OL    H15R14863   1.575   4.302   3.029  1.3584 -0.3032  3.3686
    3OL    H15S14864   1.585   4.156   3.104 -2.6083  1.4970 -0.0818
    3OL    C11614865   1.431   4.152   2.953 -0.7262  0.3030 -0.1478
    3OL    H16R14866   1.427   4.044   2.945 -0.5975  0.3638 -1.1054
    3OL    H16S14867   1.418   4.195   2.854  0.4629  1.1078  0.0189
    3OL    C11714868   1.322   4.214   3.041 -0.5120  0.2504  0.1567
    3OL    H17R14869   1.224   4.204   2.993 -0.6437 -1.5650  0.6953
    3OL    H17S14870   1.338   4.321   3.037  2.7673 -0.1587  0.2584
    3OL    C11814871   1.333   4.166   3.187  0.3247 -0.4262 -0.1240
    3OL    H18R14872   1.415   4.225   3.229  1.6010 -0.5448 -2.2604
    3OL    H18S14873   1.354   4.059   3.194 -1.2847 -0.6501  4.1041
    3OL    H18T14874   1.243   4.174   3.247 -0.8914 -1.5708 -1.6857
    1PA    C11614875   2.007   2.937   3.999 -0.0710 -0.4456 -0.0566
    1PA    H16R14876   2.086   2.992   4.051 -1.0192 -1.2690  2.3774
    1PA    H16S14877   2.046   2.837   3.980 -2.2683 -1.6687  1.4664
    1PA    H16T14878   1.928   2.936   4.073  2.0171 -2.1588  2.3203
    1PA    C11514879   1.969   3.016   3.873 -0.1025 -0.2967  0.0455
    1PA    H15R14880   1.871   3.062   3.888  1.0447  1.8100  1.5350
    1PA    H15S14881   2.032   3.102   3.850 -2.3700  1.1637 -1.0647
    1PA    C11414882   1.963   2.923   3.751 -0.1039 -0.0851 -0.1170
    1PA    H14R14883   2.058   2.870   3.748 -0.3071 -0.4317 -0.6447
    1PA    H14S14884   1.894   2.842   3.778  1.3029 -1.4346 -0.4131
    1PA    C11314885   1.937   2.988   3.614 -0.6087 -0.0292  0.0043
    1PA    H13R14886   1.999   3.075   3.593 -0.7346  0.3379  1.0826
    1PA    H13S14887   1.959   2.907   3.543 -0.1030 -0.8148  1.0225
    1PA    C11214888   1.791   3.034   3.600 -0.5399  0.1716 -0.0516
    1PA    H12R14889   1.731   2.944   3.581  1.9108 -1.3684 -1.0808
    1PA    H12S14890   1.747   3.079   3.689 -0.3500 -0.2237  0.2466
    1PA    C11114891   1.768   3.122   3.476 -0.3376  0.3835  0.0623
    1PA    H11R14892   1.687   3.189   3.505  0.7415  1.0504  1.7481
    1PA    H11S14893   1.857   3.179   3.448 -0.6756  0.8632 -0.0358
    1PA    C11014894   1.726   3.024   3.366  0.3605  0.2068 -0.0522
    1PA    H10R14895   1.803   2.947   3.362 -1.0401 -1.2720  0.4775
    1PA    H10S14896   1.628   2.980   3.385  1.4707 -1.1905  3.1554
    1PA     C1914897   1.731   3.089   3.227 -0.0074 -0.1912 -0.2534
    1PA     H9R14898   1.695   3.007   3.165  1.2475  0.6982 -2.2381
    1PA     H9S14899   1.832   3.101   3.187 -0.5997  1.5892 -1.3327
    1PA     C1814900   1.631   3.205   3.217  0.1788 -0.0102 -0.0367
    1PA     H8R14901   1.539   3.167   3.262  0.8360 -0.4314  0.9701
    1PA     H8S14902   1.665   3.293   3.272  0.8642  0.0446 -0.5420
    1PA     C1714903   1.617   3.228   3.066  0.2071 -0.0956 -0.0525
    1PA     H7R14904   1.703   3.282   3.026  0.1620  1.3014  1.6541
    1PA     H7S14905   1.595   3.133   3.016  1.3330 -0.5845  0.3683
    1PA     C1614906   1.489   3.309   3.039 -0.2318 -0.8125 -0.1742
    1PA     H6R14907   1.402   3.258   3.081  0.7613 -0.9623  1.8094
    1PA     H6S14908   1.508   3.403   3.092  0.9260 -0.7699 -0.6234
    1PA     C1514909   1.475   3.330   2.887 -0.3201 -0.0289 -0.0642
    1PA     H5R14910   1.438   3.433   2.886  1.1157  0.6034  2.3889
    1PA     H5S14911   1.575   3.323   2.843 -0.7546  0.8342 -1.2395
    1PA     C1414912   1.388   3.220   2.824 -0.1981  0.1426 -0.5376
    1PA     H4R14913   1.412   3.117   2.852 -2.4795  0.0719  1.4645
    1PA     H4S14914   1.284   3.232   2.854  0.1514 -0.4206  0.9982
    1PA     C1314915   1.406   3.250   2.675  0.5364 -0.0159 -0.4868
    1PA     H3R14916   1.355   3.346   2.661 -0.0929 -0.1725  0.5987
    1PA     H3S14917   1.510   3.253   2.641  0.6548  0.5459 -0.0890
    1PA     C1214918   1.335   3.141   2.593 -0.1249 -0.2569  0.3938
    1PA     H2R14919   1.357   3.038   2.621  2.3319 -0.0505 -0.5442
    1PA     H2S14920   1.229   3.168   2.594 -0.4468 -1.4326 -0.3498
    2PC     C1114921   1.358   3.159   2.445 -0.3313 -0.1369  0.3764
    2PC     O1214922   1.428   3.251   2.407 -0.2737 -0.2394  0.2364
    2PC     O1114923   1.303   3.066   2.366 -0.4857  0.3585 -0.1007
    2PC      C114924   1.327   3.060   2.224  0.3657 -0.0407  0.0544
    2PC      HR14925   1.267   2.974   2.191  1.4832 -0.7879 -0.0738
    2PC      HS14926   1.277   3.148   2.182  0.3728  0.4472  1.0401
    2PC      C214927   1.475   3.043   2.190  0.3490  0.1674 -0.1232
    2PC      HX14928   1.545   3.103   2.250  3.7425 -2.0951 -1.4798
    2PC      C314929   1.500   3.074   2.042  0.1598 -0.8372 -0.3688
    2PC      HA14930   1.446   3.001   1.981  0.3633 -1.1284 -0.2034
    2PC      HB14931   1.457   3.173   2.028  1.2646 -0.5950 -2.6155
    2PC     O3114932   1.637   3.079   1.997  0.1746 -0.6912 -0.3054
    2PC     P3114933   1.669   3.144   1.854  0.1286 -0.0362 -0.0229
    2PC     O3214934   1.693   3.006   1.776 -0.0963 -0.1113  0.0414
    2PC     C3114935   1.806   2.934   1.827 -0.4152 -0.4255  0.3141
    2PC     H1A14936   1.890   3.004   1.835 -0.1512 -0.3318 -2.4086
    2PC     H1B14937   1.785   2.876   1.917 -0.2222 -1.6143 -0.3748
    2PC     C3214938   1.868   2.845   1.718  0.1439 -0.3454  0.5600
    2PC     H2A14939   1.869   2.904   1.626  3.2330 -1.6161 -0.3401
    2PC     H2B14940   1.970   2.812   1.736  0.7370  0.7611 -0.6098
    2PC     N3114941   1.792   2.721   1.680 -0.2030 -0.0555  0.2977
    2PC     C3314942   1.791   2.632   1.801 -0.2408 -0.6591 -0.1448
    2PC     H3A14943   1.887   2.630   1.853 -0.5883 -0.3245  0.5192
    2PC     H3B14944   1.705   2.658   1.862  1.0486  0.3857  1.2984
    2PC     H3C14945   1.775   2.534   1.755  1.7407  0.3103 -3.2536
    2PC     C3414946   1.655   2.758   1.631  0.0228  0.0834 -0.2270
    2PC     H4A14947   1.663   2.837   1.556 -1.4432 -1.4570 -2.1090
    2PC     H4B14948   1.608   2.672   1.584 -0.8834 -0.8968  2.3197
    2PC     H4C14949   1.607   2.799   1.720 -0.8587  0.1255 -0.7074
    2PC     C3514950   1.874   2.659   1.571 -0.3556 -0.2464  0.2915
    2PC     H5A14951   1.819   2.577   1.524  0.2174 -1.7934  2.1714
    2PC     H5B14952   1.970   2.627   1.612 -0.3362 -0.6230 -0.0456
    2PC     H5C14953   1.881   2.739   1.498  0.8536  0.2948  0.9694
    2PC     O3314954   1.564   3.222   1.786 -0.5038 -0.7044  0.1736
    2PC     O3414955   1.781   3.241   1.864 -0.1673  0.2845  0.2180
    2PC     O2114956   1.501   2.904   2.215 -0.4500 -0.0084 -0.2566
    2PC     C2114957   1.623   2.852   2.236 -0.3688  0.3932  0.2622
    2PC     O2214958   1.722   2.923   2.227 -0.2764  0.1253 -0.8736
    3OL     C1214959   1.617   2.710   2.286  0.0869  0.4195  0.4034
    3OL     H2R14960   1.597   2.635   2.210 -0.6231 -1.1531  2.0794
    3OL     H2S14961   1.530   2.716   2.352  0.7842  1.2899  1.2832
    3OL     C1314962   1.741   2.674   2.370  0.5454  0.1044 -0.4037
    3OL     H3R14963   1.767   2.737   2.455  2.0760 -0.2613 -0.5755
    3OL     H3S14964   1.833   2.689   2.313 -0.9684  0.4888 -2.9364
    3OL     C1414965   1.730   2.528   2.413 -0.4185  0.3161  0.1002
    3OL     H4R14966   1.707   2.457   2.333 -1.8024  0.7131  0.1250
    3OL     H4S14967   1.649   2.510   2.485 -0.0279  1.3677  0.8179
    3OL     C1514968   1.863   2.485   2.478 -0.3570 -0.2667 -0.4018
    3OL     H5R14969   1.945   2.511   2.411  0.1616  0.1434  0.3811
    3OL     H5S14970   1.864   2.376   2.482 -0.1701 -0.2306  1.4096
    3OL     C1614971   1.893   2.535   2.620  0.2486 -0.3887 -0.4857
    3OL     H6R14972   1.826   2.478   2.685  2.2666 -3.8313 -1.1568
    3OL     H6S14973   1.864   2.640   2.617  0.9421 -0.1975 -0.6912
    3OL     C1714974   2.038   2.514   2.667  0.1589  0.1533  0.0388
    3OL     H7R14975   2.099   2.567   2.593  1.1318  1.2807  1.5929
    3OL     H7S14976   2.061   2.408   2.664 -0.5541  0.0086 -0.5681
    3OL     C1814977   2.070   2.565   2.808 -0.2415  0.7439 -0.0805
    3OL     H8R14978   2.088   2.673   2.805  0.1817  0.6529 -0.9172
    3OL     H8S14979   2.167   2.523   2.831 -0.7621 -0.1018  0.6204
    3OL     C1914980   1.964   2.542   2.912  0.1467 -0.6310  0.0274
    3OL     H9R14981   1.926   2.630   2.963  0.9186  2.6047 -4.3929
    3OL    C11014982   1.918   2.424   2.952 -0.1709 -0.2313  0.8905
    3OL    H10R14983   1.841   2.434   3.028  1.5612  2.4298  2.4610
    3OL    C11114984   1.987   2.292   2.927  0.2853  0.2072 -0.2531
    3OL    H11R14985   2.086   2.300   2.881  1.0502  1.7164  1.5219
    3OL    H11S14986   1.923   2.219   2.877 -0.2087  0.6550 -0.2873
    3OL    C11214987   2.019   2.223   3.060 -0.1438 -0.1416 -0.3306
    3OL    H12R14988   2.076   2.283   3.131 -2.5719 -0.5138  2.1171
    3OL    H12S14989   2.081   2.134   3.048  1.5443  0.8469  0.6584
    3OL    C11314990   1.887   2.187   3.130 -0.1175  0.7198  0.1716
    3OL    H13R14991   1.835   2.120   3.061  1.3560  0.4727 -0.7267
    3OL    H13S14992   1.813   2.268   3.139 -1.6502 -0.2063 -2.6562
    3OL    C11414993   1.917   2.117   3.263  0.3509  0.1026 -0.2569
    3OL    H14R14994   1.964   2.192   3.327  0.3499  1.0971 -1.3707
    3OL    H14S14995   1.976   2.026   3.252  1.0273  0.4562  0.4058
    3OL    C11514996   1.787   2.074   3.333  0.1275  0.2554 -0.5753
    3OL    H15R14997   1.725   2.001   3.281 -1.6983 -1.3618  3.4737
    3OL    H15S14998   1.729   2.165   3.348  3.2233  2.3528 -0.4749
    3OL    C11614999   1.824   2.009   3.467  0.4056 -0.2754 -0.9043
    3OL    H16R15000   1.894   2.069   3.524  0.7174  0.6351 -2.1882
    3OL    H16S15001   1.876   1.915   3.449  2.0050  0.5544 -0.7959
    3OL    C11715002   1.695   1.982   3.547  0.5110  0.2510 -0.5532
    3OL    H17R15003   1.630   2.068   3.536  0.8168  0.5343 -0.1844
    3OL    H17S15004   1.710   1.972   3.655 -0.3672 -1.2506 -0.5454
    3OL    C11815005   1.619   1.859   3.495  0.3824  0.0634  0.0747
    3OL    H18R15006   1.674   1.769   3.524  0.3549  0.7658  2.6023
    3OL    H18S15007   1.584   1.856   3.392  0.7490  3.4254 -0.2703
    3OL    H18T15008   1.520   1.849   3.541  0.1145 -3.0933 -0.9823
    1PA    C11615009   1.456   3.091   3.838 -0.8505  0.2891 -0.4744
    1PA    H16R15010   1.408   3.172   3.894 -0.2155 -0.3303  1.0252
    1PA    H16S15011   1.561   3.079   3.863 -1.1688 -1.0860  0.2555
    1PA    H16T15012   1.406   2.996   3.857 -0.5990  0.1671 -0.4188
    1PA    C11515013   1.441   3.124   3.689  0.5023 -0.0900 -0.7053
    1PA    H15R15014   1.468   3.230   3.678 -1.8940  0.8150  1.0625
    1PA    H15S15015   1.514   3.067   3.631 -0.4933  1.3451 -3.5893
    1PA    C11415016   1.301   3.083   3.642  0.1963  0.1936 -0.0497
    1PA    H14R15017   1.292   2.975   3.647 -1.6372  0.2624 -1.0532
    1PA    H14S15018   1.227   3.135   3.704 -3.6490 -2.1955 -2.2072
    1PA    C11315019   1.279   3.121   3.495 -0.1070  0.5543  0.0841
    1PA    H13R15020   1.356   3.089   3.424 -0.4535  1.5491 -0.7664
    1PA    H13S15021   1.194   3.061   3.462  0.4685  0.3283 -1.0656
    1PA    C11215022   1.234   3.266   3.479 -0.2296  0.6028  0.8297
    1PA    H12R15023   1.159   3.280   3.401  1.7488  3.9044 -0.7005
    1PA    H12S15024   1.187   3.303   3.570 -0.0416  3.5281 -0.1511
    1PA    C11115025   1.344   3.363   3.432 -0.0808 -0.0320 -0.1750
    1PA    H11R15026   1.441   3.328   3.468 -0.3227  0.7229  1.2964
    1PA    H11S15027   1.352   3.363   3.324  1.1184 -0.2266 -0.0963
    1PA    C11015028   1.304   3.505   3.475  0.9237  0.2605 -0.1803
    1PA    H10R15029   1.304   3.506   3.584 -1.3973 -2.6951 -0.0202
    1PA    H10S15030   1.374   3.580   3.438  2.2241 -0.0646  1.5196
    1PA     C1915031   1.160   3.543   3.434  0.7046  0.0192  0.3678
    1PA     H9R15032   1.092   3.458   3.427 -1.0530  1.2163  1.8695
    1PA     H9S15033   1.116   3.606   3.511 -0.7343 -0.1509 -0.2800
    1PA     C1815034   1.151   3.629   3.308  0.6126 -0.2173  0.2116
    1PA     H8R15035   1.053   3.678   3.298  1.2032  0.7037 -1.4106
    1PA     H8S15036   1.216   3.716   3.313 -0.7846  1.1679 -2.8452
    1PA     C1715037   1.179   3.551   3.179  0.5441  0.2315 -0.0796
    1PA     H7R15038   1.188   3.626   3.101 -1.7478  1.2336  0.5181
    1PA     H7S15039   1.271   3.492   3.182  0.1137 -0.7453 -2.9709
    1PA     C1615040   1.060   3.462   3.138  0.6378 -0.0336  0.2160
    1PA     H6R15041   1.032   3.402   3.225 -1.9480  2.2458  1.1118
    1PA     H6S15042   0.979   3.534   3.127 -0.3174 -0.8913  1.3622
    1PA     C1515043   1.069   3.381   3.008 -0.6041  0.7553 -0.3783
    1PA     H5R15044   1.068   3.455   2.927 -2.8102  1.1174 -0.0689
    1PA     H5S15045   1.163   3.325   3.005 -1.7882 -1.2886 -3.4217
    1PA     C1415046   0.961   3.273   3.000  0.0778  0.0523 -0.1416
    1PA     H4R15047   0.975   3.192   3.073 -2.0158 -0.9308 -0.7578
    1PA     H4S15048   0.865   3.324   3.005  0.9969  1.8072  0.6575
    1PA     C1315049   0.976   3.200   2.866 -0.1044 -0.0964 -0.0804
    1PA     H3R15050   0.973   3.263   2.777  0.0049 -0.0224 -0.0310
    1PA     H3S15051   1.072   3.149   2.863 -0.2019 -0.2780 -2.1555
    1PA     C1215052   0.869   3.091   2.850 -0.4471  0.1648  0.4094
    1PA     H2R15053   0.888   3.016   2.928 -1.3421 -1.0090 -0.4538
    1PA     H2S15054   0.765   3.121   2.866 -1.1217 -2.2668  1.0374
    2PC     C1115055   0.881   3.018   2.718 -0.1148  0.5445  0.2301
    2PC     O1215056   0.807   2.927   2.688  0.7623 -0.1334  0.0984
    2PC     O1115057   0.990   3.050   2.647 -0.1724  0.0430 -0.0860
    2PC      C115058   1.004   2.986   2.519 -0.2164 -1.0925  0.4657
    2PC      HR15059   1.107   2.993   2.485  0.1088 -1.5738  1.3376
    2PC      HS15060   1.004   2.876   2.515 -0.7672 -1.1066  0.6523
    2PC      C215061   0.898   3.047   2.426  0.6531 -0.0814  0.1309
    2PC      HX15062   0.792   3.047   2.452 -0.3276 -0.0075 -3.3504
    2PC      C315063   0.896   2.966   2.295 -0.5801 -0.3992  0.3349
    2PC      HA15064   0.990   2.965   2.239  0.1683 -1.8935  1.5610
    2PC      HB15065   0.860   2.871   2.334  0.8605 -0.8349  0.6519
    2PC     O3115066   0.788   3.026   2.222 -0.2311  0.0538  0.1818
    2PC     P3115067   0.776   2.987   2.067 -0.0220 -0.1999  0.2297
    2PC     O3215068   0.638   2.907   2.082  0.2184 -0.6933 -0.1438
    2PC     C3115069   0.526   2.968   2.015  0.3248  0.2112  0.4811
    2PC     H1A15070   0.502   3.070   2.048  0.8831  1.5957 -3.0059
    2PC     H1B15071   0.540   2.960   1.907  1.6536  0.6474  0.6128
    2PC     C3215072   0.410   2.873   2.047 -0.4366  1.0411  0.2325
    2PC     H2A15073   0.330   2.911   1.984  0.7078  1.3744 -1.0450
    2PC     H2B15074   0.441   2.772   2.020 -0.1123  0.6988  1.7388
    2PC     N3115075   0.356   2.880   2.187  0.1954 -0.4124  0.5676
    2PC     C3315076   0.463   2.883   2.292  0.4499  0.0014  0.2979
    2PC     H3A15077   0.531   2.966   2.271 -2.6612  1.9031 -3.5760
    2PC     H3B15078   0.403   2.887   2.383 -0.2164  1.8371 -0.1789
    2PC     H3C15079   0.512   2.786   2.283 -0.6051 -0.4113 -1.5785
    2PC     C3415080   0.270   3.002   2.198  0.6885  0.0144 -0.2337
    2PC     H4A15081   0.315   3.101   2.191  1.1063 -0.1364  0.2491
    2PC     H4B15082   0.203   2.996   2.113  0.4573  1.9299 -0.2454
    2PC     H4C15083   0.216   2.995   2.293  0.6631 -2.2115 -0.3781
    2PC     C3515084   0.261   2.766   2.207 -0.0365 -0.3636 -0.2453
    2PC     H5A15085   0.323   2.679   2.184 -1.8889 -1.7264 -0.3431
    2PC     H5B15086   0.178   2.771   2.137 -0.2837 -0.6626  0.0243
    2PC     H5C15087   0.220   2.762   2.308  1.1893 -0.2721  0.2706
    2PC     O3315088   0.761   3.105   1.979 -0.1435 -0.1702  0.2901
    2PC     O3415089   0.882   2.908   2.001 -0.3285 -0.1578 -0.3205
    2PC     O2115090   0.938   3.180   2.386  0.6535 -0.1989 -0.2688
    2PC     C2115091   0.887   3.280   2.459  0.7319 -0.4816  0.1783
    2PC     O2215092   0.816   3.258   2.555 -0.3369  0.4311 -0.3900
    3OL     C1215093   0.942   3.416   2.422  0.1135 -0.3734 -0.3439
    3OL     H2R15094   0.853   3.478   2.438  0.9287  0.5473  0.7841
    3OL     H2S15095   0.971   3.407   2.317 -1.0769  0.9735 -0.8262
    3OL     C1315096   1.056   3.461   2.514  0.1678  0.0516 -0.6177
    3OL     H3R15097   1.146   3.399   2.511 -0.1558 -0.4651  0.1677
    3OL     H3S15098   1.032   3.434   2.617  2.3037  0.2400 -0.0188
    3OL     C1415099   1.094   3.607   2.487  0.4289  0.0921 -0.0461
    3OL     H4R15100   1.009   3.659   2.441  0.1156 -0.8181 -0.5205
    3OL     H4S15101   1.172   3.609   2.411  0.6251 -1.7717  0.0695
    3OL     C1515102   1.149   3.671   2.615 -0.5947  0.4095  0.2401
    3OL     H5R15103   1.212   3.751   2.576  1.1042 -0.8237  0.3929
    3OL     H5S15104   1.204   3.606   2.683 -0.0957  2.6823  2.1384
    3OL     C1615105   1.032   3.728   2.698 -0.4473  0.8174  0.1732
    3OL     H6R15106   0.968   3.643   2.724 -0.7505  0.8830 -0.3373
    3OL     H6S15107   0.973   3.804   2.647  1.6300  3.2037  1.1188
    3OL     C1715108   1.083   3.802   2.822 -0.1858  0.8163  0.0668
    3OL     H7R15109   1.132   3.898   2.808  0.0446  0.6755 -0.1145
    3OL     H7S15110   1.161   3.738   2.864 -0.7041  0.6390  0.7791
    3OL     C1815111   0.962   3.816   2.915 -0.5093 -0.7022 -0.0957
    3OL     H8R15112   1.006   3.841   3.012 -0.0966 -0.0676 -0.4388
    3OL     H8S15113   0.907   3.721   2.917  2.2898 -2.5143  3.0907
    3OL     C1915114   0.875   3.934   2.883  0.4860  0.1396  0.2461
    3OL     H9R15115   0.827   3.935   2.785 -1.0319 -1.4065  0.9316
    3OL    C11015116   0.854   4.036   2.964 -0.1573  0.1796  0.0412
    3OL    H10R15117   0.793   4.120   2.932 -0.6249 -0.6386 -1.2351
    3OL    C11115118   0.881   4.055   3.112 -0.2003 -0.0914  0.0828
    3OL    H11R15119   0.829   4.145   3.145 -0.9592 -0.4296 -0.1789
    3OL    H11S15120   0.986   4.079   3.131 -0.1991 -0.7768  1.0204
    3OL    C11215121   0.830   3.936   3.195 -0.4843  0.2204  0.3586
    3OL    H12R15122   0.905   3.856   3.194 -0.6107  0.0952  0.9755
    3OL    H12S15123   0.733   3.899   3.161 -1.2029  1.2369  1.2310
    3OL    C11315124   0.823   3.985   3.340  0.0587  0.5546  0.2736
    3OL    H13R15125   0.751   4.067   3.349 -1.4829 -0.8283  1.0368
    3OL    H13S15126   0.917   4.028   3.375 -0.9053  0.3296  3.3660
    3OL    C11415127   0.782   3.871   3.433  0.2387  0.3314  0.0805
    3OL    H14R15128   0.827   3.775   3.405  1.0600  0.6685  0.2326
    3OL    H14S15129   0.674   3.859   3.422 -0.0308 -0.0241  2.6079
    3OL    C11515130   0.809   3.888   3.583  0.4415 -0.1164  0.0984
    3OL    H15R15131   0.756   3.804   3.627 -0.7775 -0.5220 -1.9932
    3OL    H15S15132   0.758   3.979   3.615 -0.5980 -0.6658  0.0370
    3OL    C11615133   0.959   3.883   3.614  0.4248 -0.1176  0.1801
    3OL    H16R15134   1.007   3.955   3.548  1.8917 -0.7394  0.5218
    3OL    H16S15135   1.006   3.787   3.589  0.8178  0.4964 -1.5866
    3OL    C11715136   0.990   3.911   3.761  0.3347  0.0941  0.1581
    3OL    H17R15137   0.971   3.826   3.826  0.1493  1.5092  2.0635
    3OL    H17S15138   0.931   3.997   3.793  1.1839  0.7243  0.0698
    3OL    C11815139   1.140   3.928   3.789  0.3954 -0.8647  0.4518
    3OL    H18R15140   1.169   4.030   3.763  0.3035 -0.3561  2.2000
    3OL    H18S15141   1.198   3.857   3.730 -0.6893 -2.2989  1.0606
    3OL    H18T15142   1.166   3.913   3.894 -0.6771 -2.0450  0.5668
    1PA    C11615143   3.248   2.347   3.806  0.4201  0.1102  0.4623
    1PA    H16R15144   3.232   2.443   3.756 -1.8578 -0.5153 -0.1510
    1PA    H16S15145   3.306   2.360   3.897  0.2342  2.1567  0.3422
    1PA    H16T15146   3.158   2.285   3.811  0.0308  0.6916  0.7973
    1PA    C11515147   3.333   2.259   3.713 -0.1197  0.3317 -0.2566
    1PA    H15R15148   3.423   2.310   3.678  0.8216 -1.5197 -0.6670
    1PA    H15S15149   3.367   2.178   3.779  1.7105  1.5973  0.4250
    1PA    C11415150   3.259   2.210   3.588 -0.7664  0.1191  0.2039
    1PA    H14R15151   3.331   2.152   3.531 -1.8957  0.0759 -1.2432
    1PA    H14S15152   3.177   2.142   3.613  0.6180 -1.3168  0.9820
    1PA    C11315153   3.202   2.324   3.502 -0.5036  0.5027  0.5324
    1PA    H13R15154   3.145   2.281   3.419 -3.3873  2.0549  1.5363
    1PA    H13S15155   3.126   2.384   3.552 -0.1751  0.8491  0.6158
    1PA    C11215156   3.307   2.424   3.454  0.1656 -0.4638 -0.0572
    1PA    H12R15157   3.345   2.485   3.537  0.1617 -0.8578  0.2372
    1PA    H12S15158   3.382   2.371   3.395  0.2101 -0.7235  0.2280
    1PA    C11115159   3.243   2.516   3.349 -0.0689 -1.0044 -0.3914
    1PA    H11R15160   3.196   2.450   3.276  0.2388 -0.1608 -1.3751
    1PA    H11S15161   3.161   2.573   3.394  3.0974  1.8373  2.3341
    1PA    C11015162   3.333   2.622   3.284  0.0779 -0.6932  0.3065
    1PA    H10R15163   3.267   2.702   3.250  0.0767 -1.2135 -0.9506
    1PA    H10S15164   3.410   2.662   3.350  0.4245 -0.5601 -0.1777
    1PA     C1915165   3.404   2.576   3.156 -0.4144 -0.2435 -0.1341
    1PA     H9R15166   3.421   2.468   3.164  0.5260 -0.0071  1.8294
    1PA     H9S15167   3.339   2.593   3.070  0.8465  0.5892 -0.9521
    1PA     C1815168   3.541   2.641   3.133 -0.5839 -0.0842 -0.7108
    1PA     H8R15169   3.522   2.746   3.113 -0.5318 -0.0217 -0.4331
    1PA     H8S15170   3.604   2.634   3.222  0.2452  0.0062 -1.2744
    1PA     C1715171   3.610   2.577   3.012  0.0883 -0.1455 -0.3003
    1PA     H7R15172   3.541   2.542   2.934 -0.0317 -0.2497 -0.1480
    1PA     H7S15173   3.678   2.647   2.963 -0.3710  0.8020  0.3912
    1PA     C1615174   3.708   2.466   3.052 -0.0688 -0.1879 -0.0342
    1PA     H6R15175   3.799   2.490   3.107  0.2108 -0.0744 -0.5401
    1PA     H6S15176   3.655   2.388   3.108  0.7554 -0.7964 -0.0645
    1PA     C1515177   3.754   2.395   2.924 -0.2587  0.2480 -0.3422
    1PA     H5R15178   3.670   2.340   2.883 -0.6028  0.4790  0.0463
    1PA     H5S15179   3.796   2.466   2.852  1.1576 -0.6734 -0.4621
    1PA     C1415180   3.865   2.296   2.962 -0.1903  0.3432 -0.2916
    1PA     H4R15181   3.960   2.344   2.983  0.1090 -0.2281 -0.3225
    1PA     H4S15182   3.838   2.248   3.057 -1.6906 -1.3830 -1.5022
    1PA     C1315183   3.884   2.194   2.850  0.0569 -0.0963  0.1473
    1PA     H3R15184   3.787   2.154   2.819  0.0537  0.5963 -0.7816
    1PA     H3S15185   3.937   2.233   2.763  0.6269  0.0257  0.5431
    1PA     C1215186   3.970   2.085   2.916 -0.5175 -0.4310  0.3501
    1PA     H2R15187   4.068   2.130   2.931 -0.6327 -0.0397 -0.0500
    1PA     H2S15188   3.937   2.069   3.018  0.7583  1.8053  1.1895
    2PC     C1115189   3.978   1.952   2.844  0.2036 -0.2848  0.1536
    2PC     O1215190   4.085   1.902   2.816  0.2031 -0.2546  0.0964
    2PC     O1115191   3.856   1.908   2.811  0.1721  0.1848 -0.3891
    2PC      C115192   3.838   1.784   2.740  0.4533 -0.0312 -0.0849
    2PC      HR15193   3.887   1.797   2.643  0.3194 -0.0907 -0.1599
    2PC      HS15194   3.882   1.702   2.797  2.2898  0.4404 -0.7488
    2PC      C215195   3.688   1.770   2.712  0.3861  0.0661  0.2305
    2PC      HX15196   3.677   1.674   2.662  1.9995 -0.1407  0.2274
    2PC      C315197   3.631   1.876   2.617  0.1034 -0.9068 -0.7013
    2PC      HA15198   3.619   1.971   2.670  1.7142  0.3165 -2.4108
    2PC      HB15199   3.701   1.896   2.536  0.2314  0.6982 -0.2376
    2PC     O3115200   3.506   1.831   2.563 -0.0418 -0.4723 -0.7314
    2PC     P3115201   3.437   1.921   2.449  0.2955  0.1770 -0.4282
    2PC     O3215202   3.280   1.906   2.472  0.3566  0.0042 -0.1170
    2PC     C3115203   3.186   1.929   2.365  0.5579 -0.3062 -0.3598
    2PC     H1A15204   3.219   1.872   2.278 -0.4748 -2.0144  0.3105
    2PC     H1B15205   3.091   1.882   2.390  0.1795 -0.0337 -1.2647
    2PC     C3215206   3.178   2.079   2.333  0.7049 -0.1470  0.3331
    2PC     H2A15207   3.275   2.116   2.300 -0.1085  1.2127 -0.5980
    2PC     H2B15208   3.112   2.094   2.248  0.2211 -0.6577  0.6118
    2PC     N3115209   3.144   2.176   2.442  0.1334 -0.1130  0.1274
    2PC     C3315210   3.266   2.224   2.515  0.0125  0.1844  0.1341
    2PC     H3A15211   3.309   2.143   2.574  1.7601  1.8506  1.2571
    2PC     H3B15212   3.337   2.261   2.441  0.4896  0.7702  0.8673
    2PC     H3C15213   3.222   2.302   2.578 -1.4894 -0.4574 -0.0709
    2PC     C3415214   3.079   2.295   2.379 -0.3340 -0.2826  0.2844
    2PC     H4A15215   3.060   2.361   2.464  0.3277  0.3451 -0.0420
    2PC     H4B15216   3.153   2.343   2.315  0.1267 -1.3832 -0.0306
    2PC     H4C15217   2.985   2.268   2.330  0.0545 -1.5161  0.2004
    2PC     C3515218   3.062   2.111   2.550  0.3077 -0.5637 -0.0113
    2PC     H5A15219   2.972   2.066   2.510 -0.2476  2.1853 -2.1551
    2PC     H5B15220   3.028   2.189   2.619 -1.8020 -0.1995 -1.3766
    2PC     H5C15221   3.114   2.029   2.601  0.2954 -0.5673 -0.0043
    2PC     O3315222   3.487   2.059   2.466 -0.3815  0.2765  0.8367
    2PC     O3415223   3.476   1.876   2.313 -0.3715  0.2194 -0.6343
    2PC     O2115224   3.613   1.769   2.835  0.3539 -0.3458  0.2087
    2PC     C2115225   3.622   1.667   2.922  0.1548 -0.4760  0.0760
    2PC     O2215226   3.685   1.565   2.906  0.2248 -0.3376 -0.5408
    3OL     C1215227   3.542   1.683   3.050  0.0975  0.1951 -0.0387
    3OL     H2R15228   3.436   1.658   3.042 -0.1660  1.4365 -0.7240
    3OL     H2S15229   3.530   1.789   3.075 -2.6833  0.2333 -1.1659
    3OL     C1315230   3.589   1.587   3.160  0.1697 -0.3178 -0.5119
    3OL     H3R15231   3.616   1.490   3.118  0.7634 -1.2401  1.8484
    3OL     H3S15232   3.499   1.563   3.216  0.2405  0.3301 -0.1137
    3OL     C1415233   3.696   1.646   3.253  0.1092 -0.0489 -0.6122
    3OL     H4R15234   3.649   1.731   3.302  0.0502 -1.8501  2.7491
    3OL     H4S15235   3.793   1.679   3.215  0.1651  0.5365  0.0236
    3OL     C1515236   3.717   1.542   3.364 -0.0317  0.2598 -0.2939
    3OL     H5R15237   3.727   1.440   3.325  0.3911  0.4991 -0.8266
    3OL     H5S15238   3.626   1.541   3.425 -1.4960  0.6387 -2.3448
    3OL     C1615239   3.833   1.577   3.458  0.1519  0.0786 -0.4541
    3OL     H6R15240   3.811   1.667   3.515  1.5043 -0.0083  0.2436
    3OL     H6S15241   3.925   1.597   3.402 -1.5209  0.0640 -3.4287
    3OL     C1715242   3.868   1.467   3.559  0.3213  0.1354 -0.4514
    3OL     H7R15243   3.964   1.490   3.608 -0.4149 -0.4965  1.3844
    3OL     H7S15244   3.887   1.381   3.494  0.3965  0.7527 -1.2636
    3OL     C1815245   3.765   1.434   3.668  0.5809  0.5287 -0.0795
    3OL     H8R15246   3.802   1.350   3.726  1.3252 -0.9210 -2.5044
    3OL     H8S15247   3.683   1.391   3.610  0.9178 -2.1975  1.3005
    3OL     C1915248   3.717   1.540   3.764  0.0424  0.1331  0.0940
    3OL     H9R15249   3.645   1.613   3.727  2.4998  2.8872  0.3221
    3OL    C11015250   3.749   1.558   3.891 -0.2904  0.9055  0.0766
    3OL    H10R15251   3.714   1.643   3.949 -2.6642 -0.4431  0.7720
    3OL    C11115252   3.856   1.476   3.960 -0.6331  0.2281 -0.1840
    3OL    H11R15253   3.934   1.542   3.998  1.2104 -0.6858 -2.1600
    3OL    H11S15254   3.903   1.403   3.893 -0.1583 -1.2645  1.6991
    3OL    C11215255   3.797   1.395   4.076  0.0898  0.0100  0.0354
    3OL    H12R15256   3.718   1.328   4.041  0.3267 -1.9317  2.9208
    3OL    H12S15257   3.751   1.463   4.147  0.8661  1.5186 -0.8625
    3OL    C11315258   3.904   1.311   4.147  0.4553  0.5088  0.0733
    3OL    H13R15259   3.978   1.382   4.186  0.7409  0.2998 -0.0951
    3OL    H13S15260   3.951   1.232   4.089  0.0443 -0.6373  1.2308
    3OL    C11415261   3.837   1.241   4.266 -0.0361 -0.3174 -0.6812
    3OL    H14R15262   3.755   1.178   4.232 -0.4326 -0.4643  0.4916
    3OL    H14S15263   3.788   1.310   4.335 -0.4179  0.0580 -1.3269
    3OL    C11515264   3.928   1.137   4.334  0.1449  0.2475 -0.0468
    3OL    H15R15265   3.974   1.064   4.267  1.1895  0.6378  0.2105
    3OL    H15S15266   3.864   1.096   4.412  1.4375 -1.4390  0.1836
    3OL    C11615267   4.049   1.209   4.396 -0.0829  0.0303  0.6566
    3OL    H16R15268   4.013   1.291   4.459 -1.8727 -1.1496  1.2380
    3OL    H16S15269   4.097   1.251   4.307 -2.0015 -0.2867 -0.5868
    3OL    C11715270   4.148   1.117   4.469  0.4640 -0.0266 -0.1337
    3OL    H17R15271   4.245   1.165   4.453 -0.7500  3.0028  0.7964
    3OL    H17S15272   4.144   1.014   4.433 -2.8195 -0.7548  1.8649
    3OL    C11815273   4.113   1.120   4.619 -0.3553  0.1260 -0.3204
    3OL    H18R15274   4.052   1.034   4.646  1.7015  0.0794  5.6486
    3OL    H18S15275   4.067   1.212   4.654  1.2311  1.1252 -0.7365
    3OL    H18T15276   4.202   1.111   4.681 -1.6199 -1.0477  1.4099
    1PA    C11615277   4.488   4.965   3.927  0.0485 -0.0450 -0.7148
    1PA    H16R15278   4.572   5.035   3.923  1.2262 -1.3065  0.3364
    1PA    H16S15279   4.530   4.864   3.935  0.3184  0.0364 -1.0777
    1PA    H16T15280   4.433   4.983   4.020  0.3233  0.7662 -0.7031
    1PA    C11515281   4.384   4.976   3.816 -0.2331  0.5044 -0.4016
    1PA    H15R15282   4.355   5.080   3.798 -2.4395  0.0838  0.4310
    1PA    H15S15283   4.435   4.928   3.732  0.3784 -0.5664  0.5506
    1PA    C11415284   4.253   4.900   3.842  0.1847 -0.0616  0.0946
    1PA    H14R15285   4.271   4.793   3.852  1.7284  0.2698  1.1002
    1PA    H14S15286   4.209   4.936   3.935  1.1322 -1.4883  1.1397
    1PA    C11315287   4.149   4.926   3.732 -0.0095 -0.0565  0.2792
    1PA    H13R15288   4.054   4.921   3.785  0.0740 -0.7287  0.3652
    1PA    H13S15289   4.161   5.027   3.691 -0.2444 -0.0245  0.2869
    1PA    C11215290   4.142   4.826   3.615 -0.2345  0.2047  0.0669
    1PA    H12R15291   4.080   4.874   3.539  1.5033 -0.0949 -1.5999
    1PA    H12S15292   4.240   4.823   3.568 -0.5375  3.9824 -1.1703
    1PA    C11115293   4.096   4.688   3.663  0.6863 -0.1596 -0.0898
    1PA    H11R15294   4.166   4.649   3.737  1.2604 -1.3936 -1.2180
    1PA    H11S15295   3.999   4.706   3.709  1.2131  0.5641  0.7769
    1PA    C11015296   4.084   4.591   3.544  0.2278 -0.2530  0.0298
    1PA    H10R15297   4.191   4.574   3.528  0.3590  0.2089  0.4011
    1PA    H10S15298   4.042   4.501   3.590 -0.9447  1.3371  2.2643
    1PA     C1915299   4.001   4.632   3.422  0.3933  0.1963  0.0657
    1PA     H9R15300   3.894   4.632   3.448  0.6004 -0.3281  0.9568
    1PA     H9S15301   4.043   4.725   3.382 -0.8513  0.3976 -0.8280
    1PA     C1815302   4.013   4.529   3.309  0.2658  0.1024  0.1384
    1PA     H8R15303   4.118   4.533   3.281  0.1352 -0.6413 -0.4890
    1PA     H8S15304   3.978   4.428   3.335 -0.1629 -0.4316 -2.2636
    1PA     C1715305   3.936   4.577   3.185  0.1843  0.5040  0.3432
    1PA     H7R15306   3.829   4.579   3.211 -0.5385  0.4577 -2.3335
    1PA     H7S15307   3.973   4.678   3.169  1.8410  0.3099  2.5531
    1PA     C1615308   3.954   4.481   3.067 -0.1822  0.6455  0.1705
    1PA     H6R15309   4.058   4.490   3.036  0.8765  5.5728  3.9122
    1PA     H6S15310   3.935   4.376   3.089  1.9277  0.3918  1.0111
    1PA     C1515311   3.874   4.545   2.952  0.5083  0.4452 -0.4287
    1PA     H5R15312   3.772   4.543   2.989  0.6123 -0.7347 -0.1633
    1PA     H5S15313   3.899   4.649   2.931  0.4731  0.2268 -1.5974
    1PA     C1415314   3.877   4.476   2.816  0.1450  0.1500 -0.2866
    1PA     H4R15315   3.982   4.452   2.798  0.4249  1.4594 -0.4524
    1PA     H4S15316   3.823   4.381   2.827 -0.9239  0.2518 -3.4941
    1PA     C1315317   3.815   4.559   2.703 -0.1190  0.3018 -0.0299
    1PA     H3R15318   3.854   4.661   2.704  0.0934  0.2520 -1.4893
    1PA     H3S15319   3.830   4.508   2.608  0.0736 -1.0123  0.6938
    1PA     C1215320   3.662   4.554   2.718 -0.0887 -0.6544 -0.0210
    1PA     H2R15321   3.626   4.453   2.739  1.4719 -1.2536 -0.0601
    1PA     H2S15322   3.641   4.619   2.803  1.3019 -1.7532  1.2212
    2PC     C1115323   3.584   4.610   2.602 -0.1411 -0.1626  0.2512
    2PC     O1215324   3.641   4.647   2.501  0.1542 -0.4160  0.3253
    2PC     O1115325   3.451   4.619   2.621 -0.0852  0.1706  0.5033
    2PC      C115326   3.367   4.667   2.514  0.2304  0.3504  0.3345
    2PC      HR15327   3.412   4.766   2.504 -1.3660  1.2566  1.5527
    2PC      HS15328   3.381   4.603   2.427  1.9990  0.7383  0.2852
    2PC      C215329   3.227   4.638   2.569 -0.0709  0.6021 -0.2861
    2PC      HX15330   3.224   4.543   2.624 -2.1124  1.6209  1.5241
    2PC      C315331   3.129   4.630   2.452  0.0483 -0.1023 -0.3445
    2PC      HA15332   3.175   4.560   2.381  2.2474  0.3338  0.5549
    2PC      HB15333   3.034   4.596   2.492  0.7961 -3.3228 -1.0594
    2PC     O3115334   3.120   4.763   2.396 -0.0761  0.1306  0.2188
    2PC     P3115335   3.069   4.787   2.246 -0.3496 -0.2481  0.2497
    2PC     O3215336   3.086   4.946   2.238 -0.0463 -0.3244 -0.7338
    2PC     C3115337   3.087   5.019   2.114  0.1055  1.1220  0.0887
    2PC     H1A15338   3.019   4.970   2.043  1.9336  1.0405 -1.7144
    2PC     H1B15339   3.058   5.123   2.129 -0.7101  1.2888 -2.1294
    2PC     C3215340   3.231   5.006   2.062 -0.1593  0.5766 -0.5333
    2PC     H2A15341   3.301   5.072   2.114  1.5459  0.4142 -2.5111
    2PC     H2B15342   3.264   4.904   2.078  0.8339  0.6343 -2.0256
    2PC     N3115343   3.263   5.028   1.917  0.0737 -0.0381 -0.5768
    2PC     C3315344   3.184   4.925   1.843 -0.5041  0.3717 -0.5385
    2PC     H3A15345   3.077   4.938   1.858 -0.4065  1.3249 -0.6495
    2PC     H3B15346   3.202   4.913   1.736 -0.4470  0.6888 -0.5632
    2PC     H3C15347   3.220   4.833   1.889 -3.0924  0.7731  2.6405
    2PC     C3415348   3.222   5.162   1.864 -0.2818  0.0359 -0.1251
    2PC     H4A15349   3.115   5.183   1.874 -0.6061 -1.3222 -0.4889
    2PC     H4B15350   3.265   5.242   1.923 -0.9145 -0.1337  0.5792
    2PC     H4C15351   3.236   5.168   1.756  1.1340  1.2581  0.1076
    2PC     C3515352   3.408   5.000   1.891  0.2319  0.2039  0.0300
    2PC     H5A15353   3.419   5.015   1.784  0.5117  1.0413  0.1662
    2PC     H5B15354   3.439   4.897   1.908  0.1776 -0.2427 -2.2859
    2PC     H5C15355   3.471   5.065   1.952 -0.8162 -0.8803  2.4046
    2PC     O3315356   3.156   4.708   2.156 -0.2862 -0.3621  0.4109
    2PC     O3415357   2.930   4.737   2.231 -0.3501 -0.0547 -0.4504
    2PC     O2115358   3.190   4.751   2.650  0.1919  0.1438  0.4965
    2PC     C2115359   3.069   4.759   2.707  0.0669  0.1369  0.2373
    2PC     O2215360   2.969   4.693   2.690  0.1150  0.1067  0.0770
    3OL     C1215361   3.054   4.866   2.813 -0.1528  0.1417  0.2016
    3OL     H2R15362   3.149   4.900   2.853  1.1440  1.1990 -3.4485
    3OL     H2S15363   2.987   4.828   2.891  0.5946  1.2124  1.3873
    3OL     C1315364   2.980   4.984   2.747 -0.2738 -0.0576 -0.0215
    3OL     H3R15365   2.881   4.954   2.714  0.3214  0.2622 -2.2560
    3OL     H3S15366   3.018   5.012   2.648 -1.8626 -0.6554 -0.8268
    3OL     C1415367   2.966   5.103   2.842  0.2503  0.0980 -0.1327
    3OL     H4R15368   2.931   5.063   2.937  1.8634 -1.2728 -0.0754
    3OL     H4S15369   2.887   5.170   2.807  0.2719  1.2854  1.9094
    3OL     C1515370   3.097   5.182   2.854  0.4408 -0.2836  0.3119
    3OL     H5R15371   3.092   5.274   2.795  0.1799  0.1273  0.9656
    3OL     H5S15372   3.176   5.116   2.816 -0.2562 -0.3277 -1.1214
    3OL     C1615373   3.135   5.224   2.996  0.0215 -0.1750  0.3939
    3OL     H6R15374   3.064   5.304   3.017 -0.1667  0.1944 -1.4734
    3OL     H6S15375   3.234   5.271   2.987  0.1668 -0.4661  0.4495
    3OL     C1715376   3.143   5.115   3.104  0.2116 -0.4520  0.1008
    3OL     H7R15377   3.134   5.017   3.056  1.7999 -1.1111  1.0989
    3OL     H7S15378   3.046   5.124   3.154 -0.6997  2.2838 -1.9471
    3OL     C1815379   3.266   5.109   3.195  0.2271 -0.2271  0.0956
    3OL     H8R15380   3.288   5.213   3.219 -0.3309  1.3873 -5.0704
    3OL     H8S15381   3.361   5.077   3.150  2.3317 -0.2344  4.1207
    3OL     C1915382   3.239   5.029   3.319 -0.4789 -0.0537  0.0538
    3OL     H9R15383   3.214   4.924   3.301  0.3117 -0.1150 -0.7552
    3OL    C11015384   3.247   5.081   3.441 -0.2245 -0.2070  0.1031
    3OL    H10R15385   3.227   5.009   3.520 -0.5763  0.2304  0.4178
    3OL    C11115386   3.295   5.218   3.483 -0.1895 -0.0342 -0.4890
    3OL    H11R15387   3.321   5.278   3.396  0.8244 -0.7134 -0.6854
    3OL    H11S15388   3.392   5.214   3.534  0.3259  0.0443 -1.4260
    3OL    C11215389   3.190   5.289   3.569 -0.3034 -0.9328  0.1282
    3OL    H12R15390   3.234   5.376   3.618 -1.7072  0.6395 -1.2883
    3OL    H12S15391   3.139   5.222   3.639 -2.3890  1.2668  0.8371
    3OL    C11315392   3.080   5.344   3.477  0.0056  0.1633  0.3921
    3OL    H13R15393   3.023   5.257   3.442  0.0386 -0.9234  2.7774
    3OL    H13S15394   3.124   5.391   3.389  0.4717 -0.5476  0.2273
    3OL    C11415395   2.990   5.441   3.554 -0.1429  0.2293  0.1362
    3OL    H14R15396   3.057   5.520   3.590 -2.0803  1.5909  0.9200
    3OL    H14S15397   2.955   5.389   3.644 -0.9980 -0.8626 -0.8036
    3OL    C11515398   2.879   5.498   3.465 -0.3262 -0.2857  0.0365
    3OL    H15R15399   2.817   5.417   3.424 -0.9173  0.0917  0.1735
    3OL    H15S15400   2.921   5.549   3.378  0.3992 -1.7250 -0.4951
    3OL    C11615401   2.800   5.597   3.551  0.0139  0.0439 -0.0286
    3OL    H16R15402   2.862   5.668   3.606  0.5790 -1.2628  1.0872
    3OL    H16S15403   2.751   5.534   3.626 -1.6956  0.6181 -0.6220
    3OL    C11715404   2.682   5.666   3.480 -0.3820 -0.3663  0.2233
    3OL    H17R15405   2.614   5.592   3.437 -0.2188  0.6620 -1.8982
    3OL    H17S15406   2.729   5.718   3.396  1.1458 -2.6741 -0.4463
    3OL    C11815407   2.610   5.766   3.572  0.0463 -0.0962  0.2709
    3OL    H18R15408   2.666   5.859   3.578 -2.7524  1.7600 -0.5457
    3OL    H18S15409   2.596   5.715   3.668 -0.1834 -0.7611 -0.1021
    3OL    H18T15410   2.511   5.789   3.530 -1.4505 -2.1968  2.4148
    1PA    C11615411   1.140   5.776   3.823 -0.1538 -0.2682  0.1110
    1PA    H16R15412   1.249   5.786   3.814 -0.1438  0.2271  0.6985
    1PA    H16S15413   1.095   5.747   3.918  0.4149  0.5713  0.6501
    1PA    H16T15414   1.099   5.870   3.788 -0.7370 -0.8407 -0.7750
    1PA    C11515415   1.092   5.684   3.710  0.1291  0.1429 -0.3483
    1PA    H15R15416   1.089   5.578   3.736  0.6345  0.3718  0.7056
    1PA    H15S15417   0.987   5.713   3.702  1.0315  3.9695 -0.2700
    1PA    C11415418   1.146   5.719   3.571  0.4142  0.0695 -0.2559
    1PA    H14R15419   1.082   5.670   3.497  0.7519  0.9639 -1.1660
    1PA    H14S15420   1.144   5.825   3.547  0.7475  0.3415  0.8474
    1PA    C11315421   1.285   5.660   3.541  0.4192 -0.0374 -0.0240
    1PA    H13R15422   1.358   5.694   3.615 -0.8005  1.5493  0.5090
    1PA    H13S15423   1.272   5.552   3.549 -1.1025  0.2294  2.3334
    1PA    C11215424   1.334   5.713   3.406  0.2378  0.1473 -0.0180
    1PA    H12R15425   1.303   5.815   3.384 -0.7591 -0.3751 -1.2326
    1PA    H12S15426   1.443   5.709   3.404  0.2160 -0.5442 -0.4390
    1PA    C11115427   1.296   5.621   3.289 -0.2643  0.7469 -0.3306
    1PA    H11R15428   1.368   5.629   3.207  0.6911 -0.3106  0.3760
    1PA    H11S15429   1.306   5.515   3.312 -1.8068  0.3346 -1.3376
    1PA    C11015430   1.157   5.649   3.228 -0.3891 -0.1094 -0.4521
    1PA    H10R15431   1.089   5.641   3.313 -0.9897  2.8844 -0.5434
    1PA    H10S15432   1.155   5.751   3.191  0.1355 -0.9090 -2.8193
    1PA     C1915433   1.134   5.554   3.110 -0.3363 -0.4023 -0.2289
    1PA     H9R15434   1.193   5.588   3.025 -0.0472  1.9780  0.8612
    1PA     H9S15435   1.173   5.453   3.127 -0.7080 -0.3937  0.7690
    1PA     C1815436   0.989   5.535   3.062 -0.3369 -0.5393 -0.1734
    1PA     H8R15437   0.922   5.487   3.134 -0.7415  0.9521  0.4767
    1PA     H8S15438   0.954   5.637   3.044  2.9877  0.8258  0.3712
    1PA     C1715439   0.983   5.454   2.931 -0.0832 -0.2946 -0.3380
    1PA     H7R15440   1.044   5.364   2.937 -1.8169 -1.4507  1.3766
    1PA     H7S15441   0.884   5.410   2.926 -1.2797  1.7234  2.5592
    1PA     C1615442   1.018   5.520   2.798 -0.2785 -0.0286 -0.2588
    1PA     H6R15443   0.950   5.604   2.782  0.6877  1.1829  1.6270
    1PA     H6S15444   1.112   5.576   2.795 -2.1159  3.4615  1.3138
    1PA     C1515445   1.020   5.421   2.681 -0.6947 -0.2617 -0.0698
    1PA     H5R15446   1.091   5.339   2.696 -0.7958 -0.6362 -1.4930
    1PA     H5S15447   0.925   5.368   2.672 -1.3391  0.8132  0.2487
    1PA     C1415448   1.060   5.490   2.549  0.2020 -0.5378  0.0494
    1PA     H4R15449   0.984   5.563   2.520 -0.2246 -1.5535 -1.5244
    1PA     H4S15450   1.152   5.546   2.561  0.2654  0.1943 -3.0836
    1PA     C1315451   1.077   5.390   2.434 -0.4318 -0.8095  0.1890
    1PA     H3R15452   1.160   5.322   2.453  0.6100 -0.0482 -1.3799
    1PA     H3S15453   0.989   5.327   2.419 -1.7215  0.9636 -0.0205
    1PA     C1215454   1.108   5.461   2.301 -1.2844 -0.4243  0.1892
    1PA     H2R15455   1.015   5.478   2.246 -1.1490 -4.5622 -1.6405
    1PA     H2S15456   1.175   5.545   2.319 -1.0379 -0.8930  1.6233
    2PC     C1115457   1.188   5.368   2.215 -0.2273  0.4807  0.1758
    2PC     O1215458   1.132   5.274   2.162  0.3293  0.3048 -0.1115
    2PC     O1115459   1.315   5.411   2.203 -0.3377  0.6191 -0.5091
    2PC      C115460   1.412   5.345   2.119  0.0236 -0.5471  0.7870
    2PC      HR15461   1.417   5.241   2.151  1.7085  0.1809  3.1001
    2PC      HS15462   1.366   5.351   2.020  0.3609 -1.3958  0.5748
    2PC      C215463   1.545   5.419   2.101 -0.6880  0.5591 -0.0805
    2PC      HX15464   1.523   5.526   2.093  0.6633  0.8922  0.4032
    2PC      C315465   1.617   5.361   1.978  0.3472 -0.4326  0.9671
    2PC      HA15466   1.656   5.260   1.983  3.3576  0.4819 -1.3018
    2PC      HB15467   1.543   5.357   1.898 -0.2200  0.7898  1.3918
    2PC     O3115468   1.723   5.446   1.930 -0.8680  0.3491 -0.4259
    2PC     P3115469   1.803   5.399   1.800  0.0119  0.3155  0.1203
    2PC     O3215470   1.899   5.278   1.842 -0.7586 -0.2547  0.2486
    2PC     C3115471   1.930   5.176   1.746 -0.3359  0.2618 -0.1730
    2PC     H1A15472   1.838   5.124   1.718  0.0892  0.0051 -1.1475
    2PC     H1B15473   1.962   5.230   1.657 -1.3154  0.0577 -0.6558
    2PC     C3215474   2.052   5.094   1.794 -0.1863  0.3025 -0.4851
    2PC     H2A15475   2.082   5.029   1.712  1.7182 -1.2992  1.4104
    2PC     H2B15476   2.139   5.159   1.805  0.7994 -0.8305 -1.3731
    2PC     N3115477   2.032   5.003   1.911 -0.3449  1.0496  0.0824
    2PC     C3315478   1.976   4.870   1.870  0.2884  0.6852  0.3975
    2PC     H3A15479   1.973   4.803   1.956  0.3082 -1.5194 -1.2240
    2PC     H3B15480   1.883   4.886   1.817  0.4339  1.1756  0.2901
    2PC     H3C15481   2.048   4.830   1.798 -0.0614  3.9133 -1.9571
    2PC     C3415482   2.170   4.973   1.960 -0.5700 -0.6225 -0.2336
    2PC     H4A15483   2.226   5.060   1.994 -0.8801 -0.5914  0.2047
    2PC     H4B15484   2.165   4.896   2.036 -0.4857 -0.0363  0.3726
    2PC     H4C15485   2.230   4.940   1.875  0.0947  0.8186 -0.3642
    2PC     C3515486   1.947   5.057   2.022 -0.5098 -0.3735  0.6762
    2PC     H5A15487   1.854   5.077   1.969 -0.7398 -1.5915  0.6051
    2PC     H5B15488   1.994   5.144   2.070  3.7829 -1.8276 -0.4350
    2PC     H5C15489   1.930   4.987   2.103 -1.3484 -0.4518  0.4357
    2PC     O3315490   1.715   5.353   1.690  0.0747  0.3796  0.0432
    2PC     O3415491   1.887   5.507   1.741 -0.1463  0.0863 -0.5302
    2PC     O2115492   1.623   5.391   2.218 -0.3148  0.3284 -0.3850
    2PC     C2115493   1.707   5.484   2.267  0.0278  0.0143 -0.3657
    2PC     O2215494   1.712   5.598   2.224 -0.2034  0.3176  0.4019
    3OL     C1215495   1.785   5.433   2.386  0.1804 -0.4446 -0.6577
    3OL     H2R15496   1.855   5.365   2.338  0.5794  0.8383 -1.9801
    3OL     H2S15497   1.722   5.374   2.452  0.8932 -1.8468 -1.1871
    3OL     C1315498   1.867   5.546   2.450 -1.0699  0.0447  0.1216
    3OL     H3R15499   1.793   5.622   2.474 -2.2687 -1.0730  0.1009
    3OL     H3S15500   1.947   5.580   2.385 -0.0402  1.1354  1.8663
    3OL     C1415501   1.921   5.495   2.585 -0.5873  0.2707  0.0170
    3OL     H4R15502   1.983   5.407   2.570  0.3851  0.5537  2.1064
    3OL     H4S15503   1.836   5.474   2.651  0.4898  1.4125  1.8548
    3OL     C1515504   2.009   5.604   2.648 -0.2271 -0.1054  0.1662
    3OL     H5R15505   1.959   5.699   2.668 -1.6195 -0.2070 -2.4095
    3OL     H5S15506   2.088   5.626   2.576 -0.3699 -0.8979 -0.2487
    3OL     C1615507   2.078   5.556   2.776  0.5046 -0.0060 -0.1870
    3OL     H6R15508   2.157   5.483   2.758  0.1185 -0.9713  1.7876
    3OL     H6S15509   1.992   5.513   2.828  0.9359  0.2031  0.7178
    3OL     C1715510   2.122   5.683   2.851  0.9724 -0.0747 -0.3372
    3OL     H7R15511   2.043   5.759   2.844  0.2755 -0.5542  1.8347
    3OL     H7S15512   2.216   5.717   2.808  0.6037  1.1057 -0.2581
    3OL     C1815513   2.151   5.658   2.999 -0.3540  0.2829  0.0015
    3OL     H8R15514   2.228   5.581   3.014 -1.4018 -0.8801 -0.4295
    3OL     H8S15515   2.062   5.617   3.048 -1.1619 -0.0362 -1.6646
    3OL     C1915516   2.198   5.777   3.078  0.3232 -0.2198  0.3717
    3OL     H9R15517   2.306   5.786   3.078  0.5767 -2.0915 -2.3751
    3OL    C11015518   2.125   5.860   3.152 -0.2718 -0.2509 -0.1701
    3OL    H10R15519   2.180   5.942   3.197 -1.2247  2.3833 -3.4530
    3OL    C11115520   1.977   5.866   3.178 -0.1372  0.1682  0.5454
    3OL    H11R15521   1.943   5.782   3.116  1.7312 -1.1770  1.2681
    3OL    H11S15522   1.921   5.952   3.141 -0.0197  0.5931  1.3502
    3OL    C11215523   1.943   5.857   3.327  0.2937 -0.2168  0.6212
    3OL    H12R15524   1.982   5.762   3.366 -0.4281 -0.5881  0.4584
    3OL    H12S15525   1.835   5.857   3.336  0.3203 -0.8166  1.0491
    3OL    C11315526   2.006   5.961   3.421  0.5027 -0.2652  0.5353
    3OL    H13R15527   1.979   6.061   3.388 -1.2377 -0.9830 -0.3446
    3OL    H13S15528   2.115   5.955   3.424  0.8617  2.8897 -1.9015
    3OL    C11415529   1.956   5.944   3.565 -0.5049  0.1456  0.2432
    3OL    H14R15530   1.971   5.837   3.583 -0.9652  0.1397  0.6262
    3OL    H14S15531   1.847   5.952   3.560 -0.4732 -0.1364 -1.3962
    3OL    C11515532   2.029   6.023   3.674 -0.2406  0.2019  0.0259
    3OL    H15R15533   1.971   6.025   3.767  2.9139 -0.6346  2.1792
    3OL    H15S15534   2.029   6.128   3.643 -1.3853  0.8741  2.1066
    3OL    C11615535   2.169   5.968   3.707 -0.2628  0.1682  0.0651
    3OL    H16R15536   2.236   5.974   3.621 -1.3060  0.9545 -0.7245
    3OL    H16S15537   2.166   5.863   3.737 -0.7282  0.4342  0.9794
    3OL    C11715538   2.229   6.043   3.827 -0.4462  0.2397  0.1127
    3OL    H17R15539   2.157   6.030   3.908 -0.0994 -1.3262  0.2020
    3OL    H17S15540   2.235   6.148   3.797  3.1212  0.2283  0.4455
    3OL    C11815541   2.369   5.999   3.870 -0.4300  0.3193  0.1417
    3OL    H18R15542   2.420   6.078   3.925  1.3437 -0.2606 -0.5936
    3OL    H18S15543   2.433   5.976   3.784 -0.1052  1.7688 -0.0288
    3OL    H18T15544   2.364   5.908   3.931  2.6027 -0.6963 -0.9168
    1PA    C11615545   4.166   0.287   3.773  0.1221  0.5252 -0.1461
    1PA    H16R15546   4.158   0.389   3.812 -0.9234  0.3227  0.2151
    1PA    H16S15547   4.262   0.277   3.722  1.0015  0.7680  1.4104
    1PA    H16T15548   4.160   0.212   3.852  2.0094 -0.3409 -0.7805
    1PA    C11515549   4.055   0.267   3.668  0.2144  0.1565 -0.1747
    1PA    H15R15550   3.960   0.266   3.720  1.0888  0.1206  1.4963
    1PA    H15S15551   4.052   0.359   3.609  2.0420  0.4956  0.1797
    1PA    C11415552   4.068   0.141   3.582 -0.7322 -0.4967  0.6286
    1PA    H14R15553   4.153   0.158   3.516 -0.4737  0.3705  1.1756
    1PA    H14S15554   4.095   0.054   3.642  1.6226 -1.5872 -1.7933
    1PA    C11315555   3.937   0.116   3.505 -0.3903 -0.7397  0.1201
    1PA    H13R15556   3.851   0.132   3.569 -0.6645 -0.8521 -0.2155
    1PA    H13S15557   3.941   0.200   3.434 -0.7585 -0.4235  0.4704
    1PA    C11215558   3.938  -0.017   3.428 -0.6900 -0.8724  0.3436
    1PA    H12R15559   4.040  -0.028   3.389  0.9650  1.1337  3.6600
    1PA    H12S15560   3.922  -0.100   3.496  0.5580 -1.6175 -0.2451
    1PA    C11115561   3.832  -0.023   3.316 -0.0235  0.0298 -0.3612
    1PA    H11R15562   3.835  -0.125   3.276 -0.2383 -0.0918 -0.0793
    1PA    H11S15563   3.729  -0.009   3.350  0.5368 -0.4362  1.7155
    1PA    C11015564   3.856   0.073   3.200  0.6986  0.1656 -0.1080
    1PA    H10R15565   3.835   0.171   3.244 -0.2168  0.2844 -0.7633
    1PA    H10S15566   3.957   0.058   3.161 -0.1765  0.2484 -2.6521
    1PA     C1915567   3.754   0.055   3.087  0.5210 -0.4002  0.1422
    1PA     H9R15568   3.758  -0.046   3.046  1.5212 -0.9801  1.5973
    1PA     H9S15569   3.652   0.070   3.123  0.1855 -2.4434  0.1959
    1PA     C1815570   3.776   0.167   2.985 -0.4956 -0.2050  0.1202
    1PA     H8R15571   3.761   0.261   3.040  0.0546 -0.5773  0.9180
    1PA     H8S15572   3.879   0.169   2.948  0.3132  0.6461  2.2658
    1PA     C1715573   3.683   0.159   2.864  0.1110  0.0861 -0.3740
    1PA     H7R15574   3.591   0.102   2.881 -0.4271  0.8178 -0.7773
    1PA     H7S15575   3.655   0.259   2.831  1.3323  0.7603  0.5666
    1PA     C1615576   3.752   0.095   2.742 -0.0881 -0.7328 -0.0640
    1PA     H6R15577   3.835   0.160   2.715 -0.7931 -0.2903 -1.2212
    1PA     H6S15578   3.798   0.003   2.779  0.0915 -1.1270 -1.2393
    1PA     C1515579   3.657   0.084   2.622 -0.3529 -0.3055  0.1016
    1PA     H5R15580   3.565   0.029   2.641 -0.1551 -1.7283 -2.5470
    1PA     H5S15581   3.640   0.182   2.578  0.2249  0.4785  1.5640
    1PA     C1415582   3.713   0.011   2.499  0.3424 -0.2649  0.3908
    1PA     H4R15583   3.664   0.063   2.416  0.6987  0.6567  0.7425
    1PA     H4S15584   3.820   0.023   2.477 -0.0737 -1.7092 -2.9164
    1PA     C1315585   3.665  -0.134   2.502  0.4883 -0.3163  0.2770
    1PA     H3R15586   3.720  -0.178   2.586  2.5790  1.4304 -0.0859
    1PA     H3S15587   3.558  -0.152   2.515 -0.0361  1.7183 -0.8434
    1PA     C1215588   3.707  -0.213   2.377 -0.1296 -0.4041  0.1238
    1PA     H2R15589   3.814  -0.213   2.357 -0.2945 -0.3958 -0.8079
    1PA     H2S15590   3.678  -0.318   2.380  0.1291 -0.5012  3.4081
    2PC     C1115591   3.639  -0.145   2.261 -0.2725 -0.2993  0.2676
    2PC     O1215592   3.696  -0.079   2.176 -0.7931  0.0561  0.1874
    2PC     O1115593   3.510  -0.184   2.260 -0.2270 -0.4481  0.1076
    2PC      C115594   3.431  -0.154   2.143  0.0728  0.2089  0.0656
    2PC      HR15595   3.327  -0.175   2.170  0.5980  0.2276  2.2751
    2PC      HS15596   3.447  -0.049   2.120  3.5015 -0.4902 -1.3913
    2PC      C215597   3.464  -0.247   2.026 -0.8230  0.0534 -0.0698
    2PC      HX15598   3.568  -0.234   1.996 -0.6147 -0.7068  0.3188
    2PC      C315599   3.369  -0.210   1.910 -0.4680  0.1378 -0.3367
    2PC      HA15600   3.267  -0.213   1.950  0.3909 -0.4674  1.9734
    2PC      HB15601   3.407  -0.112   1.881  3.6843 -1.5526 -1.3582
    2PC     O3115602   3.393  -0.288   1.792  0.3390  0.0959 -0.1516
    2PC     P3115603   3.282  -0.287   1.677  0.1493  0.1161  0.0314
    2PC     O3215604   3.179  -0.398   1.730  0.4876  0.0825  0.6234
    2PC     C3115605   3.222  -0.533   1.756  0.6477 -0.0527 -0.3160
    2PC     H1A15606   3.249  -0.577   1.659  0.4658 -0.4170 -0.2040
    2PC     H1B15607   3.299  -0.519   1.832 -0.5708  0.1392  0.9173
    2PC     C3215608   3.102  -0.619   1.797  0.0565  1.0569  0.3361
    2PC     H2A15609   3.009  -0.607   1.740 -0.0767  0.7783  0.4913
    2PC     H2B15610   3.131  -0.720   1.766  1.0406  1.3498  0.2757
    2PC     N3115611   3.065  -0.624   1.942 -0.4636 -0.0510  0.1787
    2PC     C3315612   3.068  -0.488   2.005  0.0360 -0.3165  0.7320
    2PC     H3A15613   3.021  -0.493   2.104 -1.3363 -0.5701  0.0922
    2PC     H3B15614   3.172  -0.457   1.996  0.1732 -1.2263 -1.2342
    2PC     H3C15615   3.006  -0.420   1.947  0.5703  1.0125  1.6716
    2PC     C3415616   2.924  -0.673   1.954 -0.3477 -0.4137  0.0610
    2PC     H4A15617   2.894  -0.682   2.059 -2.0665 -1.3217 -0.4627
    2PC     H4B15618   2.866  -0.597   1.902  0.7055 -0.4203 -1.1828
    2PC     H4C15619   2.913  -0.768   1.901 -0.0340  0.4540 -1.6281
    2PC     C3515620   3.159  -0.718   2.011 -0.1651  0.1110 -0.0028
    2PC     H5A15621   3.122  -0.820   1.995 -1.1491 -0.0271  2.6888
    2PC     H5B15622   3.145  -0.698   2.117 -1.7929 -0.2470 -0.1111
    2PC     H5C15623   3.260  -0.703   1.974  0.0828 -0.5290  0.3847
    2PC     O3315624   3.208  -0.164   1.641  0.1825  0.2392  0.3847
    2PC     O3415625   3.346  -0.341   1.555  0.5486  0.4903  0.0745
    2PC     O2115626   3.430  -0.382   2.062 -0.0389 -0.1273  0.0061
    2PC     C2115627   3.521  -0.447   2.136  0.0997  0.0346 -0.0206
    2PC     O2215628   3.634  -0.408   2.157  0.0318  0.1034  0.2227
    3OL     C1215629   3.474  -0.586   2.174 -0.1936  0.1214 -0.0677
    3OL     H2R15630   3.498  -0.661   2.099  1.7172  1.3110 -0.7166
    3OL     H2S15631   3.367  -0.579   2.194  0.2096  1.9865  1.8444
    3OL     C1315632   3.540  -0.620   2.309 -0.0318  0.0104 -0.1756
    3OL     H3R15633   3.546  -0.534   2.376 -1.0735  0.5343 -0.7193
    3OL     H3S15634   3.641  -0.657   2.289 -0.0648 -1.0785  1.4863
    3OL     C1415635   3.450  -0.728   2.370 -0.2256  0.2404 -0.0530
    3OL     H4R15636   3.443  -0.803   2.290 -1.7960 -0.9865  1.1471
    3OL     H4S15637   3.351  -0.688   2.396  1.7124  3.0164  4.2071
    3OL     C1515638   3.518  -0.790   2.493 -0.4778  0.1049  0.0201
    3OL     H5R15639   3.558  -0.711   2.556 -0.8513  0.3572 -0.0603
    3OL     H5S15640   3.588  -0.870   2.466 -2.4605 -2.6863  2.4476
    3OL     C1615641   3.418  -0.858   2.587 -0.3623 -0.1165 -0.0142
    3OL     H6R15642   3.356  -0.932   2.537 -1.4347  1.5630 -1.3053
    3OL     H6S15643   3.343  -0.781   2.609 -0.6423 -0.1646 -0.7928
    3OL     C1715644   3.491  -0.917   2.709  0.3921 -0.1237 -0.4650
    3OL     H7R15645   3.564  -0.849   2.752  3.0732 -1.2608 -2.8761
    3OL     H7S15646   3.551  -1.000   2.672 -1.1262 -0.2946 -2.7812
    3OL     C1815647   3.382  -0.967   2.805  0.5409 -0.0113 -0.2386
    3OL     H8R15648   3.335  -1.055   2.761 -1.8093 -0.1764  2.3288
    3OL     H8S15649   3.307  -0.889   2.816  0.5148  0.5862 -3.5935
    3OL     C1915650   3.440  -1.007   2.939  0.1789  0.6388  0.1172
    3OL     H9R15651   3.470  -1.111   2.944  0.5525  0.7311 -0.2052
    3OL    C11015652   3.421  -0.940   3.052 -0.3371  0.3375  0.2145
    3OL    H10R15653   3.454  -0.987   3.144  1.2179  1.3576  0.2155
    3OL    C11115654   3.377  -0.796   3.057 -0.6316  0.2409  0.4031
    3OL    H11R15655   3.270  -0.785   3.071 -0.5001  1.8889  0.2529
    3OL    H11S15656   3.405  -0.739   2.968 -0.9020  2.3819  1.6169
    3OL    C11215657   3.446  -0.705   3.160 -0.4965 -0.0405  0.5642
    3OL    H12R15658   3.397  -0.609   3.144  0.0267  0.1443  0.0290
    3OL    H12S15659   3.551  -0.687   3.133 -0.9261  2.0238  0.0558
    3OL    C11315660   3.413  -0.765   3.297 -0.7316  0.0432  0.5448
    3OL    H13R15661   3.449  -0.869   3.297 -0.5497  0.0813 -1.0234
    3OL    H13S15662   3.305  -0.774   3.311 -1.3141 -2.8376 -3.7777
    3OL    C11415663   3.479  -0.677   3.404 -0.1847  0.5506 -0.2027
    3OL    H14R15664   3.439  -0.576   3.415  0.7811  0.7469  2.0723
    3OL    H14S15665   3.587  -0.671   3.389 -0.2777  0.0474 -1.1593
    3OL    C11515666   3.456  -0.736   3.543 -0.3872  0.4127 -0.2949
    3OL    H15R15667   3.510  -0.831   3.536 -1.7273 -0.3765 -0.3713
    3OL    H15S15668   3.351  -0.758   3.566 -0.6696  1.1652 -0.8255
    3OL    C11615669   3.519  -0.668   3.665 -0.5420 -0.4603  0.2831
    3OL    H16R15670   3.628  -0.663   3.657 -0.2725 -2.5257  1.8532
    3OL    H16S15671   3.496  -0.727   3.754  1.7833 -0.1659  1.1679
    3OL    C11715672   3.472  -0.523   3.680  0.4227 -0.1123  0.0411
    3OL    H17R15673   3.363  -0.520   3.682  0.4376 -0.0312  0.8549
    3OL    H17S15674   3.509  -0.473   3.590  1.1564  0.7721  0.8211
    3OL    C11815675   3.542  -0.460   3.801  0.2379  0.0524  0.0632
    3OL    H18R15676   3.509  -0.489   3.901  0.7002  0.0156  0.2067
    3OL    H18S15677   3.530  -0.352   3.791 -1.4332 -0.1311 -0.1958
    3OL    H18T15678   3.650  -0.473   3.804  0.2036 -0.0185  1.8254
    1PA    C11615679   5.592   4.981   3.843 -0.0725  0.4613 -0.6531
    1PA    H16R15680   5.535   4.889   3.851  2.8252 -1.4001  0.4038
    1PA    H16S15681   5.549   5.048   3.918  1.1642  0.0754  0.4450
    1PA    H16T15682   5.698   4.953   3.853  0.0779  0.9312 -0.8889
    1PA    C11515683   5.576   5.041   3.702 -0.1840 -0.0536 -0.8617
    1PA    H15R15684   5.589   4.958   3.633 -2.8901 -1.9009  0.6868
    1PA    H15S15685   5.479   5.090   3.697  0.2148  1.1640  1.4244
    1PA    C11415686   5.678   5.153   3.678  0.0679  0.0501  0.5679
    1PA    H14R15687   5.646   5.235   3.743 -0.1848 -0.2504  0.8282
    1PA    H14S15688   5.776   5.115   3.708  1.2827  1.5302 -1.2719
    1PA    C11315689   5.680   5.203   3.533 -0.2347  0.2651  0.6361
    1PA    H13R15690   5.705   5.115   3.472 -0.0695  0.3587  0.5695
    1PA    H13S15691   5.581   5.238   3.504  0.1726  1.6743  0.8987
    1PA    C11215692   5.776   5.319   3.505  0.0363 -0.0211  0.3760
    1PA    H12R15693   5.729   5.412   3.536 -0.4971  0.3598 -1.4704
    1PA    H12S15694   5.873   5.299   3.552 -0.2730  1.1793  1.5594
    1PA    C11115695   5.803   5.338   3.355 -0.1284 -0.0946  0.3370
    1PA    H11R15696   5.834   5.243   3.310  0.9307  0.2640  0.2722
    1PA    H11S15697   5.716   5.374   3.299  0.7595  1.0852 -0.3387
    1PA    C11015698   5.912   5.443   3.329 -0.2661  0.0897  0.5054
    1PA    H10R15699   5.882   5.530   3.388 -1.3109 -0.1925  0.4062
    1PA    H10S15700   6.009   5.407   3.362  1.6130  1.5715 -2.8665
    1PA     C1915701   5.925   5.474   3.179 -0.2170 -0.0591  0.4785
    1PA     H9R15702   5.952   5.379   3.133 -0.1447 -0.5155  1.4488
    1PA     H9S15703   5.830   5.504   3.135  0.4246 -0.0296 -0.9438
    1PA     C1815704   6.040   5.571   3.151 -0.4753 -0.0454 -0.5545
    1PA     H8R15705   6.010   5.668   3.190 -0.8570 -0.2047 -0.4513
    1PA     H8S15706   6.134   5.546   3.200  0.7831  0.2753 -2.6540
    1PA     C1715707   6.061   5.604   3.002  0.9501  0.4194 -0.2653
    1PA     H7R15708   5.964   5.623   2.957  0.8380 -0.9798 -0.6415
    1PA     H7S15709   6.127   5.690   2.984  2.3306 -0.6594 -0.5805
    1PA     C1615710   6.122   5.479   2.936  0.1742 -0.0972 -0.0096
    1PA     H6R15711   6.210   5.448   2.992  0.6592  1.6085  0.2238
    1PA     H6S15712   6.050   5.397   2.934 -1.1820  1.0552 -1.2852
    1PA     C1515713   6.164   5.509   2.792  0.1261  0.2192  0.0411
    1PA     H5R15714   6.208   5.609   2.788  2.2828 -0.6077  1.2350
    1PA     H5S15715   6.243   5.440   2.763 -0.9661 -0.4145 -1.5728
    1PA     C1415716   6.058   5.484   2.683 -0.0247  0.3014  0.1682
    1PA     H4R15717   6.062   5.381   2.646 -0.5632  0.6138 -0.7677
    1PA     H4S15718   5.961   5.493   2.732  0.4894  0.4400  1.2114
    1PA     C1315719   6.042   5.578   2.564  0.6061 -0.0930 -0.2367
    1PA     H3R15720   6.006   5.673   2.605  2.3762 -0.2334  1.8091
    1PA     H3S15721   6.135   5.602   2.511  0.6005  0.0333 -0.1905
    1PA     C1215722   5.946   5.513   2.464  0.1991  0.0106  0.0848
    1PA     H2R15723   5.988   5.423   2.419 -2.2153 -2.5254  2.5348
    1PA     H2S15724   5.862   5.470   2.519 -0.2295  0.5674 -0.1262
    2PC     C1115725   5.906   5.617   2.362  0.7653  0.2292  0.0848
    2PC     O1215726   5.960   5.725   2.348  0.1137  0.5901  0.2821
    2PC     O1115727   5.806   5.562   2.291 -0.0025  0.5735  0.8826
    2PC      C115728   5.747   5.641   2.186  0.3815  0.4802  0.5963
    2PC      HR15729   5.664   5.579   2.152 -0.7055  1.3784  1.5439
    2PC      HS15730   5.699   5.732   2.223 -0.8001 -0.5224  1.6251
    2PC      C215731   5.842   5.671   2.069 -0.1200 -0.5192 -0.0855
    2PC      HX15732   5.924   5.737   2.099 -0.8492  0.3154  0.0929
    2PC      C315733   5.774   5.733   1.947 -0.1776 -0.0419  0.1837
    2PC      HA15734   5.710   5.818   1.970 -1.8426 -0.3700 -2.6474
    2PC      HB15735   5.852   5.778   1.885 -0.9399  0.9264 -0.1019
    2PC     O3115736   5.696   5.635   1.874  0.8197 -0.3024 -0.5495
    2PC     P3115737   5.691   5.650   1.714 -0.0187  0.3224 -0.4700
    2PC     O3215738   5.840   5.592   1.703 -0.1019 -0.0314  0.1861
    2PC     C3115739   5.932   5.640   1.603  0.3508 -0.4980  0.3740
    2PC     H1A15740   5.882   5.644   1.505 -1.4097  2.4569  1.2596
    2PC     H1B15741   5.958   5.745   1.615  1.7465 -0.6765 -0.8035
    2PC     C3215742   6.059   5.554   1.608  0.6248 -0.1188 -0.0478
    2PC     H2A15743   6.132   5.610   1.548 -0.5908  0.4546 -1.0457
    2PC     H2B15744   6.101   5.534   1.707 -2.3888  0.0740  1.3802
    2PC     N3115745   6.060   5.420   1.542 -0.0178 -0.0312 -0.2402
    2PC     C3315746   6.037   5.429   1.394 -0.6364  0.2435 -0.1318
    2PC     H3A15747   6.048   5.332   1.345  1.9772  0.0349  0.7074
    2PC     H3B15748   5.934   5.465   1.391 -0.0730  1.9873  0.3410
    2PC     H3C15749   6.107   5.502   1.353 -0.1306 -0.2264 -0.1090
    2PC     C3415750   6.195   5.357   1.559  0.0693 -0.0341 -0.8991
    2PC     H4A15751   6.269   5.422   1.513  0.6546  0.3391  0.5059
    2PC     H4B15752   6.219   5.335   1.664  0.1751  2.6733 -0.2777
    2PC     H4C15753   6.185   5.271   1.494  1.0682  0.0074 -1.1210
    2PC     C3515754   5.961   5.324   1.603 -0.0894  0.5149  0.5167
    2PC     H5A15755   5.956   5.234   1.541 -0.0697  0.4893  0.5530
    2PC     H5B15756   5.863   5.369   1.592  0.1956  0.9477 -0.3694
    2PC     H5C15757   5.983   5.291   1.704 -0.4226 -0.0136  0.4196
    2PC     O3315758   5.587   5.562   1.656 -0.6039  0.7377 -0.0694
    2PC     O3415759   5.657   5.782   1.657 -0.3010  0.4056 -0.1161
    2PC     O2115760   5.912   5.547   2.044  0.1324 -0.4501  0.2649
    2PC     C2115761   6.020   5.548   1.965 -0.0801 -0.2743 -0.0281
    2PC     O2215762   6.065   5.647   1.911  0.7537 -0.3791  0.4646
    3OL     C1215763   6.087   5.415   1.940  0.2034 -0.0954 -0.2278
    3OL     H2R15764   6.165   5.430   1.866 -0.1730 -0.2057 -0.6552
    3OL     H2S15765   6.006   5.356   1.895 -0.8776 -0.2930  1.8359
    3OL     C1315766   6.135   5.346   2.068 -0.7535  0.3395  0.3792
    3OL     H3R15767   6.178   5.251   2.035 -2.3600 -0.4959  0.5913
    3OL     H3S15768   6.052   5.315   2.131 -1.9405  2.0572 -0.2694
    3OL     C1415769   6.244   5.426   2.142  0.1473 -0.1675 -0.3749
    3OL     H4R15770   6.195   5.522   2.159  0.0874  0.1564 -2.2146
    3OL     H4S15771   6.328   5.438   2.074  1.7933 -0.9447  1.4330
    3OL     C1515772   6.284   5.363   2.276 -0.2341  1.1030  0.3509
    3OL     H5R15773   6.305   5.258   2.253  0.5216  1.2598  0.2838
    3OL     H5S15774   6.198   5.365   2.342 -0.6330  1.6511 -0.1789
    3OL     C1615775   6.404   5.429   2.347  0.2947 -0.0313  0.5334
    3OL     H6R15776   6.401   5.538   2.338  1.1698 -0.1598 -3.7776
    3OL     H6S15777   6.492   5.399   2.289 -2.0921 -1.7121 -2.5486
    3OL     C1715778   6.426   5.381   2.491 -0.3800  0.1910  0.7139
    3OL     H7R15779   6.424   5.273   2.507 -2.9211 -0.0414 -0.5516
    3OL     H7S15780   6.343   5.422   2.549 -2.8622  0.0546 -2.4320
    3OL     C1815781   6.557   5.444   2.540  0.0442 -0.1163  0.0010
    3OL     H8R15782   6.553   5.554   2.538 -1.7434 -0.1326 -2.7585
    3OL     H8S15783   6.637   5.417   2.472  0.3126 -1.6752  0.8888
    3OL     C1915784   6.606   5.394   2.674  0.0124 -0.6987 -0.2033
    3OL     H9R15785   6.660   5.300   2.672  0.4338 -0.4513 -1.3272
    3OL    C11015786   6.597   5.457   2.790  0.1094 -0.0718 -0.5329
    3OL    H10R15787   6.634   5.407   2.879  0.5423  0.4700 -0.4006
    3OL    C11115788   6.516   5.581   2.819 -0.0190 -0.1837 -0.4098
    3OL    H11R15789   6.423   5.556   2.870 -0.8774  3.1354 -0.0890
    3OL    H11S15790   6.490   5.634   2.727  1.5565 -0.2820 -0.9378
    3OL    C11215791   6.587   5.678   2.914 -0.4507 -0.5147  0.2536
    3OL    H12R15792   6.532   5.772   2.927 -1.1244 -0.5735 -1.8924
    3OL    H12S15793   6.685   5.708   2.876  0.5090 -0.3240  2.6810
    3OL    C11315794   6.608   5.639   3.061 -0.0775 -0.2087  0.2825
    3OL    H13R15795   6.650   5.724   3.116 -0.9601  1.6420 -1.7584
    3OL    H13S15796   6.674   5.552   3.060  0.0160 -0.1352 -0.1749
    3OL    C11415797   6.480   5.605   3.139 -0.1251 -0.1741  0.2200
    3OL    H14R15798   6.419   5.539   3.078  1.1541 -1.3455  0.1635
    3OL    H14S15799   6.423   5.696   3.159 -0.2673 -0.3983  0.8683
    3OL    C11515800   6.505   5.544   3.278  0.6560 -0.3347  0.0123
    3OL    H15R15801   6.556   5.450   3.254  4.0538  1.6461 -1.2075
    3OL    H15S15802   6.409   5.513   3.319  0.6098  0.7275  0.7134
    3OL    C11615803   6.596   5.615   3.379 -0.0650 -0.0496  0.4624
    3OL    H16R15804   6.572   5.722   3.386  0.3038 -0.0490  1.9687
    3OL    H16S15805   6.696   5.612   3.335  0.1497  0.7915  0.8563
    3OL    C11715806   6.600   5.545   3.515 -0.1363 -0.3620  0.3027
    3OL    H17R15807   6.635   5.442   3.505 -0.9717 -0.5718 -0.7331
    3OL    H17S15808   6.501   5.541   3.561  1.5682  0.7176  4.5142
    3OL    C11815809   6.697   5.610   3.614 -0.0389  0.0092 -0.0336
    3OL    H18R15810   6.687   5.562   3.712 -1.6686 -1.5335 -0.9002
    3OL    H18S15811   6.684   5.716   3.638  0.8593 -0.3099  2.0942
    3OL    H18T15812   6.803   5.605   3.592  0.3709  0.4059  1.6765
    1PA    C11615813   1.993   5.223   3.675 -0.4466  0.1351  0.3383
    1PA    H16R15814   2.011   5.295   3.755  0.4920  0.4399 -0.1321
    1PA    H16S15815   1.955   5.276   3.587 -1.1231 -0.5644  0.1917
    1PA    H16T15816   2.084   5.175   3.639  0.0053  1.0355  0.2424
    1PA    C11515817   1.885   5.119   3.710 -0.1891 -0.0494  0.5847
    1PA    H15R15818   1.897   5.105   3.818  1.5215 -0.1836  0.4072
    1PA    H15S15819   1.784   5.157   3.693 -0.6907 -2.0133 -1.1410
    1PA    C11415820   1.899   4.986   3.635  0.7194 -0.0635  0.7587
    1PA    H14R15821   1.991   4.949   3.680  0.8567 -0.6747  0.0037
    1PA    H14S15822   1.819   4.918   3.664 -1.5173  1.4518 -1.4475
    1PA    C11315823   1.903   4.980   3.481 -0.2052 -0.4368  0.7426
    1PA    H13R15824   1.943   5.068   3.431 -1.7262 -0.5147 -0.7121
    1PA    H13S15825   1.964   4.896   3.446 -0.7142  0.2200 -1.8854
    1PA    C11215826   1.759   4.984   3.429  0.1835  0.0394 -0.3060
    1PA    H12R15827   1.706   4.896   3.466 -2.5295  2.3112  1.7264
    1PA    H12S15828   1.712   5.077   3.463 -0.0670 -0.3263  0.3509
    1PA    C11115829   1.755   4.996   3.276 -0.4592  0.0878 -0.2874
    1PA    H11R15830   1.837   5.053   3.233 -0.0826 -1.5189 -1.8413
    1PA    H11S15831   1.765   4.895   3.234  0.8434  0.5276 -1.0788
    1PA    C11015832   1.618   5.050   3.230 -0.9054 -0.1423  0.7472
    1PA    H10R15833   1.542   4.989   3.279  1.4773 -3.3321  0.7657
    1PA    H10S15834   1.602   5.152   3.267 -2.5286 -0.5536  1.2240
    1PA     C1915835   1.607   5.055   3.077  0.5021 -0.2602  0.6214
    1PA     H9R15836   1.505   5.087   3.053  0.5598 -0.1164  0.5668
    1PA     H9S15837   1.673   5.131   3.034 -0.5019  0.0511 -0.4334
    1PA     C1815838   1.623   4.917   3.012  0.0278  0.0986 -0.2788
    1PA     H8R15839   1.728   4.891   3.025  0.3516  1.7784  0.9928
    1PA     H8S15840   1.563   4.838   3.056 -1.3556  1.2818  0.0443
    1PA     C1715841   1.602   4.940   2.862  0.6061 -0.1169 -0.3951
    1PA     H7R15842   1.495   4.942   2.843  0.5535  0.7947 -0.0295
    1PA     H7S15843   1.659   5.024   2.824 -0.8065  0.3542 -1.5758
    1PA     C1615844   1.652   4.818   2.783  0.2082 -0.0841 -0.7008
    1PA     H6R15845   1.628   4.824   2.676 -0.2136  0.7965 -0.5669
    1PA     H6S15846   1.761   4.811   2.778  0.2070 -2.2895  1.0301
    1PA     C1515847   1.610   4.680   2.834 -0.0497  0.2524  0.0027
    1PA     H5R15848   1.682   4.610   2.793 -0.8181  1.4123 -3.7138
    1PA     H5S15849   1.624   4.677   2.942  0.6352  0.7581 -0.0663
    1PA     C1415850   1.466   4.643   2.796  0.0350  0.1935 -0.2609
    1PA     H4R15851   1.439   4.551   2.848  1.9851 -1.2129 -1.5657
    1PA     H4S15852   1.388   4.719   2.806 -1.4325 -1.3019  0.1862
    1PA     C1315853   1.463   4.612   2.645 -0.1250 -0.3090 -0.1578
    1PA     H3R15854   1.426   4.698   2.588  0.3663  0.0006 -0.0195
    1PA     H3S15855   1.563   4.588   2.609  0.8302 -0.3626  2.3452
    1PA     C1215856   1.373   4.489   2.629 -0.2376 -0.2043 -0.3295
    1PA     H2R15857   1.423   4.404   2.676  0.2784  0.9353  1.2804
    1PA     H2S15858   1.277   4.516   2.675 -1.0687  0.8577 -2.5080
    2PC     C1115859   1.339   4.458   2.485  0.0521  0.4911 -0.5546
    2PC     O1215860   1.245   4.512   2.430 -0.5261  0.1990  0.1278
    2PC     O1115861   1.433   4.376   2.434  0.0981 -0.2284  0.6353
    2PC      C115862   1.404   4.297   2.317 -0.2443  0.0319  0.5406
    2PC      HR15863   1.355   4.349   2.235  2.8568  0.3693 -1.2459
    2PC      HS15864   1.484   4.250   2.260 -0.4801 -1.0516  1.0707
    2PC      C215865   1.316   4.176   2.353 -0.1317 -0.2630 -0.1679
    2PC      HX15866   1.368   4.106   2.420 -0.1532 -0.6140 -0.5151
    2PC      C315867   1.283   4.088   2.232 -0.1185 -0.2369 -0.1910
    2PC      HA15868   1.378   4.067   2.182 -0.2087 -2.0639  0.3358
    2PC      HB15869   1.239   3.994   2.268  0.8926 -1.0282 -0.9436
    2PC     O3115870   1.186   4.154   2.149 -0.1172  0.0491  0.0329
    2PC     P3115871   1.161   4.086   2.006 -0.2866  0.1436  0.0173
    2PC     O3215872   1.266   4.155   1.906  0.4037 -0.3572  0.3878
    2PC     C3115873   1.347   4.073   1.820 -0.1053  0.0792 -0.5111
    2PC     H1A15874   1.287   3.997   1.769  1.7189 -0.8114 -1.3983
    2PC     H1B15875   1.392   4.141   1.746  1.2407  0.3994  0.5754
    2PC     C3215876   1.462   4.024   1.908 -0.5093  0.0463 -0.0001
    2PC     H2A15877   1.521   4.103   1.955 -2.5074 -0.0381  2.9374
    2PC     H2B15878   1.425   3.960   1.988  2.3351 -0.8657  0.6787
    2PC     N3115879   1.567   3.943   1.839 -0.3807 -0.1527  0.4290
    2PC     C3315880   1.502   3.823   1.777  0.0688  0.1068 -0.5554
    2PC     H3A15881   1.433   3.859   1.701 -0.0580  0.5912 -0.2173
    2PC     H3B15882   1.579   3.760   1.732 -0.4410  0.9945 -2.7933
    2PC     H3C15883   1.443   3.770   1.852 -2.3229  0.7278 -1.8854
    2PC     C3415884   1.643   4.031   1.745  0.1434 -0.3673  0.6481
    2PC     H4A15885   1.673   4.116   1.806  1.1554  0.1754 -0.5588
    2PC     H4B15886   1.731   3.972   1.718 -1.3183 -1.1047 -3.1779
    2PC     H4C15887   1.586   4.068   1.661 -0.4486  0.1862  1.2804
    2PC     C3515888   1.671   3.908   1.942  0.3912  0.6485 -0.0680
    2PC     H5A15889   1.697   3.996   2.001  0.1163 -1.1520  2.9534
    2PC     H5B15890   1.758   3.861   1.896 -0.1629  1.4559 -2.0322
    2PC     H5C15891   1.624   3.838   2.012  2.1708  2.0830  2.7247
    2PC     O3315892   1.185   3.940   2.015  0.1996  0.2177 -0.0326
    2PC     O3415893   1.019   4.113   1.973 -0.1663 -0.0686 -0.6881
    2PC     O2115894   1.196   4.221   2.418 -0.2293 -0.1054 -0.4563
    2PC     C2115895   1.121   4.126   2.477  0.1452 -0.1638 -0.0671
    2PC     O2215896   1.164   4.021   2.517  0.2613  0.0736  0.4317
    3OL     C1215897   0.974   4.163   2.483  0.2499  0.2068  0.2894
    3OL     H2R15898   0.915   4.086   2.534 -1.2457 -0.0269 -1.6745
    3OL     H2S15899   0.946   4.173   2.378  1.5514 -0.8005 -0.1861
    3OL     C1315900   0.951   4.304   2.538  0.2430  0.5092 -0.4688
    3OL     H3R15901   0.844   4.326   2.531 -0.0545 -0.8099 -0.3546
    3OL     H3S15902   1.019   4.381   2.501  1.2373  1.2533  2.6088
    3OL     C1415903   0.977   4.296   2.689 -0.2507 -0.1598 -0.4138
    3OL     H4R15904   1.062   4.236   2.720  0.2037  1.4636  1.7217
    3OL     H4S15905   0.888   4.253   2.736 -0.6148 -0.0159 -0.9576
    3OL     C1515906   0.988   4.437   2.750 -0.0741 -0.1902 -0.3757
    3OL     H5R15907   0.892   4.486   2.732 -1.4476 -1.2804  3.1019
    3OL     H5S15908   1.066   4.495   2.701 -1.5486  1.2313 -1.1350
    3OL     C1615909   1.001   4.436   2.903  0.4880 -0.5963 -0.4238
    3OL     H6R15910   1.087   4.375   2.932  1.8970  1.7023  0.5583
    3OL     H6S15911   0.919   4.397   2.963  0.2932  0.2764 -0.1050
    3OL     C1715912   1.012   4.572   2.974 -0.3782 -0.6316 -0.2165
    3OL     H7R15913   0.921   4.629   2.954 -0.3733 -1.0402 -1.4975
    3OL     H7S15914   1.087   4.633   2.923 -0.5403 -1.6707 -1.7725
    3OL     C1815915   1.033   4.571   3.126 -0.0650  0.0769 -0.2528
    3OL     H8R15916   0.944   4.527   3.171  0.7477 -1.1118  0.2407
    3OL     H8S15917   1.044   4.678   3.144 -0.9009  0.2350 -0.6359
    3OL     C1915918   1.160   4.501   3.165 -0.1992 -0.0860 -0.1073
    3OL     H9R15919   1.163   4.396   3.135 -0.3051  0.3727 -1.8426
    3OL    C11015920   1.255   4.570   3.227 -0.5522  0.1814  0.1383
    3OL    H10R15921   1.348   4.521   3.254 -0.8266 -0.1489  0.4957
    3OL    C11115922   1.259   4.710   3.283 -0.5736  0.1930  0.1116
    3OL    H11R15923   1.160   4.752   3.301 -0.2141  0.8306  0.6406
    3OL    H11S15924   1.320   4.767   3.213 -0.6586 -0.6450 -0.6571
    3OL    C11215925   1.324   4.720   3.422 -0.4928 -0.5064  0.1255
    3OL    H12R15926   1.420   4.668   3.426  0.1215  0.6376  0.7050
    3OL    H12S15927   1.251   4.673   3.489 -0.5427 -0.3911  0.1526
    3OL    C11315928   1.338   4.868   3.460  0.3798 -0.3979 -0.5824
    3OL    H13R15929   1.246   4.926   3.454 -0.0186 -0.9109  0.3781
    3OL    H13S15930   1.412   4.921   3.400 -1.1197  1.8375 -0.5846
    3OL    C11415931   1.389   4.889   3.603  0.5884  0.2332 -0.7495
    3OL    H14R15932   1.496   4.871   3.600  0.5210 -0.4528  0.6029
    3OL    H14S15933   1.339   4.830   3.679 -0.0772 -0.9120 -2.0342
    3OL    C11515934   1.375   5.037   3.641 -0.0146  0.0408 -0.2007
    3OL    H15R15935   1.275   5.074   3.617  0.5794  0.7673 -1.6911
    3OL    H15S15936   1.443   5.095   3.579  1.6727 -1.2470  0.3630
    3OL    C11615937   1.427   5.067   3.783  0.1452 -0.1204 -0.2252
    3OL    H16R15938   1.535   5.063   3.796 -0.0554 -2.0861  1.3286
    3OL    H16S15939   1.377   5.007   3.860 -2.8990  1.4454 -0.8054
    3OL    C11715940   1.405   5.213   3.825 -0.2846 -0.2075 -0.1432
    3OL    H17R15941   1.446   5.279   3.748 -0.2349  0.3219  0.3328
    3OL    H17S15942   1.457   5.234   3.918  0.3892  0.2451 -0.6064
    3OL    C11815943   1.258   5.251   3.848 -0.2944 -0.1605 -0.2824
    3OL    H18R15944   1.209   5.174   3.907 -1.2294  0.7322  0.1333
    3OL    H18S15945   1.205   5.257   3.752  1.0762  0.1052 -1.0532
    3OL    H18T15946   1.257   5.348   3.897  2.1128 -0.1820 -0.0864
    1PA    C11615947   3.907   3.914   3.909  0.2668  0.0518 -0.3367
    1PA    H16R15948   3.953   4.000   3.959 -0.5285 -0.3258  1.0944
    1PA    H16S15949   3.873   3.831   3.971 -0.9706  0.6885 -0.1357
    1PA    H16T15950   3.820   3.939   3.849 -0.5412 -0.5577  0.5528
    1PA    C11515951   4.011   3.871   3.804 -0.1787 -0.6980 -0.4776
    1PA    H15R15952   4.021   3.941   3.721 -1.4809  0.9434  0.6589
    1PA    H15S15953   4.111   3.849   3.842  0.1354 -1.5723 -1.7547
    1PA    C11415954   3.968   3.737   3.743  0.2151 -0.5996 -0.9715
    1PA    H14R15955   3.872   3.745   3.692  0.0137 -0.7360 -0.6207
    1PA    H14S15956   4.048   3.710   3.673  0.5282 -0.1505 -0.7931
    1PA    C11315957   3.958   3.607   3.824  0.1698  0.1045  0.1666
    1PA    H13R15958   4.026   3.616   3.909  1.4602 -1.8451 -0.5804
    1PA    H13S15959   3.859   3.602   3.870  0.4382 -0.6197  0.6781
    1PA    C11215960   3.996   3.481   3.747  0.5229  0.4726 -0.2652
    1PA    H12R15961   4.101   3.484   3.717  0.8511 -2.0119  0.3787
    1PA    H12S15962   3.988   3.386   3.801 -2.5709  0.0646 -1.2294
    1PA    C11115963   3.898   3.453   3.631  0.1526 -0.5761  0.2896
    1PA    H11R15964   3.880   3.544   3.575 -2.8954  0.2185  2.3220
    1PA    H11S15965   3.935   3.378   3.561 -1.1195 -2.4649  1.5495
    1PA    C11015966   3.761   3.394   3.666 -0.2204  0.3647  0.4257
    1PA    H10R15967   3.767   3.295   3.710  0.5362  0.8224  1.3797
    1PA    H10S15968   3.699   3.458   3.729 -2.0595  0.7066 -1.5905
    1PA     C1915969   3.687   3.390   3.531 -0.0576  0.3667  0.3366
    1PA     H9R15970   3.675   3.489   3.487  0.0942 -0.1079 -0.8284
    1PA     H9S15971   3.743   3.330   3.459 -1.3280 -2.2736  1.4360
    1PA     C1815972   3.547   3.332   3.552 -0.0540  0.2148 -0.0424
    1PA     H8R15973   3.546   3.236   3.603  0.2201  0.8209  1.1389
    1PA     H8S15974   3.490   3.414   3.596 -1.8970 -0.0105 -1.8585
    1PA     C1715975   3.468   3.309   3.423 -0.4952 -0.6525  0.3723
    1PA     H7R15976   3.359   3.306   3.434 -0.5583  1.2701  0.5522
    1PA     H7S15977   3.494   3.397   3.364  0.4134 -0.3650  1.1924
    1PA     C1615978   3.507   3.183   3.344 -0.3391 -0.3500 -0.0368
    1PA     H6R15979   3.615   3.184   3.328  0.2491  2.4652  2.9553
    1PA     H6S15980   3.476   3.106   3.414 -0.4489  0.5770  0.9630
    1PA     C1515981   3.433   3.175   3.209  0.1657 -0.0255 -0.3370
    1PA     H5R15982   3.333   3.134   3.222 -1.3484  2.0197 -3.9732
    1PA     H5S15983   3.425   3.280   3.179  1.1911  0.2314  0.2406
    1PA     C1415984   3.510   3.097   3.102  0.3783  0.0591 -0.2468
    1PA     H4R15985   3.609   3.137   3.080  0.0385  0.3857 -1.2376
    1PA     H4S15986   3.527   2.993   3.131 -1.9846  0.1325  1.7525
    1PA     C1315987   3.430   3.094   2.971  0.3880 -0.1414 -0.2477
    1PA     H3R15988   3.402   3.193   2.936  0.6604  0.3892  0.9937
    1PA     H3S15989   3.506   3.058   2.901  0.3131  2.7616 -1.9461
    1PA     C1215990   3.314   2.993   2.978  0.0623  0.2556  0.1492
    1PA     H2R15991   3.366   2.901   3.007  0.4275  0.3739 -0.1191
    1PA     H2S15992   3.240   3.018   3.053 -1.4564 -4.0831  0.3428
    2PC     C1115993   3.233   2.971   2.853  0.6153 -0.6723 -0.0596
    2PC     O1215994   3.135   2.900   2.846  0.0512  0.0453  0.4022
    2PC     O1115995   3.284   3.030   2.743  0.2463 -0.5310 -0.1562
    2PC      C115996   3.216   3.008   2.618  0.1093 -0.6435 -0.0614
    2PC      HR15997   3.191   2.905   2.591 -0.8090 -0.0433 -1.5918
    2PC      HS15998   3.123   3.066   2.615  2.3854  3.3851  0.3739
    2PC      C215999   3.319   3.048   2.512  0.3886 -0.2275  0.3666
    2PC      HX16000   3.278   3.076   2.415  1.5494  1.8355  0.3958
    2PC      C316001   3.418   2.935   2.485  0.4348 -0.3797  1.1502
    2PC      HA16002   3.478   2.919   2.575  0.9269 -0.1414  0.8700
    2PC      HB16003   3.369   2.842   2.456 -0.1226 -0.0829  1.1411
    2PC     O3116004   3.513   2.972   2.383 -1.1383  1.0858  0.1828
    2PC     P3116005   3.487   2.989   2.226  0.2911 -0.2650 -0.2229
    2PC     O3216006   3.616   2.922   2.159  0.4050  0.0162 -0.2899
    2PC     C3116007   3.619   2.779   2.142  0.5763 -0.0332  0.1257
    2PC     H1A16008   3.642   2.730   2.237 -2.3471 -0.2271  0.8500
    2PC     H1B16009   3.517   2.740   2.131  0.7534 -2.2605  4.3888
    2PC     C3216010   3.717   2.740   2.030  0.6966  0.0937  0.1865
    2PC     H2A16011   3.809   2.794   2.051  1.7267 -0.8948 -1.4983
    2PC     H2B16012   3.735   2.632   2.038  0.4262 -0.0731 -1.2447
    2PC     N3116013   3.691   2.771   1.886  0.3000 -0.3874  0.1519
    2PC     C3316014   3.812   2.747   1.800  0.1911  0.9383 -0.3876
    2PC     H3A16015   3.832   2.643   1.824  1.1176  1.6431  2.3655
    2PC     H3B16016   3.805   2.773   1.695  1.4083 -0.8293 -0.9442
    2PC     H3C16017   3.890   2.805   1.849 -0.0407  1.6511 -0.8503
    2PC     C3416018   3.581   2.685   1.830 -0.0259 -0.1845  0.4750
    2PC     H4A16019   3.569   2.719   1.727 -0.9160  1.1829  1.0036
    2PC     H4B16020   3.628   2.586   1.832  0.3270 -0.1425 -2.0255
    2PC     H4C16021   3.490   2.692   1.889  0.6239  2.0520  1.3335
    2PC     C3516022   3.648   2.914   1.875 -0.3019 -0.5693  0.0695
    2PC     H5A16023   3.733   2.976   1.904 -0.2001  0.2531 -1.8366
    2PC     H5B16024   3.570   2.937   1.947  0.3568 -1.5596  1.1405
    2PC     H5C16025   3.633   2.946   1.772  0.0562  2.1674  0.7759
    2PC     O3316026   3.363   2.915   2.191 -0.0097 -0.0772  0.4322
    2PC     O3416027   3.455   3.125   2.175  0.0940 -0.2722 -0.1200
    2PC     O2116028   3.392   3.163   2.561  0.2928  0.2399 -0.5594
    2PC     C2116029   3.340   3.285   2.538  0.0554  0.2668  0.0880
    2PC     O2216030   3.246   3.315   2.468  0.0174  0.5229  0.2488
    3OL     C1216031   3.432   3.395   2.583  0.3214 -0.0843  0.4154
    3OL     H2R16032   3.418   3.489   2.529 -0.9728 -0.3952  0.1816
    3OL     H2S16033   3.534   3.359   2.568 -0.4885 -2.1023 -0.5122
    3OL     C1316034   3.414   3.413   2.735  0.0271  0.2978  0.3371
    3OL     H3R16035   3.494   3.479   2.770 -1.4787  2.6776 -0.4751
    3OL     H3S16036   3.439   3.319   2.784 -0.1050  0.9329  1.6564
    3OL     C1416037   3.271   3.459   2.766 -0.3532 -0.4939 -0.1796
    3OL     H4R16038   3.210   3.386   2.713 -1.5664  0.2203  0.1886
    3OL     H4S16039   3.253   3.559   2.725 -1.0650 -0.3389  0.4800
    3OL     C1516040   3.236   3.463   2.916 -0.0640 -0.5506 -0.1098
    3OL     H5R16041   3.284   3.384   2.974 -1.1354  0.3125  2.0533
    3OL     H5S16042   3.129   3.443   2.920 -0.1069 -0.7984 -1.7453
    3OL     C1616043   3.269   3.601   2.976 -0.0081 -0.4368 -0.3957
    3OL     H6R16044   3.209   3.675   2.923  0.2272  0.7739  0.9805
    3OL     H6S16045   3.375   3.622   2.960  0.0321 -0.3505 -0.0247
    3OL     C1716046   3.227   3.609   3.124  0.4591 -0.4352 -0.2622
    3OL     H7R16047   3.263   3.522   3.179  0.1605 -0.4763 -0.1316
    3OL     H7S16048   3.119   3.596   3.125  0.4726 -0.5336  0.8577
    3OL     C1816049   3.247   3.737   3.207 -0.5156 -0.0936 -0.5416
    3OL     H8R16050   3.189   3.810   3.151 -1.8992 -1.6951 -1.2971
    3OL     H8S16051   3.352   3.762   3.219 -0.2359 -1.5742  0.4081
    3OL     C1916052   3.185   3.732   3.345  0.3926 -0.4066 -0.1397
    3OL     H9R16053   3.092   3.676   3.347 -0.8385  1.3699 -2.2682
    3OL    C11016054   3.216   3.799   3.455  0.2146 -0.4950 -0.0373
    3OL    H10R16055   3.155   3.784   3.544  2.7824 -2.2838  1.5644
    3OL    C11116056   3.329   3.898   3.464 -0.3306  0.1704 -0.3984
    3OL    H11R16057   3.289   3.990   3.422  0.9347  0.7536 -0.3659
    3OL    H11S16058   3.420   3.860   3.416  0.1200 -0.0440  0.5869
    3OL    C11216059   3.360   3.916   3.613  0.0162  0.0424 -0.4529
    3OL    H12R16060   3.264   3.919   3.666 -0.1027 -0.7242 -0.6143
    3OL    H12S16061   3.405   4.014   3.625  0.0734 -0.0424  0.0709
    3OL    C11316062   3.447   3.805   3.673 -0.3966  0.0340  0.1422
    3OL    H13R16063   3.540   3.792   3.617 -0.0099 -0.1447  0.8090
    3OL    H13S16064   3.403   3.705   3.665  1.0056 -0.5913 -0.1717
    3OL    C11416065   3.479   3.835   3.820 -0.0283 -0.4986  0.1742
    3OL    H14R16066   3.389   3.866   3.873 -0.4026 -1.6459  0.2317
    3OL    H14S16067   3.548   3.919   3.807  0.5111 -0.5852  2.1469
    3OL    C11516068   3.552   3.719   3.889 -0.7269 -0.9562  0.1587
    3OL    H15R16069   3.649   3.704   3.841 -1.2651 -0.7629 -1.0090
    3OL    H15S16070   3.504   3.623   3.871  0.2008 -1.2075 -1.1002
    3OL    C11616071   3.582   3.757   4.035 -0.4994  0.2295 -0.1853
    3OL    H16R16072   3.491   3.789   4.086 -0.6119  3.1268 -1.9972
    3OL    H16S16073   3.639   3.849   4.043 -1.6761  0.9791 -0.1768
    3OL    C11716074   3.651   3.648   4.119 -0.4118 -0.0343 -0.5987
    3OL    H17R16075   3.667   3.684   4.221 -0.1237  0.2456 -0.7393
    3OL    H17S16076   3.748   3.630   4.071  0.7112  1.1158  1.1333
    3OL    C11816077   3.562   3.523   4.123  0.6100 -0.7709 -0.4090
    3OL    H18R16078   3.549   3.479   4.024 -0.2797  1.4766 -1.3669
    3OL    H18S16079   3.463   3.553   4.158  0.8015  0.2469 -0.7083
    3OL    H18T16080   3.613   3.445   4.180  2.3682  1.1731  0.8394
    1PA    C11616081   6.312   1.208   3.158  0.4086 -0.6733  0.0300
    1PA    H16R16082   6.252   1.256   3.081 -0.0532 -1.8762 -0.3730
    1PA    H16S16083   6.409   1.232   3.112 -0.9048  1.1807 -2.0067
    1PA    H16T16084   6.303   1.257   3.255 -0.8245 -0.7852 -0.0109
    1PA    C11516085   6.288   1.057   3.158 -0.3171 -0.5643 -0.2327
    1PA    H15R16086   6.185   1.039   3.188 -0.4951 -0.3226 -0.6888
    1PA    H15S16087   6.291   1.015   3.057  0.1317 -0.9521 -0.0676
    1PA    C11416088   6.379   0.976   3.253 -0.1238 -0.5977 -0.4425
    1PA    H14R16089   6.483   0.996   3.228  0.2786 -1.8249  0.1793
    1PA    H14S16090   6.349   1.012   3.352 -3.1601 -0.9575 -1.1337
    1PA    C11316091   6.342   0.828   3.240  0.6850 -0.9114  0.6898
    1PA    H13R16092   6.384   0.789   3.333  1.8381 -0.3388  0.4340
    1PA    H13S16093   6.235   0.809   3.234  1.1163 -3.6894  0.5823
    1PA    C11216094   6.415   0.764   3.121 -0.0073 -0.0170 -0.2348
    1PA    H12R16095   6.382   0.811   3.028  2.2740  0.3826 -0.9080
    1PA    H12S16096   6.523   0.777   3.127  0.0311 -0.1740 -0.5358
    1PA    C11116097   6.381   0.614   3.124 -0.5652  0.0832 -1.1054
    1PA    H11R16098   6.418   0.571   3.217 -0.5577  0.3801 -0.9683
    1PA    H11S16099   6.274   0.603   3.139 -0.4085  1.8674  2.4372
    1PA    C11016100   6.445   0.536   3.009 -0.0133 -0.0916 -0.6857
    1PA    H10R16101   6.416   0.587   2.917 -0.1952  3.8420  1.3467
    1PA    H10S16102   6.554   0.543   3.019 -0.0360 -1.9038  1.4843
    1PA     C1916103   6.399   0.389   2.998  0.1398 -0.2475  0.6463
    1PA     H9R16104   6.442   0.325   3.075 -1.2478 -2.9991 -0.7465
    1PA     H9S16105   6.290   0.386   2.994  0.0283  0.4790  2.2862
    1PA     C1816106   6.461   0.331   2.870 -0.1319  0.4029  0.2125
    1PA     H8R16107   6.566   0.354   2.851  0.1172 -0.5094  0.4527
    1PA     H8S16108   6.454   0.223   2.880  1.0150  0.3648  0.8090
    1PA     C1716109   6.376   0.376   2.751 -0.5255 -0.2443  0.2458
    1PA     H7R16110   6.269   0.391   2.771 -0.5685 -0.0441 -0.1166
    1PA     H7S16111   6.402   0.478   2.723 -0.1071 -0.3639  0.2046
    1PA     C1616112   6.388   0.290   2.624 -0.2764 -0.0126  0.1111
    1PA     H6R16113   6.494   0.280   2.602 -0.5680 -0.6066 -1.1155
    1PA     H6S16114   6.342   0.194   2.649 -0.9303  0.0754 -0.7118
    1PA     C1516115   6.311   0.360   2.511  0.0732 -0.4064 -0.3735
    1PA     H5R16116   6.208   0.387   2.535 -1.1172 -3.7010 -1.2855
    1PA     H5S16117   6.374   0.448   2.494 -1.0079  1.1029  2.6471
    1PA     C1416118   6.317   0.284   2.378  0.0922  0.1137 -0.6727
    1PA     H4R16119   6.421   0.278   2.346  0.2533 -1.9972  0.1016
    1PA     H4S16120   6.292   0.179   2.392 -0.6373  0.3036 -0.4950
    1PA     C1316121   6.233   0.355   2.270 -0.3533 -0.1037 -0.4712
    1PA     H3R16122   6.215   0.282   2.191 -0.5835 -1.3165  0.6632
    1PA     H3S16123   6.136   0.371   2.317 -0.0365 -2.4538  1.1778
    1PA     C1216124   6.303   0.473   2.203  0.1801  0.1234  0.4589
    1PA     H2R16125   6.319   0.558   2.270  2.0266 -0.8165  1.2965
    1PA     H2S16126   6.408   0.449   2.182 -0.5836 -0.3987 -3.5580
    2PC     C1116127   6.236   0.524   2.077  0.1928  0.5054  0.6053
    2PC     O1216128   6.118   0.548   2.067  0.2144  0.3276 -0.0928
    2PC     O1116129   6.326   0.539   1.978 -0.4396  0.2163 -0.0179
    2PC      C116130   6.288   0.616   1.862  0.9434  0.8299 -0.0834
    2PC      HR16131   6.370   0.603   1.792  1.5579  3.1865  0.1220
    2PC      HS16132   6.193   0.574   1.828  1.4475 -0.8520  0.4809
    2PC      C216133   6.282   0.764   1.904  0.3319  0.8567 -0.2534
    2PC      HX16134   6.189   0.788   1.957  0.8778  0.2950  1.0094
    2PC      C316135   6.291   0.859   1.785 -0.0136  0.9256 -0.2259
    2PC      HA16136   6.210   0.850   1.712 -0.0304  1.7376 -0.3192
    2PC      HB16137   6.283   0.962   1.823  0.8060  0.5624  0.9705
    2PC     O3116138   6.417   0.835   1.721 -0.2639 -0.6574 -0.1458
    2PC     P3116139   6.446   0.874   1.568 -0.0944  0.0280  0.0610
    2PC     O3216140   6.377   0.743   1.508  0.2533  0.0279 -0.3442
    2PC     C3116141   6.351   0.750   1.367  0.9361  0.6755 -0.4399
    2PC     H1A16142   6.288   0.836   1.341  1.1950  0.9172 -0.2808
    2PC     H1B16143   6.451   0.757   1.322  0.2079  0.3059 -2.1830
    2PC     C3216144   6.280   0.624   1.317  0.1779  0.9758 -0.1280
    2PC     H2A16145   6.259   0.620   1.210  0.9875  1.3394 -0.3071
    2PC     H2B16146   6.346   0.541   1.344  1.0346  2.1005  1.3816
    2PC     N3116147   6.157   0.583   1.394  0.7018 -0.1308  0.1421
    2PC     C3316148   6.195   0.494   1.509  0.2577  0.1321  0.4936
    2PC     H3A16149   6.272   0.552   1.559  0.0669  0.6820  0.1558
    2PC     H3B16150   6.100   0.478   1.561 -0.2970  0.0287 -0.5095
    2PC     H3C16151   6.223   0.396   1.469 -0.7602  0.6868 -1.7854
    2PC     C3416152   6.082   0.706   1.435  0.0817 -0.1679 -0.8589
    2PC     H4A16153   5.976   0.683   1.420 -0.0419  0.9795 -1.9139
    2PC     H4B16154   6.119   0.721   1.536  1.1324 -0.9797 -1.1036
    2PC     H4C16155   6.098   0.794   1.373  0.6820  0.8918  0.7429
    2PC     C3516156   6.072   0.499   1.303 -0.2219  0.4688  0.4435
    2PC     H5A16157   6.133   0.413   1.278  2.1580  2.0423  0.4952
    2PC     H5B16158   6.037   0.559   1.219 -1.1534 -0.8150 -0.1137
    2PC     H5C16159   5.987   0.471   1.365 -0.2180 -0.2433  0.1398
    2PC     O3316160   6.394   1.002   1.514 -0.1606 -0.2862 -0.6308
    2PC     O3416161   6.591   0.886   1.545 -0.1025 -0.0458 -0.0271
    2PC     O2116162   6.396   0.782   1.990  0.2836  0.1354 -0.0248
    2PC     C2116163   6.385   0.868   2.093 -0.4960  0.1768 -0.1356
    2PC     O2216164   6.289   0.941   2.099 -0.7271 -0.1861  0.7816
    3OL     C1216165   6.497   0.842   2.191 -0.2811  0.3676 -0.3306
    3OL     H2R16166   6.599   0.860   2.157  0.7261 -2.3858  0.9781
    3OL     H2S16167   6.498   0.735   2.211  0.7452  0.4606  0.1630
    3OL     C1316168   6.468   0.921   2.319  0.5062  0.4590 -0.2056
    3OL     H3R16169   6.397   0.868   2.383 -1.4903  1.9972 -1.0259
    3OL     H3S16170   6.431   1.023   2.305  0.6710  0.8070  1.6030
    3OL     C1416171   6.598   0.953   2.395  0.6681 -0.6117 -0.0152
    3OL     H4R16172   6.645   0.859   2.425  1.3471 -0.2045  0.2105
    3OL     H4S16173   6.560   0.997   2.488 -1.2491 -0.2714 -0.9051
    3OL     C1516174   6.685   1.062   2.331  0.4307 -0.6430 -0.3965
    3OL     H5R16175   6.615   1.144   2.313  0.3938  0.4659  3.6910
    3OL     H5S16176   6.741   1.033   2.242  0.1592 -0.9140 -0.4826
    3OL     C1616177   6.799   1.106   2.424 -0.1628  0.0490  0.0215
    3OL     H6R16178   6.877   1.165   2.375  1.6271 -2.5226 -0.4255
    3OL     H6S16179   6.852   1.016   2.458  1.3655  0.8234 -0.2176
    3OL     C1716180   6.753   1.186   2.546  0.4844  0.3673  0.0638
    3OL     H7R16181   6.675   1.136   2.604  0.6463 -0.5542 -0.4974
    3OL     H7S16182   6.696   1.270   2.507  1.8846  1.8238  1.0351
    3OL     C1816183   6.863   1.226   2.646  0.8038  0.0424 -0.1549
    3OL     H8R16184   6.931   1.143   2.666  0.9917  0.0172 -0.8625
    3OL     H8S16185   6.828   1.257   2.745  1.5159 -1.1232  0.4757
    3OL     C1916186   6.941   1.338   2.581  0.0243  0.4510 -0.4090
    3OL     H9R16187   6.993   1.300   2.493 -2.0925 -0.6012 -1.2770
    3OL    C11016188   6.968   1.455   2.636 -0.1455  0.2737  0.0545
    3OL    H10R16189   7.035   1.517   2.576 -1.4236  1.6481 -0.0041
    3OL    C11116190   6.914   1.511   2.765  0.4959  0.5555  0.2053
    3OL    H11R16191   6.826   1.454   2.795 -0.0847  1.4702  0.2649
    3OL    H11S16192   6.879   1.613   2.747  0.2394  0.1068 -2.2019
    3OL    C11216193   7.017   1.512   2.879  0.6330 -0.1154  0.0916
    3OL    H12R16194   7.101   1.580   2.864  0.0093  0.4317 -1.0661
    3OL    H12S16195   7.045   1.410   2.907 -2.0815 -0.3013  2.7269
    3OL    C11316196   6.962   1.565   3.012 -0.9737 -0.4756 -0.4027
    3OL    H13R16197   6.877   1.509   3.052 -1.5349  0.4333 -0.2861
    3OL    H13S16198   6.921   1.664   2.992 -2.6181 -0.9319  0.5021
    3OL    C11416199   7.070   1.588   3.118 -0.8892 -0.2451 -0.5395
    3OL    H14R16200   7.038   1.648   3.204  1.3370  0.8237 -0.3781
    3OL    H14S16201   7.150   1.648   3.074  1.1802 -0.8504  2.1130
    3OL    C11516202   7.125   1.455   3.172  0.4091  0.1885 -0.7356
    3OL    H15R16203   7.163   1.390   3.093 -0.5531 -3.3845  1.5144
    3OL    H15S16204   7.040   1.409   3.223  1.0279 -1.0683 -0.8164
    3OL    C11616205   7.250   1.473   3.258  0.3155  0.1601 -0.5931
    3OL    H16R16206   7.235   1.539   3.344  0.3784  0.5657 -0.8865
    3OL    H16S16207   7.325   1.523   3.196  2.4965  1.8087  2.9783
    3OL    C11716208   7.299   1.339   3.315 -0.1702  0.1764 -0.1282
    3OL    H17R16209   7.349   1.291   3.231  1.7291  0.8909  0.5501
    3OL    H17S16210   7.215   1.275   3.342  0.0120  0.8932  2.3191
    3OL    C11816211   7.397   1.360   3.430 -0.6102 -0.2898  0.3372
    3OL    H18R16212   7.486   1.411   3.393 -1.6946  1.1792 -0.3446
    3OL    H18S16213   7.417   1.264   3.478  0.4611 -0.9834 -1.4048
    3OL    H18T16214   7.353   1.419   3.511  0.6520 -1.1580  1.7170
    1PA    C11616215   2.612   2.722   3.531 -0.1661 -0.3189 -0.2271
    1PA    H16R16216   2.703   2.671   3.563 -0.2925 -1.4583 -1.5977
    1PA    H16S16217   2.629   2.784   3.443 -0.0964  0.7744  0.5388
    1PA    H16T16218   2.549   2.640   3.497 -1.3412  0.0373  0.9690
    1PA    C11516219   2.536   2.800   3.639  0.5171  0.2049 -0.1211
    1PA    H15R16220   2.497   2.726   3.709 -0.8684  1.7189  0.8107
    1PA    H15S16221   2.608   2.866   3.688  2.9085  0.1596 -3.2361
    1PA    C11416222   2.415   2.875   3.580  0.3407 -0.2687 -0.3607
    1PA    H14R16223   2.392   2.822   3.487  1.4076 -1.2597 -0.0903
    1PA    H14S16224   2.338   2.858   3.655  2.3624  0.8047  2.1038
    1PA    C11316225   2.449   3.024   3.569 -0.2347 -0.1510 -0.6001
    1PA    H13R16226   2.461   3.089   3.657 -0.7995 -0.7848 -0.0413
    1PA    H13S16227   2.546   3.040   3.522  0.1393  1.2985  0.5709
    1PA    C11216228   2.348   3.091   3.476 -0.7487 -0.1289 -0.0282
    1PA    H12R16229   2.340   3.035   3.383 -1.4555  0.0759 -0.0960
    1PA    H12S16230   2.249   3.092   3.522 -0.3304 -1.6280  0.9637
    1PA    C11116231   2.392   3.236   3.448 -0.4393 -0.0898  0.6439
    1PA    H11R16232   2.392   3.291   3.542 -3.2858 -0.8951  1.2160
    1PA    H11S16233   2.495   3.248   3.414 -0.2193 -0.6429  1.0782
    1PA    C11016234   2.307   3.305   3.342  0.4335 -0.1775 -0.1289
    1PA    H10R16235   2.373   3.387   3.311  2.0222 -1.7727 -1.1031
    1PA    H10S16236   2.293   3.240   3.256 -2.1838 -0.9568  0.7869
    1PA     C1916237   2.174   3.355   3.401  0.5940  0.2331 -0.1106
    1PA     H9R16238   2.108   3.270   3.418  1.5446 -0.2988  1.0501
    1PA     H9S16239   2.204   3.394   3.499  1.5700  1.0912 -0.7296
    1PA     C1816240   2.096   3.455   3.315 -0.3571 -0.1271  0.3260
    1PA     H8R16241   2.025   3.507   3.380 -0.0294  1.4655 -0.5475
    1PA     H8S16242   2.164   3.534   3.284 -0.0344 -0.6465 -0.2965
    1PA     C1716243   2.032   3.382   3.196 -0.0173 -0.0685  0.1085
    1PA     H7R16244   2.099   3.319   3.137  0.8625 -0.6918  1.7152
    1PA     H7S16245   1.962   3.316   3.247 -0.2937  0.6445  0.6771
    1PA     C1616246   1.970   3.486   3.102  0.0233 -0.2018 -0.0663
    1PA     H6R16247   1.892   3.428   3.052  1.1955 -0.7889 -1.2483
    1PA     H6S16248   1.926   3.568   3.160  2.3797  0.9424  0.1923
    1PA     C1516249   2.074   3.542   3.005  0.2382  0.3194  0.4592
    1PA     H5R16250   2.155   3.595   3.056 -1.1788  1.5533  1.4991
    1PA     H5S16251   2.124   3.462   2.949 -0.8158 -0.0318  0.0071
    1PA     C1416252   2.009   3.636   2.903  0.5711  0.1273  0.0646
    1PA     H4R16253   1.920   3.582   2.868 -0.0596 -0.4445  2.3467
    1PA     H4S16254   1.979   3.726   2.957 -1.1053 -0.9306  0.9723
    1PA     C1316255   2.106   3.668   2.788  0.5603 -0.2398 -0.0473
    1PA     H3R16256   2.204   3.680   2.834  0.1792 -0.1440  0.7714
    1PA     H3S16257   2.119   3.583   2.720 -2.3281 -0.3507 -0.5886
    1PA     C1216258   2.075   3.793   2.705  0.6476 -0.6878 -0.7650
    1PA     H2R16259   1.970   3.808   2.682  0.7251 -0.6654 -1.1031
    1PA     H2S16260   2.085   3.877   2.775 -0.0420  0.1632 -1.6593
    2PC     C1116261   2.167   3.818   2.588  0.7579  0.0087 -0.5350
    2PC     O1216262   2.215   3.734   2.515 -0.3798 -1.0370 -0.1102
    2PC     O1116263   2.205   3.947   2.590  0.3811  0.1156 -0.0052
    2PC      C116264   2.310   3.978   2.497 -0.4793  0.0966 -0.9967
    2PC      HR16265   2.402   3.924   2.524 -0.4092 -1.1095 -3.3906
    2PC      HS16266   2.275   3.965   2.394  0.4514  0.9943 -1.4486
    2PC      C216267   2.349   4.126   2.510  0.3688 -0.1746 -0.3745
    2PC      HX16268   2.257   4.184   2.514  0.0482 -0.7284  1.0987
    2PC      C316269   2.441   4.175   2.398  1.1387  0.8825  0.6976
    2PC      HA16270   2.388   4.152   2.305  1.7216 -1.4795  0.9081
    2PC      HB16271   2.466   4.282   2.391  1.2767  0.7432 -4.2094
    2PC     O3116272   2.562   4.097   2.400  0.5115 -0.1044  0.4728
    2PC     P3116273   2.644   4.100   2.263 -0.2249  0.1838  0.0316
    2PC     O3216274   2.770   4.004   2.290 -0.7359 -0.7677 -0.8682
    2PC     C3116275   2.896   4.057   2.334 -0.9498 -0.4832 -0.5871
    2PC     H1A16276   2.925   4.128   2.256 -0.5111 -0.4026 -0.3572
    2PC     H1B16277   2.894   4.096   2.436  0.6934 -1.2531 -0.2246
    2PC     C3216278   3.006   3.950   2.340 -0.4340  0.0731  0.0653
    2PC     H2A16279   3.000   3.885   2.253  5.2948  0.4448 -0.9762
    2PC     H2B16280   3.107   3.990   2.335  0.1627 -1.4863 -1.0673
    2PC     N3116281   3.017   3.866   2.464  0.3650  0.2403  0.1144
    2PC     C3316282   2.888   3.793   2.491  0.5700 -0.0700  0.2612
    2PC     H3A16283   2.852   3.744   2.401  1.6939 -0.2772 -0.0991
    2PC     H3B16284   2.918   3.731   2.575  2.1094 -0.2705 -0.3930
    2PC     H3C16285   2.814   3.868   2.522 -0.5202 -1.1089  0.2227
    2PC     C3416286   3.114   3.754   2.439 -0.2087 -0.2425  0.0129
    2PC     H4A16287   3.198   3.809   2.396 -0.2253  1.9963  2.5394
    2PC     H4B16288   3.147   3.702   2.529 -0.7758  0.2687  0.5265
    2PC     H4C16289   3.079   3.680   2.368 -0.4217 -1.3970  1.2889
    2PC     C3516290   3.065   3.942   2.584 -0.2213 -0.4386  0.7977
    2PC     H5A16291   2.995   4.022   2.610 -1.0563 -0.9560  0.1752
    2PC     H5B16292   3.156   3.991   2.548 -0.1756  0.0730  1.5943
    2PC     H5C16293   3.109   3.872   2.655  0.2167 -1.3786 -0.3655
    2PC     O3316294   2.565   4.040   2.153  0.3369 -0.1197 -0.2145
    2PC     O3416295   2.678   4.235   2.211 -0.7253  0.2060 -0.2434
    2PC     O2116296   2.420   4.140   2.635 -0.2660 -0.4578  0.0270
    2PC     C2116297   2.445   4.265   2.678 -0.4454 -0.3081 -0.2926
    2PC     O2216298   2.415   4.367   2.621  0.1443 -0.4445 -0.8675
    3OL     C1216299   2.509   4.269   2.815 -0.6673  0.2818 -0.2028
    3OL     H2R16300   2.614   4.294   2.799 -0.3294 -0.7413  0.3017
    3OL     H2S16301   2.501   4.177   2.874 -2.2575  1.4051  1.4315
    3OL     C1316302   2.450   4.378   2.905  0.0085  0.5604 -0.0878
    3OL     H3R16303   2.351   4.340   2.933  0.7363 -0.6984  0.8914
    3OL     H3S16304   2.432   4.470   2.850 -2.4354  0.0362 -0.2885
    3OL     C1416305   2.524   4.412   3.035  0.1022  0.0480 -0.0038
    3OL     H4R16306   2.469   4.489   3.089  1.1308  0.9113 -0.1557
    3OL     H4S16307   2.620   4.453   3.003 -1.0727  1.5707 -1.8035
    3OL     C1516308   2.536   4.289   3.126 -0.4525 -0.0039  0.0007
    3OL     H5R16309   2.610   4.309   3.204 -0.5979  1.9505 -0.2999
    3OL     H5S16310   2.577   4.199   3.081 -0.2328  0.0267  0.1396
    3OL     C1616311   2.399   4.247   3.183 -0.5126 -0.1395 -0.2445
    3OL     H6R16312   2.400   4.142   3.212 -0.0486  0.0984  0.6446
    3OL     H6S16313   2.326   4.249   3.102  1.5480 -0.7956 -2.2379
    3OL     C1716314   2.369   4.339   3.302 -0.0209 -0.2722 -0.0164
    3OL     H7R16315   2.358   4.443   3.274 -1.8813 -0.0693  1.3195
    3OL     H7S16316   2.459   4.339   3.364  0.2656  1.5155 -0.3823
    3OL     C1816317   2.244   4.293   3.377  0.4788 -0.5958  0.6323
    3OL     H8R16318   2.250   4.194   3.423 -0.8326 -1.6662 -1.3710
    3OL     H8S16319   2.154   4.288   3.315 -1.2541 -0.0081  2.9353
    3OL     C1916320   2.218   4.388   3.492 -0.0125 -0.2676  0.2554
    3OL     H9R16321   2.288   4.387   3.575  1.0152  0.4544 -0.5910
    3OL    C11016322   2.116   4.471   3.508 -0.1945 -0.3962 -0.2002
    3OL    H10R16323   2.101   4.534   3.596 -1.1374 -0.0523 -0.5960
    3OL    C11116324   2.006   4.503   3.411 -0.2794  0.0288  0.0309
    3OL    H11R16325   2.052   4.492   3.312  1.0207 -1.3733  0.7535
    3OL    H11S16326   1.976   4.607   3.424  1.3617  0.4697  0.4851
    3OL    C11216327   1.885   4.409   3.422  0.3735 -0.7932  0.2303
    3OL    H12R16328   1.854   4.412   3.527 -2.4240 -0.1732 -0.5341
    3OL    H12S16329   1.911   4.309   3.385 -1.6749 -0.4169 -2.4608
    3OL    C11316330   1.766   4.461   3.341  0.3856 -0.4035  0.4619
    3OL    H13R16331   1.794   4.446   3.237  2.6001  1.7757  0.6579
    3OL    H13S16332   1.760   4.569   3.356  0.0948 -0.6010  2.0402
    3OL    C11416333   1.634   4.389   3.373  0.3863 -0.5303  0.1797
    3OL    H14R16334   1.639   4.282   3.352  0.4382 -0.0674 -2.4701
    3OL    H14S16335   1.567   4.429   3.296  0.7078  0.5036  0.4209
    3OL    C11516336   1.574   4.410   3.513  0.1917 -1.0394  0.1761
    3OL    H15R16337   1.546   4.515   3.529  1.9918 -0.7579  1.8112
    3OL    H15S16338   1.646   4.382   3.590 -1.9056 -2.2735  1.7832
    3OL    C11616339   1.444   4.336   3.547  0.1666 -1.0942 -0.0347
    3OL    H16R16340   1.459   4.228   3.534  0.1176 -0.9980 -0.9394
    3OL    H16S16341   1.365   4.368   3.479 -1.1125  0.0753  1.8975
    3OL    C11716342   1.399   4.363   3.692  0.7342  0.1888 -0.0836
    3OL    H17R16343   1.488   4.348   3.754  0.1624 -0.1429  0.6613
    3OL    H17S16344   1.326   4.295   3.736  0.6331  1.2170  1.4094
    3OL    C11816345   1.342   4.502   3.720 -0.1491 -0.0983 -0.4243
    3OL    H18R16346   1.242   4.520   3.680 -0.8771 -0.7140  1.0457
    3OL    H18S16347   1.405   4.585   3.686 -1.8851  1.2674 -0.4292
    3OL    H18T16348   1.319   4.520   3.825 -1.3574  2.1931 -1.0156
    1PA    C11616349   6.263   4.319   3.876 -0.3583  0.0740  0.5003
    1PA    H16R16350   6.213   4.260   3.954 -0.2414 -0.4205  0.2070
    1PA    H16S16351   6.281   4.420   3.914 -1.0813  0.5636 -0.4181
    1PA    H16T16352   6.360   4.273   3.857 -0.1322  0.5280  0.5554
    1PA    C11516353   6.182   4.326   3.746 -0.0045  0.6338  0.3084
    1PA    H15R16354   6.202   4.416   3.687 -2.6686  0.9797 -0.2038
    1PA    H15S16355   6.210   4.248   3.674  0.7433 -1.0746  2.3390
    1PA    C11416356   6.029   4.330   3.760 -0.0819 -0.5173 -0.1314
    1PA    H14R16357   6.002   4.230   3.796  1.0818 -1.4851 -1.7708
    1PA    H14S16358   6.004   4.410   3.830  1.6130  0.3033 -0.4053
    1PA    C11316359   5.973   4.355   3.619 -0.1497 -0.7428 -0.1463
    1PA    H13R16360   5.997   4.459   3.592 -4.2507  0.9060  1.7220
    1PA    H13S16361   6.016   4.284   3.549  2.4330 -0.4675  1.0330
    1PA    C11216362   5.820   4.348   3.611 -0.1891  0.1063 -0.3188
    1PA    H12R16363   5.796   4.256   3.666  2.6175 -0.3259  0.3772
    1PA    H12S16364   5.776   4.432   3.664 -3.2290 -1.0824 -0.7580
    1PA    C11116365   5.751   4.355   3.474 -0.6373 -0.4937 -0.1301
    1PA    H11R16366   5.642   4.346   3.479 -0.4854 -2.2266  1.6802
    1PA    H11S16367   5.781   4.454   3.441 -0.2728 -0.1224  1.2203
    1PA    C11016368   5.799   4.250   3.373  0.1057 -0.0940 -0.2049
    1PA    H10R16369   5.906   4.265   3.359 -0.3982  3.2890 -1.3795
    1PA    H10S16370   5.780   4.146   3.401 -0.4553 -0.5119 -1.9994
    1PA     C1916371   5.739   4.262   3.232  0.1856 -0.5892 -0.2823
    1PA     H9R16372   5.775   4.182   3.167  0.6619  1.2173 -2.3348
    1PA     H9S16373   5.631   4.252   3.247 -0.0337  2.1643  0.4524
    1PA     C1816374   5.756   4.397   3.162  0.4811 -0.2687  0.3897
    1PA     H8R16375   5.700   4.473   3.217 -1.4915  0.2196 -2.0800
    1PA     H8S16376   5.865   4.406   3.156  0.7157 -3.0593 -2.0067
    1PA     C1716377   5.694   4.385   3.022  0.7127 -0.2542  0.2848
    1PA     H7R16378   5.740   4.305   2.964 -1.1306 -1.3044  0.1840
    1PA     H7S16379   5.591   4.352   3.036  0.5908 -0.3989 -0.8591
    1PA     C1616380   5.710   4.513   2.939 -0.2865 -0.2373  0.1001
    1PA     H6R16381   5.640   4.585   2.981  0.3527  0.8684 -0.6819
    1PA     H6S16382   5.814   4.540   2.961 -1.0954  0.4903  3.6959
    1PA     C1516383   5.679   4.498   2.789 -0.4121 -0.3419  0.1371
    1PA     H5R16384   5.743   4.421   2.745 -0.5627 -0.1775 -0.3698
    1PA     H5S16385   5.576   4.465   2.775  0.1352 -2.1759  0.1574
    1PA     C1416386   5.695   4.637   2.727 -0.2137 -0.4971 -0.1598
    1PA     H4R16387   5.636   4.712   2.779  0.8042 -0.2063  0.5983
    1PA     H4S16388   5.797   4.668   2.747  0.4318 -1.1695 -2.0904
    1PA     C1316389   5.658   4.647   2.578  0.0034  0.0102 -0.1789
    1PA     H3R16390   5.721   4.579   2.520 -0.6273 -0.8102  0.0789
    1PA     H3S16391   5.553   4.620   2.569 -0.1468  0.7204 -0.6721
    1PA     C1216392   5.683   4.788   2.522 -0.6564  0.0889 -0.2809
    1PA     H2R16393   5.610   4.851   2.574  0.2725 -0.3902  1.6872
    1PA     H2S16394   5.786   4.820   2.540 -0.9114  0.8807 -0.1786
    2PC     C1116395   5.657   4.792   2.373 -0.1812  0.3239 -0.3594
    2PC     O1216396   5.723   4.844   2.286 -0.3570  0.3095 -0.5018
    2PC     O1116397   5.541   4.728   2.352 -0.2486  0.3485 -0.0707
    2PC      C116398   5.502   4.686   2.220  0.0010  0.0289 -0.0449
    2PC      HR16399   5.400   4.647   2.218 -1.4066  3.1915  1.6608
    2PC      HS16400   5.500   4.763   2.142 -0.2136 -2.3955 -2.5801
    2PC      C216401   5.588   4.567   2.177  0.3922  0.1672  0.3437
    2PC      HX16402   5.694   4.592   2.178 -0.0575  2.2829  2.4585
    2PC      C316403   5.553   4.514   2.037  0.3856  0.6609  0.1561
    2PC      HA16404   5.562   4.599   1.969  0.8316 -0.6541 -1.5083
    2PC      HB16405   5.619   4.438   1.993 -2.2989 -0.6390 -1.9360
    2PC     O3116406   5.416   4.472   2.021  0.7122 -0.5228  0.3543
    2PC     P3116407   5.377   4.378   1.897  0.0916  0.0639  0.1000
    2PC     O3216408   5.443   4.244   1.953  0.3529  0.1630  0.0296
    2PC     C3116409   5.386   4.199   2.077 -0.6498  0.0462 -0.4658
    2PC     H1A16410   5.466   4.159   2.140 -0.9206  0.5335  0.2013
    2PC     H1B16411   5.332   4.279   2.129  0.4540 -0.2671  1.2710
    2PC     C3216412   5.293   4.086   2.029 -0.2188 -0.5028 -0.0300
    2PC     H2A16413   5.211   4.124   1.968 -2.1069 -0.7734  2.2051
    2PC     H2B16414   5.350   4.017   1.967 -0.9000  1.0824 -2.5746
    2PC     N3116415   5.229   4.002   2.135 -0.4972 -0.2285  0.0221
    2PC     C3316416   5.133   3.904   2.076 -0.6421 -0.2754  0.3371
    2PC     H3A16417   5.087   3.947   1.987  2.2255 -0.9467 -1.6138
    2PC     H3B16418   5.185   3.813   2.047 -0.1300  0.1493 -0.0831
    2PC     H3C16419   5.054   3.875   2.146 -0.5244 -2.7616 -0.4613
    2PC     C3416420   5.334   3.931   2.216  0.1218  0.6733  0.0259
    2PC     H4A16421   5.411   4.005   2.239 -0.0255  0.5094  1.0795
    2PC     H4B16422   5.286   3.896   2.307 -1.0559  3.9314  0.8185
    2PC     H4C16423   5.382   3.850   2.162  1.9966  1.2019  0.7989
    2PC     C3516424   5.144   4.080   2.230 -0.2914 -0.1648  0.1561
    2PC     H5A16425   5.074   4.129   2.161 -0.9913  0.7592  1.4751
    2PC     H5B16426   5.205   4.159   2.274 -1.1418 -0.2798  1.5927
    2PC     H5C16427   5.109   4.012   2.307 -0.1664  1.4851  1.7357
    2PC     O3316428   5.231   4.362   1.875 -0.0159  0.7846  0.2548
    2PC     O3416429   5.436   4.434   1.773 -0.1565 -0.2542 -0.1616
    2PC     O2116430   5.566   4.458   2.269  0.1313  0.0774  0.1783
    2PC     C2116431   5.647   4.351   2.264  0.0530  0.0491 -0.7120
    2PC     O2216432   5.740   4.336   2.187  0.6133  1.3100 -0.3246
    3OL     C1216433   5.627   4.270   2.389  0.2031  0.2654 -0.5454
    3OL     H2R16434   5.574   4.176   2.372  0.4853 -0.7370  3.1339
    3OL     H2S16435   5.564   4.326   2.459  2.5707  0.1369  1.8436
    3OL     C1316436   5.758   4.243   2.464  0.0320  0.4366 -0.1841
    3OL     H3R16437   5.786   4.333   2.520 -1.4977 -0.2346  1.7985
    3OL     H3S16438   5.837   4.221   2.393 -0.1505  1.6792 -0.7946
    3OL     C1416439   5.748   4.128   2.565  0.3021  0.1168 -0.5189
    3OL     H4R16440   5.739   4.033   2.512  1.1248 -0.3819  0.2053
    3OL     H4S16441   5.658   4.136   2.627  1.1145 -1.5979  0.9866
    3OL     C1516442   5.877   4.123   2.648 -0.1615 -0.0949  0.1999
    3OL     H5R16443   5.887   4.219   2.699 -3.2940  0.7161 -0.4890
    3OL     H5S16444   5.964   4.115   2.583 -1.0071 -0.2635 -0.9522
    3OL     C1616445   5.873   4.014   2.756  1.1164 -0.0869  0.2665
    3OL     H6R16446   5.792   4.030   2.827  0.5091 -1.2881 -0.1327
    3OL     H6S16447   5.963   4.034   2.815  1.6361  0.0777 -0.5700
    3OL     C1716448   5.878   3.874   2.693 -0.6779 -0.0643  0.0153
    3OL     H7R16449   5.960   3.859   2.622  0.8746 -1.6511  2.0048
    3OL     H7S16450   5.793   3.860   2.627 -1.0608  0.9490  0.2760
    3OL     C1816451   5.871   3.757   2.792  0.0225  0.1386  0.3166
    3OL     H8R16452   5.872   3.663   2.735  3.6145 -0.4594  1.1541
    3OL     H8S16453   5.778   3.752   2.849 -0.8083 -4.1887 -1.0146
    3OL     C1916454   5.990   3.743   2.884  0.3328 -0.0177 -0.1040
    3OL     H9R16455   6.083   3.736   2.828  1.6570 -1.3623  2.1278
    3OL    C11016456   5.985   3.729   3.015 -0.1288 -0.1075 -0.1274
    3OL    H10R16457   6.082   3.727   3.066 -0.6559 -2.2667  0.9081
    3OL    C11116458   5.867   3.732   3.109  0.4591  0.3034  0.6106
    3OL    H11R16459   5.776   3.773   3.067 -1.9261 -4.1318  0.8683
    3OL    H11S16460   5.897   3.789   3.197 -0.1590  1.3059  0.1886
    3OL    C11216461   5.820   3.595   3.160  0.0666  0.3297  0.3238
    3OL    H12R16462   5.903   3.530   3.190 -1.8866 -1.3173  2.4878
    3OL    H12S16463   5.777   3.539   3.077  1.4111  0.8717 -0.7850
    3OL    C11316464   5.724   3.622   3.276  0.4899  0.0775  0.7360
    3OL    H13R16465   5.658   3.705   3.251  0.2152 -0.5707 -0.7462
    3OL    H13S16466   5.788   3.654   3.359  2.9126 -2.2577 -0.1187
    3OL    C11416467   5.655   3.498   3.334 -0.4880  0.1783 -0.1912
    3OL    H14R16468   5.732   3.422   3.345  1.0049  1.7760  0.8790
    3OL    H14S16469   5.576   3.462   3.267 -0.8786 -0.7327  0.7245
    3OL    C11516470   5.595   3.528   3.473 -0.4409 -0.4902 -0.0243
    3OL    H15R16471   5.669   3.578   3.535 -0.5328  1.5296 -1.4559
    3OL    H15S16472   5.566   3.431   3.514 -2.0612 -0.1462 -0.2919
    3OL    C11616473   5.475   3.622   3.474 -0.2688 -0.2608 -0.5114
    3OL    H16R16474   5.401   3.560   3.424  0.3538 -0.2801 -1.4231
    3OL    H16S16475   5.491   3.714   3.417  1.7141  0.2384  0.7522
    3OL    C11716476   5.425   3.671   3.611 -0.1580  0.2356 -0.6444
    3OL    H17R16477   5.413   3.578   3.668  1.7408 -0.5597 -1.4495
    3OL    H17S16478   5.337   3.733   3.595  0.6443  1.4195 -0.6131
    3OL    C11816479   5.518   3.770   3.684 -0.3772  0.1630 -0.2637
    3OL    H18R16480   5.552   3.859   3.630  2.1901  1.1062  2.6354
    3OL    H18S16481   5.611   3.722   3.714 -0.3112  0.0933 -0.5706
    3OL    H18T16482   5.459   3.806   3.769 -0.3460  1.3284 -0.7157
    1PA    C11616483   2.376   3.684   3.797  0.1402  0.0553  0.3666
    1PA    H16R16484   2.449   3.618   3.843  0.8523  0.4942 -0.1203
    1PA    H16S16485   2.285   3.705   3.853 -0.0155  3.7879 -1.0129
    1PA    H16T16486   2.430   3.779   3.788 -1.6705  1.0284 -1.0179
    1PA    C11516487   2.346   3.647   3.651 -0.0076 -0.1374  0.4452
    1PA    H15R16488   2.428   3.688   3.591 -0.9123  0.3262 -0.5171
    1PA    H15S16489   2.338   3.539   3.642  0.4825 -0.0093 -2.5212
    1PA    C11416490   2.214   3.700   3.594  0.0804 -0.0274  0.3445
    1PA    H14R16491   2.198   3.653   3.497  3.5975  1.0764 -0.9340
    1PA    H14S16492   2.135   3.665   3.660 -1.1753 -4.3664 -3.0037
    1PA    C11316493   2.208   3.852   3.571 -0.3682 -0.0782  0.1054
    1PA    H13R16494   2.258   3.905   3.652 -3.8710  1.6663  1.3146
    1PA    H13S16495   2.261   3.876   3.478  1.7123  1.0647  1.5036
    1PA    C11216496   2.064   3.896   3.542 -0.3527 -0.0109  0.1300
    1PA    H12R16497   2.000   3.883   3.630 -2.0937 -0.7507 -1.1977
    1PA    H12S16498   2.064   4.002   3.513  3.0320  1.0605  3.2374
    1PA    C11116499   1.996   3.826   3.424 -0.4964 -0.2377  0.3476
    1PA    H11R16500   2.062   3.829   3.338 -1.0089  0.8647 -0.0222
    1PA    H11S16501   1.979   3.720   3.445 -3.9126  0.3871  1.4035
    1PA    C11016502   1.865   3.901   3.397 -0.3502 -0.0486  0.1577
    1PA    H10R16503   1.811   3.911   3.492  2.3768  2.4330  1.5887
    1PA    H10S16504   1.898   3.999   3.363  0.4829 -0.9426 -1.7316
    1PA     C1916505   1.786   3.827   3.288 -0.4813 -0.2952  0.4161
    1PA     H9R16506   1.850   3.814   3.200 -1.7143 -0.6016 -0.4652
    1PA     H9S16507   1.759   3.728   3.325 -1.2615  0.3972  1.7747
    1PA     C1816508   1.663   3.903   3.236  0.0933  0.2273 -0.2026
    1PA     H8R16509   1.601   3.942   3.317 -0.3855  0.3969 -0.6460
    1PA     H8S16510   1.697   3.992   3.183  0.0531 -0.3205 -1.1730
    1PA     C1716511   1.582   3.811   3.144  0.1822  0.2422 -0.2959
    1PA     H7R16512   1.542   3.731   3.206  2.3484  0.0149  0.8875
    1PA     H7S16513   1.496   3.861   3.097  0.9056 -1.4467 -3.7211
    1PA     C1616514   1.661   3.764   3.021  0.4372  0.0529 -0.0590
    1PA     H6R16515   1.709   3.853   2.981 -0.5621 -0.2842 -2.1252
    1PA     H6S16516   1.745   3.703   3.056  1.4211 -0.6260 -3.2617
    1PA     C1516517   1.575   3.687   2.920 -0.2017  0.3345  0.2672
    1PA     H5R16518   1.636   3.617   2.863 -1.8674  0.2536 -1.5279
    1PA     H5S16519   1.501   3.629   2.976  3.2847 -1.1360  3.8326
    1PA     C1416520   1.521   3.775   2.807 -0.0638 -0.6206 -0.5577
    1PA     H4R16521   1.445   3.710   2.763 -1.4501  0.3513  0.2997
    1PA     H4S16522   1.472   3.865   2.844  2.4979  0.9912 -0.8137
    1PA     C1316523   1.627   3.821   2.706 -0.1048 -0.4249 -0.5136
    1PA     H3R16524   1.701   3.883   2.757 -0.7112 -1.6365  1.9884
    1PA     H3S16525   1.683   3.738   2.660  0.5009 -1.2532  1.5786
    1PA     C1216526   1.554   3.908   2.603 -0.0887 -0.3347 -0.4491
    1PA     H2R16527   1.472   3.850   2.559 -1.1740  0.6798  0.1918
    1PA     H2S16528   1.511   3.998   2.645  1.2176  0.4852 -0.8154
    2PC     C1116529   1.641   3.962   2.492  0.0927 -0.2883 -0.2850
    2PC     O1216530   1.587   3.996   2.389  0.0742  0.2700 -0.0950
    2PC     O1116531   1.770   3.983   2.520 -0.2079  0.2842  0.7485
    2PC      C116532   1.855   4.035   2.415 -0.1257  0.1079  0.7276
    2PC      HR16533   1.961   4.019   2.438  0.5414 -2.7958 -3.3524
    2PC      HS16534   1.843   3.988   2.317 -2.5312 -0.8040  1.3978
    2PC      C216535   1.836   4.185   2.393 -0.5239 -0.0169  0.2030
    2PC      HX16536   1.730   4.210   2.395  0.1495  3.3391 -0.0396
    2PC      C316537   1.904   4.234   2.264 -0.3393  0.0283  0.3163
    2PC      HA16538   1.871   4.171   2.182 -0.4331  1.7796 -1.0414
    2PC      HB16539   1.879   4.334   2.229 -1.2724 -0.9832 -2.0832
    2PC     O3116540   2.045   4.246   2.290 -0.2662  0.6533 -0.3401
    2PC     P3116541   2.140   4.265   2.163  0.2477  0.1015 -0.0446
    2PC     O3216542   2.264   4.358   2.203  0.3390 -0.0154 -0.0564
    2PC     C3116543   2.248   4.499   2.230 -0.1363  0.0849 -0.8486
    2PC     H1A16544   2.188   4.539   2.147 -1.2834  1.3257  0.5330
    2PC     H1B16545   2.201   4.508   2.328  0.6507 -2.3525 -0.1798
    2PC     C3216546   2.382   4.572   2.245 -0.2294  0.0497  0.1988
    2PC     H2A16547   2.373   4.666   2.300  2.7692  1.0026 -0.7426
    2PC     H2B16548   2.439   4.495   2.297 -0.7110 -1.3536 -1.2660
    2PC     N3116549   2.459   4.610   2.123 -0.3193  0.0965  0.1568
    2PC     C3316550   2.473   4.488   2.036 -0.0587 -0.0753  0.4378
    2PC     H3A16551   2.380   4.435   2.016 -0.1012 -0.0603  0.5890
    2PC     H3B16552   2.514   4.508   1.937 -1.4861 -1.4788 -0.4895
    2PC     H3C16553   2.530   4.416   2.094  0.8445 -0.2689 -0.6693
    2PC     C3416554   2.395   4.724   2.050 -0.1602 -0.3345 -0.6716
    2PC     H4A16555   2.385   4.794   2.133  2.6039  0.4276 -0.8469
    2PC     H4B16556   2.463   4.773   1.979 -1.5543  0.2735 -1.6461
    2PC     H4C16557   2.302   4.694   2.003 -0.4718 -0.4842  0.0386
    2PC     C3516558   2.597   4.657   2.157 -0.2437 -0.0772  0.0925
    2PC     H5A16559   2.643   4.703   2.069 -1.0684  1.8208  0.6032
    2PC     H5B16560   2.652   4.565   2.180 -0.6914 -0.7483 -1.4492
    2PC     H5C16561   2.578   4.725   2.241  0.1929  0.4797 -0.2492
    2PC     O3316562   2.197   4.132   2.133  0.3190  0.1255 -0.0162
    2PC     O3416563   2.077   4.305   2.035  0.1167  0.1969  0.0484
    2PC     O2116564   1.890   4.249   2.511 -0.5066 -0.2460  0.3190
    2PC     C2116565   1.871   4.381   2.518  0.0172 -0.1354 -0.2705
    2PC     O2216566   1.806   4.453   2.444  0.0586  0.4468  0.2486
    3OL     C1216567   1.938   4.451   2.633  0.1391  0.0001 -0.4223
    3OL     H2R16568   1.976   4.371   2.698  2.4004  0.6153 -0.8928
    3OL     H2S16569   1.861   4.511   2.682 -0.6898  0.0945 -1.8078
    3OL     C1316570   2.054   4.537   2.582  0.5648 -0.3326 -0.0317
    3OL     H3R16571   2.024   4.609   2.505 -2.0759 -1.9038 -0.5970
    3OL     H3S16572   2.126   4.468   2.538  1.9832 -0.9192  2.9633
    3OL     C1416573   2.127   4.603   2.699  0.1843 -0.1957  0.1296
    3OL     H4R16574   2.206   4.658   2.646 -0.6474  1.0602  0.1380
    3OL     H4S16575   2.159   4.528   2.771 -1.3894 -0.4839  0.5640
    3OL     C1516576   2.032   4.702   2.768  0.2246  0.0680 -0.1922
    3OL     H5R16577   1.928   4.673   2.779 -0.6067  2.5324 -0.8277
    3OL     H5S16578   2.028   4.795   2.710 -0.4986 -0.5097 -1.0877
    3OL     C1616579   2.106   4.754   2.892 -0.3328  0.0932  0.1302
    3OL     H6R16580   2.080   4.859   2.905 -0.8832 -0.0559  0.2834
    3OL     H6S16581   2.213   4.735   2.882 -0.4286  0.6717 -2.4612
    3OL     C1716582   2.047   4.689   3.018  0.0232 -0.2923  0.1008
    3OL     H7R16583   2.053   4.580   3.011  1.2549 -0.1319 -1.8163
    3OL     H7S16584   1.942   4.718   3.011  0.2158 -0.0008 -2.3315
    3OL     C1816585   2.105   4.740   3.151  0.3392  0.3397 -0.2780
    3OL     H8R16586   2.028   4.716   3.224  1.5193 -0.2651  0.8024
    3OL     H8S16587   2.111   4.849   3.150 -2.0471  0.5350 -2.1994
    3OL     C1916588   2.236   4.669   3.176 -0.0023 -0.2373 -0.1045
    3OL     H9R16589   2.251   4.597   3.097 -0.2892  1.0216 -1.3459
    3OL    C11016590   2.324   4.696   3.272 -0.2989 -0.1104  0.1370
    3OL    H10R16591   2.411   4.632   3.285 -0.6178 -0.3989  0.9076
    3OL    C11116592   2.302   4.792   3.385 -1.0622 -0.3959  0.2357
    3OL    H11R16593   2.198   4.825   3.384 -1.0547 -0.2864 -2.2673
    3OL    H11S16594   2.350   4.887   3.359 -2.1087 -0.3861 -1.8560
    3OL    C11216595   2.349   4.741   3.522  0.6654  0.5079  0.0002
    3OL    H12R16596   2.449   4.696   3.521  0.9036  0.9929 -1.4643
    3OL    H12S16597   2.292   4.654   3.555  0.6696 -0.0797 -1.4513
    3OL    C11316598   2.343   4.857   3.622 -0.0311  0.1829  0.3381
    3OL    H13R16599   2.239   4.885   3.635 -0.1801  0.4935 -1.3249
    3OL    H13S16600   2.403   4.943   3.594 -0.5860  1.0284  1.6506
    3OL    C11416601   2.399   4.806   3.756 -0.0361  0.3702  0.4116
    3OL    H14R16602   2.505   4.784   3.738  0.6249  2.6998  1.1066
    3OL    H14S16603   2.347   4.710   3.768  1.8008 -0.6137  0.8803
    3OL    C11516604   2.389   4.897   3.879  0.1733  0.6071  0.2544
    3OL    H15R16605   2.284   4.927   3.884  0.0534  0.1909  0.2411
    3OL    H15S16606   2.452   4.985   3.863 -1.1363  1.3986 -0.8096
    3OL    C11616607   2.430   4.824   4.007  0.0541  0.2283  0.0794
    3OL    H16R16608   2.539   4.810   4.007  0.1621  0.7743  1.7171
    3OL    H16S16609   2.378   4.729   3.998  0.4089 -0.1394  1.5781
    3OL    C11716610   2.398   4.894   4.140  0.0116 -0.1665  0.2780
    3OL    H17R16611   2.447   4.992   4.136  0.5453 -0.4488 -0.3572
    3OL    H17S16612   2.431   4.832   4.224 -0.8366  0.6102  1.2066
    3OL    C11816613   2.252   4.929   4.169 -0.1313 -0.3721 -0.1833
    3OL    H18R16614   2.205   5.013   4.117 -1.3354 -1.5302 -1.0481
    3OL    H18S16615   2.239   4.933   4.278 -1.1365  0.7674 -0.3216
    3OL    H18T16616   2.190   4.842   4.144 -1.1906  0.6228 -1.1493
    1PA    C11616617   0.531   5.438   3.743 -0.1904 -0.0855  0.8988
    1PA    H16R16618   0.554   5.511   3.665 -2.6238 -0.7333 -0.5211
    1PA    H16S16619   0.461   5.485   3.812  0.1580  0.2436  1.0338
    1PA    H16T16620   0.480   5.360   3.686 -3.3259  1.6043  1.1695
    1PA    C11516621   0.661   5.392   3.810  0.6149  0.6387 -0.1108
    1PA    H15R16622   0.715   5.475   3.857  0.7743  0.5432 -0.1233
    1PA    H15S16623   0.634   5.319   3.888  0.9539 -1.1108 -1.5694
    1PA    C11416624   0.764   5.320   3.722 -0.0098  0.1629 -0.4568
    1PA    H14R16625   0.824   5.253   3.783 -2.6101  1.0789  3.4466
    1PA    H14S16626   0.695   5.267   3.655 -0.9189  0.1271  0.4891
    1PA    C11316627   0.844   5.419   3.636  0.1720  0.0902 -0.3712
    1PA    H13R16628   0.772   5.454   3.562 -0.8949  0.5433  0.8381
    1PA    H13S16629   0.878   5.500   3.700 -2.3284 -0.2501  1.5561
    1PA    C11216630   0.966   5.347   3.578  0.0319  0.1032 -0.6851
    1PA    H12R16631   1.023   5.420   3.520  0.8516 -0.3420 -0.4668
    1PA    H12S16632   1.024   5.311   3.664 -2.7936  0.3734  1.4814
    1PA    C11116633   0.928   5.238   3.476  0.1000 -0.1969 -0.3906
    1PA    H11R16634   0.856   5.171   3.523 -0.7044 -1.2599 -2.9638
    1PA    H11S16635   0.877   5.290   3.395 -0.4439  0.2606  0.2350
    1PA    C11016636   1.047   5.151   3.431  0.3476  0.1018 -0.3206
    1PA    H10R16637   1.112   5.099   3.501 -0.4107 -1.3075 -0.6237
    1PA    H10S16638   1.008   5.066   3.374 -0.1682 -0.6295  1.0819
    1PA     C1916639   1.135   5.237   3.339  0.6036  0.3838  0.1887
    1PA     H9R16640   1.074   5.255   3.251  0.9612 -2.5581 -0.7653
    1PA     H9S16641   1.150   5.333   3.389 -2.2944 -0.4551  3.0411
    1PA     C1816642   1.266   5.180   3.282  0.2837  0.2196 -0.3820
    1PA     H8R16643   1.328   5.261   3.243 -0.0293 -0.2794 -1.9771
    1PA     H8S16644   1.320   5.131   3.363 -1.5374 -0.5426  0.4360
    1PA     C1716645   1.232   5.069   3.181  0.4085 -0.0035 -0.1804
    1PA     H7R16646   1.316   5.005   3.156  0.3706 -0.2272  0.2629
    1PA     H7S16647   1.163   4.997   3.225 -0.8296  0.6850 -0.9314
    1PA     C1616648   1.177   5.120   3.047  0.1734 -0.3062 -0.2006
    1PA     H6R16649   1.083   5.175   3.059 -0.4901 -0.7386 -2.7906
    1PA     H6S16650   1.248   5.189   3.001  0.9342 -0.4133  0.7893
    1PA     C1516651   1.145   4.998   2.960 -0.6973 -0.0770 -0.2134
    1PA     H5R16652   1.242   4.951   2.944 -0.0414  0.2797  2.3250
    1PA     H5S16653   1.074   4.932   3.011  0.8606 -0.1124  2.0493
    1PA     C1416654   1.087   5.052   2.829  0.6298  0.5332 -0.5673
    1PA     H4R16655   0.987   5.090   2.848  0.3418 -0.6905  0.4702
    1PA     H4S16656   1.154   5.127   2.786  0.9682 -0.1572 -1.3020
    1PA     C1316657   1.081   4.936   2.728 -0.6690  0.0599  0.0235
    1PA     H3R16658   1.181   4.892   2.723 -0.8324 -0.4018  0.7911
    1PA     H3S16659   1.014   4.859   2.765 -0.6747  1.3682  2.9671
    1PA     C1216660   1.034   4.983   2.589 -0.5601 -0.7025 -0.2781
    1PA     H2R16661   1.102   5.060   2.552 -1.1698  0.0571  0.1374
    1PA     H2S16662   1.041   4.893   2.528 -2.2829 -1.0349 -0.0442
    2PC     C1116663   0.891   5.029   2.576 -0.4965 -0.4309 -0.0334
    2PC     O1216664   0.807   5.028   2.663 -0.4586 -0.2447  0.0056
    2PC     O1116665   0.856   5.071   2.453 -0.1932  0.2564  0.1105
    2PC      C116666   0.719   5.097   2.416 -0.2147  0.0333  0.0314
    2PC      HR16667   0.663   5.005   2.428 -1.0147  0.7125  1.8923
    2PC      HS16668   0.683   5.177   2.482  3.5219  1.2831  0.8096
    2PC      C216669   0.701   5.132   2.268 -0.3822  0.4281  0.1433
    2PC      HX16670   0.601   5.109   2.230 -0.9319  3.5238 -0.5951
    2PC      C316671   0.817   5.079   2.183 -0.5924  0.4212 -0.1442
    2PC      HA16672   0.910   5.135   2.199  0.7321 -1.0587 -2.1327
    2PC      HB16673   0.846   4.978   2.214  2.8963  1.2181 -0.4006
    2PC     O3116674   0.781   5.080   2.044 -0.2105  0.1665 -0.2495
    2PC     P3116675   0.681   4.964   1.997 -0.1326  0.1454 -0.3623
    2PC     O3216676   0.566   5.056   1.932 -0.6155 -0.1755  0.0290
    2PC     C3116677   0.476   4.983   1.847 -0.0499 -0.6117 -0.2101
    2PC     H1A16678   0.531   4.940   1.764  0.9172 -1.3405  0.7774
    2PC     H1B16679   0.434   4.895   1.897  2.9226 -2.2157 -0.3416
    2PC     C3216680   0.367   5.084   1.807 -0.2264 -0.6506  0.1676
    2PC     H2A16681   0.322   5.141   1.889 -0.2241 -1.7886  0.9947
    2PC     H2B16682   0.418   5.160   1.749 -0.9794 -1.8513 -2.1737
    2PC     N3116683   0.251   5.038   1.724 -0.2354 -0.3636  0.0212
    2PC     C3316684   0.285   4.948   1.609 -0.0000 -0.0204 -0.1813
    2PC     H3A16685   0.348   5.001   1.538  0.2375  1.1376  0.8506
    2PC     H3B16686   0.322   4.851   1.643 -1.8476 -1.2519 -1.4554
    2PC     H3C16687   0.189   4.918   1.568  0.0288 -1.3831  0.6697
    2PC     C3416688   0.172   4.953   1.819  0.3144 -0.5974  0.2753
    2PC     H4A16689   0.233   4.868   1.848  1.6784  0.2831  0.0797
    2PC     H4B16690   0.165   5.013   1.910  3.2225  0.4373 -0.0708
    2PC     H4C16691   0.077   4.936   1.768  0.1333 -0.1829  0.4632
    2PC     C3516692   0.185   5.165   1.680  0.4692  0.0653  0.1928
    2PC     H5A16693   0.183   5.231   1.767 -0.9018 -1.0820  1.0666
    2PC     H5B16694   0.086   5.153   1.637  0.0078  1.3276  0.8549
    2PC     H5C16695   0.247   5.214   1.605  0.8392 -0.8381 -0.0950
    2PC     O3316696   0.734   4.879   1.888 -0.1307 -0.1841 -0.1022
    2PC     O3416697   0.619   4.872   2.095 -0.4291  0.3911 -0.3168
    2PC     O2116698   0.705   5.275   2.256 -0.1020  0.3884 -0.2363
    2PC     C2116699   0.596   5.348   2.287 -0.2874  0.2279 -0.5050
    2PC     O2216700   0.484   5.308   2.313 -0.0324 -0.0213  0.2460
    3OL     C1216701   0.643   5.489   2.310 -0.0837  0.0339  0.3159
    3OL     H2R16702   0.565   5.565   2.301  2.5834  3.8250  4.4972
    3OL     H2S16703   0.711   5.517   2.229  0.3568 -0.4406  0.5190
    3OL     C1316704   0.704   5.507   2.449  0.2559  0.1129  0.1571
    3OL     H3R16705   0.753   5.602   2.470 -0.1088  1.1755 -3.3040
    3OL     H3S16706   0.782   5.431   2.463  0.0751  0.2354  2.1038
    3OL     C1416707   0.608   5.482   2.566  0.0672  0.5985  0.1070
    3OL     H4R16708   0.593   5.374   2.576 -3.6417  0.8598 -1.1432
    3OL     H4S16709   0.506   5.521   2.561 -0.2708  0.0213  1.6742
    3OL     C1516710   0.667   5.531   2.699 -0.0643  0.1623  0.3299
    3OL     H5R16711   0.700   5.635   2.693 -0.5171  0.2587 -0.5785
    3OL     H5S16712   0.745   5.464   2.736  1.7102  2.5083  1.0771
    3OL     C1616713   0.551   5.531   2.799 -0.0085 -0.2870  0.3956
    3OL     H6R16714   0.519   5.430   2.825 -0.3777  0.4468  3.1423
    3OL     H6S16715   0.467   5.591   2.763  0.3209  0.0809  0.2417
    3OL     C1716716   0.598   5.606   2.924  0.0656  0.4617 -0.0755
    3OL     H7R16717   0.609   5.714   2.908  1.2149  0.9589  3.2151
    3OL     H7S16718   0.696   5.566   2.950  0.5227  0.2279 -2.0150
    3OL     C1816719   0.492   5.587   3.034  0.1728  0.0878 -0.0365
    3OL     H8R16720   0.468   5.483   3.055  0.0876 -0.3135 -1.9159
    3OL     H8S16721   0.399   5.626   2.992 -0.7216 -1.7269  0.1708
    3OL     C1916722   0.530   5.661   3.160 -0.0311  0.3437 -0.1245
    3OL     H9R16723   0.506   5.766   3.148  0.7920  0.4739 -0.8134
    3OL    C11016724   0.571   5.607   3.273 -0.0105 -0.2673 -0.4187
    3OL    H10R16725   0.567   5.678   3.356 -0.4417  0.3976 -1.0018
    3OL    C11116726   0.601   5.463   3.308 -0.0168 -0.0990  0.3077
    3OL    H11R16727   0.685   5.457   3.377 -0.3864  0.9708  0.8765
    3OL    H11S16728   0.629   5.399   3.224 -1.0013 -0.0769 -0.0582
    3OL    C11216729   0.485   5.396   3.383  0.0606  0.0308  0.5446
    3OL    H12R16730   0.391   5.416   3.332 -0.1831  0.8243  1.2863
    3OL    H12S16731   0.484   5.443   3.481 -1.2812 -0.0782  0.6088
    3OL    C11316732   0.500   5.245   3.408  0.0761 -0.1515 -0.4934
    3OL    H13R16733   0.581   5.229   3.479 -0.6527 -1.8127  0.0132
    3OL    H13S16734   0.526   5.197   3.314 -0.9112 -0.7275 -0.4858
    3OL    C11416735   0.373   5.182   3.469  0.0718  0.3432  0.0233
    3OL    H14R16736   0.334   5.256   3.539 -0.1691  1.7598 -1.5434
    3OL    H14S16737   0.403   5.094   3.527  0.8227  1.1304  0.8641
    3OL    C11516738   0.264   5.133   3.373  0.1307  0.3659 -0.0558
    3OL    H15R16739   0.259   5.196   3.284 -1.8609 -1.2481 -1.1946
    3OL    H15S16740   0.162   5.153   3.407 -0.1162 -0.4651 -0.2812
    3OL    C11616741   0.280   4.985   3.336  0.3966  0.3511  0.1140
    3OL    H16R16742   0.377   4.968   3.289  1.6673  0.8152  2.4106
    3OL    H16S16743   0.203   4.952   3.265  1.2256 -1.2056 -0.0987
    3OL    C11716744   0.280   4.884   3.451 -0.3188  0.3504  0.1191
    3OL    H17R16745   0.365   4.900   3.517 -0.5239 -1.6003  0.9274
    3OL    H17S16746   0.291   4.783   3.410 -1.8273  0.2698 -0.1489
    3OL    C11816747   0.154   4.873   3.538 -0.5267  0.3829 -0.1766
    3OL    H18R16748   0.170   4.792   3.609  1.6879 -0.5017 -1.5905
    3OL    H18S16749   0.073   4.836   3.475 -1.9469  3.0739 -0.0975
    3OL    H18T16750   0.131   4.965   3.594 -1.2793 -0.9341  1.7808
    1PA    C11616751   6.276   5.275   3.715 -0.5550  0.1642 -0.0803
    1PA    H16R16752   6.209   5.298   3.798 -0.8458 -1.2664  0.1201
    1PA    H16S16753   6.341   5.361   3.703 -1.5159  0.7230 -1.5456
    1PA    H16T16754   6.334   5.191   3.755 -1.8411 -0.1756  1.1500
    1PA    C11516755   6.206   5.236   3.584 -0.0784  0.0306 -0.2969
    1PA    H15R16756   6.162   5.137   3.573  0.9393 -0.1914 -3.8564
    1PA    H15S16757   6.125   5.306   3.565 -2.9988 -2.5151  1.8132
    1PA    C11416758   6.311   5.235   3.471  0.0472 -0.7314 -0.1766
    1PA    H14R16759   6.352   5.335   3.461  1.4522 -0.9580  2.3599
    1PA    H14S16760   6.384   5.156   3.491  0.7889 -0.0210 -0.0290
    1PA    C11316761   6.245   5.185   3.342 -0.3570  0.0952 -0.2929
    1PA    H13R16762   6.190   5.091   3.347  2.3235 -1.8547 -3.3732
    1PA    H13S16763   6.174   5.263   3.313  0.2303  0.7609  0.0147
    1PA    C11216764   6.347   5.182   3.227 -0.0054  0.0381  0.0202
    1PA    H12R16765   6.392   5.281   3.232  0.2717  0.0107 -1.5283
    1PA    H12S16766   6.414   5.098   3.250  0.4537 -0.2259 -2.0961
    1PA    C11116767   6.285   5.158   3.089 -0.1483 -0.8763  0.2357
    1PA    H11R16768   6.235   5.061   3.093  0.9304 -1.3998  1.9917
    1PA    H11S16769   6.210   5.235   3.069  1.2684 -0.0962 -2.6035
    1PA    C11016770   6.397   5.159   2.984  0.0321 -0.1843  0.4356
    1PA    H10R16771   6.448   5.255   2.997 -1.6225  0.4192  3.4584
    1PA    H10S16772   6.463   5.074   3.000  0.0595 -1.0497 -3.4630
    1PA     C1916773   6.347   5.146   2.840  0.6496 -0.2017  0.2193
    1PA     H9R16774   6.261   5.213   2.832  0.6671  0.0929  2.0834
    1PA     H9S16775   6.430   5.171   2.774  1.0510 -0.1866  0.7283
    1PA     C1816776   6.297   5.004   2.806  0.2887 -0.0385  0.0603
    1PA     H8R16777   6.378   4.931   2.804 -0.7521 -1.2033 -1.6087
    1PA     H8S16778   6.230   4.959   2.879  1.3911 -3.5386 -0.8882
    1PA     C1716779   6.241   4.994   2.664 -0.0190 -0.2919  0.1994
    1PA     H7R16780   6.301   5.040   2.584 -2.5241  0.4801 -1.3670
    1PA     H7S16781   6.223   4.889   2.639 -0.0090 -0.1280 -0.5219
    1PA     C1616782   6.103   5.060   2.653  0.1747  0.0639 -0.1481
    1PA     H6R16783   6.030   5.014   2.720  0.9917  0.8999  1.3672
    1PA     H6S16784   6.107   5.165   2.685 -0.9260  0.5808 -1.6088
    1PA     C1516785   6.055   5.057   2.508 -0.4221 -0.2780  0.0514
    1PA     H5R16786   6.119   5.132   2.460  0.7444 -0.6180  1.0366
    1PA     H5S16787   6.074   4.962   2.459 -0.3886 -0.3822  0.2683
    1PA     C1416788   5.910   5.105   2.489 -0.3263 -0.1771 -0.4616
    1PA     H4R16789   5.834   5.031   2.517 -0.4310  0.9729  2.6944
    1PA     H4S16790   5.903   5.193   2.553 -2.3419  0.1877 -1.1029
    1PA     C1316791   5.882   5.149   2.345 -0.1742 -0.0720 -0.4592
    1PA     H3R16792   5.965   5.210   2.310 -0.9270  0.8319 -0.7224
    1PA     H3S16793   5.892   5.065   2.276  0.2463 -0.0509 -0.4241
    1PA     C1216794   5.751   5.222   2.313 -0.1684  0.0997 -0.0904
    1PA     H2R16795   5.667   5.161   2.346 -0.3927  1.2435  1.5939
    1PA     H2S16796   5.754   5.316   2.368  0.1888  0.1868 -0.2592
    2PC     C1116797   5.741   5.238   2.163  0.0248  0.0253 -0.1111
    2PC     O1216798   5.818   5.200   2.078 -0.0109  0.4847 -0.3546
    2PC     O1116799   5.634   5.311   2.126  0.0099 -0.0294 -0.1755
    2PC      C116800   5.604   5.343   1.989  0.0351  0.5275 -0.0542
    2PC      HR16801   5.542   5.432   1.983  2.0610  1.9533 -0.6885
    2PC      HS16802   5.693   5.358   1.928  0.2674 -1.0309 -0.1423
    2PC      C216803   5.535   5.227   1.915  0.0525  0.3330  0.2299
    2PC      HX16804   5.589   5.132   1.914 -1.7082 -0.7153  0.3842
    2PC      C316805   5.504   5.270   1.771  0.5068 -0.2165 -0.0366
    2PC      HA16806   5.441   5.360   1.774 -2.1035 -1.9213 -0.7806
    2PC      HB16807   5.597   5.284   1.715  0.9006  0.1849  0.7056
    2PC     O3116808   5.441   5.163   1.698 -0.2415  0.2009 -0.0118
    2PC     P3116809   5.392   5.175   1.546 -0.0745  0.0640 -0.0761
    2PC     O3216810   5.492   5.076   1.470 -0.3040 -0.1549 -0.0930
    2PC     C3116811   5.525   4.951   1.534 -0.2011 -0.3383 -0.5033
    2PC     H1A16812   5.583   4.969   1.624  0.8193  1.6599 -1.4879
    2PC     H1B16813   5.431   4.901   1.560 -0.1214 -0.3455 -0.2364
    2PC     C3216814   5.608   4.865   1.437  0.6049 -0.0190 -0.1021
    2PC     H2A16815   5.702   4.916   1.415  0.5009  0.3922  0.3803
    2PC     H2B16816   5.639   4.766   1.472 -0.7066 -0.9958 -1.5766
    2PC     N3116817   5.549   4.833   1.303 -0.1553  0.0971  0.1974
    2PC     C3316818   5.493   4.950   1.228  0.4201  0.0630 -0.2978
    2PC     H3A16819   5.469   4.912   1.129 -1.2958  0.7004 -0.1652
    2PC     H3B16820   5.399   4.983   1.274  0.6379  0.6725 -0.2792
    2PC     H3C16821   5.569   5.028   1.225  1.6661 -1.1071  0.0864
    2PC     C3416822   5.649   4.750   1.228 -0.2498  0.0887  0.0813
    2PC     H4A16823   5.658   4.656   1.283  0.3713  0.9423  1.4822
    2PC     H4B16824   5.606   4.737   1.128 -0.4055 -0.5054  0.2240
    2PC     H4C16825   5.744   4.802   1.228 -1.1073  1.7421 -0.5970
    2PC     C3516826   5.433   4.744   1.332  0.0480 -0.1885  0.1343
    2PC     H5A16827   5.389   4.700   1.242 -0.1794 -0.6184  0.4454
    2PC     H5B16828   5.363   4.814   1.377  2.1346  1.6790  0.6278
    2PC     H5C16829   5.460   4.662   1.399  0.7129  0.4606  0.6654
    2PC     O3316830   5.253   5.136   1.516 -0.0938 -0.0739  0.1906
    2PC     O3416831   5.412   5.309   1.485 -0.0952  0.1608  0.1288
    2PC     O2116832   5.407   5.212   1.979 -0.5419 -0.7218 -1.1400
    2PC     C2116833   5.393   5.132   2.086 -0.0963  0.0618 -0.4765
    2PC     O2216834   5.475   5.047   2.113 -0.1523  0.0310 -0.4023
    3OL     C1216835   5.258   5.142   2.153  0.0862  0.2590 -0.1369
    3OL     H2R16836   5.185   5.162   2.075  0.8518  4.3416 -0.0382
    3OL     H2S16837   5.263   5.234   2.212  0.2526  2.5704 -3.4455
    3OL     C1316838   5.217   5.024   2.242 -0.5424  0.7331  0.2149
    3OL     H3R16839   5.245   4.931   2.191  3.2171  1.0965  1.2836
    3OL     H3S16840   5.109   5.028   2.259 -0.6114  1.1407 -0.2779
    3OL     C1416841   5.280   5.038   2.381 -0.4149  0.3390  0.1988
    3OL     H4R16842   5.267   5.142   2.413  1.5496  0.5032  0.5999
    3OL     H4S16843   5.387   5.017   2.371 -0.7260 -0.6559 -1.4451
    3OL     C1516844   5.236   4.936   2.487 -0.0188 -0.2658 -0.2100
    3OL     H5R16845   5.255   4.833   2.457 -2.2881 -1.0649  0.8965
    3OL     H5S16846   5.128   4.948   2.495 -0.0778 -1.2722  0.6059
    3OL     C1616847   5.296   4.951   2.627  0.0046  0.1785 -0.2662
    3OL     H6R16848   5.254   5.046   2.662  0.9261  0.8142 -0.8385
    3OL     H6S16849   5.404   4.953   2.615 -0.0271 -1.4694 -1.0833
    3OL     C1716850   5.249   4.837   2.718  0.4410  0.6609  0.5727
    3OL     H7R16851   5.264   4.745   2.662 -0.7372  0.4749  0.5331
    3OL     H7S16852   5.143   4.856   2.732  0.5730  1.5098  0.4518
    3OL     C1816853   5.321   4.822   2.853  0.4226 -0.3137  0.4789
    3OL     H8R16854   5.422   4.788   2.830  1.3787  1.2387  2.1040
    3OL     H8S16855   5.272   4.750   2.919  0.4911  2.2627  3.6061
    3OL     C1916856   5.330   4.953   2.926  0.6877 -0.3519  0.5158
    3OL     H9R16857   5.428   5.000   2.939  0.8202 -0.7421  0.9335
    3OL    C11016858   5.228   5.017   2.982  0.1521 -0.6026 -0.1619
    3OL    H10R16859   5.244   5.114   3.028  0.3500  1.0619 -3.4377
    3OL    C11116860   5.091   4.955   2.996  0.1410 -0.6375 -0.4158
    3OL    H11R16861   5.086   4.959   3.105 -1.9601  1.0174 -0.5214
    3OL    H11S16862   5.095   4.852   2.960 -1.4589 -0.5356 -0.9496
    3OL    C11216863   4.975   5.037   2.938  0.0665 -0.4011  0.0681
    3OL    H12R16864   4.990   5.052   2.831 -0.5515  0.3609  0.0738
    3OL    H12S16865   4.996   5.139   2.973 -0.6152 -0.0807 -0.4426
    3OL    C11316866   4.838   4.986   2.986 -0.1967  0.2537  0.0272
    3OL    H13R16867   4.769   5.063   2.951 -1.5141 -0.0337  1.8885
    3OL    H13S16868   4.831   4.982   3.095 -1.1621 -1.7015 -0.0680
    3OL    C11416869   4.784   4.858   2.921  0.1387  0.1087  0.0313
    3OL    H14R16870   4.692   4.830   2.973  0.3613 -0.3642  0.1768
    3OL    H14S16871   4.853   4.774   2.933 -1.0414 -0.8723  0.1194
    3OL    C11516872   4.744   4.871   2.773 -0.4767 -0.6015  0.1312
    3OL    H15R16873   4.831   4.914   2.722 -0.4352  0.0154  0.7018
    3OL    H15S16874   4.663   4.944   2.782  1.8452  1.8817  3.8992
    3OL    C11616875   4.679   4.747   2.711 -0.7824 -0.5481  0.3440
    3OL    H16R16876   4.647   4.777   2.611  1.4599  0.3570 -0.1629
    3OL    H16S16877   4.591   4.727   2.773 -1.0261 -0.6388 -0.0305
    3OL    C11716878   4.766   4.621   2.701 -0.2574 -0.1547 -0.0971
    3OL    H17R16879   4.702   4.541   2.663 -0.0157  0.0871 -1.0342
    3OL    H17S16880   4.786   4.590   2.804 -2.1014 -0.5484  0.1787
    3OL    C11816881   4.894   4.632   2.618 -0.2073  0.2142  0.0307
    3OL    H18R16882   4.945   4.536   2.620 -0.3388  0.1574  1.3804
    3OL    H18S16883   4.954   4.712   2.663  0.2952 -0.4112  0.4831
    3OL    H18T16884   4.873   4.658   2.514  1.1680 -0.6321 -0.4852
    1PA    C11616885   3.568   4.980   3.627 -0.0918  0.5256  0.1323
    1PA    H16R16886   3.572   5.027   3.726  0.1985 -0.2326  0.4898
    1PA    H16S16887   3.600   4.876   3.642 -1.4298 -0.1333 -1.3152
    1PA    H16T16888   3.464   4.974   3.594 -0.4928  0.0470  1.3820
    1PA    C11516889   3.666   5.046   3.530  0.2859 -0.1755  0.0250
    1PA    H15R16890   3.640   5.147   3.497  0.4286  0.1813  0.9812
    1PA    H15S16891   3.760   5.062   3.583  1.4817 -2.8398 -1.1406
    1PA    C11416892   3.695   4.954   3.411  0.5693  0.3448 -0.3115
    1PA    H14R16893   3.790   4.982   3.363  0.6947 -0.6674 -0.6765
    1PA    H14S16894   3.719   4.857   3.455  1.6802  0.8392  0.2252
    1PA    C11316895   3.584   4.934   3.307  0.5299  0.6598 -0.3298
    1PA    H13R16896   3.499   4.887   3.356 -0.3867  0.2589 -2.2297
    1PA    H13S16897   3.557   5.033   3.267  2.5707  1.1884 -0.5049
    1PA    C11216898   3.634   4.839   3.197 -0.1962  0.0848 -0.1667
    1PA    H12R16899   3.715   4.893   3.149  0.9232  0.2576  1.7888
    1PA    H12S16900   3.665   4.747   3.246 -0.2914  0.6136  0.9226
    1PA    C11116901   3.517   4.810   3.102 -0.4489  0.5387  0.0004
    1PA    H11R16902   3.439   4.885   3.120 -0.8526  0.0429  0.3676
    1PA    H11S16903   3.543   4.830   2.998  0.2529  0.1059  0.0924
    1PA    C11016904   3.473   4.663   3.108 -0.3073  0.4851 -0.3180
    1PA    H10R16905   3.561   4.601   3.089  0.1368  0.2348  2.2522
    1PA    H10S16906   3.440   4.626   3.205 -2.4192 -0.4031 -1.3031
    1PA     C1916907   3.357   4.639   3.010 -0.0315 -0.1199 -0.5052
    1PA     H9R16908   3.271   4.704   3.026  0.0120 -0.1046 -0.3352
    1PA     H9S16909   3.392   4.681   2.915 -0.6072  2.3004  0.2688
    1PA     C1816910   3.308   4.494   2.997 -0.0785 -0.1703  0.2309
    1PA     H8R16911   3.301   4.454   3.099  0.6121  2.8419  1.6030
    1PA     H8S16912   3.206   4.488   2.960 -0.2372  0.5037  0.5288
    1PA     C1716913   3.396   4.406   2.908 -0.1232 -0.0990  0.1160
    1PA     H7R16914   3.394   4.452   2.809  1.0862  1.1438  0.6433
    1PA     H7S16915   3.499   4.404   2.943 -0.6720  0.3018  1.8236
    1PA     C1616916   3.351   4.261   2.883  0.1256 -0.1633  0.0351
    1PA     H6R16917   3.243   4.262   2.865  0.3458  1.3320 -1.5743
    1PA     H6S16918   3.405   4.220   2.797  0.7823  1.0831 -0.1691
    1PA     C1516919   3.378   4.175   3.007 -0.7689  0.3835  0.6206
    1PA     H5R16920   3.486   4.167   3.019 -0.2433  0.8433 -2.8652
    1PA     H5S16921   3.328   4.223   3.092  1.1501  2.8090  0.5034
    1PA     C1416922   3.323   4.032   3.003 -0.1062  0.1365  0.1709
    1PA     H4R16923   3.385   3.965   3.064  0.8846 -1.0194 -1.9947
    1PA     H4S16924   3.220   4.024   3.039 -0.2029  0.0674 -0.1209
    1PA     C1316925   3.315   3.963   2.866 -0.0447  0.0099  0.2308
    1PA     H3R16926   3.247   3.881   2.889  1.3365 -1.3709 -0.3646
    1PA     H3S16927   3.265   4.024   2.790  0.8654 -2.5630 -2.6386
    1PA     C1216928   3.446   3.900   2.816 -0.0267 -0.1002  0.4176
    1PA     H2R16929   3.516   3.981   2.794 -0.7550  0.7048  0.9826
    1PA     H2S16930   3.487   3.831   2.890  3.4912  0.7244 -0.5968
    2PC     C1116931   3.426   3.832   2.683  0.2120 -0.2209  0.4420
    2PC     O1216932   3.321   3.777   2.656 -0.1119  0.6708 -0.1601
    2PC     O1116933   3.538   3.834   2.610  0.2269  0.1696  0.4731
    2PC      C116934   3.536   3.796   2.471 -0.0081  0.3554  0.4243
    2PC      HR16935   3.636   3.759   2.445  0.0491  1.8583 -1.7879
    2PC      HS16936   3.453   3.727   2.452  1.0596 -0.9349  0.2480
    2PC      C216937   3.492   3.919   2.391 -0.4766  0.0337  0.1811
    2PC      HX16938   3.411   3.970   2.444 -0.3131 -0.2468  0.7065
    2PC      C316939   3.453   3.886   2.247 -0.7234 -0.3133  0.3270
    2PC      HA16940   3.530   3.924   2.179  0.7231 -1.1170  1.4629
    2PC      HB16941   3.451   3.779   2.222  0.4491 -0.5566  1.2339
    2PC     O3116942   3.332   3.963   2.232 -0.4693  0.1185  0.4947
    2PC     P3116943   3.267   3.984   2.087  0.1820 -0.0403  0.1784
    2PC     O3216944   3.383   4.058   2.006  0.0220  0.0099 -0.0037
    2PC     C3116945   3.422   4.189   2.050  0.2627 -0.0496 -0.0387
    2PC     H1A16946   3.391   4.206   2.153  1.8471 -2.3330  0.9051
    2PC     H1B16947   3.528   4.206   2.029  0.5886  0.0903  1.5707
    2PC     C3216948   3.339   4.285   1.964  0.0654  0.1388  0.3626
    2PC     H2A16949   3.233   4.256   1.965  0.3154 -0.8104  0.9875
    2PC     H2B16950   3.350   4.383   2.012 -3.8423  1.3398 -0.8002
    2PC     N3116951   3.381   4.296   1.821 -0.3460 -0.1880  0.2128
    2PC     C3316952   3.314   4.417   1.764  0.0782 -0.5130 -1.0065
    2PC     H3A16953   3.330   4.500   1.833  0.0902 -0.0607 -1.5434
    2PC     H3B16954   3.360   4.443   1.668  0.1294  0.7395 -0.6691
    2PC     H3C16955   3.208   4.399   1.746 -0.8048  1.9265  1.1376
    2PC     C3416956   3.527   4.308   1.789 -0.3652 -0.3136  0.0784
    2PC     H4A16957   3.536   4.323   1.681 -0.8136  0.2232  0.1080
    2PC     H4B16958   3.566   4.397   1.839 -0.9084  0.1670 -0.3347
    2PC     H4C16959   3.568   4.214   1.825 -0.5035 -0.1948  0.5506
    2PC     C3516960   3.340   4.176   1.742  0.4059 -0.4300  0.1826
    2PC     H5A16961   3.412   4.103   1.779  1.0799  0.4727  0.6792
    2PC     H5B16962   3.362   4.200   1.638 -2.3385  1.2652 -0.1024
    2PC     H5C16963   3.237   4.143   1.759  0.3448 -0.0683  0.5094
    2PC     O3316964   3.225   3.860   2.017  0.5186  0.2133 -0.4841
    2PC     O3416965   3.147   4.069   2.104  0.1321 -0.0432 -0.1612
    2PC     O2116966   3.606   4.005   2.373 -0.8995  0.5837  0.0845
    2PC     C2116967   3.627   4.113   2.451  0.5602  0.2040  0.2549
    2PC     O2216968   3.553   4.152   2.539  0.3370  0.1342  0.0995
    3OL     C1216969   3.755   4.182   2.412  0.1171  0.9778  0.1482
    3OL     H2R16970   3.762   4.284   2.448  2.6255  0.2280  2.0207
    3OL     H2S16971   3.752   4.196   2.303 -1.4320  0.2229  0.0666
    3OL     C1316972   3.880   4.095   2.432 -0.3936  0.2507  0.2181
    3OL     H3R16973   3.969   4.149   2.400  1.1141 -2.3602 -0.3018
    3OL     H3S16974   3.882   4.014   2.358  2.2782  1.7622 -1.5308
    3OL     C1416975   3.905   4.041   2.573  0.0815  0.1161  0.0824
    3OL     H4R16976   3.994   3.977   2.567 -1.3602 -1.9036 -1.4616
    3OL     H4S16977   3.823   3.974   2.598 -0.3056 -0.0700 -1.5672
    3OL     C1516978   3.928   4.155   2.673  0.3895  0.2372 -0.1243
    3OL     H5R16979   3.839   4.217   2.688 -0.0786 -0.0635 -1.5422
    3OL     H5S16980   3.999   4.231   2.642  1.5378 -0.1182  1.4839
    3OL     C1616981   3.973   4.099   2.809  0.1066  0.0802 -0.0952
    3OL     H6R16982   3.977   4.180   2.882  0.0252  1.7873 -1.9199
    3OL     H6S16983   4.073   4.056   2.803 -0.5631 -1.6869  0.5967
    3OL     C1716984   3.879   3.988   2.859  0.5398 -0.2072  0.0901
    3OL     H7R16985   3.883   3.907   2.787  0.9491  0.9267 -1.2071
    3OL     H7S16986   3.776   4.025   2.857  1.4256  2.4313 -0.6557
    3OL     C1816987   3.918   3.935   2.998  0.6291 -0.4299 -0.0205
    3OL     H8R16988   3.955   4.014   3.063 -0.2426 -0.8943  1.0642
    3OL     H8S16989   3.994   3.856   2.992  0.2876 -0.8104  0.6262
    3OL     C1916990   3.800   3.859   3.052 -0.0416  0.5487 -0.0797
    3OL     H9R16991   3.747   3.794   2.983  0.2415 -2.9189  2.6826
    3OL    C11016992   3.750   3.870   3.174 -0.2071 -0.4230 -0.0470
    3OL    H10R16993   3.656   3.817   3.191 -1.0994  1.1267  0.0854
    3OL    C11116994   3.802   3.953   3.288  0.1446 -0.5367 -0.1244
    3OL    H11R16995   3.903   3.990   3.274 -0.2102  0.1988 -0.8000
    3OL    H11S16996   3.792   3.888   3.375  2.1620 -1.8856 -0.8257
    3OL    C11216997   3.715   4.075   3.321  0.3360 -0.2705 -0.5910
    3OL    H12R16998   3.640   4.051   3.398  0.2200  0.3726 -0.4944
    3OL    H12S16999   3.662   4.108   3.232  0.1423  0.1883 -0.3130
    3OL    C11317000   3.796   4.203   3.343  0.3597 -0.3204 -0.3822
    3OL    H13R17001   3.718   4.278   3.338  1.3798  0.8440  0.6046
    3OL    H13S17002   3.867   4.215   3.260  2.4311 -0.2218  1.3057
    3OL    C11417003   3.863   4.212   3.481 -0.3389  0.0120 -0.0589
    3OL    H14R17004   3.923   4.302   3.492  0.2463 -0.3517 -0.1958
    3OL    H14S17005   3.931   4.127   3.493 -0.8742 -0.2671  1.1241
    3OL    C11517006   3.761   4.231   3.594 -0.3509  0.0268 -0.0723
    3OL    H15R17007   3.683   4.155   3.603 -2.2886  1.8287 -0.7776
    3OL    H15S17008   3.705   4.324   3.583 -3.9090 -1.6416  2.1553
    3OL    C11617009   3.829   4.239   3.731 -0.2105  0.0530 -0.1437
    3OL    H16R17010   3.902   4.321   3.726 -1.1623  0.9803  0.7852
    3OL    H16S17011   3.889   4.148   3.737  1.7094  1.1012 -1.8526
    3OL    C11717012   3.733   4.257   3.849  0.1123 -0.6014  0.2234
    3OL    H17R17013   3.665   4.171   3.846 -0.4126 -0.1753 -0.5611
    3OL    H17S17014   3.685   4.350   3.820  0.4841 -1.3708 -3.3332
    3OL    C11817015   3.807   4.267   3.983  0.5739  0.7248 -0.1220
    3OL    H18R17016   3.745   4.250   4.071 -0.7549 -1.1466 -1.3359
    3OL    H18S17017   3.843   4.370   3.989  1.8547  0.3534 -1.0103
    3OL    H18T17018   3.889   4.197   3.999 -0.8626 -0.6503  1.5931
    1PA    C11617019   2.812   5.332   3.128 -0.7108  0.8713  0.1575
    1PA    H16R17020   2.822   5.436   3.161  0.8756  0.8676 -0.2425
    1PA    H16S17021   2.833   5.325   3.022 -0.3075 -0.5696  0.3192
    1PA    H16T17022   2.884   5.270   3.181 -3.2340 -1.3444  1.2543
    1PA    C11517023   2.675   5.271   3.163 -0.4658  0.4809  0.4433
    1PA    H15R17024   2.591   5.329   3.124 -0.8703 -1.2279 -1.4087
    1PA    H15S17025   2.677   5.175   3.111  2.4164 -0.0717  1.4065
    1PA    C11417026   2.659   5.238   3.312 -0.3046 -0.4560  0.2588
    1PA    H14R17027   2.749   5.191   3.354 -0.1159 -1.3924 -1.1130
    1PA    H14S17028   2.636   5.329   3.368 -2.2285 -1.3373  0.9949
    1PA    C11317029   2.541   5.143   3.338 -0.4646 -0.1976  0.4773
    1PA    H13R17030   2.563   5.042   3.302  0.7426 -0.0799  0.8191
    1PA    H13S17031   2.552   5.132   3.446 -0.3270 -2.3565  0.2826
    1PA    C11217032   2.402   5.195   3.299  0.0555  0.4887 -0.5010
    1PA    H12R17033   2.337   5.174   3.384 -0.2105 -0.1756 -0.8653
    1PA    H12S17034   2.399   5.304   3.290  0.3187  0.4326 -1.3760
    1PA    C11117035   2.346   5.132   3.171  0.0266  0.4123 -0.4509
    1PA    H11R17036   2.412   5.135   3.084 -0.1906  1.4400 -0.5940
    1PA    H11S17037   2.327   5.026   3.188 -1.3688  0.9054  1.3838
    1PA    C11017038   2.216   5.208   3.138 -0.0036  0.4900 -0.1583
    1PA    H10R17039   2.145   5.197   3.219 -0.1567 -3.3022 -0.6344
    1PA    H10S17040   2.235   5.312   3.111  0.3457  0.7059  0.8705
    1PA     C1917041   2.154   5.144   3.012  0.0874  0.5813 -0.2498
    1PA     H9R17042   2.219   5.174   2.930 -1.3826  1.2957 -1.1821
    1PA     H9S17043   2.160   5.035   3.011 -0.5694  0.5095 -2.9758
    1PA     C1817044   2.011   5.194   2.989  0.0400  0.6463  0.1712
    1PA     H8R17045   1.950   5.169   3.076  1.8210 -0.9567  1.0377
    1PA     H8S17046   2.012   5.301   2.968  2.0158  0.1850 -2.5344
    1PA     C1717047   1.952   5.123   2.866  0.3303  0.1228  0.3289
    1PA     H7R17048   1.928   5.021   2.895 -0.7525  0.7191  1.6392
    1PA     H7S17049   1.850   5.156   2.845  0.5568  1.8273  1.6110
    1PA     C1617050   2.047   5.132   2.745 -0.1393  0.3994 -0.0220
    1PA     H6R17051   2.080   5.236   2.737 -0.0255  0.2010 -4.0036
    1PA     H6S17052   2.134   5.068   2.753 -1.3789 -1.2882  0.6258
    1PA     C1517053   1.977   5.099   2.613 -0.1974  0.1186  0.0788
    1PA     H5R17054   1.940   4.998   2.633  1.4239 -0.4807  0.1363
    1PA     H5S17055   1.896   5.167   2.587  0.1336 -0.2488 -2.0625
    1PA     C1417056   2.081   5.107   2.501  0.4293 -0.0891  0.6406
    1PA     H4R17057   2.089   5.212   2.474 -0.3990 -0.1991 -0.0932
    1PA     H4S17058   2.181   5.074   2.531  0.3898 -1.5148 -0.6647
    1PA     C1317059   2.046   5.025   2.376 -0.3927 -0.1426  0.9012
    1PA     H3R17060   1.947   5.050   2.336  0.3976 -0.7831 -1.6205
    1PA     H3S17061   2.109   5.057   2.293 -0.2954  1.0385  1.4078
    1PA     C1217062   2.067   4.875   2.401 -0.5606 -0.3064  0.1121
    1PA     H2R17063   2.170   4.841   2.420 -0.5834 -0.6680 -0.4045
    1PA     H2S17064   2.007   4.848   2.488  0.3952 -1.4431  0.4535
    2PC     C1117065   2.021   4.797   2.281  0.3543 -0.2539 -0.2862
    2PC     O1217066   2.068   4.791   2.169 -0.0050 -0.0956 -0.4454
    2PC     O1117067   1.907   4.732   2.313  0.1382  0.2753  0.0397
    2PC      C117068   1.834   4.659   2.212  0.4793 -0.3642  0.2480
    2PC      HR17069   1.844   4.701   2.112  0.3494 -0.9286  0.0004
    2PC      HS17070   1.869   4.556   2.212 -0.3605 -0.6593  0.5721
    2PC      C217071   1.687   4.660   2.255  0.2720 -0.1521 -0.4505
    2PC      HX17072   1.684   4.657   2.365 -0.9465 -1.2922 -0.4867
    2PC      C317073   1.606   4.543   2.196 -0.2428 -0.2288  0.3906
    2PC      HA17074   1.608   4.458   2.265  0.5802 -0.1753  0.4408
    2PC      HB17075   1.503   4.579   2.191 -0.4169 -0.5138  1.5473
    2PC     O3117076   1.652   4.519   2.062  0.0489  0.3253  0.3890
    2PC     P3117077   1.592   4.397   1.978  0.2535  0.4386  0.0757
    2PC     O3217078   1.436   4.428   2.000  0.0358 -0.4712 -0.1050
    2PC     C3117079   1.363   4.463   1.882 -0.5693  0.0958  0.4254
    2PC     H1A17080   1.406   4.546   1.825 -1.4363 -0.2975 -0.8552
    2PC     H1B17081   1.368   4.368   1.827  1.0025 -0.0594  0.7871
    2PC     C3217082   1.220   4.495   1.927 -0.6842 -0.2647  0.3222
    2PC     H2A17083   1.173   4.415   1.986 -0.2209 -0.4941  0.3829
    2PC     H2B17084   1.224   4.587   1.985 -0.2624  0.4826 -0.8715
    2PC     N3117085   1.117   4.512   1.819 -0.1043  0.2882 -0.1504
    2PC     C3317086   1.166   4.609   1.716 -0.2745  0.5037 -0.0298
    2PC     H3A17087   1.092   4.612   1.635  0.1665  0.7452 -0.4268
    2PC     H3B17088   1.169   4.705   1.768 -1.4470  0.7517 -0.3937
    2PC     H3C17089   1.268   4.584   1.687  0.3681 -0.7723  2.9475
    2PC     C3417090   1.087   4.378   1.758 -0.0918  0.0723  0.3128
    2PC     H4A17091   1.026   4.393   1.669  1.3184 -0.7210 -0.8424
    2PC     H4B17092   1.183   4.333   1.733 -0.4322 -0.8202  0.5580
    2PC     H4C17093   1.029   4.319   1.829  1.3253 -0.9295  0.6991
    2PC     C3517094   0.984   4.564   1.864 -0.3080  0.3062 -0.7664
    2PC     H5A17095   0.913   4.557   1.782 -1.0316 -0.0967 -0.1204
    2PC     H5B17096   0.988   4.666   1.903  0.5115 -0.0898  0.2381
    2PC     H5C17097   0.940   4.503   1.943  1.6529 -0.8406 -0.4908
    2PC     O3317098   1.641   4.417   1.840 -0.2540  0.7453 -0.0623
    2PC     O3417099   1.650   4.267   2.019 -0.1997  0.0825 -0.4010
    2PC     O2117100   1.635   4.786   2.209 -0.1657 -0.2017 -0.1078
    2PC     C2117101   1.528   4.836   2.273 -0.0775  0.0928 -0.1903
    2PC     O2217102   1.473   4.779   2.365 -0.5056  0.6727 -0.0810
    3OL     C1217103   1.511   4.982   2.238  0.4360  0.1701 -0.1232
    3OL     H2R17104   1.407   5.009   2.253  0.2574  0.2318 -1.3902
    3OL     H2S17105   1.543   5.008   2.137  0.7042  0.5236  0.0501
    3OL     C1317106   1.598   5.063   2.335  0.4414  0.0941 -0.0651
    3OL     H3R17107   1.610   5.166   2.302 -1.0839  0.3550  0.1106
    3OL     H3S17108   1.694   5.012   2.331  0.1325 -0.4191 -2.7123
    3OL     C1417109   1.544   5.073   2.479 -0.0194 -0.1659 -0.2187
    3OL     H4R17110   1.619   5.118   2.545 -1.7280  1.4838  0.7043
    3OL     H4S17111   1.530   4.977   2.528  0.1060 -0.3677 -0.5769
    3OL     C1517112   1.427   5.171   2.494 -0.1944 -0.4585  0.3424
    3OL     H5R17113   1.347   5.134   2.429  0.2678 -0.8519 -0.0057
    3OL     H5S17114   1.458   5.266   2.450  0.2692 -1.1171 -0.7963
    3OL     C1617115   1.375   5.187   2.638  0.0679 -0.5817  0.4505
    3OL     H6R17116   1.357   5.089   2.682 -0.5719 -0.5738  0.2105
    3OL     H6S17117   1.282   5.243   2.628  1.3394  1.8681  1.3777
    3OL     C1717118   1.457   5.270   2.738 -0.0137 -0.2852  0.2744
    3OL     H7R17119   1.560   5.233   2.745 -0.2748 -0.8680  1.3509
    3OL     H7S17120   1.407   5.252   2.834  1.8035 -0.6830  1.1982
    3OL     C1817121   1.455   5.420   2.707 -0.6114 -0.3522 -0.0233
    3OL     H8R17122   1.378   5.442   2.633 -2.0966 -1.9153  1.0005
    3OL     H8S17123   1.549   5.445   2.657 -0.3167 -0.3629  0.5253
    3OL     C1917124   1.430   5.499   2.833  0.3084 -0.2667  0.1142
    3OL     H9R17125   1.327   5.522   2.857  0.6001  0.7845  0.4102
    3OL    C11017126   1.524   5.567   2.897  0.2181 -0.5621  0.5618
    3OL    H10R17127   1.501   5.644   2.970 -0.7177 -0.5322  0.2463
    3OL    C11117128   1.673   5.545   2.883  0.3265  0.3682  0.2173
    3OL    H11R17129   1.719   5.624   2.822 -0.1818 -0.1518 -0.8706
    3OL    H11S17130   1.696   5.451   2.832 -1.1829  0.3539 -0.5177
    3OL    C11217131   1.740   5.550   3.021  0.2123  0.5743  0.2659
    3OL    H12R17132   1.693   5.631   3.078 -0.8179 -0.3463  0.7633
    3OL    H12S17133   1.847   5.570   3.012  0.4508 -1.2358 -1.8700
    3OL    C11317134   1.704   5.418   3.091  0.0204  0.4382 -0.0859
    3OL    H13R17135   1.747   5.338   3.032 -0.4816 -0.0879  0.2480
    3OL    H13S17136   1.596   5.409   3.105  0.4047 -0.8288  2.7727
    3OL    C11417137   1.777   5.415   3.225 -0.3140 -0.7159  0.0806
    3OL    H14R17138   1.880   5.452   3.220 -0.9488  1.0572 -0.7916
    3OL    H14S17139   1.789   5.307   3.239 -1.9724 -1.0370 -0.7722
    3OL    C11517140   1.696   5.502   3.323 -0.0328 -0.4127  0.0455
    3OL    H15R17141   1.589   5.487   3.309 -0.3771  2.8740 -2.1098
    3OL    H15S17142   1.717   5.609   3.319  0.8177 -0.6068 -1.7176
    3OL    C11617143   1.721   5.468   3.470 -0.0091  0.1569  0.1755
    3OL    H16R17144   1.826   5.446   3.487  0.2108 -0.2669 -1.5371
    3OL    H16S17145   1.667   5.374   3.483 -1.4804  0.8273 -0.7874
    3OL    C11717146   1.669   5.574   3.569 -0.2137 -0.0113  0.2503
    3OL    H17R17147   1.561   5.576   3.553 -0.1578 -0.3922 -0.2084
    3OL    H17S17148   1.711   5.672   3.545  0.8709 -0.6666 -0.6667
    3OL    C11817149   1.711   5.539   3.712  0.4410 -0.1030  0.0432
    3OL    H18R17150   1.645   5.461   3.752  0.3900  0.5478  1.3044
    3OL    H18S17151   1.680   5.624   3.774  0.5944 -0.9035  1.2542
    3OL    H18T17152   1.818   5.523   3.722  0.6970  2.3471  2.4428
    4SOL     OW17153   2.140   1.359   6.501  0.5562  0.0387 -0.4620
    4SOL    HW117154   2.125   1.379   6.594  1.4832  0.5615 -0.4176
    4SOL    HW217155   2.188   1.276   6.502 -0.2476 -0.4463 -0.5257
    5SOL     OW17156   4.384   1.094   6.440  0.5389 -0.3949  0.7605
    5SOL    HW117157   4.470   1.084   6.481 -0.2838 -0.6553  2.4941
    5SOL    HW217158   4.325   1.116   6.512 -0.4344  2.3826 -0.7069
    6SOL     OW17159   1.355   0.848   6.558 -0.3017  0.1143 -0.3381
    6SOL    HW117160   1.281   0.891   6.514 -0.3248  0.9016  0.4454
    6SOL    HW217161   1.389   0.915   6.618 -0.4936 -1.0335  1.1039
    7SOL     OW17162   1.426   2.372   2.143 -0.3071 -0.1162 -0.1482
    7SOL    HW117163   1.347   2.320   2.145 -1.2824  1.2748 -0.6997
    7SOL    HW217164   1.396   2.462   2.127  1.3000  0.6026  0.5669
    8SOL     OW17165   4.123   5.081   7.635  0.0427  0.0949 -0.4127
    8SOL    HW117166   4.161   5.013   7.691 -2.2320 -0.0742  1.0272
    8SOL    HW217167   4.090   5.147   7.696 -1.5139  0.4578 -1.5915
    9SOL     OW17168   2.679   2.309   1.609  0.3885 -0.1251 -0.2190
    9SOL    HW117169   2.694   2.403   1.620  0.1021 -0.0594 -0.3747
    9SOL    HW217170   2.620   2.285   1.681  1.9252 -0.5635  0.9277
   10SOL     OW17171   4.673   4.700   6.934 -0.1879 -0.5691  0.0749
   10SOL    HW117172   4.763   4.722   6.909 -0.2320 -0.8635 -0.3458
   10SOL    HW217173   4.639   4.649   6.861 -0.3854 -1.2719  0.6393
   11SOL     OW17174   4.484   4.907   0.159  0.0742 -0.2940 -0.1210
   11SOL    HW117175   4.451   4.895   0.070 -0.0948  1.8835 -0.4100
   11SOL    HW217176   4.540   4.984   0.153  1.3968 -1.0789  1.3514
   12SOL     OW17177   1.233   4.563   0.356 -0.1606 -0.3471  0.2700
   12SOL    HW117178   1.324   4.565   0.327 -0.5086  1.1705 -0.8155
   12SOL    HW217179   1.237   4.523   0.443  1.6013  0.1785  0.4648
   13SOL     OW17180   2.386   4.846   0.156  0.0609 -0.3741 -0.2684
   13SOL    HW117181   2.449   4.918   0.157  0.4184 -0.6833  0.5665
   13SOL    HW217182   2.370   4.827   0.248 -0.1953 -1.2182 -0.4780
   14SOL     OW17183   3.725   1.957   0.206 -0.6073 -0.7867 -0.0812
   14SOL    HW117184   3.635   1.988   0.198 -0.7774 -1.0139  0.8289
   14SOL    HW217185   3.770   2.024   0.258 -0.5278 -1.1874  0.3760
   15SOL     OW17186   0.683   6.392   0.440  0.2760  0.4310 -0.0947
   15SOL    HW117187   0.671   6.408   0.346  2.2967 -1.9769 -0.8814
   15SOL    HW217188   0.777   6.387   0.451  0.0530 -2.0342  1.4788
   16SOL     OW17189   1.977   0.442   0.456  0.3102 -0.5430  0.3385
   16SOL    HW117190   2.014   0.357   0.434  0.2380 -0.7040  0.8302
   16SOL    HW217191   1.966   0.440   0.551 -2.4338 -1.1178  0.0954
   17SOL     OW17192   3.599   2.492   0.370  0.3969 -0.3463  0.0478
   17SOL    HW117193   3.622   2.585   0.375  1.5392 -0.6635  1.1930
   17SOL    HW217194   3.674   2.450   0.329  1.3078 -1.1667  2.3804
   18SOL     OW17195   4.996   0.785   1.326 -0.3856  0.3762 -0.0032
   18SOL    HW117196   4.992   0.780   1.422 -2.1902  1.8801  0.0655
   18SOL    HW217197   5.076   0.833   1.307 -0.1456  0.2943  0.7650
   19SOL     OW17198   0.258   3.660   7.324 -0.3559  0.5139 -0.2887
   19SOL    HW117199   0.220   3.597   7.262  0.1115  0.5891 -0.6562
   19SOL    HW217200   0.213   3.742   7.304 -0.7419  0.3688 -0.0205
   20SOL     OW17201   1.726   5.818   6.596 -0.2620  0.2273  0.0597
   20SOL    HW117202   1.758   5.733   6.625 -2.7630 -1.2849 -1.1884
   20SOL    HW217203   1.714   5.868   6.676 -0.2927 -1.2129  0.9948
   21SOL     OW17204   0.891   0.962   7.254  0.7132  0.1409 -0.2241
   21SOL    HW117205   0.937   0.892   7.299  1.1301  0.6311  0.1314
   21SOL    HW217206   0.798   0.947   7.273  0.7404 -0.6918 -0.7109
   22SOL     OW17207   3.894   2.107   6.835 -0.2384  0.0497 -0.0535
   22SOL    HW117208   3.887   2.013   6.816  0.0416  0.1030 -0.4411
   22SOL    HW217209   3.814   2.145   6.798 -0.4693 -0.0707  0.3239
   23SOL     OW17210   0.746   0.179   7.159  0.4637 -0.1426 -0.3631
   23SOL    HW117211   0.805   0.207   7.230 -0.7487  2.2634 -0.2288
   23SOL    HW217212   0.659   0.202   7.190 -0.2172 -0.2986 -2.0761
   24SOL     OW17213   2.321   3.941   1.094 -0.3258 -0.2174  0.0103
   24SOL    HW117214   2.367   3.904   1.169 -0.7075 -1.8535 -0.5335
   24SOL    HW217215   2.388   3.956   1.028  0.0075  1.2022  0.6183
   25SOL     OW17216   2.533   2.470   0.771 -0.5631 -0.2465 -0.4525
   25SOL    HW117217   2.543   2.488   0.864  0.2883 -0.9233 -0.4056
   25SOL    HW217218   2.622   2.465   0.737 -0.8489 -0.6068 -1.1825
   26SOL     OW17219   1.064   0.197   0.522 -0.2014 -0.4712  0.1298
   26SOL    HW117220   1.106   0.161   0.600 -0.1201 -0.3230  0.1544
   26SOL    HW217221   0.998   0.258   0.557  0.7192  0.5847  0.0641
   27SOL     OW17222   1.460   3.597   1.202  0.2314  0.0330 -0.0898
   27SOL    HW117223   1.457   3.505   1.229 -0.4941  0.4373  1.2677
   27SOL    HW217224   1.477   3.593   1.107  2.2206 -1.4358  0.2507
   28SOL     OW17225   6.057   0.093   5.594  0.3715  0.2164 -0.1728
   28SOL    HW117226   5.994   0.066   5.660 -0.6993  1.6455 -0.5602
   28SOL    HW217227   6.126   0.027   5.597 -0.7072 -0.8898  0.8841
   29SOL     OW17228   0.752   4.062   0.770 -0.2492 -0.2364  0.4057
   29SOL    HW117229   0.748   4.138   0.712  1.7686 -0.6657 -0.3801
   29SOL    HW217230   0.821   4.084   0.833 -0.6292 -0.8530  1.0492
   30SOL     OW17231   0.545   1.106   1.799 -0.1173 -0.1656 -0.2661
   30SOL    HW117232   0.515   1.016   1.816 -1.0214  0.1694 -0.0293
   30SOL    HW217233   0.638   1.105   1.823 -0.2952 -0.8528  0.4329
   31SOL     OW17234   1.889   3.839   1.262 -0.5641  0.7879 -0.3342
   31SOL    HW117235   1.800   3.875   1.260 -1.0236 -0.3282 -0.4396
   31SOL    HW217236   1.898   3.794   1.178 -0.4424 -0.3415  0.2644
   32SOL     OW17237   0.169   4.577   6.849  0.2302 -0.3183  0.6773
   32SOL    HW117238   0.089   4.565   6.901 -0.1098  3.2714  1.2515
   32SOL    HW217239   0.140   4.566   6.759 -0.5077 -0.8058  0.9614
   33SOL     OW17240   2.629   4.717   6.635  0.5540 -0.1865  0.6913
   33SOL    HW117241   2.588   4.661   6.701 -0.8517 -2.5092 -1.9416
   33SOL    HW217242   2.608   4.806   6.664  0.5433 -1.0272  3.6412
   34SOL     OW17243   3.811   5.043   0.856  0.3160 -0.0103  0.4698
   34SOL    HW117244   3.822   4.974   0.791  0.8899  0.2767  0.2557
   34SOL    HW217245   3.729   5.022   0.900  0.0478 -0.3467 -0.1806
   35SOL     OW17246   1.650   1.865   0.385 -0.7110 -0.1441  0.4076
   35SOL    HW117247   1.564   1.894   0.415 -1.0986  0.9033 -1.5263
   35SOL    HW217248   1.708   1.939   0.404 -0.9312  0.4730 -1.1467
   36SOL     OW17249   2.177   5.585   7.133  0.3097 -0.4233 -0.4470
   36SOL    HW117250   2.210   5.605   7.046  0.5413 -1.5973 -0.6437
   36SOL    HW217251   2.185   5.490   7.141  1.0622 -0.2660  1.1488
   37SOL     OW17252   4.416   4.253   0.628  0.1394  0.9227 -0.5616
   37SOL    HW117253   4.460   4.168   0.635  0.8096  1.2901 -0.2327
   37SOL    HW217254   4.479   4.315   0.664 -0.9708  1.3711  0.6597
   38SOL     OW17255   0.473   5.576   6.153 -0.2254  0.0422 -0.1207
   38SOL    HW117256   0.501   5.590   6.244  0.3131  1.5896 -0.5005
   38SOL    HW217257   0.413   5.648   6.135 -0.7095 -0.5362 -0.8496
   39SOL     OW17258   4.486   4.858   5.756 -0.7522 -0.8099  0.2862
   39SOL    HW117259   4.405   4.908   5.765 -0.6514 -0.4350 -0.7982
   39SOL    HW217260   4.456   4.768   5.740 -1.0076 -0.4356 -1.5657
   40SOL     OW17261   1.244   3.498   7.079 -0.6633 -0.5273 -0.2888
   40SOL    HW117262   1.276   3.422   7.031 -1.1859  0.0438 -1.5840
   40SOL    HW217263   1.172   3.465   7.132 -1.6635 -0.7432 -1.7323
   41SOL     OW17264   5.759   3.312   0.144 -0.0463 -0.2673  0.1218
   41SOL    HW117265   5.687   3.343   0.089 -0.9485 -0.1774  1.3002
   41SOL    HW217266   5.834   3.306   0.085 -0.5568  1.3646 -0.7570
   42SOL     OW17267   0.122   3.530   1.595  0.7501 -0.4433  0.0278
   42SOL    HW117268   0.171   3.518   1.676  0.1770 -0.0414  0.4477
   42SOL    HW217269   0.185   3.512   1.526  1.5337  0.2073  0.5526
   43SOL     OW17270   3.322   0.756   7.531  0.1130 -0.2387  0.6992
   43SOL    HW117271   3.388   0.798   7.586  0.8591 -0.5606  0.0768
   43SOL    HW217272   3.342   0.662   7.537  0.6532 -0.2336 -0.6559
   44SOL     OW17273   6.070   2.265   1.474  0.0004 -1.0002  0.3242
   44SOL    HW117274   6.082   2.170   1.475 -1.9075 -1.2843  0.5665
   44SOL    HW217275   6.047   2.288   1.564 -0.1908 -0.4033  0.1287
   45SOL     OW17276   4.222   2.810   7.679  0.0145 -0.5189 -0.0357
   45SOL    HW117277   4.242   2.766   7.761 -0.7203  1.3125  1.1944
   45SOL    HW217278   4.248   2.748   7.611  1.8832 -1.5615  1.5439
   46SOL     OW17279   2.333   0.831   6.394 -0.2923 -0.3873 -0.5213
   46SOL    HW117280   2.428   0.835   6.403 -0.3901 -1.3170  1.4931
   46SOL    HW217281   2.315   0.740   6.371 -0.7915 -0.7755  1.2869
   47SOL     OW17282   2.104   1.461   6.763  0.1407 -0.1545 -0.5774
   47SOL    HW117283   2.190   1.422   6.781  1.7333  2.8621 -1.1050
   47SOL    HW217284   2.061   1.464   6.849  1.6337  0.6518  0.1691
   48SOL     OW17285   0.725   1.412   5.986 -0.2952 -0.3642 -0.2411
   48SOL    HW117286   0.734   1.446   6.075  1.3306  0.0280 -0.5078
   48SOL    HW217287   0.631   1.403   5.972 -0.6432  1.0924  0.9471
   49SOL     OW17288   5.983   3.892   1.964  0.4130  0.7353 -0.0101
   49SOL    HW117289   5.951   3.803   1.952 -0.7624  1.1280 -0.0074
   49SOL    HW217290   6.056   3.900   1.903  0.9488 -0.4157  0.4633
   50SOL     OW17291   1.158   1.184   1.369  0.1253 -0.1833 -0.0000
   50SOL    HW117292   1.086   1.122   1.353  1.2117 -1.7807  0.9579
   50SOL    HW217293   1.142   1.216   1.458  1.1553 -1.3912  0.6454
   51SOL     OW17294   4.014   0.460   0.533 -0.0535  0.3977  0.2506
   51SOL    HW117295   4.096   0.424   0.567  0.0485  0.1851 -0.2239
   51SOL    HW217296   4.004   0.543   0.580 -0.3673 -0.2929  1.4651
   52SOL     OW17297   3.171   0.635   6.771 -0.1281  0.2740  0.0068
   52SOL    HW117298   3.167   0.726   6.801 -1.0130  1.3467 -2.9950
   52SOL    HW217299   3.237   0.636   6.702 -1.0840 -1.0780 -0.9745
   53SOL     OW17300   5.411   1.388   1.308 -1.0804 -0.0395 -0.1395
   53SOL    HW117301   5.402   1.293   1.321  3.2620 -0.4012  1.6558
   53SOL    HW217302   5.462   1.397   1.228  3.3671  0.2308  2.4120
   54SOL     OW17303   4.038   3.219   2.060  0.3097 -0.0423  0.6135
   54SOL    HW117304   3.942   3.225   2.065  0.1083  0.0998 -1.9475
   54SOL    HW217305   4.058   3.131   2.091 -0.7527 -0.3963  0.3351
   55SOL     OW17306   2.845   6.021   0.787  0.1866 -0.0161 -0.6390
   55SOL    HW117307   2.887   5.936   0.802  0.3325  0.3353  1.1155
   55SOL    HW217308   2.917   6.083   0.785  0.0015  0.1904 -0.9180
   56SOL     OW17309   2.740   2.598   0.409  0.5886 -0.0777  0.0144
   56SOL    HW117310   2.661   2.612   0.357  0.9277  0.0999 -0.4578
   56SOL    HW217311   2.757   2.682   0.451  1.6612  0.5013 -1.4824
   57SOL     OW17312   0.683   1.930   6.336 -0.4362 -0.3756 -0.0747
   57SOL    HW117313   0.680   1.883   6.420  0.5791 -1.3297 -0.5561
   57SOL    HW217314   0.758   1.893   6.290  0.0254  1.2921 -0.7432
   58SOL     OW17315   4.479   2.003   7.423 -0.4249 -0.4437 -0.6874
   58SOL    HW117316   4.430   1.982   7.343 -0.2054  0.0825 -0.9602
   58SOL    HW217317   4.477   2.098   7.428  0.9141 -0.3930 -0.9114
   59SOL     OW17318   0.297   5.126   0.466  1.3751 -0.1991 -0.1980
   59SOL    HW117319   0.262   5.204   0.508  0.3000 -1.3887  1.2127
   59SOL    HW217320   0.382   5.154   0.431 -0.0098  2.2142 -1.9051
   60SOL     OW17321   4.985   5.327   6.750 -0.2303  0.3930 -0.1109
   60SOL    HW117322   4.979   5.419   6.777 -0.8087 -0.1779  1.8986
   60SOL    HW217323   4.939   5.279   6.819 -1.4253 -1.2824 -1.9615
   61SOL     OW17324   6.091   2.859   1.251 -0.1390  0.1620  0.5254
   61SOL    HW117325   6.157   2.928   1.256 -0.1919  0.2433  0.1590
   61SOL    HW217326   6.101   2.824   1.163 -0.1502 -0.2632  0.6927
   62SOL     OW17327   1.600   6.041   6.467 -0.0367  0.6529  0.0181
   62SOL    HW117328   1.546   5.987   6.410  0.8993  0.7228 -0.9643
   62SOL    HW217329   1.606   5.991   6.548 -0.9309  0.2897 -0.1277
   63SOL     OW17330   4.439   3.920   0.068 -0.0519 -0.0263 -0.3124
   63SOL    HW117331   4.395   3.837   0.054  0.4594 -0.3591  0.0150
   63SOL    HW217332   4.371   3.979   0.100 -0.0456 -0.8311  1.2331
   64SOL     OW17333   0.961   4.723   6.985  0.2358 -0.1373  0.1832
   64SOL    HW117334   1.000   4.762   6.907 -0.9454 -0.6909 -0.7164
   64SOL    HW217335   0.945   4.797   7.043  0.9633  0.3104 -0.1717
   65SOL     OW17336   0.084   4.999   5.685  0.2663  0.2308 -0.5420
   65SOL    HW117337   0.069   5.039   5.599 -0.1347 -0.0409 -0.6037
   65SOL    HW217338  -0.004   4.992   5.724  0.5027  0.8258  0.1057
   66SOL     OW17339   6.421   5.446   1.782  0.3434  0.7360  0.3839
   66SOL    HW117340   6.380   5.508   1.842 -0.0802  0.0035  0.8626
   66SOL    HW217341   6.485   5.400   1.836 -2.1129 -2.0841  1.1786
   67SOL     OW17342   5.996   3.348   7.767  0.2091 -0.3998 -0.1386
   67SOL    HW117343   6.043   3.362   7.685 -1.2046 -2.3250 -1.3730
   67SOL    HW217344   6.043   3.276   7.809 -0.5891 -1.2240 -0.5995
   68SOL     OW17345   1.063   5.878   7.138  0.3777 -0.3774 -0.2016
   68SOL    HW117346   1.120   5.955   7.132 -0.0408 -0.1277 -1.0843
   68SOL    HW217347   1.086   5.824   7.063 -2.4653  1.0947 -2.3480
   69SOL     OW17348   4.360   4.759   6.304 -0.3148 -0.1270 -0.4380
   69SOL    HW117349   4.328   4.672   6.326  1.2853 -0.4765  0.7094
   69SOL    HW217350   4.369   4.803   6.389  0.3933  0.5950 -0.8732
   70SOL     OW17351   0.280   6.232   6.333 -0.0545 -0.6016 -0.2015
   70SOL    HW117352   0.274   6.321   6.299 -2.1891 -0.4628  0.3868
   70SOL    HW217353   0.222   6.180   6.277  0.4039 -1.4137  0.0531
   71SOL     OW17354   1.074   5.598   0.257  0.4625 -0.0927 -0.3170
   71SOL    HW117355   1.040   5.688   0.264  0.0742 -0.1953 -0.8403
   71SOL    HW217356   1.168   5.609   0.242  0.3590  0.2339 -0.7385
   72SOL     OW17357   4.539   3.641   1.133  0.2578 -0.1527 -0.1264
   72SOL    HW117358   4.485   3.663   1.057 -0.2694 -0.5608  0.1248
   72SOL    HW217359   4.623   3.614   1.096  0.1913  0.1871 -0.5343
   73SOL     OW17360   5.778   1.738   7.614  0.3600  0.3780  0.2020
   73SOL    HW117361   5.785   1.831   7.635  1.0701  0.2305  0.6482
   73SOL    HW217362   5.718   1.702   7.679 -0.2286  0.5912 -0.2128
   74SOL     OW17363   4.195   3.486   0.243  0.5008 -0.1102  0.4947
   74SOL    HW117364   4.253   3.531   0.304  0.7558  0.7485 -0.3648
   74SOL    HW217365   4.109   3.523   0.260  0.2176 -1.2012  1.5924
   75SOL     OW17366   0.743   5.372   0.120 -0.2802  0.3730  0.5631
   75SOL    HW117367   0.831   5.408   0.110 -0.7722  2.0384  1.7894
   75SOL    HW217368   0.756   5.285   0.158  0.8875 -0.2115 -1.0835
   76SOL     OW17369   1.363   2.789   0.885 -0.0565  0.1129 -0.5049
   76SOL    HW117370   1.365   2.794   0.790  0.7626 -1.3483 -0.5905
   76SOL    HW217371   1.455   2.785   0.911 -0.2654  0.5697  0.3612
   77SOL     OW17372   0.844   3.147   0.789  0.4414 -0.5053 -0.0317
   77SOL    HW117373   0.764   3.141   0.736  1.6333 -1.2266 -1.8571
   77SOL    HW217374   0.850   3.063   0.833  0.6388 -0.8052 -0.6133
   78SOL     OW17375   5.737   3.717   0.320  0.0226 -0.8928  0.3160
   78SOL    HW117376   5.644   3.735   0.309  0.2450  0.0580 -0.1995
   78SOL    HW217377   5.771   3.713   0.231  0.7063  0.1758  0.5100
   79SOL     OW17378   3.680   3.291   2.323  0.0240 -0.0225  0.1737
   79SOL    HW117379   3.599   3.248   2.350 -0.7602  1.1075 -0.2997
   79SOL    HW217380   3.746   3.262   2.386 -0.2396 -2.5903 -0.6201
   80SOL     OW17381   5.760   3.577   0.934 -0.1414 -0.0584  0.2432
   80SOL    HW117382   5.768   3.656   0.881 -0.4897 -0.1955 -0.0173
   80SOL    HW217383   5.708   3.517   0.880 -3.6568  1.0329  2.1056
   81SOL     OW17384   1.316   2.867   7.507 -0.0859 -0.4136 -0.1943
   81SOL    HW117385   1.382   2.936   7.503  1.0508 -1.4646  0.0129
   81SOL    HW217386   1.256   2.894   7.577  0.4814  0.2375  0.0445
   82SOL     OW17387   5.135   3.863   0.037  0.2555  0.4032 -0.2768
   82SOL    HW117388   5.055   3.847   0.088  0.7916 -1.4430  0.0614
   82SOL    HW217389   5.104   3.882  -0.051 -0.6152 -3.5101 -1.0163
   83SOL     OW17390   6.402   1.542   1.694 -0.1090  0.3530 -0.7045
   83SOL    HW117391   6.409   1.466   1.636 -1.2431  1.0289 -1.7962
   83SOL    HW217392   6.490   1.556   1.727 -0.0204 -1.9779  0.2650
   84SOL     OW17393   4.962   4.595   6.308  0.2678 -0.7241 -0.4502
   84SOL    HW117394   5.036   4.563   6.257  0.0419 -1.7052 -0.1700
   84SOL    HW217395   4.898   4.524   6.306  0.5811 -1.1306  1.8675
   85SOL     OW17396   3.751   4.512   2.289 -0.3148  0.9028 -0.3872
   85SOL    HW117397   3.843   4.538   2.278  0.0028  0.9719  1.8678
   85SOL    HW217398   3.716   4.574   2.353 -1.4425 -0.1112  0.0263
   86SOL     OW17399   5.578   1.071   0.883 -0.3857  0.2785  0.2915
   86SOL    HW117400   5.641   1.139   0.862 -1.2121  1.1488  0.5756
   86SOL    HW217401   5.515   1.072   0.811 -0.3773 -0.2276  0.2675
   87SOL     OW17402   4.907   1.169   5.569  0.1445 -0.2715  0.2008
   87SOL    HW117403   4.866   1.084   5.555 -0.2067  0.1324 -1.4497
   87SOL    HW217404   4.840   1.222   5.612 -1.2854  0.4583 -2.6748
   88SOL     OW17405   1.385   2.568   1.797  0.2052 -0.3046  0.4737
   88SOL    HW117406   1.424   2.487   1.827  1.9226  0.8135  1.4327
   88SOL    HW217407   1.372   2.556   1.703  1.4082 -1.2992  0.4177
   89SOL     OW17408   2.737   5.374   0.362  0.3007 -0.4583  0.0037
   89SOL    HW117409   2.733   5.441   0.430 -1.2476 -1.4968  1.0120
   89SOL    HW217410   2.823   5.333   0.373  0.6512  0.3541  0.3630
   90SOL     OW17411   3.194   3.948   0.050 -0.1838 -0.2831  0.0191
   90SOL    HW117412   3.188   4.040   0.025 -1.0120 -0.3319 -0.0036
   90SOL    HW217413   3.261   3.911  -0.007 -0.8772 -0.0177 -0.9998
   91SOL     OW17414   3.902   3.113   0.374  0.3377  0.0226  0.0207
   91SOL    HW117415   3.859   3.048   0.431  1.0956 -0.0036  0.5711
   91SOL    HW217416   3.864   3.197   0.400  0.8997  0.0466  0.7839
   92SOL     OW17417   0.641   2.967   6.803 -0.3994 -0.1299 -0.2635
   92SOL    HW117418   0.616   3.054   6.774  0.1429  1.3991  3.3777
   92SOL    HW217419   0.563   2.930   6.843 -0.2555 -0.7443 -0.5307
   93SOL     OW17420   2.978   2.843   6.517  0.5807  0.5377 -0.3778
   93SOL    HW117421   3.063   2.836   6.560  0.1648  0.1255  0.4041
   93SOL    HW217422   2.998   2.869   6.428  1.6813 -1.3800 -0.7542
   94SOL     OW17423   1.621   6.365   6.369  0.1201 -0.4209  0.3798
   94SOL    HW117424   1.591   6.278   6.343 -1.3206 -0.0280  0.6661
   94SOL    HW217425   1.570   6.387   6.447 -1.3765  1.6513 -1.0455
   95SOL     OW17426   4.203   5.530   5.697  0.2401  0.5210  0.2473
   95SOL    HW117427   4.281   5.475   5.708 -0.5966 -0.8538 -0.4161
   95SOL    HW217428   4.228   5.615   5.733  0.6267 -1.0171  4.0825
   96SOL     OW17429   2.823   4.785   5.982  0.1327 -0.0559  0.0048
   96SOL    HW117430   2.883   4.715   5.954 -1.3505 -1.3779  0.0218
   96SOL    HW217431   2.839   4.856   5.920  1.3192 -0.5804 -0.3253
   97SOL     OW17432   0.357   0.211   0.054  0.6961 -0.2936  0.0461
   97SOL    HW117433   0.320   0.299   0.053 -2.3313 -1.4459 -0.6915
   97SOL    HW217434   0.353   0.183  -0.037  1.4012 -1.2836  0.3045
   98SOL     OW17435   5.350   0.564   0.933  0.3973 -0.2182 -0.3736
   98SOL    HW117436   5.412   0.501   0.897  0.4728 -0.0554 -0.5303
   98SOL    HW217437   5.285   0.511   0.979  0.7864 -0.3737 -0.0074
   99SOL     OW17438   1.194   4.101   6.158 -0.1557 -0.0774 -0.2325
   99SOL    HW117439   1.179   4.008   6.174  0.2982  0.0109  0.7825
   99SOL    HW217440   1.215   4.106   6.065 -1.9523 -0.7477 -0.7160
  100SOL     OW17441   4.876   1.766   0.415 -0.2521 -0.0361 -0.4706
  100SOL    HW117442   4.902   1.782   0.325 -2.1454 -0.2960 -1.0951
  100SOL    HW217443   4.872   1.853   0.455  2.0611 -0.0151 -0.1579
  101SOL     OW17444   2.959   0.210   6.735 -0.0110  0.5759  0.5895
  101SOL    HW117445   3.003   0.262   6.668  0.6159 -0.8718 -0.1678
  101SOL    HW217446   2.917   0.139   6.687 -0.2577 -0.0199  1.6453
  102SOL     OW17447   1.979   0.709   1.170 -0.4602 -0.2428  0.4648
  102SOL    HW117448   1.935   0.700   1.085  0.0693  0.4355  0.1089
  102SOL    HW217449   1.973   0.622   1.209  1.5521 -1.3164 -1.3966
  103SOL     OW17450   4.797   0.307   1.257 -0.0220 -0.2121 -0.3620
  103SOL    HW117451   4.751   0.333   1.337 -0.2764 -0.9821 -0.2561
  103SOL    HW217452   4.888   0.329   1.275 -0.0767 -0.3664  0.1360
  104SOL     OW17453   0.652   2.592   2.100  0.0909 -0.4828 -0.4370
  104SOL    HW117454   0.594   2.518   2.121  1.7148 -2.9911 -3.7702
  104SOL    HW217455   0.699   2.609   2.181 -0.5687 -2.9524  0.5583
  105SOL     OW17456   1.168   1.990   1.295  0.6438 -0.2918  0.1449
  105SOL    HW117457   1.163   1.960   1.386 -2.3949 -1.3024 -0.2460
  105SOL    HW217458   1.079   1.983   1.263  1.3741  1.4053 -2.5386
  106SOL     OW17459   3.831   1.886   7.441 -0.2513 -0.1149  1.5213
  106SOL    HW117460   3.761   1.895   7.376  0.0398  0.6629  1.3073
  106SOL    HW217461   3.786   1.853   7.519 -0.6916 -0.5427  1.0968
  107SOL     OW17462   4.688   1.589   6.211  0.8506 -0.3092  0.1278
  107SOL    HW117463   4.625   1.518   6.224  1.3092 -0.5685  0.9899
  107SOL    HW217464   4.637   1.659   6.170  0.1105 -0.6701  0.4129
  108SOL     OW17465   5.498   5.204   6.959  0.2128 -0.2104  0.1936
  108SOL    HW117466   5.424   5.234   6.907  1.2553 -0.3644 -1.4400
  108SOL    HW217467   5.518   5.117   6.925  0.9252 -0.3230  0.8579
  109SOL     OW17468   6.453   1.111   6.360 -0.1346  0.4223 -0.4716
  109SOL    HW117469   6.397   1.045   6.318  0.5519  0.9764 -2.4032
  109SOL    HW217470   6.485   1.164   6.287  1.7361  1.0331  0.7200
  110SOL     OW17471   3.471   5.279   0.192  0.0113  0.1980 -0.0064
  110SOL    HW117472   3.436   5.283   0.103 -1.6846  1.0218  0.6541
  110SOL    HW217473   3.408   5.329   0.245  0.5806 -0.8784  1.7751
  111SOL     OW17474   3.084   4.243   2.513 -0.4178  0.0387  0.9904
  111SOL    HW117475   3.174   4.275   2.509 -0.4750  0.2612  1.3650
  111SOL    HW217476   3.053   4.273   2.599 -1.5145  1.7938  0.0458
  112SOL     OW17477   2.276   4.325   1.848 -0.0178  0.2875  0.7521
  112SOL    HW117478   2.336   4.256   1.876 -0.9028 -2.0239 -2.4641
  112SOL    HW217479   2.224   4.344   1.926  2.8684  0.3388  2.8591
  113SOL     OW17480   1.060   6.196   6.193  0.6834 -0.4350 -0.4171
  113SOL    HW117481   1.073   6.144   6.114  0.9190  1.3712 -1.6334
  113SOL    HW217482   0.966   6.188   6.211  0.8223 -1.7978 -0.1488
  114SOL     OW17483   6.013   1.379   0.773  0.1839 -0.0786 -0.3472
  114SOL    HW117484   6.063   1.396   0.693  1.9552 -0.9131  0.5384
  114SOL    HW217485   5.935   1.434   0.764  1.5688  1.8335 -1.4764
  115SOL     OW17486   2.196   2.140   6.493  0.0638  0.0953  0.1985
  115SOL    HW117487   2.147   2.086   6.554  0.6238 -0.7194 -0.0528
  115SOL    HW217488   2.146   2.221   6.487  1.2734  1.2932  3.7317
  116SOL     OW17489   1.606   1.080   7.055 -0.1180 -0.0084 -0.1049
  116SOL    HW117490   1.665   1.097   6.981 -2.3027  2.6566 -1.3994
  116SOL    HW217491   1.625   1.150   7.117 -1.6018  0.6553 -0.3746
  117SOL     OW17492   3.266   2.723   0.860 -0.3886 -0.2960  0.3498
  117SOL    HW117493   3.347   2.722   0.808 -2.0952  0.4349 -2.5053
  117SOL    HW217494   3.268   2.807   0.906 -0.9237  1.2492 -2.2542
  118SOL     OW17495   1.569   1.484   6.311 -0.1768 -0.5564  0.3729
  118SOL    HW117496   1.612   1.569   6.320 -0.7072 -0.2156 -0.2257
  118SOL    HW217497   1.484   1.495   6.352 -1.3811  0.0832 -2.0947
  119SOL     OW17498   6.068   3.386   6.667  0.0673  0.3595  0.0480
  119SOL    HW117499   6.039   3.317   6.726 -2.2919  1.9125  0.8632
  119SOL    HW217500   6.102   3.454   6.725  0.4738  0.7104 -0.5929
  120SOL     OW17501   0.917   5.722   1.474  0.3248 -0.2440  0.0360
  120SOL    HW117502   0.969   5.641   1.474 -0.8073 -1.0170  1.0914
  120SOL    HW217503   0.833   5.696   1.514 -1.5966  0.5107 -3.1530
  121SOL     OW17504   2.626   3.943   6.826  0.0875  0.4963 -0.0430
  121SOL    HW117505   2.594   3.957   6.737 -1.0720  0.2644  0.3170
  121SOL    HW217506   2.667   3.857   6.824  0.6843  0.7859 -0.5106
  122SOL     OW17507   1.272   5.665   7.295  0.1402  0.0673 -0.8463
  122SOL    HW117508   1.184   5.658   7.330  0.3142 -0.5761 -0.5190
  122SOL    HW217509   1.268   5.738   7.233 -0.7290 -0.2273 -1.1523
  123SOL     OW17510   2.614   1.165   2.618 -0.7356 -0.4769 -0.1716
  123SOL    HW117511   2.629   1.166   2.713  0.5651 -0.8787 -0.3525
  123SOL    HW217512   2.524   1.196   2.608 -1.1409 -1.0885  1.2385
  124SOL     OW17513   6.224   3.038   0.699 -0.4860  0.2194  0.5681
  124SOL    HW117514   6.132   3.015   0.683 -0.1956 -1.0024  0.5547
  124SOL    HW217515   6.240   3.114   0.643 -1.0781 -0.4796 -0.5896
  125SOL     OW17516   4.365   2.695   1.796 -0.2131  0.6623 -0.3360
  125SOL    HW117517   4.353   2.740   1.879  0.7021  0.4991 -0.1062
  125SOL    HW217518   4.331   2.607   1.812  0.4088  0.4817  0.0243
  126SOL     OW17519   1.606   1.065   5.650  0.1266 -0.4385 -0.2788
  126SOL    HW117520   1.599   1.043   5.557 -0.9080  1.1486 -0.6213
  126SOL    HW217521   1.663   1.142   5.652 -0.7812  0.2443  0.2517
  127SOL     OW17522   5.291   5.831   1.235 -0.1063  0.0927  0.2512
  127SOL    HW117523   5.334   5.809   1.318  0.4160 -0.3012 -0.1208
  127SOL    HW217524   5.348   5.896   1.195  0.6915 -1.1557 -0.7068
  128SOL     OW17525   2.704   4.250   1.943 -0.2623 -0.6231 -0.3049
  128SOL    HW117526   2.779   4.191   1.930  0.4926  0.5868 -1.7647
  128SOL    HW217527   2.690   4.249   2.037  1.6577 -0.8335  0.0299
  129SOL     OW17528   2.637   1.239   6.079 -0.5248 -0.0579  0.0401
  129SOL    HW117529   2.693   1.298   6.028 -0.8190  1.3416  1.2619
  129SOL    HW217530   2.657   1.152   6.045  2.4828  0.3663  0.4643
  130SOL     OW17531   5.397   2.451   2.058 -0.5355  0.3086  0.1616
  130SOL    HW117532   5.480   2.428   2.099 -1.5320 -1.7245  1.1969
  130SOL    HW217533   5.364   2.525   2.109  0.6025  1.1435 -0.2728
  131SOL     OW17534   3.343   2.458   6.382  0.1311  0.1197  0.3475
  131SOL    HW117535   3.342   2.398   6.456  0.4533  0.5316  0.6877
  131SOL    HW217536   3.272   2.520   6.399  0.9891  0.9649  0.9453
  132SOL     OW17537   3.181   4.955   0.324 -0.1329 -0.0680 -0.8893
  132SOL    HW117538   3.202   4.978   0.415  0.1878 -0.4593 -0.8603
  132SOL    HW217539   3.201   5.034   0.274 -0.4112  0.1834 -0.6061
  133SOL     OW17540   3.089   0.822   1.260 -0.0555  0.2836  0.4979
  133SOL    HW117541   3.034   0.894   1.228 -1.3174  0.3371  2.5916
  133SOL    HW217542   3.141   0.860   1.330  0.2757 -0.5258  0.7076
  134SOL     OW17543   1.466   2.504   1.034 -0.2461 -0.0312 -0.6040
  134SOL    HW117544   1.514   2.583   1.007 -0.8176  0.4273 -0.2985
  134SOL    HW217545   1.528   2.455   1.088 -0.3688  0.9579  0.4718
  135SOL     OW17546   5.783   0.466   0.742  0.4899  0.0761 -0.0758
  135SOL    HW117547   5.764   0.560   0.734 -0.0874  0.2665  2.5705
  135SOL    HW217548   5.868   0.456   0.699  0.6354  1.8506 -0.3022
  136SOL     OW17549   2.748   4.972   1.456  0.2095 -0.2969 -0.3564
  136SOL    HW117550   2.694   4.905   1.412 -0.8871 -0.4738  1.1829
  136SOL    HW217551   2.699   5.053   1.446  0.9655  0.0748 -1.1982
  137SOL     OW17552   5.000   0.140   7.255 -0.3107 -0.1513 -0.0574
  137SOL    HW117553   4.946   0.194   7.197 -1.0061 -0.9268 -0.1411
  137SOL    HW217554   5.011   0.057   7.208 -1.0332 -0.8575  0.9946
  138SOL     OW17555   3.218   5.697   7.190 -0.3928  0.3665 -0.1443
  138SOL    HW117556   3.242   5.623   7.134 -0.6280  1.4223 -1.7085
  138SOL    HW217557   3.176   5.657   7.266 -1.7987 -1.0575 -1.5895
  139SOL     OW17558   4.101   5.713   6.589 -0.2771 -0.1521 -0.3785
  139SOL    HW117559   4.152   5.647   6.540  0.0355  0.8859 -1.4997
  139SOL    HW217560   4.111   5.793   6.538 -0.0960  0.9508  1.3180
  140SOL     OW17561   6.264   6.303   0.515 -0.0384 -0.4465  0.5777
  140SOL    HW117562   6.333   6.359   0.552 -0.3695  1.6703 -1.7555
  140SOL    HW217563   6.200   6.295   0.585  0.0346  2.1604  1.0557
  141SOL     OW17564   6.375   4.422   6.928 -0.3127  0.6541 -0.7085
  141SOL    HW117565   6.391   4.393   6.838 -0.4922  0.1371 -0.5770
  141SOL    HW217566   6.284   4.451   6.928 -0.0493  1.5095 -0.9115
  142SOL     OW17567   3.015   5.022   1.518 -0.4149 -0.2518 -0.0157
  142SOL    HW117568   2.929   4.996   1.485 -0.3151 -2.1809  1.1236
  142SOL    HW217569   3.071   4.946   1.504  1.0641  0.8887 -0.5139
  143SOL     OW17570   0.137   1.439   1.415  0.7634  0.0187  0.5937
  143SOL    HW117571   0.211   1.488   1.452  1.0512 -1.1149  1.5655
  143SOL    HW217572   0.161   1.425   1.324  1.2759  0.5374  0.6405
  144SOL     OW17573   4.978   5.594   6.881 -0.4480 -0.6322 -0.0642
  144SOL    HW117574   4.995   5.515   6.933 -0.3689  0.4237  1.6142
  144SOL    HW217575   4.921   5.647   6.937 -0.0722  0.7262 -0.9233
  145SOL     OW17576   3.360   5.299   4.988  0.3201  0.1852  0.1982
  145SOL    HW117577   3.264   5.306   4.990  0.1953 -1.2686  1.9601
  145SOL    HW217578   3.381   5.275   4.898 -1.1913 -1.7061  0.2893
  146SOL     OW17579   4.325   5.826   7.756 -0.0037 -0.2723 -0.3374
  146SOL    HW117580   4.390   5.772   7.711 -1.0385 -1.0844 -0.8829
  146SOL    HW217581   4.298   5.891   7.692 -1.3005 -1.2785 -0.8281
  147SOL     OW17582   1.414   2.666   6.678 -0.3636 -0.3445  0.5076
  147SOL    HW117583   1.444   2.658   6.768 -0.1481 -0.0307  0.4683
  147SOL    HW217584   1.475   2.728   6.638 -1.1148  0.3816  0.4486
  148SOL     OW17585   1.121   0.072   1.365  0.0131  0.3488  0.0237
  148SOL    HW117586   1.193   0.032   1.316  0.6687 -0.0976  1.3204
  148SOL    HW217587   1.163   0.139   1.418 -0.7216  0.9759 -0.1827
  149SOL     OW17588   2.539   5.484   6.097  0.2284  0.4011 -0.3158
  149SOL    HW117589   2.538   5.426   6.020 -0.6590  1.2697 -0.9672
  149SOL    HW217590   2.493   5.434   6.165  0.7616 -0.2476 -0.4070
  150SOL     OW17591   6.035   0.228   6.164 -0.5171 -0.3036 -0.2886
  150SOL    HW117592   6.033   0.161   6.232  0.3932  0.7171  0.7760
  150SOL    HW217593   6.006   0.308   6.209  1.6645  0.7484 -0.6478
  151SOL     OW17594   1.608   1.663   6.925  0.2169 -0.3522 -0.0906
  151SOL    HW117595   1.618   1.663   7.020 -1.0722 -1.6024  0.0741
  151SOL    HW217596   1.680   1.608   6.893  0.7027  0.1393  0.1345
  152SOL     OW17597   5.951   6.249   1.556 -0.0643  0.3000  0.3588
  152SOL    HW117598   5.881   6.247   1.490  0.3924 -0.6770 -0.1382
  152SOL    HW217599   6.025   6.208   1.511  2.0921  4.5543 -0.4855
  153SOL     OW17600   6.359   5.782   6.777  0.0167  0.1944 -0.1392
  153SOL    HW117601   6.321   5.808   6.862  0.2407  0.1623 -0.0297
  153SOL    HW217602   6.396   5.863   6.742 -0.4202  0.2932 -0.3895
  154SOL     OW17603   2.432   1.954   7.005  0.3516  0.1901 -0.3090
  154SOL    HW117604   2.429   2.049   7.018 -1.9237 -0.0821  2.2038
  154SOL    HW217605   2.525   1.931   7.013  0.7155  1.9991  1.3997
  155SOL     OW17606   5.211   0.555   0.412  0.3338 -0.2071 -1.1834
  155SOL    HW117607   5.123   0.589   0.399 -0.1621 -0.9379  0.0503
  155SOL    HW217608   5.221   0.489   0.343 -1.3901 -2.4689  0.5663
  156SOL     OW17609   5.784   3.844   6.982 -0.1710  0.3068 -0.0278
  156SOL    HW117610   5.797   3.862   6.889 -2.4086 -1.5913 -0.7983
  156SOL    HW217611   5.770   3.930   7.021  0.3334  1.1076 -1.5078
  157SOL     OW17612   3.332   1.344   1.751 -1.0903 -0.1985 -0.4723
  157SOL    HW117613   3.370   1.274   1.804 -1.5515 -0.0138  0.1113
  157SOL    HW217614   3.389   1.419   1.765 -0.0714 -0.6774 -1.8035
  158SOL     OW17615   1.131   4.205   7.146 -0.5687  0.2410  0.3219
  158SOL    HW117616   1.065   4.162   7.091  0.0394  1.1654 -1.1932
  158SOL    HW217617   1.175   4.133   7.191 -2.8578 -0.3841  1.7323
  159SOL     OW17618   6.090   4.498   6.985 -0.3456  0.1064  0.3611
  159SOL    HW117619   6.078   4.590   6.961 -1.0790 -0.0826 -0.0360
  159SOL    HW217620   6.063   4.449   6.908  0.9843 -0.4386  0.2189
  160SOL     OW17621   0.524   2.759   5.925  0.2885  0.1813 -0.4490
  160SOL    HW117622   0.589   2.809   5.877  0.9557 -0.1881  0.0556
  160SOL    HW217623   0.510   2.809   6.006  0.1001  0.1516 -0.4615
  161SOL     OW17624   0.685   4.476   1.972  0.7209 -0.8487  0.5471
  161SOL    HW117625   0.729   4.394   1.995  0.1609 -0.5609  2.9746
  161SOL    HW217626   0.602   4.449   1.933  0.2588 -1.4847  1.9202
  162SOL     OW17627   4.805   4.374   1.400  0.4745 -0.2073  0.0526
  162SOL    HW117628   4.716   4.348   1.378  0.0465  0.3098  1.1126
  162SOL    HW217629   4.807   4.375   1.496  0.8241  2.3698  0.0839
  163SOL     OW17630   1.023   1.432   5.383  0.1573  0.3393  0.7248
  163SOL    HW117631   0.951   1.379   5.348 -0.9627 -0.4842  3.9429
  163SOL    HW217632   1.097   1.412   5.325 -0.8824 -2.7869  0.2454
  164SOL     OW17633   4.066   5.324   7.756  0.5954  0.7006 -0.1454
  164SOL    HW117634   4.029   5.409   7.731  0.4825  0.8807  0.5974
  164SOL    HW217635   4.102   5.339   7.844  1.1016  0.1320 -0.2520
  165SOL     OW17636   5.849   4.729   0.952  0.2530 -0.2946 -0.2883
  165SOL    HW117637   5.898   4.690   0.880  1.5949  0.7650  0.0251
  165SOL    HW217638   5.906   4.718   1.028 -1.2084 -1.5558  0.6875
  166SOL     OW17639   5.586   6.067   6.915  0.3528  0.0724 -0.4505
  166SOL    HW117640   5.657   6.061   6.980  0.9054 -0.9840 -1.1260
  166SOL    HW217641   5.566   5.976   6.893 -2.3965  0.2130  0.9383
  167SOL     OW17642   4.220   1.046   0.043 -0.4212 -0.5975 -0.5694
  167SOL    HW117643   4.173   1.116   0.088  0.5517 -0.7167  0.6674
  167SOL    HW217644   4.177   0.965   0.073  0.6707 -0.7184  0.7165
  168SOL     OW17645   3.453   4.517   1.033  0.2670 -0.4963 -0.6560
  168SOL    HW117646   3.427   4.469   0.954  0.3342 -0.7891 -0.4996
  168SOL    HW217647   3.466   4.607   1.003 -1.0298 -0.3087 -0.7232
  169SOL     OW17648   3.581   4.979   0.173 -0.1275  1.0019 -0.4062
  169SOL    HW117649   3.558   5.067   0.201 -1.7797  0.0815  1.4075
  169SOL    HW217650   3.662   4.959   0.221 -0.5893  1.0079  0.3968
  170SOL     OW17651   3.869   6.337   6.707  0.8349  0.2039  0.1667
  170SOL    HW117652   3.856   6.379   6.792  1.8529  1.4531 -0.2465
  170SOL    HW217653   3.791   6.360   6.656  1.2033  1.3127  0.0765
  171SOL     OW17654   2.322   1.104   5.705  0.0257 -0.0849 -0.9562
  171SOL    HW117655   2.243   1.136   5.662  0.7855  1.2670 -1.4175
  171SOL    HW217656   2.373   1.183   5.722 -0.1230 -0.5538  2.2669
  172SOL     OW17657   5.736   4.464   1.450 -0.4452 -0.1403 -0.0715
  172SOL    HW117658   5.816   4.488   1.496  0.0292  1.0647 -1.4509
  172SOL    HW217659   5.764   4.402   1.382 -0.7604 -0.1006 -0.2414
  173SOL     OW17660   2.790   1.785   7.361 -0.0131  0.4607 -0.0221
  173SOL    HW117661   2.807   1.843   7.286 -1.8854  1.5310  0.3044
  173SOL    HW217662   2.838   1.705   7.341  3.8870  2.5345  0.1644
  174SOL     OW17663   4.322   2.139   0.701  0.1587  0.0731 -0.0267
  174SOL    HW117664   4.311   2.198   0.626 -3.4484 -0.8216 -0.4024
  174SOL    HW217665   4.295   2.053   0.668 -1.4223 -0.3680  2.1656
  175SOL     OW17666   3.873   4.998   1.286  0.1016 -0.1947  0.4114
  175SOL    HW117667   3.953   4.985   1.235  0.2640  0.2989  0.5294
  175SOL    HW217668   3.888   4.951   1.368 -0.1881 -1.0488 -0.0167
  176SOL     OW17669   3.677   4.925   7.271  0.4007  0.1177 -0.4043
  176SOL    HW117670   3.589   4.899   7.245  0.9338 -0.1747 -1.9829
  176SOL    HW217671   3.663   4.992   7.338 -1.0254  0.6566 -1.2069
  177SOL     OW17672   2.086   2.320   1.316 -0.1836 -0.0381  0.0408
  177SOL    HW117673   2.163   2.268   1.293  3.2223  3.5966  1.9369
  177SOL    HW217674   2.092   2.399   1.262 -2.2717  0.6281  0.6613
  178SOL     OW17675   5.070   1.104   6.923 -0.4884  0.0372 -0.1986
  178SOL    HW117676   5.041   1.034   6.981  0.8206  1.9205  2.9548
  178SOL    HW217677   5.136   1.064   6.867 -1.0748 -1.6208  0.2400
  179SOL     OW17678   2.063   2.161   7.654 -0.3105 -0.2007  0.0251
  179SOL    HW117679   2.001   2.103   7.610 -1.0808  2.1621 -2.2901
  179SOL    HW217680   2.008   2.229   7.694  0.6108 -0.4586  1.8474
  180SOL     OW17681   4.505   3.414   7.420  0.3190 -0.2792  0.1007
  180SOL    HW117682   4.487   3.357   7.345  0.2177  0.5617 -0.5321
  180SOL    HW217683   4.449   3.381   7.490 -0.6140 -0.2310 -0.6114
  181SOL     OW17684   4.354   4.841   1.096  0.9271 -0.0485 -0.0651
  181SOL    HW117685   4.378   4.805   1.011  0.3300  0.8717 -0.6405
  181SOL    HW217686   4.333   4.765   1.150  2.4386 -0.7226 -0.3614
  182SOL     OW17687   1.549   4.751   1.441  0.5299 -0.2997  0.4385
  182SOL    HW117688   1.502   4.833   1.452 -0.3563 -0.7479  0.1564
  182SOL    HW217689   1.613   4.750   1.512 -0.7825 -0.2550  1.6688
  183SOL     OW17690   5.782   4.218   6.619 -0.4662  0.3583  0.1020
  183SOL    HW117691   5.727   4.275   6.567 -0.2686 -0.9551 -1.6368
  183SOL    HW217692   5.731   4.201   6.699 -1.3582  1.3472 -0.2484
  184SOL     OW17693   2.263   6.174   0.453 -0.3288 -0.4788 -0.1196
  184SOL    HW117694   2.289   6.182   0.545 -0.3733  0.2112 -0.1626
  184SOL    HW217695   2.169   6.194   0.453 -0.0762  0.7821 -0.4825
  185SOL     OW17696   2.724   2.191   0.915  0.0118  0.1445  0.1411
  185SOL    HW117697   2.734   2.116   0.857  0.8443 -0.1159  0.6159
  185SOL    HW217698   2.707   2.153   1.002  1.6207  0.4438  0.6272
  186SOL     OW17699   3.974   1.178   1.237  0.4439  0.4988 -0.3599
  186SOL    HW117700   3.998   1.246   1.301  1.4716  0.5223 -0.7442
  186SOL    HW217701   4.053   1.125   1.228  0.4746  0.7701 -1.9590
  187SOL     OW17702   5.209   4.453   1.402 -0.2542 -0.3930 -0.1613
  187SOL    HW117703   5.287   4.437   1.455 -1.0329  0.2459  1.2262
  187SOL    HW217704   5.137   4.455   1.465 -1.5846 -2.0643 -1.5169
  188SOL     OW17705   5.960   0.017   6.321 -0.2549  0.0108  0.0517
  188SOL    HW117706   5.935  -0.012   6.233  0.7116  0.8218 -0.5156
  188SOL    HW217707   6.031  -0.042   6.347  0.7577  0.9402 -0.5233
  189SOL     OW17708   3.601   1.883   7.298 -0.5475 -0.2740  0.3574
  189SOL    HW117709   3.523   1.923   7.334 -1.3565 -2.5430  1.3297
  189SOL    HW217710   3.608   1.917   7.209 -0.6673  2.5495  1.3360
  190SOL     OW17711   2.425   0.581   6.601  0.3781  0.0284  0.2140
  190SOL    HW117712   2.432   0.675   6.617  1.4655 -0.0202  0.1084
  190SOL    HW217713   2.516   0.551   6.597  0.0606 -0.8480 -0.8240
  191SOL     OW17714   0.195   4.606   6.406  0.4000 -0.1165  0.3703
  191SOL    HW117715   0.104   4.617   6.430  0.3602 -0.9535  0.6076
  191SOL    HW217716   0.241   4.592   6.489  0.3974 -2.0372  0.0820
  192SOL     OW17717   1.748   0.693   7.617  0.0274 -0.1147 -0.3961
  192SOL    HW117718   1.685   0.627   7.644 -0.2450  0.8756  1.5918
  192SOL    HW217719   1.811   0.646   7.562 -2.0600 -1.2580 -1.9113
  193SOL     OW17720   3.213   3.951   6.553 -0.4762 -0.2229  0.4335
  193SOL    HW117721   3.143   3.966   6.490  0.0688 -0.4880 -0.2425
  193SOL    HW217722   3.293   3.948   6.501  0.1118  0.6125  1.2603
  194SOL     OW17723   0.936   3.092   0.044  0.0283 -0.0621 -0.1347
  194SOL    HW117724   0.971   3.079   0.133  0.8861 -1.2657 -0.6149
  194SOL    HW217725   0.886   3.012   0.026  2.3436 -1.2658 -1.8087
  195SOL     OW17726   3.612   5.007   0.526 -0.6326 -0.6581  0.1361
  195SOL    HW117727   3.635   5.080   0.468  0.7004 -0.2202  1.1359
  195SOL    HW217728   3.691   4.952   0.527  0.0722  0.2445  2.7830
  196SOL     OW17729   2.799   0.927   1.757  0.1582  0.1261  0.2174
  196SOL    HW117730   2.781   1.019   1.739  0.9959  0.1275 -0.6321
  196SOL    HW217731   2.827   0.926   1.849 -0.2721  0.6521  0.3597
  197SOL     OW17732   2.281   4.849   0.703  0.8433  0.6599  0.1575
  197SOL    HW117733   2.255   4.844   0.610  1.3462  1.0329 -0.0068
  197SOL    HW217734   2.271   4.759   0.735 -5.3475  1.3614  1.4282
  198SOL     OW17735   2.994   2.469   0.331 -0.2601  0.1512  0.2743
  198SOL    HW117736   3.009   2.518   0.250 -0.2402 -0.5370 -0.1458
  198SOL    HW217737   2.922   2.514   0.374 -0.8143  0.0430 -0.5246
  199SOL     OW17738   2.398   5.969   1.137  0.8291 -0.0775  0.8242
  199SOL    HW117739   2.465   5.935   1.078 -0.5175 -1.9351  0.2668
  199SOL    HW217740   2.434   5.955   1.225  1.6960  0.1639  0.5164
  200SOL     OW17741   5.016   5.809   1.087  0.2481  0.6042  0.3572
  200SOL    HW117742   5.092   5.845   1.135 -0.5519  1.1386  1.2707
  200SOL    HW217743   4.941   5.851   1.128 -0.5652 -0.1168 -0.3695
  201SOL     OW17744   1.080   0.347   5.405  0.0676  0.9505 -0.4032
  201SOL    HW117745   1.125   0.427   5.377 -0.3440  1.6984  0.9593
  201SOL    HW217746   1.050   0.307   5.323  1.9356  1.1622 -1.2398
  202SOL     OW17747   6.155   0.153   1.365 -0.0411  0.2260 -0.3913
  202SOL    HW117748   6.166   0.069   1.319  1.4198 -0.9055  1.8284
  202SOL    HW217749   6.081   0.139   1.424  0.8089  0.1356  0.6767
  203SOL     OW17750   0.628   6.005   0.337  0.3425  0.0194  0.1379
  203SOL    HW117751   0.533   6.001   0.350  0.0524  1.5766 -1.2214
  203SOL    HW217752   0.639   6.052   0.254  2.2318 -2.2131 -1.0026
  204SOL     OW17753   0.324   4.667   0.706  0.2121  0.1837 -0.1420
  204SOL    HW117754   0.263   4.596   0.686 -1.5702  1.2519  1.2470
  204SOL    HW217755   0.286   4.744   0.663  0.1586  1.0068  1.3217
  205SOL     OW17756   1.205   0.031   7.052 -0.0551 -0.3003 -0.0087
  205SOL    HW117757   1.241   0.119   7.055 -1.9081  0.4990  0.4385
  205SOL    HW217758   1.265  -0.022   7.105  0.4387  0.9514  0.7208
  206SOL     OW17759   5.886   2.095   1.042 -0.4909  0.1165  0.1547
  206SOL    HW117760   5.982   2.093   1.036 -0.5492 -0.1586 -0.9177
  206SOL    HW217761   5.867   2.060   1.129  0.3781 -0.0378  0.2980
  207SOL     OW17762   2.650   2.397   7.205  0.0161 -0.3877  0.8904
  207SOL    HW117763   2.629   2.434   7.290  0.2293  0.0420  0.7588
  207SOL    HW217764   2.572   2.414   7.152 -0.3366 -1.1417  1.1471
  208SOL     OW17765   6.332   1.797   0.984  0.1097  0.6417 -0.2872
  208SOL    HW117766   6.364   1.877   1.026 -1.0258  1.5876 -1.1722
  208SOL    HW217767   6.262   1.767   1.042  1.6234 -0.7256  0.9658
  209SOL     OW17768   5.329   1.586   7.395  0.4610  0.0538 -0.3489
  209SOL    HW117769   5.247   1.540   7.375 -0.0584  0.3066  1.1294
  209SOL    HW217770   5.355   1.553   7.480  1.2165  0.9366 -0.2242
  210SOL     OW17771   4.726   5.688   6.685  0.4971 -0.2048  0.5143
  210SOL    HW117772   4.799   5.749   6.681  1.6788 -1.6148 -0.5054
  210SOL    HW217773   4.706   5.679   6.778 -0.0600  2.0729  0.6747
  211SOL     OW17774   3.283   5.584   0.414  0.1488  0.1577 -0.2107
  211SOL    HW117775   3.244   5.511   0.365 -0.0657  0.3056 -0.2593
  211SOL    HW217776   3.345   5.623   0.352 -0.5983  0.7509 -0.5921
  212SOL     OW17777   1.346   1.888   5.466  0.4132 -0.7163 -0.3819
  212SOL    HW117778   1.332   1.808   5.518  1.9600 -0.2360  0.8456
  212SOL    HW217779   1.306   1.957   5.518 -1.6558 -0.7343 -1.8324
  213SOL     OW17780   2.079   4.192   7.002 -0.5122 -0.4042  0.3148
  213SOL    HW117781   2.114   4.237   6.925 -0.4899 -1.5452 -0.3629
  213SOL    HW217782   2.145   4.206   7.070 -0.8401  1.1745  0.3477
  214SOL     OW17783   6.333   2.110   0.637 -0.2965 -0.0945 -0.2146
  214SOL    HW117784   6.416   2.064   0.642 -1.0195 -1.3769  0.6698
  214SOL    HW217785   6.334   2.170   0.712 -0.6491 -1.0047  0.5450
  215SOL     OW17786   3.602   0.060   7.667 -0.2198  0.3824 -0.3394
  215SOL    HW117787   3.597  -0.032   7.691  1.0504  0.4255  0.1292
  215SOL    HW217788   3.681   0.067   7.614  0.3738  1.4138  0.6380
  216SOL     OW17789   0.873   5.138   1.116 -0.2073  0.1199  0.1199
  216SOL    HW117790   0.814   5.073   1.155 -1.2075 -0.9556 -2.8232
  216SOL    HW217791   0.947   5.086   1.085 -0.7380  0.3903 -1.7345
  217SOL     OW17792   1.898   5.799   1.024 -0.4941 -0.0107  0.2083
  217SOL    HW117793   1.885   5.706   1.040 -0.5673 -0.1772 -0.7452
  217SOL    HW217794   1.976   5.822   1.075  1.0369 -1.1802 -1.4811
  218SOL     OW17795   1.126   2.878   7.313  0.4299  0.3902  0.0667
  218SOL    HW117796   1.200   2.846   7.261  0.3477  1.3208 -0.6540
  218SOL    HW217797   1.164   2.899   7.398  1.7749  3.8919 -1.2076
  219SOL     OW17798   4.305   0.634   1.356  0.9231  0.3039  0.4337
  219SOL    HW117799   4.378   0.666   1.303 -0.0308 -2.9352 -3.2953
  219SOL    HW217800   4.338   0.554   1.396  0.2209  0.2765  0.9656
  220SOL     OW17801   4.982   1.695   7.382 -0.0381 -0.3590  0.4124
  220SOL    HW117802   5.016   1.754   7.314 -1.3530  1.2920  1.1237
  220SOL    HW217803   5.011   1.735   7.464  0.1632 -1.4572  0.8912
  221SOL     OW17804   5.632   6.225   5.442 -0.2592 -0.1281  0.0503
  221SOL    HW117805   5.566   6.158   5.462  1.4444 -1.6641  0.8589
  221SOL    HW217806   5.715   6.178   5.444  1.0184  2.0050  0.4850
  222SOL     OW17807   0.947   2.271   0.152 -0.1581 -0.1972 -0.0371
  222SOL    HW117808   0.969   2.337   0.087 -0.6661  0.0148  0.0019
  222SOL    HW217809   1.027   2.259   0.203 -0.3251  1.0483  0.5323
  223SOL     OW17810   0.004   4.620   7.265  0.4808 -0.0839 -0.4555
  223SOL    HW117811   0.062   4.668   7.205  1.2063  0.4353  0.6316
  223SOL    HW217812   0.032   4.648   7.352 -0.2671 -1.1588  0.1422
  224SOL     OW17813   0.054   5.997   6.313 -0.4582 -0.8343 -0.3537
  224SOL    HW117814   0.063   6.064   6.246 -0.8861 -1.8729 -1.4855
  224SOL    HW217815   0.030   5.917   6.265  0.5302 -1.9318  0.8884
  225SOL     OW17816   6.255   6.177   1.535 -0.1619  0.5631  0.4817
  225SOL    HW117817   6.236   6.217   1.619 -0.9078 -0.2386  0.7155
  225SOL    HW217818   6.350   6.182   1.527 -0.1388  1.2110  1.0768
  226SOL     OW17819   4.963   4.736   1.346 -0.2794 -0.1999 -0.1381
  226SOL    HW117820   5.030   4.803   1.364  1.7195 -2.0445 -0.3595
  226SOL    HW217821   4.947   4.695   1.431 -0.8350 -0.0656 -0.1723
  227SOL     OW17822   1.930   1.930   1.524  0.4366  0.2181 -0.2577
  227SOL    HW117823   2.008   1.880   1.502  0.3955  0.1040 -0.1416
  227SOL    HW217824   1.901   1.895   1.608 -0.2713 -0.3769 -0.7406
  228SOL     OW17825   2.412   3.195   6.403 -0.1404 -0.2511 -0.1451
  228SOL    HW117826   2.359   3.147   6.340 -2.1409  1.0787  0.4184
  228SOL    HW217827   2.447   3.269   6.354 -1.8999  0.9238  0.2526
  229SOL     OW17828   4.572   5.411   6.231 -0.4070 -0.0776 -0.4398
  229SOL    HW117829   4.568   5.334   6.287 -1.8585 -0.9479 -1.6761
  229SOL    HW217830   4.619   5.381   6.153  1.1098  0.9656  0.0282
  230SOL     OW17831   5.080   3.823   6.198  0.1343  0.4486 -0.0518
  230SOL    HW117832   4.987   3.842   6.211 -0.0923  0.4817 -1.4994
  230SOL    HW217833   5.125   3.897   6.240 -0.3736 -0.4840  2.2895
  231SOL     OW17834   0.290   3.098   6.600  0.6030 -0.2832 -0.1880
  231SOL    HW117835   0.205   3.081   6.641  0.3646 -1.3355 -1.0680
  231SOL    HW217836   0.268   3.140   6.517  0.9887  0.1305 -0.0847
  232SOL     OW17837   5.712   2.982   0.241 -0.0277 -0.1761  0.2413
  232SOL    HW117838   5.700   2.888   0.226 -0.4674 -0.2498  1.0042
  232SOL    HW217839   5.802   2.990   0.272 -0.4445 -0.5506  1.6348
  233SOL     OW17840   2.820   0.497   1.028  0.0809 -0.0868  0.0459
  233SOL    HW117841   2.778   0.562   0.972  0.7197 -0.6104 -1.0616
  233SOL    HW217842   2.905   0.535   1.049  0.6517 -0.7581 -1.0004
  234SOL     OW17843   1.470   3.413   0.768  0.3192 -0.1482 -0.0235
  234SOL    HW117844   1.453   3.416   0.674 -0.5286  1.1834  0.1419
  234SOL    HW217845   1.562   3.439   0.777  0.1381  0.6581 -0.4326
  235SOL     OW17846   3.074   3.210   6.207  0.0838 -0.9064 -0.2243
  235SOL    HW117847   2.997   3.258   6.236 -0.2454 -1.1724 -0.6482
  235SOL    HW217848   3.132   3.277   6.171  0.3027 -0.6321  0.6258
  236SOL     OW17849   4.599   5.186   0.487 -0.2368  0.4896  0.2830
  236SOL    HW117850   4.546   5.254   0.528  1.8112  1.7239  1.0209
  236SOL    HW217851   4.676   5.179   0.543  1.5826  0.5483 -2.0643
  237SOL     OW17852   3.773   1.386   1.523 -0.0007  0.3258 -0.3417
  237SOL    HW117853   3.799   1.295   1.536 -1.3310  0.1278  1.3408
  237SOL    HW217854   3.700   1.381   1.461  1.3681  0.5004 -2.0149
  238SOL     OW17855   3.597   5.707   0.913 -0.1907 -0.5470 -0.7400
  238SOL    HW117856   3.662   5.770   0.944  0.1614 -0.9001 -0.7577
  238SOL    HW217857   3.518   5.727   0.964  0.2448 -0.8252  0.0535
  239SOL     OW17858   3.889   4.066   6.939  0.3742  0.4151  0.5809
  239SOL    HW117859   3.957   4.119   6.980 -1.2329  1.1853  2.4106
  239SOL    HW217860   3.833   4.039   7.011 -0.9817 -0.6362 -0.7921
  240SOL     OW17861   2.971   5.513   2.151  0.2954  0.2343 -0.0533
  240SOL    HW117862   2.896   5.455   2.162 -0.0233  0.4693 -0.9000
  240SOL    HW217863   2.949   5.591   2.202  0.4469 -0.1222  0.5727
  241SOL     OW17864   5.506   2.580   1.819 -0.0810 -0.3524 -0.5136
  241SOL    HW117865   5.418   2.568   1.854 -0.8619 -0.2849 -2.3291
  241SOL    HW217866   5.563   2.529   1.878 -1.3636 -0.6613  0.4986
  242SOL     OW17867   5.583   5.754   5.484 -0.2963 -0.3792 -0.5412
  242SOL    HW117868   5.538   5.712   5.557 -0.7585 -1.9912 -1.6891
  242SOL    HW217869   5.570   5.848   5.499 -0.1569 -0.6429  1.5396
  243SOL     OW17870   1.138   5.902   0.363 -0.9859 -0.2477  0.0728
  243SOL    HW117871   1.184   5.908   0.446 -0.2215  0.0460 -0.3606
  243SOL    HW217872   1.046   5.913   0.386 -0.9870 -2.0163  1.0946
  244SOL     OW17873   2.105   3.233   1.333 -0.1850  0.1069  0.1652
  244SOL    HW117874   2.066   3.148   1.312 -0.9742  0.2490  1.0143
  244SOL    HW217875   2.174   3.244   1.267  1.1210 -1.9909  1.0529
  245SOL     OW17876   3.850   2.843   6.647 -0.7447 -0.0740  0.2868
  245SOL    HW117877   3.858   2.753   6.678  2.1679  0.1893  0.6561
  245SOL    HW217878   3.905   2.847   6.569  1.6216  1.9080  1.8542
  246SOL     OW17879   3.184   3.137   2.068 -0.1207  0.0922 -0.2177
  246SOL    HW117880   3.239   3.209   2.100  0.3540 -0.3426 -0.0433
  246SOL    HW217881   3.226   3.058   2.101 -0.6000 -0.2751 -0.4689
  247SOL     OW17882   2.196   3.793   7.248  0.3568 -0.1002 -0.2115
  247SOL    HW117883   2.188   3.829   7.336  0.9637 -1.0293  0.2410
  247SOL    HW217884   2.134   3.844   7.196 -0.1145  0.3712  0.7735
  248SOL     OW17885   1.376   6.418   6.499 -0.4644  0.7677  0.0275
  248SOL    HW117886   1.375   6.427   6.594 -0.2391  0.8022  0.0269
  248SOL    HW217887   1.285   6.403   6.476 -0.4135 -0.0706  0.3276
  249SOL     OW17888   0.160   2.401   0.059  0.5220 -0.4066 -0.2108
  249SOL    HW117889   0.111   2.426   0.137 -2.1165  1.9511 -2.3874
  249SOL    HW217890   0.243   2.446   0.067  0.3241 -0.2455  1.2217
  250SOL     OW17891   6.147   2.253   7.245  0.3426 -0.1915 -0.3398
  250SOL    HW117892   6.123   2.169   7.206  2.2139 -0.7882 -0.3024
  250SOL    HW217893   6.122   2.245   7.337 -1.3669  0.1083 -0.7400
  251SOL     OW17894   1.847   3.766   1.695 -0.6363  0.3342 -0.2529
  251SOL    HW117895   1.854   3.830   1.624 -0.0835  1.2304  0.5848
  251SOL    HW217896   1.806   3.690   1.654 -0.5837  0.9257 -1.4657
  252SOL     OW17897   1.336   5.714   7.765  0.2940  0.3331  0.3679
  252SOL    HW117898   1.374   5.693   7.850  0.7869  2.2363  0.6538
  252SOL    HW217899   1.395   5.673   7.702  0.6973  0.0871  0.8983
  253SOL     OW17900   3.293   3.894   7.558  0.1370  0.0513  0.2803
  253SOL    HW117901   3.266   3.939   7.477  0.9536  0.3636  0.1753
  253SOL    HW217902   3.328   3.810   7.528  2.0185  0.8423  0.1250
  254SOL     OW17903   3.288   3.090   1.793 -0.0904  0.0150  0.2323
  254SOL    HW117904   3.280   3.017   1.853 -2.4886 -0.0378 -0.0627
  254SOL    HW217905   3.212   3.146   1.812 -1.0113 -0.0461 -2.7359
  255SOL     OW17906   1.871   4.353   6.979 -0.6419 -0.3695  0.1814
  255SOL    HW117907   1.951   4.301   6.980 -0.4485 -0.1587  2.8512
  255SOL    HW217908   1.801   4.289   6.967 -0.1841 -0.6780 -1.0341
  256SOL     OW17909   0.990   0.689   1.473  0.3005  0.5002 -0.5533
  256SOL    HW117910   1.002   0.780   1.448 -2.1626  1.3827  1.1223
  256SOL    HW217911   0.900   0.684   1.504 -0.6399 -3.1822 -3.2167
  257SOL     OW17912   0.910   2.160   7.358  0.2871 -0.0508 -0.6475
  257SOL    HW117913   1.002   2.186   7.369  0.2723  0.4128 -1.5615
  257SOL    HW217914   0.894   2.168   7.264 -0.7872  0.1746 -0.4526
  258SOL     OW17915   6.212   0.611   6.129 -0.7784 -0.0767  0.6054
  258SOL    HW117916   6.257   0.677   6.182  0.3397 -0.8020  0.6105
  258SOL    HW217917   6.255   0.617   6.043  0.6742 -2.0239  1.1211
  259SOL     OW17918   6.221   3.210   1.035 -0.2530 -0.2119 -0.1331
  259SOL    HW117919   6.129   3.209   1.009 -0.2054 -1.3409 -0.3024
  259SOL    HW217920   6.269   3.204   0.953  0.0668  2.6991 -0.2620
  260SOL     OW17921   3.332   2.609   1.120 -0.0225  0.5001  0.5306
  260SOL    HW117922   3.263   2.673   1.107  0.8076  1.0471 -1.5943
  260SOL    HW217923   3.315   2.542   1.054  1.0027  0.2323  0.5205
  261SOL     OW17924   5.217   1.879   0.657  0.4113  0.5336  0.8234
  261SOL    HW117925   5.187   1.916   0.574 -1.1774  1.6027  1.8252
  261SOL    HW217926   5.157   1.807   0.675  2.1171 -1.1725  0.0029
  262SOL     OW17927   2.736   3.654   1.368  0.3393  0.0209  0.1839
  262SOL    HW117928   2.741   3.581   1.307  0.2659 -0.3151  0.5700
  262SOL    HW217929   2.727   3.612   1.454 -0.5593  0.4825  0.3333
  263SOL     OW17930   0.371   4.893   5.540  0.0886  0.0353  0.3794
  263SOL    HW117931   0.417   4.973   5.517 -2.6580  1.0516 -2.3415
  263SOL    HW217932   0.287   4.923   5.576 -0.2388 -1.6489  1.1181
  264SOL     OW17933   1.078   1.095   7.576  1.2757  0.0767  0.1223
  264SOL    HW117934   1.080   1.097   7.672  2.2223  0.8803  0.1088
  264SOL    HW217935   1.007   1.155   7.552  0.2732 -1.0103  0.3227
  265SOL     OW17936   3.049   5.695   0.529 -0.2267 -0.0064 -0.2251
  265SOL    HW117937   3.123   5.677   0.471  0.4697  0.5635  0.4694
  265SOL    HW217938   2.996   5.615   0.525  1.3648 -1.1514  0.6710
  266SOL     OW17939   6.033   1.243   6.534 -0.2402  0.0792  0.4539
  266SOL    HW117940   6.095   1.174   6.512  0.6477  1.6423 -2.5453
  266SOL    HW217941   5.948   1.210   6.505  0.3275  0.5278 -1.8884
  267SOL     OW17942   5.371   4.034   0.385  0.1298 -0.1898  0.1258
  267SOL    HW117943   5.291   4.082   0.365 -0.7013 -1.0666  1.2289
  267SOL    HW217944   5.407   4.077   0.462 -0.4242 -1.0854  0.8982
  268SOL     OW17945   1.963   3.544   0.100 -0.1288 -0.6428 -0.0698
  268SOL    HW117946   1.963   3.609   0.030  0.7498 -0.9805 -0.3897
  268SOL    HW217947   2.055   3.527   0.118 -0.3298 -0.4328  1.2973
  269SOL     OW17948   3.786   2.156   6.471 -0.5443 -0.2105  0.1455
  269SOL    HW117949   3.825   2.096   6.533 -1.9012 -1.0335  0.2498
  269SOL    HW217950   3.798   2.114   6.386 -0.9739 -0.3614  0.1545
  270SOL     OW17951   2.786   5.895   6.670 -0.2252 -0.0992  0.0229
  270SOL    HW117952   2.752   5.868   6.585  2.2742  1.1836 -1.5020
  270SOL    HW217953   2.777   5.990   6.670  1.0564  0.0394  0.5807
  271SOL     OW17954   1.721   1.741   1.049  0.0870  0.7521 -0.3077
  271SOL    HW117955   1.760   1.669   1.000  1.5082  2.5070 -1.9142
  271SOL    HW217956   1.634   1.752   1.011 -1.2289 -1.6543  1.6924
  272SOL     OW17957   6.387   4.196   0.505  0.0894  0.6849 -0.8007
  272SOL    HW117958   6.386   4.121   0.446 -2.0818  0.1836 -0.2007
  272SOL    HW217959   6.376   4.272   0.447 -1.8832  0.2070 -1.1160
  273SOL     OW17960   0.573   5.951   0.716 -0.4090  0.1232 -0.5094
  273SOL    HW117961   0.607   6.040   0.705 -2.1150  0.7319 -1.2389
  273SOL    HW217962   0.585   5.911   0.630 -1.8970  0.5067 -0.9197
  274SOL     OW17963   0.202   2.463   6.724 -0.4278  0.2232 -1.5494
  274SOL    HW117964   0.282   2.510   6.746 -0.9275  0.0192  0.9437
  274SOL    HW217965   0.133   2.510   6.770 -1.6010 -0.2695 -2.7550
  275SOL     OW17966   4.028   6.110   5.898 -0.3059  0.2275 -0.3809
  275SOL    HW117967   4.095   6.043   5.882 -1.1115 -0.1855 -2.3564
  275SOL    HW217968   4.078   6.188   5.921  0.7367 -0.5838  0.2164
  276SOL     OW17969   0.366   1.690   6.152 -0.7275  0.0288  0.2629
  276SOL    HW117970   0.311   1.618   6.184 -0.7388 -0.0672  0.0303
  276SOL    HW217971   0.366   1.679   6.057 -0.0921 -0.1248  0.2781
  277SOL     OW17972   5.600   4.197   7.297 -0.5786 -0.3246 -0.2245
  277SOL    HW117973   5.580   4.169   7.386 -1.9632 -0.3072 -0.5059
  277SOL    HW217974   5.634   4.286   7.307  0.2072 -0.6808  0.3566
  278SOL     OW17975   4.855   3.655   6.772 -0.5409  0.4394 -0.4461
  278SOL    HW117976   4.805   3.616   6.700 -0.8010  0.3464 -0.2151
  278SOL    HW217977   4.799   3.643   6.849  0.3937 -0.8534  0.0692
  279SOL     OW17978   1.850   5.241   6.772 -0.2463  0.5504  0.0881
  279SOL    HW117979   1.848   5.156   6.814 -0.1494  1.4423  1.9817
  279SOL    HW217980   1.785   5.234   6.701 -0.8500 -0.8150  0.7443
  280SOL     OW17981   0.323   2.570   5.457  0.0225 -0.2741 -0.1445
  280SOL    HW117982   0.234   2.549   5.485  0.1774 -0.2573  0.3768
  280SOL    HW217983   0.372   2.580   5.539  0.6608 -0.9695 -0.4306
  281SOL     OW17984   1.894   3.437   1.553 -0.2031  0.3943  0.2013
  281SOL    HW117985   1.881   3.346   1.577 -2.1384  0.1440 -1.5123
  281SOL    HW217986   1.805   3.473   1.547  0.3992  1.7486 -1.4317
  282SOL     OW17987   3.974   5.674   0.829 -0.0691 -0.4387 -0.2918
  282SOL    HW117988   3.882   5.653   0.846 -0.4159  0.6642 -0.7197
  282SOL    HW217989   4.019   5.652   0.910 -0.7328 -0.8476 -0.0241
  283SOL     OW17990   0.040   2.662   0.804 -0.1149 -0.3478 -0.0660
  283SOL    HW117991  -0.007   2.592   0.849 -2.9324  1.2798 -0.2122
  283SOL    HW217992   0.005   2.742   0.843  1.3262  1.0220 -1.4615
  284SOL     OW17993   5.340   3.199   1.493 -1.0810  0.0466 -0.2835
  284SOL    HW117994   5.387   3.118   1.511  2.9576  2.3587  0.9488
  284SOL    HW217995   5.350   3.211   1.398 -3.3154 -1.6577 -0.8006
  285SOL     OW17996   1.028   2.262   6.348 -0.0746  0.1179 -0.1457
  285SOL    HW117997   1.025   2.358   6.347  0.7264  0.1708  0.9219
  285SOL    HW217998   1.016   2.237   6.256  1.7881  1.3177 -0.7813
  286SOL     OW17999   6.204   1.461   1.075  0.1554 -0.2033 -0.5179
  286SOL    HW118000   6.177   1.508   0.995  0.1836  0.7140 -0.0075
  286SOL    HW218001   6.187   1.523   1.145  2.2144 -0.1260 -0.0147
  287SOL     OW18002   6.427   6.188   7.273 -0.6032  0.2621 -0.5803
  287SOL    HW118003   6.370   6.114   7.294 -0.1120  0.1851  0.5506
  287SOL    HW218004   6.378   6.239   7.208 -2.3944  0.7040  1.0291
  288SOL     OW18005   0.615   3.732   6.797  0.0577 -0.0762  0.2499
  288SOL    HW118006   0.670   3.769   6.867 -0.2485 -0.7512  0.8610
  288SOL    HW218007   0.549   3.681   6.844 -0.2547 -0.4001 -0.5357
  289SOL     OW18008   4.316   3.620   0.455 -0.3427  0.0855  0.1117
  289SOL    HW118009   4.309   3.713   0.434 -0.9284 -0.0700 -0.3947
  289SOL    HW218010   4.264   3.610   0.535  1.2977  0.5416  1.2778
  290SOL     OW18011   6.363   6.438   0.067 -0.1185 -0.0477 -1.1934
  290SOL    HW118012   6.327   6.386   0.138  2.7951  0.4076  0.7899
  290SOL    HW218013   6.394   6.518   0.108  1.6111  0.2786 -2.9418
  291SOL     OW18014   3.678   0.657   6.024  0.3484  0.2427  0.1353
  291SOL    HW118015   3.599   0.609   5.999  0.2254 -0.9496  2.5484
  291SOL    HW218016   3.654   0.703   6.105  2.1941 -0.4831  1.1566
  292SOL     OW18017   1.339   3.092   7.196 -0.1345  0.5069 -0.2544
  292SOL    HW118018   1.409   3.028   7.210 -1.4646 -1.0917 -0.6723
  292SOL    HW218019   1.337   3.106   7.102 -0.2955  0.6514 -0.2306
  293SOL     OW18020   0.535   5.978   6.942  0.8265 -0.2215 -0.4179
  293SOL    HW118021   0.511   6.070   6.953  1.8759  0.0131  0.0566
  293SOL    HW218022   0.630   5.976   6.955  0.6751 -1.5439  0.7512
  294SOL     OW18023   2.574   3.718   7.601 -0.3295 -0.0441  0.2778
  294SOL    HW118024   2.648   3.667   7.567 -0.8168  0.5304 -1.7850
  294SOL    HW218025   2.602   3.809   7.589 -1.4478  0.1800 -0.7491
  295SOL     OW18026   3.827   4.180   1.221  0.9521 -0.0829  0.1789
  295SOL    HW118027   3.908   4.169   1.271  2.0755  1.3571 -1.2422
  295SOL    HW218028   3.813   4.274   1.219 -1.9590 -0.3179  2.1311
  296SOL     OW18029   4.204   4.116   6.746  0.2095 -0.2430  0.7307
  296SOL    HW118030   4.283   4.140   6.795  0.5565  0.8004 -0.3019
  296SOL    HW218031   4.150   4.069   6.810  0.3029  1.7020  2.3672
  297SOL     OW18032   5.297   4.319   7.322 -0.9931  0.5504  0.1100
  297SOL    HW118033   5.327   4.401   7.361 -0.6128  0.0057  0.9990
  297SOL    HW218034   5.323   4.251   7.385  3.3534 -0.8968 -2.7139
  298SOL     OW18035   4.421   4.754   6.045  0.3585  0.3504  0.2044
  298SOL    HW118036   4.432   4.746   6.140 -1.3756  0.6617  0.4591
  298SOL    HW218037   4.444   4.845   6.026  1.3781  0.1101  0.1907
  299SOL     OW18038   4.958   2.164   0.002  0.4442 -0.9762 -0.0318
  299SOL    HW118039   4.866   2.169  -0.021  0.0621 -1.3529  1.3103
  299SOL    HW218040   5.001   2.128  -0.076 -0.5244 -0.7939 -0.6636
  300SOL     OW18041   1.162   6.268   7.273  0.2940  0.2733 -0.1770
  300SOL    HW118042   1.256   6.285   7.265  0.5431 -0.6899  0.4335
  300SOL    HW218043   1.132   6.255   7.183  0.9988 -0.5563 -0.3097
  301SOL     OW18044   4.998   2.537   1.744 -0.0267 -0.2007  0.3042
  301SOL    HW118045   4.926   2.516   1.685 -1.6960  0.2578  2.1052
  301SOL    HW218046   5.075   2.496   1.703 -1.5117 -1.8482 -0.9839
  302SOL     OW18047   6.264   6.249   0.218  0.5466 -0.3258  0.5476
  302SOL    HW118048   6.204   6.271   0.289 -0.8159 -0.4595 -0.5236
  302SOL    HW218049   6.308   6.169   0.247  0.3331 -0.1484  1.4014
  303SOL     OW18050   3.755   1.498   6.691  0.3845 -0.5408 -0.4810
  303SOL    HW118051   3.686   1.443   6.729 -0.5065  1.0117  0.2897
  303SOL    HW218052   3.773   1.460   6.605  0.3848 -2.4642  0.3306
  304SOL     OW18053   2.801   5.624   6.127  0.3923  0.4031  0.6450
  304SOL    HW118054   2.711   5.592   6.127  0.3148  0.6128  0.2843
  304SOL    HW218055   2.825   5.629   6.219 -0.1810  0.9582  0.7713
  305SOL     OW18056   2.545   1.294   2.157  0.4711  0.3761  0.0266
  305SOL    HW118057   2.527   1.384   2.185  1.0879  0.5950 -0.2434
  305SOL    HW218058   2.495   1.283   2.077 -2.8076 -0.8696  2.0312
  306SOL     OW18059   5.427   0.240   7.664 -0.0770 -0.0908 -0.2292
  306SOL    HW118060   5.447   0.220   7.755 -0.7527  1.1492  0.2205
  306SOL    HW218061   5.481   0.180   7.613  1.8279  0.5355  0.9516
  307SOL     OW18062   2.765   1.831   2.115 -0.4349  0.2231 -0.2365
  307SOL    HW118063   2.836   1.884   2.150  1.1709 -0.7588 -1.8622
  307SOL    HW218064   2.722   1.794   2.192  1.2113  0.3396  0.7707
  308SOL     OW18065   2.925   2.216   0.667  0.5337  0.4945  0.3632
  308SOL    HW118066   2.916   2.121   0.656 -1.6835  0.8329 -1.5224
  308SOL    HW218067   2.911   2.230   0.761 -1.6037 -0.9048  0.3452
  309SOL     OW18068   2.594   0.317   5.564 -0.1452  0.3131  0.2939
  309SOL    HW118069   2.533   0.258   5.609 -0.3256 -1.2790 -1.8827
  309SOL    HW218070   2.680   0.294   5.598 -0.1924 -1.3995 -0.6465
  310SOL     OW18071   0.855   4.750   0.299 -0.3131 -0.1039 -0.2150
  310SOL    HW118072   0.897   4.820   0.349  1.6432 -1.1767 -0.2467
  310SOL    HW218073   0.922   4.723   0.235 -1.0928 -1.8376 -0.3498
  311SOL     OW18074   3.985   3.912   6.666 -0.2320  0.1102  0.1512
  311SOL    HW118075   3.937   3.958   6.735 -1.3007  0.6832 -0.9253
  311SOL    HW218076   4.000   3.825   6.701 -1.4380  0.1437  0.8117
  312SOL     OW18077   5.216   2.626   7.357  0.5532  0.1081  0.2722
  312SOL    HW118078   5.122   2.617   7.342  0.2923 -0.7162  2.0667
  312SOL    HW218079   5.258   2.582   7.283 -0.4859 -0.2337 -0.1217
  313SOL     OW18080   1.886   4.165   6.696  0.4025 -0.5380  0.0163
  313SOL    HW118081   1.942   4.243   6.692  0.1785 -0.2275  2.0962
  313SOL    HW218082   1.920   4.108   6.627 -0.7195  2.1681 -3.0375
  314SOL     OW18083   0.873   4.512   7.515 -0.2293 -0.1850  0.1635
  314SOL    HW118084   0.855   4.478   7.602 -1.1023  0.8771  0.4246
  314SOL    HW218085   0.902   4.602   7.529 -0.4431  0.0248 -0.6451
  315SOL     OW18086   1.274   3.732   5.928  0.1660  0.5307 -0.0965
  315SOL    HW118087   1.275   3.763   6.019 -2.0078  0.1275  0.1079
  315SOL    HW218088   1.317   3.647   5.932  2.3625  1.5534  0.0577
  316SOL     OW18089   2.859   0.697   7.636  0.0235 -0.2731 -0.6321
  316SOL    HW118090   2.826   0.609   7.617  0.6558 -0.6519 -0.0188
  316SOL    HW218091   2.840   0.711   7.729  1.2638 -0.3682 -0.3497
  317SOL     OW18092   2.799   4.617   2.404  0.2866 -0.0470  0.6285
  317SOL    HW118093   2.847   4.676   2.347  0.9310  0.1210  1.3335
  317SOL    HW218094   2.828   4.529   2.378  1.0998  0.0566  1.1340
  318SOL     OW18095   0.660   0.166   6.813 -0.2124 -0.3312 -0.1127
  318SOL    HW118096   0.732   0.222   6.840  0.8905 -1.2503 -1.0863
  318SOL    HW218097   0.626   0.207   6.734 -0.1921 -0.3944 -0.1533
  319SOL     OW18098   0.480   2.685   0.880 -0.3364  0.1734  0.6211
  319SOL    HW118099   0.532   2.611   0.913  0.6563  0.7812  0.4593
  319SOL    HW218100   0.416   2.645   0.821  1.0978 -0.4395 -0.5702
  320SOL     OW18101   5.106   1.459   6.318 -0.1403  0.5817 -0.5763
  320SOL    HW118102   5.070   1.544   6.344 -1.5467 -0.2889  0.4537
  320SOL    HW218103   5.156   1.430   6.394  0.0261  0.3081 -0.7866
  321SOL     OW18104   4.321   2.078   2.487 -0.4535 -0.6161 -0.1289
  321SOL    HW118105   4.322   2.005   2.549  0.8137 -0.2864  0.2529
  321SOL    HW218106   4.377   2.144   2.527 -1.4207  0.5027 -0.5630
  322SOL     OW18107   0.201   5.954   7.575  0.2694  0.5214 -0.4344
  322SOL    HW118108   0.231   5.925   7.662  1.5425 -2.1134 -1.6487
  322SOL    HW218109   0.119   5.906   7.561  0.4975  0.3000 -1.0147
  323SOL     OW18110   5.999   4.445   6.738  0.1142  0.3542  0.6426
  323SOL    HW118111   5.943   4.388   6.685 -0.3258 -0.2570  1.7258
  323SOL    HW218112   5.947   4.524   6.753 -0.7672 -0.4611  2.1686
  324SOL     OW18113   0.306   1.863   1.086  0.2765  0.1758  0.2195
  324SOL    HW118114   0.291   1.902   1.172 -0.9221 -0.9946  0.5743
  324SOL    HW218115   0.365   1.924   1.042 -0.7408  1.8642  1.1006
  325SOL     OW18116   0.072   3.453   6.497 -0.3379 -0.5016  0.2161
  325SOL    HW118117   0.013   3.388   6.536 -1.6097  0.8307  0.5850
  325SOL    HW218118   0.015   3.508   6.442  1.0238 -0.8551 -1.6594
  326SOL     OW18119   0.346   4.745   5.794 -0.4108 -0.8596  0.0120
  326SOL    HW118120   0.407   4.769   5.864  0.8131 -0.5546 -1.1034
  326SOL    HW218121   0.351   4.818   5.732 -0.4448 -1.7101 -1.0323
  327SOL     OW18122   4.977   5.652   6.424 -0.6321 -0.3503 -0.3826
  327SOL    HW118123   4.979   5.746   6.438 -2.1192 -0.2006 -0.9774
  327SOL    HW218124   4.898   5.637   6.372  0.1327 -1.8054 -1.2073
  328SOL     OW18125   1.560   3.950   6.269  0.3144 -0.0837  0.2309
  328SOL    HW118126   1.517   3.973   6.351  0.4564  3.3588 -0.5079
  328SOL    HW218127   1.565   3.854   6.270 -1.4818 -0.2600  3.2660
  329SOL     OW18128   0.067   6.136   5.651 -0.0845  0.4369 -0.1706
  329SOL    HW118129  -0.013   6.144   5.704  0.3306  0.1381  0.5102
  329SOL    HW218130   0.070   6.218   5.601  0.4651  1.6016  1.6368
  330SOL     OW18131   4.469   5.357   0.696 -0.0374 -0.2883  0.3399
  330SOL    HW118132   4.408   5.388   0.762 -0.5597  0.3226 -0.4133
  330SOL    HW218133   4.550   5.404   0.714 -1.5816  4.1697 -2.6098
  331SOL     OW18134   1.912   5.746   0.587 -0.4833  0.0980 -0.1022
  331SOL    HW118135   1.930   5.684   0.658 -2.5386 -0.0115  0.3841
  331SOL    HW218136   1.871   5.821   0.630 -1.1713  0.3139 -1.0974
  332SOL     OW18137   3.118   4.344   6.808 -0.2646  0.5054 -0.4752
  332SOL    HW118138   3.077   4.258   6.799 -0.6561  0.6688 -0.2647
  332SOL    HW218139   3.061   4.392   6.869  0.1843  0.7677 -0.2561
  333SOL     OW18140   2.890   4.654   0.440 -0.1630  0.1731 -0.1844
  333SOL    HW118141   2.806   4.615   0.461  0.0165 -0.4304 -0.5506
  333SOL    HW218142   2.870   4.745   0.418 -0.6451  0.1768  0.2694
  334SOL     OW18143   3.076   3.970   6.046 -0.6190  0.1688  0.3126
  334SOL    HW118144   3.061   3.899   5.984  0.6718 -0.0013  0.1738
  334SOL    HW218145   3.169   3.992   6.036 -0.7504  1.1626  1.1050
  335SOL     OW18146   3.575   4.179   1.447  0.3679 -0.0020  0.0733
  335SOL    HW118147   3.496   4.156   1.399 -0.4919  0.6266  1.1489
  335SOL    HW218148   3.565   4.272   1.467  0.9248 -0.1328  1.0437
  336SOL     OW18149   3.605   1.764   0.411  0.0970  0.5377 -0.2812
  336SOL    HW118150   3.677   1.744   0.472  0.0001  2.0646  0.3907
  336SOL    HW218151   3.639   1.835   0.357 -0.5421  0.5437 -0.6819
  337SOL     OW18152   2.545   3.924   6.285  0.3160  0.5746  0.5491
  337SOL    HW118153   2.459   3.965   6.276  0.7776  1.3854 -0.4219
  337SOL    HW218154   2.604   3.998   6.304  1.2993  0.5489 -1.9933
  338SOL     OW18155   1.313   1.759   7.169 -0.3185  0.3832  0.3191
  338SOL    HW118156   1.307   1.681   7.224 -0.4797  0.6675  0.7094
  338SOL    HW218157   1.325   1.725   7.080 -1.2945 -0.1097  0.3550
  339SOL     OW18158   1.281   0.941   0.064 -0.5781  0.2626  0.0254
  339SOL    HW118159   1.346   0.987   0.011  0.1428 -0.1865  0.4911
  339SOL    HW218160   1.214   1.006   0.082  0.9961  1.5224  1.6765
  340SOL     OW18161   1.949   4.077   5.792  0.3498 -0.5667 -0.6838
  340SOL    HW118162   1.927   4.003   5.736 -1.1828  0.0966 -1.0051
  340SOL    HW218163   1.950   4.152   5.733 -4.5371  0.7626  0.4132
  341SOL     OW18164   3.712   3.766   1.075  0.2409 -0.2439  0.3939
  341SOL    HW118165   3.663   3.815   1.141 -0.1029 -1.3698  1.0019
  341SOL    HW218166   3.686   3.675   1.089  1.3311 -0.6803 -0.3026
  342SOL     OW18167   4.412   1.910   5.885 -0.7957 -0.5270  0.1573
  342SOL    HW118168   4.445   1.912   5.974 -1.0451 -1.6314  0.2866
  342SOL    HW218169   4.490   1.907   5.830 -0.4772  3.1481  0.1250
  343SOL     OW18170   3.108   4.300   2.228  0.0719  0.5247 -0.6385
  343SOL    HW118171   3.130   4.224   2.175 -1.2033 -0.8569  0.7194
  343SOL    HW218172   3.125   4.272   2.318 -2.1842  1.1522  0.0416
  344SOL     OW18173   1.447   2.451   5.814  0.4841  0.3038  0.1269
  344SOL    HW118174   1.485   2.500   5.887  0.2453  0.1978  0.3239
  344SOL    HW218175   1.517   2.447   5.749  0.1631  1.8419 -0.3546
  345SOL     OW18176   3.480   4.407   0.765 -0.3123  0.4311 -0.3234
  345SOL    HW118177   3.460   4.444   0.679  0.8705 -0.8646 -1.2049
  345SOL    HW218178   3.440   4.320   0.764  0.1166  0.2162  0.2522
  346SOL     OW18179   0.151   5.628   1.896  0.0014  0.7813  0.2775
  346SOL    HW118180   0.058   5.643   1.879  0.0834  1.8184  0.6952
  346SOL    HW218181   0.155   5.538   1.929 -0.6403  0.1217 -1.3005
  347SOL     OW18182   1.837   6.071   6.356  0.0575 -0.0557 -0.4922
  347SOL    HW118183   1.892   6.039   6.427  0.2093  1.3436  0.0627
  347SOL    HW218184   1.748   6.068   6.391 -0.0562 -0.8718 -0.8344
  348SOL     OW18185   5.652   1.221   0.479 -0.5338 -0.0334  0.6575
  348SOL    HW118186   5.722   1.269   0.435 -1.2916  0.3174 -0.1945
  348SOL    HW218187   5.582   1.284   0.489 -1.0630 -0.6178  0.6991
  349SOL     OW18188   5.277   4.247   0.165 -0.0039 -0.3230 -0.0124
  349SOL    HW118189   5.293   4.325   0.112  1.5280  1.5626  2.9766
  349SOL    HW218190   5.198   4.267   0.215 -0.7196 -1.5473 -0.6053
  350SOL     OW18191   0.212   2.410   6.467  0.3263  0.3158 -0.4129
  350SOL    HW118192   0.224   2.408   6.562  1.8448  0.9061 -0.5535
  350SOL    HW218193   0.195   2.319   6.443  1.2558 -0.0583  0.2963
  351SOL     OW18194   2.669   3.886   7.240  0.3728 -0.5483 -0.2678
  351SOL    HW118195   2.720   3.904   7.319  2.0303 -1.1244 -1.1626
  351SOL    HW218196   2.659   3.791   7.240 -2.1465 -0.3640  0.7068
  352SOL     OW18197   5.948   0.603   7.424 -0.7911 -0.2127 -0.2386
  352SOL    HW118198   5.861   0.643   7.423 -0.3143  0.8555 -1.3076
  352SOL    HW218199   5.933   0.516   7.386 -1.0388  0.8831 -2.8609
  353SOL     OW18200   3.909   2.307   1.302  0.1518 -0.3025  0.6291
  353SOL    HW118201   3.979   2.322   1.239 -1.9009  1.2833 -1.4540
  353SOL    HW218202   3.867   2.226   1.272  0.7756 -1.0174  1.6180
  354SOL     OW18203   4.793   1.485   7.363  0.2386 -0.4440 -0.1427
  354SOL    HW118204   4.735   1.524   7.429  0.4880 -0.6939  0.2284
  354SOL    HW218205   4.863   1.550   7.352  1.2128 -1.2099  1.2385
  355SOL     OW18206   1.143   1.687   1.896 -0.1914 -0.2291 -0.3418
  355SOL    HW118207   1.198   1.685   1.818  1.9825  0.1751  1.0808
  355SOL    HW218208   1.152   1.599   1.934  0.8423  0.3037  0.7358
  356SOL     OW18209   3.388   3.660   7.441 -0.1738 -0.3262 -0.4432
  356SOL    HW118210   3.318   3.600   7.413 -0.5079 -0.3860  0.4705
  356SOL    HW218211   3.468   3.617   7.413 -0.3641 -1.6011  0.8349
  357SOL     OW18212   5.390   2.280   1.823 -0.5839  0.1017 -0.0785
  357SOL    HW118213   5.475   2.236   1.831 -0.6625 -0.7659 -2.8516
  357SOL    HW218214   5.390   2.344   1.893  0.2525 -3.1107  3.1754
  358SOL     OW18215   4.354   2.460   6.419  0.0094 -0.7682  0.8024
  358SOL    HW118216   4.344   2.394   6.350  2.4660  0.1382 -0.4934
  358SOL    HW218217   4.342   2.544   6.375  0.1913 -0.2128  1.7763
  359SOL     OW18218   2.281   2.472   6.775  0.1111 -0.3297 -0.2603
  359SOL    HW118219   2.281   2.486   6.680  0.1423 -1.2699 -0.4084
  359SOL    HW218220   2.190   2.451   6.795  0.4920 -2.3637 -0.4530
  360SOL     OW18221   3.934   0.993   2.322  0.3463 -0.5871  0.0527
  360SOL    HW118222   3.974   0.975   2.237  2.1504 -0.0839  0.7336
  360SOL    HW218223   3.945   0.912   2.371 -2.1759 -1.4468 -0.6624
  361SOL     OW18224   3.465   4.163   6.101 -0.7179  0.0590 -0.1209
  361SOL    HW118225   3.464   4.247   6.056 -0.4339  1.0084  1.5873
  361SOL    HW218226   3.506   4.180   6.185 -3.1411 -1.1759  1.4303
  362SOL     OW18227   3.876   1.599   1.232  0.3152 -0.1876  0.1288
  362SOL    HW118228   3.814   1.629   1.299  1.1662  0.7269  0.5457
  362SOL    HW218229   3.833   1.619   1.149  0.0433  0.4318  0.4098
  363SOL     OW18230   0.917   6.326   0.652 -0.2103 -0.4868  0.0707
  363SOL    HW118231   0.935   6.386   0.725 -0.3241  0.1651 -0.4252
  363SOL    HW218232   0.822   6.315   0.653 -0.4703  1.2211 -1.2573
  364SOL     OW18233   3.211   0.139   0.515 -0.2340 -1.2338 -0.1015
  364SOL    HW118234   3.212   0.230   0.484  0.2806 -0.0609  2.9605
  364SOL    HW218235   3.129   0.131   0.563  0.7374 -1.5894  1.5823
  365SOL     OW18236   1.064   5.680   7.735  0.3599  0.8851 -0.2539
  365SOL    HW118237   1.153   5.717   7.737 -0.2080  2.3265 -0.2525
  365SOL    HW218238   1.020   5.720   7.811 -0.5978  1.0204 -0.8644
  366SOL     OW18239   0.662   2.122   6.877  0.0590  0.4702 -0.2405
  366SOL    HW118240   0.683   2.178   6.951  0.0210  0.7665 -0.4519
  366SOL    HW218241   0.581   2.159   6.841  0.0009  0.2442 -0.3467
  367SOL     OW18242   2.709   6.335   7.477  0.2452 -0.6028 -0.0253
  367SOL    HW118243   2.629   6.378   7.445  0.1652 -1.8199 -1.6015
  367SOL    HW218244   2.678   6.258   7.524  0.4719 -1.1522 -0.7563
  368SOL     OW18245   3.260   6.465   6.763 -0.3891 -0.0121  0.3542
  368SOL    HW118246   3.255   6.532   6.695 -1.5320 -0.9380 -0.5165
  368SOL    HW218247   3.225   6.507   6.842  0.8689  1.0417  0.3871
  369SOL     OW18248   3.235   2.661   0.239 -0.2317  0.1458  0.5845
  369SOL    HW118249   3.282   2.692   0.316 -0.6347  0.3243  0.7587
  369SOL    HW218250   3.278   2.579   0.215 -0.5565 -0.2716  1.4132
  370SOL     OW18251   3.592   2.480   2.195 -0.5470 -0.2029  0.7671
  370SOL    HW118252   3.591   2.388   2.219 -1.5437 -1.1481 -2.4159
  370SOL    HW218253   3.509   2.494   2.150  0.0290  1.9778  0.2559
  371SOL     OW18254   0.246   4.925   6.186  0.6480  0.2283  0.4389
  371SOL    HW118255   0.292   4.998   6.143  1.0482 -0.5580 -0.5150
  371SOL    HW218256   0.306   4.851   6.177 -0.2070 -0.4736  0.4424
  372SOL     OW18257   3.738   2.391   1.783  0.1302 -0.4496  0.2423
  372SOL    HW118258   3.650   2.354   1.792  0.7505 -1.6221  1.9677
  372SOL    HW218259   3.753   2.394   1.688 -2.6826  2.1282 -0.2678
  373SOL     OW18260   4.893   3.326   5.601 -0.6745 -0.2127  0.1565
  373SOL    HW118261   4.964   3.266   5.578 -1.0266 -0.2946 -0.7366
  373SOL    HW218262   4.858   3.290   5.683 -0.8884 -1.2441 -0.3649
  374SOL     OW18263   3.742   5.335   6.326 -0.4397  0.2485  0.3940
  374SOL    HW118264   3.750   5.409   6.386  0.4238  2.4861 -2.2393
  374SOL    HW218265   3.832   5.304   6.314 -0.4275  0.5887 -0.5340
  375SOL     OW18266   2.816   1.237   6.560  0.0805  0.2879 -0.3941
  375SOL    HW118267   2.723   1.228   6.579  0.2645 -0.7137  0.1324
  375SOL    HW218268   2.834   1.331   6.569 -0.8582  0.4772 -0.4253
  376SOL     OW18269   0.819   3.348   0.100 -0.2422 -0.2582 -0.1076
  376SOL    HW118270   0.837   3.254   0.105  0.2439 -0.1331  0.6818
  376SOL    HW218271   0.751   3.363   0.166 -0.0902 -0.0078 -0.0057
  377SOL     OW18272   0.016   3.024   7.158 -0.4460  0.2857 -0.2317
  377SOL    HW118273  -0.057   2.984   7.205 -0.5764 -0.3112 -0.9090
  377SOL    HW218274   0.001   2.999   7.067  0.8969 -0.3147 -0.3097
  378SOL     OW18275   0.140   2.323   1.396 -0.0690  0.8043  0.1305
  378SOL    HW118276   0.079   2.332   1.469  0.4060  1.4363  0.4662
  378SOL    HW218277   0.123   2.400   1.341 -0.5051  0.2700 -0.4961
  379SOL     OW18278   2.516   5.378   1.985  0.1644  0.0320  0.3448
  379SOL    HW118279   2.539   5.288   2.007  1.8052  0.3902  0.2570
  379SOL    HW218280   2.514   5.425   2.068 -0.3579 -0.0059  0.3583
  380SOL     OW18281   5.313   3.624   7.058 -0.9997  0.3449 -0.1375
  380SOL    HW118282   5.299   3.599   7.149 -0.4008  0.1197 -0.1029
  380SOL    HW218283   5.237   3.590   7.012 -0.2230 -1.5774 -0.0886
  381SOL     OW18284   4.339   0.108   7.426 -0.6004 -0.1636 -0.3301
  381SOL    HW118285   4.314   0.022   7.459 -0.6862 -0.3797 -0.9491
  381SOL    HW218286   4.327   0.102   7.331 -1.1883  0.7264 -0.3204
  382SOL     OW18287   4.196   4.024   1.071  0.1154 -0.4363 -0.1949
  382SOL    HW118288   4.122   3.997   1.127  0.0480 -1.6958 -0.8498
  382SOL    HW218289   4.171   4.110   1.038 -0.1585  0.0333  1.1482
  383SOL     OW18290   3.192   4.728   1.006 -0.3549 -0.1668 -0.4287
  383SOL    HW118291   3.177   4.640   1.041 -1.1298  0.1049 -0.0532
  383SOL    HW218292   3.177   4.786   1.080 -2.4840  0.4479 -1.2756
  384SOL     OW18293   5.492   4.150   0.598 -0.2375  0.0177 -0.0233
  384SOL    HW118294   5.458   4.100   0.671  0.5968 -0.7634 -0.1580
  384SOL    HW218295   5.576   4.184   0.628 -0.4810  0.7878 -0.1701
  385SOL     OW18296   3.276   2.857   1.946  0.3681  0.0321  0.3282
  385SOL    HW118297   3.328   2.884   2.021 -1.3534  1.1845  1.1718
  385SOL    HW218298   3.213   2.795   1.981  0.3692 -0.4169 -0.4357
  386SOL     OW18299   6.400   3.076   7.544  0.4750  0.2457 -0.1431
  386SOL    HW118300   6.459   3.010   7.580 -0.3366  0.0889  0.9458
  386SOL    HW218301   6.458   3.137   7.498  1.3402 -0.6282 -0.2484
  387SOL     OW18302   4.481   3.706   5.930 -0.4379 -0.7429 -0.1987
  387SOL    HW118303   4.499   3.634   5.868  0.6442  0.9351 -1.9483
  387SOL    HW218304   4.468   3.662   6.014 -0.2382 -3.0154 -1.2672
  388SOL     OW18305   6.083   0.250   1.095  0.5854  0.1717  0.0186
  388SOL    HW118306   6.119   0.176   1.046  1.9341  0.1632  0.9695
  388SOL    HW218307   6.120   0.241   1.183  1.2230  2.2574  0.0283
  389SOL     OW18308   6.286   1.582   0.185 -0.1206 -0.3437  0.4431
  389SOL    HW118309   6.239   1.504   0.215 -1.4739  1.5437  3.8427
  389SOL    HW218310   6.228   1.622   0.121 -1.2026 -0.2557  1.4460
  390SOL     OW18311   4.225   6.328   7.529 -0.2634  0.2915  0.1410
  390SOL    HW118312   4.155   6.299   7.471  0.5785  0.6181 -1.0574
  390SOL    HW218313   4.271   6.247   7.553  0.1307  0.2805 -0.6338
  391SOL     OW18314   0.939   2.298   1.073 -0.1825 -0.1818 -0.3359
  391SOL    HW118315   0.859   2.338   1.108  0.4619  0.4034  0.5234
  391SOL    HW218316   0.925   2.295   0.979 -0.1850  2.3491 -0.5039
  392SOL     OW18317   3.098   3.000   7.171  0.3490  0.0497 -0.3323
  392SOL    HW118318   3.020   2.985   7.118 -0.7233  0.7303  1.0139
  392SOL    HW218319   3.112   2.918   7.218  0.3052  0.0045 -0.3982
  393SOL     OW18320   3.761   5.487   0.868  0.2821 -0.3691  0.0696
  393SOL    HW118321   3.693   5.555   0.870  1.1485  0.5129  0.7347
  393SOL    HW218322   3.718   5.411   0.829 -1.0142  0.2399  0.2511
  394SOL     OW18323   6.095   2.736   7.427  0.3921 -0.3198  0.5627
  394SOL    HW118324   6.005   2.768   7.419 -0.1770 -1.1758  2.8179
  394SOL    HW218325   6.094   2.681   7.506  3.0281  0.0836  0.9565
  395SOL     OW18326   1.909   5.007   6.178 -0.1415 -0.1600  0.0138
  395SOL    HW118327   1.993   4.967   6.201  0.6795  0.6700 -1.3486
  395SOL    HW218328   1.854   4.935   6.149  0.3047 -0.6424  0.3569
  396SOL     OW18329   2.209   3.712   1.046 -0.1188  0.0113  1.0321
  396SOL    HW118330   2.255   3.795   1.043 -1.6398  0.8689  0.2178
  396SOL    HW218331   2.236   3.672   1.129  0.6689  1.2843  1.4085
  397SOL     OW18332   5.363   6.169   6.595  0.1545 -0.0824 -0.3871
  397SOL    HW118333   5.443   6.206   6.631  0.1243 -1.4109  1.2029
  397SOL    HW218334   5.293   6.199   6.654 -0.0925 -1.2102 -0.0709
  398SOL     OW18335   3.907   5.033   7.197  0.2570 -0.1749 -0.5353
  398SOL    HW118336   3.897   5.069   7.108 -0.9624  0.5713 -0.1166
  398SOL    HW218337   3.821   4.997   7.218 -0.5448  2.6622  1.6053
  399SOL     OW18338   5.872   2.806   1.738 -0.3360 -0.2824 -0.6957
  399SOL    HW118339   5.907   2.799   1.649 -0.1667  0.8235 -0.7230
  399SOL    HW218340   5.913   2.734   1.786  1.0883  0.2825 -1.0193
  400SOL     OW18341   3.269   2.551   7.458 -0.5122 -0.4505  0.4011
  400SOL    HW118342   3.361   2.541   7.481 -1.0402 -0.8255  2.6259
  400SOL    HW218343   3.266   2.542   7.363  1.6813 -0.7864  0.3212
  401SOL     OW18344   2.766   4.538   2.715  0.1715 -0.0389 -0.6097
  401SOL    HW118345   2.829   4.596   2.671 -1.9504  1.4179 -1.9200
  401SOL    HW218346   2.701   4.597   2.751  0.8405 -1.3139  3.1173
  402SOL     OW18347   4.484   3.024   0.531  0.1365  0.4491 -0.3279
  402SOL    HW118348   4.489   2.962   0.459 -0.0816  1.2315 -1.0373
  402SOL    HW218349   4.571   3.021   0.570  0.3276  0.1698 -0.7600
  403SOL     OW18350   3.080   0.037   0.261 -0.3056  0.5635 -0.0481
  403SOL    HW118351   3.155   0.082   0.301  0.0308  1.2981 -1.4431
  403SOL    HW218352   3.088   0.055   0.167 -0.0127 -2.6464 -0.7594
  404SOL     OW18353   0.076   5.537   0.900 -0.2060  0.1195 -0.7283
  404SOL    HW118354  -0.009   5.557   0.859 -0.3002  1.7586  0.1877
  404SOL    HW218355   0.056   5.467   0.963 -0.3602 -1.2929 -2.2831
  405SOL     OW18356   4.996   4.312   1.990  0.4518  0.2329 -0.0461
  405SOL    HW118357   5.076   4.324   1.939  1.2612  0.6284  1.2718
  405SOL    HW218358   5.023   4.327   2.081 -1.0973  0.2779  0.4316
  406SOL     OW18359   1.132   0.967   6.498  0.0298  0.1157 -0.0030
  406SOL    HW118360   1.146   0.992   6.589  0.2005 -0.3266  0.0948
  406SOL    HW218361   1.043   0.995   6.478 -0.8208 -1.7478  0.9742
  407SOL     OW18362   6.287   3.320   6.498 -0.1129 -0.4864 -0.0225
  407SOL    HW118363   6.231   3.382   6.546 -0.6955 -0.3790 -0.8205
  407SOL    HW218364   6.226   3.259   6.457  0.3366 -0.2914 -1.0174
  408SOL     OW18365   0.380   5.730   1.078  0.0068  0.3925  0.2745
  408SOL    HW118366   0.343   5.655   1.124  1.2435 -0.3558  0.1110
  408SOL    HW218367   0.420   5.692   0.999  0.6209  1.2205  0.1704
  409SOL     OW18368   3.520   5.171   6.140  0.2294  0.2085  0.1976
  409SOL    HW118369   3.612   5.199   6.136  0.7178 -1.4035 -2.8509
  409SOL    HW218370   3.524   5.083   6.178  0.6392 -1.6605 -3.7135
  410SOL     OW18371   5.971   4.443   6.317  0.4795  0.3116  0.1590
  410SOL    HW118372   6.017   4.398   6.388 -0.4816  0.4541  0.8915
  410SOL    HW218373   5.908   4.379   6.285  3.7114 -1.3895 -3.5813
  411SOL     OW18374   5.177   1.110   6.589  0.1766 -0.8051  0.5185
  411SOL    HW118375   5.257   1.059   6.603  0.4124 -0.1923  1.5053
  411SOL    HW218376   5.208   1.195   6.558 -0.1994 -1.0993 -0.7576
  412SOL     OW18377   1.733   2.459   6.214 -0.8933 -0.1458 -0.3197
  412SOL    HW118378   1.662   2.404   6.246 -0.2422 -0.6056  0.3546
  412SOL    HW218379   1.804   2.398   6.194 -0.5365  0.3480 -0.5892
  413SOL     OW18380   4.851   4.995   6.690 -0.7052  0.5797 -0.0612
  413SOL    HW118381   4.873   5.016   6.599 -0.8411 -0.2743 -0.3036
  413SOL    HW218382   4.771   5.045   6.707  0.4789  2.4457  0.3147
  414SOL     OW18383   0.505   3.385   0.694  0.3304  0.0361 -0.0032
  414SOL    HW118384   0.566   3.339   0.635  0.0342 -0.1652 -0.1580
  414SOL    HW218385   0.555   3.458   0.729  0.1906  0.8086 -1.3542
  415SOL     OW18386   3.190   0.135   5.691  0.0103  0.5616 -0.2156
  415SOL    HW118387   3.168   0.065   5.629  0.0888 -1.3861  1.8308
  415SOL    HW218388   3.106   0.172   5.717 -0.2939 -0.8224  0.8890
  416SOL     OW18389   1.620   5.821   1.020  0.3886 -0.2020  0.1772
  416SOL    HW118390   1.619   5.786   0.931  1.8874 -0.6100  0.2929
  416SOL    HW218391   1.712   5.843   1.036  0.1657 -0.2552  1.6675
  417SOL     OW18392   1.361   6.380   7.647 -0.1534 -0.1403 -0.1376
  417SOL    HW118393   1.270   6.369   7.674 -0.5709 -0.0581 -1.4053
  417SOL    HW218394   1.411   6.388   7.728 -0.8961 -2.9752  0.7093
  418SOL     OW18395   1.630   2.950   7.187 -0.7684 -0.1176 -0.3027
  418SOL    HW118396   1.693   3.022   7.195 -0.9585 -0.0690  0.9261
  418SOL    HW218397   1.618   2.939   7.092  0.2684  0.5780 -0.5318
  419SOL     OW18398   1.786   3.767   6.819  0.0019  0.6699  0.4766
  419SOL    HW118399   1.732   3.791   6.744  0.0958 -1.0052 -0.1795
  419SOL    HW218400   1.823   3.849   6.850 -1.9476  1.7105  0.1871
  420SOL     OW18401   5.349   1.340   0.190 -0.3148 -0.3831 -0.4540
  420SOL    HW118402   5.289   1.312   0.259 -1.2423 -0.9175 -1.4522
  420SOL    HW218403   5.301   1.324   0.108 -0.2192  2.4892 -1.1640
  421SOL     OW18404   0.018   0.561   7.022 -0.2132 -0.6714  0.1267
  421SOL    HW118405  -0.026   0.577   6.939  1.9549 -0.8243 -1.1248
  421SOL    HW218406   0.050   0.647   7.049  2.6698 -1.1318 -1.4159
  422SOL     OW18407   4.009   6.414   7.332  0.3514 -0.3643 -0.7022
  422SOL    HW118408   3.966   6.372   7.258  0.9202  0.8210 -1.7570
  422SOL    HW218409   4.054   6.490   7.293 -0.4206  1.0740  1.0555
  423SOL     OW18410   1.390   1.312   6.874 -0.1119  0.3917  0.1227
  423SOL    HW118411   1.300   1.321   6.843 -0.1088 -0.5450 -0.1794
  423SOL    HW218412   1.384   1.329   6.969 -0.6319  0.1549  0.1343
  424SOL     OW18413   2.649   3.343   0.290  0.3079  0.6009  0.4405
  424SOL    HW118414   2.598   3.424   0.297  0.6218  0.8651 -0.2435
  424SOL    HW218415   2.706   3.357   0.214  1.3198  0.2710  1.1178
  425SOL     OW18416   1.044   4.785   5.267  0.0363  0.0846 -0.5566
  425SOL    HW118417   1.094   4.721   5.317 -0.3283  0.6995  0.6480
  425SOL    HW218418   0.987   4.733   5.210 -0.7355 -0.6884  0.8759
  426SOL     OW18419   3.791   2.974   6.888  0.6976 -0.0665 -0.3363
  426SOL    HW118420   3.797   2.902   6.825  1.1362  1.1113 -1.6933
  426SOL    HW218421   3.736   3.040   6.845 -1.9458 -0.5852  1.9305
  427SOL     OW18422   1.718   5.975   0.239  0.7201 -0.0094 -0.4185
  427SOL    HW118423   1.801   5.997   0.281  1.0629  1.0385 -1.6018
  427SOL    HW218424   1.655   5.970   0.312  1.3382  1.5394  0.2669
  428SOL     OW18425   5.130   3.137   0.099  0.4552 -0.5694  0.4672
  428SOL    HW118426   5.065   3.180   0.044  0.1923 -0.5960  0.7525
  428SOL    HW218427   5.183   3.209   0.135  0.3129 -0.5174  0.5725
  429SOL     OW18428   1.120   0.865   0.863 -0.0231 -0.1607 -0.2749
  429SOL    HW118429   1.064   0.788   0.875  0.4835 -0.4438  0.3429
  429SOL    HW218430   1.174   0.843   0.787 -0.4089 -0.0977 -0.5651
  430SOL     OW18431   4.368   6.086   7.621 -0.0985  0.4189  0.0422
  430SOL    HW118432   4.358   6.054   7.531 -1.6946 -0.0168  0.3306
  430SOL    HW218433   4.462   6.102   7.631  0.0380  1.1819 -1.9287
  431SOL     OW18434   5.299   0.935   6.870  0.2319  1.0298  0.5533
  431SOL    HW118435   5.230   0.872   6.853  0.2361  0.8050  1.3481
  431SOL    HW218436   5.312   0.933   6.965 -0.8126  3.3177  0.8085
  432SOL     OW18437   0.468   0.397   1.507  0.3149 -0.3097 -0.1481
  432SOL    HW118438   0.538   0.462   1.514 -0.9891  1.1769 -0.3366
  432SOL    HW218439   0.404   0.438   1.449  0.3179 -2.5963 -1.9016
  433SOL     OW18440   1.342   1.210   5.009  0.4202  0.3663 -0.4219
  433SOL    HW118441   1.386   1.128   5.034  1.0186  0.8748  0.2193
  433SOL    HW218442   1.368   1.222   4.917  0.5312 -0.0306 -0.4482
  434SOL     OW18443   2.510   0.845   0.645 -0.3150  0.2291  0.1007
  434SOL    HW118444   2.498   0.781   0.716  0.9024  0.0364  0.1620
  434SOL    HW218445   2.440   0.826   0.583 -0.6103 -0.4657  0.6322
  435SOL     OW18446   6.248   6.034   0.442  0.3757  0.1522  0.2599
  435SOL    HW118447   6.283   6.116   0.478  0.3193  0.7688 -1.0487
  435SOL    HW218448   6.321   5.996   0.394  0.8129 -1.2771  1.9671
  436SOL     OW18449   1.244   1.176   7.381 -0.1886 -0.2239  0.2103
  436SOL    HW118450   1.185   1.247   7.357 -0.3610 -0.8898 -1.4645
  436SOL    HW218451   1.207   1.140   7.462 -1.4376  0.0799 -0.2030
  437SOL     OW18452   3.097   2.346   1.215  0.3108 -0.1161 -0.1461
  437SOL    HW118453   3.128   2.273   1.162 -1.2122  0.4429 -1.9398
  437SOL    HW218454   3.046   2.399   1.154 -0.9136  0.9849  1.7454
  438SOL     OW18455   6.344   0.229   7.499 -0.7336  0.2995  0.2865
  438SOL    HW118456   6.369   0.144   7.464 -1.0986 -0.2549  1.3232
  438SOL    HW218457   6.400   0.291   7.453  0.5814 -0.6384  0.5567
  439SOL     OW18458   4.267   5.544   7.570  0.0346 -0.6174  0.2031
  439SOL    HW118459   4.183   5.539   7.616 -0.2881 -1.1806 -0.4426
  439SOL    HW218460   4.260   5.482   7.498  1.3060 -1.2989  0.6209
  440SOL     OW18461   5.628   3.921   2.182 -0.1153  0.4410  0.9622
  440SOL    HW118462   5.699   3.935   2.244  0.4251  2.0559  0.0296
  440SOL    HW218463   5.662   3.856   2.121 -0.0217  0.0918  1.3811
  441SOL     OW18464   1.859   4.615   1.184 -0.1895  0.0522  0.4581
  441SOL    HW118465   1.934   4.651   1.138  0.1647 -1.6673 -0.3599
  441SOL    HW218466   1.887   4.529   1.214 -1.9899 -0.8800 -0.3553
  442SOL     OW18467   3.692   2.763   0.992 -0.2676 -0.2487 -0.1365
  442SOL    HW118468   3.679   2.671   0.967  0.2076 -0.2352 -0.4550
  442SOL    HW218469   3.778   2.765   1.033 -0.8744 -0.1965  1.1976
  443SOL     OW18470   1.764   3.407   7.010 -0.3826 -0.0996  0.3157
  443SOL    HW118471   1.746   3.465   7.084 -2.5013  0.3668 -0.4800
  443SOL    HW218472   1.736   3.320   7.039  1.6749 -0.5583  1.0869
  444SOL     OW18473   4.248   1.193   0.882 -0.2398  0.9326  0.0485
  444SOL    HW118474   4.224   1.110   0.841  0.3109 -0.0518  1.6547
  444SOL    HW218475   4.336   1.211   0.849 -0.9900  1.7925 -1.6227
  445SOL     OW18476   0.347   1.853   0.682 -0.1486 -0.3867  0.0255
  445SOL    HW118477   0.254   1.840   0.700 -1.4413  0.7892 -4.5155
  445SOL    HW218478   0.378   1.766   0.656  0.4993 -1.0526  2.7090
  446SOL     OW18479   4.061   4.168   1.433 -0.2417 -0.1117  0.4623
  446SOL    HW118480   3.980   4.176   1.483  0.1466 -0.7359  1.2091
  446SOL    HW218481   4.117   4.112   1.487 -0.1314 -1.5588 -1.0660
  447SOL     OW18482   3.578   1.245   6.214  0.0780 -0.4369 -0.1404
  447SOL    HW118483   3.617   1.206   6.136 -1.0143  0.0890 -0.9676
  447SOL    HW218484   3.540   1.328   6.183  0.7527  0.4176  1.2114
  448SOL     OW18485   0.276   4.243   6.877  0.2828  0.5581 -0.0689
  448SOL    HW118486   0.323   4.284   6.950  3.0986 -0.7804 -1.0007
  448SOL    HW218487   0.315   4.282   6.799  0.2725 -1.0346 -0.9001
  449SOL     OW18488   1.187   3.258   7.323  0.6120  0.1019  0.1880
  449SOL    HW118489   1.245   3.192   7.286 -0.3145  0.0179 -1.2012
  449SOL    HW218490   1.207   3.259   7.416  3.0935  0.3412 -0.2759
  450SOL     OW18491   5.829   5.222   6.455  0.4958  0.1609  0.1226
  450SOL    HW118492   5.825   5.149   6.517  0.4419 -0.6073 -0.7670
  450SOL    HW218493   5.802   5.184   6.371  2.9148  0.5538 -0.9188
  451SOL     OW18494   3.286   1.447   6.213  0.2545 -0.4437 -0.0224
  451SOL    HW118495   3.304   1.448   6.119  0.7358  1.2379  0.0492
  451SOL    HW218496   3.309   1.535   6.243 -2.3530 -0.0875  1.2143
  452SOL     OW18497   4.008   5.352   6.560  0.3799 -0.0381 -0.1178
  452SOL    HW118498   3.957   5.429   6.538  1.3350  1.0619  1.3040
  452SOL    HW218499   3.945   5.291   6.598 -0.0635  0.9208  0.7407
  453SOL     OW18500   0.124   5.464   0.105 -0.2336  0.2022  0.1489
  453SOL    HW118501   0.198   5.407   0.123 -1.1000 -1.4720 -1.2956
  453SOL    HW218502   0.049   5.420   0.145 -1.0672 -0.1778 -1.7479
  454SOL     OW18503   1.009   3.983   1.648  0.4705  0.2611  0.5454
  454SOL    HW118504   1.072   4.053   1.630 -1.0466  1.4379 -0.5072
  454SOL    HW218505   0.938   4.026   1.695 -0.1442 -0.7427  0.5719
  455SOL     OW18506   3.828   1.182   0.682  0.2035 -0.4717 -0.3538
  455SOL    HW118507   3.835   1.133   0.764  1.5736  2.5460  1.5207
  455SOL    HW218508   3.892   1.253   0.691 -0.5290  0.7580 -3.5213
  456SOL     OW18509   2.408   3.376   1.420  0.2455  0.5109  0.0175
  456SOL    HW118510   2.385   3.369   1.513  0.2983  1.5728  0.1205
  456SOL    HW218511   2.462   3.300   1.403 -0.5178 -0.1905  0.6274
  457SOL     OW18512   2.718   0.923   6.750 -0.2661  0.3143 -0.1449
  457SOL    HW118513   2.651   0.953   6.689 -0.2121 -2.1302 -1.4960
  457SOL    HW218514   2.672   0.912   6.833 -1.2693 -0.1893 -0.7618
  458SOL     OW18515   4.664   3.771   0.828  0.0262  0.2978 -0.4293
  458SOL    HW118516   4.707   3.735   0.905 -2.0211  0.6881  0.9699
  458SOL    HW218517   4.613   3.699   0.792 -0.6891  0.6606 -0.1604
  459SOL     OW18518   6.025   6.178   0.082 -0.1809  0.1037 -0.2439
  459SOL    HW118519   5.970   6.198   0.157 -1.2604  0.2718 -1.0649
  459SOL    HW218520   6.115   6.187   0.115 -0.6305 -0.3497  1.1479
  460SOL     OW18521   2.114   1.747   1.471 -0.0884 -0.0445 -0.5780
  460SOL    HW118522   2.120   1.653   1.453 -2.6186 -0.0165 -1.9672
  460SOL    HW218523   2.137   1.789   1.388  0.0527  0.5676 -0.2400
  461SOL     OW18524   2.440   3.963   0.288 -0.2310 -0.1742 -0.9677
  461SOL    HW118525   2.411   3.896   0.350  0.9649  1.6255  1.6823
  461SOL    HW218526   2.360   4.012   0.267 -0.1394  1.9199  2.7499
  462SOL     OW18527   1.521   3.695   7.426 -0.6252  0.1397 -0.0495
  462SOL    HW118528   1.598   3.749   7.406 -2.3779  2.1784 -1.8760
  462SOL    HW218529   1.537   3.662   7.514  1.7570  1.5221  0.1203
  463SOL     OW18530   4.810   6.226   0.442 -0.1138 -0.7239  0.4210
  463SOL    HW118531   4.727   6.217   0.395  0.1467  0.4423 -0.2977
  463SOL    HW218532   4.867   6.160   0.403  0.4383  0.9243 -1.7297
  464SOL     OW18533   5.504   2.750   7.679  0.3984 -0.2942  0.2821
  464SOL    HW118534   5.556   2.750   7.598 -0.1312 -0.6365 -0.0690
  464SOL    HW218535   5.533   2.827   7.727 -0.8002  1.1716 -1.2290
  465SOL     OW18536   5.096   2.309   1.258 -0.0686 -0.4774  0.5930
  465SOL    HW118537   5.015   2.361   1.256  1.0575  1.3943 -1.6312
  465SOL    HW218538   5.089   2.251   1.182  0.8839  0.1199  0.0286
  466SOL     OW18539   2.987   2.692   0.111  0.5993  0.0218 -0.3047
  466SOL    HW118540   2.959   2.775   0.151  0.8249 -0.1369  0.1945
  466SOL    HW218541   3.076   2.679   0.143  0.7790 -0.1200 -0.8571
  467SOL     OW18542   2.946   2.733   5.894  0.3799  0.3394  0.2680
  467SOL    HW118543   2.868   2.776   5.930  0.2577  0.7703 -0.4798
  467SOL    HW218544   2.949   2.763   5.803  0.4044 -1.0996 -0.2228
  468SOL     OW18545   3.519   5.763   7.255 -0.7311  0.3251  0.5127
  468SOL    HW118546   3.430   5.728   7.250 -0.8813  0.6491  0.9042
  468SOL    HW218547   3.534   5.778   7.348 -0.0983 -0.1539  0.4889
  469SOL     OW18548   2.219   4.718   1.004 -0.0402  0.1199  0.4577
  469SOL    HW118549   2.215   4.622   1.011  0.1669  0.1245  0.6550
  469SOL    HW218550   2.256   4.746   1.088 -2.6366  0.5655  1.5707
  470SOL     OW18551   4.380   2.687   6.203  0.4760 -0.0513 -0.5489
  470SOL    HW118552   4.393   2.762   6.262  1.1741  0.1147 -0.9080
  470SOL    HW218553   4.367   2.727   6.117  1.8609 -0.3700 -0.9187
  471SOL     OW18554   3.462   2.313   1.489  0.1966 -0.0703 -0.1529
  471SOL    HW118555   3.420   2.379   1.434  1.8658 -0.3018 -1.8372
  471SOL    HW218556   3.554   2.340   1.493  0.1072  0.0332  2.7601
  472SOL     OW18557   0.726   2.254   7.097 -0.0400 -0.2957 -0.1479
  472SOL    HW118558   0.749   2.329   7.042  1.2225 -0.0227  0.7109
  472SOL    HW218559   0.643   2.279   7.137  0.4769  0.7674  0.3136
  473SOL     OW18560   3.932   3.551   0.293  0.0558 -0.0747 -0.7490
  473SOL    HW118561   3.934   3.645   0.314  1.7528 -0.3364  0.4309
  473SOL    HW218562   3.847   3.538   0.251  0.2253  2.1851 -1.9342
  474SOL     OW18563   1.516   3.370   6.105  0.0483  0.3907  0.3213
  474SOL    HW118564   1.603   3.390   6.140 -0.0432 -1.0672  1.5152
  474SOL    HW218565   1.530   3.358   6.011  1.0452  0.6292  0.4221
  475SOL     OW18566   2.067   3.218   7.301 -0.4588  0.0607  0.0439
  475SOL    HW118567   2.017   3.269   7.365 -0.8126 -1.9214  1.4438
  475SOL    HW218568   2.143   3.186   7.349 -0.0184 -0.3689 -0.9076
  476SOL     OW18569   5.224   0.220   0.570 -0.1798 -0.3793 -0.0819
  476SOL    HW118570   5.183   0.220   0.657 -0.1398  1.2806 -0.0281
  476SOL    HW218571   5.151   0.220   0.509 -0.2390  0.3376 -0.0157
  477SOL     OW18572   5.918   0.460   7.675  0.0644 -0.4512 -0.1738
  477SOL    HW118573   5.936   0.487   7.585  1.2895 -5.2156 -1.6086
  477SOL    HW218574   6.004   0.455   7.716 -0.4382  1.0323  1.1870
  478SOL     OW18575   4.779   5.015   0.248  0.2596 -0.0686 -0.0517
  478SOL    HW118576   4.794   4.979   0.160  0.5193  1.1726 -0.5336
  478SOL    HW218577   4.728   5.095   0.233  1.1766  0.7058  0.8451
  479SOL     OW18578   0.594   0.409   0.790  0.3825  0.1260 -0.1450
  479SOL    HW118579   0.667   0.347   0.797 -0.9005 -1.4636 -0.1663
  479SOL    HW218580   0.516   0.354   0.800 -0.8009  1.9070  0.7991
  480SOL     OW18581   1.894   3.056   6.940  0.1174 -0.5477 -0.0054
  480SOL    HW118582   1.880   3.091   6.852  1.0115 -1.1964 -0.4354
  480SOL    HW218583   1.984   3.083   6.962  0.2760 -1.2699  0.2658
  481SOL     OW18584   1.080   1.061   6.771 -0.1016 -0.4285 -1.1342
  481SOL    HW118585   1.070   1.025   6.859 -3.8234 -0.5043 -1.4134
  481SOL    HW218586   1.081   1.156   6.784 -0.5016 -0.4426 -0.9811
  482SOL     OW18587   0.601   3.216   0.506 -0.5413 -0.2920  0.4512
  482SOL    HW118588   0.515   3.175   0.500  0.2791 -2.2702  1.1534
  482SOL    HW218589   0.661   3.150   0.471  0.9069  0.1816  1.9244
  483SOL     OW18590   3.288   0.095   1.721  0.4821  0.1701  0.1090
  483SOL    HW118591   3.362   0.110   1.662 -0.3562 -1.0215 -1.3451
  483SOL    HW218592   3.251   0.011   1.691 -1.3049  0.6258  0.9240
  484SOL     OW18593   3.904   4.426   5.108 -0.3707 -0.5788 -0.4329
  484SOL    HW118594   3.984   4.476   5.095 -0.3453 -0.7310 -0.8805
  484SOL    HW218595   3.834   4.491   5.103 -0.3780 -0.6448 -1.5526
  485SOL     OW18596   3.540   5.309   0.922 -0.5091 -0.0053  0.1758
  485SOL    HW118597   3.482   5.245   0.881 -1.1903  0.5999  0.1931
  485SOL    HW218598   3.490   5.344   0.995  0.3064 -0.3181  0.9120
  486SOL     OW18599   2.781   2.480   0.677 -0.0352 -0.1735  0.6013
  486SOL    HW118600   2.783   2.517   0.589 -1.5736 -0.5257  0.3903
  486SOL    HW218601   2.843   2.407   0.674  0.9459  0.6443  0.2312
  487SOL     OW18602   6.112   3.824   1.214 -0.1479 -0.4742 -0.5851
  487SOL    HW118603   6.035   3.785   1.175 -0.2110 -0.7956 -0.1407
  487SOL    HW218604   6.149   3.756   1.270  1.3340 -0.8618 -1.9620
  488SOL     OW18605   4.871   3.024   1.427 -0.1363 -0.5074 -0.3563
  488SOL    HW118606   4.884   3.043   1.334 -1.0629  1.0480 -0.2060
  488SOL    HW218607   4.960   3.020   1.463  0.2473 -1.5803 -1.3748
  489SOL     OW18608   6.414   3.162   0.230 -0.3141  0.5831  0.0603
  489SOL    HW118609   6.470   3.103   0.281 -1.1055  0.4704  0.8140
  489SOL    HW218610   6.417   3.245   0.277  1.2880  1.3739 -1.3306
  490SOL     OW18611   5.820   2.347   7.693 -0.0753  0.5224  0.1319
  490SOL    HW118612   5.736   2.313   7.663 -0.6560  0.8937  1.2780
  490SOL    HW218613   5.830   2.432   7.650 -0.2491  0.4404 -0.0668
  491SOL     OW18614   2.972   4.675   5.624  0.4046  0.3935  0.6542
  491SOL    HW118615   2.986   4.660   5.718  0.8415  0.0536  0.5397
  491SOL    HW218616   2.878   4.695   5.617  0.3550  0.3635  1.1533
  492SOL     OW18617   3.362   5.110   7.401  0.2112  0.0723 -0.5752
  492SOL    HW118618   3.283   5.155   7.432  0.3190  0.2122 -0.5005
  492SOL    HW218619   3.428   5.128   7.469  0.1990 -0.3729 -0.4405
  493SOL     OW18620   0.624   2.243   0.639 -0.5995  0.6467  0.0967
  493SOL    HW118621   0.607   2.304   0.567  1.2380 -0.6985 -1.6133
  493SOL    HW218622   0.594   2.158   0.606  0.9594 -0.1340  0.5752
  494SOL     OW18623   1.692   0.905   2.193 -0.7895  0.7700  0.1117
  494SOL    HW118624   1.673   0.823   2.147  0.3562  0.8885 -0.6098
  494SOL    HW218625   1.662   0.890   2.282 -2.1529  0.1763 -0.4159
  495SOL     OW18626   3.343   2.536   0.627 -0.5059  0.5594 -0.4287
  495SOL    HW118627   3.375   2.451   0.657 -0.0529  0.7274 -0.4266
  495SOL    HW218628   3.281   2.515   0.558  2.3079  0.2704 -3.1040
  496SOL     OW18629   2.360   2.666   2.598 -0.0039 -0.0822 -0.0572
  496SOL    HW118630   2.421   2.660   2.672 -1.3350 -1.6961  0.9714
  496SOL    HW218631   2.305   2.742   2.618  0.4866  0.2839 -0.0769
  497SOL     OW18632   3.350   5.684   1.073  0.5317  0.2413  0.5489
  497SOL    HW118633   3.306   5.599   1.066 -0.1903  0.6939 -0.8382
  497SOL    HW218634   3.340   5.709   1.165  2.4291 -2.0241  1.4448
  498SOL     OW18635   3.735   5.507   7.093 -0.3353 -0.4621 -0.1880
  498SOL    HW118636   3.809   5.464   7.136 -0.6930 -1.2215 -0.3158
  498SOL    HW218637   3.763   5.516   7.002 -0.3905 -0.7416 -0.2344
  499SOL     OW18638   5.282   3.458   0.554  0.2636  0.4596  0.7700
  499SOL    HW118639   5.321   3.545   0.552  1.6373 -0.1488 -0.0921
  499SOL    HW218640   5.189   3.474   0.573  0.7453  2.0019  2.0573
  500SOL     OW18641   1.806   4.230   0.978  0.1778  0.2839 -0.5623
  500SOL    HW118642   1.872   4.160   0.974 -0.9362 -0.8359  0.0900
  500SOL    HW218643   1.781   4.243   0.886 -0.3982 -0.9869 -0.6161
  501SOL     OW18644   2.974   1.349   5.964  0.2207  0.2381 -0.0581
  501SOL    HW118645   2.890   1.377   5.929  0.4213 -0.5355 -1.2061
  501SOL    HW218646   2.955   1.266   6.008  0.3659  0.0889 -0.2734
  502SOL     OW18647   0.563   1.924   0.041 -0.9336  0.2790 -0.0538
  502SOL    HW118648   0.506   1.993   0.006 -1.6616 -0.3154 -0.0700
  502SOL    HW218649   0.642   1.970   0.069 -0.2414  0.7947 -2.5609
  503SOL     OW18650   0.217   1.593   1.772  0.1725  0.0551 -0.1528
  503SOL    HW118651   0.306   1.606   1.739  0.7266 -0.0737  1.2230
  503SOL    HW218652   0.204   1.664   1.834 -0.8641  0.3198 -0.6528
  504SOL     OW18653   1.490   6.275   7.425 -0.3575 -1.0701  0.4394
  504SOL    HW118654   1.436   6.311   7.496  0.6342 -0.0954  0.7364
  504SOL    HW218655   1.548   6.212   7.469  1.4588  0.7947  0.8639
  505SOL     OW18656   1.966   2.709   5.973 -0.3162  0.3008 -0.3397
  505SOL    HW118657   1.931   2.636   5.922 -2.9606  0.7356  0.7045
  505SOL    HW218658   1.938   2.787   5.926  1.5241  0.7108 -0.8351
  506SOL     OW18659   1.386   1.019   1.997  0.0275 -0.1192 -0.5788
  506SOL    HW118660   1.415   1.036   2.086 -0.6378  0.1867 -0.4144
  506SOL    HW218661   1.450   0.956   1.962 -0.4145 -1.2247  0.5299
  507SOL     OW18662   0.588   4.745   0.867  0.1056  0.2089 -0.2984
  507SOL    HW118663   0.658   4.692   0.829 -0.8698 -1.2744 -0.0884
  507SOL    HW218664   0.521   4.749   0.799  0.1463  1.1701 -0.2995
  508SOL     OW18665   4.953   6.381   1.887 -0.0175 -0.0339 -0.4022
  508SOL    HW118666   4.860   6.361   1.891  0.4343 -2.5509 -0.9500
  508SOL    HW218667   4.976   6.409   1.976 -1.1669  0.0757 -0.1302
  509SOL     OW18668   6.042   0.925   1.189 -0.0644 -0.0168 -0.4224
  509SOL    HW118669   6.091   1.006   1.204 -0.8206  0.0674  1.8804
  509SOL    HW218670   5.951   0.949   1.203 -0.4764 -0.9308 -1.4000
  510SOL     OW18671   0.928   1.287   7.035 -0.3798 -0.6060 -0.5662
  510SOL    HW118672   0.889   1.264   7.119 -1.4367 -1.9386 -1.3805
  510SOL    HW218673   0.978   1.210   7.009  3.3835  1.1942  0.6539
  511SOL     OW18674   4.572   2.268   5.856 -0.2283  0.9939  0.5483
  511SOL    HW118675   4.518   2.339   5.822 -0.0968  0.7221 -0.2582
  511SOL    HW218676   4.509   2.200   5.881 -0.2829  0.4705 -0.8653
  512SOL     OW18677   6.457   1.884   6.125  0.1712 -0.5222 -0.3616
  512SOL    HW118678   6.545   1.910   6.097  0.5528 -2.9038 -1.6249
  512SOL    HW218679   6.471   1.810   6.184 -0.9699 -1.2660 -0.9840
  513SOL     OW18680   0.312   5.335   7.420 -0.1142  0.1669  0.7208
  513SOL    HW118681   0.282   5.395   7.489  2.0447  2.1969  0.0369
  513SOL    HW218682   0.406   5.350   7.416 -0.1344  0.0180 -2.5431
  514SOL     OW18683   6.088   4.118   1.168 -0.0545  0.0588  0.3916
  514SOL    HW118684   6.078   4.023   1.180 -0.7090  0.2831  1.8249
  514SOL    HW218685   6.142   4.126   1.090  0.1207 -1.5041  0.3078
  515SOL     OW18686   5.721   3.691   1.674  0.3003 -0.1328  0.2846
  515SOL    HW118687   5.736   3.597   1.665 -2.1428 -0.7508  1.8155
  515SOL    HW218688   5.769   3.715   1.754 -1.5240 -0.7826  1.6327
  516SOL     OW18689   1.055   0.960   6.195  0.1612  0.4936 -0.2227
  516SOL    HW118690   1.087   0.973   6.285 -2.3897 -1.3185  1.0600
  516SOL    HW218691   1.133   0.934   6.146  1.3717 -0.0015  1.8261
  517SOL     OW18692   4.930   1.152   1.413  0.6105 -0.1044 -0.3219
  517SOL    HW118693   4.881   1.105   1.346  1.0552 -0.3253 -0.4999
  517SOL    HW218694   4.936   1.091   1.486 -0.4772  0.3915  0.1997
  518SOL     OW18695   6.250   6.356   7.600 -0.0635 -0.6169 -0.1340
  518SOL    HW118696   6.284   6.399   7.678 -0.8612 -0.0817 -0.0692
  518SOL    HW218697   6.316   6.371   7.533  0.2505 -0.3781  0.2270
  519SOL     OW18698   4.392   0.853   6.939 -0.4554  0.6721  0.0862
  519SOL    HW118699   4.310   0.836   6.986 -1.3146  2.5147 -0.6630
  519SOL    HW218700   4.414   0.943   6.962  0.7798  0.5611 -0.6186
  520SOL     OW18701   2.824   3.569   1.850  0.1268 -0.4333 -0.2552
  520SOL    HW118702   2.857   3.656   1.874 -0.6210 -0.0275 -0.6544
  520SOL    HW218703   2.778   3.538   1.928 -2.6343  1.0442 -1.1467
  521SOL     OW18704   6.382   4.368   0.292 -0.0007 -0.0143 -0.3450
  521SOL    HW118705   6.407   4.411   0.210  2.4440  1.4761  1.0523
  521SOL    HW218706   6.436   4.288   0.294  1.5409  1.0066  0.6943
  522SOL     OW18707   4.032   2.374   0.437 -0.0744 -0.3480 -0.8259
  522SOL    HW118708   4.025   2.415   0.351 -0.5424 -0.6491 -0.9371
  522SOL    HW218709   4.125   2.353   0.446  0.4580  2.0898 -0.1037
  523SOL     OW18710   6.100   3.467   7.169 -0.1459  0.3035 -0.5203
  523SOL    HW118711   6.028   3.505   7.118 -1.1422 -1.4592 -0.4948
  523SOL    HW218712   6.086   3.372   7.165  0.7756  0.0131  1.5241
  524SOL     OW18713   1.102   1.935   0.981 -0.1282 -0.2409 -0.0722
  524SOL    HW118714   1.173   1.873   1.000 -1.4513 -1.6887  0.4027
  524SOL    HW218715   1.143   2.021   0.986  1.6359 -1.0315 -0.0296
  525SOL     OW18716   0.539   6.287   1.087 -0.1943 -0.2699  0.7545
  525SOL    HW118717   0.527   6.193   1.074  1.3791 -0.3715 -0.2785
  525SOL    HW218718   0.628   6.295   1.123 -0.6823  0.7681  1.7915
  526SOL     OW18719   4.000   3.801   7.685 -0.0004 -0.1223  0.0689
  526SOL    HW118720   3.996   3.819   7.779 -1.7127 -0.1964  0.0391
  526SOL    HW218721   3.976   3.709   7.677  0.6341 -0.2548 -0.4197
  527SOL     OW18722   0.852   3.782   5.955  0.1305  0.3983 -0.1327
  527SOL    HW118723   0.909   3.813   5.885  1.4777  1.5206  1.3727
  527SOL    HW218724   0.862   3.687   5.954 -0.0421  0.3812 -1.5690
  528SOL     OW18725   0.209   2.074   7.734 -0.1470  0.0218  0.5216
  528SOL    HW118726   0.202   2.127   7.656  2.2750 -0.4769 -0.1333
  528SOL    HW218727   0.285   2.110   7.781 -0.1601 -1.1027  1.4653
  529SOL     OW18728   6.222   1.962   0.183  0.1962 -0.6943 -0.1800
  529SOL    HW118729   6.189   1.932   0.268 -1.4196  2.9699  0.6498
  529SOL    HW218730   6.304   2.006   0.204  0.3288 -0.6808 -0.7187
  530SOL     OW18731   1.157   5.097   5.902  0.2923  0.2750  0.1262
  530SOL    HW118732   1.080   5.104   5.959  0.8621 -1.5092  1.1965
  530SOL    HW218733   1.122   5.106   5.814 -0.8281  1.6228  0.6822
  531SOL     OW18734   3.290   1.805   1.677 -0.0381 -0.0413 -0.0874
  531SOL    HW118735   3.378   1.840   1.688  0.4832 -1.1913 -0.5476
  531SOL    HW218736   3.271   1.762   1.760  0.1572 -0.5036 -0.2822
  532SOL     OW18737   1.507   0.436   1.475 -0.0935 -0.0832  1.2415
  532SOL    HW118738   1.452   0.362   1.450 -1.3983  1.1757  0.2114
  532SOL    HW218739   1.458   0.480   1.544 -0.1865  0.7849  0.6410
  533SOL     OW18740   0.657   2.674   6.295  0.3828 -0.5864  0.1443
  533SOL    HW118741   0.579   2.623   6.317 -0.9836  1.4275  0.2761
  533SOL    HW218742   0.673   2.728   6.372  2.3112 -1.3991  0.3449
  534SOL     OW18743   1.583   3.423   5.579 -0.1891 -0.2906  0.1874
  534SOL    HW118744   1.496   3.437   5.541 -0.2894  2.8386  1.3074
  534SOL    HW218745   1.629   3.370   5.514 -2.4199 -0.6984 -1.1598
  535SOL     OW18746   6.128   6.246   0.746  0.4163 -0.1456 -0.2064
  535SOL    HW118747   6.045   6.276   0.708  0.6851  2.4462  1.0080
  535SOL    HW218748   6.113   6.249   0.840  1.4880 -1.0145  0.0060
  536SOL     OW18749   5.949   1.188   0.125 -0.0335  0.1278 -0.3641
  536SOL    HW118750   5.883   1.219   0.063 -2.1044 -1.3823  0.9559
  536SOL    HW218751   5.923   1.098   0.145  3.7791 -1.4081 -1.4814
  537SOL     OW18752   4.236   0.467   5.717 -0.7596  0.1450 -0.1584
  537SOL    HW118753   4.280   0.486   5.634 -2.1918  0.0989 -0.9555
  537SOL    HW218754   4.155   0.424   5.692 -1.8434  1.3039  1.1858
  538SOL     OW18755   0.258   4.792   7.701  0.2018 -0.0329 -0.1365
  538SOL    HW118756   0.213   4.871   7.733  0.5809  0.6435 -1.1951
  538SOL    HW218757   0.263   4.805   7.606 -0.7491 -1.8852 -0.4828
  539SOL     OW18758   4.929   6.429   6.121  0.0039 -0.0161 -0.0660
  539SOL    HW118759   5.005   6.451   6.067 -0.3948  0.8415 -0.2930
  539SOL    HW218760   4.867   6.500   6.104 -0.6748 -0.4816  0.4501
  540SOL     OW18761   2.086   4.258   1.630 -0.2910  0.0873 -0.1600
  540SOL    HW118762   2.120   4.335   1.585 -0.2691 -0.5175 -1.2284
  540SOL    HW218763   2.115   4.268   1.721  0.1304  1.0846 -0.3928
  541SOL     OW18764   5.882   2.806   0.981  0.4068 -0.2426 -0.1903
  541SOL    HW118765   5.823   2.760   1.041 -0.8308  0.0734 -1.1364
  541SOL    HW218766   5.844   2.792   0.894  2.0123 -0.4623 -0.8995
  542SOL     OW18767   0.205   1.427   1.141 -0.0230 -0.4922  0.2668
  542SOL    HW118768   0.169   1.509   1.107  1.1281  0.4413  1.2249
  542SOL    HW218769   0.161   1.359   1.090 -1.0397  0.7072 -0.5198
  543SOL     OW18770   1.727   2.426   7.428  0.2183 -0.1910 -0.0492
  543SOL    HW118771   1.724   2.506   7.376  0.3703 -0.9337 -1.2504
  543SOL    HW218772   1.810   2.385   7.402  0.3450 -0.5270  0.8705
  544SOL     OW18773   6.014   2.260   6.705 -0.3866 -0.3042  0.0627
  544SOL    HW118774   5.997   2.339   6.757  0.9561  1.3854 -1.9318
  544SOL    HW218775   6.109   2.247   6.711 -0.5265 -1.5177 -0.0464
  545SOL     OW18776   1.504   4.101   0.200  0.1191  0.0835 -0.4785
  545SOL    HW118777   1.470   4.158   0.270  0.8035 -0.9393  0.7385
  545SOL    HW218778   1.591   4.136   0.181  0.3553 -0.2665 -0.0574
  546SOL     OW18779   5.906   2.294   1.712  0.0640 -0.2510  0.0553
  546SOL    HW118780   5.920   2.235   1.785  0.9132  1.2025  1.1094
  546SOL    HW218781   5.854   2.365   1.748 -0.0569  0.1664 -0.9146
  547SOL     OW18782   2.916   0.398   6.514  0.0389 -0.3961  0.2318
  547SOL    HW118783   2.927   0.490   6.538  0.3265 -0.3858  0.0670
  547SOL    HW218784   2.978   0.384   6.443 -0.5565 -0.5153 -0.2794
  548SOL     OW18785   1.963   2.508   2.015  0.5923 -0.1555  0.0613
  548SOL    HW118786   1.970   2.602   2.030  1.3646  0.1106 -1.6754
  548SOL    HW218787   1.879   2.484   2.053 -0.4661  1.6004 -1.0098
  549SOL     OW18788   0.018   2.926   0.586  0.5093  0.4278  0.2767
  549SOL    HW118789  -0.025   2.845   0.561  1.1747  0.2655 -0.3890
  549SOL    HW218790  -0.050   2.978   0.628 -0.1496 -0.0896 -0.1444
  550SOL     OW18791   1.933   5.498   1.063  0.1033  0.3388 -0.9494
  550SOL    HW118792   2.025   5.490   1.088  0.1157 -1.0104 -1.3294
  550SOL    HW218793   1.885   5.473   1.142  0.0751  0.5782 -0.8920
  551SOL     OW18794   6.178   2.358   0.141  0.6616 -0.3240  0.4803
  551SOL    HW118795   6.251   2.309   0.102 -0.3949 -0.9543 -0.7586
  551SOL    HW218796   6.113   2.291   0.163 -0.3469  0.3895 -0.2229
  552SOL     OW18797   2.725   1.230   7.495  0.4775 -0.3470 -0.1705
  552SOL    HW118798   2.721   1.323   7.474  0.7201 -0.5458 -1.1162
  552SOL    HW218799   2.696   1.225   7.587  0.6190  0.6690 -0.0628
  553SOL     OW18800   2.807   3.629   0.643  0.3686  0.1946  0.2111
  553SOL    HW118801   2.788   3.691   0.572  0.7656 -0.7739 -0.7680
  553SOL    HW218802   2.824   3.546   0.599  1.0914 -0.3313  1.4189
  554SOL     OW18803   5.979   2.916   0.638 -0.2549  0.1161 -0.3403
  554SOL    HW118804   5.927   2.836   0.643  0.1209 -0.1346 -0.3780
  554SOL    HW218805   5.915   2.987   0.637 -0.6850 -0.2454 -2.2637
  555SOL     OW18806   2.547   3.334   1.016  0.2083 -0.5059  0.1977
  555SOL    HW118807   2.618   3.270   1.023  1.3520  0.7714  1.0101
  555SOL    HW218808   2.567   3.383   0.936  0.4279  0.0334  0.5702
  556SOL     OW18809   5.036   0.407   0.886  0.4551 -0.4348 -0.2208
  556SOL    HW118810   4.956   0.449   0.856  1.0351  0.0192 -1.1673
  556SOL    HW218811   5.063   0.458   0.963  0.0141 -0.3991 -0.0868
  557SOL     OW18812   4.743   1.185   0.143 -0.2630 -0.3321 -0.1823
  557SOL    HW118813   4.667   1.229   0.105 -0.8826 -1.4465 -0.2574
  557SOL    HW218814   4.813   1.198   0.078  0.5202  3.1660  1.1245
  558SOL     OW18815   4.277   0.580   0.955  0.4578 -0.3089  0.5703
  558SOL    HW118816   4.314   0.545   1.036 -0.2543  0.9068  1.4476
  558SOL    HW218817   4.339   0.554   0.888  1.9147  0.0272  1.7343
  559SOL     OW18818   3.468   4.750   1.531 -1.0054 -0.1620  0.0511
  559SOL    HW118819   3.505   4.838   1.536 -2.4703  0.6618 -2.0660
  559SOL    HW218820   3.498   4.706   1.610  0.7531  1.8486  0.5720
  560SOL     OW18821   1.396   4.002   5.232 -0.0145  0.1047  0.0310
  560SOL    HW118822   1.439   3.969   5.153 -0.3153 -0.1799 -0.0137
  560SOL    HW218823   1.310   3.961   5.231 -0.1059  0.2889  0.3836
  561SOL     OW18824   3.691   5.138   7.417  0.3213  0.2980 -0.2360
  561SOL    HW118825   3.762   5.201   7.428 -0.0873  0.8562 -0.7071
  561SOL    HW218826   3.671   5.109   7.506 -0.0513  1.4817  0.0904
  562SOL     OW18827   0.660   5.616   0.193 -0.0210 -0.0047  0.2602
  562SOL    HW118828   0.682   5.538   0.141 -2.1527 -0.2649 -0.3819
  562SOL    HW218829   0.565   5.611   0.204 -0.0565  1.8806  1.2646
  563SOL     OW18830   3.943   1.176   0.170  0.5989  0.0634  0.0825
  563SOL    HW118831   3.932   1.125   0.090  0.5364 -1.1294  0.8313
  563SOL    HW218832   3.869   1.238   0.169 -0.0228 -0.6708 -0.2485
  564SOL     OW18833   2.602   5.709   0.990  0.1843 -0.2475 -0.3046
  564SOL    HW118834   2.593   5.643   0.922 -1.4917  0.7153 -1.0654
  564SOL    HW218835   2.604   5.660   1.072 -1.1794 -1.2389 -0.8425
  565SOL     OW18836   4.208   5.972   0.568 -0.8293 -0.0236 -0.0358
  565SOL    HW118837   4.296   6.009   0.556 -0.5930 -1.2101 -3.1370
  565SOL    HW218838   4.180   6.003   0.653  2.3149  0.9922  0.7776
  566SOL     OW18839   2.852   4.312   7.415 -0.0774 -0.0085  0.2075
  566SOL    HW118840   2.823   4.275   7.498  0.7403  0.3472  0.6591
  566SOL    HW218841   2.815   4.400   7.414 -0.5864 -0.2228 -0.0824
  567SOL     OW18842   4.326   0.349   1.517  0.3462 -0.0156 -0.0294
  567SOL    HW118843   4.273   0.269   1.510 -1.8904  1.2678  1.0032
  567SOL    HW218844   4.296   0.390   1.598 -0.7329  3.2797 -1.8943
  568SOL     OW18845   2.574   4.444   1.343  0.1751 -0.2710  0.0645
  568SOL    HW118846   2.640   4.437   1.412  2.9224 -2.3260 -2.4576
  568SOL    HW218847   2.541   4.355   1.333 -0.5649  0.0944 -0.8731
  569SOL     OW18848   1.822   3.807   6.132 -0.3382 -0.1091  0.2879
  569SOL    HW118849   1.897   3.776   6.182 -0.8723 -0.4916  0.8640
  569SOL    HW218850   1.746   3.790   6.188 -0.7155  1.7911  0.4174
  570SOL     OW18851   5.527   3.663   6.280 -0.2277  0.5438  0.5140
  570SOL    HW118852   5.451   3.621   6.241  2.0011 -2.2903 -1.1518
  570SOL    HW218853   5.546   3.611   6.359  1.6617 -0.8022 -0.7348
  571SOL     OW18854   3.107   2.197   5.616 -0.1565  0.3369  0.1016
  571SOL    HW118855   3.100   2.217   5.709 -0.9707  1.7989 -0.2300
  571SOL    HW218856   3.200   2.205   5.596 -0.1216  1.2590  0.5624
  572SOL     OW18857   1.434   4.360   6.007  0.6158 -0.3387 -0.2506
  572SOL    HW118858   1.386   4.367   5.924  2.1919  1.9119 -1.0872
  572SOL    HW218859   1.457   4.268   6.014 -0.2752 -0.7373 -1.9023
  573SOL     OW18860   5.673   3.506   0.515  0.2663  0.4213 -0.0350
  573SOL    HW118861   5.713   3.582   0.473  1.0292 -0.9538 -1.9286
  573SOL    HW218862   5.725   3.432   0.486 -0.5649 -0.8820  1.6103
  574SOL     OW18863   4.501   3.102   1.631 -0.0006  0.3039 -0.1597
  574SOL    HW118864   4.516   3.189   1.667  0.1872 -0.2390  1.1505
  574SOL    HW218865   4.406   3.093   1.629 -0.1184  1.4014 -2.5634
  575SOL     OW18866   3.793   5.931   6.944  0.0921  0.1450 -0.7716
  575SOL    HW118867   3.740   5.986   7.003  0.9294 -0.4859  0.6201
  575SOL    HW218868   3.734   5.860   6.918 -0.0066 -0.1123  0.1217
  576SOL     OW18869   0.078   5.990   1.652  0.3363 -0.1491  0.5975
  576SOL    HW118870   0.018   5.979   1.725 -1.8980  1.3914 -0.8932
  576SOL    HW218871   0.079   6.084   1.635  0.2671 -0.4978 -1.6987
  577SOL     OW18872   1.275   1.735   1.055  0.0422 -0.3206 -0.5829
  577SOL    HW118873   1.294   1.667   1.120 -0.7272 -0.4193 -0.4499
  577SOL    HW218874   1.360   1.754   1.014  0.4062 -0.7720 -0.0516
  578SOL     OW18875   3.948   2.493   2.278  0.0596  0.4622  0.3529
  578SOL    HW118876   3.939   2.515   2.185  1.4302 -0.4214 -0.0207
  578SOL    HW218877   4.009   2.558   2.312  0.3608  0.1648  0.3847
  579SOL     OW18878   0.450   3.434   7.540 -0.5218 -0.6317  0.3744
  579SOL    HW118879   0.383   3.411   7.605  0.9520 -1.2392  1.7499
  579SOL    HW218880   0.492   3.512   7.577 -0.5942 -0.1216 -0.5857
  580SOL     OW18881   5.138   2.710   0.307  0.3742 -0.5167  0.4393
  580SOL    HW118882   5.198   2.784   0.307  2.0053 -1.7732  1.3647
  580SOL    HW218883   5.161   2.660   0.229 -0.4948 -0.2435 -0.0037
  581SOL     OW18884   0.360   0.663   6.534  0.2835 -0.5502  0.6048
  581SOL    HW118885   0.346   0.569   6.546  0.7725 -0.6349  0.5382
  581SOL    HW218886   0.377   0.673   6.440  1.8351 -0.6258  0.8426
  582SOL     OW18887   4.437   1.849   1.590  0.0468 -0.4074 -0.7240
  582SOL    HW118888   4.512   1.876   1.643 -0.2647 -0.0942 -0.4423
  582SOL    HW218889   4.438   1.907   1.514 -0.4346  0.1918 -0.2770
  583SOL     OW18890   6.109   5.453   0.633  0.8539 -0.3697 -0.5618
  583SOL    HW118891   6.112   5.497   0.548  1.1378  0.2096 -0.2553
  583SOL    HW218892   6.126   5.361   0.613  1.5035 -0.1438 -1.0645
  584SOL     OW18893   1.253   4.203   0.109 -0.6320 -0.5740  0.3234
  584SOL    HW118894   1.218   4.201   0.020 -0.7885  1.3171  0.3029
  584SOL    HW218895   1.333   4.150   0.105 -1.5008 -1.9031 -0.5009
  585SOL     OW18896   6.148   5.466   6.590 -0.0664 -0.2026  0.2299
  585SOL    HW118897   6.104   5.496   6.670 -2.0592 -0.3308 -0.7562
  585SOL    HW218898   6.223   5.525   6.580 -2.3383  2.8061 -0.2274
  586SOL     OW18899   2.562   2.252   5.832  0.0473 -0.2197  0.2469
  586SOL    HW118900   2.470   2.264   5.807  0.6198  0.2064 -1.7875
  586SOL    HW218901   2.599   2.198   5.762  1.3477 -0.4780  1.0935
  587SOL     OW18902   1.023   6.194   0.250  0.1154 -0.3244 -0.5926
  587SOL    HW118903   0.992   6.166   0.164  1.3493 -0.9945 -0.8433
  587SOL    HW218904   1.048   6.286   0.238  3.4585 -1.2510 -1.9404
  588SOL     OW18905   2.306   0.232   2.336  0.1066 -0.2658 -0.7754
  588SOL    HW118906   2.242   0.287   2.381 -0.8784 -0.3834 -1.9643
  588SOL    HW218907   2.388   0.282   2.340 -0.3198  0.4057 -0.1994
  589SOL     OW18908   1.435   0.715   7.475 -0.0622 -0.3637 -0.0658
  589SOL    HW118909   1.366   0.702   7.540  0.3877  0.8864  0.7149
  589SOL    HW218910   1.407   0.666   7.398 -2.1744  0.6808 -0.0262
  590SOL     OW18911   4.455   1.099   7.023  0.4573 -0.2302 -0.2008
  590SOL    HW118912   4.391   1.153   7.069  1.5514  2.0286 -1.1958
  590SOL    HW218913   4.495   1.158   6.959  1.4167 -2.3669 -1.6793
  591SOL     OW18914   4.607   6.053   6.497  0.3620 -0.4244 -0.1760
  591SOL    HW118915   4.542   6.121   6.478  0.4488 -0.8516 -2.3071
  591SOL    HW218916   4.556   5.980   6.532 -0.0576 -0.1104 -0.1203
  592SOL     OW18917   3.404   4.534   0.536 -0.2615  0.8747 -0.3879
  592SOL    HW118918   3.339   4.470   0.506  0.4909  0.7653 -1.8693
  592SOL    HW218919   3.356   4.617   0.541 -0.5480  0.8016 -1.5081
  593SOL     OW18920   6.458   2.784   1.243 -0.2770  0.0887  0.0612
  593SOL    HW118921   6.537   2.836   1.256 -0.6902  0.3297  2.0523
  593SOL    HW218922   6.388   2.849   1.233 -0.4201 -0.0988 -0.1446
  594SOL     OW18923   4.928   1.730   1.442 -0.3796 -0.8147  0.5771
  594SOL    HW118924   4.982   1.660   1.476 -0.8775 -2.3323 -1.5059
  594SOL    HW218925   4.851   1.686   1.406 -1.6367  0.9982  0.8720
  595SOL     OW18926   4.167   0.135   1.549  0.3494  0.0070  0.0989
  595SOL    HW118927   4.119   0.105   1.472 -2.7131  2.3026  0.9078
  595SOL    HW218928   4.143   0.073   1.618  0.6488 -0.3072 -0.0748
  596SOL     OW18929   5.990   4.828   0.096  0.6312  0.2042 -0.3727
  596SOL    HW118930   5.898   4.814   0.077  0.3755  0.1405  0.8558
  596SOL    HW218931   5.992   4.908   0.149  1.2443 -0.0235 -0.0418
  597SOL     OW18932   3.679   2.787   7.086 -0.1709  0.3954 -0.3185
  597SOL    HW118933   3.662   2.841   7.163 -1.0599 -0.8599  0.3924
  597SOL    HW218934   3.699   2.850   7.017 -3.3254  1.8183 -0.1074
  598SOL     OW18935   1.063   1.414   7.286  0.0087  0.0351  0.2141
  598SOL    HW118936   1.006   1.371   7.222  0.9470 -1.6707  0.4634
  598SOL    HW218937   1.005   1.471   7.337 -0.9122  0.6801 -1.5006
  599SOL     OW18938   2.683   4.593   1.142  0.7229  0.0419 -0.8087
  599SOL    HW118939   2.638   4.536   1.204 -1.6220  0.9716 -1.5223
  599SOL    HW218940   2.732   4.534   1.085 -0.1580 -1.1119 -0.4050
  600SOL     OW18941   3.206   4.354   0.466 -0.8353 -0.8111  0.0611
  600SOL    HW118942   3.253   4.280   0.428  0.4144  0.1899 -0.4328
  600SOL    HW218943   3.159   4.393   0.392 -0.7510 -0.5776  0.1281
  601SOL     OW18944   4.638   1.476   0.857 -0.3676  0.0379  0.5508
  601SOL    HW118945   4.630   1.508   0.767 -1.0611  0.6444  0.8221
  601SOL    HW218946   4.564   1.514   0.903  0.0274 -0.1984  1.4084
  602SOL     OW18947   0.453   1.351   1.235 -0.2027 -0.2711  0.2741
  602SOL    HW118948   0.381   1.413   1.226 -0.5178 -0.1186  2.9389
  602SOL    HW218949   0.422   1.271   1.193 -2.5652 -0.6420  2.4580
  603SOL     OW18950   0.107   2.531   1.191 -0.2959  0.2307  0.2357
  603SOL    HW118951   0.202   2.541   1.189 -0.1261 -1.1484  0.3312
  603SOL    HW218952   0.074   2.619   1.207  0.8668  1.1119 -1.7326
  604SOL     OW18953   0.709   1.843   1.054  0.1025 -0.5750  0.0479
  604SOL    HW118954   0.765   1.777   1.013  2.4976  1.3482 -0.0357
  604SOL    HW218955   0.711   1.822   1.148  0.6186 -0.7915 -0.0102
  605SOL     OW18956   1.030   2.266   7.025  0.1129 -0.3266  0.0415
  605SOL    HW118957   0.940   2.275   7.055 -0.9130 -1.4844 -2.4203
  605SOL    HW218958   1.045   2.341   6.969 -0.5478 -1.7821 -2.2114
  606SOL     OW18959   5.051   1.407   2.205  0.5467 -0.1094 -0.3453
  606SOL    HW118960   5.042   1.313   2.191 -0.4595 -0.3078  1.3711
  606SOL    HW218961   4.970   1.444   2.170 -0.3857 -0.2341  1.5757
  607SOL     OW18962   1.764   2.558   6.796 -0.4584 -0.7139  0.7796
  607SOL    HW118963   1.723   2.557   6.883 -1.2773  0.4562  0.4335
  607SOL    HW218964   1.704   2.507   6.741 -1.3489  0.7616  0.3355
  608SOL     OW18965   4.079   5.147   6.776 -0.0368 -0.3291  0.7173
  608SOL    HW118966   4.097   5.153   6.869  1.8030  0.5248  0.3447
  608SOL    HW218967   3.983   5.146   6.771 -0.2046  0.7291  2.5621
  609SOL     OW18968   2.371   4.339   6.425 -0.2995 -0.3499  0.0502
  609SOL    HW118969   2.279   4.317   6.434 -0.1483 -1.1948 -0.3790
  609SOL    HW218970   2.380   4.368   6.334 -0.7198  2.7161  0.8612
  610SOL     OW18971   3.181   5.718   0.127 -0.2821 -0.8303  0.1700
  610SOL    HW118972   3.103   5.678   0.165 -0.7859 -0.7619 -0.7625
  610SOL    HW218973   3.251   5.654   0.143 -0.7154 -1.2930  0.2315
  611SOL     OW18974   0.827   1.956   7.653 -0.3934 -0.0283 -0.0066
  611SOL    HW118975   0.914   1.927   7.628 -0.8488 -0.7068 -0.8646
  611SOL    HW218976   0.838   1.992   7.741  0.3431 -2.1551  0.8200
  612SOL     OW18977   0.328   0.970   5.919  0.3511  0.1068 -0.1243
  612SOL    HW118978   0.307   0.878   5.936 -1.1077  0.6256  1.1408
  612SOL    HW218979   0.376   0.969   5.836  0.8793 -1.8402  0.1502
  613SOL     OW18980   5.160   2.114   0.979 -0.3766 -0.2728 -0.0475
  613SOL    HW118981   5.170   2.031   1.025 -1.5782 -0.3970  0.0263
  613SOL    HW218982   5.073   2.109   0.940 -0.7207  1.1963  0.4740
  614SOL     OW18983   3.242   2.952   0.683  0.6170  0.1615  0.5454
  614SOL    HW118984   3.325   2.904   0.688  0.7164  0.2052 -0.4756
  614SOL    HW218985   3.252   3.009   0.607 -0.8938 -0.8867 -0.5103
  615SOL     OW18986   5.768   1.092   7.101  0.3306  1.1200  0.3704
  615SOL    HW118987   5.860   1.079   7.075  0.0497  0.3276 -0.2604
  615SOL    HW218988   5.761   1.186   7.118  1.4196  1.0980  1.0430
  616SOL     OW18989   3.652   2.180   6.724 -0.4094  0.2474  0.2573
  616SOL    HW118990   3.681   2.263   6.685  0.2520  0.4620  1.1528
  616SOL    HW218991   3.652   2.118   6.651 -0.5070  0.9338 -0.3427
  617SOL     OW18992   2.110   5.328   6.755  0.0632 -0.5870  0.0643
  617SOL    HW118993   2.017   5.308   6.771 -0.0159  0.8523  1.7133
  617SOL    HW218994   2.122   5.415   6.793  2.0392 -0.6364 -0.3805
  618SOL     OW18995   2.402   4.333   1.612 -0.0659 -0.3936  0.3925
  618SOL    HW118996   2.357   4.341   1.696  2.3851  1.8891  1.6475
  618SOL    HW218997   2.471   4.268   1.628  0.5019  0.1541  0.2379
  619SOL     OW18998   4.291   5.501   0.552 -0.0899 -0.4316  0.2217
  619SOL    HW118999   4.353   5.507   0.479  0.9884  0.6999  1.1851
  619SOL    HW219000   4.335   5.444   0.616 -0.9758 -1.3272  0.0526
  620SOL     OW19001   0.453   4.546   7.616 -0.7010 -0.1904 -0.0575
  620SOL    HW119002   0.449   4.636   7.648  2.5400  0.4109 -0.9657
  620SOL    HW219003   0.390   4.543   7.543 -2.7439  0.5039  1.5797
  621SOL     OW19004   4.098   3.810   5.568 -0.5272  0.1604 -0.9199
  621SOL    HW119005   4.088   3.901   5.542 -0.0310  1.1087  1.9155
  621SOL    HW219006   4.025   3.794   5.628  0.4106 -0.7522  0.0047
  622SOL     OW19007   1.201   0.111   0.765 -0.1742 -0.9770 -0.3603
  622SOL    HW119008   1.238   0.172   0.829 -2.1449  0.9477 -0.9225
  622SOL    HW219009   1.232   0.025   0.793  1.1777  0.0584  1.5967
  623SOL     OW19010   0.363   0.984   0.572 -0.2925 -0.6765 -0.3187
  623SOL    HW119011   0.430   1.027   0.520 -0.0201 -1.4537 -0.6326
  623SOL    HW219012   0.307   1.055   0.604  1.2532  0.0986  0.8042
  624SOL     OW19013   1.566   1.655   5.657 -0.4032  0.4166 -0.1966
  624SOL    HW119014   1.529   1.680   5.573 -1.2820 -1.6589 -0.4882
  624SOL    HW219015   1.609   1.571   5.640  1.9815  1.3327  0.8021
  625SOL     OW19016   5.534   1.190   6.408 -0.7914  0.2972 -0.5598
  625SOL    HW119017   5.567   1.128   6.472  0.5952  0.9310 -0.6096
  625SOL    HW219018   5.447   1.158   6.385  0.2824 -2.2555 -1.4192
  626SOL     OW19019   1.611   0.413   2.141 -0.2918 -0.0381 -0.3260
  626SOL    HW119020   1.629   0.326   2.104 -2.2416 -1.2024  1.2565
  626SOL    HW219021   1.538   0.446   2.089 -0.2279  0.2211 -0.2502
  627SOL     OW19022   3.307   2.250   0.729  0.1553 -1.2604  0.0559
  627SOL    HW119023   3.297   2.280   0.638  0.3153  0.8411  0.6963
  627SOL    HW219024   3.360   2.170   0.721  1.0082 -0.5950 -1.6420
  628SOL     OW19025   2.546   6.453   6.735 -0.1654 -0.4224 -0.4461
  628SOL    HW119026   2.539   6.376   6.792 -2.5323  0.8503  1.1543
  628SOL    HW219027   2.513   6.526   6.789  0.9614  1.5389 -2.2520
  629SOL     OW19028   5.126   1.178   0.330  0.8664  0.5960  0.3803
  629SOL    HW119029   5.137   1.089   0.297 -0.6301  0.5205  0.0188
  629SOL    HW219030   5.114   1.168   0.424  1.0146  0.4503  0.3836
  630SOL     OW19031   0.827   4.278   0.352  0.2958 -0.1329  0.4569
  630SOL    HW119032   0.752   4.324   0.315 -0.5033 -2.8539 -1.5767
  630SOL    HW219033   0.903   4.329   0.323 -0.6173  2.1082  1.7179
  631SOL     OW19034   3.311   1.036   1.369 -0.0170 -0.4088  0.2480
  631SOL    HW119035   3.270   1.122   1.378 -0.0719 -0.4642  0.5379
  631SOL    HW219036   3.287   0.990   1.449 -1.3178 -1.2587 -0.6044
  632SOL     OW19037   2.976   5.483   7.648 -0.2508  0.1909  0.3565
  632SOL    HW119038   2.916   5.527   7.709  0.3212 -0.3420  1.3368
  632SOL    HW219039   2.961   5.390   7.664 -0.0939  0.0453 -0.3297
  633SOL     OW19040   2.320   4.256   1.103 -0.0309 -0.0008  0.2728
  633SOL    HW119041   2.381   4.186   1.123  0.5692 -0.1001 -1.6603
  633SOL    HW219042   2.255   4.216   1.045 -0.2639  0.7837 -0.0249
  634SOL     OW19043   2.588   2.145   1.969 -1.0761 -0.0150  0.0133
  634SOL    HW119044   2.558   2.061   1.935 -0.3831  0.8900 -3.1415
  634SOL    HW219045   2.546   2.210   1.914  0.0784  1.6278  0.9795
  635SOL     OW19046   3.295   1.018   6.519 -0.1160 -0.2581  0.0680
  635SOL    HW119047   3.301   0.945   6.458  1.6428  0.6833 -0.9386
  635SOL    HW219048   3.202   1.042   6.518 -0.3461 -1.1009 -1.2260
  636SOL     OW19049   3.821   2.868   0.073 -0.4942  0.6755  0.6702
  636SOL    HW119050   3.743   2.893   0.123  0.1169 -1.6284  2.9759
  636SOL    HW219051   3.887   2.851   0.140  0.6647 -1.6805 -0.9702
  637SOL     OW19052   5.700   4.585   7.081 -0.0737  0.5998 -0.3117
  637SOL    HW119053   5.647   4.582   7.001  0.5017  2.5387 -0.8262
  637SOL    HW219054   5.790   4.598   7.049  0.3728 -0.1506  0.6132
  638SOL     OW19055   3.943   1.698   6.697  0.2060 -0.2700 -0.0094
  638SOL    HW119056   4.004   1.652   6.638 -0.6522 -0.5899 -0.6691
  638SOL    HW219057   3.877   1.632   6.718 -0.5434  0.3976 -0.2307
  639SOL     OW19058   2.305   3.696   0.601 -0.1223 -0.0504  0.4348
  639SOL    HW119059   2.283   3.621   0.657 -1.0429 -0.2080 -0.1173
  639SOL    HW219060   2.244   3.765   0.628 -1.1859 -0.4036 -0.9350
  640SOL     OW19061   1.291   1.081   5.305 -0.4805  0.4014  0.3478
  640SOL    HW119062   1.242   1.148   5.258 -1.3664 -1.0374 -0.8597
  640SOL    HW219063   1.274   1.099   5.398 -0.1228  2.2302  0.0844
  641SOL     OW19064   0.270   5.491   0.404 -0.1922 -0.3862  0.1633
  641SOL    HW119065   0.204   5.475   0.471 -0.3788 -1.2801 -0.2241
  641SOL    HW219066   0.278   5.408   0.357 -0.3865  0.3396 -1.2197
  642SOL     OW19067   1.484   2.867   5.781  0.4559  0.1265 -0.6070
  642SOL    HW119068   1.465   2.923   5.705 -1.4986 -1.0564 -1.0758
  642SOL    HW219069   1.533   2.793   5.745  0.3777  0.0488 -0.5571
  643SOL     OW19070   4.766   1.427   1.197  0.0694 -0.2288  0.1337
  643SOL    HW119071   4.848   1.433   1.149  0.6703 -0.2922  1.1368
  643SOL    HW219072   4.759   1.511   1.243 -0.0733 -0.5022  0.6097
  644SOL     OW19073   5.109   2.976   2.494 -0.8517  0.2075  0.3828
  644SOL    HW119074   5.078   2.927   2.570  1.0638 -0.6027  0.6975
  644SOL    HW219075   5.144   2.910   2.435 -2.3725  0.8173 -1.3107
  645SOL     OW19076   4.159   6.465   1.075  0.2424 -0.1345 -0.4540
  645SOL    HW119077   4.173   6.376   1.042  0.5753  0.3474 -1.6690
  645SOL    HW219078   4.212   6.521   1.017 -0.8419  0.9706 -0.4241
  646SOL     OW19079   1.400   3.922   0.978 -0.0820  0.1687  0.0389
  646SOL    HW119080   1.367   3.860   1.044  0.8817 -0.4425 -0.0228
  646SOL    HW219081   1.363   4.006   1.003 -2.1489 -0.5574 -0.3812
  647SOL     OW19082   6.025   3.570   5.631  0.2619 -0.1993 -0.5449
  647SOL    HW119083   6.015   3.492   5.577 -0.4647  0.1225 -0.8957
  647SOL    HW219084   5.965   3.557   5.704  2.3731 -1.3514  1.1018
  648SOL     OW19085   4.350   0.107   0.923  0.0079  0.3730 -0.2520
  648SOL    HW119086   4.326   0.145   0.838 -0.2101  2.4901  0.6901
  648SOL    HW219087   4.436   0.067   0.907 -0.2655  0.2583 -1.5884
  649SOL     OW19088   3.203   4.191   7.720  0.3479  0.0191 -0.0004
  649SOL    HW119089   3.224   4.276   7.760  3.1209 -0.0716 -1.0008
  649SOL    HW219090   3.264   4.185   7.646 -1.3678 -1.8767 -1.3444
  650SOL     OW19091   5.000   4.010   0.458  0.4808  0.0329  0.6126
  650SOL    HW119092   5.049   4.039   0.534 -2.2119  0.5860  2.2682
  650SOL    HW219093   4.983   3.917   0.475 -0.0460  0.1343  0.6530
  651SOL     OW19094   3.079   5.571   7.388 -0.3125  0.2741 -0.0743
  651SOL    HW119095   3.073   5.531   7.475 -1.3865 -1.9897 -1.0974
  651SOL    HW219096   2.995   5.617   7.377  0.2726  1.5246  0.4719
  652SOL     OW19097   1.164   3.132   6.836  0.1068  0.3913  0.3124
  652SOL    HW119098   1.107   3.129   6.759  1.5119  0.5292 -0.7831
  652SOL    HW219099   1.105   3.137   6.910 -1.2783  1.7590 -0.8343
  653SOL     OW19100   2.128   4.193   7.607 -0.2524 -0.0658 -0.0057
  653SOL    HW119101   2.080   4.264   7.565 -1.2977 -0.4985  0.4210
  653SOL    HW219102   2.067   4.157   7.671  0.8577 -0.2508  0.9941
  654SOL     OW19103   4.164   1.807   5.983  0.4116  0.1740  0.3471
  654SOL    HW119104   4.181   1.714   5.998 -1.0211 -0.3226 -0.8245
  654SOL    HW219105   4.235   1.836   5.926  0.9517 -0.1500  0.8446
  655SOL     OW19106   1.973   4.101   1.329 -0.1307  0.3846  0.2798
  655SOL    HW119107   2.002   4.125   1.417 -1.7133  1.7749  0.4729
  655SOL    HW219108   1.963   4.006   1.331 -0.6352  0.4471  1.7689
  656SOL     OW19109   3.949   4.091   1.963  0.4238 -0.2332  0.1324
  656SOL    HW119110   3.874   4.049   2.006 -1.8081  2.0818 -1.2246
  656SOL    HW219111   3.934   4.185   1.975  3.3371  0.3391  0.0595
  657SOL     OW19112   2.099   3.674   6.608  0.3391 -0.4855  0.0673
  657SOL    HW119113   2.054   3.595   6.637  1.2619 -0.7834  0.7135
  657SOL    HW219114   2.167   3.689   6.674  0.3782  0.6685 -0.2150
  658SOL     OW19115   5.711   3.842   7.637 -0.5617  0.3029 -0.5162
  658SOL    HW119116   5.729   3.824   7.545  0.2478 -1.3002 -0.0887
  658SOL    HW219117   5.793   3.821   7.682 -1.3591 -0.2830  0.7124
  659SOL     OW19118   3.755   2.418   0.141 -0.3002 -0.0029 -0.0909
  659SOL    HW119119   3.805   2.348   0.099 -2.6839 -2.0442  0.2007
  659SOL    HW219120   3.747   2.486   0.075 -0.0554 -1.1336 -1.3141
  660SOL     OW19121   5.382   0.625   0.040  0.3065  0.2021 -0.0606
  660SOL    HW119122   5.436   0.582  -0.026  1.0667 -0.3363  0.8808
  660SOL    HW219123   5.444   0.668   0.098 -0.1835 -1.1993  1.5870
  661SOL     OW19124   1.436   3.524   2.406  0.1627  0.5065  0.4479
  661SOL    HW119125   1.523   3.556   2.382  0.3443  0.8677  1.5166
  661SOL    HW219126   1.445   3.429   2.406  0.7956  0.5491  1.3231
  662SOL     OW19127   2.723   2.384   1.220 -0.1383 -0.0314  0.4643
  662SOL    HW119128   2.799   2.374   1.163 -1.4434 -0.8922 -1.2208
  662SOL    HW219129   2.729   2.474   1.252  0.5048  0.5901 -1.2728
  663SOL     OW19130   4.752   5.170   6.199  0.2961  0.6553 -0.2381
  663SOL    HW119131   4.813   5.120   6.253 -0.6086 -0.2083  0.0287
  663SOL    HW219132   4.802   5.245   6.168  1.3471  0.2096  0.3415
  664SOL     OW19133   0.575   4.892   5.965  0.4960 -0.4110 -0.2226
  664SOL    HW119134   0.631   4.824   6.003  1.1296  1.3231  2.2397
  664SOL    HW219135   0.637   4.957   5.932  0.0546  1.1975  1.8918
  665SOL     OW19136   1.739   1.228   0.748 -0.1213  0.5752 -0.2980
  665SOL    HW119137   1.735   1.164   0.677 -2.0176  1.3560 -0.9553
  665SOL    HW219138   1.659   1.214   0.798  1.4639 -0.4216  2.2124
  666SOL     OW19139   3.053   0.632   1.080  0.4754  0.3485  0.1375
  666SOL    HW119140   3.076   0.695   1.148  0.0011  0.4493  0.2018
  666SOL    HW219141   3.067   0.679   0.998  1.6501  0.0351  0.1289
  667SOL     OW19142   5.945   2.889   6.225  0.8444 -0.2060  0.0428
  667SOL    HW119143   5.929   2.804   6.184 -1.6837  0.3228 -0.2614
  667SOL    HW219144   5.954   2.949   6.151  1.8862 -0.0682  0.2646
  668SOL     OW19145   2.453   2.718   2.352  0.4543 -0.0244 -0.3817
  668SOL    HW119146   2.416   2.804   2.337  0.7410  0.2352  0.3493
  668SOL    HW219147   2.425   2.694   2.441 -0.6124 -1.2005 -0.9980
  669SOL     OW19148   2.720   3.052   7.136 -0.2639  0.3907 -0.7623
  669SOL    HW119149   2.643   3.010   7.100 -0.9298 -0.0373  1.0366
  669SOL    HW219150   2.791   3.030   7.076 -1.2516 -0.4874 -1.6290
  670SOL     OW19151   3.988   5.558   7.635 -0.1779  0.1735  0.5484
  670SOL    HW119152   3.971   5.643   7.674 -1.8147 -0.8709  2.3065
  670SOL    HW219153   3.929   5.553   7.560  0.7505  0.9773 -0.2746
  671SOL     OW19154   3.561   5.363   6.595 -0.4787  0.8936 -0.7471
  671SOL    HW119155   3.467   5.357   6.575 -0.3876 -1.0022 -0.8176
  671SOL    HW219156   3.603   5.308   6.529  0.5298  0.5430  0.1509
  672SOL     OW19157   4.618   0.308   7.123  0.0994  0.2535  0.4985
  672SOL    HW119158   4.588   0.394   7.095 -0.0080  0.2159  0.4982
  672SOL    HW219159   4.601   0.307   7.217 -0.8973 -0.1749  0.3165
  673SOL     OW19160   6.187   1.323   0.235 -0.0486 -0.1818 -0.0582
  673SOL    HW119161   6.232   1.258   0.290  0.8095 -0.3776 -0.9539
  673SOL    HW219162   6.111   1.277   0.200  1.0743 -1.0656 -1.4639
  674SOL     OW19163   4.623   3.474   2.142  0.2320 -0.7719  0.3830
  674SOL    HW119164   4.546   3.466   2.086 -0.0791  3.3657 -0.0829
  674SOL    HW219165   4.598   3.430   2.223 -1.9437 -1.0332 -0.3476
  675SOL     OW19166   1.990   3.697   1.945 -0.3840 -0.2424  0.2607
  675SOL    HW119167   2.035   3.773   1.981  0.0031  0.4225 -1.5226
  675SOL    HW219168   1.938   3.732   1.873 -0.5850 -1.5937 -0.2788
  676SOL     OW19169   1.262   0.742   7.672 -0.6687 -0.0362 -0.1530
  676SOL    HW119170   1.276   0.822   7.723 -0.1296  0.2087 -0.6676
  676SOL    HW219171   1.263   0.671   7.737 -0.8120  0.3400  0.2646
  677SOL     OW19172   2.565   6.313   6.989 -0.4280 -0.3504 -0.5470
  677SOL    HW119173   2.503   6.267   7.045 -0.4892 -0.0059 -0.3243
  677SOL    HW219174   2.587   6.392   7.038 -1.6842  0.7559 -1.6815
  678SOL     OW19175   1.362   3.492   1.462  0.1826  0.6035  0.3924
  678SOL    HW119176   1.358   3.478   1.557  0.0231 -0.5353  0.2376
  678SOL    HW219177   1.439   3.442   1.434 -0.1781  0.3572 -0.1686
  679SOL     OW19178   3.903   2.847   2.321 -0.2558 -0.6195  0.7805
  679SOL    HW119179   3.824   2.900   2.313  1.0055  1.1096 -1.2886
  679SOL    HW219180   3.960   2.899   2.378 -0.4745 -1.7327  2.0546
  680SOL     OW19181   5.154   5.442   0.876 -0.4355  0.4968  0.2949
  680SOL    HW119182   5.121   5.379   0.940  1.4478 -0.0733  0.7620
  680SOL    HW219183   5.157   5.525   0.924 -0.1100  0.3091  0.6068
  681SOL     OW19184   2.521   3.150   1.327  0.4909  0.0015 -0.4010
  681SOL    HW119185   2.490   3.066   1.360  0.6473 -0.7256 -2.0073
  681SOL    HW219186   2.610   3.132   1.295  0.2139  0.5609 -1.5286
  682SOL     OW19187   5.684   5.488   7.448 -0.1622 -0.1469  0.4300
  682SOL    HW119188   5.696   5.566   7.502 -0.1753  0.5821 -0.5829
  682SOL    HW219189   5.636   5.427   7.504  1.0313  0.0352  1.7090
  683SOL     OW19190   4.833   1.528   0.263 -0.0060  0.0038 -0.3131
  683SOL    HW119191   4.739   1.529   0.244  0.0575  0.4505 -0.6193
  683SOL    HW219192   4.850   1.612   0.304  0.4233  0.3191 -1.1106
  684SOL     OW19193   2.838   6.286   7.246 -0.4090 -0.0694 -0.5985
  684SOL    HW119194   2.778   6.301   7.320  1.1094 -0.1964  0.7010
  684SOL    HW219195   2.816   6.355   7.184 -1.0346  0.6886  0.4243
  685SOL     OW19196   0.805   4.895   7.134 -0.3526 -0.1780 -0.2655
  685SOL    HW119197   0.873   4.959   7.156  0.0066 -0.3440 -0.8651
  685SOL    HW219198   0.753   4.938   7.066 -1.7821  0.5489  1.2190
  686SOL     OW19199   0.098   5.847   0.675  0.5280  0.0257 -0.3835
  686SOL    HW119200   0.109   5.938   0.703  0.7669 -0.6038  1.7403
  686SOL    HW219201   0.009   5.824   0.702  0.9834 -0.7982  0.4791
  687SOL     OW19202   4.245   0.554   7.034 -0.2770 -0.3602 -0.0272
  687SOL    HW119203   4.181   0.482   7.033  0.5483 -1.1284  0.6499
  687SOL    HW219204   4.192   0.633   7.024 -1.4348 -0.9083  1.3711
  688SOL     OW19205   4.018   5.437   1.934  0.2355  0.7647  0.3631
  688SOL    HW119206   4.104   5.457   1.897  0.3405 -0.5066 -0.1381
  688SOL    HW219207   3.960   5.504   1.897  1.0942  1.9543  1.1280
  689SOL     OW19208   2.845   3.385   0.503  0.0450  0.0710 -0.0637
  689SOL    HW119209   2.876   3.303   0.542  0.7446  1.3387  2.2314
  689SOL    HW219210   2.754   3.367   0.480  0.6571 -1.8383 -1.1970
  690SOL     OW19211   5.586   4.274   6.468  0.0992  0.4301 -0.0325
  690SOL    HW119212   5.516   4.323   6.511  1.1622 -0.4378  3.0162
  690SOL    HW219213   5.554   4.184   6.465  0.8876  0.0917  1.0621
  691SOL     OW19214   4.391   1.831   0.113 -0.1742 -0.0239 -0.3080
  691SOL    HW119215   4.451   1.837   0.038 -0.7682 -0.7496 -0.8499
  691SOL    HW219216   4.304   1.822   0.074 -0.7422  1.5852  0.4569
  692SOL     OW19217   3.636   1.713   1.951 -0.0628 -0.1000 -0.0660
  692SOL    HW119218   3.604   1.781   1.892 -0.3008  0.3155  0.5340
  692SOL    HW219219   3.650   1.758   2.035 -1.4462 -1.0300  0.7088
  693SOL     OW19220   0.493   4.520   1.555 -0.5117 -0.0174 -0.4196
  693SOL    HW119221   0.478   4.523   1.649 -0.4205 -1.2715 -0.3490
  693SOL    HW219222   0.434   4.452   1.523  1.3941 -1.6121 -0.8211
  694SOL     OW19223   1.444   4.619   6.531 -0.6360  0.2526  0.2617
  694SOL    HW119224   1.452   4.561   6.455  2.5268 -0.1768  0.8088
  694SOL    HW219225   1.433   4.559   6.605 -1.4623  0.5704  0.4041
  695SOL     OW19226   0.701   5.573   7.107  0.3365  0.1294  0.5429
  695SOL    HW119227   0.755   5.580   7.029  0.0852 -1.2486  0.2121
  695SOL    HW219228   0.624   5.626   7.089  0.1490 -0.4025 -0.2797
  696SOL     OW19229   0.025   5.489   7.616 -0.1406 -0.1815  0.2661
  696SOL    HW119230   0.064   5.484   7.704 -2.4735  0.2863  1.4063
  696SOL    HW219231   0.002   5.399   7.594  1.6204 -0.4854 -0.4891
  697SOL     OW19232   5.706   4.900   2.032 -0.0227 -0.7226 -0.3445
  697SOL    HW119233   5.740   4.880   2.119  0.1763  1.2482  0.0891
  697SOL    HW219234   5.621   4.942   2.049 -0.7077 -1.7315 -1.1938
  698SOL     OW19235   3.766   0.743   5.579  0.8240  0.1191 -0.6780
  698SOL    HW119236   3.813   0.807   5.526  1.6206  0.0806 -0.0436
  698SOL    HW219237   3.693   0.793   5.617  1.4407  0.6737 -0.1831
  699SOL     OW19238   0.179   1.833   7.201  0.5235  0.1770 -0.6776
  699SOL    HW119239   0.133   1.753   7.222 -0.2671  1.0908  1.3465
  699SOL    HW219240   0.269   1.817   7.229 -0.0555  0.6120  1.6569
  700SOL     OW19241   2.153   3.258   0.305  0.3850  0.2349 -0.2431
  700SOL    HW119242   2.179   3.345   0.276  1.0816  0.3507  0.6651
  700SOL    HW219243   2.230   3.224   0.351 -0.3194 -0.3232  0.5619
  701SOL     OW19244   2.231   1.170   7.044 -0.1172 -0.2566  0.4909
  701SOL    HW119245   2.223   1.220   7.125 -0.3585 -2.1353  1.6878
  701SOL    HW219246   2.325   1.159   7.031 -0.0188  1.1576 -0.2567
  702SOL     OW19247   0.469   2.686   2.622  0.1347  0.9038 -0.3490
  702SOL    HW119248   0.435   2.776   2.630  0.2473  0.8234  1.6087
  702SOL    HW219249   0.418   2.648   2.551 -2.3199  1.5061  0.9649
  703SOL     OW19250   6.169   1.690   2.296 -0.1231  0.6608 -0.3193
  703SOL    HW119251   6.148   1.739   2.376 -0.8864 -0.2983  0.0897
  703SOL    HW219252   6.140   1.601   2.315  0.3286  0.2729 -1.4189
  704SOL     OW19253   3.602   2.586   1.462  0.2705 -0.2254  0.7118
  704SOL    HW119254   3.506   2.586   1.453  0.2757 -1.8321  0.2781
  704SOL    HW219255   3.626   2.678   1.460 -1.1970  0.1806 -0.1498
  705SOL     OW19256   3.041   3.874   0.570 -0.2705 -0.4867 -0.0288
  705SOL    HW119257   3.088   3.877   0.486 -1.6205 -2.4771 -0.9371
  705SOL    HW219258   3.057   3.785   0.602  0.3114  0.2765  1.9398
  706SOL     OW19259   3.420   0.355   6.181 -0.1933 -0.6854 -0.0860
  706SOL    HW119260   3.378   0.269   6.172 -1.5247 -0.2248  1.2392
  706SOL    HW219261   3.394   0.403   6.103  0.0631 -1.2773 -0.5461
  707SOL     OW19262   1.159   4.129   0.356 -0.2472  0.1576  0.1864
  707SOL    HW119263   1.170   4.157   0.265 -1.3185 -0.0342 -0.0171
  707SOL    HW219264   1.065   4.135   0.371  0.1103  2.6251  2.0597
  708SOL     OW19265   2.117   2.657   0.633  0.6957  0.0574  0.1452
  708SOL    HW119266   2.106   2.712   0.555  0.4220  0.6168  0.5788
  708SOL    HW219267   2.202   2.614   0.620  0.1542 -0.7443 -1.0168
  709SOL     OW19268   1.393   1.373   7.128 -0.0930  0.2003 -0.4121
  709SOL    HW119269   1.482   1.348   7.153  0.5726  2.0705 -0.7829
  709SOL    HW219270   1.361   1.426   7.200 -0.0603  1.3804 -1.2373
  710SOL     OW19271   5.157   3.037   0.942  0.1118  0.3368  0.4590
  710SOL    HW119272   5.211   2.963   0.969 -1.4556 -1.2853 -0.6122
  710SOL    HW219273   5.215   3.113   0.946  2.6437 -1.3760 -1.2274
  711SOL     OW19274   3.308   3.552   6.393  0.2352 -0.2515  0.4880
  711SOL    HW119275   3.356   3.632   6.412 -0.6598  0.1033  1.3639
  711SOL    HW219276   3.251   3.575   6.319  1.2663 -0.6269 -0.4467
  712SOL     OW19277   6.172   1.183   1.815 -0.5696 -0.1986 -0.7159
  712SOL    HW119278   6.079   1.174   1.795 -1.2166  2.1356  0.7698
  712SOL    HW219279   6.173   1.239   1.894  2.0906  0.1191 -0.9114
  713SOL     OW19280   4.107   0.098   7.665  0.2217 -0.5419  0.3533
  713SOL    HW119281   4.154   0.132   7.741  0.1832 -0.5515  0.3813
  713SOL    HW219282   4.145   0.012   7.648  2.6674  0.8115 -1.7371
  714SOL     OW19283   4.038   4.290   1.000 -0.2009  0.3491  0.0393
  714SOL    HW119284   4.098   4.360   1.026 -1.0100  0.6237  1.2501
  714SOL    HW219285   3.951   4.328   1.008 -0.6866 -0.9157  1.2449
  715SOL     OW19286   4.650   1.087   7.235  0.2529 -0.0735 -0.2552
  715SOL    HW119287   4.557   1.111   7.228 -0.0533 -1.4699 -1.5752
  715SOL    HW219288   4.660   1.013   7.175  1.7012 -1.4962  1.6310
  716SOL     OW19289   1.421   3.055   1.635 -0.2060  0.3785 -0.3750
  716SOL    HW119290   1.456   3.120   1.696  0.4204 -0.0862 -0.2183
  716SOL    HW219291   1.394   2.981   1.691 -0.1672  0.1856 -0.6083
  717SOL     OW19292   5.626   0.636   5.760 -0.0250  0.4754 -0.5140
  717SOL    HW119293   5.668   0.568   5.814 -0.7035  0.3123 -0.1770
  717SOL    HW219294   5.686   0.648   5.687 -0.1218 -0.8609 -0.8488
  718SOL     OW19295   3.274   1.200   5.692 -0.1684  0.1401  0.0329
  718SOL    HW119296   3.222   1.245   5.625 -0.9248 -1.3378 -0.4207
  718SOL    HW219297   3.342   1.263   5.716 -1.9987  2.1027  0.4799
  719SOL     OW19298   0.818   4.709   1.473  0.1631  0.2734 -0.0981
  719SOL    HW119299   0.757   4.692   1.401  0.0473  1.8160 -0.4050
  719SOL    HW219300   0.763   4.711   1.551  0.2941 -1.4414  0.0687
  720SOL     OW19301   1.086   5.477   1.398  0.0823  0.2495  0.3243
  720SOL    HW119302   1.128   5.452   1.316  2.0779 -0.0678  1.3717
  720SOL    HW219303   1.146   5.444   1.466 -2.9101 -2.1762  2.0489
  721SOL     OW19304   5.047   3.559   0.668  0.4091  0.0883  0.2226
  721SOL    HW119305   4.980   3.491   0.666  0.2479  0.2529 -1.5694
  721SOL    HW219306   5.005   3.633   0.711 -0.4558  0.0591 -0.5388
  722SOL     OW19307   0.196   3.011   5.949  0.1196 -0.0759  0.3274
  722SOL    HW119308   0.242   2.986   5.869 -0.4611  0.4311 -0.1749
  722SOL    HW219309   0.104   2.992   5.930 -0.2137  1.4722  0.3012
  723SOL     OW19310   4.494   3.141   0.980 -0.1463  0.3761 -0.0396
  723SOL    HW119311   4.479   3.069   1.040  0.6314  1.9627  2.2235
  723SOL    HW219312   4.556   3.198   1.026 -0.3416  2.2419 -1.9002
  724SOL     OW19313   0.405   3.990   7.045 -0.7852 -0.2416 -0.0924
  724SOL    HW119314   0.311   3.983   7.065 -1.4761  0.3372 -2.6681
  724SOL    HW219315   0.437   3.900   7.049 -1.3686 -0.4149  1.0862
  725SOL     OW19316   4.633   0.286   0.665  0.0745 -0.3383  0.3696
  725SOL    HW119317   4.670   0.303   0.579 -1.5632 -1.8522 -0.7153
  725SOL    HW219318   4.655   0.195   0.683 -2.5133 -1.1578 -0.1063
  726SOL     OW19319   0.623   4.362   7.375 -0.1538 -0.2384  0.9298
  726SOL    HW119320   0.531   4.387   7.368 -0.3389 -0.3919  2.4489
  726SOL    HW219321   0.668   4.443   7.400  0.0759 -0.2358  0.5126
  727SOL     OW19322   5.922   6.016   1.775 -0.4106  0.3924  0.1046
  727SOL    HW119323   5.846   6.026   1.718 -0.0907 -1.1615 -0.6447
  727SOL    HW219324   5.995   6.051   1.724 -0.1333 -0.9475 -0.4601
  728SOL     OW19325   1.243   1.361   5.209  0.2120  0.4031  0.3397
  728SOL    HW119326   1.296   1.440   5.223 -0.5468  0.9124  0.3761
  728SOL    HW219327   1.283   1.320   5.133 -0.5125  1.8064 -0.8500
  729SOL     OW19328   6.108   2.542   1.677 -0.0016 -0.3865  0.1510
  729SOL    HW119329   6.160   2.464   1.697  1.5289  0.3848 -0.6858
  729SOL    HW219330   6.042   2.545   1.747  0.8839 -1.5548  1.0828
  730SOL     OW19331   6.258   0.433   6.625 -0.1238 -0.1211  0.5986
  730SOL    HW119332   6.350   0.459   6.620 -0.1445  0.4890  2.3674
  730SOL    HW219333   6.227   0.434   6.535  1.1972  1.2531  0.1147
  731SOL     OW19334   4.404   4.758   0.850 -0.2402  0.4016  0.5363
  731SOL    HW119335   4.366   4.815   0.783 -0.8768 -1.1582 -0.4832
  731SOL    HW219336   4.476   4.714   0.805 -0.0201  0.0894  1.1893
  732SOL     OW19337   1.106   2.926   6.225  0.0468 -0.4281  0.1276
  732SOL    HW119338   1.038   2.867   6.191  0.0491 -0.5875  0.4055
  732SOL    HW219339   1.150   2.876   6.293  0.7398 -0.4874 -0.3505
  733SOL     OW19340   1.960   4.378   1.293  0.2527  0.2664 -0.0835
  733SOL    HW119341   1.972   4.285   1.272  0.0121  0.0029  0.9106
  733SOL    HW219342   1.974   4.384   1.387 -0.3439  1.1391 -0.0342
  734SOL     OW19343   4.358   3.722   1.601 -0.1932 -0.3549 -0.1950
  734SOL    HW119344   4.283   3.686   1.555  0.8842 -0.6206 -1.8013
  734SOL    HW219345   4.358   3.677   1.686 -1.7061 -0.4824 -0.2293
  735SOL     OW19346   1.431   0.313   0.423 -0.0378  0.1550  0.1680
  735SOL    HW119347   1.423   0.217   0.426 -0.2044  0.2039  2.7071
  735SOL    HW219348   1.516   0.331   0.463 -0.0148  1.0901 -0.2852
  736SOL     OW19349   5.407   0.552   7.414  0.8342  0.0938  0.1448
  736SOL    HW119350   5.338   0.520   7.473 -0.2022  1.3813 -0.3133
  736SOL    HW219351   5.462   0.475   7.398 -1.4387 -1.4845 -0.7913
  737SOL     OW19352   3.376   1.515   7.351  0.3246  0.1912 -0.3588
  737SOL    HW119353   3.370   1.442   7.413 -0.0483  0.4385 -0.0976
  737SOL    HW219354   3.312   1.579   7.383  1.5970  1.2320  0.2248
  738SOL     OW19355   6.163   2.733   0.990 -0.4343 -0.5534  0.1302
  738SOL    HW119356   6.231   2.778   0.940  0.2177  0.7577  2.0947
  738SOL    HW219357   6.081   2.762   0.951  0.0611 -0.2282 -0.6974
  739SOL     OW19358   6.430   3.887   6.088 -0.9006  0.5928 -0.0379
  739SOL    HW119359   6.481   3.966   6.107  0.6428 -0.6477  1.2415
  739SOL    HW219360   6.466   3.855   6.005 -2.1203  1.6367 -1.0210
  740SOL     OW19361   5.814   0.677   5.570 -0.0567 -0.3336  0.6143
  740SOL    HW119362   5.900   0.647   5.540 -0.6743 -1.2414 -0.3507
  740SOL    HW219363   5.762   0.684   5.490 -0.2287  2.6044  0.8864
  741SOL     OW19364   3.778   2.272   5.473  0.8444 -0.1014  0.0455
  741SOL    HW119365   3.742   2.223   5.547  1.1265  1.1816  1.0570
  741SOL    HW219366   3.728   2.353   5.470  0.5819 -0.2868 -1.4319
  742SOL     OW19367   2.293   2.328   1.064 -0.3049  0.0339 -0.0956
  742SOL    HW119368   2.382   2.363   1.060 -0.1568  0.0999  2.2495
  742SOL    HW219369   2.284   2.276   0.984  0.7509  2.3927 -1.8947
  743SOL     OW19370   0.309   0.006   6.199  0.1803 -0.2118 -0.1078
  743SOL    HW119371   0.398  -0.026   6.184  0.9847  2.5013 -1.8575
  743SOL    HW219372   0.278   0.033   6.112 -0.9843  2.0696  0.9284
  744SOL     OW19373   2.449   2.284   1.777  0.1348 -0.4419  0.4787
  744SOL    HW119374   2.397   2.275   1.697  0.7058 -0.0820  0.0572
  744SOL    HW219375   2.399   2.343   1.832 -0.6186 -1.2680  0.6914
  745SOL     OW19376   2.599   2.648   7.759 -0.3989  0.2977 -0.0633
  745SOL    HW119377   2.511   2.648   7.796 -0.2831 -1.2528  0.2975
  745SOL    HW219378   2.629   2.558   7.771  1.2118  0.7894 -0.2480
  746SOL     OW19379   6.322   4.410   0.026 -0.4751  0.1380  0.0362
  746SOL    HW119380   6.245   4.458   0.056  0.0806  0.6896  0.6046
  746SOL    HW219381   6.323   4.424  -0.069 -1.0421  0.1560  0.0270
  747SOL     OW19382   2.650   1.718   5.220  0.6700  0.4195  0.4691
  747SOL    HW119383   2.712   1.739   5.290  0.4107 -1.0819  1.1949
  747SOL    HW219384   2.626   1.627   5.236 -1.5053  0.8677  0.0281
  748SOL     OW19385   3.677   1.961   0.848 -0.0683 -0.2433  0.5318
  748SOL    HW119386   3.766   1.995   0.859 -0.1447  0.6588 -1.2824
  748SOL    HW219387   3.642   1.955   0.937  0.5854  2.7959  1.0938
  749SOL     OW19388   5.295   3.150   1.234  0.3959 -0.4430 -0.4133
  749SOL    HW119389   5.360   3.093   1.193 -0.1817 -1.8199  0.4973
  749SOL    HW219390   5.216   3.096   1.241  0.0496  0.1908  1.1632
  750SOL     OW19391   2.094   1.809   6.010 -0.3524  0.2001  0.0726
  750SOL    HW119392   2.046   1.796   6.092 -0.9279  1.2733 -0.0702
  750SOL    HW219393   2.025   1.825   5.945 -0.1439 -3.4038 -1.2799
  751SOL     OW19394   0.316   5.330   0.687 -0.3839  0.2491 -0.0321
  751SOL    HW119395   0.298   5.408   0.740  1.2486  0.3039  0.5143
  751SOL    HW219396   0.408   5.310   0.706 -0.3757 -0.9787 -1.2558
  752SOL     OW19397   6.387   5.636   6.559 -0.2198  0.1762 -0.1791
  752SOL    HW119398   6.463   5.630   6.501 -0.0548  1.6646 -0.1584
  752SOL    HW219399   6.419   5.685   6.635 -0.9377 -0.1122  0.3241
  753SOL     OW19400   5.598   5.618   5.867 -0.1243 -0.2664 -0.6073
  753SOL    HW119401   5.578   5.525   5.877  3.2457 -1.4236 -2.7485
  753SOL    HW219402   5.535   5.650   5.803 -2.2174 -0.6159  1.1722
  754SOL     OW19403   6.005   5.759   0.151 -0.1300  0.4779  0.2786
  754SOL    HW119404   5.943   5.810   0.203  0.4606  1.4627  0.0449
  754SOL    HW219405   5.976   5.770   0.061 -0.7006 -0.5946  0.3231
  755SOL     OW19406   1.422   4.980   7.553  0.2115 -0.5860  0.4333
  755SOL    HW119407   1.343   5.027   7.528 -0.1106 -1.4446 -0.1886
  755SOL    HW219408   1.491   5.019   7.499  0.1960  0.0380  0.8472
  756SOL     OW19409   3.872   0.661   7.351 -0.3255 -0.1955 -0.5521
  756SOL    HW119410   3.965   0.684   7.349 -0.4640  0.7871  1.6524
  756SOL    HW219411   3.871   0.568   7.369  0.2213 -0.2318 -0.6843
  757SOL     OW19412   2.755   6.441   1.097 -0.2226 -0.3273  0.6245
  757SOL    HW119413   2.742   6.451   1.003 -0.2238 -0.4804  0.6087
  757SOL    HW219414   2.850   6.433   1.107 -0.2881 -1.3437  0.5370
  758SOL     OW19415   2.025   0.186   7.390 -0.0446 -0.9042  0.3372
  758SOL    HW119416   1.987   0.177   7.303 -0.3304 -1.9594  0.5551
  758SOL    HW219417   2.100   0.243   7.378 -0.2224 -0.8465 -0.5547
  759SOL     OW19418   0.867   0.698   0.906 -0.3054  0.0162  0.3612
  759SOL    HW119419   0.891   0.741   0.823 -1.5632 -0.7553 -0.4357
  759SOL    HW219420   0.927   0.623   0.911 -0.4294 -0.1120 -0.0140
  760SOL     OW19421   0.968   0.992   1.303  0.0972  0.2219 -0.1195
  760SOL    HW119422   0.908   1.012   1.376  0.5919 -0.4499  0.4862
  760SOL    HW219423   0.919   0.932   1.247 -0.0628  0.2623 -0.0245
  761SOL     OW19424   3.917   2.077   0.844  0.7912  0.8929  0.4089
  761SOL    HW119425   3.907   2.171   0.859  0.2423  0.8438  0.3759
  761SOL    HW219426   4.008   2.059   0.866  0.4328  1.0982  2.2283
  762SOL     OW19427   0.967   6.341   6.701 -0.3898 -0.2210  0.5924
  762SOL    HW119428   0.941   6.416   6.754  2.2369  0.3171  1.2665
  762SOL    HW219429   0.988   6.377   6.615  0.2608 -0.2532  0.7300
  763SOL     OW19430   4.350   2.311   1.097 -0.2454 -0.4701 -0.2463
  763SOL    HW119431   4.421   2.357   1.142 -1.3921  0.7739  0.3963
  763SOL    HW219432   4.392   2.267   1.023  1.0927  0.7266 -0.2393
  764SOL     OW19433   0.482   3.736   7.098 -0.0235  0.4512 -0.3875
  764SOL    HW119434   0.432   3.684   7.161 -0.8377  1.8355  0.1741
  764SOL    HW219435   0.479   3.686   7.017 -0.1999 -0.6779  0.2942
  765SOL     OW19436   3.655   4.539   2.015 -0.3444  0.4072 -0.4204
  765SOL    HW119437   3.713   4.464   2.002  0.1619  0.9089 -1.1391
  765SOL    HW219438   3.655   4.554   2.109  1.5999  1.0996 -0.4891
  766SOL     OW19439   1.281   2.180   1.499 -0.2388  0.0849 -0.8016
  766SOL    HW119440   1.363   2.136   1.476  0.5371  0.9881  0.1468
  766SOL    HW219441   1.219   2.109   1.514  0.6248 -0.6500 -0.6225
  767SOL     OW19442   4.840   5.435   0.484 -0.4045  0.7280  0.2531
  767SOL    HW119443   4.913   5.465   0.537 -1.1181  0.1464  1.6243
  767SOL    HW219444   4.800   5.515   0.449  0.0412  1.1252  0.6483
  768SOL     OW19445   5.712   4.875   5.532 -0.0559  0.2663  0.5581
  768SOL    HW119446   5.646   4.842   5.594 -2.0945 -0.0021 -1.6087
  768SOL    HW219447   5.791   4.826   5.552 -1.1497 -1.0665  1.7891
  769SOL     OW19448   1.918   3.145   1.511  0.5981  0.4314  1.0026
  769SOL    HW119449   1.891   3.074   1.452 -0.0569  1.2228  0.3386
  769SOL    HW219450   2.012   3.155   1.494 -0.1579  3.2030 -2.8260
  770SOL     OW19451   3.134   6.285   7.216 -0.3414  0.0304 -0.0398
  770SOL    HW119452   3.041   6.275   7.237 -0.2657 -1.1908 -0.2020
  770SOL    HW219453   3.168   6.195   7.214  0.4453  0.3351 -1.7716
  771SOL     OW19454   0.202   3.302   5.328 -0.1451 -0.0507  0.1553
  771SOL    HW119455   0.236   3.385   5.362  1.8995 -1.4741  1.8633
  771SOL    HW219456   0.273   3.268   5.275 -0.7927 -0.9145 -0.1731
  772SOL     OW19457   2.393   2.719   5.995  0.0012  0.2011  0.0880
  772SOL    HW119458   2.315   2.758   6.034 -0.2804  0.7836 -1.0059
  772SOL    HW219459   2.438   2.792   5.951  0.7888 -0.2544  0.1041
  773SOL     OW19460   4.744   4.404   6.204 -0.5195  0.2991  0.7080
  773SOL    HW119461   4.770   4.448   6.122 -1.3838 -0.5030 -0.0165
  773SOL    HW219462   4.719   4.476   6.262 -0.2488  0.8677  0.1457
  774SOL     OW19463   0.771   0.394   2.311  0.3302  0.8049 -0.1192
  774SOL    HW119464   0.790   0.300   2.310 -0.4166  0.6513 -0.7274
  774SOL    HW219465   0.845   0.433   2.359  2.6851  0.3495 -3.1017
  775SOL     OW19466   6.458   6.281   1.904  0.0501 -0.2290  0.3365
  775SOL    HW119467   6.522   6.320   1.963 -0.0470 -0.1194  0.3684
  775SOL    HW219468   6.499   6.285   1.818 -0.2153  0.5086  0.2427
  776SOL     OW19469   3.459   2.045   0.154 -0.6192  0.3159  0.5303
  776SOL    HW119470   3.446   2.077   0.065 -2.4888 -0.2382  0.5576
  776SOL    HW219471   3.406   2.104   0.209 -0.0727  0.2080  1.1913
  777SOL     OW19472   4.445   4.899   6.525  0.2474  0.5036 -0.4408
  777SOL    HW119473   4.364   4.941   6.552  1.1308  1.5624  0.6900
  777SOL    HW219474   4.465   4.838   6.596  1.4513  1.7089  0.2987
  778SOL     OW19475   1.632   4.237   6.721 -0.5045 -0.2304 -0.0934
  778SOL    HW119476   1.725   4.216   6.730 -0.8735 -1.6896  0.6066
  778SOL    HW219477   1.594   4.212   6.805 -1.4873  0.6416 -0.2659
  779SOL     OW19478   0.403   6.306   7.764  0.4215 -0.4316  0.1393
  779SOL    HW119479   0.440   6.356   7.692  0.4602 -0.8439 -0.1285
  779SOL    HW219480   0.309   6.301   7.745  0.4134 -0.4376  0.1797
  780SOL     OW19481   0.088   3.026   6.818  0.0119  0.2076 -0.6280
  780SOL    HW119482   0.002   2.995   6.792 -1.2053  1.4313  1.6375
  780SOL    HW219483   0.146   2.950   6.805 -1.5889 -0.9846 -1.1519
  781SOL     OW19484   1.101   0.229   7.474 -0.5346 -0.1373 -0.1557
  781SOL    HW119485   1.025   0.249   7.529 -0.6493 -0.7198 -0.0915
  781SOL    HW219486   1.124   0.312   7.433 -0.8254  0.1737  0.3057
  782SOL     OW19487   1.381   4.646   7.366 -0.3033 -0.3536 -0.3081
  782SOL    HW119488   1.297   4.663   7.322  0.0598  0.8222 -0.5891
  782SOL    HW219489   1.376   4.554   7.393 -1.5723 -0.3737 -0.5518
  783SOL     OW19490   1.302   5.432   1.234  0.9397  0.1969 -0.1488
  783SOL    HW119491   1.363   5.499   1.202 -0.1163  0.2101 -2.2517
  783SOL    HW219492   1.268   5.389   1.156  0.2730 -1.6710  1.0737
  784SOL     OW19493   3.013   5.278   6.741 -0.0830  0.6098  0.2126
  784SOL    HW119494   3.073   5.321   6.680 -1.3345 -0.1598 -1.6647
  784SOL    HW219495   3.048   5.190   6.751 -1.7193 -0.4739 -2.3663
  785SOL     OW19496   0.076   4.125   6.072 -0.0065  0.1081  0.0897
  785SOL    HW119497   0.050   4.176   5.996  0.4804 -2.1640 -1.7110
  785SOL    HW219498   0.171   4.134   6.076 -0.0741  0.5985  0.7423
  786SOL     OW19499   1.737   6.327   5.763  0.7664 -0.6273  0.3553
  786SOL    HW119500   1.735   6.317   5.858  1.3804 -1.0816  0.3246
  786SOL    HW219501   1.711   6.241   5.729  0.9176 -0.5775  0.1100
  787SOL     OW19502   3.997   2.804   6.413 -0.1402  0.0780 -0.0886
  787SOL    HW119503   4.033   2.882   6.370 -1.1643 -0.2313 -1.5857
  787SOL    HW219504   4.074   2.754   6.440  0.5503  0.4886 -1.2124
  788SOL     OW19505   4.500   5.499   5.561  0.5638  0.5767  0.1807
  788SOL    HW119506   4.439   5.426   5.576 -0.6880  0.5968 -3.5555
  788SOL    HW219507   4.584   5.468   5.593 -0.5235 -1.3272  1.3580
  789SOL     OW19508   4.748   5.116   7.536 -0.2925 -0.5534 -0.0569
  789SOL    HW119509   4.832   5.153   7.512 -0.6341 -0.2501 -0.7926
  789SOL    HW219510   4.715   5.076   7.456 -1.4631  0.5112 -0.1435
  790SOL     OW19511   1.491   1.016   6.768  0.5925 -0.1193 -0.6130
  790SOL    HW119512   1.432   1.076   6.813 -0.7773 -0.4716 -1.8193
  790SOL    HW219513   1.567   1.009   6.824 -1.9829 -2.5316  3.0182
  791SOL     OW19514   2.160   3.388   1.578 -0.1502 -0.3096 -0.1824
  791SOL    HW119515   2.170   3.338   1.497  0.5487 -0.7576  0.1643
  791SOL    HW219516   2.076   3.433   1.569 -0.1209 -0.4220 -1.1147
  792SOL     OW19517   1.998   5.444   6.013  0.0290  0.1583 -0.3399
  792SOL    HW119518   2.080   5.492   6.018 -0.0122  0.1062  1.9508
  792SOL    HW219519   2.024   5.352   6.005  0.4251 -0.2195  3.3662
  793SOL     OW19520   1.468   0.634   6.878  0.0467  0.7397  0.2447
  793SOL    HW119521   1.503   0.599   6.796 -1.1764  1.1341 -0.4734
  793SOL    HW219522   1.539   0.623   6.941  0.2143 -1.7219 -0.2704
  794SOL     OW19523   5.844   6.071   2.148 -0.5421 -0.3449  0.2120
  794SOL    HW119524   5.866   6.132   2.218 -0.1662 -0.5772  0.2946
  794SOL    HW219525   5.920   6.013   2.141  0.4299  1.0362 -1.8657
  795SOL     OW19526   0.905   5.718   6.638 -0.7128  0.0316  0.2715
  795SOL    HW119527   0.880   5.686   6.552 -0.3724  0.6089 -0.0441
  795SOL    HW219528   1.001   5.711   6.640 -0.6859  0.4103  0.4427
  796SOL     OW19529   2.590   5.232   0.870  0.1331 -0.7223 -0.1324
  796SOL    HW119530   2.683   5.207   0.875 -0.1626 -1.7173  1.1180
  796SOL    HW219531   2.544   5.148   0.869 -0.8356 -0.2879  2.0713
  797SOL     OW19532   1.563   0.545   7.727 -0.1743 -0.3845 -0.4690
  797SOL    HW119533   1.558   0.524   7.820  1.0689 -3.9662 -1.0457
  797SOL    HW219534   1.474   0.530   7.694 -0.6449  1.0028  0.0923
  798SOL     OW19535   6.188   3.964   7.028  0.4845  0.4823  0.3972
  798SOL    HW119536   6.143   3.920   7.100  1.4037 -1.7648 -0.3197
  798SOL    HW219537   6.227   4.042   7.068 -0.3232  0.1237  1.9627
  799SOL     OW19538   5.866   0.471   5.951  0.2021 -0.4076 -0.3081
  799SOL    HW119539   5.930   0.454   5.883  0.8087 -2.7594  0.7705
  799SOL    HW219540   5.917   0.484   6.031 -0.4031  3.5299 -0.3266
  800SOL     OW19541   2.405   4.991   7.443  0.3565  0.0461 -0.5908
  800SOL    HW119542   2.422   4.897   7.431 -0.9784 -0.0528 -2.0410
  800SOL    HW219543   2.362   4.997   7.529  0.7034 -0.6242 -0.3628
  801SOL     OW19544   1.873   4.070   5.487  0.3632 -0.3918  0.4377
  801SOL    HW119545   1.782   4.093   5.468  0.0093 -1.9981  0.0194
  801SOL    HW219546   1.921   4.092   5.408  0.5792  1.4538  1.0225
  802SOL     OW19547   4.006   3.400   0.478  0.0515 -0.1316 -0.3479
  802SOL    HW119548   3.969   3.464   0.417  0.6634  1.2299  0.6677
  802SOL    HW219549   3.938   3.387   0.543  0.3796  0.4280  0.1148
  803SOL     OW19550   2.994   5.392   6.120  0.5939  0.1277  0.0392
  803SOL    HW119551   2.950   5.477   6.117 -0.2953 -0.3151 -0.0012
  803SOL    HW219552   2.957   5.344   6.046  0.6083 -0.5101  0.4434
  804SOL     OW19553   5.355   4.070   6.715 -0.2859 -0.0749  0.3244
  804SOL    HW119554   5.270   4.107   6.694  0.0908  0.7169  0.1508
  804SOL    HW219555   5.338   4.011   6.788 -0.7283  1.3686  1.4343
  805SOL     OW19556   3.914   2.575   7.411 -0.2124  0.8777 -0.3228
  805SOL    HW119557   4.002   2.564   7.376 -0.1998  0.0232 -0.0625
  805SOL    HW219558   3.876   2.646   7.360  0.4732  0.9533 -0.7376
  806SOL     OW19559   0.574   6.312   7.551 -0.2990  0.4457  0.1115
  806SOL    HW119560   0.653   6.291   7.601 -0.9527  0.9609  1.4262
  806SOL    HW219561   0.566   6.242   7.486  0.7607 -0.0756  0.5249
  807SOL     OW19562   5.371   1.547   0.816 -0.2641  0.5863 -0.2415
  807SOL    HW119563   5.342   1.503   0.737  1.4466  1.1396 -1.2279
  807SOL    HW219564   5.334   1.636   0.810  1.2968  1.1886 -1.3317
  808SOL     OW19565   3.423   5.681   1.724  0.2509 -0.5723  0.0429
  808SOL    HW119566   3.508   5.642   1.744  0.2698 -0.5360  0.0336
  808SOL    HW219567   3.359   5.616   1.754  0.2803 -0.5225  0.2155
  809SOL     OW19568   3.452   2.924   0.960  0.2284 -1.0364  0.4648
  809SOL    HW119569   3.517   2.856   0.941  1.4400 -0.4400  2.1817
  809SOL    HW219570   3.481   3.000   0.911 -0.8814 -1.5721 -1.1056
  810SOL     OW19571   3.888   3.217   6.426 -0.5540 -0.3739  0.3952
  810SOL    HW119572   3.944   3.294   6.431 -0.1905 -0.7098  1.7064
  810SOL    HW219573   3.914   3.174   6.344  0.4499 -0.0364  0.5301
  811SOL     OW19574   4.904   3.877   1.844 -0.0465 -0.1758 -0.0878
  811SOL    HW119575   4.876   3.792   1.879 -0.7257  0.4399  0.9309
  811SOL    HW219576   4.867   3.941   1.905  0.1933  0.8704 -1.0095
  812SOL     OW19577   0.034   1.992   6.508 -0.6013  0.0939  0.7757
  812SOL    HW119578   0.112   2.030   6.467  0.1513 -1.3592  0.8155
  812SOL    HW219579   0.068   1.937   6.578 -1.5892 -1.3801  0.1524
  813SOL     OW19580   0.042   1.280   6.156 -0.5944  0.8086  0.6430
  813SOL    HW119581   0.047   1.327   6.073 -0.0116  0.7558  0.6405
  813SOL    HW219582   0.110   1.213   6.149  1.5883  2.6942  2.3427
  814SOL     OW19583   3.813   6.406   1.343 -0.0164 -0.6039  0.5090
  814SOL    HW119584   3.815   6.440   1.433 -1.7554  0.5752  0.1478
  814SOL    HW219585   3.720   6.406   1.319  0.4376 -0.5693 -1.4142
  815SOL     OW19586   5.078   1.288   6.107  0.1573 -0.0733 -0.0045
  815SOL    HW119587   5.000   1.326   6.065  0.4179 -0.2900 -0.6929
  815SOL    HW219588   5.090   1.341   6.186  0.2788  1.0262 -0.7373
  816SOL     OW19589   0.948   0.208   0.263 -0.4615 -0.1363  0.5218
  816SOL    HW119590   0.987   0.204   0.351 -0.3965 -0.8354  0.4679
  816SOL    HW219591   0.856   0.228   0.278 -0.4516 -0.2592  0.7548
  817SOL     OW19592   0.029   0.849   0.273 -0.2433  0.3639  0.7782
  817SOL    HW119593  -0.034   0.778   0.277 -0.3408  0.4656  3.6234
  817SOL    HW219594   0.113   0.808   0.291  0.2882  0.5018 -1.1662
  818SOL     OW19595   5.234   5.588   1.100 -0.2335  0.0873 -0.0540
  818SOL    HW119596   5.224   5.671   1.146 -1.1462  0.1915 -0.4196
  818SOL    HW219597   5.237   5.522   1.170 -0.6695  0.3265  0.1933
  819SOL     OW19598   2.789   3.038   7.443  0.4788  0.0047  0.3224
  819SOL    HW119599   2.765   3.038   7.350  2.5216  2.2628 -0.3233
  819SOL    HW219600   2.819   2.949   7.460  1.7363 -0.0232 -1.7125
  820SOL     OW19601   4.856   0.632   0.159 -0.5914 -0.0988 -0.2830
  820SOL    HW119602   4.880   0.638   0.067  1.1052 -0.2770  0.1215
  820SOL    HW219603   4.837   0.722   0.184  0.4457  0.1754 -0.4396
  821SOL     OW19604   3.594   0.347   7.543 -0.1098  0.5566 -0.2693
  821SOL    HW119605   3.648   0.348   7.464  0.3335 -0.9310 -0.0193
  821SOL    HW219606   3.634   0.281   7.598 -2.2371 -0.6900 -0.1130
  822SOL     OW19607   2.327   4.180   7.155  0.1484 -0.6049 -1.2275
  822SOL    HW119608   2.339   4.274   7.162 -0.4510 -0.6706  2.3761
  822SOL    HW219609   2.410   4.147   7.121  0.2247  1.1777 -2.9380
  823SOL     OW19610   5.976   4.031   6.497  0.3656  0.5199  0.5795
  823SOL    HW119611   5.905   4.079   6.539 -2.1838 -1.9585 -0.5681
  823SOL    HW219612   6.018   3.983   6.568 -0.6844  0.1670  0.9800
  824SOL     OW19613   3.951   3.759   0.896  0.5602  0.5199  0.3430
  824SOL    HW119614   4.003   3.812   0.956  1.1238  2.0593 -1.4135
  824SOL    HW219615   3.881   3.817   0.867 -0.1899 -0.4634  0.1586
  825SOL     OW19616   1.533   3.044   7.500  0.5454 -0.4800 -0.8039
  825SOL    HW119617   1.626   3.045   7.521  1.1063 -1.1035 -3.0713
  825SOL    HW219618   1.523   3.107   7.429 -0.6107 -1.0564 -1.1825
  826SOL     OW19619   3.456   4.911   6.611 -0.0515 -0.4960 -0.3638
  826SOL    HW119620   3.389   4.951   6.556  0.8860 -1.4279 -2.2820
  826SOL    HW219621   3.415   4.830   6.644 -0.1471 -0.6561 -0.8726
  827SOL     OW19622   1.940   4.545   1.509 -0.4028 -0.0559 -0.1301
  827SOL    HW119623   2.026   4.574   1.538  0.3635 -2.6140  0.4607
  827SOL    HW219624   1.884   4.556   1.585 -0.2952  0.4185 -0.1159
  828SOL     OW19625   0.706   2.965   0.443  0.8090 -0.3925 -0.4282
  828SOL    HW119626   0.625   2.919   0.421 -1.4303  1.4193  2.9677
  828SOL    HW219627   0.724   2.939   0.533  3.6350 -0.1291 -0.8458
  829SOL     OW19628   4.261   3.305   6.235  0.4633 -0.3372  0.2458
  829SOL    HW119629   4.281   3.383   6.184  0.7909  0.0895  0.9981
  829SOL    HW219630   4.260   3.233   6.172 -0.1496  0.3136 -0.5098
  830SOL     OW19631   0.488   5.566   0.575  0.5419  0.4760  0.1426
  830SOL    HW119632   0.419   5.546   0.512  1.4737 -0.7454 -0.5195
  830SOL    HW219633   0.441   5.596   0.653 -0.6377  2.0635 -1.1035
  831SOL     OW19634   3.326   5.882   0.821  0.2415 -0.1216  0.4028
  831SOL    HW119635   3.364   5.960   0.863 -0.4942 -0.3145  1.4500
  831SOL    HW219636   3.284   5.834   0.892 -1.5608 -0.1629 -0.6376
  832SOL     OW19637   5.736   1.786   1.672 -0.1142 -0.3380 -0.6433
  832SOL    HW119638   5.680   1.715   1.703 -1.2412  0.8191  0.0316
  832SOL    HW219639   5.678   1.841   1.619  0.5742  0.4572 -0.5893
  833SOL     OW19640   4.321   0.785   5.958  0.3252  0.3358  0.1036
  833SOL    HW119641   4.380   0.840   5.906  0.0123  1.2431  0.7021
  833SOL    HW219642   4.248   0.765   5.898  0.8458 -0.1428 -0.3832
  834SOL     OW19643   5.109   5.448   7.064  0.2767 -0.0001 -0.1538
  834SOL    HW119644   5.190   5.477   7.106 -0.3820  0.1586  1.0240
  834SOL    HW219645   5.115   5.352   7.064 -0.2622 -0.0491  1.4255
  835SOL     OW19646   2.466   3.982   6.607 -0.2913  0.2952 -0.0391
  835SOL    HW119647   2.397   3.990   6.673 -0.6376  3.1849 -0.5985
  835SOL    HW219648   2.419   3.966   6.525 -0.2259  1.0614 -0.2328
  836SOL     OW19649   3.887   2.871   1.411 -0.1403 -0.2108  0.3085
  836SOL    HW119650   3.955   2.813   1.378 -0.6304 -1.2948  1.1393
  836SOL    HW219651   3.927   2.912   1.489  1.2316  2.7886 -1.7711
  837SOL     OW19652   6.077   4.675   6.450  0.1058  0.1869 -0.1227
  837SOL    HW119653   6.152   4.696   6.394  0.6778 -0.4018  0.4020
  837SOL    HW219654   6.039   4.596   6.410 -0.0322  0.2934 -0.2006
  838SOL     OW19655   1.383   5.582   0.265 -0.4508 -0.3015 -0.1624
  838SOL    HW119656   1.400   5.489   0.281  0.2331 -0.2749 -0.6886
  838SOL    HW219657   1.438   5.627   0.329 -0.5723 -0.2565 -0.0904
  839SOL     OW19658   0.167   1.216   5.878 -0.5363  0.5068 -0.5477
  839SOL    HW119659   0.242   1.260   5.839 -0.4687  0.1476 -0.8272
  839SOL    HW219660   0.178   1.123   5.855 -1.5951  0.5853 -1.4788
  840SOL     OW19661   0.014   4.732   1.885  0.8972  0.7265 -0.0572
  840SOL    HW119662  -0.020   4.815   1.849  0.5408 -0.7799 -3.6728
  840SOL    HW219663   0.080   4.704   1.821 -0.2014 -2.5530  0.0641
  841SOL     OW19664   4.429   4.652   6.731 -0.3907 -0.3722  0.2808
  841SOL    HW119665   4.458   4.568   6.768 -0.0720 -1.4254 -2.1955
  841SOL    HW219666   4.373   4.690   6.800  1.2285 -1.5384  2.3552
  842SOL     OW19667   4.493   1.716   6.084  0.0116  0.8054 -0.5409
  842SOL    HW119668   4.414   1.674   6.052 -0.3319  1.8567 -1.0942
  842SOL    HW219669   4.554   1.712   6.010  0.4963  0.0005 -0.1185
  843SOL     OW19670   5.477   5.701   0.089  0.2953 -0.3533 -0.1769
  843SOL    HW119671   5.434   5.659   0.164 -0.9282  0.4911 -0.3687
  843SOL    HW219672   5.524   5.776   0.127  0.9583 -0.8144 -0.0706
  844SOL     OW19673   5.964   3.416   0.663  0.2224 -0.2800  0.1632
  844SOL    HW119674   6.000   3.473   0.731  1.2022 -0.0929 -0.4908
  844SOL    HW219675   5.871   3.408   0.685  0.4221  0.1763  1.2343
  845SOL     OW19676   3.509   2.406   5.955  0.4640  0.1002  0.6127
  845SOL    HW119677   3.415   2.415   5.942  0.5912  3.7852  1.1751
  845SOL    HW219678   3.518   2.367   6.042 -0.4990 -0.8037  0.3256
  846SOL     OW19679   0.114   5.341   1.977 -0.1693 -0.3694 -0.4145
  846SOL    HW119680   0.171   5.299   2.041  0.6308  1.6481  0.3079
  846SOL    HW219681   0.041   5.280   1.966  0.1402 -1.2334  1.7108
  847SOL     OW19682   6.281   5.063   1.225 -0.1528 -0.6408 -0.9256
  847SOL    HW119683   6.338   5.021   1.289  0.3230 -0.9310 -1.5246
  847SOL    HW219684   6.311   5.154   1.222  0.2250 -0.7717 -1.1748
  848SOL     OW19685   2.548   4.252   0.355  0.6991 -0.2859  0.0904
  848SOL    HW119686   2.508   4.339   0.351  0.4465 -0.4010 -3.9515
  848SOL    HW219687   2.484   4.198   0.401 -0.8249  0.9595 -0.4593
  849SOL     OW19688   4.403   5.426   0.170 -0.0263  0.1378  0.0711
  849SOL    HW119689   4.313   5.425   0.201 -0.3114 -0.3488 -0.7356
  849SOL    HW219690   4.430   5.518   0.177  0.0125  0.0233  1.9400
  850SOL     OW19691   1.263   2.243   6.880 -0.1989 -0.5632  0.2782
  850SOL    HW119692   1.191   2.224   6.941  1.6634 -0.1961  2.6984
  850SOL    HW219693   1.256   2.337   6.864  1.2063  0.0037  2.6031
  851SOL     OW19694   1.498   1.795   0.908  0.9094  0.2639 -0.1009
  851SOL    HW119695   1.521   1.752   0.826  0.7542 -1.0018  0.4921
  851SOL    HW219696   1.513   1.888   0.892  0.6527  0.0649 -1.6301
  852SOL     OW19697   3.872   4.266   6.752 -0.2344 -0.2324 -0.2604
  852SOL    HW119698   3.797   4.323   6.767  0.8548  0.8355  1.4897
  852SOL    HW219699   3.862   4.195   6.816  0.4269  0.1294  0.2598
  853SOL     OW19700   5.350   3.632   1.447  0.1255  0.8079 -0.1757
  853SOL    HW119701   5.304   3.710   1.416  1.7018  2.2932  0.9858
  853SOL    HW219702   5.429   3.627   1.393  1.9863  2.3782  2.1683
  854SOL     OW19703   5.675   2.998   2.455 -0.3712  0.0732 -0.3613
  854SOL    HW119704   5.689   3.029   2.545  0.5174 -0.7153 -0.2134
  854SOL    HW219705   5.602   3.052   2.422  0.9512  2.1588 -0.0496
  855SOL     OW19706   3.883   2.072   6.218  0.4347 -0.5774  0.3785
  855SOL    HW119707   3.838   2.033   6.143 -0.3742  1.7632 -0.4401
  855SOL    HW219708   3.972   2.088   6.187  0.5902 -1.1727  0.5087
  856SOL     OW19709   4.537   2.383   0.504  0.0253  0.1639 -0.2917
  856SOL    HW119710   4.553   2.434   0.583  2.7189  1.1136 -1.3284
  856SOL    HW219711   4.578   2.434   0.434 -0.3026 -1.7197 -1.9400
  857SOL     OW19712   0.228   5.212   5.821  0.4227  0.5600  0.1248
  857SOL    HW119713   0.285   5.168   5.883  0.5136  0.6970  0.1387
  857SOL    HW219714   0.173   5.143   5.785  1.1112  0.3068 -0.4544
  858SOL     OW19715   4.150   2.127   6.924 -0.1397 -0.2750  0.6323
  858SOL    HW119716   4.055   2.122   6.918 -0.3716  0.9325  2.4801
  858SOL    HW219717   4.178   2.042   6.956 -0.8872  0.1403  2.5031
  859SOL     OW19718   0.004   2.840   7.629  0.6460  0.3874 -0.5082
  859SOL    HW119719   0.002   2.808   7.719 -0.0666 -0.5686 -0.8432
  859SOL    HW219720   0.039   2.766   7.578  1.0535  0.9179 -1.0216
  860SOL     OW19721   5.082   1.836   7.151 -0.2387 -0.2040 -0.0180
  860SOL    HW119722   5.107   1.916   7.105  1.0017 -1.0165 -0.7994
  860SOL    HW219723   5.163   1.804   7.190 -0.9260 -0.5207  1.2219
  861SOL     OW19724   1.932   2.038   6.171  0.0256  0.9897  0.4561
  861SOL    HW119725   1.905   1.946   6.178 -1.3788  1.4554  1.5611
  861SOL    HW219726   1.926   2.058   6.078  0.4186 -0.0556  0.1958
  862SOL     OW19727   4.029   0.345   5.608 -0.3630  0.0690  0.2062
  862SOL    HW119728   3.935   0.360   5.618 -0.3107  0.7787 -0.2935
  862SOL    HW219729   4.035   0.262   5.561 -0.7718  0.4041 -0.4653
  863SOL     OW19730   0.678   3.415   0.331  0.1093 -0.1457 -0.0532
  863SOL    HW119731   0.683   3.503   0.370  1.1816 -0.1096 -0.2430
  863SOL    HW219732   0.640   3.360   0.400  0.2655  0.2883  0.3841
  864SOL     OW19733   0.345   5.291   0.110  0.1972 -0.5007  0.1886
  864SOL    HW119734   0.409   5.279   0.039  0.2833  0.5703  0.0718
  864SOL    HW219735   0.276   5.228   0.091 -0.2502  0.4026 -1.4111
  865SOL     OW19736   0.941   1.370   0.168 -0.1438  0.0286  0.2186
  865SOL    HW119737   0.986   1.360   0.252 -0.0215  0.9411  0.2745
  865SOL    HW219738   0.848   1.364   0.189 -0.1418 -3.8881 -0.1539
  866SOL     OW19739   5.094   0.938   0.218  0.1115 -0.0806 -0.4767
  866SOL    HW119740   5.118   0.869   0.156  0.3455 -1.1617  0.7934
  866SOL    HW219741   5.001   0.922   0.237  0.5848 -1.1371  1.1282
  867SOL     OW19742   2.316   0.581   1.174 -0.2587 -0.9117  0.1738
  867SOL    HW119743   2.309   0.520   1.100 -0.8425 -0.3629 -0.2392
  867SOL    HW219744   2.406   0.571   1.205  1.2523  1.3561 -2.8436
  868SOL     OW19745   3.311   3.967   6.300 -0.0073  0.3113  0.5646
  868SOL    HW119746   3.372   3.997   6.233 -1.9264 -0.3654 -1.5900
  868SOL    HW219747   3.306   3.872   6.287 -0.3014  0.1427  1.7933
  869SOL     OW19748   3.565   2.930   0.155 -0.1554 -0.2766 -0.5521
  869SOL    HW119749   3.559   3.022   0.130  0.5550 -0.6064 -2.0486
  869SOL    HW219750   3.495   2.887   0.106  0.6239 -0.7874 -1.2459
  870SOL     OW19751   0.972   5.941   1.759 -0.1674 -0.2441  0.5370
  870SOL    HW119752   1.064   5.949   1.737 -0.4029  0.8327 -0.1443
  870SOL    HW219753   0.930   5.916   1.676 -0.5539 -0.1744  0.7093
  871SOL     OW19754   2.080   1.629   7.295  1.1346 -0.2809 -0.3788
  871SOL    HW119755   2.053   1.696   7.358 -0.2163 -0.4030 -0.8073
  871SOL    HW219756   2.148   1.671   7.243  0.2002  0.8142 -0.7407
  872SOL     OW19757   5.038   1.479   7.680  0.1170 -0.3545  0.3339
  872SOL    HW119758   5.037   1.431   7.763  0.8567 -0.5493  0.2294
  872SOL    HW219759   5.021   1.413   7.613 -2.5080  0.0955  0.4514
  873SOL     OW19760   2.408   2.497   7.015  0.3469 -0.0806 -0.1916
  873SOL    HW119761   2.388   2.583   7.052 -0.2704 -0.9803  1.6832
  873SOL    HW219762   2.401   2.509   6.920  0.6167  1.9994  0.0108
  874SOL     OW19763   4.260   0.035   7.192 -0.0441 -0.1769  0.3384
  874SOL    HW119764   4.263  -0.035   7.127 -1.4716  0.2621 -0.2449
  874SOL    HW219765   4.248   0.115   7.140  0.8253  0.4140  1.0358
  875SOL     OW19766   2.429   3.368   7.218 -0.0358  0.1209  0.8715
  875SOL    HW119767   2.517   3.372   7.182  0.3186 -1.7186  1.4515
  875SOL    HW219768   2.404   3.276   7.213 -2.0415  0.6302  0.4910
  876SOL     OW19769   1.798   1.123   6.867  0.5008 -0.4512 -0.6193
  876SOL    HW119770   1.831   1.112   6.778  0.7072  1.7305 -0.8721
  876SOL    HW219771   1.877   1.125   6.921  0.4980 -0.0820 -0.6224
  877SOL     OW19772   5.524   4.869   5.736  0.3917  0.1768  0.4403
  877SOL    HW119773   5.522   4.823   5.820  0.8664  0.6861  0.7441
  877SOL    HW219774   5.532   4.962   5.761  1.0225  0.2913 -0.1719
  878SOL     OW19775   3.950   6.188   0.145  0.3009  0.3522  0.4325
  878SOL    HW119776   3.991   6.142   0.072 -1.5678  0.0681 -0.5030
  878SOL    HW219777   3.972   6.135   0.222 -0.3264 -1.1625 -0.3831
  879SOL     OW19778   5.009   4.704   6.547 -0.1399  0.1188 -0.2201
  879SOL    HW119779   5.004   4.659   6.463 -0.7499 -0.5003  0.1354
  879SOL    HW219780   4.956   4.783   6.535 -2.5424 -1.3126  0.3813
  880SOL     OW19781   0.315   3.464   1.425 -0.1258 -0.5205  0.8097
  880SOL    HW119782   0.407   3.482   1.442  0.1310 -0.8955 -0.1287
  880SOL    HW219783   0.297   3.506   1.340 -0.2936 -2.0874  0.0304
  881SOL     OW19784   2.415   6.390   0.288  0.2975 -0.4588  0.5020
  881SOL    HW119785   2.408   6.364   0.196 -0.0200  1.1611  0.0301
  881SOL    HW219786   2.388   6.312   0.337 -0.7891 -0.9585 -0.8132
  882SOL     OW19787   0.533   3.134   7.706  0.0384 -0.1584 -0.3860
  882SOL    HW119788   0.450   3.176   7.682 -0.1314 -0.8160 -0.9893
  882SOL    HW219789   0.548   3.160   7.797  0.1799  1.5960 -0.8662
  883SOL     OW19790   0.618   4.417   0.227 -0.2464 -0.0430 -0.2342
  883SOL    HW119791   0.594   4.510   0.231  0.8450  0.2162  0.9665
  883SOL    HW219792   0.574   4.384   0.149 -0.2894  1.5864 -0.9290
  884SOL     OW19793   6.238   4.436   7.533  0.2679 -0.3215  0.1963
  884SOL    HW119794   6.201   4.348   7.532 -1.6785  0.4364 -1.4431
  884SOL    HW219795   6.235   4.465   7.441  0.4775  1.5923  0.7416
  885SOL     OW19796   3.142   3.944   0.317 -0.8889  0.0644 -0.5603
  885SOL    HW119797   3.206   3.944   0.246 -0.0104  1.0473  0.2043
  885SOL    HW219798   3.064   3.985   0.279 -0.2589  1.0417 -0.8416
  886SOL     OW19799   4.869   4.818   5.378  0.4220  0.0748  0.4633
  886SOL    HW119800   4.821   4.825   5.460 -0.3640  2.0414 -0.1125
  886SOL    HW219801   4.961   4.830   5.403  0.0932  1.8655  0.9739
  887SOL     OW19802   2.872   2.817   1.785 -0.1706  0.0339  0.3746
  887SOL    HW119803   2.909   2.793   1.871  0.0842 -2.8527 -0.4470
  887SOL    HW219804   2.947   2.850   1.736 -0.4608  2.5009  1.4149
  888SOL     OW19805   6.216   2.329   1.776 -0.1426 -0.6117 -0.2164
  888SOL    HW119806   6.235   2.357   1.865 -0.4292 -0.5539 -0.1732
  888SOL    HW219807   6.162   2.251   1.786  2.1356 -2.3020 -0.3091
  889SOL     OW19808   6.316   5.354   1.220  0.0833  0.3639  0.5801
  889SOL    HW119809   6.397   5.404   1.215 -0.0540  0.4891 -0.6925
  889SOL    HW219810   6.247   5.418   1.202 -0.0800 -0.2671 -1.2413
  890SOL     OW19811   1.013   1.907   1.777 -0.0009 -0.3846  0.1174
  890SOL    HW119812   1.040   1.988   1.820 -1.5125  0.4366 -0.4174
  890SOL    HW219813   1.055   1.837   1.828  0.4427  0.6755  1.2420
  891SOL     OW19814   1.820   3.173   7.173  0.1818 -0.4265 -0.0916
  891SOL    HW119815   1.835   3.132   7.087  1.3261 -0.8229  0.2838
  891SOL    HW219816   1.908   3.195   7.205 -0.1829 -0.8819  1.2704
  892SOL     OW19817   4.309   0.743   7.718 -0.5755  0.0550 -0.6782
  892SOL    HW119818   4.250   0.772   7.787 -0.4878  2.0507 -1.3970
  892SOL    HW219819   4.292   0.802   7.645  1.2881 -0.2527 -1.4083
  893SOL     OW19820   0.617   4.681   7.350 -0.2681 -0.4322 -0.1617
  893SOL    HW119821   0.706   4.650   7.371  0.3311  1.1420 -0.2520
  893SOL    HW219822   0.612   4.676   7.255 -0.5724 -1.2328 -0.1158
  894SOL     OW19823   1.250   5.394   0.516 -0.2867 -0.5986 -0.8556
  894SOL    HW119824   1.277   5.484   0.534 -0.9997 -0.3925 -0.7980
  894SOL    HW219825   1.158   5.400   0.490 -1.4923 -1.6278  2.5553
  895SOL     OW19826   2.322   5.622   6.424 -0.2500  0.6380  0.6365
  895SOL    HW119827   2.374   5.635   6.503  0.2390 -0.0472  0.4416
  895SOL    HW219828   2.231   5.629   6.454 -0.0777  0.1542  1.3085
  896SOL     OW19829   3.011   0.400   0.233  0.0219 -0.3960 -0.2942
  896SOL    HW119830   2.969   0.370   0.314  1.7573  0.2348  0.9027
  896SOL    HW219831   2.943   0.450   0.188 -0.9047 -0.5297  0.9051
  897SOL     OW19832   2.396   1.837   6.757  0.1328  0.7741 -0.4706
  897SOL    HW119833   2.387   1.888   6.837 -1.6140  0.1582 -0.2465
  897SOL    HW219834   2.419   1.749   6.787  0.9430  0.8713 -0.7530
  898SOL     OW19835   1.526   3.044   1.212 -0.0178 -0.0253  0.4379
  898SOL    HW119836   1.458   3.082   1.268  1.2971  0.2805  1.9195
  898SOL    HW219837   1.538   2.955   1.246  0.8922  0.2104  0.7542
  899SOL     OW19838   6.347   5.582   0.345  0.1503 -0.6353  0.1167
  899SOL    HW119839   6.399   5.565   0.424  0.2729  0.0382  0.1937
  899SOL    HW219840   6.329   5.496   0.309  1.0827 -0.8979  0.2450
  900SOL     OW19841   3.955   4.732   5.422  0.3620  0.4682 -0.1788
  900SOL    HW119842   3.948   4.749   5.328  1.5635  0.1906 -0.3319
  900SOL    HW219843   3.975   4.817   5.461  3.5133  0.0186 -0.6194
  901SOL     OW19844   3.485   3.973   0.207 -0.1239 -0.7815 -0.1321
  901SOL    HW119845   3.540   3.935   0.275 -0.3805 -0.1100  0.4546
  901SOL    HW219846   3.524   3.942   0.125  0.5910 -1.0423  0.2978
  902SOL     OW19847   1.981   6.233   0.247  0.5029 -1.0980  0.4982
  902SOL    HW119848   1.965   6.291   0.172  0.5648 -0.4231  0.9903
  902SOL    HW219849   1.982   6.145   0.210 -0.0362 -0.8185 -0.2050
  903SOL     OW19850   6.136   5.179   5.301  0.4977  0.0078  0.0815
  903SOL    HW119851   6.146   5.270   5.328 -1.1429 -0.0495  1.0270
  903SOL    HW219852   6.044   5.159   5.320  0.3079 -1.2621 -1.9434
  904SOL     OW19853   4.360   4.870   2.108  0.1093  0.5349 -0.1094
  904SOL    HW119854   4.400   4.846   2.192  1.7543 -0.0054 -1.0088
  904SOL    HW219855   4.342   4.963   2.116 -2.0223  0.0387  1.7166
  905SOL     OW19856   3.436   4.521   6.191  0.3972  0.2850  0.2234
  905SOL    HW119857   3.502   4.506   6.258  2.7403  0.7803 -1.8159
  905SOL    HW219858   3.429   4.616   6.185  1.4768  0.3091 -1.2897
  906SOL     OW19859   4.912   4.762   6.838 -0.0278 -0.4040  0.5669
  906SOL    HW119860   4.900   4.840   6.784 -0.4686 -0.1439  1.0347
  906SOL    HW219861   5.002   4.767   6.868 -0.1270  0.0468  0.7864
  907SOL     OW19862   1.757   5.237   1.480  0.0055  0.2746 -0.0740
  907SOL    HW119863   1.671   5.242   1.439 -0.3608 -1.1101  0.4765
  907SOL    HW219864   1.745   5.276   1.567  0.3522  1.5889 -0.5987
  908SOL     OW19865   0.278   2.661   7.494 -0.4133 -0.3787  0.9069
  908SOL    HW119866   0.281   2.566   7.488  1.4696 -0.2721 -0.9053
  908SOL    HW219867   0.204   2.686   7.438  0.9685 -0.7032 -1.1848
  909SOL     OW19868   1.344   5.934   7.414  0.7175  0.2247  0.3697
  909SOL    HW119869   1.427   5.888   7.401  0.2001 -0.2602 -1.5095
  909SOL    HW219870   1.350   5.969   7.503  1.2780 -3.1764  1.8333
  910SOL     OW19871   0.283   3.334   6.396  0.2124  0.0881 -0.3910
  910SOL    HW119872   0.228   3.396   6.444  1.0314 -0.3079  1.1069
  910SOL    HW219873   0.254   3.342   6.305  0.2530  2.6164 -0.2464
  911SOL     OW19874   0.948   3.895   7.489  0.2960 -0.4447 -0.0356
  911SOL    HW119875   1.000   3.876   7.410 -0.7522 -0.5958 -0.7063
  911SOL    HW219876   0.915   3.809   7.517 -0.8552 -0.1723 -0.5225
  912SOL     OW19877   4.665   2.015   7.130 -0.0540 -0.0143  0.2434
  912SOL    HW119878   4.658   1.920   7.145  2.3399 -0.4890 -1.1577
  912SOL    HW219879   4.714   2.047   7.206  2.2403 -0.5612 -0.9149
  913SOL     OW19880   2.716   6.172   1.110 -0.0772  0.7909  0.7783
  913SOL    HW119881   2.713   6.268   1.104 -0.1683  0.7203 -0.6676
  913SOL    HW219882   2.648   6.142   1.050  0.2922 -0.1908  0.8272
  914SOL     OW19883   5.809   5.357   0.427 -0.2942  0.2507  0.3367
  914SOL    HW119884   5.893   5.374   0.384 -1.0519 -1.0629 -1.8748
  914SOL    HW219885   5.779   5.443   0.457  0.7293  1.1393 -1.0350
  915SOL     OW19886   2.297   0.156   0.297 -0.0156  0.2138  0.3029
  915SOL    HW119887   2.344   0.074   0.284  1.4837  0.9679  0.7164
  915SOL    HW219888   2.215   0.145   0.248 -0.0163 -1.6481  0.6627
  916SOL     OW19889   3.188   1.060   1.927  0.1347  0.0084  0.2571
  916SOL    HW119890   3.233   1.126   1.980  0.5563 -0.5854  0.6557
  916SOL    HW219891   3.259   1.007   1.890 -0.0457  1.3786 -2.2561
  917SOL     OW19892   6.281   1.985   6.709 -0.2448  0.1405 -0.5655
  917SOL    HW119893   6.331   1.969   6.628  1.3989  1.4238  0.1341
  917SOL    HW219894   6.313   1.918   6.770  0.4920  0.8256 -0.1842
  918SOL     OW19895   2.667   1.473   5.282 -0.6211  0.4492 -0.1917
  918SOL    HW119896   2.718   1.393   5.273 -1.1368  0.3279 -2.5430
  918SOL    HW219897   2.617   1.461   5.362 -1.1209 -1.8434 -0.7998
  919SOL     OW19898   4.644   3.288   1.151 -0.1526 -0.6419 -0.2793
  919SOL    HW119899   4.639   3.301   1.245  0.4633  0.9780 -0.4336
  919SOL    HW219900   4.736   3.266   1.135 -0.4526 -1.8719 -0.4223
  920SOL     OW19901   1.780   4.534   6.440 -0.2052  0.5262 -0.2238
  920SOL    HW119902   1.806   4.526   6.532 -1.7749  0.4998  0.2449
  920SOL    HW219903   1.740   4.449   6.419 -2.2181  1.3870 -0.1050
  921SOL     OW19904   4.282   1.650   0.721  0.3665 -0.0602 -0.4800
  921SOL    HW119905   4.323   1.596   0.788 -1.0002  0.3866  0.7578
  921SOL    HW219906   4.332   1.732   0.724 -0.5834  0.5088  1.0687
  922SOL     OW19907   1.140   0.570   0.950  0.3192 -0.6240  0.4235
  922SOL    HW119908   1.214   0.539   0.898  1.3705 -0.5777  1.8368
  922SOL    HW219909   1.163   0.548   1.040 -2.3403 -2.4861  0.7471
  923SOL     OW19910   3.217   0.780   6.403 -0.8845  0.4904 -0.3396
  923SOL    HW119911   3.249   0.693   6.380 -1.2794  0.0257  0.8513
  923SOL    HW219912   3.126   0.767   6.428  0.0187  0.5522  3.5719
  924SOL     OW19913   3.257   1.995   7.092 -0.0884  0.2281 -0.5848
  924SOL    HW119914   3.242   1.907   7.127  0.9306  0.4005  0.3475
  924SOL    HW219915   3.169   2.029   7.076 -0.5464 -0.4596  0.3339
  925SOL     OW19916   0.022   6.447   0.739  0.5514 -0.4497  0.4876
  925SOL    HW119917   0.036   6.398   0.820  0.4694  0.9275  1.3632
  925SOL    HW219918  -0.057   6.498   0.755  1.2637  0.8405  0.0521
  926SOL     OW19919   2.711   3.858   2.033 -0.5136  0.0597 -0.5762
  926SOL    HW119920   2.672   3.919   2.095 -0.8221  0.3370 -1.0353
  926SOL    HW219921   2.684   3.771   2.064  0.6713  0.0771  0.5987
  927SOL     OW19922   2.968   2.953   0.197  0.3863 -0.2188 -0.1805
  927SOL    HW119923   2.880   2.981   0.172  0.1371  0.1497  1.0101
  927SOL    HW219924   2.969   2.961   0.293  1.3894 -1.1886 -0.0922
  928SOL     OW19925   5.414   5.237   7.494 -0.2434 -0.2137  0.0900
  928SOL    HW119926   5.354   5.311   7.486  1.8135  1.4260 -1.4527
  928SOL    HW219927   5.461   5.235   7.411  1.5134 -1.6500  1.0392
  929SOL     OW19928   2.118   3.816   0.180 -0.0869  0.4377  0.6145
  929SOL    HW119929   2.073   3.732   0.172  1.8219 -0.5151 -1.4277
  929SOL    HW219930   2.139   3.824   0.273 -0.3478 -1.3585  0.8599
  930SOL     OW19931   3.602   3.432   7.723  0.0133 -0.5791 -0.4260
  930SOL    HW119932   3.528   3.411   7.666  0.1971  0.7052 -1.1623
  930SOL    HW219933   3.670   3.465   7.664  1.1404 -1.5954  0.2523
  931SOL     OW19934   4.437   6.362   6.210  0.3816  0.1252 -0.0393
  931SOL    HW119935   4.391   6.425   6.155 -1.8868 -0.0462  1.5609
  931SOL    HW219936   4.417   6.277   6.172  0.1450  0.1133  0.1111
  932SOL     OW19937   3.652   5.238   0.385  0.0402  0.8421  0.8011
  932SOL    HW119938   3.667   5.321   0.431 -0.6119  1.6029 -0.2739
  932SOL    HW219939   3.581   5.259   0.323  0.1930 -0.3986  0.1841
  933SOL     OW19940   0.203   4.005   6.827  0.0712  0.7433 -0.4469
  933SOL    HW119941   0.240   4.092   6.842  0.7119  0.5529 -0.8721
  933SOL    HW219942   0.161   3.982   6.910  0.2813  1.2669 -0.1911
  934SOL     OW19943   2.729   4.805   5.629 -0.2133 -0.6928  0.4307
  934SOL    HW119944   2.635   4.821   5.638 -0.2839 -1.3097  0.8091
  934SOL    HW219945   2.768   4.892   5.630 -0.4184 -0.5036  4.3564
  935SOL     OW19946   4.755   5.867   1.233  0.1939 -0.4266  0.3269
  935SOL    HW119947   4.669   5.876   1.274 -0.1778 -0.7314 -0.3634
  935SOL    HW219948   4.736   5.831   1.146  0.9978 -0.2195  0.0603
  936SOL     OW19949   0.722   6.098   6.367 -0.2787  0.2762  0.2653
  936SOL    HW119950   0.750   6.052   6.288 -0.2900 -0.1772  0.5212
  936SOL    HW219951   0.652   6.043   6.403  0.0375  0.2440  0.8343
  937SOL     OW19952   5.898   4.976   0.714  0.4154  0.4124 -0.2755
  937SOL    HW119953   5.958   4.987   0.788 -1.2708  0.8552  1.1040
  937SOL    HW219954   5.894   4.882   0.700  1.5522  0.3854 -0.5175
  938SOL     OW19955   6.150   2.749   1.888 -0.3102 -0.0036  0.1657
  938SOL    HW119956   6.118   2.826   1.934 -1.4465 -1.0130  1.1454
  938SOL    HW219957   6.085   2.681   1.905  0.2956 -1.0040 -1.2447
  939SOL     OW19958   2.425   3.012   1.612 -0.1061 -0.0733 -0.3637
  939SOL    HW119959   2.425   3.031   1.706 -0.6663 -0.2180 -0.3311
  939SOL    HW219960   2.512   2.976   1.595  0.8188  1.9973 -0.3275
  940SOL     OW19961   4.245   1.743   6.766  0.4104 -0.2581 -0.2632
  940SOL    HW119962   4.240   1.786   6.680  2.6609 -0.6684 -0.6697
  940SOL    HW219963   4.323   1.781   6.807 -0.6565 -0.0185  1.6673
  941SOL     OW19964   3.130   6.270   0.511 -0.0687  0.1172 -0.0506
  941SOL    HW119965   3.156   6.203   0.448  0.5809 -1.1992  1.5523
  941SOL    HW219966   3.062   6.320   0.466  1.2400  0.0456 -2.2567
  942SOL     OW19967   4.115   0.728   1.732  0.2598 -0.3414  0.0613
  942SOL    HW119968   4.042   0.692   1.784 -0.5741  1.2288  0.0280
  942SOL    HW219969   4.169   0.651   1.712 -1.3264 -1.5563  0.1632
  943SOL     OW19970   6.160   4.806   1.089 -0.7580 -0.7812  0.3503
  943SOL    HW119971   6.207   4.802   1.172 -0.7081 -0.3205  0.3445
  943SOL    HW219972   6.090   4.741   1.098  0.4674 -2.2139 -0.0169
  944SOL     OW19973   0.144   1.671   0.972 -0.1288  0.0704 -0.0203
  944SOL    HW119974   0.191   1.739   1.021 -1.0516  2.2511 -1.9633
  944SOL    HW219975   0.061   1.712   0.948 -1.1034 -2.0830 -0.5378
  945SOL     OW19976   3.088   3.216   1.083  0.5121  0.0811  0.1249
  945SOL    HW119977   3.166   3.271   1.074  0.9777 -0.3473  1.3907
  945SOL    HW219978   3.085   3.164   1.002  0.7976  1.0158 -0.4980
  946SOL     OW19979   4.494   2.891   1.414 -0.4082  0.0489 -0.0390
  946SOL    HW119980   4.507   2.928   1.502 -1.2904  0.0483  0.0972
  946SOL    HW219981   4.491   2.796   1.427  1.1745 -0.0706 -0.3039
  947SOL     OW19982   5.448   3.802   6.527  0.7031 -0.1055  0.3401
  947SOL    HW119983   5.457   3.763   6.440  0.2064  0.6721 -0.0741
  947SOL    HW219984   5.445   3.896   6.510 -0.7362 -0.0030  1.0843
  948SOL     OW19985   3.757   3.526   6.023  0.2065  0.2054 -0.4274
  948SOL    HW119986   3.844   3.548   6.055  0.6185 -1.6131 -0.1766
  948SOL    HW219987   3.748   3.576   5.942  1.6291  0.1512 -0.6469
  949SOL     OW19988   4.971   6.126   5.868 -0.0005  0.4583  0.1274
  949SOL    HW119989   5.011   6.207   5.899 -1.3363  1.0115  0.4669
  949SOL    HW219990   4.999   6.119   5.777  0.3213  1.1711  0.1688
  950SOL     OW19991   1.610   0.233   7.630 -0.1116 -0.5374 -0.5673
  950SOL    HW119992   1.576   0.320   7.647 -2.2687 -1.8637  2.8912
  950SOL    HW219993   1.545   0.192   7.573 -0.0077 -0.4506 -0.7486
  951SOL     OW19994   0.424   1.352   0.767 -0.0689 -0.0414  0.7700
  951SOL    HW119995   0.329   1.360   0.755 -0.4732 -2.0036  2.1926
  951SOL    HW219996   0.435   1.269   0.813  2.3053  0.4709  1.2280
  952SOL     OW19997   4.800   6.188   6.106 -0.1863 -0.5715  0.0616
  952SOL    HW119998   4.872   6.157   6.053 -0.5194 -0.2336 -0.6028
  952SOL    HW219999   4.828   6.275   6.137  0.1154 -0.8761  0.6678
  953SOL     OW20000   1.316   4.620   6.049 -0.8136 -0.6830  0.1900
  953SOL    HW120001   1.385   4.686   6.043 -1.1837 -0.3600 -0.5457
  953SOL    HW220002   1.363   4.537   6.045 -0.4439 -0.4643 -0.1033
  954SOL     OW20003   5.283   2.392   0.213  0.3300  0.3102  0.1905
  954SOL    HW120004   5.316   2.411   0.300 -1.4222 -0.7112  1.1347
  954SOL    HW220005   5.291   2.475   0.165 -0.6810  1.5277  2.0018
  955SOL     OW20006   5.586   3.068   7.233 -0.1317 -0.2821 -0.0038
  955SOL    HW120007   5.631   3.146   7.266 -0.6753 -0.2014  0.5737
  955SOL    HW220008   5.641   3.036   7.162 -0.1909  0.9576 -0.6380
  956SOL     OW20009   3.836   1.230   2.312 -0.1230 -0.5340 -0.4954
  956SOL    HW120010   3.866   1.144   2.341  1.5782  0.7428  1.9059
  956SOL    HW220011   3.891   1.250   2.236 -1.2769 -1.9297 -1.7690
  957SOL     OW20012   2.732   1.426   5.904 -0.1901 -0.1655  0.0774
  957SOL    HW120013   2.716   1.515   5.937 -0.2257 -0.2203  0.2055
  957SOL    HW220014   2.686   1.424   5.820 -1.0626 -0.3926  0.5461
  958SOL     OW20015   2.044   3.981   1.867 -0.3583 -0.3274 -0.4159
  958SOL    HW120016   1.985   4.055   1.884  1.3742  0.9691  0.2428
  958SOL    HW220017   2.103   3.979   1.942 -0.7293 -2.8316 -0.0868
  959SOL     OW20018   1.059   3.335   0.818 -0.4788  0.4694 -0.4409
  959SOL    HW120019   1.034   3.387   0.894 -0.3479 -0.0709 -0.0244
  959SOL    HW220020   0.980   3.285   0.796  0.0815 -0.9809  0.6660
  960SOL     OW20021   1.652   0.128   0.599  0.3978  0.0013 -0.1049
  960SOL    HW120022   1.562   0.118   0.570  0.3190  0.7012 -0.1024
  960SOL    HW220023   1.680   0.212   0.564  1.0703 -0.2344 -0.1546
  961SOL     OW20024   2.868   5.270   5.906  0.2471  0.4496 -0.0135
  961SOL    HW120025   2.790   5.285   5.852 -0.4072 -0.6756  0.5891
  961SOL    HW220026   2.879   5.175   5.906  2.0758  0.6339 -0.7001
  962SOL     OW20027   0.664   2.733   1.118  0.4874 -0.0325  0.9952
  962SOL    HW120028   0.667   2.827   1.101 -3.5604  0.0650 -0.0436
  962SOL    HW220029   0.684   2.692   1.034 -0.4856 -0.0115  0.7473
  963SOL     OW20030   4.690   1.661   6.854 -0.1525  0.0112 -0.2197
  963SOL    HW120031   4.760   1.666   6.920 -2.1434 -2.3877  2.3155
  963SOL    HW220032   4.724   1.604   6.786  0.5364 -0.7728  0.7639
  964SOL     OW20033   1.458   5.526   6.319 -0.1774  0.1842  0.0196
  964SOL    HW120034   1.498   5.468   6.254 -1.1401  0.1963 -0.6110
  964SOL    HW220035   1.515   5.603   6.322  0.5438 -0.3501  0.1004
  965SOL     OW20036   0.421   2.849   6.921  0.1821 -0.1323  0.0892
  965SOL    HW120037   0.406   2.795   6.998  2.6377 -2.1549 -0.7341
  965SOL    HW220038   0.396   2.937   6.948  0.9869 -0.7492  3.1976
  966SOL     OW20039   2.506   1.304   0.900 -0.2156 -0.2083  0.4152
  966SOL    HW120040   2.414   1.283   0.881  0.1232 -1.0069 -0.4523
  966SOL    HW220041   2.531   1.367   0.832 -0.2590  0.4202  0.9696
  967SOL     OW20042   0.198   2.960   0.778  0.3484  0.5621 -0.1238
  967SOL    HW120043   0.133   2.926   0.717  1.2814  1.4056 -1.6540
  967SOL    HW220044   0.149   2.979   0.858 -0.5854 -2.1972  0.0418
  968SOL     OW20045   4.125   4.022   7.151  0.2240 -0.2387 -0.0198
  968SOL    HW120046   4.122   4.107   7.107  0.3866  0.2244  0.8360
  968SOL    HW220047   4.143   4.044   7.242 -0.3796 -1.1608  0.3256
  969SOL     OW20048   0.976   5.395   5.963  0.5058  0.2477 -0.2717
  969SOL    HW120049   0.991   5.487   5.940 -0.3278  0.4115 -0.1952
  969SOL    HW220050   0.941   5.356   5.883  0.8556 -0.0034 -0.3021
  970SOL     OW20051   1.498   4.088   6.030  0.5742  0.0061 -0.1714
  970SOL    HW120052   1.410   4.062   6.001  0.7580  0.4744 -1.1859
  970SOL    HW220053   1.507   4.048   6.116 -0.3867 -0.6000 -0.3303
  971SOL     OW20054   0.206   1.397   0.585 -0.2231 -0.4001 -0.3741
  971SOL    HW120055   0.170   1.310   0.605 -1.8716 -0.1979 -2.1001
  971SOL    HW220056   0.264   1.382   0.510  1.1535 -0.2837  0.6308
  972SOL     OW20057   2.871   0.125   7.174 -0.2437  0.1770  0.7332
  972SOL    HW120058   2.952   0.120   7.225  0.7546  2.0413 -0.5697
  972SOL    HW220059   2.842   0.216   7.184 -0.4458  0.3769 -1.3561
  973SOL     OW20060   3.626   1.721   6.517 -0.1639 -0.5005 -0.7445
  973SOL    HW120061   3.703   1.690   6.564 -0.1700 -0.2265 -0.5492
  973SOL    HW220062   3.598   1.798   6.566 -0.9059 -0.9315 -0.4756
  974SOL     OW20063   1.400   4.033   7.611  0.1295  0.5633 -0.5393
  974SOL    HW120064   1.350   3.958   7.644 -0.2377  0.3878 -1.4546
  974SOL    HW220065   1.341   4.107   7.621  0.9907  1.0319  1.6732
  975SOL     OW20066   4.297   3.866   0.363  0.2273 -0.0635  0.3103
  975SOL    HW120067   4.305   3.956   0.395  0.5149  0.2446 -0.6221
  975SOL    HW220068   4.204   3.856   0.344  0.2125  0.0654  0.3131
  976SOL     OW20069   3.035   0.281   5.873 -0.0462  0.3524 -0.4695
  976SOL    HW120070   2.979   0.275   5.951 -1.0765  1.9887 -1.0290
  976SOL    HW220071   3.108   0.337   5.900  0.2309 -0.0597 -0.3507
  977SOL     OW20072   0.392   1.663   1.394  0.3395  0.3418  0.9387
  977SOL    HW120073   0.398   1.627   1.306  0.3847 -0.1269  1.1270
  977SOL    HW220074   0.355   1.750   1.383  2.9041  1.4067  0.2006
  978SOL     OW20075   5.876   0.587   1.637  0.6599  0.5777  0.0226
  978SOL    HW120076   5.828   0.545   1.565  3.3294  0.6853 -1.9264
  978SOL    HW220077   5.862   0.528   1.711 -0.6632 -0.5197 -1.0380
  979SOL     OW20078   1.407   0.506   7.180  0.5608  0.1952  0.5704
  979SOL    HW120079   1.359   0.585   7.156  1.7420  0.1409 -2.4230
  979SOL    HW220080   1.495   0.521   7.146  0.9578 -2.1977  0.4027
  980SOL     OW20081   0.007   4.461   1.876  0.0228  0.8044 -0.0865
  980SOL    HW120082  -0.022   4.455   1.785 -0.6052  1.1577  0.0875
  980SOL    HW220083   0.010   4.555   1.895  0.6291  0.7544  0.1121
  981SOL     OW20084   0.205   3.209   6.141 -0.3841  0.3474  0.2175
  981SOL    HW120085   0.208   3.146   6.069  0.4260  0.5978  0.0137
  981SOL    HW220086   0.184   3.156   6.218 -3.9473  0.4241 -0.5258
  982SOL     OW20087   1.659   2.153   7.095  0.2506  0.9441  0.3910
  982SOL    HW120088   1.638   2.246   7.095 -0.9553  0.7059 -0.9830
  982SOL    HW220089   1.574   2.109   7.091  0.8395 -0.1529 -1.3931
  983SOL     OW20090   2.180   0.446   7.477 -0.0042  0.1554  0.2789
  983SOL    HW120091   2.268   0.413   7.458 -0.7288 -1.3294 -0.7382
  983SOL    HW220092   2.170   0.522   7.420 -0.3777 -1.3743 -1.8057
  984SOL     OW20093   5.567   3.761   5.457 -0.5196 -0.1690  0.3858
  984SOL    HW120094   5.543   3.669   5.450 -0.7608 -0.1134  0.4601
  984SOL    HW220095   5.647   3.770   5.406 -1.4622 -0.0468 -1.1273
  985SOL     OW20096   2.775   6.165   6.549  0.1752 -0.2091 -0.1151
  985SOL    HW120097   2.801   6.207   6.467  0.4444 -0.3604 -0.1083
  985SOL    HW220098   2.824   6.212   6.616 -2.8133  2.5031  0.4354
  986SOL     OW20099   2.307   5.487   7.732  0.2447  0.3091  0.2921
  986SOL    HW120100   2.394   5.495   7.772 -0.1836  0.2939  1.2600
  986SOL    HW220101   2.323   5.490   7.638  1.5982 -2.2347  0.3473
  987SOL     OW20102   0.638   0.908   7.259  0.4296 -1.1049 -0.6575
  987SOL    HW120103   0.585   0.987   7.249 -0.2334 -1.6047 -1.1492
  987SOL    HW220104   0.576   0.841   7.285  0.9335 -1.5545 -0.5977
  988SOL     OW20105   2.759   4.256   7.140 -0.3858 -0.8753 -0.3521
  988SOL    HW120106   2.677   4.210   7.121  0.5325 -2.7279 -0.0094
  988SOL    HW220107   2.754   4.276   7.234 -1.9447  2.2299 -0.9726
  989SOL     OW20108   1.579   6.185   0.674  0.4012  0.3264 -0.1887
  989SOL    HW120109   1.516   6.193   0.602  0.5757 -2.7437 -0.8170
  989SOL    HW220110   1.538   6.122   0.734  0.9205  1.7082  1.7201
  990SOL     OW20111   1.834   5.589   6.684 -0.0055 -0.5702  0.1566
  990SOL    HW120112   1.785   5.534   6.624  2.3605 -1.9144 -0.6526
  990SOL    HW220113   1.883   5.528   6.739 -0.0878  0.6886  1.7295
  991SOL     OW20114   4.808   1.475   2.068  0.2481  0.1715 -0.6487
  991SOL    HW120115   4.796   1.420   1.991 -0.6844 -0.6712  0.0755
  991SOL    HW220116   4.719   1.497   2.096  0.5877  2.1792 -0.9919
  992SOL     OW20117   0.484   2.958   2.633 -0.5086 -0.1156  0.3902
  992SOL    HW120118   0.503   3.039   2.586 -1.7316 -0.8649 -1.5335
  992SOL    HW220119   0.562   2.941   2.685 -0.1946  2.2314  0.7802
  993SOL     OW20120   1.343   0.311   6.963 -0.1083  0.0056  0.0353
  993SOL    HW120121   1.345   0.365   6.884  0.4066 -0.4932 -0.3024
  993SOL    HW220122   1.361   0.372   7.035  0.2968  0.3144 -0.3270
  994SOL     OW20123   3.867   0.753   0.010 -0.1759  0.2931  0.2296
  994SOL    HW120124   3.824   0.770  -0.074  0.1034  1.4358  0.2914
  994SOL    HW220125   3.798   0.718   0.066 -0.3420 -0.5713 -0.5014
  995SOL     OW20126   0.214   6.411   7.143 -0.0437 -0.6502  0.3839
  995SOL    HW120127   0.259   6.374   7.219 -0.7293 -3.1461 -0.3153
  995SOL    HW220128   0.227   6.345   7.074  0.3585  1.4106 -1.6379
  996SOL     OW20129   0.739   0.954   1.507 -0.3503  0.2343  0.1937
  996SOL    HW120130   0.677   0.937   1.437  0.1096  1.8923 -0.6647
  996SOL    HW220131   0.707   0.902   1.581 -2.6791  0.9455 -0.2520
  997SOL     OW20132   2.897   1.686   0.117  0.0346 -0.1292  0.3929
  997SOL    HW120133   2.961   1.689   0.046 -0.4913  0.3959 -0.0615
  997SOL    HW220134   2.840   1.613   0.094 -1.6098  1.5218 -1.0236
  998SOL     OW20135   3.729   4.496   1.668 -0.4651  0.1581 -0.3415
  998SOL    HW120136   3.667   4.561   1.700 -1.5221 -0.0535 -1.8348
  998SOL    HW220137   3.689   4.463   1.588  0.1850 -2.1103  0.1999
  999SOL     OW20138   3.664   4.685   5.530 -0.1287 -0.3640 -0.4165
  999SOL    HW120139   3.671   4.722   5.442 -0.8297 -1.5769 -1.0070
  999SOL    HW220140   3.732   4.617   5.534  1.0378  0.8084  0.5972
 1000SOL     OW20141   2.735   0.838   0.498 -0.0365  0.9907 -0.3469
 1000SOL    HW120142   2.644   0.848   0.528 -0.0468  1.0714 -0.4062
 1000SOL    HW220143   2.731   0.769   0.432  0.2205 -0.3021  0.9297
 1001SOL     OW20144   5.059   0.555   6.237 -0.3527  0.6764 -0.4602
 1001SOL    HW120145   5.024   0.637   6.203  0.6234  0.0801 -3.1376
 1001SOL    HW220146   5.027   0.488   6.176  2.0513 -0.3950 -0.6432
 1002SOL     OW20147   3.224   1.087   7.464  0.0822  0.6866  0.1140
 1002SOL    HW120148   3.218   1.004   7.416  0.2935  1.0513 -0.5522
 1002SOL    HW220149   3.149   1.085   7.524  1.5175 -1.1711  2.0200
 1003SOL     OW20150   5.240   6.245   0.979  0.1957 -0.0878  0.3283
 1003SOL    HW120151   5.159   6.194   0.984 -0.1552  0.4059 -0.1293
 1003SOL    HW220152   5.300   6.191   0.928 -0.1034 -0.1390  0.0265
 1004SOL     OW20153   4.824   6.027   6.316 -0.0396 -0.1681  0.4488
 1004SOL    HW120154   4.822   6.079   6.236  0.3750 -1.6976 -0.5916
 1004SOL    HW220155   4.753   6.062   6.369 -0.7948  0.4002 -0.8971
 1005SOL     OW20156   4.840   1.411   6.059 -0.2533 -0.1441  0.3361
 1005SOL    HW120157   4.757   1.380   6.024 -0.6508  0.8220  0.4037
 1005SOL    HW220158   4.817   1.487   6.112  0.2358 -1.7997  3.1555
 1006SOL     OW20159   1.395   2.577   7.304 -0.1810 -0.2374 -0.0924
 1006SOL    HW120160   1.302   2.592   7.322 -0.1874  0.2215 -0.4798
 1006SOL    HW220161   1.439   2.597   7.386 -0.4614 -0.8961  0.2300
 1007SOL     OW20162   0.469   2.398   2.212  0.2401  0.0242 -0.4457
 1007SOL    HW120163   0.551   2.349   2.203 -0.2858 -0.9923  0.1459
 1007SOL    HW220164   0.405   2.348   2.162 -0.4667 -0.3128  0.7469
 1008SOL     OW20165   3.510   1.607   1.575  0.0234 -0.3177  0.1141
 1008SOL    HW120166   3.522   1.581   1.666 -0.0030  2.6911  1.1032
 1008SOL    HW220167   3.447   1.679   1.580 -0.8640 -0.8401 -2.4431
 1009SOL     OW20168   2.637   1.483   7.599  0.1690  0.2965  0.0440
 1009SOL    HW120169   2.673   1.503   7.686  2.4513  1.8202 -1.1345
 1009SOL    HW220170   2.580   1.557   7.579 -1.0527 -0.4769  0.5399
 1010SOL     OW20171   4.229   5.855   7.426 -0.1841  0.2090  0.3141
 1010SOL    HW120172   4.275   5.843   7.343 -0.3279 -1.6808  0.4760
 1010SOL    HW220173   4.212   5.766   7.458 -3.6403  0.7380  0.4236
 1011SOL     OW20174   6.115   4.265   6.468  0.3464 -0.2256 -0.1820
 1011SOL    HW120175   6.090   4.192   6.525  0.8745 -1.7392 -1.7743
 1011SOL    HW220176   6.163   4.223   6.396 -0.3111  1.5652 -1.7462
 1012SOL     OW20177   2.679   3.599   7.237  0.2068 -0.2282  0.5703
 1012SOL    HW120178   2.711   3.510   7.226  0.4480  0.0985 -1.8235
 1012SOL    HW220179   2.711   3.646   7.160 -1.0771  1.5938  1.0817
 1013SOL     OW20180   2.164   3.489   6.261  0.0657  0.1362 -0.0877
 1013SOL    HW120181   2.179   3.505   6.168  0.6228 -2.7998 -0.5879
 1013SOL    HW220182   2.245   3.449   6.292 -0.8612 -0.8578  1.1577
 1014SOL     OW20183   1.931   5.326   0.116 -0.0132  0.1078  0.3016
 1014SOL    HW120184   1.895   5.271   0.185  0.3014  0.0627  0.4334
 1014SOL    HW220185   1.856   5.349   0.061 -0.4720  1.0402  1.2746
 1015SOL     OW20186   3.341   1.250   2.075  0.4305 -0.0156 -0.6200
 1015SOL    HW120187   3.409   1.222   2.013  0.6635 -0.3901 -0.1971
 1015SOL    HW220188   3.379   1.233   2.161 -0.7079 -1.4312 -0.3818
 1016SOL     OW20189   6.158   3.153   0.141 -0.6265  0.2392  0.0882
 1016SOL    HW120190   6.247   3.168   0.173 -0.5114 -0.7270  0.2654
 1016SOL    HW220191   6.118   3.097   0.207 -1.4112  0.7557  0.0619
 1017SOL     OW20192   0.222   2.816   6.373  0.1405 -0.0075  0.2538
 1017SOL    HW120193   0.300   2.816   6.427 -0.6283  1.5454  1.4358
 1017SOL    HW220194   0.168   2.745   6.408  1.2093 -1.4869 -0.9526
 1018SOL     OW20195   3.446   3.079   7.699  0.1359 -0.1482  0.7646
 1018SOL    HW120196   3.464   3.111   7.610  0.6285  0.3976  1.0479
 1018SOL    HW220197   3.373   3.019   7.689 -0.4017  0.5958  0.1091
 1019SOL     OW20198   3.180   1.844   6.098 -0.3861 -0.1780  0.0488
 1019SOL    HW120199   3.159   1.896   6.020 -0.2424 -0.5804 -0.2607
 1019SOL    HW220200   3.127   1.765   6.089  0.1844 -0.5557 -0.0099
 1020SOL     OW20201   5.127   1.754   7.620  0.1003 -0.3590 -0.1674
 1020SOL    HW120202   5.090   1.668   7.643  1.4659 -1.2523 -1.1723
 1020SOL    HW220203   5.212   1.756   7.665 -0.0578  0.6119  0.1035
 1021SOL     OW20204   2.729   3.125   1.057 -0.2083  0.1185 -0.0850
 1021SOL    HW120205   2.799   3.116   1.122  1.0942  1.3033 -1.2391
 1021SOL    HW220206   2.744   3.054   0.995 -1.4972 -1.0590  0.8932
 1022SOL     OW20207   6.210   4.731   7.567 -0.0740  0.0447 -0.2083
 1022SOL    HW120208   6.122   4.722   7.529  0.5100  0.8915 -1.8428
 1022SOL    HW220209   6.230   4.644   7.602 -1.8660  0.0252  0.9339
 1023SOL     OW20210   4.866   0.335   6.508 -0.2767  0.0363  0.7396
 1023SOL    HW120211   4.799   0.344   6.576  1.6197  0.9523  2.5997
 1023SOL    HW220212   4.949   0.336   6.556  1.0852 -1.9406 -1.3945
 1024SOL     OW20213   2.894   1.059   7.749 -0.7475  0.2431 -0.0203
 1024SOL    HW120214   2.890   0.982   7.692 -3.2085  0.9246 -0.9293
 1024SOL    HW220215   2.985   1.064   7.778 -0.3301 -2.5086 -0.5895
 1025SOL     OW20216   4.471   1.274   7.402 -0.0720  0.1375 -0.0798
 1025SOL    HW120217   4.402   1.279   7.336 -0.2134  2.3763  0.1940
 1025SOL    HW220218   4.550   1.302   7.356  1.5986 -5.2355 -1.3150
 1026SOL     OW20219   0.245   3.136   7.238  0.0552  0.4258  0.0418
 1026SOL    HW120220   0.313   3.113   7.175  0.1602  0.8120  0.0062
 1026SOL    HW220221   0.169   3.084   7.213 -0.1070  1.0404 -0.8072
 1027SOL     OW20222   5.579   0.445   1.917 -0.2069  0.3024  0.1931
 1027SOL    HW120223   5.657   0.425   1.864  1.4108  0.8872  2.2131
 1027SOL    HW220224   5.522   0.493   1.857  1.5767  1.0331 -1.0369
 1028SOL     OW20225   0.526   0.318   1.758 -0.2116  0.1822  0.6610
 1028SOL    HW120226   0.488   0.337   1.672 -0.8269 -0.6064  0.7407
 1028SOL    HW220227   0.609   0.275   1.738 -1.3148 -1.9796  0.3772
 1029SOL     OW20228   3.169   0.301   6.389 -0.5816  0.4653  0.5271
 1029SOL    HW120229   3.149   0.270   6.301  0.5021 -0.0019  0.4180
 1029SOL    HW220230   3.128   0.236   6.447  1.7076 -1.3617  0.2983
 1030SOL     OW20231   5.080   4.404   1.670  0.0555  0.0774 -0.3484
 1030SOL    HW120232   4.998   4.378   1.713  0.2235  1.3326  0.7996
 1030SOL    HW220233   5.148   4.388   1.735  0.6656 -0.4545 -1.1045
 1031SOL     OW20234   3.880   2.028   5.367 -0.1418  0.2836  0.1271
 1031SOL    HW120235   3.832   2.110   5.377  0.1535  0.4472  0.2201
 1031SOL    HW220236   3.972   2.052   5.379 -0.1763 -0.3916  2.2870
 1032SOL     OW20237   6.276   5.857   5.767 -0.7269 -0.3697  0.0722
 1032SOL    HW120238   6.340   5.909   5.815  0.4812 -0.1432 -1.6535
 1032SOL    HW220239   6.267   5.776   5.818 -0.1780  0.2120  1.1100
 1033SOL     OW20240   4.627   2.100   5.594  0.1736 -0.1037 -0.6447
 1033SOL    HW120241   4.623   2.017   5.640  0.7677  0.0006 -0.4057
 1033SOL    HW220242   4.713   2.136   5.615 -0.1829  0.7008 -0.5245
 1034SOL     OW20243   0.424   2.875   7.408  0.2907 -0.4235 -0.2552
 1034SOL    HW120244   0.362   2.945   7.431 -1.5821 -1.9008 -0.5696
 1034SOL    HW220245   0.386   2.796   7.446  1.1186 -1.6586 -1.8548
 1035SOL     OW20246   3.976   4.492   5.520 -0.2192 -0.0825  0.0295
 1035SOL    HW120247   3.971   4.581   5.484  2.0972  0.1165  0.0223
 1035SOL    HW220248   4.043   4.498   5.588  3.6324 -2.6949 -3.0895
 1036SOL     OW20249   2.301   3.554   0.845  0.0933  0.0663  0.3674
 1036SOL    HW120250   2.244   3.604   0.904  0.2088  1.9586 -1.0165
 1036SOL    HW220251   2.386   3.555   0.887 -0.1085  0.2975  0.7738
 1037SOL     OW20252   1.186   2.504   6.918 -0.4023  0.0987 -0.3771
 1037SOL    HW120253   1.186   2.569   6.988 -2.1366  0.4813 -0.6815
 1037SOL    HW220254   1.170   2.555   6.838  0.4048 -0.4613 -0.9036
 1038SOL     OW20255   3.424   3.032   5.586 -0.3062  0.7227 -0.5089
 1038SOL    HW120256   3.459   2.993   5.666  0.5574  0.0018 -1.2017
 1038SOL    HW220257   3.412   3.125   5.607  0.3087  0.6250  0.3314
 1039SOL     OW20258   2.250   6.114   6.299  0.3669  0.1508  0.5459
 1039SOL    HW120259   2.234   6.035   6.352 -0.6499  0.1876  0.3090
 1039SOL    HW220260   2.345   6.116   6.289  0.3992 -1.2339  0.2856
 1040SOL     OW20261   3.707   3.625   2.060 -0.2964 -0.0009 -1.0053
 1040SOL    HW120262   3.699   3.610   2.154 -1.4365 -1.8946 -1.3624
 1040SOL    HW220263   3.617   3.629   2.028  0.0806  0.4163 -2.0571
 1041SOL     OW20264   5.850   5.646   1.212 -0.6170 -0.2113 -0.3574
 1041SOL    HW120265   5.852   5.730   1.258  1.5129 -0.4502  0.1028
 1041SOL    HW220266   5.904   5.659   1.134 -1.3279 -0.8032 -0.9635
 1042SOL     OW20267   4.223   3.102   0.446  0.3891  0.5397 -0.3060
 1042SOL    HW120268   4.297   3.074   0.500 -0.7321 -0.2415  0.8961
 1042SOL    HW220269   4.261   3.159   0.379  1.9811  0.6607  0.6665
 1043SOL     OW20270   4.921   3.337   6.069  0.4187  0.2937 -0.1146
 1043SOL    HW120271   5.016   3.351   6.071  0.8024 -1.8776 -0.6922
 1043SOL    HW220272   4.910   3.245   6.093 -1.6919  0.9289  1.6832
 1044SOL     OW20273   1.096   5.982   6.766 -0.0251  0.3039 -0.5718
 1044SOL    HW120274   1.022   5.971   6.707 -0.1927 -0.3090 -0.2555
 1044SOL    HW220275   1.169   6.006   6.709  0.1448 -1.5730 -1.2323
 1045SOL     OW20276   3.272   3.828   1.720 -0.3724 -0.0291 -0.1174
 1045SOL    HW120277   3.232   3.829   1.807 -0.1263  0.5544 -0.0099
 1045SOL    HW220278   3.205   3.788   1.664 -0.8329  0.2986  0.1910
 1046SOL     OW20279   4.357   2.219   6.592  0.2680 -0.1090  0.3608
 1046SOL    HW120280   4.357   2.308   6.557  0.3588  0.2834  1.3412
 1046SOL    HW220281   4.279   2.178   6.552 -1.7122  1.4375  2.3917
 1047SOL     OW20282   6.080   0.495   5.751 -0.7179 -0.0072  0.2755
 1047SOL    HW120283   6.033   0.434   5.694 -0.2982  0.8383 -1.0213
 1047SOL    HW220284   6.160   0.517   5.702  1.2558 -1.6373  2.5166
 1048SOL     OW20285   2.897   6.392   0.412  0.3287  0.2264  0.6673
 1048SOL    HW120286   2.810   6.433   0.412  0.0524  0.0135 -3.1506
 1048SOL    HW220287   2.947   6.441   0.347  1.6730 -2.2255 -0.3030
 1049SOL     OW20288   5.213   1.217   7.748  0.0762 -0.4586  0.1637
 1049SOL    HW120289   5.222   1.131   7.707 -0.1251 -1.9860  3.0574
 1049SOL    HW220290   5.121   1.220   7.777 -0.4603  1.5926 -1.5150
 1050SOL     OW20291   6.201   1.624   1.297  0.5616  0.1446 -0.2541
 1050SOL    HW120292   6.197   1.718   1.282  0.3482  0.9371  3.8575
 1050SOL    HW220293   6.294   1.603   1.298  0.6178  0.3486 -0.8701
 1051SOL     OW20294   4.380   0.556   5.484  0.0054  0.2423 -0.0830
 1051SOL    HW120295   4.467   0.593   5.500  0.0359 -0.5918  1.9811
 1051SOL    HW220296   4.397   0.466   5.457 -0.2068 -0.0694  0.7942
 1052SOL     OW20297   5.971   6.081   0.429 -0.2054 -0.1595  0.3002
 1052SOL    HW120298   6.051   6.030   0.441 -0.6020 -0.6506  0.9241
 1052SOL    HW220299   6.001   6.170   0.411  0.4819 -0.4220  0.1184
 1053SOL     OW20300   5.237   0.302   7.244 -0.6080 -0.3999  0.4367
 1053SOL    HW120301   5.158   0.349   7.217 -1.1842 -1.3759  0.3906
 1053SOL    HW220302   5.216   0.210   7.231 -0.3472 -0.8474  2.7782
 1054SOL     OW20303   5.019   2.390   0.163  0.2994 -0.0164  0.3523
 1054SOL    HW120304   5.093   2.367   0.219 -0.3768 -1.3388  0.7472
 1054SOL    HW220305   5.009   2.316   0.104  0.0531  0.6974 -0.5329
 1055SOL     OW20306   0.022   3.223   7.751  0.5833  0.2091  0.1146
 1055SOL    HW120307  -0.041   3.195   7.685 -0.0832  1.4364  0.1963
 1055SOL    HW220308  -0.009   3.186   7.833 -1.2386  2.3989  0.5252
 1056SOL     OW20309   1.878   0.787   6.903 -0.7641 -0.1227  0.0758
 1056SOL    HW120310   1.874   0.872   6.945 -0.3049 -0.6382  1.2185
 1056SOL    HW220311   1.839   0.727   6.966  0.4726 -1.0107  0.0420
 1057SOL     OW20312   5.508   6.442   0.278 -0.2737  0.1511 -0.3135
 1057SOL    HW120313   5.466   6.443   0.364  0.3069  1.5040 -0.0183
 1057SOL    HW220314   5.445   6.401   0.220 -0.8857 -0.3061  0.6559
 1058SOL     OW20315   5.972   4.624   1.184 -0.4212  0.3141 -0.0203
 1058SOL    HW120316   5.992   4.628   1.277  1.0065 -0.5805 -0.2582
 1058SOL    HW220317   5.941   4.535   1.169  0.1165  0.2043 -0.5295
 1059SOL     OW20318   0.575   6.436   0.882  0.6064 -0.1285  0.0346
 1059SOL    HW120319   0.668   6.459   0.877  0.6459 -0.4545 -1.0835
 1059SOL    HW220320   0.568   6.377   0.957  1.4850 -0.8688 -0.4431
 1060SOL     OW20321   2.302   2.547   6.485 -0.1048  0.3781 -0.1358
 1060SOL    HW120322   2.301   2.490   6.408 -1.8141 -0.5731  0.5376
 1060SOL    HW220323   2.293   2.636   6.450 -0.0521  0.0226 -1.0671
 1061SOL     OW20324   0.069   1.874   6.963  0.6166 -0.5674  0.2158
 1061SOL    HW120325   0.140   1.848   6.904  0.0529 -3.0454  0.5316
 1061SOL    HW220326   0.112   1.885   7.048  0.6341 -2.3644  0.4748
 1062SOL     OW20327   6.327   2.952   6.684 -0.8004 -0.1566  0.4816
 1062SOL    HW120328   6.375   2.869   6.689 -0.2295  0.0894 -0.6423
 1062SOL    HW220329   6.297   2.957   6.593  1.0451  1.8795 -0.0998
 1063SOL     OW20330   6.311   2.358   2.041  0.2030 -0.5826 -0.3485
 1063SOL    HW120331   6.405   2.346   2.028  0.6965  1.1688  1.0421
 1063SOL    HW220332   6.305   2.438   2.093 -2.1236 -0.0760 -1.2691
 1064SOL     OW20333   2.548   1.230   6.640  0.1414 -0.0367  0.4774
 1064SOL    HW120334   2.534   1.276   6.722 -1.8027 -0.5884  0.5075
 1064SOL    HW220335   2.460   1.212   6.607  0.8693 -0.7424 -1.2103
 1065SOL     OW20336   6.468   0.816   5.757 -0.1078  0.4193  0.7052
 1065SOL    HW120337   6.525   0.878   5.712 -1.2295  2.1592  1.5874
 1065SOL    HW220338   6.477   0.735   5.708 -1.1393  2.1349 -2.5779
 1066SOL     OW20339   1.073   3.853   7.222  0.4308  0.0338 -0.3032
 1066SOL    HW120340   1.144   3.913   7.200  0.6010 -0.0675 -0.0387
 1066SOL    HW220341   1.115   3.786   7.277  0.1504 -0.0781 -0.2259
 1067SOL     OW20342   3.180   0.884   6.878 -0.0815 -0.3561 -0.1905
 1067SOL    HW120343   3.257   0.927   6.916  0.7551 -2.1422  0.2174
 1067SOL    HW220344   3.119   0.956   6.860  0.8666  0.9009  1.3446
 1068SOL     OW20345   2.838   1.402   0.039  0.3267 -0.1226 -0.7503
 1068SOL    HW120346   2.875   1.376   0.124 -1.8846  3.9713  1.7656
 1068SOL    HW220347   2.765   1.341   0.026  0.5319 -0.6540  0.4158
 1069SOL     OW20348   4.100   4.766   6.484 -0.1003  0.5204  0.2207
 1069SOL    HW120349   4.123   4.832   6.550 -1.9551  2.8298 -1.2777
 1069SOL    HW220350   4.029   4.806   6.434 -0.2728 -2.0425 -1.7943
 1070SOL     OW20351   4.265   3.088   6.546  0.3810  1.0943 -0.1504
 1070SOL    HW120352   4.314   3.164   6.513 -0.6103  1.2955 -1.2096
 1070SOL    HW220353   4.182   3.124   6.577 -0.1358  0.4343 -0.7448
 1071SOL     OW20354   5.940   4.747   7.255 -0.6156 -0.0917 -0.0853
 1071SOL    HW120355   6.025   4.736   7.213 -0.1201 -1.2257  1.1402
 1071SOL    HW220356   5.948   4.700   7.338 -2.6061 -0.7060 -0.1828
 1072SOL     OW20357   5.505   0.343   0.508  0.0370 -0.5258 -0.0617
 1072SOL    HW120358   5.418   0.305   0.514 -0.1302 -0.1230  0.0899
 1072SOL    HW220359   5.491   0.437   0.508  0.4173 -0.4572 -0.9062
 1073SOL     OW20360   2.185   0.147   6.305 -0.0292  0.4492  0.3742
 1073SOL    HW120361   2.090   0.140   6.316 -0.2206  0.0042 -1.3338
 1073SOL    HW220362   2.209   0.224   6.356 -1.2878  0.4967  0.9376
 1074SOL     OW20363   1.937   3.557   5.998  0.0568 -0.0316 -0.0333
 1074SOL    HW120364   1.925   3.647   5.968 -0.8149 -0.2061 -0.2461
 1074SOL    HW220365   2.030   3.550   6.018  0.1257  0.9231  0.0110
 1075SOL     OW20366   0.913   2.012   5.903  0.1865  0.0001  0.0743
 1075SOL    HW120367   0.888   1.945   5.838  0.2096  0.6099 -0.5812
 1075SOL    HW220368   0.991   2.053   5.866  1.5005 -1.0843  1.5394
 1076SOL     OW20369   1.137   4.965   0.651  0.2638 -0.1226  0.0643
 1076SOL    HW120370   1.120   4.886   0.702  0.1269  0.8838  1.6499
 1076SOL    HW220371   1.097   4.947   0.566 -1.9301 -0.8757  1.1518
 1077SOL     OW20372   2.088   4.329   6.418  0.4504 -0.0960  0.4069
 1077SOL    HW120373   2.083   4.243   6.377  0.8067  0.0701 -0.0021
 1077SOL    HW220374   2.069   4.390   6.347 -0.3316  0.1498  0.8127
 1078SOL     OW20375   0.671   2.999   1.072 -0.1665  0.0099  0.0431
 1078SOL    HW120376   0.628   2.983   0.988 -1.2659 -3.3260  1.0827
 1078SOL    HW220377   0.755   3.038   1.049  0.4845 -2.6964 -2.8367
 1079SOL     OW20378   4.853   1.670   6.621 -0.2098 -0.3977 -0.3816
 1079SOL    HW120379   4.849   1.586   6.575 -0.8330 -1.0278  0.7937
 1079SOL    HW220380   4.818   1.734   6.558  0.4609 -0.9669 -1.3591
 1080SOL     OW20381   0.266   3.880   6.586 -0.6879 -0.6504 -0.1378
 1080SOL    HW120382   0.238   3.886   6.677 -2.0879 -0.3855 -0.5705
 1080SOL    HW220383   0.322   3.957   6.573 -1.2858 -0.1517  0.2237
 1081SOL     OW20384   6.200   0.906   0.971  0.0825 -0.2200  0.6558
 1081SOL    HW120385   6.203   0.811   0.983 -0.4946 -0.5211 -1.2608
 1081SOL    HW220386   6.142   0.937   1.041 -0.9221 -1.4664  0.4068
 1082SOL     OW20387   1.130   2.744   1.032 -0.1887  0.2700 -0.2799
 1082SOL    HW120388   1.213   2.771   0.994 -0.8787  2.8649 -0.1263
 1082SOL    HW220389   1.095   2.680   0.971 -0.1779  2.5613 -2.8657
 1083SOL     OW20390   3.256   0.531   6.304  0.0675  0.5597  0.5808
 1083SOL    HW120391   3.241   0.455   6.360  0.4829 -0.0544 -0.1197
 1083SOL    HW220392   3.340   0.514   6.262  1.0261  2.2396  1.7255
 1084SOL     OW20393   3.395   1.745   0.037 -0.6991  0.2475  0.5032
 1084SOL    HW120394   3.427   1.834   0.046 -2.0335  1.0259 -1.7199
 1084SOL    HW220395   3.318   1.741   0.094 -0.9216  0.6779  0.2368
 1085SOL     OW20396   4.628   2.255   1.192 -0.2770  0.3680 -0.7443
 1085SOL    HW120397   4.643   2.344   1.161 -0.2173  0.8461  0.5906
 1085SOL    HW220398   4.705   2.234   1.244 -1.7275  0.8646  1.7926
 1086SOL     OW20399   0.010   3.634   6.315  0.0751 -0.1491  0.1001
 1086SOL    HW120400   0.055   3.591   6.243  1.7059 -1.6515  1.9117
 1086SOL    HW220401  -0.016   3.719   6.280  1.7323 -0.4119 -1.9319
 1087SOL     OW20402   6.364   0.136   6.409  0.5236 -0.2260  0.4859
 1087SOL    HW120403   6.303   0.111   6.479 -0.7471 -1.7563 -1.0459
 1087SOL    HW220404   6.360   0.231   6.406  1.1639 -0.0650  2.9093
 1088SOL     OW20405   6.241   1.519   6.541 -0.0503  0.3879  0.0354
 1088SOL    HW120406   6.157   1.474   6.552 -0.6444  0.8006 -2.2635
 1088SOL    HW220407   6.242   1.585   6.609 -1.8528  0.7168 -0.1973
 1089SOL     OW20408   2.500   1.045   7.472  0.1082  0.2529 -0.5137
 1089SOL    HW120409   2.584   1.087   7.451  0.3765  0.6175  1.1536
 1089SOL    HW220410   2.525   0.964   7.516 -0.4269 -0.4468 -1.4630
 1090SOL     OW20411   3.345   3.982   0.518 -0.0091  0.1977  0.0361
 1090SOL    HW120412   3.420   3.969   0.460  0.6477  2.1826  0.3592
 1090SOL    HW220413   3.269   3.973   0.461  0.5912  1.2515 -0.9767
 1091SOL     OW20414   2.660   3.311   6.217 -0.1728  0.1411  0.8387
 1091SOL    HW120415   2.739   3.365   6.222 -0.5743  0.8732 -0.3962
 1091SOL    HW220416   2.599   3.352   6.277 -0.1527  0.5336  0.5992
 1092SOL     OW20417   2.162   2.986   1.554  0.1978  0.1474 -0.3412
 1092SOL    HW120418   2.257   2.985   1.559  0.2074 -1.4028 -0.3573
 1092SOL    HW220419   2.134   3.028   1.635  0.8967  0.8839 -0.4791
 1093SOL     OW20420   1.029   1.333   0.408 -0.4553 -0.0927  0.2926
 1093SOL    HW120421   0.989   1.411   0.447  0.2081  1.0033 -1.1054
 1093SOL    HW220422   1.123   1.348   0.415 -0.3185 -0.1545 -1.1182
 1094SOL     OW20423   5.625   5.335   0.761 -0.1046 -0.3393 -0.6505
 1094SOL    HW120424   5.705   5.314   0.810  1.1395 -0.1245 -2.5137
 1094SOL    HW220425   5.616   5.264   0.697 -0.1072  0.8130 -1.9746
 1095SOL     OW20426   3.482   6.116   0.294 -0.1407  0.4726 -0.2892
 1095SOL    HW120427   3.512   6.027   0.272  0.7665  0.8528 -0.6222
 1095SOL    HW220428   3.403   6.128   0.241  0.3649  0.2762 -1.1058
 1096SOL     OW20429   1.161   3.790   1.809  0.1951 -0.3461 -0.8535
 1096SOL    HW120430   1.151   3.863   1.747 -0.5571 -0.4596 -0.8768
 1096SOL    HW220431   1.168   3.832   1.894  3.5944 -0.0372 -1.1431
 1097SOL     OW20432   5.983   2.238   5.889 -0.0594 -0.2231 -0.1560
 1097SOL    HW120433   5.916   2.225   5.956  0.4638 -1.9515  0.0947
 1097SOL    HW220434   6.037   2.310   5.921 -0.9665  0.2648  0.3056
 1098SOL     OW20435   2.659   1.178   0.008 -0.7040 -0.9084  0.2237
 1098SOL    HW120436   2.629   1.134   0.088  1.0857 -2.1469  0.2657
 1098SOL    HW220437   2.750   1.151  -0.001  0.1486  1.8989 -0.4318
 1099SOL     OW20438   2.054   2.470   7.137  0.4936 -0.1023 -0.0917
 1099SOL    HW120439   2.016   2.461   7.050 -0.0326 -2.6666  0.3260
 1099SOL    HW220440   2.146   2.447   7.126  0.6128  0.3612 -0.0921
 1100SOL     OW20441   6.222   4.190   0.936 -0.4243  0.2644  0.4723
 1100SOL    HW120442   6.211   4.269   0.883 -0.5955  0.2488  0.4831
 1100SOL    HW220443   6.281   4.135   0.886 -0.0790  0.5197  0.5962
 1101SOL     OW20444   3.159   1.249   1.410 -0.0616 -0.5779 -0.0513
 1101SOL    HW120445   3.120   1.286   1.490  0.1132 -0.3327 -0.0783
 1101SOL    HW220446   3.171   1.325   1.353  0.7709 -0.6026  0.0819
 1102SOL     OW20447   5.592   4.895   6.567  0.4805 -0.8038  0.0131
 1102SOL    HW120448   5.509   4.943   6.571  0.5656 -0.7032  0.7395
 1102SOL    HW220449   5.659   4.963   6.560  0.4299 -0.9274 -2.3589
 1103SOL     OW20450   3.785   0.663   0.557  0.0762 -0.0101 -0.1586
 1103SOL    HW120451   3.764   0.572   0.577  0.0850  0.1519  0.6457
 1103SOL    HW220452   3.828   0.695   0.637  0.8873  0.4430 -0.7645
 1104SOL     OW20453   0.879   5.398   1.064  0.1837  0.1634 -0.2691
 1104SOL    HW120454   0.791   5.430   1.041  0.1046  0.0987 -0.0574
 1104SOL    HW220455   0.870   5.303   1.069 -0.0239  0.2221  0.9264
 1105SOL     OW20456   4.261   3.702   7.760 -0.3029  0.2476  0.0432
 1105SOL    HW120457   4.256   3.607   7.754 -0.5433  0.3489 -1.9677
 1105SOL    HW220458   4.218   3.734   7.681  1.8658  1.9531 -0.5461
 1106SOL     OW20459   3.250   4.989   6.975  0.3712  0.2714  0.0068
 1106SOL    HW120460   3.177   5.027   7.023 -1.3255 -1.2403 -1.2488
 1106SOL    HW220461   3.307   4.952   7.043 -0.2755  1.0346  0.9910
 1107SOL     OW20462   5.004   0.809   6.419  0.0718 -0.3889 -0.0148
 1107SOL    HW120463   4.927   0.761   6.389  0.8459 -0.5953 -1.8622
 1107SOL    HW220464   4.976   0.855   6.497 -1.7032 -1.0373 -0.2323
 1108SOL     OW20465   5.317   0.039   6.753  0.0645  0.5484  0.3613
 1108SOL    HW120466   5.320   0.005   6.663  0.5832 -1.1181  0.9645
 1108SOL    HW220467   5.338  -0.037   6.807  0.6548  1.7277  1.8509
 1109SOL     OW20468   3.445   4.566   5.256  0.3725 -0.3101  0.0491
 1109SOL    HW120469   3.441   4.661   5.243  0.7510 -0.4942 -1.6202
 1109SOL    HW220470   3.355   4.541   5.276  0.3270  0.4299  0.8291
 1110SOL     OW20471   1.216   3.305   0.219  0.1946  0.1078 -0.5911
 1110SOL    HW120472   1.232   3.290   0.126  0.6004  0.3622 -0.5659
 1110SOL    HW220473   1.145   3.370   0.221  0.0553 -0.0414 -0.7213
 1111SOL     OW20474   3.565   1.505   6.089  0.3364 -0.1966 -0.3740
 1111SOL    HW120475   3.494   1.492   6.025  0.6973  2.1779 -1.3423
 1111SOL    HW220476   3.542   1.585   6.135  2.4389  0.7193 -0.8128
 1112SOL     OW20477   2.749   2.053   6.614 -0.1607 -0.0507  0.0440
 1112SOL    HW120478   2.836   2.046   6.575 -0.2297  0.7728 -0.2664
 1112SOL    HW220479   2.724   2.144   6.602 -1.8010 -0.6485 -1.4181
 1113SOL     OW20480   0.786   1.454   0.456 -0.4067 -0.0051  0.2269
 1113SOL    HW120481   0.749   1.426   0.540 -0.9770  0.7112  0.2249
 1113SOL    HW220482   0.748   1.541   0.441 -1.5264 -0.7306 -1.5070
 1114SOL     OW20483   5.185   6.386   7.086  0.7275 -0.7371  0.6075
 1114SOL    HW120484   5.108   6.408   7.033  0.4556 -0.6742  1.0284
 1114SOL    HW220485   5.156   6.316   7.144  0.5712  0.2757  1.7808
 1115SOL     OW20486   2.456   0.791   7.671 -0.1536  0.1093  0.2753
 1115SOL    HW120487   2.394   0.718   7.678  0.7395 -0.6582  0.3812
 1115SOL    HW220488   2.458   0.829   7.758 -0.8762  0.4756  0.1356
 1116SOL     OW20489   3.682   2.262   6.988 -0.2600  0.5916  0.3950
 1116SOL    HW120490   3.668   2.355   7.006  1.4592  0.8847  0.3891
 1116SOL    HW220491   3.675   2.255   6.892  0.5368  0.9020  0.3080
 1117SOL     OW20492   3.186   3.739   7.150  0.0066  0.2223 -0.1318
 1117SOL    HW120493   3.159   3.663   7.203 -1.7398  0.1112 -1.1057
 1117SOL    HW220494   3.114   3.752   7.088  1.4032  1.1476 -1.6448
 1118SOL     OW20495   5.083   1.679   1.664  0.5077  0.4807 -0.1517
 1118SOL    HW120496   5.064   1.763   1.622  1.2433  1.4009  1.2935
 1118SOL    HW220497   5.177   1.665   1.651  0.6903  0.6383  0.9056
 1119SOL     OW20498   2.717   0.741   7.086  0.1540 -0.0497  1.2605
 1119SOL    HW120499   2.760   0.708   7.166  0.6663 -0.7860  0.7043
 1119SOL    HW220500   2.787   0.740   7.020 -1.0725 -3.2826 -0.2386
 1120SOL     OW20501   3.473   2.300   1.770 -0.6707  0.0847 -0.5175
 1120SOL    HW120502   3.437   2.325   1.685  1.2658  1.7270 -0.9338
 1120SOL    HW220503   3.426   2.354   1.833 -0.8585  0.1766 -0.7351
 1121SOL     OW20504   5.573   1.158   7.420 -0.3797  0.0205 -0.7492
 1121SOL    HW120505   5.589   1.144   7.514 -3.9686  0.4627  0.0734
 1121SOL    HW220506   5.633   1.228   7.396 -0.7041  1.2640  1.7518
 1122SOL     OW20507   4.050   4.738   1.960  0.5234 -0.0369  0.7447
 1122SOL    HW120508   4.139   4.722   1.990  0.4704  1.9595  2.1883
 1122SOL    HW220509   3.995   4.692   2.024  0.4712 -0.6144  0.3003
 1123SOL     OW20510   4.144   4.674   7.413  0.1489  0.1744 -0.8445
 1123SOL    HW120511   4.230   4.688   7.452 -0.3175 -0.1718  0.3441
 1123SOL    HW220512   4.112   4.763   7.394 -0.5796  0.5368  1.7456
 1124SOL     OW20513   0.934   1.615   7.406 -0.5317 -0.2806 -0.1935
 1124SOL    HW120514   1.000   1.627   7.474 -1.5029 -0.6795  0.8620
 1124SOL    HW220515   0.911   1.703   7.377 -0.7317 -0.0575  0.6301
 1125SOL     OW20516   4.591   4.845   4.979 -0.0906  0.4327 -0.4399
 1125SOL    HW120517   4.663   4.818   5.036 -1.2447 -2.1917 -0.0981
 1125SOL    HW220518   4.611   4.936   4.957  1.2988  1.0299  2.7352
 1126SOL     OW20519   3.771   4.081   7.194 -0.1459  0.0254 -0.2851
 1126SOL    HW120520   3.742   4.029   7.268  0.1000 -0.6064 -0.6176
 1126SOL    HW220521   3.807   4.161   7.232 -2.0199  0.7168  0.1509
 1127SOL     OW20522   4.925   3.307   7.721 -0.6535  0.3597 -0.5528
 1127SOL    HW120523   4.891   3.355   7.797  0.8672 -0.3021  0.6070
 1127SOL    HW220524   4.879   3.346   7.646 -0.5178  2.6534  0.4479
 1128SOL     OW20525   5.864   6.309   0.650 -0.1978  0.0283 -0.8298
 1128SOL    HW120526   5.827   6.372   0.711  0.7188  0.2011 -0.4366
 1128SOL    HW220527   5.826   6.225   0.675  0.6875 -0.0215  0.4468
 1129SOL     OW20528   1.554   4.770   6.068 -0.3503  0.3170 -0.0286
 1129SOL    HW120529   1.618   4.750   6.136  0.7700  0.4333 -1.0130
 1129SOL    HW220530   1.596   4.838   6.015 -0.8181 -0.3810 -1.3356
 1130SOL     OW20531   2.104   4.387   6.125 -0.1785 -0.0533 -0.0317
 1130SOL    HW120532   2.197   4.397   6.103 -0.3186  1.3669 -0.0176
 1130SOL    HW220533   2.062   4.365   6.041 -0.2414  2.2321 -0.6690
 1131SOL     OW20534   2.738   2.735   6.503  0.2311  0.1054  0.5002
 1131SOL    HW120535   2.824   2.777   6.504  0.2971  0.1331  3.2934
 1131SOL    HW220536   2.676   2.807   6.512 -0.0536  0.0124 -0.5970
 1132SOL     OW20537   0.129   6.399   0.368  0.1636  0.1148 -0.6588
 1132SOL    HW120538   0.209   6.419   0.319  0.1564  1.6411 -0.1232
 1132SOL    HW220539   0.131   6.460   0.442 -0.4308 -1.3052  0.5650
 1133SOL     OW20540   1.157   3.066   5.333  0.3539  0.3959  0.1629
 1133SOL    HW120541   1.134   2.973   5.325  0.8243  0.2258  0.7054
 1133SOL    HW220542   1.133   3.104   5.248  0.2072 -0.2298 -0.0829
 1134SOL     OW20543   3.702   0.343   0.210 -0.4673 -0.0269  0.4306
 1134SOL    HW120544   3.788   0.383   0.195 -0.6545 -0.4517 -2.1357
 1134SOL    HW220545   3.709   0.256   0.170 -2.1159 -0.0341  0.0899
 1135SOL     OW20546   3.459   4.403   5.967 -0.5763 -0.0854  0.5956
 1135SOL    HW120547   3.444   4.440   6.054  0.2758  0.2069  0.6262
 1135SOL    HW220548   3.528   4.457   5.929  0.0910 -1.1092  0.3001
 1136SOL     OW20549   4.099   0.841   7.274  0.3140 -0.2407  0.2430
 1136SOL    HW120550   4.117   0.782   7.346 -1.9323 -0.0296  1.0539
 1136SOL    HW220551   4.134   0.925   7.303 -1.5596  0.1213  1.6844
 1137SOL     OW20552   3.874   2.581   6.691  0.3055 -0.1346  0.4062
 1137SOL    HW120553   3.867   2.542   6.779  0.6578 -0.6924  0.1977
 1137SOL    HW220554   3.944   2.530   6.649 -0.2904 -0.2911 -0.4141
 1138SOL     OW20555   3.846   0.294   6.862 -0.0358 -0.2213 -0.3705
 1138SOL    HW120556   3.914   0.240   6.822  0.8059  0.3441  0.2762
 1138SOL    HW220557   3.884   0.382   6.866  0.4961 -0.4823  2.8930
 1139SOL     OW20558   2.033   1.058   1.631 -0.5735  0.4553  0.5614
 1139SOL    HW120559   1.966   1.101   1.577 -0.0692 -0.2868 -0.6863
 1139SOL    HW220560   1.985   0.988   1.676 -0.8677  0.6815  0.6091
 1140SOL     OW20561   4.734   4.026   5.438 -0.8822 -0.3826  0.2229
 1140SOL    HW120562   4.751   4.118   5.417 -1.1205 -0.1120  1.1485
 1140SOL    HW220563   4.789   3.976   5.378  0.1657  0.3915  0.5227
 1141SOL     OW20564   0.224   1.966   6.051  0.0964 -0.8486  0.3483
 1141SOL    HW120565   0.250   1.937   5.964 -1.0605 -0.5850 -0.1078
 1141SOL    HW220566   0.306   1.987   6.096  0.6932 -0.8773 -0.7152
 1142SOL     OW20567   3.582   0.010   1.151 -0.5144  0.4212  0.3109
 1142SOL    HW120568   3.573   0.097   1.190  0.2484 -0.1017  1.6970
 1142SOL    HW220569   3.561   0.024   1.058 -4.0511  1.3633  1.1084
 1143SOL     OW20570   4.540   6.013   7.375 -0.3332  0.0343  0.1883
 1143SOL    HW120571   4.530   5.925   7.338 -0.0871  0.1112 -0.0700
 1143SOL    HW220572   4.472   6.065   7.333 -1.7356 -0.4606  1.7627
 1144SOL     OW20573   3.249   4.138   1.147 -0.5049 -0.0762  0.2130
 1144SOL    HW120574   3.300   4.186   1.082  1.6593 -2.6925 -0.2096
 1144SOL    HW220575   3.172   4.108   1.099  0.3955 -0.8345 -0.8136
 1145SOL     OW20576   2.478   0.447   7.762  1.2848 -0.5271  0.4513
 1145SOL    HW120577   2.498   0.473   7.672  1.5369 -0.7204  0.4495
 1145SOL    HW220578   2.391   0.408   7.758  0.6480  0.8316  0.5469
 1146SOL     OW20579   3.693   5.073   7.012 -0.1608 -0.5408 -0.9635
 1146SOL    HW120580   3.629   5.078   6.940 -0.5903  1.9743 -0.5338
 1146SOL    HW220581   3.643   5.100   7.089  1.2856  1.1231 -0.5446
 1147SOL     OW20582   6.221   4.753   7.247  0.0358  0.2472  0.2413
 1147SOL    HW120583   6.301   4.701   7.253  0.8501  1.5686  1.5532
 1147SOL    HW220584   6.229   4.818   7.316 -1.6135  1.2144 -0.4045
 1148SOL     OW20585   1.426   3.162   0.323 -0.2740 -0.1283 -0.2566
 1148SOL    HW120586   1.352   3.205   0.280 -2.5237  0.1917  3.4490
 1148SOL    HW220587   1.476   3.233   0.362 -0.8417 -0.5265  1.2665
 1149SOL     OW20588   0.353   4.940   2.160  0.0566  0.1636 -0.4901
 1149SOL    HW120589   0.295   4.867   2.180  1.6042 -0.4682  2.1804
 1149SOL    HW220590   0.441   4.902   2.160  0.7126  1.5577 -1.8020
 1150SOL     OW20591   0.030   2.742   0.110  0.0791 -0.2162  0.4593
 1150SOL    HW120592   0.111   2.783   0.140  0.3982 -1.6912  1.6890
 1150SOL    HW220593   0.032   2.654   0.147 -0.1245 -1.7415 -2.8252
 1151SOL     OW20594   6.411   6.061   7.721  0.2202  0.6763  0.0391
 1151SOL    HW120595   6.434   6.061   7.814 -1.9172  0.5359  0.6229
 1151SOL    HW220596   6.326   6.016   7.717  0.4401  0.3523 -2.0343
 1152SOL     OW20597   5.252   4.821   0.986  0.3986  0.1935 -0.4115
 1152SOL    HW120598   5.207   4.741   1.012 -0.1024  1.2462  2.1669
 1152SOL    HW220599   5.331   4.789   0.942 -0.1337 -1.7118 -0.1059
 1153SOL     OW20600   4.999   1.420   1.445  0.1361 -0.0423 -0.3291
 1153SOL    HW120601   5.054   1.442   1.370  1.7297 -2.5187 -0.0153
 1153SOL    HW220602   4.933   1.361   1.410  0.2752 -0.4083  0.0141
 1154SOL     OW20603   4.251   0.241   1.956 -0.2573 -0.2653 -0.3182
 1154SOL    HW120604   4.177   0.290   1.921 -0.7644 -1.6944 -1.3757
 1154SOL    HW220605   4.260   0.272   2.046 -1.6080  0.5488 -0.4321
 1155SOL     OW20606   5.847   3.536   5.824 -0.9338 -0.1787  0.0166
 1155SOL    HW120607   5.808   3.623   5.816 -0.3673  0.0870  0.0879
 1155SOL    HW220608   5.786   3.487   5.879 -1.9502 -0.2478 -1.1328
 1156SOL     OW20609   4.139   4.273   5.658  0.3264  0.7071 -0.0908
 1156SOL    HW120610   4.107   4.282   5.568 -0.9506  2.1090  0.4711
 1156SOL    HW220611   4.160   4.362   5.686  0.5719  0.3120  1.0590
 1157SOL     OW20612   1.962   0.045   6.523 -0.2104 -0.1120  0.1409
 1157SOL    HW120613   2.030  -0.023   6.526 -1.4906 -1.4947 -0.8555
 1157SOL    HW220614   1.979   0.099   6.600  2.2585 -0.1545 -0.2780
 1158SOL     OW20615   1.668   4.805   7.708 -0.3031 -0.3552  0.9567
 1158SOL    HW120616   1.747   4.858   7.721  0.3803 -1.5384  1.8785
 1158SOL    HW220617   1.643   4.820   7.617  0.2363  1.0364  1.0211
 1159SOL     OW20618   0.504   5.238   0.354  0.2419  0.2104 -0.1464
 1159SOL    HW120619   0.498   5.253   0.260 -2.0260 -2.5392 -0.5580
 1159SOL    HW220620   0.597   5.222   0.370  0.4255 -1.2436 -2.3046
 1160SOL     OW20621   0.184   6.403   1.454 -0.3510  0.2825 -1.0463
 1160SOL    HW120622   0.275   6.430   1.463 -0.2156 -0.1001 -1.2615
 1160SOL    HW220623   0.142   6.475   1.406 -0.7324  1.6268  1.1857
 1161SOL     OW20624   2.733   4.193   1.382 -0.0211 -0.7303 -0.1569
 1161SOL    HW120625   2.787   4.232   1.450 -0.8152 -0.9502  0.6270
 1161SOL    HW220626   2.772   4.223   1.300 -1.4351  3.0396  0.3245
 1162SOL     OW20627   4.251   5.580   1.604 -0.6236 -0.1611  0.4559
 1162SOL    HW120628   4.303   5.659   1.594 -0.4038 -0.4468 -0.9021
 1162SOL    HW220629   4.251   5.562   1.698 -0.9830  1.6416  0.8291
 1163SOL     OW20630   5.251   5.389   1.286  0.2639  0.4170 -0.2913
 1163SOL    HW120631   5.285   5.352   1.367 -1.8892  1.4839  1.1826
 1163SOL    HW220632   5.204   5.317   1.244  1.6945 -0.2396 -0.8452
 1164SOL     OW20633   6.247   4.293   6.050 -0.1699  0.0463 -0.3276
 1164SOL    HW120634   6.198   4.359   6.000 -0.3221  0.4726  0.3649
 1164SOL    HW220635   6.313   4.261   5.989 -0.6972  0.1588 -0.9726
 1165SOL     OW20636   3.550   3.367   6.051 -0.4561 -0.0174  0.4428
 1165SOL    HW120637   3.582   3.285   6.014 -1.6176 -0.0710 -0.5052
 1165SOL    HW220638   3.626   3.425   6.053 -0.3420 -0.0005 -2.1241
 1166SOL     OW20639   0.517   4.175   7.539 -0.0080 -0.2983  0.0778
 1166SOL    HW120640   0.536   4.085   7.513 -1.2388 -0.4210 -0.4477
 1166SOL    HW220641   0.570   4.228   7.480 -0.2992 -0.6475 -0.4986
 1167SOL     OW20642   5.849   5.892   1.339  0.1914 -0.1191  0.3341
 1167SOL    HW120643   5.907   5.969   1.338 -1.1798  0.9664  0.9420
 1167SOL    HW220644   5.784   5.913   1.406 -1.6666 -0.7217 -1.2189
 1168SOL     OW20645   1.461   4.956   0.065  0.1458  0.3047 -0.1699
 1168SOL    HW120646   1.458   5.005  -0.018 -1.0350  0.1324 -0.2590
 1168SOL    HW220647   1.528   4.890   0.051  1.8162  1.8961 -0.0258
 1169SOL     OW20648   0.722   4.757   6.160  0.1135  0.4325 -0.0394
 1169SOL    HW120649   0.694   4.666   6.166 -0.6691  0.7692  3.6840
 1169SOL    HW220650   0.817   4.752   6.148 -0.0551 -0.8016 -1.1527
 1170SOL     OW20651   3.742   3.931   0.859 -0.0437  0.2872 -0.0980
 1170SOL    HW120652   3.710   4.019   0.881  1.8591  0.9581  0.1420
 1170SOL    HW220653   3.728   3.880   0.939 -0.4593  0.5711  0.0129
 1171SOL     OW20654   2.085   4.627   0.461  0.0776  0.3709  0.1474
 1171SOL    HW120655   2.006   4.605   0.510  0.0476 -0.5471 -0.2912
 1171SOL    HW220656   2.119   4.542   0.431  2.5236  0.4899  2.2566
 1172SOL     OW20657   4.611   6.285   5.933 -0.1662  0.3970  0.1033
 1172SOL    HW120658   4.521   6.254   5.946  0.0430 -0.8411 -1.1298
 1172SOL    HW220659   4.655   6.265   6.016 -0.8055  0.1803  0.3967
 1173SOL     OW20660   3.980   2.597   0.841 -0.1020  0.3528 -1.0444
 1173SOL    HW120661   3.930   2.651   0.780  0.8583  1.8930 -0.5257
 1173SOL    HW220662   3.971   2.642   0.925  0.0344 -0.7794 -0.4003
 1174SOL     OW20663   5.617   2.747   1.628  0.1281 -0.7069  0.3133
 1174SOL    HW120664   5.709   2.739   1.653  0.5778  1.9842 -0.1807
 1174SOL    HW220665   5.570   2.689   1.688  1.9754 -0.8285  1.7105
 1175SOL     OW20666   3.548   0.064   6.030  0.5124 -0.1355 -0.6168
 1175SOL    HW120667   3.506   0.113   5.959  2.1527 -1.1332 -2.3700
 1175SOL    HW220668   3.550  -0.027   5.999 -1.6763 -1.2767  2.1739
 1176SOL     OW20669   1.635   2.333   1.175  0.1493 -0.6987  0.2807
 1176SOL    HW120670   1.550   2.290   1.172 -0.5335  0.6685 -1.4494
 1176SOL    HW220671   1.689   2.283   1.114  0.0504 -0.5108  0.0374
 1177SOL     OW20672   1.840   1.078   7.445 -0.1803 -0.4694 -0.7844
 1177SOL    HW120673   1.828   1.154   7.503  1.5351 -0.9040  0.2255
 1177SOL    HW220674   1.752   1.042   7.434 -0.8499  0.9276 -0.2423
 1178SOL     OW20675   0.725   1.162   5.140  0.6560  0.0887  0.3849
 1178SOL    HW120676   0.647   1.182   5.088  0.4419  0.2869  0.7766
 1178SOL    HW220677   0.779   1.107   5.083  0.2285 -0.0488  0.1089
 1179SOL     OW20678   3.536   4.965   0.808  0.1636  0.5090  0.0663
 1179SOL    HW120679   3.528   4.951   0.714 -0.2413 -0.8255  0.2708
 1179SOL    HW220680   3.565   4.880   0.842  1.4511  1.3001  1.0247
 1180SOL     OW20681   0.650   3.723   0.215  0.4859 -0.5966 -0.1470
 1180SOL    HW120682   0.718   3.790   0.212 -0.5368  0.4503 -0.8596
 1180SOL    HW220683   0.660   3.683   0.302  1.1085  0.4875  0.3060
 1181SOL     OW20684   6.341   0.639   5.895 -0.1774  0.1296 -0.1589
 1181SOL    HW120685   6.405   0.701   5.861 -0.1110 -0.2938 -0.8354
 1181SOL    HW220686   6.306   0.596   5.817 -0.4617 -0.4390  0.2756
 1182SOL     OW20687   2.697   0.089   0.084 -0.7721  0.5603  0.1885
 1182SOL    HW120688   2.614   0.043   0.102 -1.8995  1.4564 -2.2677
 1182SOL    HW220689   2.694   0.166   0.141 -1.2699  0.1801  0.6867
 1183SOL     OW20690   2.034   6.460   0.459  0.2550  0.1378 -0.2196
 1183SOL    HW120691   2.015   6.381   0.510 -1.8367  1.1490  0.6564
 1183SOL    HW220692   2.038   6.429   0.368  2.7764 -1.4757  0.3221
 1184SOL     OW20693   0.362   3.115   0.604  0.0283 -0.5094  0.5935
 1184SOL    HW120694   0.301   3.069   0.663  0.5009 -1.0574  0.6702
 1184SOL    HW220695   0.318   3.197   0.582 -0.4621 -0.6168  1.1516
 1185SOL     OW20696   2.734   2.708   7.287  0.1476 -0.5856 -0.0116
 1185SOL    HW120697   2.788   2.785   7.273  0.5183 -0.7378  0.5747
 1185SOL    HW220698   2.773   2.641   7.230 -0.2789 -0.3000 -0.6516
 1186SOL     OW20699   4.744   2.905   5.599  0.0946 -0.2383 -0.3410
 1186SOL    HW120700   4.670   2.863   5.643  1.1219 -1.5007  0.2364
 1186SOL    HW220701   4.759   2.851   5.521  0.0320  0.3755 -0.7869
 1187SOL     OW20702   0.586   5.904   0.006  0.7381 -0.2103 -0.2372
 1187SOL    HW120703   0.506   5.856   0.028  2.1931 -2.1743  1.1037
 1187SOL    HW220704   0.575   5.990   0.046 -0.1897 -0.8844  0.9994
 1188SOL     OW20705   0.352   4.494   5.679 -0.6809  0.1682 -0.1901
 1188SOL    HW120706   0.333   4.437   5.753 -2.3863 -1.0078 -1.4685
 1188SOL    HW220707   0.334   4.582   5.712  1.4457  0.0281  1.6260
 1189SOL     OW20708   0.615   5.264   6.367 -0.4549  0.0780 -0.0406
 1189SOL    HW120709   0.551   5.299   6.429 -0.3536 -1.3987  0.9512
 1189SOL    HW220710   0.692   5.244   6.420  0.4306  0.7963 -1.0284
 1190SOL     OW20711   6.449   3.476   7.577  0.4042  0.0347 -0.0952
 1190SOL    HW120712   6.514   3.410   7.553 -1.3798 -1.8410 -0.1003
 1190SOL    HW220713   6.500   3.547   7.615  2.3945 -1.6914  0.6920
 1191SOL     OW20714   2.286   4.392   5.153  0.5591 -0.3385  0.1945
 1191SOL    HW120715   2.376   4.423   5.160  0.1664  1.1618 -0.9624
 1191SOL    HW220716   2.240   4.461   5.106 -1.1262 -1.2440  0.4225
 1192SOL     OW20717   3.708   6.327   7.400  0.0787  0.2509 -0.1367
 1192SOL    HW120718   3.790   6.359   7.438 -0.5266  0.7912  0.7382
 1192SOL    HW220719   3.695   6.241   7.440  0.0439  0.3143 -0.0107
 1193SOL     OW20720   1.991   3.784   5.797  0.1967 -0.4033 -0.2506
 1193SOL    HW120721   2.068   3.794   5.854  1.0655  1.3363 -1.6294
 1193SOL    HW220722   2.026   3.745   5.717 -0.7106 -1.2253 -0.2690
 1194SOL     OW20723   1.254   4.802   1.085 -0.4991 -0.6423  0.6003
 1194SOL    HW120724   1.214   4.750   1.155  1.8201 -1.6446  1.2671
 1194SOL    HW220725   1.301   4.738   1.032 -0.7879  0.3358 -0.9019
 1195SOL     OW20726   4.291   4.586   0.563 -0.5697 -0.0923 -0.2232
 1195SOL    HW120727   4.322   4.520   0.501 -1.2962 -0.1589 -0.5126
 1195SOL    HW220728   4.221   4.542   0.612 -0.1700  0.0396  0.4803
 1196SOL     OW20729   1.212   2.355   1.294 -0.6423 -0.3824 -0.0929
 1196SOL    HW120730   1.271   2.424   1.324 -1.2647  0.7267 -1.3485
 1196SOL    HW220731   1.178   2.316   1.375  0.6932 -0.0799  0.6379
 1197SOL     OW20732   3.334   0.455   7.556  0.0742  0.0514 -0.2699
 1197SOL    HW120733   3.420   0.415   7.551  0.8612  1.7049 -0.5119
 1197SOL    HW220734   3.300   0.427   7.641  0.6801 -0.8859 -0.3122
 1198SOL     OW20735   3.343   2.542   1.387 -0.0555  0.6631  0.1579
 1198SOL    HW120736   3.273   2.601   1.417 -1.0894  0.3439 -1.5033
 1198SOL    HW220737   3.355   2.564   1.295 -0.8676 -2.0511 -0.6745
 1199SOL     OW20738   5.650   5.406   6.583 -0.4311  0.3371  0.4836
 1199SOL    HW120739   5.703   5.341   6.537  2.6020  1.3371  2.2348
 1199SOL    HW220740   5.641   5.478   6.521  0.6481  0.2812  0.2350
 1200SOL     OW20741   3.487   1.613   0.646 -0.1154  0.3582 -0.2914
 1200SOL    HW120742   3.416   1.592   0.587 -0.1924 -0.2630  0.0109
 1200SOL    HW220743   3.555   1.651   0.590 -0.6275  0.8366 -0.5971
 1201SOL     OW20744   6.217   2.795   0.347 -0.1226 -0.5566  0.1372
 1201SOL    HW120745   6.287   2.811   0.284 -0.8778  0.0966 -0.5624
 1201SOL    HW220746   6.256   2.736   0.411  0.0797 -2.9096 -1.9946
 1202SOL     OW20747   5.475   3.672   7.330  0.1416  0.3923 -0.0221
 1202SOL    HW120748   5.464   3.578   7.338  1.2332  0.3781  1.7320
 1202SOL    HW220749   5.392   3.709   7.360 -0.7888  0.0136 -1.9610
 1203SOL     OW20750   1.830   0.248   2.039 -0.5085 -0.5153 -0.4022
 1203SOL    HW120751   1.869   0.330   2.010 -0.5780 -1.2850 -2.9679
 1203SOL    HW220752   1.904   0.187   2.047 -0.2680  0.0345  2.8387
 1204SOL     OW20753   2.617   4.476   6.170  0.3877 -0.0399  0.0645
 1204SOL    HW120754   2.666   4.506   6.247 -0.7966  0.9689  0.4381
 1204SOL    HW220755   2.658   4.521   6.096  1.4332 -0.8974  0.0994
 1205SOL     OW20756   2.891   0.728   6.627  0.1537  0.2114  0.3601
 1205SOL    HW120757   2.966   0.706   6.682 -0.7690 -1.6729  0.9448
 1205SOL    HW220758   2.845   0.797   6.675 -0.0776 -0.6939  1.4884
 1206SOL     OW20759   0.932   6.457   1.826 -0.0963 -0.0058  0.2806
 1206SOL    HW120760   0.917   6.407   1.746 -0.6806 -0.1044  0.4495
 1206SOL    HW220761   1.020   6.431   1.854 -0.1444 -0.4569  0.0212
 1207SOL     OW20762   4.782   2.536   7.078 -0.2182  0.0374  0.2166
 1207SOL    HW120763   4.692   2.559   7.102 -0.8041 -0.8938 -0.9510
 1207SOL    HW220764   4.804   2.597   7.008 -0.9722 -1.3961 -1.3608
 1208SOL     OW20765   4.582   5.164   1.869 -0.3287 -0.2550  0.2130
 1208SOL    HW120766   4.559   5.071   1.873 -1.4485 -0.0954 -1.5181
 1208SOL    HW220767   4.503   5.209   1.898 -0.3554  0.1775 -0.5008
 1209SOL     OW20768   3.494   4.474   6.481  0.5557 -0.5224  0.5650
 1209SOL    HW120769   3.436   4.545   6.510 -0.0329 -1.2584  1.2510
 1209SOL    HW220770   3.570   4.481   6.539  2.1474  1.6393 -1.5418
 1210SOL     OW20771   2.454   2.855   0.214 -0.6370 -0.1042  0.1440
 1210SOL    HW120772   2.510   2.779   0.230  0.8984  0.9798  0.1519
 1210SOL    HW220773   2.385   2.822   0.157  0.6458 -1.2732 -0.8110
 1211SOL     OW20774   5.512   0.304   7.347  0.5071 -0.2378  0.4162
 1211SOL    HW120775   5.546   0.223   7.383  1.4622 -0.2450 -0.4476
 1211SOL    HW220776   5.436   0.277   7.295  2.0881 -0.9379 -1.6824
 1212SOL     OW20777   0.009   1.039   1.253  0.4567  0.1983  0.1329
 1212SOL    HW120778  -0.077   1.038   1.211  0.8773 -1.3996 -0.7578
 1212SOL    HW220779  -0.007   1.004   1.341  0.6302 -3.5173 -1.1348
 1213SOL     OW20780   1.145   6.203   7.748  0.0263 -0.3651 -0.2845
 1213SOL    HW120781   1.132   6.152   7.667  0.1699 -0.9965  0.0816
 1213SOL    HW220782   1.200   6.147   7.802  0.0792  0.1370  0.1802
 1214SOL     OW20783   5.050   0.418   1.351 -0.1082 -0.1223 -0.3129
 1214SOL    HW120784   5.034   0.481   1.421 -1.8684 -0.3620 -0.4426
 1214SOL    HW220785   5.103   0.349   1.392  2.5822  1.7574 -0.3915
 1215SOL     OW20786   2.041   5.023   7.515 -0.6912  0.5210  0.5986
 1215SOL    HW120787   2.089   5.062   7.588  0.0029  0.3992  0.2184
 1215SOL    HW220788   2.008   5.097   7.465  0.2582  0.6349  0.1176
 1216SOL     OW20789   5.558   2.268   0.275 -0.2402 -0.1616 -0.6090
 1216SOL    HW120790   5.502   2.247   0.350  0.5580  0.2491  0.1201
 1216SOL    HW220791   5.501   2.317   0.216 -0.7885 -0.1672 -0.1037
 1217SOL     OW20792   2.792   4.180   5.898 -0.1880 -0.2686 -0.0542
 1217SOL    HW120793   2.828   4.177   5.809  1.7669  1.3571  0.6050
 1217SOL    HW220794   2.811   4.269   5.928  1.7370 -1.5691  2.9934
 1218SOL     OW20795   3.020   6.136   1.307  0.3616 -0.9399 -0.3557
 1218SOL    HW120796   2.952   6.156   1.243 -0.8290 -2.5176  0.3437
 1218SOL    HW220797   2.978   6.076   1.369  1.4359  0.5397  1.9449
 1219SOL     OW20798   0.773   1.827   0.308 -0.5137  0.1919 -0.3753
 1219SOL    HW120799   0.720   1.816   0.387  0.0863  2.0376  0.3480
 1219SOL    HW220800   0.717   1.796   0.237 -1.1294 -1.3575  0.7315
 1220SOL     OW20801   5.992   1.892   1.743 -0.8746 -0.2345  0.1984
 1220SOL    HW120802   5.899   1.868   1.734 -0.8327 -0.0124 -1.1254
 1220SOL    HW220803   6.033   1.814   1.781 -1.5119 -0.5400  0.2765
 1221SOL     OW20804   4.097   0.803   0.136 -0.4354 -0.1445 -0.0617
 1221SOL    HW120805   4.095   0.757   0.220  0.8001  0.5667  0.3813
 1221SOL    HW220806   4.016   0.776   0.092 -0.7113 -1.1522  1.0156
 1222SOL     OW20807   2.786   0.282   0.825  0.5192  0.1903  0.1319
 1222SOL    HW120808   2.726   0.356   0.821  0.5408  0.3016  1.5190
 1222SOL    HW220809   2.872   0.322   0.839  0.5541 -0.0869  0.7100
 1223SOL     OW20810   1.428   0.019   0.497  0.5824  0.1002  0.2714
 1223SOL    HW120811   1.361   0.031   0.565  0.6417 -0.9012  0.5203
 1223SOL    HW220812   1.434  -0.076   0.486  1.5266  0.2048 -0.1908
 1224SOL     OW20813   4.481   5.018   7.675  0.1120 -0.3604 -0.0646
 1224SOL    HW120814   4.549   5.061   7.623 -0.5202 -0.3741 -0.9301
 1224SOL    HW220815   4.419   5.087   7.696 -0.3621 -0.6269 -0.5527
 1225SOL     OW20816   4.145   0.621   7.431 -0.2547 -0.7518  0.1455
 1225SOL    HW120817   4.230   0.647   7.396  0.1616 -0.7674  1.1197
 1225SOL    HW220818   4.153   0.527   7.446 -0.7650 -0.9303 -0.6140
 1226SOL     OW20819   2.253   1.835   1.828  0.4551 -0.5147 -0.5650
 1226SOL    HW120820   2.237   1.928   1.847  0.9892 -0.5427  0.0566
 1226SOL    HW220821   2.320   1.836   1.760  1.6742 -0.4414  0.5913
 1227SOL     OW20822   2.834   5.509   6.475  0.6085  0.0492  0.1144
 1227SOL    HW120823   2.798   5.593   6.504 -0.8938 -0.0216 -1.3371
 1227SOL    HW220824   2.759   5.449   6.477  0.9809 -0.5316 -1.4407
 1228SOL     OW20825   0.525   4.889   0.313  0.2809 -0.1632 -0.1809
 1228SOL    HW120826   0.438   4.929   0.309  0.3464 -0.0285 -0.2696
 1228SOL    HW220827   0.524   4.825   0.242  0.5506  0.4384 -0.7433
 1229SOL     OW20828   1.786   4.373   6.053 -0.1862  0.3718 -0.4584
 1229SOL    HW120829   1.798   4.306   6.121 -0.8637  0.7602  0.0613
 1229SOL    HW220830   1.856   4.357   5.990  0.0586 -0.4068  0.0038
 1230SOL     OW20831   0.666   0.070   7.460 -0.0195 -0.5658  0.2965
 1230SOL    HW120832   0.756   0.057   7.431 -0.6922 -0.2404 -2.0812
 1230SOL    HW220833   0.642  -0.014   7.501  1.0373 -0.9923  0.0795
 1231SOL     OW20834   3.554   5.308   7.165 -0.0178 -0.0309 -0.1130
 1231SOL    HW120835   3.607   5.299   7.244 -0.0461 -0.5723 -0.1552
 1231SOL    HW220836   3.607   5.362   7.106 -0.7305  1.8952  0.9375
 1232SOL     OW20837   5.931   1.283   0.398 -0.0467  0.0688 -0.6212
 1232SOL    HW120838   5.924   1.264   0.304 -2.0949  0.4329 -0.5888
 1232SOL    HW220839   5.950   1.199   0.438  1.7868  0.0580 -1.4106
 1233SOL     OW20840   3.575   3.886   1.763  0.2630 -0.0741 -0.7236
 1233SOL    HW120841   3.482   3.869   1.748  0.3756 -1.0568 -0.3409
 1233SOL    HW220842   3.619   3.842   1.691  0.4014  1.0519 -1.3492
 1234SOL     OW20843   2.847   2.804   7.651  0.3334  0.3358  0.3239
 1234SOL    HW120844   2.767   2.753   7.661  0.5832 -0.5877 -1.8106
 1234SOL    HW220845   2.912   2.759   7.705  0.3188 -1.1219 -0.8255
 1235SOL     OW20846   2.118   4.010   0.408  0.5416 -0.4229 -0.7611
 1235SOL    HW120847   2.069   4.090   0.427  2.7835  1.1385 -1.0376
 1235SOL    HW220848   2.066   3.939   0.445 -2.9526  0.7887 -2.8934
 1236SOL     OW20849   2.108   3.110   0.640 -0.5724  0.0456  0.0849
 1236SOL    HW120850   2.116   3.200   0.669  2.2456 -0.1180  0.1053
 1236SOL    HW220851   2.162   3.105   0.561  0.5308 -1.8769  0.8773
 1237SOL     OW20852   4.286   1.806   2.641 -0.1578  0.9735  0.0222
 1237SOL    HW120853   4.253   1.717   2.654  0.2111  0.5788 -1.5346
 1237SOL    HW220854   4.247   1.856   2.712  0.2918 -0.5877  1.4331
 1238SOL     OW20855   3.479   5.263   7.660  0.3169  0.2104  0.3831
 1238SOL    HW120856   3.534   5.184   7.660 -0.2769 -0.2123 -0.1142
 1238SOL    HW220857   3.524   5.324   7.602  0.2923 -0.1123  0.0254
 1239SOL     OW20858   3.573   2.239   5.685 -0.4381  0.3024 -0.0796
 1239SOL    HW120859   3.546   2.287   5.763 -0.5785 -0.9393  0.6579
 1239SOL    HW220860   3.501   2.253   5.623 -1.6880 -0.9826  1.0088
 1240SOL     OW20861   3.121   3.516   6.671  0.3262  0.1023 -0.0700
 1240SOL    HW120862   3.048   3.570   6.641 -0.1223 -0.7333 -0.5122
 1240SOL    HW220863   3.186   3.579   6.703 -0.7581  0.8457  0.7420
 1241SOL     OW20864   5.328   5.541   7.205 -0.1999  0.4181 -0.3857
 1241SOL    HW120865   5.417   5.548   7.240  0.0634 -2.0808 -0.3324
 1241SOL    HW220866   5.296   5.631   7.201  0.7562  1.1259  3.5736
 1242SOL     OW20867   0.571   5.691   2.058 -1.0088  0.2764 -0.3451
 1242SOL    HW120868   0.661   5.680   2.087 -1.8249  0.8823  2.8430
 1242SOL    HW220869   0.564   5.783   2.034 -0.3081 -0.2445 -2.8059
 1243SOL     OW20870   3.020   0.425   0.752 -0.0159 -0.2699  0.2608
 1243SOL    HW120871   3.031   0.479   0.674 -1.1426  0.2522  0.4363
 1243SOL    HW220872   3.106   0.387   0.768  0.4644  0.4024 -0.6597
 1244SOL     OW20873   6.340   4.841   6.291 -0.3572 -0.5816 -0.0126
 1244SOL    HW120874   6.273   4.905   6.315 -2.5644 -2.1891 -1.4894
 1244SOL    HW220875   6.362   4.861   6.200 -1.4094 -2.0967 -0.6495
 1245SOL     OW20876   2.485   3.783   1.258  0.5008 -0.3754  0.5995
 1245SOL    HW120877   2.555   3.773   1.321  0.2005 -0.3096  0.9458
 1245SOL    HW220878   2.419   3.719   1.284  0.0061  0.2339  0.8632
 1246SOL     OW20879   2.802   2.697   2.065  0.0857 -0.1014 -0.1959
 1246SOL    HW120880   2.820   2.652   2.148  1.4264  1.7117  0.5703
 1246SOL    HW220881   2.759   2.778   2.090 -1.6925 -0.5712 -1.5064
 1247SOL     OW20882   1.969   3.337   6.352 -0.1651 -0.1113  0.1553
 1247SOL    HW120883   2.044   3.396   6.345  0.3496 -0.7194  0.3886
 1247SOL    HW220884   1.965   3.315   6.445  0.9853 -2.0999 -0.2090
 1248SOL     OW20885   3.332   6.084   7.491  0.2886  0.0676  0.5329
 1248SOL    HW120886   3.272   6.063   7.420  0.0716  0.3658  0.6250
 1248SOL    HW220887   3.294   6.041   7.568 -0.3978  1.1453  0.8143
 1249SOL     OW20888   2.504   4.481   5.653  0.3221  0.1771 -0.5371
 1249SOL    HW120889   2.597   4.463   5.636  0.0190 -0.4439 -1.6301
 1249SOL    HW220890   2.505   4.564   5.700  1.4003  0.6103 -1.2631
 1250SOL     OW20891   0.246   5.073   1.319  0.4379  0.5398  0.1215
 1250SOL    HW120892   0.264   5.055   1.227  0.0522 -2.0799  0.4744
 1250SOL    HW220893   0.160   5.033   1.335  0.0257  1.8464  1.3895
 1251SOL     OW20894   1.035   3.836   6.631 -0.1432  0.4279  0.1321
 1251SOL    HW120895   1.040   3.808   6.722  1.7542 -0.3862 -0.1665
 1251SOL    HW220896   0.987   3.766   6.587 -0.2760  0.3763  0.3551
 1252SOL     OW20897   1.261   0.496   0.523  0.3589 -0.3689  0.1302
 1252SOL    HW120898   1.333   0.559   0.521  0.0018  0.0971  1.0173
 1252SOL    HW220899   1.289   0.425   0.465  0.8716  0.4978 -0.7013
 1253SOL     OW20900   3.585   2.816   7.524  0.0891  0.0152 -0.7969
 1253SOL    HW120901   3.676   2.822   7.493  0.3421  0.3798 -0.0113
 1253SOL    HW220902   3.548   2.903   7.508  0.6928  0.7222  1.2808
 1254SOL     OW20903   0.654   3.729   6.346 -0.0267  0.0925  0.3187
 1254SOL    HW120904   0.588   3.665   6.319 -1.7279  1.2384  1.5548
 1254SOL    HW220905   0.688   3.764   6.264 -0.5321 -0.9473 -0.3596
 1255SOL     OW20906   2.646   4.582   5.905 -0.7070 -0.2933 -0.1332
 1255SOL    HW120907   2.712   4.514   5.913 -1.4730 -0.9930  0.3475
 1255SOL    HW220908   2.693   4.663   5.925 -0.3097 -0.9314  1.7153
 1256SOL     OW20909   6.215   0.015   0.969 -0.1321 -0.7674  0.6563
 1256SOL    HW120910   6.258  -0.019   1.048 -0.1918 -0.3620  0.8616
 1256SOL    HW220911   6.135  -0.038   0.961 -0.6028 -0.1863  1.3932
 1257SOL     OW20912   2.997   3.393   0.790 -0.0189  0.2624  0.0201
 1257SOL    HW120913   3.016   3.302   0.811  0.5637  0.5673  0.8496
 1257SOL    HW220914   2.937   3.423   0.858 -0.7489  0.3199 -0.6250
 1258SOL     OW20915   2.226   4.516   0.713 -0.0059 -0.1893 -0.3384
 1258SOL    HW120916   2.150   4.545   0.664 -0.1538 -0.3559 -0.2098
 1258SOL    HW220917   2.191   4.489   0.798  0.1775 -0.3933 -0.3260
 1259SOL     OW20918   4.407   4.218   6.479  0.2890 -0.0110 -0.1342
 1259SOL    HW120919   4.337   4.176   6.529  0.4205  0.6429  0.6158
 1259SOL    HW220920   4.486   4.172   6.505  0.6832  1.6864  1.9459
 1260SOL     OW20921   5.991   4.302   1.467  0.3458  0.4340 -0.0435
 1260SOL    HW120922   5.932   4.315   1.393  0.9263 -2.6978 -1.2292
 1260SOL    HW220923   5.978   4.379   1.523 -2.2024  1.5391 -1.9737
 1261SOL     OW20924   1.539   0.095   6.969  0.3193  0.4681 -0.3604
 1261SOL    HW120925   1.529   0.191   6.969 -0.9687  0.4261  2.1748
 1261SOL    HW220926   1.491   0.066   6.892 -0.8048  1.7938 -0.2029
 1262SOL     OW20927   4.095   6.432   0.364 -0.3352 -0.3624 -0.6410
 1262SOL    HW120928   4.036   6.501   0.335  0.8134  1.0673  0.3264
 1262SOL    HW220929   4.040   6.374   0.417 -0.9206  0.8217  0.0650
 1263SOL     OW20930   4.101   1.023   7.488 -0.0676  0.4917 -0.0484
 1263SOL    HW120931   4.170   0.962   7.518 -1.1168 -0.4134  0.6342
 1263SOL    HW220932   4.037   1.021   7.559 -0.5861  1.6757 -0.4726
 1264SOL     OW20933   0.781   2.591   0.922 -0.0966 -0.2212 -0.3254
 1264SOL    HW120934   0.716   2.522   0.909 -0.6692  0.2332  0.0477
 1264SOL    HW220935   0.852   2.569   0.862 -0.2577 -1.1417 -0.2038
 1265SOL     OW20936   4.188   4.707   0.247 -0.0223 -0.0410  0.2829
 1265SOL    HW120937   4.142   4.639   0.296 -0.8782 -0.0149 -0.4573
 1265SOL    HW220938   4.266   4.663   0.213  0.5043 -0.0993  1.5020
 1266SOL     OW20939   3.358   6.428   0.665  0.7720  0.6798 -0.4934
 1266SOL    HW120940   3.294   6.358   0.679  0.8551  0.7701  0.3930
 1266SOL    HW220941   3.310   6.496   0.618  0.2672  0.6564 -0.0228
 1267SOL     OW20942   0.104   5.785   0.179  0.5462  0.1179  0.3887
 1267SOL    HW120943   0.021   5.737   0.174  2.2999 -3.0295 -0.9196
 1267SOL    HW220944   0.136   5.768   0.268  0.0029  1.0352  0.7729
 1268SOL     OW20945   4.748   5.666   6.274 -0.2039  0.3781  0.0737
 1268SOL    HW120946   4.669   5.690   6.225  0.2079  0.9989 -0.2936
 1268SOL    HW220947   4.777   5.584   6.234 -1.4493 -0.6555  1.1420
 1269SOL     OW20948   5.518   5.233   6.280  0.6472 -0.1062  0.2515
 1269SOL    HW120949   5.536   5.172   6.352  2.7980 -0.9887 -0.9108
 1269SOL    HW220950   5.512   5.176   6.203 -0.8783  0.8808 -0.3919
 1270SOL     OW20951   0.855   5.643   6.897 -0.5599 -0.0974 -0.4224
 1270SOL    HW120952   0.867   5.665   6.804  0.7926 -2.6566 -0.9538
 1270SOL    HW220953   0.925   5.580   6.916 -1.4309 -0.4264  2.0700
 1271SOL     OW20954   1.491   0.492   0.240  0.5152 -0.2609 -0.0621
 1271SOL    HW120955   1.580   0.517   0.265 -0.1025  0.9271  1.0405
 1271SOL    HW220956   1.470   0.418   0.297  1.1287 -1.2053 -1.0160
 1272SOL     OW20957   2.061   3.245   7.636  0.2043  0.7033  0.2602
 1272SOL    HW120958   2.066   3.297   7.716  1.2261 -1.5796  1.7970
 1272SOL    HW220959   2.151   3.239   7.605 -0.1231  1.1851 -0.8437
 1273SOL     OW20960   4.010   6.182   6.532 -0.1309 -0.0816  0.0795
 1273SOL    HW120961   4.035   6.243   6.463  0.5767 -0.3852  0.0566
 1273SOL    HW220962   3.941   6.227   6.581 -0.6570  0.1345 -0.8293
 1274SOL     OW20963   0.924   2.909   0.887 -0.5341 -0.0799 -0.1747
 1274SOL    HW120964   0.983   2.883   0.958 -0.0582  1.4127  0.0176
 1274SOL    HW220965   0.885   2.827   0.857  0.3122 -0.9016  0.8728
 1275SOL     OW20966   6.140   2.506   0.493 -0.3675  0.2498 -0.1622
 1275SOL    HW120967   6.049   2.514   0.464 -0.7441 -0.3387  0.7744
 1275SOL    HW220968   6.164   2.416   0.471 -0.1311  0.2993 -0.1048
 1276SOL     OW20969   4.836   3.722   7.065  0.1230 -0.2659  0.1361
 1276SOL    HW120970   4.783   3.674   7.129  1.5410  0.9747  2.4020
 1276SOL    HW220971   4.774   3.780   7.021 -0.8675 -0.9498  0.5864
 1277SOL     OW20972   0.697   5.805   0.529  0.2447  0.3085  0.1363
 1277SOL    HW120973   0.626   5.741   0.522  0.5228 -0.1400  1.2127
 1277SOL    HW220974   0.680   5.867   0.458  0.2837 -1.2622 -1.2927
 1278SOL     OW20975   5.526   2.785   0.515 -0.0680  0.1165 -0.4307
 1278SOL    HW120976   5.529   2.758   0.423 -0.6145  0.6968 -0.6244
 1278SOL    HW220977   5.433   2.782   0.538  0.1056 -0.4200  0.2276
 1279SOL     OW20978   4.367   3.206   5.902 -0.0715 -0.4915  0.0613
 1279SOL    HW120979   4.371   3.145   5.828 -1.3969 -0.1495 -0.3220
 1279SOL    HW220980   4.409   3.286   5.869 -1.5481  0.0055 -0.7087
 1280SOL     OW20981   4.022   1.890   1.403  0.3834 -0.5352 -0.2254
 1280SOL    HW120982   4.031   1.802   1.441  1.6189  0.1638  1.2139
 1280SOL    HW220983   3.934   1.918   1.427  0.1486 -1.1947 -0.2935
 1281SOL     OW20984   0.560   4.901   6.686 -0.3771 -0.0812  0.0341
 1281SOL    HW120985   0.539   4.990   6.656 -1.7380 -0.9309 -1.7195
 1281SOL    HW220986   0.487   4.878   6.744  0.2803  0.1469  0.9649
 1282SOL     OW20987   2.420   4.507   0.362 -0.2677 -0.3195  0.3237
 1282SOL    HW120988   2.379   4.591   0.384  2.2682  1.4985 -1.1601
 1282SOL    HW220989   2.409   4.500   0.267  2.3082  0.1202 -0.1065
 1283SOL     OW20990   1.065   2.563   0.794 -0.0249 -0.2130  0.1974
 1283SOL    HW120991   1.104   2.578   0.708  1.6876  2.3160  1.2748
 1283SOL    HW220992   1.136   2.524   0.846 -0.2143  0.5989  1.0976
 1284SOL     OW20993   2.738   4.605   7.393  0.3531 -0.6164 -0.4478
 1284SOL    HW120994   2.648   4.635   7.403  0.7923  0.1965  1.4724
 1284SOL    HW220995   2.780   4.674   7.342  0.2629 -0.1975  0.0371
 1285SOL     OW20996   2.611   2.504   7.438 -0.5857 -0.0742 -0.2739
 1285SOL    HW120997   2.541   2.521   7.501 -1.2109  0.5805 -1.1215
 1285SOL    HW220998   2.671   2.578   7.449 -0.5716 -0.0849 -0.2788
 1286SOL     OW20999   5.025   0.491   7.668  0.1040  0.7970  0.1935
 1286SOL    HW121000   4.973   0.417   7.700  0.5374 -1.2759 -3.3932
 1286SOL    HW221001   5.098   0.451   7.621  1.6569  3.5703  0.0529
 1287SOL     OW21002   3.533   1.033   7.493  0.0374 -0.2056 -0.3358
 1287SOL    HW121003   3.596   1.078   7.550  0.3644 -2.3110  1.0870
 1287SOL    HW221004   3.449   1.073   7.515  0.2123 -0.7160  1.4148
 1288SOL     OW21005   4.384   0.184   1.184  0.1119  0.2467  0.5899
 1288SOL    HW121006   4.341   0.113   1.233  1.4361 -0.1374  1.2538
 1288SOL    HW221007   4.371   0.161   1.092  0.8016 -1.0708  0.7916
 1289SOL     OW21008   2.479   1.846   1.233 -0.0180  0.1243 -0.0420
 1289SOL    HW121009   2.423   1.779   1.273  2.4140 -1.5104  0.8385
 1289SOL    HW221010   2.516   1.802   1.156 -0.6864  1.5387 -1.2276
 1290SOL     OW21011   3.174   4.799   1.531  1.0995 -0.3142 -0.6820
 1290SOL    HW121012   3.266   4.779   1.517  0.8472 -0.8939 -1.6556
 1290SOL    HW221013   3.131   4.714   1.534  0.5108 -0.0331 -0.9280
 1291SOL     OW21014   2.197   2.684   1.735  0.0542 -0.2493  0.5110
 1291SOL    HW121015   2.161   2.765   1.771 -2.7128 -1.4350  0.6755
 1291SOL    HW221016   2.227   2.708   1.648  0.1211  1.1413  0.8862
 1292SOL     OW21017   3.993   2.870   0.299 -0.3546  0.1720  0.2917
 1292SOL    HW121018   4.063   2.838   0.355 -1.0292 -0.8885  0.5565
 1292SOL    HW221019   3.986   2.963   0.320 -0.3125 -0.1163  1.6711
 1293SOL     OW21020   1.795   4.594   1.753 -0.0142  0.2706 -0.1102
 1293SOL    HW121021   1.754   4.680   1.758  1.4323  0.9089  1.2085
 1293SOL    HW221022   1.736   4.537   1.802  0.4320  1.0972  1.4320
 1294SOL     OW21023   0.154   1.145   0.677  0.1311 -0.0795 -0.6639
 1294SOL    HW121024   0.113   1.133   0.763  2.0682  2.0793  0.6683
 1294SOL    HW221025   0.102   1.090   0.618 -3.7124  1.3049  1.1060
 1295SOL     OW21026   5.651   1.322   1.057  0.2972  0.1737  0.3228
 1295SOL    HW121027   5.725   1.304   0.999 -0.8079 -0.2376 -1.0251
 1295SOL    HW221028   5.583   1.260   1.029 -0.1545 -0.3392  2.3633
 1296SOL     OW21029   4.821   2.414   1.576 -0.6784  0.7856  0.4454
 1296SOL    HW121030   4.848   2.332   1.536 -0.1301  0.3481  1.6544
 1296SOL    HW221031   4.726   2.406   1.585 -0.8169  0.9198 -0.7796
 1297SOL     OW21032   2.258   4.016   5.488  0.1138 -0.0131  0.5110
 1297SOL    HW121033   2.305   3.995   5.407 -1.9570 -0.9300 -0.5220
 1297SOL    HW221034   2.197   4.085   5.462 -1.0000 -0.7465  1.1275
 1298SOL     OW21035   5.097   0.818   5.206  0.2483 -0.6584  0.7480
 1298SOL    HW121036   5.060   0.905   5.221  2.0241 -0.1375  2.4847
 1298SOL    HW221037   5.031   0.758   5.241 -1.1662 -0.0957 -0.7974
 1299SOL     OW21038   1.336   4.319   0.510 -0.0829 -0.0339  0.6590
 1299SOL    HW121039   1.330   4.286   0.600  0.0942  2.1688  1.5270
 1299SOL    HW221040   1.257   4.287   0.467 -0.8092 -0.0752  1.9702
 1300SOL     OW21041   3.082   0.634   7.189 -0.1014 -0.2538 -0.6080
 1300SOL    HW121042   3.151   0.679   7.140 -0.5294  0.6924 -0.3726
 1300SOL    HW221043   3.123   0.553   7.219  1.2684  0.7755  0.4655
 1301SOL     OW21044   2.397   5.882   0.005  0.6594 -0.0777 -0.4369
 1301SOL    HW121045   2.309   5.857  -0.024  0.0172  0.5628  0.8642
 1301SOL    HW221046   2.383   5.959   0.059  2.0559  0.1291 -0.3413
 1302SOL     OW21047   2.461   3.378   1.702 -0.0551 -0.6496 -0.0772
 1302SOL    HW121048   2.366   3.363   1.703  0.1055 -1.7052  1.1704
 1302SOL    HW221049   2.498   3.300   1.743  1.3302 -0.0392 -0.1247
 1303SOL     OW21050   1.931   0.921   2.092  0.3850 -0.5306  0.7048
 1303SOL    HW121051   1.957   0.829   2.082 -0.5438 -0.7921  0.6826
 1303SOL    HW221052   1.839   0.918   2.118  0.2608  0.4058  0.4060
 1304SOL     OW21053   4.492   2.555   7.102  0.4379  0.0698 -0.2691
 1304SOL    HW121054   4.417   2.584   7.050  0.6735  0.6188 -0.3066
 1304SOL    HW221055   4.504   2.463   7.077 -0.0241  0.0701 -0.5002
 1305SOL     OW21056   4.176   2.758   7.112  0.2860 -0.4602 -0.0662
 1305SOL    HW121057   4.192   2.838   7.162 -1.6500 -0.2458  0.3127
 1305SOL    HW221058   4.121   2.786   7.039  0.9397 -1.1997 -0.8595
 1306SOL     OW21059   2.671   5.653   6.802 -0.1855  0.4373  0.1870
 1306SOL    HW121060   2.698   5.726   6.746 -2.1060 -1.0150 -2.9094
 1306SOL    HW221061   2.751   5.624   6.844  1.3395  1.9123 -1.5154
 1307SOL     OW21062   0.191   0.124   0.618 -0.3347  0.4799  0.3822
 1307SOL    HW121063   0.133   0.200   0.620 -0.7065  0.1815  1.9479
 1307SOL    HW221064   0.140   0.054   0.659  1.0348  0.1579  1.6026
 1308SOL     OW21065   1.029   4.956   0.979  0.5652 -0.5504  0.2280
 1308SOL    HW121066   1.096   4.913   1.033  1.3061 -0.6053 -0.7058
 1308SOL    HW221067   1.026   4.904   0.899  1.7451  1.2950 -1.0874
 1309SOL     OW21068   2.620   1.948   1.438  0.8254 -0.5171 -0.0994
 1309SOL    HW121069   2.610   2.041   1.416  2.7495  0.1461  1.4984
 1309SOL    HW221070   2.583   1.901   1.363 -0.6155  1.5194 -0.7447
 1310SOL     OW21071   0.056   3.383   5.631 -0.1596 -0.5102  0.7639
 1310SOL    HW121072   0.083   3.430   5.552 -2.3650 -1.8324 -0.9070
 1310SOL    HW221073   0.054   3.450   5.700  2.4265  0.5625 -0.0713
 1311SOL     OW21074   2.710   2.145   5.304 -0.6301  0.2839  0.1057
 1311SOL    HW121075   2.787   2.090   5.322 -0.4986  0.3676 -0.1913
 1311SOL    HW221076   2.745   2.221   5.259 -1.0315 -0.2987 -1.2432
 1312SOL     OW21077   2.738   3.335   7.150  0.0194 -0.8174 -0.3682
 1312SOL    HW121078   2.777   3.315   7.065 -0.6785 -1.3595 -0.5691
 1312SOL    HW221079   2.748   3.254   7.201 -1.5537 -1.2570 -0.7029
 1313SOL     OW21080   1.424   0.797   1.018 -0.6861 -0.4201  0.3503
 1313SOL    HW121081   1.389   0.791   1.107 -0.0085 -0.6806  0.6080
 1313SOL    HW221082   1.375   0.869   0.978  0.1213  0.7881  1.4600
 1314SOL     OW21083   1.149   1.732   7.529  0.0941 -0.2702 -0.1507
 1314SOL    HW121084   1.133   1.806   7.470  2.6973 -0.1632 -0.8512
 1314SOL    HW221085   1.157   1.771   7.616  0.5313  0.1553 -0.3811
 1315SOL     OW21086   0.291   1.774   1.975 -0.3824  0.8029  0.3006
 1315SOL    HW121087   0.377   1.798   2.009  0.1287  0.6496 -0.8676
 1315SOL    HW221088   0.243   1.743   2.052 -0.1528  2.9461  1.3920
 1316SOL     OW21089   3.651   0.418   0.508  0.1121  0.2757 -0.7399
 1316SOL    HW121090   3.605   0.363   0.572  0.2408 -0.3637 -1.1794
 1316SOL    HW221091   3.627   0.380   0.424 -1.5066  2.1836 -1.2239
 1317SOL     OW21092   2.957   1.216   0.271 -0.5109  0.0753 -0.5391
 1317SOL    HW121093   2.973   1.127   0.238 -0.4212  0.7233 -2.3359
 1317SOL    HW221094   2.895   1.204   0.343 -0.5295 -1.4399 -0.7800
 1318SOL     OW21095   4.519   3.093   7.024  0.0314 -0.0547 -0.3953
 1318SOL    HW121096   4.573   3.059   7.095 -0.5708  0.0340  0.1220
 1318SOL    HW221097   4.570   3.078   6.945  0.0836 -1.4918 -0.1047
 1319SOL     OW21098   1.860   0.479   7.480  0.3257 -0.3149  0.3299
 1319SOL    HW121099   1.911   0.406   7.515 -0.4634 -0.8674  0.3399
 1319SOL    HW221100   1.856   0.463   7.386 -0.3811 -0.6268  0.4107
 1320SOL     OW21101   2.274   5.881   1.589 -0.2840  0.2069  0.5267
 1320SOL    HW121102   2.244   5.868   1.499  0.3125 -1.7352  0.5765
 1320SOL    HW221103   2.228   5.815   1.640  0.8251  0.0285  1.3273
 1321SOL     OW21104   2.485   1.236   7.136 -0.1904  0.0615  0.2427
 1321SOL    HW121105   2.563   1.187   7.162  0.1239 -0.0878 -0.9105
 1321SOL    HW221106   2.473   1.302   7.204  0.9865  0.1266  0.3972
 1322SOL     OW21107   2.557   5.985   0.892  0.3866 -0.7388  0.1369
 1322SOL    HW121108   2.540   5.891   0.903  1.0674 -1.2447 -2.4727
 1322SOL    HW221109   2.649   5.990   0.865 -0.0744  0.5084 -1.3430
 1323SOL     OW21110   4.140   2.342   7.703 -0.5605  0.0873 -0.1136
 1323SOL    HW121111   4.123   2.321   7.611 -0.7561 -0.8228  0.1271
 1323SOL    HW221112   4.170   2.433   7.701 -0.6396  0.1032 -1.0687
 1324SOL     OW21113   4.906   3.714   5.378  0.2492 -0.7076  0.8785
 1324SOL    HW121114   4.953   3.634   5.354  0.4581 -0.6958  1.2430
 1324SOL    HW221115   4.815   3.687   5.385  0.2684 -0.8341  0.6279
 1325SOL     OW21116   4.177   0.965   5.671  0.0737  0.0260 -0.5352
 1325SOL    HW121117   4.133   0.884   5.697 -1.2042  1.1223  0.9090
 1325SOL    HW221118   4.172   0.966   5.576 -0.3480 -1.3583 -0.5400
 1326SOL     OW21119   1.274   0.840   1.546  0.1274 -0.6612  0.3358
 1326SOL    HW121120   1.343   0.799   1.598 -0.1285 -1.3972  0.1144
 1326SOL    HW221121   1.226   0.894   1.608 -0.6273 -2.0931  1.0629
 1327SOL     OW21122   4.972   6.144   0.935 -0.1300  0.1480  0.3212
 1327SOL    HW121123   4.983   6.177   0.846 -1.9035 -1.8316 -0.7311
 1327SOL    HW221124   4.881   6.112   0.937  0.9331 -3.1969  1.6401
 1328SOL     OW21125   4.867   4.488   0.476  0.2016 -0.6862  0.0332
 1328SOL    HW121126   4.823   4.489   0.391  1.0368 -1.6578 -0.4290
 1328SOL    HW221127   4.876   4.581   0.499  0.0921 -0.4042 -1.0085
 1329SOL     OW21128   2.895   0.696   1.671 -0.5212  0.2002 -0.7233
 1329SOL    HW121129   2.861   0.633   1.735 -1.8420 -0.0832 -1.6638
 1329SOL    HW221130   2.862   0.781   1.702  0.9289  0.4210  0.3229
 1330SOL     OW21131   0.241   5.625   7.521  0.3227  0.1819 -0.3649
 1330SOL    HW121132   0.233   5.640   7.427 -0.2734 -1.6457 -0.6269
 1330SOL    HW221133   0.151   5.627   7.553  0.3174 -1.3522 -0.2117
 1331SOL     OW21134   3.321   5.696   6.839 -0.9449 -0.1644 -0.3123
 1331SOL    HW121135   3.355   5.743   6.763 -2.0962  1.0582 -0.1041
 1331SOL    HW221136   3.386   5.711   6.907 -1.0280  0.6676 -0.4121
 1332SOL     OW21137   5.605   2.834   7.390  0.2753  0.0265 -0.8757
 1332SOL    HW121138   5.574   2.915   7.349  0.0165  0.5772  0.3682
 1332SOL    HW221139   5.568   2.764   7.336  0.6437  0.7178 -2.0687
 1333SOL     OW21140   1.297   2.845   6.443 -0.3861 -0.0056  0.4493
 1333SOL    HW121141   1.363   2.841   6.513  2.1884 -1.4198 -1.8548
 1333SOL    HW221142   1.288   2.754   6.413 -3.4171  0.1500  0.5937
 1334SOL     OW21143   0.693   4.690   6.569  0.1768  0.1581 -0.1504
 1334SOL    HW121144   0.661   4.777   6.591 -0.1241 -0.0640  0.3151
 1334SOL    HW221145   0.758   4.670   6.637  1.9233  0.9212 -1.5215
 1335SOL     OW21146   4.017   5.823   6.844  0.1008  0.0450 -0.0299
 1335SOL    HW121147   3.985   5.800   6.757 -0.4386 -1.6303  0.5740
 1335SOL    HW221148   3.940   5.854   6.891  0.8042  3.5549 -0.8368
 1336SOL     OW21149   6.246   5.179   7.156 -0.6461 -0.0089  0.2461
 1336SOL    HW121150   6.326   5.218   7.192  0.2951 -2.5915  1.1960
 1336SOL    HW221151   6.186   5.175   7.230 -1.3990  1.1731 -0.2729
 1337SOL     OW21152   5.347   3.675   1.947 -0.6071 -0.0042  0.1806
 1337SOL    HW121153   5.406   3.694   1.874 -0.2266 -1.0763  0.1885
 1337SOL    HW221154   5.264   3.651   1.906 -0.4999 -0.2525  0.1046
 1338SOL     OW21155   3.804   1.417   0.244 -0.3967 -0.8946  0.0793
 1338SOL    HW121156   3.749   1.421   0.322 -0.1205 -0.1500  0.2465
 1338SOL    HW221157   3.880   1.471   0.265  0.3133 -1.7388 -0.2240
 1339SOL     OW21158   5.296   3.606   0.045  0.3245 -0.3648  0.1966
 1339SOL    HW121159   5.293   3.694   0.082 -0.6400  0.6217 -2.0226
 1339SOL    HW221160   5.253   3.551   0.110 -2.0258  1.4043  0.2739
 1340SOL     OW21161   3.673   3.279   6.894 -0.3685 -0.0414 -0.3946
 1340SOL    HW121162   3.714   3.274   6.807  1.3556  2.6994  0.1506
 1340SOL    HW221163   3.582   3.301   6.876 -0.5115 -1.3672 -1.5131
 1341SOL     OW21164   3.764   6.448   0.924 -0.1130  0.0754  0.3924
 1341SOL    HW121165   3.795   6.538   0.926 -0.5042  0.3576 -2.2762
 1341SOL    HW221166   3.840   6.396   0.950  0.4001  1.1121  1.0200
 1342SOL     OW21167   4.690   3.856   0.279  0.3680  0.2810 -0.2910
 1342SOL    HW121168   4.611   3.879   0.230  0.6547  1.2691 -0.3113
 1342SOL    HW221169   4.703   3.930   0.339 -0.0723 -0.9711  1.4212
 1343SOL     OW21170   6.220   1.068   0.003  0.1828  0.0346  0.5131
 1343SOL    HW121171   6.298   1.084   0.056  0.5528  0.2078 -0.0718
 1343SOL    HW221172   6.187   1.156  -0.017  0.0178 -0.0310  0.4959
 1344SOL     OW21173   5.732   6.106   0.073 -0.3551 -0.5532  0.2565
 1344SOL    HW121174   5.787   6.028   0.087 -0.4245 -0.6029  0.2534
 1344SOL    HW221175   5.775   6.154   0.002  0.8878  0.5232  1.6832
 1345SOL     OW21176   4.402   0.063   6.565  0.6510  0.2062  0.3421
 1345SOL    HW121177   4.380   0.154   6.586  1.0272  0.2455  0.5695
 1345SOL    HW221178   4.486   0.069   6.519  0.0040  0.0989 -0.9114
 1346SOL     OW21179   2.085   1.419   1.018 -0.0505 -0.6450  0.3460
 1346SOL    HW121180   2.078   1.514   1.026 -0.8519 -0.7066  0.4920
 1346SOL    HW221181   2.017   1.395   0.954 -0.2677 -1.1798  0.7647
 1347SOL     OW21182   1.501   5.464   6.924 -0.1821 -0.0498  0.0020
 1347SOL    HW121183   1.530   5.555   6.918 -0.4382  0.0792  0.6887
 1347SOL    HW221184   1.474   5.443   6.834 -2.3542  1.3132  0.2420
 1348SOL     OW21185   0.876   2.765   6.144  0.0326  0.3582  0.7697
 1348SOL    HW121186   0.800   2.735   6.194 -0.3955 -0.0937 -0.1341
 1348SOL    HW221187   0.876   2.712   6.065  0.9112  0.8121  0.4446
 1349SOL     OW21188   0.456   2.355   1.629  1.2305  0.1806 -0.1493
 1349SOL    HW121189   0.444   2.377   1.721  0.6527 -0.4155 -0.0796
 1349SOL    HW221190   0.470   2.440   1.586  0.9055  0.5118  0.3903
 1350SOL     OW21191   5.337   3.267   1.837  0.3064 -0.3228  0.4851
 1350SOL    HW121192   5.425   3.277   1.873  0.4920 -2.3292  0.7271
 1350SOL    HW221193   5.346   3.287   1.744  1.0971 -0.8079  0.4511
 1351SOL     OW21194   5.402   2.491   0.722  0.5249  0.3109 -0.6857
 1351SOL    HW121195   5.437   2.572   0.759  1.0493  0.3825 -1.3122
 1351SOL    HW221196   5.336   2.461   0.785  0.3714  1.1910 -0.4223
 1352SOL     OW21197   3.317   1.816   6.341  0.0678 -0.0345  0.0982
 1352SOL    HW121198   3.347   1.905   6.361  0.7029 -0.5221  1.5043
 1352SOL    HW221199   3.270   1.824   6.258  0.6583  1.4927 -0.1234
 1353SOL     OW21200   6.204   5.497   5.466  0.0449 -0.2694 -0.1211
 1353SOL    HW121201   6.168   5.563   5.525 -0.8094 -1.5805  0.8860
 1353SOL    HW221202   6.299   5.511   5.469 -0.1507  1.2150 -0.3369
 1354SOL     OW21203   0.164   3.972   0.885 -0.1339 -0.0518 -0.2099
 1354SOL    HW121204   0.187   4.020   0.964 -0.6397 -1.4035  0.8131
 1354SOL    HW221205   0.078   4.005   0.861  0.3438  0.8986 -0.6554
 1355SOL     OW21206   2.866   5.173   1.788  0.0343  0.7115  0.0431
 1355SOL    HW121207   2.800   5.104   1.792 -0.6099  1.3274  0.0843
 1355SOL    HW221208   2.922   5.148   1.714 -1.4469  1.2429 -1.3067
 1356SOL     OW21209   6.343   2.031   6.292  0.0228 -0.2551  0.4598
 1356SOL    HW121210   6.395   1.970   6.240  0.6430  1.9273 -1.6486
 1356SOL    HW221211   6.394   2.041   6.373  1.0504 -0.8193 -0.0895
 1357SOL     OW21212   0.598   0.453   0.155  0.6064 -1.1450 -0.0493
 1357SOL    HW121213   0.545   0.403   0.092  0.3975 -0.7217 -0.2134
 1357SOL    HW221214   0.657   0.504   0.100 -1.1918  1.1020 -0.0665
 1358SOL     OW21215   6.133   2.323   0.858 -0.1534  0.0067  0.2590
 1358SOL    HW121216   6.102   2.381   0.927 -0.0723 -0.3779  0.6219
 1358SOL    HW221217   6.164   2.382   0.789 -0.5618  0.3927  0.4018
 1359SOL     OW21218   0.528   5.249   0.890  0.4245  0.1239 -0.3138
 1359SOL    HW121219   0.613   5.209   0.871  0.4680  0.3042 -0.5013
 1359SOL    HW221220   0.468   5.175   0.897  0.9939 -0.2213  2.0906
 1360SOL     OW21221   4.457   1.770   7.589  0.2235  0.3016  0.4371
 1360SOL    HW121222   4.361   1.769   7.588  0.0964 -0.0316  3.6502
 1360SOL    HW221223   4.481   1.853   7.547 -1.3638 -0.0642 -1.3294
 1361SOL     OW21224   2.114   3.246   7.011 -0.8109  0.4341 -0.1230
 1361SOL    HW121225   2.138   3.185   7.080 -0.5960  0.8162  0.1416
 1361SOL    HW221226   2.126   3.333   7.049 -3.0926  0.6842  0.2059
 1362SOL     OW21227   0.008   3.818   0.035  0.1992  0.2860  0.1193
 1362SOL    HW121228   0.003   3.908   0.005  1.4498  0.8873  1.5843
 1362SOL    HW221229   0.026   3.767  -0.044  0.1984  1.3924 -0.6139
 1363SOL     OW21230   0.412   5.260   1.487 -0.1963 -0.0622 -0.0217
 1363SOL    HW121231   0.491   5.280   1.437 -1.1673  1.6125 -1.0152
 1363SOL    HW221232   0.376   5.182   1.445  0.3615 -0.1984 -0.2579
 1364SOL     OW21233   4.293   0.992   0.671  0.3107 -0.4206 -0.5724
 1364SOL    HW121234   4.353   0.933   0.717  1.1043  0.6873 -0.1623
 1364SOL    HW221235   4.252   0.936   0.604  1.9371 -1.1591 -1.0037
 1365SOL     OW21236   2.231   0.647   7.310  0.6005  0.8893 -0.3369
 1365SOL    HW121237   2.198   0.711   7.374  0.8758 -0.4909  1.2606
 1365SOL    HW221238   2.319   0.678   7.290  0.1583  1.8802 -0.8266
 1366SOL     OW21239   0.958   2.018   5.312  0.0510  0.5937  0.3151
 1366SOL    HW121240   0.919   1.930   5.313 -0.8364  0.9802  0.7891
 1366SOL    HW221241   1.044   2.005   5.271  0.4334 -0.6975  1.4463
 1367SOL     OW21242   0.689   1.598   5.708  0.3315  0.6033  0.0639
 1367SOL    HW121243   0.731   1.513   5.696  0.9748  0.2939  3.4766
 1367SOL    HW221244   0.596   1.579   5.717  0.3080  0.4368 -0.5171
 1368SOL     OW21245   2.625   0.116   7.035 -0.0003 -0.4819  0.5304
 1368SOL    HW121246   2.603   0.160   7.117  1.3452  0.4562  0.4288
 1368SOL    HW221247   2.626   0.186   6.970  0.8883 -0.8752  0.1069
 1369SOL     OW21248   4.910   3.776   7.385 -0.0138  0.5175  0.5046
 1369SOL    HW121249   4.953   3.692   7.370  1.0441  1.2556 -0.7098
 1369SOL    HW221250   4.838   3.778   7.322  0.0197  0.5752  0.4688
 1370SOL     OW21251   4.262   0.541   0.121 -0.4163  0.0560 -0.1488
 1370SOL    HW121252   4.279   0.576   0.033  0.0446 -2.5562 -1.2064
 1370SOL    HW221253   4.208   0.464   0.105 -1.9315  0.5909  2.0771
 1371SOL     OW21254   2.374   4.866   0.436 -0.6867  0.7517 -0.6184
 1371SOL    HW121255   2.305   4.931   0.448  0.4999  1.7696  1.2694
 1371SOL    HW221256   2.445   4.896   0.493  0.3579 -1.6004 -0.5636
 1372SOL     OW21257   0.952   1.203   5.981 -0.6248  0.0686  0.0466
 1372SOL    HW121258   0.986   1.156   5.904  0.3332 -0.7862  0.9583
 1372SOL    HW221259   0.880   1.256   5.946  0.8513  1.0098 -1.7549
 1373SOL     OW21260   5.680   3.225   1.351  0.3113  0.0002  0.6067
 1373SOL    HW121261   5.632   3.231   1.434 -1.5650 -1.7239 -0.2620
 1373SOL    HW221262   5.678   3.132   1.330  2.5260  0.1270 -0.4149
 1374SOL     OW21263   4.611   5.125   6.988  0.3167  0.0429  0.2929
 1374SOL    HW121264   4.689   5.177   7.005  2.4695 -2.5156 -1.0087
 1374SOL    HW221265   4.612   5.109   6.894  0.0569 -2.6380  0.6611
 1375SOL     OW21266   4.475   4.610   1.342  0.2673 -0.1311 -0.5602
 1375SOL    HW121267   4.489   4.542   1.409 -0.4149 -0.6999 -0.9815
 1375SOL    HW221268   4.563   4.632   1.312  0.5897  0.1290  0.5094
 1376SOL     OW21269   2.037   0.977   5.920  0.2960 -0.4644 -0.2685
 1376SOL    HW121270   1.977   0.903   5.910 -0.4669  0.1085 -0.0994
 1376SOL    HW221271   2.054   0.983   6.014 -0.1686 -0.0375 -0.2054
 1377SOL     OW21272   1.709   0.290   6.796  0.2255 -0.2202 -0.6690
 1377SOL    HW121273   1.743   0.206   6.828 -0.4813 -1.6788 -3.4055
 1377SOL    HW221274   1.780   0.352   6.808  1.3907 -1.6270 -0.1109
 1378SOL     OW21275   1.672   2.555   7.057 -0.1445  0.1061 -0.9308
 1378SOL    HW121276   1.600   2.496   7.079  1.0939 -1.7028 -1.5618
 1378SOL    HW221277   1.704   2.587   7.141 -0.8065 -0.1458 -0.5777
 1379SOL     OW21278   1.864   4.704   0.880 -0.1780 -1.0853  0.1414
 1379SOL    HW121279   1.929   4.767   0.849  1.0493 -1.5876  1.5971
 1379SOL    HW221280   1.791   4.759   0.910  1.4418 -0.1432  2.7238
 1380SOL     OW21281   2.391   2.425   1.412 -0.5475  0.4020  0.3293
 1380SOL    HW121282   2.334   2.361   1.454 -0.4550 -0.3399 -0.6371
 1380SOL    HW221283   2.459   2.373   1.370 -0.8277  1.0641 -1.0313
 1381SOL     OW21284   5.457   0.062   6.375  0.0893 -0.2339 -0.2372
 1381SOL    HW121285   5.539   0.064   6.327  0.3754  0.4410  0.2573
 1381SOL    HW221286   5.404   0.133   6.338  0.9504  1.4088  1.4844
 1382SOL     OW21287   2.655   1.475   1.423 -0.3662  0.0051 -0.3014
 1382SOL    HW121288   2.583   1.413   1.429  0.1230 -0.9146 -2.7693
 1382SOL    HW221289   2.637   1.525   1.343  0.1845  1.8658  0.6761
 1383SOL     OW21290   0.650   6.268   6.587 -0.0305  0.7087 -0.0384
 1383SOL    HW121291   0.709   6.198   6.562  2.2959  2.6049 -0.2068
 1383SOL    HW221292   0.703   6.329   6.638 -1.8820  2.4231  0.0137
 1384SOL     OW21293   0.350   5.997   0.384  0.1051  0.0977 -0.2841
 1384SOL    HW121294   0.302   6.069   0.343 -0.9599  0.1794  1.0242
 1384SOL    HW221295   0.295   5.920   0.370 -0.1325  0.0749  0.7001
 1385SOL     OW21296   5.669   4.434   7.727  0.0134 -0.0336 -0.0412
 1385SOL    HW121297   5.726   4.358   7.719  0.6822  0.3152  1.1543
 1385SOL    HW221298   5.649   4.439   7.820 -1.8145 -0.0150 -0.4129
 1386SOL     OW21299   4.668   0.969   0.973  0.0719  0.7183  0.0253
 1386SOL    HW121300   4.642   0.960   0.881 -0.7035 -0.1266  0.3150
 1386SOL    HW221301   4.589   0.999   1.018  0.2129  0.3204  0.5501
 1387SOL     OW21302   0.736   4.407   1.513  0.0663 -0.1614 -0.1453
 1387SOL    HW121303   0.655   4.422   1.562  1.5940 -1.5733  3.1700
 1387SOL    HW221304   0.766   4.494   1.487 -1.5868  0.5194  0.1171
 1388SOL     OW21305   4.597   2.232   1.612  0.2400  0.0162 -0.1205
 1388SOL    HW121306   4.563   2.272   1.692  1.2683 -0.3560  0.5243
 1388SOL    HW221307   4.607   2.139   1.634 -1.5286 -0.5345 -1.3930
 1389SOL     OW21308   2.924   0.017   6.930  0.2211 -0.4359  0.1823
 1389SOL    HW121309   2.936   0.094   6.875  2.0170  0.7531  2.0895
 1389SOL    HW221310   2.857   0.043   6.994 -2.5191 -2.1018 -1.7561
 1390SOL     OW21311   4.546   0.901   0.740  0.1551  0.0035  0.1682
 1390SOL    HW121312   4.553   0.977   0.682  2.3055  0.7565  1.3252
 1390SOL    HW221313   4.550   0.826   0.681  2.6413  0.7249 -0.7209
 1391SOL     OW21314   0.286   0.091   7.596 -0.5513 -0.6382  0.6700
 1391SOL    HW121315   0.210   0.142   7.623  0.0330  0.2370  0.6986
 1391SOL    HW221316   0.319   0.135   7.518 -2.0610 -2.9820 -1.4392
 1392SOL     OW21317   0.872   5.777   0.232 -0.8277 -0.0503  0.3154
 1392SOL    HW121318   0.786   5.740   0.213 -1.2766  1.2649 -0.3616
 1392SOL    HW221319   0.855   5.847   0.295 -0.0531 -0.7101  1.2895
 1393SOL     OW21320   4.817   5.190   0.683 -0.0485  0.6963  0.2637
 1393SOL    HW121321   4.868   5.153   0.612 -1.4054  1.7198 -1.3255
 1393SOL    HW221322   4.802   5.117   0.743  1.5676 -0.0594 -0.2045
 1394SOL     OW21323   1.574   1.243   1.002 -0.2416 -0.4105 -0.3213
 1394SOL    HW121324   1.593   1.151   1.020  0.3873 -0.2282 -0.0255
 1394SOL    HW221325   1.479   1.248   1.001 -0.2816 -1.0161 -0.0685
 1395SOL     OW21326   2.327   4.444   7.119  0.3744 -0.2811  0.4916
 1395SOL    HW121327   2.260   4.512   7.116  0.6828  0.0323 -2.3412
 1395SOL    HW221328   2.410   4.491   7.116  0.6038 -0.5831 -3.1769
 1396SOL     OW21329   0.718   3.080   6.515 -0.1540  0.1072 -0.1069
 1396SOL    HW121330   0.745   3.128   6.593  2.0330 -0.4641 -0.4585
 1396SOL    HW221331   0.665   3.143   6.466  0.0670  1.1210  0.9053
 1397SOL     OW21332   0.899   5.298   6.201 -0.2303 -0.4310  0.2460
 1397SOL    HW121333   0.927   5.335   6.117  0.8250 -0.0905  0.7233
 1397SOL    HW221334   0.883   5.206   6.183  2.6884 -1.0352  0.1819
 1398SOL     OW21335   2.698   2.586   6.106 -0.0820 -0.1583 -0.2840
 1398SOL    HW121336   2.764   2.530   6.065  0.0613  0.2081 -0.5656
 1398SOL    HW221337   2.718   2.581   6.199  0.2817 -0.1349 -0.3583
 1399SOL     OW21338   3.575   0.470   6.429  0.5742 -0.0790  0.3513
 1399SOL    HW121339   3.557   0.432   6.343  3.3244 -1.2280  0.1864
 1399SOL    HW221340   3.562   0.398   6.490  1.2506 -0.0132  0.5784
 1400SOL     OW21341   1.850   0.183   0.334 -0.2125  0.2058 -0.0976
 1400SOL    HW121342   1.808   0.144   0.257  1.4217  0.1908 -1.0226
 1400SOL    HW221343   1.871   0.109   0.391 -0.4234  0.1166 -0.1324
 1401SOL     OW21344   1.434   5.143   7.018 -0.2744 -0.5500 -0.6390
 1401SOL    HW121345   1.459   5.208   6.952 -1.7061 -0.3138 -1.0010
 1401SOL    HW221346   1.353   5.105   6.984  0.3411 -2.2888 -0.2515
 1402SOL     OW21347   4.040   2.082   5.920  0.3138  0.0209  0.2319
 1402SOL    HW121348   4.028   2.028   5.842  2.3077  0.7132 -0.6027
 1402SOL    HW221349   4.093   2.028   5.979  4.0813  1.5814 -1.4040
 1403SOL     OW21350   2.186   0.639   7.738  0.0792  0.1562  0.3327
 1403SOL    HW121351   2.127   0.573   7.703  0.4664  1.0296 -2.1581
 1403SOL    HW221352   2.161   0.720   7.694  0.1863  1.5356  2.6578
 1404SOL     OW21353   1.021   3.544   1.658  0.4271  0.3051 -0.4786
 1404SOL    HW121354   1.047   3.636   1.657  3.0096 -0.2961  1.5960
 1404SOL    HW221355   0.925   3.546   1.657  0.4082  2.9542 -0.8706
 1405SOL     OW21356   0.145   1.758   6.670 -0.3867 -0.2064 -0.0100
 1405SOL    HW121357   0.169   1.745   6.578 -1.0556  1.2390 -0.4150
 1405SOL    HW221358   0.227   1.784   6.713 -0.0403 -1.0462 -0.1557
 1406SOL     OW21359   1.289   5.091   1.998 -0.0329 -0.2045  0.1850
 1406SOL    HW121360   1.228   5.130   2.061 -0.5731 -2.6963  1.3090
 1406SOL    HW221361   1.281   5.146   1.921 -3.9078 -0.4721  0.1755
 1407SOL     OW21362   1.764   3.189   6.734 -0.3291 -0.1265  0.2152
 1407SOL    HW121363   1.701   3.260   6.724  1.5850  1.5156 -1.0158
 1407SOL    HW221364   1.763   3.144   6.649  1.1584  0.8500 -0.3569
 1408SOL     OW21365   2.010   1.609   6.542 -0.4130  0.4218  0.4167
 1408SOL    HW121366   2.063   1.568   6.610  0.1563 -0.9327 -0.7962
 1408SOL    HW221367   1.922   1.574   6.556 -0.1376 -0.4747  0.0094
 1409SOL     OW21368   0.564   0.811   5.528 -0.3838  0.0186  0.5628
 1409SOL    HW121369   0.515   0.875   5.478 -0.0037  1.2506  1.7183
 1409SOL    HW221370   0.656   0.837   5.517 -0.3443  1.1756  2.9252
 1410SOL     OW21371   2.064   4.555   7.054  0.1294 -0.5691  0.6036
 1410SOL    HW121372   2.001   4.626   7.063  0.3659 -0.2514 -0.1259
 1410SOL    HW221373   2.011   4.477   7.037 -0.2599 -0.9809  3.3045
 1411SOL     OW21374   1.308   1.510   7.670 -0.1601 -0.1076 -1.1259
 1411SOL    HW121375   1.283   1.599   7.646 -1.4094  0.3494  1.4849
 1411SOL    HW221376   1.226   1.462   7.672 -0.4274  0.1838  2.8625
 1412SOL     OW21377   6.282   0.226   0.490 -0.7648 -0.1744 -0.2847
 1412SOL    HW121378   6.249   0.224   0.580 -1.7977 -0.2293 -0.6471
 1412SOL    HW221379   6.224   0.167   0.442  0.0043 -0.4341 -0.9178
 1413SOL     OW21380   4.691   0.047   6.652 -0.6695  0.1007 -0.5298
 1413SOL    HW121381   4.685  -0.043   6.682  1.0918  0.2164  0.2976
 1413SOL    HW221382   4.748   0.043   6.575 -0.1422  0.5496 -0.1766
 1414SOL     OW21383   3.625   5.905   0.648  0.0548 -0.0357  0.6851
 1414SOL    HW121384   3.568   5.970   0.606 -1.5901 -1.3512  0.7627
 1414SOL    HW221385   3.594   5.902   0.739  0.9525 -0.0331  0.9938
 1415SOL     OW21386   3.089   2.295   1.500  0.2703  0.2195  0.4214
 1415SOL    HW121387   3.081   2.372   1.556 -0.4395  1.6741 -1.5693
 1415SOL    HW221388   3.109   2.329   1.413  1.7734 -1.9712 -0.1941
 1416SOL     OW21389   4.740   4.598   1.244 -0.3378 -0.4321 -0.2238
 1416SOL    HW121390   4.784   4.683   1.239 -1.0712 -0.0083  0.1388
 1416SOL    HW221391   4.796   4.545   1.299 -0.2185  0.0650  0.1480
 1417SOL     OW21392   0.168   2.744   5.684 -0.0522  0.0212  0.6545
 1417SOL    HW121393   0.165   2.649   5.669 -0.3674  0.2883 -1.1876
 1417SOL    HW221394   0.082   2.776   5.657  0.3003  0.9209  0.5519
 1418SOL     OW21395   5.074   0.868   5.904 -0.2411 -0.6918 -0.8524
 1418SOL    HW121396   5.102   0.808   5.835  0.4775 -0.7146 -0.5500
 1418SOL    HW221397   5.080   0.816   5.984 -3.2927 -1.4009 -0.9912
 1419SOL     OW21398   6.327   2.135   5.813  0.2180 -0.5610 -0.0431
 1419SOL    HW121399   6.311   2.177   5.897 -0.2178  0.8174 -0.7904
 1419SOL    HW221400   6.245   2.145   5.764  0.7943 -0.4159 -1.0177
 1420SOL     OW21401   1.851   2.986   0.317  0.7666 -0.3417 -0.1562
 1420SOL    HW121402   1.822   3.037   0.242  2.2240  0.7482 -0.0255
 1420SOL    HW221403   1.805   3.024   0.392 -0.3680 -1.1580 -0.4125
 1421SOL     OW21404   0.843   1.802   5.719  0.0166 -0.3167  0.5564
 1421SOL    HW121405   0.872   1.805   5.628 -2.2443  2.6320 -0.2153
 1421SOL    HW221406   0.782   1.728   5.722  2.1097 -2.1709  0.4949
 1422SOL     OW21407   3.426   6.065   6.906  0.4467  0.3322 -0.3606
 1422SOL    HW121408   3.339   6.050   6.944 -0.1106 -0.0997 -1.7384
 1422SOL    HW221409   3.469   6.124   6.968 -1.1510  1.2721 -0.0884
 1423SOL     OW21410   6.057   4.007   6.237 -0.1998 -0.1907  0.5360
 1423SOL    HW121411   6.014   4.017   6.322 -0.5405 -0.1881  0.3651
 1423SOL    HW221412   6.141   3.966   6.258  0.0753  0.5601  0.9619
 1424SOL     OW21413   2.160   5.252   7.734  0.2290 -0.1688 -0.5300
 1424SOL    HW121414   2.206   5.335   7.749  0.2111  0.0280 -1.5047
 1424SOL    HW221415   2.077   5.262   7.781  0.0001  0.5806 -1.0852
 1425SOL     OW21416   2.175   5.807   1.325 -0.3145 -0.4359 -0.4024
 1425SOL    HW121417   2.202   5.793   1.235 -0.4414 -0.6284 -0.4121
 1425SOL    HW221418   2.079   5.807   1.322 -0.3767  2.0633 -0.6485
 1426SOL     OW21419   6.425   4.505   0.663  0.6834  0.1808 -0.0482
 1426SOL    HW121420   6.514   4.487   0.632  0.7950  1.3591 -0.4810
 1426SOL    HW221421   6.370   4.497   0.585  0.4857 -0.0217  0.1101
 1427SOL     OW21422   1.094   4.775   2.109  0.1135  0.3625 -0.4594
 1427SOL    HW121423   1.000   4.770   2.130  0.0331  1.4274 -0.4710
 1427SOL    HW221424   1.138   4.768   2.193 -0.1027  2.1987 -0.1434
 1428SOL     OW21425   1.428   3.610   6.711  0.0591  0.7353  0.3606
 1428SOL    HW121426   1.353   3.578   6.661  0.5819 -0.1208  0.0996
 1428SOL    HW221427   1.468   3.677   6.654  1.3424 -1.0466 -0.9711
 1429SOL     OW21428   2.532   0.554   7.180 -0.6197 -0.3813 -1.0772
 1429SOL    HW121429   2.579   0.617   7.125 -0.0087  0.2927  0.1896
 1429SOL    HW221430   2.594   0.482   7.191  0.3759  0.7141  0.9823
 1430SOL     OW21431   0.991   2.004   7.093  0.3597  0.1753  0.5448
 1430SOL    HW121432   1.026   1.941   7.030 -1.1153 -0.4495  0.3107
 1430SOL    HW221433   1.014   2.089   7.057 -0.0986 -0.1763 -0.6388
 1431SOL     OW21434   5.106   0.145   0.915 -0.1575 -0.3127  0.1618
 1431SOL    HW121435   5.040   0.112   0.977 -0.1862 -0.3767  0.0963
 1431SOL    HW221436   5.080   0.236   0.900 -0.4628 -0.4521 -0.1740
 1432SOL     OW21437   4.232   4.172   0.085 -0.1829  0.1308 -0.7160
 1432SOL    HW121438   4.174   4.150   0.158 -0.1745  0.8399 -0.4928
 1432SOL    HW221439   4.174   4.211   0.020 -0.1876 -0.4833 -1.0907
 1433SOL     OW21440   6.249   2.768   7.111 -0.2004 -0.1734 -0.1897
 1433SOL    HW121441   6.266   2.835   7.178 -3.0096  0.1150  0.3428
 1433SOL    HW221442   6.212   2.694   7.159  0.8882 -1.3390 -1.0551
 1434SOL     OW21443   2.775   2.015   7.618  0.1089 -0.1747  0.2724
 1434SOL    HW121444   2.836   2.009   7.545 -0.3071  0.0806 -0.0961
 1434SOL    HW221445   2.713   2.083   7.593 -1.3740 -1.6253 -0.1386
 1435SOL     OW21446   6.125   0.345   6.854  0.1249 -0.0847  0.4677
 1435SOL    HW121447   6.167   0.388   6.779  0.7153  2.6037  2.1966
 1435SOL    HW221448   6.047   0.398   6.871 -0.4046 -1.1103  1.3168
 1436SOL     OW21449   4.440   0.668   6.194  0.1040 -0.1050 -0.5030
 1436SOL    HW121450   4.389   0.702   6.120 -0.8596  0.5250  0.4161
 1436SOL    HW221451   4.407   0.579   6.205 -0.2703  0.0442 -0.3865
 1437SOL     OW21452   6.448   6.351   6.310 -0.1753 -0.1376 -0.0248
 1437SOL    HW121453   6.441   6.298   6.389 -0.2700 -0.6926 -0.3933
 1437SOL    HW221454   6.429   6.440   6.338  0.2720 -0.2561  0.6623
 1438SOL     OW21455   1.859   4.550   6.706 -0.5782 -0.4797 -0.1272
 1438SOL    HW121456   1.911   4.610   6.759 -1.3408  2.4043 -2.3565
 1438SOL    HW221457   1.776   4.543   6.752 -0.1675 -0.5687  0.6128
 1439SOL     OW21458   1.434   4.840   5.195  0.3958 -0.2602 -0.6203
 1439SOL    HW121459   1.418   4.787   5.273  0.4363 -0.2076 -0.5756
 1439SOL    HW221460   1.449   4.777   5.125 -0.8078 -0.3209 -0.8423
 1440SOL     OW21461   3.791   3.340   1.257  0.3624  0.1487 -0.2057
 1440SOL    HW121462   3.704   3.307   1.279  0.8285 -0.9239  0.1439
 1440SOL    HW221463   3.802   3.322   1.164 -0.3604  1.6983 -0.6197
 1441SOL     OW21464   2.346   5.972   2.067  0.1619 -0.3684 -0.3510
 1441SOL    HW121465   2.436   5.985   2.036 -0.2188 -1.4633 -2.0691
 1441SOL    HW221466   2.347   5.885   2.106 -0.4261 -0.9957 -1.6606
 1442SOL     OW21467   4.457   6.432   2.066 -0.6293  0.2795 -0.1492
 1442SOL    HW121468   4.401   6.456   1.992 -0.9149 -0.3189 -0.1343
 1442SOL    HW221469   4.401   6.446   2.143 -0.0418  1.7803  0.0406
 1443SOL     OW21470   6.298   3.472   1.124 -0.1054  0.0969 -0.1767
 1443SOL    HW121471   6.388   3.466   1.156 -0.3598  0.6349  0.6527
 1443SOL    HW221472   6.284   3.390   1.077  1.9000  1.2963 -3.1643
 1444SOL     OW21473   1.868   4.559   0.639  0.4643 -0.0303  0.0691
 1444SOL    HW121474   1.840   4.467   0.644  1.7055 -0.4534 -0.3066
 1444SOL    HW221475   1.845   4.596   0.724 -0.7177 -0.4858 -0.0412
 1445SOL     OW21476   6.107   4.065   1.499 -0.1052  0.5525 -0.5155
 1445SOL    HW121477   6.052   4.135   1.464 -0.4038  0.6488  0.1362
 1445SOL    HW221478   6.150   4.104   1.575 -1.5286 -0.4141  0.8549
 1446SOL     OW21479   5.912   1.756   5.909  0.5187  0.1538  0.0984
 1446SOL    HW121480   5.842   1.716   5.960  0.6306  0.8220  0.7957
 1446SOL    HW221481   5.986   1.696   5.918  0.7225  0.5542  1.2352
 1447SOL     OW21482   0.144   0.482   7.434  0.2224  0.4427  0.6896
 1447SOL    HW121483   0.112   0.428   7.362  1.4587  0.9644 -0.2824
 1447SOL    HW221484   0.071   0.540   7.455 -1.1497 -1.5589  1.7826
 1448SOL     OW21485   5.040   1.142   2.177  0.3771  0.5174 -0.3719
 1448SOL    HW121486   5.048   1.055   2.216 -0.4159  0.6507  0.1285
 1448SOL    HW221487   5.029   1.126   2.084  0.0384  0.0618 -0.2611
 1449SOL     OW21488   0.194   4.135   6.352  0.1556  0.5709  0.1693
 1449SOL    HW121489   0.199   4.062   6.290  1.0137 -0.5126  1.4588
 1449SOL    HW221490   0.274   4.129   6.404  0.0022  2.1411  0.6451
 1450SOL     OW21491   6.442   3.223   1.371  0.1162  0.0073  0.3135
 1450SOL    HW121492   6.519   3.169   1.389  0.4765  1.2086  2.9450
 1450SOL    HW221493   6.469   3.283   1.302  2.3413  1.6700  2.4445
 1451SOL     OW21494   2.631   1.417   0.253 -0.3381 -0.5531  0.1020
 1451SOL    HW121495   2.574   1.468   0.310 -1.5028 -2.1218  0.4198
 1451SOL    HW221496   2.619   1.455   0.166  0.7800  1.3005  0.6916
 1452SOL     OW21497   5.600   2.219   7.542  0.3830 -0.0404 -0.1654
 1452SOL    HW121498   5.601   2.281   7.469 -0.7405  0.3852  0.1584
 1452SOL    HW221499   5.662   2.150   7.516  0.2833  0.2912 -1.3391
 1453SOL     OW21500   0.200   5.108   6.996 -0.2848  0.2954  0.1290
 1453SOL    HW121501   0.165   5.159   7.069 -0.1207  1.0839 -0.3285
 1453SOL    HW221502   0.285   5.077   7.027 -0.5575 -0.0353  0.5552
 1454SOL     OW21503   3.092   0.769   0.839 -0.4988 -0.5600 -0.0354
 1454SOL    HW121504   3.007   0.800   0.807  0.2384  0.6829 -0.9036
 1454SOL    HW221505   3.156   0.818   0.787  0.7547 -1.2828  0.7738
 1455SOL     OW21506   1.336   2.840   1.800  0.3453 -0.4156  0.2933
 1455SOL    HW121507   1.346   2.749   1.830 -3.3710 -0.9652  0.3697
 1455SOL    HW221508   1.267   2.876   1.856  1.8062  2.5535  0.3253
 1456SOL     OW21509   1.708   3.472   1.911  0.1042 -0.0077 -0.1234
 1456SOL    HW121510   1.649   3.489   1.837  0.4642  0.2126 -0.3669
 1456SOL    HW221511   1.740   3.383   1.897 -0.8004 -0.4329  0.4566
 1457SOL     OW21512   2.862   2.535   7.087 -0.1413  0.1029 -0.4054
 1457SOL    HW121513   2.891   2.518   6.997  0.6224 -1.1337  0.0540
 1457SOL    HW221514   2.793   2.470   7.102 -1.7375  1.6291 -0.7533
 1458SOL     OW21515   6.356   0.824   6.234  0.0440 -0.6490  0.1977
 1458SOL    HW121516   6.447   0.796   6.223  0.3856  0.7044 -0.7001
 1458SOL    HW221517   6.342   0.888   6.164 -0.7355  1.2234  1.9570
 1459SOL     OW21518   0.063   1.884   0.659 -0.4850  0.2249 -0.2932
 1459SOL    HW121519  -0.006   1.818   0.650 -0.9067  0.7322 -0.9351
 1459SOL    HW221520   0.089   1.903   0.568 -0.7365  1.3102 -0.1510
 1460SOL     OW21521   4.248   5.362   0.982 -0.4017  0.0082 -0.1698
 1460SOL    HW121522   4.163   5.318   0.973  0.8882 -2.8410  0.5005
 1460SOL    HW221523   4.313   5.294   0.963  1.7855  1.7539  0.5832
 1461SOL     OW21524   0.410   5.086   6.061  0.0005 -0.4021  0.6636
 1461SOL    HW121525   0.468   5.015   6.034 -0.9099 -1.0300  0.3203
 1461SOL    HW221526   0.468   5.160   6.074  0.5398  0.1031 -3.3722
 1462SOL     OW21527   5.806   0.971   1.345  0.0568 -0.4030  0.5060
 1462SOL    HW121528   5.851   0.994   1.426  2.9349  0.0001 -1.0912
 1462SOL    HW221529   5.798   0.876   1.347  2.1975 -0.6331  0.3199
 1463SOL     OW21530   5.528   1.609   1.057 -0.0616 -0.1984  0.1874
 1463SOL    HW121531   5.578   1.528   1.047  0.1344 -0.0642  0.0789
 1463SOL    HW221532   5.466   1.608   0.984 -2.4052 -1.9113  2.0277
 1464SOL     OW21533   0.185   3.152   5.560  0.1425  0.2877  0.0196
 1464SOL    HW121534   0.154   3.220   5.619  0.4707 -0.2406  0.8118
 1464SOL    HW221535   0.191   3.195   5.475  0.7020  1.3441  0.5813
 1465SOL     OW21536   1.766   5.688   7.110 -0.2159  0.1146 -0.0979
 1465SOL    HW121537   1.738   5.704   7.020 -1.2890  0.2747  0.2595
 1465SOL    HW221538   1.754   5.594   7.123 -0.4915  0.1693  0.0305
 1466SOL     OW21539   5.361   0.313   6.789 -0.3645  0.3857  0.0833
 1466SOL    HW121540   5.330   0.223   6.802  0.0883  0.1423 -0.4464
 1466SOL    HW221541   5.290   0.357   6.743 -0.1177 -0.0467 -0.7424
 1467SOL     OW21542   5.836   0.346   7.393 -0.7205  0.0026 -0.5829
 1467SOL    HW121543   5.814   0.280   7.458  2.2213 -0.9352 -0.3631
 1467SOL    HW221544   5.812   0.306   7.309 -1.4329 -0.1916 -0.2936
 1468SOL     OW21545   4.093   3.460   0.855  0.1508  0.1401 -0.1168
 1468SOL    HW121546   4.006   3.471   0.892  0.5646 -0.4078  1.0465
 1468SOL    HW221547   4.145   3.422   0.925  0.9886 -0.8307 -1.2240
 1469SOL     OW21548   1.095   2.746   1.313 -0.7738 -0.4235  0.0988
 1469SOL    HW121549   1.125   2.745   1.222  2.1120 -0.2295  0.9455
 1469SOL    HW221550   1.053   2.661   1.325 -1.8349 -0.1853 -1.5531
 1470SOL     OW21551   3.980   3.085   6.183  0.1401  0.3218 -0.6623
 1470SOL    HW121552   4.071   3.079   6.154 -0.2809  0.2709 -2.0226
 1470SOL    HW221553   3.929   3.087   6.102 -1.0271  1.1695  0.0664
 1471SOL     OW21554   4.739   1.775   7.225  0.3638  0.0004  0.0063
 1471SOL    HW121555   4.791   1.821   7.291 -0.2351 -1.2413  1.3804
 1471SOL    HW221556   4.802   1.721   7.178  0.9359  1.5060 -1.0720
 1472SOL     OW21557   0.438   6.392   6.705 -0.1074  0.1435  0.1340
 1472SOL    HW121558   0.508   6.337   6.670 -0.7077  0.5154 -1.7335
 1472SOL    HW221559   0.479   6.478   6.719 -0.2911  0.5090 -1.4605
 1473SOL     OW21560   1.387   5.422   7.181  0.2752 -0.2348 -0.1916
 1473SOL    HW121561   1.418   5.434   7.091  1.2110  0.3150  0.1919
 1473SOL    HW221562   1.352   5.507   7.206 -0.4506 -0.5249 -0.2020
 1474SOL     OW21563   1.629   4.318   6.449  0.0715 -0.6663 -0.3590
 1474SOL    HW121564   1.543   4.353   6.427 -0.0031 -0.6415 -0.0429
 1474SOL    HW221565   1.617   4.279   6.536  0.5309 -0.1048 -0.0308
 1475SOL     OW21566   3.068   4.766   6.454 -0.0084  0.3584  0.1883
 1475SOL    HW121567   3.011   4.777   6.378 -0.8239 -0.5977  0.6208
 1475SOL    HW221568   3.008   4.739   6.524  0.7475  1.0846  1.1284
 1476SOL     OW21569   6.243   1.579   7.166  0.2157  0.5615  0.4884
 1476SOL    HW121570   6.171   1.550   7.110  0.2001 -0.1177  0.8533
 1476SOL    HW221571   6.259   1.505   7.225  1.0725  0.7844  0.5506
 1477SOL     OW21572   6.031   1.137   6.250  0.0752  0.2686 -0.2135
 1477SOL    HW121573   5.997   1.164   6.165 -1.0490  0.2677  0.2195
 1477SOL    HW221574   6.081   1.212   6.281 -2.2512  1.6037  0.5689
 1478SOL     OW21575   4.525   1.580   1.623  0.1585 -0.5332  0.0569
 1478SOL    HW121576   4.611   1.584   1.663 -0.3963 -0.7991  1.3351
 1478SOL    HW221577   4.488   1.668   1.635  1.3044  0.5153 -3.0865
 1479SOL     OW21578   5.311   3.817   6.034  0.0436  0.3287  0.6997
 1479SOL    HW121579   5.235   3.817   6.092  0.4448 -0.5303  1.2454
 1479SOL    HW221580   5.344   3.727   6.037  0.8980  0.6135  0.2282
 1480SOL     OW21581   1.178   4.206   6.793 -0.0957 -0.1966  0.1304
 1480SOL    HW121582   1.246   4.259   6.835 -0.1293  0.1675 -0.2683
 1480SOL    HW221583   1.097   4.232   6.837 -0.4440  1.6767 -1.4805
 1481SOL     OW21584   4.116   3.831   1.386  0.3841  0.0946  0.2706
 1481SOL    HW121585   4.137   3.898   1.452 -0.4566  0.8847 -0.2266
 1481SOL    HW221586   4.117   3.879   1.303  0.4845 -0.6829 -0.1860
 1482SOL     OW21587   0.931   4.281   6.875  0.5325  0.2466  0.4610
 1482SOL    HW121588   0.906   4.357   6.927  0.2488  0.1291  0.4990
 1482SOL    HW221589   0.854   4.262   6.821 -0.3443 -1.5162  2.2084
 1483SOL     OW21590   1.885   2.246   0.298  0.0075 -0.2833  0.1569
 1483SOL    HW121591   1.872   2.170   0.355 -0.8911 -0.4765 -0.2796
 1483SOL    HW221592   1.953   2.298   0.341 -0.8725 -0.2668  1.5672
 1484SOL     OW21593   2.284   4.009   6.376 -0.1417 -0.0085 -0.2194
 1484SOL    HW121594   2.203   4.058   6.367  0.6461  1.1972 -1.1681
 1484SOL    HW221595   2.265   3.923   6.337 -1.0224  0.1541 -0.1684
 1485SOL     OW21596   2.556   5.075   0.183 -0.3363 -0.0065 -0.3894
 1485SOL    HW121597   2.563   5.109   0.272  1.1225 -0.5776 -0.2570
 1485SOL    HW221598   2.639   5.099   0.141 -1.8981  2.2959 -2.3806
 1486SOL     OW21599   2.113   4.229   5.322 -0.0019 -0.0532 -0.1822
 1486SOL    HW121600   2.038   4.285   5.305  0.0916  0.2556  0.3901
 1486SOL    HW221601   2.184   4.268   5.272 -0.0433  0.0810 -0.1355
 1487SOL     OW21602   6.451   6.004   5.944 -0.2575 -0.3701 -0.3570
 1487SOL    HW121603   6.481   6.085   5.984  0.0552 -0.5505 -0.2276
 1487SOL    HW221604   6.529   5.966   5.904  0.0856 -1.7177  1.4565
 1488SOL     OW21605   3.197   5.979   7.226 -0.2939 -0.0590  0.0096
 1488SOL    HW121606   3.222   5.887   7.231 -0.7386 -0.1291  1.3993
 1488SOL    HW221607   3.181   5.994   7.133  0.0862 -1.2972 -0.2802
 1489SOL     OW21608   0.439   0.757   7.569  0.3838  0.7947  0.3913
 1489SOL    HW121609   0.502   0.705   7.618  0.5610  1.1821  0.5814
 1489SOL    HW221610   0.393   0.694   7.513 -1.7130 -0.1468  2.9748
 1490SOL     OW21611   3.190   0.415   7.321 -0.1179 -0.2217  0.0379
 1490SOL    HW121612   3.106   0.427   7.365  0.0945  3.4447 -0.2586
 1490SOL    HW221613   3.255   0.431   7.389  0.3182 -0.6824 -0.2677
 1491SOL     OW21614   3.841   1.138   1.550 -0.8680 -0.0996 -0.7419
 1491SOL    HW121615   3.771   1.076   1.571 -0.6781  0.4941  1.8721
 1491SOL    HW221616   3.897   1.090   1.489 -2.0783 -1.5597 -0.7659
 1492SOL     OW21617   4.189   5.316   7.422 -0.0892  1.1520  0.3836
 1492SOL    HW121618   4.221   5.230   7.448 -2.1229  0.6547  1.5261
 1492SOL    HW221619   4.242   5.340   7.346  1.0648 -0.7366  0.5230
 1493SOL     OW21620   5.873   2.694   7.158 -0.4719  0.3537  0.1707
 1493SOL    HW121621   5.796   2.647   7.126 -1.9091  1.6567  1.5843
 1493SOL    HW221622   5.938   2.625   7.172 -1.4420 -0.8113 -0.8053
 1494SOL     OW21623   1.294   1.926   0.233  0.3566 -0.2870 -0.0201
 1494SOL    HW121624   1.222   1.871   0.264  0.8520 -0.8180  0.2124
 1494SOL    HW221625   1.360   1.920   0.301  1.4381 -1.4077 -1.1066
 1495SOL     OW21626   4.030   5.756   5.971 -0.2447 -0.1621  0.2644
 1495SOL    HW121627   4.029   5.670   6.013 -0.1088  0.0209  0.6457
 1495SOL    HW221628   4.098   5.749   5.903 -0.6199 -0.5289 -0.0769
 1496SOL     OW21629   1.968   2.633   6.601  0.2398 -0.3456 -0.1845
 1496SOL    HW121630   1.939   2.688   6.674  0.1276  0.6028 -0.9225
 1496SOL    HW221631   1.973   2.545   6.638  2.2260  0.4077  1.5428
 1497SOL     OW21632   2.354   5.608   1.936 -0.2022 -0.1279 -0.4192
 1497SOL    HW121633   2.436   5.560   1.930 -0.9214 -1.3895 -0.5987
 1497SOL    HW221634   2.359   5.654   2.020  1.0884  0.6151 -0.8903
 1498SOL     OW21635   4.534   5.053   6.079  0.3463 -0.2735  0.1527
 1498SOL    HW121636   4.584   5.131   6.102  1.3897 -0.3796 -1.5832
 1498SOL    HW221637   4.530   5.055   5.983 -3.1338 -0.1937  0.1504
 1499SOL     OW21638   5.249   6.408   6.464  0.3384 -0.5474  0.3351
 1499SOL    HW121639   5.329   6.442   6.425  0.5855 -1.2689  0.1853
 1499SOL    HW221640   5.181   6.424   6.398  0.7881 -1.9192 -0.5084
 1500SOL     OW21641   2.100   4.334   0.450 -0.4529 -0.3498 -0.4697
 1500SOL    HW121642   2.010   4.301   0.441 -0.4626 -0.5672  0.3300
 1500SOL    HW221643   2.137   4.327   0.362 -0.6220 -1.9979 -0.4424
 1501SOL     OW21644   4.604   0.687   1.782 -0.2824  0.1211 -0.1969
 1501SOL    HW121645   4.655   0.695   1.862 -0.7149 -1.3167  0.2669
 1501SOL    HW221646   4.654   0.735   1.716  1.1850 -0.4406  0.4549
 1502SOL     OW21647   0.739   2.894   0.024  0.0546  0.3207  0.1462
 1502SOL    HW121648   0.644   2.897   0.040  0.2069  0.5853  1.0140
 1502SOL    HW221649   0.749   2.932  -0.064 -0.2481  4.9148  1.8384
 1503SOL     OW21650   1.607   3.252   7.320  0.0069  0.1128 -0.5494
 1503SOL    HW121651   1.585   3.333   7.273  0.2348 -0.3049 -1.3778
 1503SOL    HW221652   1.693   3.228   7.287  1.1334  0.9175  1.5799
 1504SOL     OW21653   2.884   6.349   6.340 -0.0333  0.2474 -1.0792
 1504SOL    HW121654   2.837   6.379   6.262  0.5791  0.4157 -1.3890
 1504SOL    HW221655   2.957   6.298   6.305 -1.5911 -2.5223 -0.5856
 1505SOL     OW21656   5.952   5.095   1.875 -0.3532  0.0949  0.7127
 1505SOL    HW121657   5.883   5.056   1.821  0.9226  0.1803 -1.0440
 1505SOL    HW221658   5.904   5.143   1.943 -2.1851  2.2518 -1.8830
 1506SOL     OW21659   5.248   1.295   1.531  0.4713 -0.6188 -0.5402
 1506SOL    HW121660   5.292   1.371   1.570  0.7062 -0.1711 -1.6355
 1506SOL    HW221661   5.180   1.333   1.476 -1.2342 -1.3001  1.0054
 1507SOL     OW21662   3.279   2.245   0.251 -0.3833  0.7368  0.1305
 1507SOL    HW121663   3.306   2.332   0.223  1.1273  0.5959  1.0154
 1507SOL    HW221664   3.308   2.239   0.342 -1.7476 -0.1860  0.5347
 1508SOL     OW21665   1.582   4.115   1.417 -0.6514 -0.0762  0.0022
 1508SOL    HW121666   1.634   4.166   1.478  1.2047 -2.6025  0.6980
 1508SOL    HW221667   1.611   4.144   1.331 -0.1566  0.5108  0.3575
 1509SOL     OW21668   6.466   3.609   0.178 -0.7194  0.2145  0.3267
 1509SOL    HW121669   6.471   3.690   0.127  0.1997  0.1534  0.3066
 1509SOL    HW221670   6.379   3.575   0.160 -1.0375  1.0892  0.1617
 1510SOL     OW21671   0.310   2.150   1.554 -0.1420  0.3419  0.3132
 1510SOL    HW121672   0.361   2.217   1.599 -1.5943  0.6532  1.5956
 1510SOL    HW221673   0.258   2.199   1.489  1.1801  0.0201 -1.0330
 1511SOL     OW21674   0.913   5.150   7.558  0.0795 -0.4119  0.1922
 1511SOL    HW121675   0.820   5.128   7.567 -0.1207  0.0432 -0.6399
 1511SOL    HW221676   0.953   5.118   7.639 -0.5346 -2.0109 -0.1094
 1512SOL     OW21677   3.355   3.590   6.986  0.0139 -0.3302  0.1181
 1512SOL    HW121678   3.306   3.647   7.046  0.0599 -0.7271  0.5324
 1512SOL    HW221679   3.339   3.629   6.899 -2.3539 -1.3267  0.0149
 1513SOL     OW21680   5.349   3.100   7.368 -0.4477 -0.6858 -0.4994
 1513SOL    HW121681   5.423   3.102   7.306 -0.0722 -0.2097 -0.0484
 1513SOL    HW221682   5.344   3.009   7.396  0.5107 -0.5808  0.0838
 1514SOL     OW21683   3.778   1.318   1.863  0.2055 -0.6347 -0.0166
 1514SOL    HW121684   3.835   1.389   1.833 -1.5541  1.4020  1.1526
 1514SOL    HW221685   3.835   1.264   1.918  1.1864  1.0260  0.6926
 1515SOL     OW21686   0.548   6.073   5.485  0.5356 -0.4446  0.4966
 1515SOL    HW121687   0.455   6.052   5.482  0.7868 -1.6977  1.0303
 1515SOL    HW221688   0.587   6.006   5.542  1.7808 -0.0137  0.1990
 1516SOL     OW21689   0.376   0.539   1.214  0.5095  0.0476  0.2740
 1516SOL    HW121690   0.323   0.504   1.142  1.4018 -1.3650  0.2535
 1516SOL    HW221691   0.313   0.572   1.277 -0.3122  0.6405 -0.8321
 1517SOL     OW21692   2.353   2.361   7.272  0.9471  0.5610 -0.7219
 1517SOL    HW121693   2.344   2.354   7.177 -1.0499 -0.3842 -0.5256
 1517SOL    HW221694   2.421   2.299   7.295  1.0215  0.3534 -1.4725
 1518SOL     OW21695   2.761   2.540   2.277  0.3084 -0.0636 -0.1964
 1518SOL    HW121696   2.685   2.527   2.221 -0.3155 -0.4588  0.7123
 1518SOL    HW221697   2.771   2.457   2.324  0.5292  0.4032  0.6005
 1519SOL     OW21698   5.206   0.762   1.900  0.4128 -0.1916 -0.3555
 1519SOL    HW121699   5.284   0.767   1.843  1.8563  0.1330  1.5516
 1519SOL    HW221700   5.186   0.668   1.905 -0.0273 -0.1951 -1.7262
 1520SOL     OW21701   0.765   6.367   1.228 -0.0377  0.0883  0.3575
 1520SOL    HW121702   0.855   6.378   1.197 -0.4228  1.2600 -0.4230
 1520SOL    HW221703   0.752   6.438   1.290 -0.9129  0.9148 -0.7368
 1521SOL     OW21704   2.256   1.715   7.112  0.1290  0.5301 -0.6138
 1521SOL    HW121705   2.341   1.736   7.073  0.3727  2.1274  0.6489
 1521SOL    HW221706   2.196   1.779   7.075 -0.6541 -0.8443 -1.8046
 1522SOL     OW21707   5.024   5.620   0.621  0.1830  0.1365  0.6650
 1522SOL    HW121708   4.944   5.669   0.638 -1.0404 -1.5575  0.0389
 1522SOL    HW221709   5.079   5.636   0.698 -0.3350  2.0668  0.6758
 1523SOL     OW21710   5.942   1.001   2.209  0.2478  0.2529 -0.4413
 1523SOL    HW121711   5.960   0.930   2.270 -1.1647 -0.5038 -0.8579
 1523SOL    HW221712   5.847   1.010   2.210  0.4304  3.0907  0.6371
 1524SOL     OW21713   2.132   1.590   1.783 -0.0394  0.3118  0.4469
 1524SOL    HW121714   2.160   1.681   1.787  0.7652  0.2018 -1.5974
 1524SOL    HW221715   2.180   1.547   1.854  0.9798  1.1546  0.2932
 1525SOL     OW21716   4.314   3.445   7.760  0.1146 -0.0946  0.3531
 1525SOL    HW121717   4.378   3.380   7.734 -0.2831 -0.3484 -0.0162
 1525SOL    HW221718   4.298   3.428   7.852  1.7538  0.9958  0.8730
 1526SOL     OW21719   3.895   0.253   0.857  0.4231 -0.3927 -0.0732
 1526SOL    HW121720   3.921   0.233   0.767 -1.5659  2.2059 -1.3696
 1526SOL    HW221721   3.977   0.256   0.906  1.5938 -1.4662 -1.8497
 1527SOL     OW21722   3.607   1.185   5.964 -0.3744  0.2464 -0.0006
 1527SOL    HW121723   3.638   1.097   5.941 -1.3250 -0.4476  1.2355
 1527SOL    HW221724   3.581   1.223   5.880 -0.8223 -1.0166 -0.4658
 1528SOL     OW21725   2.508   0.199   7.617 -0.2563  0.3836  0.5754
 1528SOL    HW121726   2.448   0.133   7.650 -1.2940  0.3933 -1.1691
 1528SOL    HW221727   2.593   0.176   7.655 -0.8789 -1.1252  1.0974
 1529SOL     OW21728   0.200   2.345   7.166  0.3027  0.4126  0.0140
 1529SOL    HW121729   0.192   2.432   7.127 -0.4090  0.9079  1.1895
 1529SOL    HW221730   0.116   2.303   7.146  0.1296  0.4894  0.5550
 1530SOL     OW21731   1.899   3.517   6.796  0.4277  0.1395  0.3727
 1530SOL    HW121732   1.859   3.469   6.870 -0.8627  0.2027 -0.2558
 1530SOL    HW221733   1.864   3.605   6.803 -0.1487  0.0040 -0.6246
 1531SOL     OW21734   0.561   3.234   1.786  0.2021  0.0389 -0.3579
 1531SOL    HW121735   0.643   3.232   1.736  0.1133 -0.9367 -0.4850
 1531SOL    HW221736   0.584   3.195   1.870  0.4211  1.9305  0.5178
 1532SOL     OW21737   4.291   5.838   1.632 -0.3761  0.6692  0.2462
 1532SOL    HW121738   4.368   5.894   1.643 -0.5300  1.0866 -0.7598
 1532SOL    HW221739   4.229   5.892   1.583 -0.5451 -0.3642 -0.7022
 1533SOL     OW21740   2.457   3.234   6.045  0.4678 -0.2271  0.0948
 1533SOL    HW121741   2.487   3.320   6.074  1.2238 -0.2930 -0.4558
 1533SOL    HW221742   2.375   3.219   6.093 -0.4046  1.3904 -0.8194
 1534SOL     OW21743   6.343   4.363   1.676  0.0394 -0.3210 -0.0040
 1534SOL    HW121744   6.303   4.284   1.711  0.9707 -0.3105  1.1395
 1534SOL    HW221745   6.270   4.415   1.643 -0.5980 -1.5794 -0.6292
 1535SOL     OW21746   4.842   5.420   2.145 -0.7359  0.3625 -0.1383
 1535SOL    HW121747   4.863   5.395   2.235  0.0981 -1.6374 -0.8392
 1535SOL    HW221748   4.763   5.474   2.154 -1.3884 -0.7779  1.7140
 1536SOL     OW21749   1.340   0.040   6.760 -0.3245  0.1823 -0.1660
 1536SOL    HW121750   1.264   0.059   6.815 -0.6176  0.8353 -0.7799
 1536SOL    HW221751   1.374   0.127   6.736  2.1411 -0.0030  2.1066
 1537SOL     OW21752   4.745   0.496   1.060 -0.0067 -0.1703 -0.0853
 1537SOL    HW121753   4.750   0.440   1.137  0.5530 -0.2795 -0.1983
 1537SOL    HW221754   4.818   0.557   1.071 -0.3141  0.2213 -0.2104
 1538SOL     OW21755   2.941   6.107   0.093  0.4127 -0.2715  0.3922
 1538SOL    HW121756   2.878   6.060   0.039  1.8467 -0.7820 -0.9025
 1538SOL    HW221757   2.928   6.199   0.070 -0.1666 -0.3289  0.4824
 1539SOL     OW21758   3.206   2.890   6.830  0.4911  0.2586 -0.3989
 1539SOL    HW121759   3.196   2.977   6.868  0.3686  0.5228 -1.0300
 1539SOL    HW221760   3.278   2.850   6.880  0.3133  0.5839  0.1267
 1540SOL     OW21761   5.269   2.759   1.648  0.3061 -0.2949 -0.2971
 1540SOL    HW121762   5.215   2.691   1.609 -1.3126  0.0043  1.2981
 1540SOL    HW221763   5.274   2.736   1.741  1.2654  0.7780 -0.0512
 1541SOL     OW21764   4.086   0.269   6.456 -0.4449 -0.0617  0.4815
 1541SOL    HW121765   4.137   0.219   6.392 -0.0895 -2.3761  2.4681
 1541SOL    HW221766   4.149   0.294   6.523 -1.2323  0.4310  1.0615
 1542SOL     OW21767   2.096   3.164   1.756 -0.5042  0.0176  0.8812
 1542SOL    HW121768   2.136   3.250   1.741 -0.8160 -0.1206 -0.9915
 1542SOL    HW221769   2.003   3.182   1.770 -0.6845 -0.0500 -0.1841
 1543SOL     OW21770   1.846   1.412   1.579  0.2629 -0.6080 -0.4410
 1543SOL    HW121771   1.825   1.321   1.600 -1.4238 -0.2514 -0.4055
 1543SOL    HW221772   1.935   1.409   1.545 -0.2783 -2.4741 -1.8336
 1544SOL     OW21773   2.464   1.674   7.512  0.0549  0.2369  0.3082
 1544SOL    HW121774   2.478   1.743   7.576 -0.2517 -0.6757  1.3847
 1544SOL    HW221775   2.497   1.710   7.430  3.5753  0.2722  1.5651
 1545SOL     OW21776   0.153   1.895   0.381  0.8647 -0.4400  0.1309
 1545SOL    HW121777   0.122   1.853   0.302  1.3572  0.1135 -0.3672
 1545SOL    HW221778   0.236   1.852   0.400  0.3618 -1.1310  0.8135
 1546SOL     OW21779   3.913   5.249   5.904 -0.0892  0.3941  0.0971
 1546SOL    HW121780   3.987   5.283   5.955  0.8248  0.6005 -1.2928
 1546SOL    HW221781   3.908   5.308   5.828  0.0425 -1.1727 -1.1791
 1547SOL     OW21782   5.741   3.449   6.803  0.1442  0.0051 -0.0288
 1547SOL    HW121783   5.778   3.506   6.735 -1.1609  0.1984 -0.5929
 1547SOL    HW221784   5.647   3.461   6.797 -0.0319 -0.4100  1.4599
 1548SOL     OW21785   2.114   1.951   6.731 -0.2892  0.0847  0.2464
 1548SOL    HW121786   2.192   1.901   6.707 -0.6160 -0.8080  1.0082
 1548SOL    HW221787   2.059   1.889   6.780 -0.8892  1.0629  0.8499
 1549SOL     OW21788   3.766   3.236   2.078  0.6313  0.0048 -0.4921
 1549SOL    HW121789   3.676   3.209   2.059 -0.0449  0.3838  1.8252
 1549SOL    HW221790   3.765   3.259   2.171  3.4107 -1.1856 -0.0419
 1550SOL     OW21791   4.151   2.382   6.795  0.2433  0.3616  0.3523
 1550SOL    HW121792   4.071   2.387   6.846  1.8215  0.0414  3.0178
 1550SOL    HW221793   4.199   2.308   6.832  2.3045  1.2619 -0.3441
 1551SOL     OW21794   1.166   5.381   0.975 -0.0930 -0.6457  0.7390
 1551SOL    HW121795   1.088   5.358   1.026 -0.7143 -0.5705 -0.1439
 1551SOL    HW221796   1.158   5.329   0.895 -0.0312  0.4831 -0.0300
 1552SOL     OW21797   4.817   4.039   2.028 -0.2188  0.0362  0.3302
 1552SOL    HW121798   4.786   4.123   1.993 -1.1299 -0.6524 -0.5685
 1552SOL    HW221799   4.740   4.002   2.072 -0.9620 -1.9528 -2.3955
 1553SOL     OW21800   2.016   3.979   6.051 -0.3082 -0.3501  0.2902
 1553SOL    HW121801   1.985   4.001   5.964  0.5947  0.9069  0.2529
 1553SOL    HW221802   1.947   3.924   6.089 -0.8501 -0.6463 -1.0865
 1554SOL     OW21803   1.162   5.867   0.923  0.0076 -0.5643  0.8708
 1554SOL    HW121804   1.152   5.825   1.008  0.4659  0.7700  1.6226
 1554SOL    HW221805   1.086   5.925   0.916 -0.1842 -0.8812  0.2227
 1555SOL     OW21806   0.984   3.023   0.327 -0.0587  0.0085 -0.0648
 1555SOL    HW121807   1.046   2.950   0.331 -0.6320 -0.4913 -0.0502
 1555SOL    HW221808   0.901   2.984   0.356 -0.1255  0.9418  1.0510
 1556SOL     OW21809   2.690   1.170   1.037 -0.2208 -0.6696 -0.4711
 1556SOL    HW121810   2.648   1.145   1.119 -0.2553 -1.9385 -0.8463
 1556SOL    HW221811   2.620   1.210   0.986 -0.4383 -0.7631 -0.2487
 1557SOL     OW21812   2.671   4.973   0.596 -0.2457  0.1878  0.1738
 1557SOL    HW121813   2.636   5.053   0.555  1.9115  2.2400  2.0153
 1557SOL    HW221814   2.630   4.971   0.683 -0.5135 -0.9445  0.0376
 1558SOL     OW21815   0.604   1.837   7.541 -0.1799  0.5552  1.0978
 1558SOL    HW121816   0.647   1.874   7.618  1.4748  0.5938  0.1940
 1558SOL    HW221817   0.669   1.844   7.472 -0.9971 -1.1071  0.1174
 1559SOL     OW21818   4.200   0.837   1.011 -0.8405  0.0706  0.0045
 1559SOL    HW121819   4.163   0.843   1.099 -3.1384  0.5753 -0.9336
 1559SOL    HW221820   4.235   0.748   1.006  3.9117  1.3824  2.9975
 1560SOL     OW21821   0.473   2.974   1.260 -0.4650  0.2420  0.0172
 1560SOL    HW121822   0.494   3.012   1.346 -1.9484  0.3055  0.3686
 1560SOL    HW221823   0.557   2.974   1.214 -0.2523  3.4950  0.1679
 1561SOL     OW21824   4.180   1.064   6.611  0.2863 -0.2100  0.0889
 1561SOL    HW121825   4.086   1.080   6.617 -0.1659 -1.8612 -1.5613
 1561SOL    HW221826   4.197   0.999   6.679 -0.1660 -1.2450 -0.7451
 1562SOL     OW21827   5.446   5.044   7.751  0.0296  0.0032 -0.7186
 1562SOL    HW121828   5.526   5.023   7.703  0.2595  0.9386 -0.7691
 1562SOL    HW221829   5.378   5.049   7.683 -0.1665 -1.2372 -0.6205
 1563SOL     OW21830   4.932   3.363   7.274 -0.4172  0.4452  0.2963
 1563SOL    HW121831   4.932   3.302   7.200  0.8482  0.6747  0.0684
 1563SOL    HW221832   4.989   3.434   7.245  2.2958 -0.6663  2.3984
 1564SOL     OW21833   5.462   1.441   7.217 -0.2444 -0.6095  0.4073
 1564SOL    HW121834   5.422   1.501   7.280  1.5219  2.0052 -0.7664
 1564SOL    HW221835   5.389   1.397   7.175 -1.5985  0.1412  1.8756
 1565SOL     OW21836   0.288   0.389   0.977 -0.8268 -0.0762  0.6924
 1565SOL    HW121837   0.204   0.345   0.971 -1.2956  0.8393  0.2531
 1565SOL    HW221838   0.350   0.329   0.937 -1.7032  0.2759 -1.3077
 1566SOL     OW21839   1.210   5.177   7.516 -0.2130 -0.0878 -0.6491
 1566SOL    HW121840   1.176   5.263   7.541 -0.8993 -0.4600 -0.2730
 1566SOL    HW221841   1.223   5.183   7.421 -0.2576  0.4296 -0.6241
 1567SOL     OW21842   6.356   6.177   6.526  0.1282  0.3055  0.7002
 1567SOL    HW121843   6.444   6.147   6.548 -0.8544 -1.2587  2.8280
 1567SOL    HW221844   6.315   6.194   6.611 -2.0388 -0.2963 -0.1691
 1568SOL     OW21845   2.695   5.760   0.673  0.2924 -0.0898  0.4711
 1568SOL    HW121846   2.681   5.847   0.638 -0.6059 -1.1941 -2.1909
 1568SOL    HW221847   2.608   5.730   0.699  0.1804 -1.0337 -0.8890
 1569SOL     OW21848   3.011   1.303   7.617 -0.3793  0.1108  0.2869
 1569SOL    HW121849   2.927   1.329   7.654 -0.2092  0.5533  0.3626
 1569SOL    HW221850   3.047   1.241   7.681 -1.0387 -0.7833 -0.1716
 1570SOL     OW21851   6.267   4.504   6.313  0.5171  1.0507  0.4109
 1570SOL    HW121852   6.306   4.442   6.374  0.0068  0.6448  0.3363
 1570SOL    HW221853   6.202   4.452   6.265  1.0771  1.3018 -0.6483
 1571SOL     OW21854   3.366   6.420   7.099 -0.4093 -0.0788  0.5193
 1571SOL    HW121855   3.328   6.506   7.085  1.2792  0.6010 -0.0930
 1571SOL    HW221856   3.303   6.375   7.156 -2.5978  0.6069 -1.2363
 1572SOL     OW21857   5.411   4.754   6.249 -0.0494 -0.0315  0.4950
 1572SOL    HW121858   5.483   4.723   6.303 -1.6765  0.6327  3.2223
 1572SOL    HW221859   5.377   4.831   6.295 -3.3732 -1.1305  0.1883
 1573SOL     OW21860   4.740   1.097   6.067  0.0536 -0.2870 -0.1091
 1573SOL    HW121861   4.814   1.147   6.100  0.2359 -0.3531 -0.4102
 1573SOL    HW221862   4.775   1.050   5.991 -0.3052 -0.2821 -0.2815
 1574SOL     OW21863   3.113   5.374   5.636  0.4859  0.0487  0.2323
 1574SOL    HW121864   3.144   5.331   5.556 -0.3627  0.0402 -0.1003
 1574SOL    HW221865   3.078   5.302   5.689 -0.7463  0.2899 -0.2348
 1575SOL     OW21866   0.463   6.272   2.257  0.4601 -0.1659  0.4964
 1575SOL    HW121867   0.446   6.247   2.166  2.2051  1.7380 -0.4363
 1575SOL    HW221868   0.413   6.353   2.270  0.7769 -0.0448  1.0071
 1576SOL     OW21869   3.615   4.813   6.220 -0.2911  0.4099 -0.1349
 1576SOL    HW121870   3.686   4.749   6.215  0.0100  0.8209 -1.2777
 1576SOL    HW221871   3.563   4.798   6.141 -0.6638  1.0699 -0.0242
 1577SOL     OW21872   2.026   4.879   0.299 -0.3352  0.4637  0.4725
 1577SOL    HW121873   2.054   4.811   0.360 -0.0176  0.2771  0.1215
 1577SOL    HW221874   2.081   4.954   0.321 -0.5362  0.5401  0.7168
 1578SOL     OW21875   1.901   1.992   0.436 -0.3678  0.2023 -0.4923
 1578SOL    HW121876   1.908   1.921   0.373 -1.0731 -1.8408  1.6099
 1578SOL    HW221877   1.988   2.001   0.473  0.5980  2.8077 -3.0237
 1579SOL     OW21878   0.460   3.552   0.983 -0.2487 -0.1326  0.7001
 1579SOL    HW121879   0.423   3.583   1.066  0.1950 -1.3408  1.3761
 1579SOL    HW221880   0.461   3.457   0.992  1.1955 -0.2151 -0.1058
 1580SOL     OW21881   4.124   4.893   1.317  0.1186  0.3668 -0.2434
 1580SOL    HW121882   4.186   4.859   1.382 -0.6168  0.8538  0.7437
 1580SOL    HW221883   4.171   4.890   1.234  0.9996 -0.5025  0.2706
 1581SOL     OW21884   2.689   0.772   1.015 -0.3415  0.3710 -0.1610
 1581SOL    HW121885   2.728   0.764   1.102  0.5777  0.3820 -0.5555
 1581SOL    HW221886   2.625   0.843   1.023 -1.0016 -0.2987  0.7488
 1582SOL     OW21887   4.157   1.940   0.017 -0.3127  0.0723  0.0259
 1582SOL    HW121888   4.109   1.956  -0.065 -0.9098 -0.0572  0.3502
 1582SOL    HW221889   4.129   2.012   0.075 -0.9759 -0.6304  0.5936
 1583SOL     OW21890   2.297   3.292   7.461 -0.2297 -0.2945 -0.3531
 1583SOL    HW121891   2.327   3.310   7.372  0.6261 -0.0561 -0.0290
 1583SOL    HW221892   2.372   3.252   7.504 -0.6984 -0.5825  0.2127
 1584SOL     OW21893   2.478   2.791   6.765  0.6169 -0.4426 -0.6364
 1584SOL    HW121894   2.396   2.806   6.811  1.1046  2.5177 -0.5112
 1584SOL    HW221895   2.460   2.816   6.674  1.2160 -0.4144 -0.7530
 1585SOL     OW21896   1.232   3.430   6.625 -0.1442  0.2476 -0.0040
 1585SOL    HW121897   1.174   3.363   6.662  0.8209 -0.1827  0.7626
 1585SOL    HW221898   1.240   3.407   6.533 -1.4025  0.4719 -0.1825
 1586SOL     OW21899   1.875   3.366   0.616  0.3811  0.1412 -0.1289
 1586SOL    HW121900   1.886   3.382   0.522  0.6932 -0.2165 -0.1548
 1586SOL    HW221901   1.964   3.372   0.652  0.1252  1.5261  0.3451
 1587SOL     OW21902   4.955   2.345   7.023  0.5387 -0.2226  0.2895
 1587SOL    HW121903   4.891   2.408   7.056  2.6260  1.8855  0.5741
 1587SOL    HW221904   4.941   2.344   6.929  0.4234  0.6273  0.2880
 1588SOL     OW21905   4.540   0.610   7.744  0.8203 -0.3963 -0.2471
 1588SOL    HW121906   4.604   0.680   7.729 -0.0329  0.6316  0.7356
 1588SOL    HW221907   4.455   0.652   7.727  0.1516 -0.5853  2.2216
 1589SOL     OW21908   6.328   3.192   5.845 -0.0476 -0.4060  0.6578
 1589SOL    HW121909   6.379   3.113   5.863  0.4402 -0.3993 -0.5763
 1589SOL    HW221910   6.391   3.254   5.809 -0.7812 -0.1321 -0.1981
 1590SOL     OW21911   6.000   5.941   7.200  0.2916 -0.0834 -0.5034
 1590SOL    HW121912   6.027   6.032   7.186  1.5278 -0.5639 -1.4631
 1590SOL    HW221913   5.914   5.935   7.158  0.4786  0.4843 -0.9890
 1591SOL     OW21914   3.374   2.348   0.974 -0.2611 -0.7492 -0.1751
 1591SOL    HW121915   3.362   2.270   1.029 -1.0371 -0.0715  0.6393
 1591SOL    HW221916   3.350   2.319   0.886  0.9120 -1.8243 -0.1814
 1592SOL     OW21917   2.485   5.076   6.477  0.1557  0.5531 -0.0463
 1592SOL    HW121918   2.524   5.038   6.556  0.6901 -0.5187 -0.7890
 1592SOL    HW221919   2.391   5.072   6.492  0.2423 -0.0348  0.3635
 1593SOL     OW21920   2.951   6.398   1.714 -0.2258 -0.1052 -0.0633
 1593SOL    HW121921   2.901   6.408   1.633 -0.3979 -1.4547 -0.1409
 1593SOL    HW221922   3.034   6.359   1.686  0.1864  0.5173  0.2772
 1594SOL     OW21923   5.039   0.505   1.659  0.1482 -0.1305  0.3702
 1594SOL    HW121924   5.082   0.425   1.630 -0.2075 -0.7866  1.5766
 1594SOL    HW221925   5.065   0.516   1.750 -2.2828 -0.6403  1.2177
 1595SOL     OW21926   1.792   1.897   7.018  0.5728  0.0034  0.0893
 1595SOL    HW121927   1.750   1.832   7.074 -1.2095  0.3126 -0.8184
 1595SOL    HW221928   1.758   1.981   7.049  0.7332  0.2895 -0.4854
 1596SOL     OW21929   0.372   5.185   5.504 -0.1496  0.8243  0.7484
 1596SOL    HW121930   0.421   5.258   5.542  0.8416 -0.0858  1.2838
 1596SOL    HW221931   0.387   5.192   5.410  0.3928  0.9985  0.8449
 1597SOL     OW21932   3.839   3.334   7.091  0.1875  0.6770 -0.1431
 1597SOL    HW121933   3.777   3.340   7.019 -0.9728 -1.5188  0.5780
 1597SOL    HW221934   3.887   3.252   7.075  0.7642  0.7828  0.9282
 1598SOL     OW21935   6.039   4.679   1.469 -0.8093  0.1691 -0.3941
 1598SOL    HW121936   6.015   4.763   1.508 -1.8299 -0.2855  0.0107
 1598SOL    HW221937   5.980   4.616   1.511 -0.2420 -0.7072 -0.8840
 1599SOL     OW21938   1.034   0.406   1.454 -0.0243 -0.1657 -0.1212
 1599SOL    HW121939   1.041   0.501   1.461  0.2706 -0.2791  1.3181
 1599SOL    HW221940   0.961   0.392   1.393 -1.2817  0.9842  1.0372
 1600SOL     OW21941   1.821   0.607   1.783 -0.2632 -0.0096 -0.1117
 1600SOL    HW121942   1.873   0.574   1.856  0.1337  0.1729 -0.3074
 1600SOL    HW221943   1.737   0.562   1.790 -0.2396  0.0309  0.4780
 1601SOL     OW21944   5.105   4.030   1.729 -0.3731  0.2061 -1.0905
 1601SOL    HW121945   5.044   3.979   1.782  0.1088  0.7226 -0.0160
 1601SOL    HW221946   5.053   4.106   1.700 -0.4685  0.2224 -0.8749
 1602SOL     OW21947   0.168   6.338   2.094  0.9316 -0.0468 -0.5602
 1602SOL    HW121948   0.197   6.383   2.173  2.2352 -0.6485 -0.6683
 1602SOL    HW221949   0.241   6.280   2.072  0.7387  0.3710 -2.4119
 1603SOL     OW21950   4.045   6.062   0.359 -0.0904 -0.0457 -0.3136
 1603SOL    HW121951   4.124   6.014   0.386  0.1108 -0.9088 -2.2967
 1603SOL    HW221952   3.980   6.039   0.425  0.7007 -1.0761  0.1410
 1604SOL     OW21953   0.811   6.119   5.309  0.3257 -0.1012 -0.1724
 1604SOL    HW121954   0.801   6.210   5.338  0.0225  0.7136 -2.5898
 1604SOL    HW221955   0.733   6.075   5.343 -0.4842  1.0070 -0.5232
 1605SOL     OW21956   5.241   4.100   1.345  0.0781 -0.4381  0.1100
 1605SOL    HW121957   5.319   4.119   1.398  1.5343 -0.0789 -2.0129
 1605SOL    HW221958   5.169   4.140   1.394  1.4952  0.8963  1.2439
 1606SOL     OW21959   1.979   2.298   1.785  0.4022  0.1420  0.0642
 1606SOL    HW121960   1.991   2.362   1.855  0.0356 -1.0755  1.2902
 1606SOL    HW221961   2.046   2.231   1.803 -0.9343 -1.1503  0.4292
 1607SOL     OW21962   2.199   5.793   1.052  0.0167 -0.6885  0.2897
 1607SOL    HW121963   2.273   5.850   1.076  0.7549 -0.6784 -1.8421
 1607SOL    HW221964   2.193   5.800   0.957 -0.5405 -3.3652  0.0575
 1608SOL     OW21965   5.597   5.851   7.382  0.8236  0.5474  0.2630
 1608SOL    HW121966   5.584   5.938   7.419  0.0882  0.3367  0.5133
 1608SOL    HW221967   5.568   5.790   7.450  0.9944  0.1158 -0.0422
 1609SOL     OW21968   6.122   3.008   7.667 -0.2003 -0.1055 -0.4117
 1609SOL    HW121969   6.217   3.004   7.661 -0.1065  0.7185  0.3370
 1609SOL    HW221970   6.105   3.059   7.746 -1.2659 -0.4979 -0.3689
 1610SOL     OW21971   6.044   0.123   7.009 -0.0664 -0.1795  0.0394
 1610SOL    HW121972   5.959   0.148   7.046 -0.5760 -0.7921 -0.6910
 1610SOL    HW221973   6.075   0.202   6.966 -0.1373  0.1252  0.5362
 1611SOL     OW21974   0.044   3.941   0.455 -0.2290  0.2657  0.1443
 1611SOL    HW121975  -0.032   3.910   0.504  0.4721 -0.7788  0.6013
 1611SOL    HW221976   0.080   3.863   0.414  1.9080  0.3019  1.7746
 1612SOL     OW21977   3.850   3.875   7.427 -0.0647 -0.1951 -0.0353
 1612SOL    HW121978   3.836   3.798   7.372  1.9934 -1.5877  1.2514
 1612SOL    HW221979   3.909   3.845   7.496  2.2888  2.9072 -0.4597
 1613SOL     OW21980   0.483   1.112   0.861 -0.1030 -0.3434 -0.1546
 1613SOL    HW121981   0.472   1.042   0.925  1.9014 -0.3966  0.2080
 1613SOL    HW221982   0.526   1.070   0.787  1.4971  0.5356  0.2310
 1614SOL     OW21983   0.242   0.429   6.523  0.0358 -0.5752  0.1484
 1614SOL    HW121984   0.206   0.359   6.469  1.3017 -0.8655 -0.3667
 1614SOL    HW221985   0.306   0.385   6.579 -0.2651 -0.0568  0.9116
 1615SOL     OW21986   3.852   5.379   1.100 -0.4151 -0.2965  0.2632
 1615SOL    HW121987   3.798   5.430   1.039 -0.0395 -0.6050 -0.3315
 1615SOL    HW221988   3.800   5.375   1.180 -1.4251 -0.8684 -0.4059
 1616SOL     OW21989   3.604   1.301   6.799 -0.1193 -0.2142  0.3428
 1616SOL    HW121990   3.589   1.253   6.717  0.3508 -0.3900  0.3565
 1616SOL    HW221991   3.522   1.292   6.847  0.1129 -1.3927  0.5380
 1617SOL     OW21992   6.360   1.586   2.144 -0.2733  0.7178  0.4450
 1617SOL    HW121993   6.319   1.553   2.064 -2.4486 -0.2041  1.8446
 1617SOL    HW221994   6.287   1.620   2.196  1.0721  1.2715  2.0615
 1618SOL     OW21995   5.229   6.110   7.685 -0.3664  0.1261  0.0031
 1618SOL    HW121996   5.263   6.111   7.775  0.5248 -2.3513 -0.2450
 1618SOL    HW221997   5.288   6.167   7.637 -0.1804  0.5944  0.7682
 1619SOL     OW21998   5.622   0.753   0.082 -0.0539  0.4259  0.2193
 1619SOL    HW121999   5.694   0.691   0.085  0.1344  0.6464  0.2433
 1619SOL    HW222000   5.652   0.822   0.022 -0.7247 -0.0960 -0.7578
 1620SOL     OW22001   0.818   2.540   0.192 -0.3463  0.0136 -0.7019
 1620SOL    HW122002   0.899   2.585   0.167  0.4235  0.5107  2.3493
 1620SOL    HW222003   0.847   2.457   0.230 -1.2669  0.0424  0.1173
 1621SOL     OW22004   5.983   2.122   1.901 -0.1425  0.2030 -0.3337
 1621SOL    HW122005   5.974   2.093   1.991 -0.1784  0.3341 -0.2955
 1621SOL    HW222006   5.986   2.040   1.850 -0.3771  0.1359 -0.2391
 1622SOL     OW22007   0.616   5.744   7.554  0.3264 -0.0021 -0.1906
 1622SOL    HW122008   0.693   5.786   7.515  0.1727  1.1404  0.6846
 1622SOL    HW222009   0.612   5.780   7.643 -1.4356  0.2434 -0.3494
 1623SOL     OW22010   3.788   0.461   5.543  0.9428 -0.7927  0.2964
 1623SOL    HW122011   3.726   0.436   5.612  1.2779 -1.7794  0.2570
 1623SOL    HW222012   3.815   0.549   5.566 -1.2410  0.0800 -0.2408
 1624SOL     OW22013   1.367   4.390   7.491  0.9238 -0.3238 -0.1922
 1624SOL    HW122014   1.297   4.383   7.556  0.3637  3.3103 -0.1937
 1624SOL    HW222015   1.334   4.342   7.415 -2.8719  3.0417 -1.0588
 1625SOL     OW22016   1.019   1.153   5.574 -0.4944  0.4179  0.0963
 1625SOL    HW122017   0.965   1.178   5.499  0.2772 -1.1651 -1.0379
 1625SOL    HW222018   1.023   1.058   5.571  1.9493  0.4528  0.4195
 1626SOL     OW22019   0.261   4.282   1.908  0.0986 -0.3147 -0.0435
 1626SOL    HW122020   0.232   4.194   1.932 -1.6550 -0.6766 -2.9535
 1626SOL    HW222021   0.201   4.341   1.954  0.0793 -0.7299  0.4615
 1627SOL     OW22022   1.992   3.703   7.644 -0.0311 -0.3466  0.1656
 1627SOL    HW122023   1.942   3.646   7.586 -1.0691 -0.0658  0.7719
 1627SOL    HW222024   2.078   3.709   7.603  0.1485 -2.4251  0.1164
 1628SOL     OW22025   3.999   1.455   1.033  0.0999  0.1968 -0.9960
 1628SOL    HW122026   4.081   1.434   1.079 -0.2273 -0.3573 -0.6548
 1628SOL    HW222027   3.946   1.500   1.098  0.5201  1.4895 -1.5196
 1629SOL     OW22028   5.167   1.173   7.214 -0.5337 -0.4962  0.4199
 1629SOL    HW122029   5.148   1.257   7.256  0.7153 -0.3803  0.8096
 1629SOL    HW222030   5.145   1.187   7.122  1.7203  1.0516  0.0124
 1630SOL     OW22031   4.417   3.311   6.819 -0.4737  0.1060 -0.3845
 1630SOL    HW122032   4.417   3.396   6.864  0.7776 -0.2397  0.3106
 1630SOL    HW222033   4.349   3.261   6.864 -0.3777  0.3283  0.0207
 1631SOL     OW22034   3.802   2.488   2.494  0.4535 -0.3573  0.1003
 1631SOL    HW122035   3.832   2.476   2.403 -0.9519 -0.4344 -0.3716
 1631SOL    HW222036   3.786   2.399   2.525 -1.1585 -0.2355 -0.3228
 1632SOL     OW22037   5.092   3.904   5.488 -0.5591  0.4739  0.3421
 1632SOL    HW122038   5.168   3.846   5.499  0.7388  2.1007  0.2302
 1632SOL    HW222039   5.032   3.853   5.433  0.6817 -0.6289 -0.0635
 1633SOL     OW22040   2.133   1.693   1.025 -0.2299  0.1669 -0.0445
 1633SOL    HW122041   2.212   1.656   1.063  0.7779 -0.0181 -2.1573
 1633SOL    HW222042   2.112   1.769   1.080  2.6633  1.4991 -0.6091
 1634SOL     OW22043   0.524   3.260   2.283 -0.2478 -0.2854  0.1311
 1634SOL    HW122044   0.605   3.294   2.245  0.4974 -0.0410  1.8246
 1634SOL    HW222045   0.456   3.281   2.219  0.6108  2.0105 -0.1187
 1635SOL     OW22046   1.645   6.042   7.539  0.0092  0.3954  0.2473
 1635SOL    HW122047   1.601   5.992   7.608 -0.0967 -0.3152 -0.3248
 1635SOL    HW222048   1.725   5.993   7.521  0.9423  1.5602  1.1176
 1636SOL     OW22049   5.057   2.322   0.666 -0.1854 -0.2189  0.1156
 1636SOL    HW122050   5.056   2.379   0.589 -1.9946  0.2741  0.4479
 1636SOL    HW222051   5.114   2.249   0.641  0.9456  0.9485 -0.8935
 1637SOL     OW22052   6.414   5.143   1.957 -0.8183 -0.3599 -0.9213
 1637SOL    HW122053   6.401   5.090   2.035 -0.5590 -0.4002 -0.9078
 1637SOL    HW222054   6.350   5.109   1.894 -1.2109 -0.1521 -0.6377
 1638SOL     OW22055   3.773   0.401   5.254  0.2965 -0.1330 -0.0191
 1638SOL    HW122056   3.797   0.391   5.346 -0.8144 -1.2557  0.1689
 1638SOL    HW222057   3.689   0.357   5.246  0.4014 -0.0972 -1.5950
 1639SOL     OW22058   4.666   6.331   6.878  0.4790 -0.0778  0.1143
 1639SOL    HW122059   4.635   6.242   6.859  0.6942 -0.3524  1.0091
 1639SOL    HW222060   4.616   6.359   6.955 -1.8663  1.8138 -1.9192
 1640SOL     OW22061   3.301   4.656   6.560 -0.0302 -0.1203 -0.1532
 1640SOL    HW122062   3.294   4.671   6.654  1.5998  0.2878 -0.0677
 1640SOL    HW222063   3.213   4.674   6.526 -0.5010  0.2522  1.2113
 1641SOL     OW22064   0.422   0.575   0.599  0.0051 -0.1854 -0.6071
 1641SOL    HW122065   0.369   0.525   0.537  0.2404 -0.0011 -0.9608
 1641SOL    HW222066   0.503   0.525   0.609  0.2747  0.1586 -1.0234
 1642SOL     OW22067   6.354   4.738   0.214 -0.1183 -0.7339  0.1676
 1642SOL    HW122068   6.288   4.669   0.224 -0.9739  0.1642  0.9237
 1642SOL    HW222069   6.323   4.791   0.140 -0.7094  0.1594  1.0288
 1643SOL     OW22070   4.241   2.594   0.118 -0.3631 -0.4604  0.5292
 1643SOL    HW122071   4.288   2.598   0.202  1.4444 -0.6924 -0.4295
 1643SOL    HW222072   4.152   2.568   0.142 -0.4423  1.3901  2.5657
 1644SOL     OW22073   3.464   1.165   0.005 -0.3821  0.4726 -0.0126
 1644SOL    HW122074   3.452   1.211   0.088 -2.1708 -1.1813  0.7299
 1644SOL    HW222075   3.510   1.228  -0.051  1.4943  1.3926  2.4126
 1645SOL     OW22076   4.178   1.667   0.399  0.0265 -0.1587  0.5615
 1645SOL    HW122077   4.122   1.741   0.376  0.2284  0.0023  0.5873
 1645SOL    HW222078   4.152   1.598   0.338  0.6349  0.2995 -0.2366
 1646SOL     OW22079   2.917   2.381   1.003 -0.1795 -0.1088 -0.1495
 1646SOL    HW122080   2.845   2.343   0.952  0.1807 -0.5179 -0.3631
 1646SOL    HW222081   2.967   2.432   0.939 -0.6666  0.7520  0.1382
 1647SOL     OW22082   2.516   4.759   7.485 -0.1277  0.1185  0.0971
 1647SOL    HW122083   2.465   4.734   7.562  0.4386 -2.1028 -0.1729
 1647SOL    HW222084   2.582   4.819   7.520 -0.6896  0.1848  1.1005
 1648SOL     OW22085   2.299   5.016   7.694 -0.2314  0.1955  0.3737
 1648SOL    HW122086   2.350   4.981   7.767  0.5383 -0.6880 -0.5547
 1648SOL    HW222087   2.283   5.107   7.717  1.9682  0.5742  0.6279
 1649SOL     OW22088   1.289   3.539   0.925 -0.1832  0.0490 -0.4549
 1649SOL    HW122089   1.352   3.534   0.853 -0.3050 -2.3265 -0.4654
 1649SOL    HW222090   1.289   3.451   0.963 -1.5207  0.7363  1.2567
 1650SOL     OW22091   1.060   3.645   0.869  0.6680 -0.7902  0.2594
 1650SOL    HW122092   1.084   3.676   0.782 -0.4312 -0.3096  0.1109
 1650SOL    HW222093   1.139   3.605   0.903  1.7989  1.0345 -0.0659
 1651SOL     OW22094   5.870   5.905   1.008  0.4743  0.5751 -0.0067
 1651SOL    HW122095   5.793   5.877   1.058  1.3890  0.7064  1.5399
 1651SOL    HW222096   5.846   5.888   0.917 -0.9919 -0.3485  0.5018
 1652SOL     OW22097   4.134   1.643   1.359 -0.3691 -0.3034 -0.0685
 1652SOL    HW122098   4.048   1.621   1.322 -0.3124  0.3708 -0.6140
 1652SOL    HW222099   4.194   1.641   1.285  0.4469 -2.4744  0.5658
 1653SOL     OW22100   3.089   1.484   5.737 -0.1880  0.7747 -0.7240
 1653SOL    HW122101   3.096   1.424   5.812  4.3536  1.7030 -0.0906
 1653SOL    HW222102   3.142   1.443   5.669 -1.2048  1.7284 -2.1335
 1654SOL     OW22103   2.370   4.453   7.541  0.4361 -0.3314  0.7904
 1654SOL    HW122104   2.401   4.538   7.574  1.2156 -0.3801  0.2113
 1654SOL    HW222105   2.306   4.476   7.473  0.0006 -0.2169  1.2369
 1655SOL     OW22106   0.601   1.462   7.387 -0.6598 -0.3256 -0.3091
 1655SOL    HW122107   0.630   1.477   7.297 -2.3684 -0.7973 -0.9960
 1655SOL    HW222108   0.520   1.512   7.395 -0.8923 -0.8302  0.7528
 1656SOL     OW22109   0.388   1.074   7.096  0.4465 -0.1946  0.0144
 1656SOL    HW122110   0.377   1.057   7.189 -0.7064  0.4741  0.0233
 1656SOL    HW222111   0.339   1.004   7.053 -0.0249  0.1654 -0.0495
 1657SOL     OW22112   4.138   1.334   0.294  0.4229  0.4859  0.2420
 1657SOL    HW122113   4.179   1.289   0.368 -0.6744 -0.1296  0.5013
 1657SOL    HW222114   4.085   1.266   0.252 -1.7161  1.6123  0.9659
 1658SOL     OW22115   4.667   0.668   0.504 -0.4769  0.1750 -0.3392
 1658SOL    HW122116   4.651   0.603   0.436  1.4238  1.1322 -1.8262
 1658SOL    HW222117   4.617   0.745   0.476  0.4403  0.6255 -0.7903
 1659SOL     OW22118   4.008   3.804   0.440  0.1614  0.0226 -0.0780
 1659SOL    HW122119   4.046   3.748   0.508 -1.3165 -1.2571 -0.2553
 1659SOL    HW222120   3.950   3.864   0.487 -0.3768 -0.4465 -0.1317
 1660SOL     OW22121   4.696   3.563   7.268 -0.1210 -0.3123 -0.3629
 1660SOL    HW122122   4.630   3.512   7.314 -0.2517  0.5546  0.4500
 1660SOL    HW222123   4.779   3.520   7.289  0.0823  1.2030  2.4555
 1661SOL     OW22124   5.398   5.797   7.129  0.0584  0.4007  0.0673
 1661SOL    HW122125   5.413   5.755   7.044  0.2575  0.0604  0.2688
 1661SOL    HW222126   5.463   5.867   7.133 -0.4333  0.8965 -0.3762
 1662SOL     OW22127   0.009   4.256   1.367 -0.4553  0.2950 -0.0782
 1662SOL    HW122128  -0.074   4.294   1.338 -0.9989  0.8919  2.1197
 1662SOL    HW222129   0.071   4.279   1.297 -1.9600  0.3928 -1.4495
 1663SOL     OW22130   3.962   2.217   2.223 -0.4402  0.0908  0.0755
 1663SOL    HW122131   3.956   2.311   2.240  0.1780  0.5078 -1.7513
 1663SOL    HW222132   3.910   2.203   2.144  1.0234 -0.7288 -0.8034
 1664SOL     OW22133   1.626   5.740   6.327  0.4369 -0.3848 -0.4990
 1664SOL    HW122134   1.710   5.723   6.286  0.3019  0.9631 -1.3859
 1664SOL    HW222135   1.646   5.751   6.420  1.0387 -1.3751 -0.5012
 1665SOL     OW22136   5.048   3.935   7.558  0.1288 -0.4373 -0.2417
 1665SOL    HW122137   5.024   4.014   7.509 -3.2986 -0.7507  0.6622
 1665SOL    HW222138   5.017   3.863   7.503  1.2636 -1.0689 -0.0744
 1666SOL     OW22139   2.996   1.296   6.898  0.1642 -0.0274 -0.4429
 1666SOL    HW122140   2.961   1.211   6.871  1.0414 -0.7482  0.5898
 1666SOL    HW222141   3.089   1.290   6.876 -0.0544  1.3308 -1.9043
 1667SOL     OW22142   5.525   1.132   0.173  0.6037 -0.0702  0.5241
 1667SOL    HW122143   5.463   1.205   0.171  1.4969  0.6839 -0.9361
 1667SOL    HW222144   5.508   1.089   0.257 -3.6553 -1.4782 -0.7769
 1668SOL     OW22145   3.954   1.573   7.651 -0.2444 -0.4873 -0.4980
 1668SOL    HW122146   3.986   1.489   7.620 -1.3289 -1.6687  1.3949
 1668SOL    HW222147   3.863   1.576   7.621  0.0419  0.4709 -1.3506
 1669SOL     OW22148   1.312   6.434   1.223  0.0499  0.6807  0.1668
 1669SOL    HW122149   1.311   6.346   1.185 -1.7724  1.2948 -1.3420
 1669SOL    HW222150   1.385   6.478   1.180 -2.1287  1.4563 -3.0950
 1670SOL     OW22151   0.341   5.757   0.015  0.6137 -0.7079 -0.1216
 1670SOL    HW122152   0.258   5.764   0.061  1.1348 -0.4170  0.8017
 1670SOL    HW222153   0.321   5.707  -0.064 -0.7701  0.7819 -0.7671
 1671SOL     OW22154   4.817   0.509   0.778  0.0560 -0.5721  0.0125
 1671SOL    HW122155   4.736   0.536   0.821  0.1365 -0.1054 -0.1227
 1671SOL    HW222156   4.789   0.470   0.696 -0.0621 -0.9033  0.2085
 1672SOL     OW22157   1.883   5.943   7.662  0.3214  0.3591 -0.4584
 1672SOL    HW122158   1.941   5.912   7.731  0.2997  1.5606  0.1251
 1672SOL    HW222159   1.923   5.909   7.581  0.3692 -1.0165  0.1144
 1673SOL     OW22160   3.621   3.219   0.176 -0.3928  0.5359  0.1388
 1673SOL    HW122161   3.593   3.269   0.099  0.5509 -2.1847 -2.1121
 1673SOL    HW222162   3.715   3.206   0.163 -0.0041  0.7756  2.2878
 1674SOL     OW22163   0.460   1.372   5.980 -0.9169  0.1723 -0.1321
 1674SOL    HW122164   0.446   1.317   5.903 -0.7065  0.1359 -0.1449
 1674SOL    HW222165   0.414   1.454   5.959 -2.5082 -0.5149  0.5031
 1675SOL     OW22166   4.597   2.070   0.101  0.6061 -0.0489 -0.0569
 1675SOL    HW122167   4.615   2.099   0.190 -2.3530  2.8327 -0.1998
 1675SOL    HW222168   4.532   2.132   0.068  0.7915 -1.5879 -3.9027
 1676SOL     OW22169   1.991   5.543   7.338 -0.2883 -0.3007 -0.0102
 1676SOL    HW122170   2.071   5.516   7.383 -0.7405 -1.5611  0.0750
 1676SOL    HW222171   2.018   5.555   7.247 -0.0588 -1.0145 -0.0407
 1677SOL     OW22172   6.383   2.041   1.138 -0.0482  0.6442  0.0881
 1677SOL    HW122173   6.369   2.053   1.232  2.1330 -1.9226  0.8483
 1677SOL    HW222174   6.475   2.060   1.124 -0.2142  0.4950 -1.4546
 1678SOL     OW22175   3.867   6.018   0.930  0.0640 -0.1148  0.1019
 1678SOL    HW122176   3.822   5.952   0.982  1.9599 -1.0787  0.5990
 1678SOL    HW222177   3.862   6.098   0.983  0.2324 -0.5855  0.8361
 1679SOL     OW22178   2.556   2.170   0.547  0.1168 -0.9978  0.0693
 1679SOL    HW122179   2.606   2.098   0.508  0.5042 -0.6693 -0.0549
 1679SOL    HW222180   2.590   2.177   0.636  2.3603  1.0241 -0.8127
 1680SOL     OW22181   3.785   4.834   1.542  0.7491  0.1313 -0.1822
 1680SOL    HW122182   3.841   4.761   1.569  0.8722  0.4148  0.3599
 1680SOL    HW222183   3.743   4.863   1.623  1.3941  1.2321 -0.2147
 1681SOL     OW22184   2.356   5.012   2.227 -0.0058  0.4595 -0.6489
 1681SOL    HW122185   2.344   5.100   2.261 -0.5964 -0.0579  0.5447
 1681SOL    HW222186   2.383   4.960   2.303  0.2331 -0.4141 -1.3057
 1682SOL     OW22187   5.839   5.016   6.624  0.3631 -0.4071 -0.6292
 1682SOL    HW122188   5.815   5.043   6.713  1.8945 -1.9119  0.2981
 1682SOL    HW222189   5.933   5.002   6.628  0.3853 -0.9965 -2.3690
 1683SOL     OW22190   5.615   1.958   0.066  0.3437 -0.2740  0.3294
 1683SOL    HW122191   5.567   2.031   0.028  0.5555 -0.9194 -1.2480
 1683SOL    HW222192   5.626   1.982   0.158 -0.4295  1.2177  0.0643
 1684SOL     OW22193   2.760   0.465   0.134  0.3812  0.1007 -0.7299
 1684SOL    HW122194   2.692   0.437   0.195  0.9319  1.2157  0.4468
 1684SOL    HW222195   2.770   0.559   0.150  0.0208  0.6147 -3.1013
 1685SOL     OW22196   2.792   0.769   1.245  0.7847 -0.2720  0.0647
 1685SOL    HW122197   2.771   0.818   1.325 -1.6828 -0.9741 -0.0705
 1685SOL    HW222198   2.873   0.810   1.212 -0.8095  3.3840  0.2127
 1686SOL     OW22199   2.041   4.938   0.894  0.2051 -0.1947 -0.4385
 1686SOL    HW122200   2.107   4.870   0.908 -0.2374 -0.5377  0.0527
 1686SOL    HW222201   2.051   4.996   0.969  1.7689  1.3124 -1.7351
 1687SOL     OW22202   3.993   6.128   6.857 -0.5507 -0.2911 -0.4363
 1687SOL    HW122203   3.945   6.205   6.828  0.7655  0.9330  0.4714
 1687SOL    HW222204   3.926   6.063   6.877 -1.8436  1.3456  0.7768
 1688SOL     OW22205   4.848   5.761   7.074 -0.0463  0.2112  0.1629
 1688SOL    HW122206   4.867   5.851   7.045  0.3304 -0.2431 -1.0892
 1688SOL    HW222207   4.895   5.751   7.156 -1.7220  1.8046  1.3923
 1689SOL     OW22208   4.440   0.999   5.801 -0.1801  0.6586  0.9272
 1689SOL    HW122209   4.364   0.974   5.748  1.1870 -0.0665 -0.8283
 1689SOL    HW222210   4.466   1.085   5.766  1.2601 -0.2159 -0.3111
 1690SOL     OW22211   6.309   3.580   7.042  0.2687  0.4591  0.1214
 1690SOL    HW122212   6.240   3.537   7.093  1.4445 -1.0403  0.5458
 1690SOL    HW222213   6.292   3.554   6.952  0.7490 -0.6371  0.3296
 1691SOL     OW22214   6.061   0.992   7.069  0.4314  0.3181  0.2222
 1691SOL    HW122215   6.083   0.926   7.003  0.9107  0.0446  0.6460
 1691SOL    HW222216   6.042   0.942   7.148 -0.7834  0.6079  0.1375
 1692SOL     OW22217   0.422   0.449   7.068  0.2213 -0.0245 -0.0182
 1692SOL    HW122218   0.483   0.381   7.038 -0.7121 -0.4015 -1.1239
 1692SOL    HW222219   0.336   0.410   7.056 -0.3993  1.6763 -1.6006
 1693SOL     OW22220   5.943   1.515   0.289 -0.6332 -0.7325 -0.0261
 1693SOL    HW122221   5.928   1.433   0.336  1.2758 -1.1449 -0.0769
 1693SOL    HW222222   5.932   1.583   0.355  2.1151 -1.3033  1.1313
 1694SOL     OW22223   2.219   3.166   6.125  0.5843  0.2115 -0.3258
 1694SOL    HW122224   2.203   3.139   6.035 -1.6165  0.8266 -0.1690
 1694SOL    HW222225   2.177   3.251   6.133  0.5050  0.0520  1.3522
 1695SOL     OW22226   3.801   4.955   6.372 -0.6499  0.0700 -0.1638
 1695SOL    HW122227   3.865   4.948   6.302 -0.2211 -0.2036  0.2460
 1695SOL    HW222228   3.740   4.883   6.356 -1.1884  0.6722 -0.8782
 1696SOL     OW22229   3.215   0.155   7.031 -0.6411 -0.0911 -0.4027
 1696SOL    HW122230   3.134   0.169   7.080 -0.5597  0.8654 -0.5151
 1696SOL    HW222231   3.236   0.242   6.995  0.9068 -0.1286  0.3566
 1697SOL     OW22232   4.996   6.130   5.582  0.1621  0.4354  0.5185
 1697SOL    HW122233   4.906   6.117   5.551 -1.2601  0.7897  4.1174
 1697SOL    HW222234   5.020   6.216   5.548 -2.4261  2.1370  2.6144
 1698SOL     OW22235   0.494   4.104   0.918  0.1126 -0.3277  0.1040
 1698SOL    HW122236   0.479   4.195   0.893 -1.8194 -0.6660 -0.1641
 1698SOL    HW222237   0.574   4.078   0.871  0.3643  1.0541 -0.2573
 1699SOL     OW22238   4.978   1.052   0.705  0.1455  0.6498  0.3323
 1699SOL    HW122239   4.932   1.113   0.762 -0.1863  2.1799 -1.4581
 1699SOL    HW222240   5.051   1.020   0.757 -0.5229  1.4519  1.8164
 1700SOL     OW22241   3.803   4.082   0.062  0.1280 -1.1054  0.6024
 1700SOL    HW122242   3.821   3.991   0.087  0.8573 -0.9674  0.6056
 1700SOL    HW222243   3.779   4.077  -0.031  0.2410 -1.3013  0.5819
 1701SOL     OW22244   2.591   5.416   1.480 -0.7906  0.0172 -0.2308
 1701SOL    HW122245   2.625   5.394   1.567  1.1352  0.4163 -0.8379
 1701SOL    HW222246   2.519   5.477   1.497 -0.9013 -0.4599  1.1034
 1702SOL     OW22247   0.524   0.062   6.453 -0.2341  0.1294  0.0361
 1702SOL    HW122248   0.598   0.113   6.486  0.3601  0.2623 -1.4001
 1702SOL    HW222249   0.565  -0.017   6.416 -1.1255 -1.3796  2.1305
 1703SOL     OW22250   1.043   5.824   6.273  0.1101 -0.4777 -0.3729
 1703SOL    HW122251   0.963   5.784   6.238  0.9657 -2.7691  0.1338
 1703SOL    HW222252   1.112   5.799   6.212  0.6893  0.3086 -0.0683
 1704SOL     OW22253   5.103   2.648   7.732  0.1099  0.5004  0.1791
 1704SOL    HW122254   5.034   2.594   7.692  0.0629  2.4323 -2.6525
 1704SOL    HW222255   5.056   2.718   7.776  0.2465 -0.1562  1.4235
 1705SOL     OW22256   6.019   1.950   7.488 -0.2344 -0.0794  0.0378
 1705SOL    HW122257   6.050   1.992   7.568 -0.7746 -0.0467  0.2320
 1705SOL    HW222258   6.098   1.912   7.449 -0.3098 -2.4535  1.9622
 1706SOL     OW22259   2.834   5.901   1.151  0.5414 -0.3828  0.3347
 1706SOL    HW122260   2.759   5.845   1.169  0.1046 -0.4497 -1.5268
 1706SOL    HW222261   2.796   5.987   1.131  0.8258 -0.6742 -1.6602
 1707SOL     OW22262   5.733   3.370   6.029  0.0895 -0.2424 -0.5731
 1707SOL    HW122263   5.643   3.396   6.045 -0.2192 -0.8831 -1.2092
 1707SOL    HW222264   5.729   3.277   6.009  0.8202 -0.1744 -1.1176
 1708SOL     OW22265   1.047   3.523   0.154 -0.0202 -0.0899  0.5392
 1708SOL    HW122266   0.974   3.470   0.122  0.0753  0.8431 -1.3237
 1708SOL    HW222267   1.013   3.612   0.154  0.4848  0.1166  1.6717
 1709SOL     OW22268   1.039   4.192   1.336  0.4160 -0.1985  0.2237
 1709SOL    HW122269   1.024   4.275   1.291 -0.0767 -0.3496  0.0967
 1709SOL    HW222270   1.016   4.125   1.271  1.6414 -0.4556  0.0330
 1710SOL     OW22271   4.811   5.892   0.647  0.3642 -0.0719 -0.0692
 1710SOL    HW122272   4.881   5.952   0.675 -0.8263  0.4342  2.0586
 1710SOL    HW222273   4.739   5.950   0.623 -0.1098 -0.6250  0.0169
 1711SOL     OW22274   4.759   1.486   2.383 -0.5167  0.0530  0.3984
 1711SOL    HW122275   4.800   1.514   2.465 -0.5763 -0.8392  0.7364
 1711SOL    HW222276   4.809   1.532   2.315  0.2663 -0.0738  0.8710
 1712SOL     OW22277   0.873   3.630   7.561  1.2907 -0.2628 -1.4348
 1712SOL    HW122278   0.806   3.603   7.624  1.5026  0.3862 -0.9244
 1712SOL    HW222279   0.836   3.607   7.476  0.7418 -0.5978 -1.1130
 1713SOL     OW22280   4.577   3.898   2.105 -0.4310 -0.6503 -0.6927
 1713SOL    HW122281   4.514   3.959   2.144  0.1210 -0.1949 -0.4977
 1713SOL    HW222282   4.559   3.900   2.011 -0.4740 -0.2505 -0.6764
 1714SOL     OW22283   1.197   2.672   7.768  0.2746  0.0846 -0.1733
 1714SOL    HW122284   1.207   2.767   7.758  0.7151 -0.0580 -1.2435
 1714SOL    HW222285   1.283   2.637   7.742  0.0435 -0.6173  0.0042
 1715SOL     OW22286   0.816   5.925   7.435  0.0585 -0.2638 -0.0498
 1715SOL    HW122287   0.855   5.909   7.349 -0.5590 -0.5201 -0.2871
 1715SOL    HW222288   0.881   5.977   7.481  0.3254  0.0260 -0.7336
 1716SOL     OW22289   5.082   1.485   6.994  0.1263  0.0755 -0.0279
 1716SOL    HW122290   5.168   1.446   6.975 -0.2339 -0.6421 -0.2011
 1716SOL    HW222291   5.021   1.438   6.937  0.3262  4.6814 -4.7399
 1717SOL     OW22292   3.900   0.403   7.407 -0.2415 -0.3912 -0.0508
 1717SOL    HW122293   3.895   0.353   7.325  1.4424  1.6167 -1.4971
 1717SOL    HW222294   3.990   0.390   7.437  0.0497  1.2140 -0.1406
 1718SOL     OW22295   4.172   2.883   1.405 -0.0862  0.0896 -0.3741
 1718SOL    HW122296   4.183   2.827   1.482 -0.9413  0.9759  0.4287
 1718SOL    HW222297   4.223   2.962   1.426 -0.5473  0.4515 -0.5845
 1719SOL     OW22298   3.420   2.957   1.223  0.4463 -0.1344  0.5409
 1719SOL    HW122299   3.490   2.894   1.239 -0.5823 -1.2192  0.9641
 1719SOL    HW222300   3.410   2.958   1.128  0.1796 -0.9653  0.5503
 1720SOL     OW22301   3.972   4.335   1.724  0.3463 -0.1949  0.2069
 1720SOL    HW122302   3.913   4.262   1.704 -0.1841 -0.3761  2.1829
 1720SOL    HW222303   3.921   4.413   1.704 -0.4543 -0.3573  1.4945
 1721SOL     OW22304   4.936   2.676   7.266  0.0099 -0.4660 -0.0499
 1721SOL    HW122305   4.865   2.692   7.329 -0.5632  0.5462 -0.9171
 1721SOL    HW222306   4.896   2.620   7.200 -0.1219  0.4092 -0.7357
 1722SOL     OW22307   0.646   0.599   1.511 -0.3359 -0.0162  0.8084
 1722SOL    HW122308   0.636   0.660   1.438 -1.2079 -1.8362 -0.6877
 1722SOL    HW222309   0.656   0.655   1.588 -0.2485  1.9833 -0.5747
 1723SOL     OW22310   4.798   3.692   2.528 -0.4555 -0.3653  0.8331
 1723SOL    HW122311   4.767   3.604   2.505  0.2166 -0.1607 -1.0211
 1723SOL    HW222312   4.718   3.741   2.549 -1.2682 -0.4348 -1.7540
 1724SOL     OW22313   3.982   3.813   5.945  0.0679 -0.4584  0.5286
 1724SOL    HW122314   4.069   3.851   5.929 -1.2550  2.7409  0.2066
 1724SOL    HW222315   3.945   3.798   5.858  0.1057 -1.4656  0.6683
 1725SOL     OW22316   1.196   4.160   1.562 -0.1658 -0.1280  0.2132
 1725SOL    HW122317   1.144   4.177   1.483 -1.1679  0.4790  0.9661
 1725SOL    HW222318   1.248   4.083   1.541 -0.6793 -0.1880 -0.9160
 1726SOL     OW22319   3.067   5.359   7.201  0.2448  0.3576  0.6980
 1726SOL    HW122320   3.097   5.408   7.124  1.7512 -1.0219  0.3629
 1726SOL    HW222321   3.063   5.425   7.271 -1.8825  1.8071 -0.6557
 1727SOL     OW22322   6.106   5.789   6.652 -0.2800 -0.1706 -0.5889
 1727SOL    HW122323   6.061   5.771   6.734 -0.1146 -0.1840 -0.4996
 1727SOL    HW222324   6.199   5.787   6.675 -0.2469  2.0453 -0.2984
 1728SOL     OW22325   3.981   3.924   6.390 -0.1161  0.1282  0.1615
 1728SOL    HW122326   3.886   3.921   6.381 -0.2246  1.0719  0.9162
 1728SOL    HW222327   3.996   3.950   6.481  0.8747 -1.0025  0.3498
 1729SOL     OW22328   3.766   0.509   0.946  0.3158  0.0982  0.1206
 1729SOL    HW122329   3.690   0.529   0.891 -0.1732  0.5310  0.9318
 1729SOL    HW222330   3.804   0.431   0.906 -1.3617 -0.9529  0.4745
 1730SOL     OW22331   3.682   1.241   7.576 -0.0582 -0.1515 -0.3941
 1730SOL    HW122332   3.686   1.306   7.647 -1.2571 -1.1026  0.5771
 1730SOL    HW222333   3.667   1.294   7.497 -1.2435  0.7619  0.4025
 1731SOL     OW22334   6.007   2.482   1.080  0.4949 -0.5428  0.2002
 1731SOL    HW122335   6.033   2.567   1.043  1.2307 -0.9387 -0.2052
 1731SOL    HW222336   6.023   2.492   1.174 -1.0092  0.3318  0.4037
 1732SOL     OW22337   0.102   4.592   7.761  0.4811 -0.0713 -0.3371
 1732SOL    HW122338   0.176   4.648   7.737  1.2993  0.3791  2.8162
 1732SOL    HW222339   0.144   4.510   7.788  0.2604  0.9549  3.7804
 1733SOL     OW22340   4.615   3.272   6.618  0.2336  0.3219  0.0401
 1733SOL    HW122341   4.545   3.292   6.681  0.4072  2.1983 -0.3148
 1733SOL    HW222342   4.569   3.248   6.538 -0.0225  1.1753 -0.0773
 1734SOL     OW22343   5.255   0.856   6.307 -0.1655 -0.1975 -1.4200
 1734SOL    HW122344   5.165   0.833   6.331  0.1773 -0.3755 -0.2393
 1734SOL    HW222345   5.254   0.951   6.297 -0.2535 -0.0659 -0.2988
 1735SOL     OW22346   3.399   2.458   0.138  0.3011  0.3775  0.1065
 1735SOL    HW122347   3.482   2.450   0.186  0.7768 -0.0761 -0.7614
 1735SOL    HW222348   3.419   2.427   0.050 -0.1689  2.6169 -0.8518
 1736SOL     OW22349   0.290   4.056   5.563 -0.3041  0.0117 -0.5231
 1736SOL    HW122350   0.352   4.126   5.545  1.1383 -0.2555  2.7083
 1736SOL    HW222351   0.227   4.094   5.625 -1.8531 -0.4911 -1.7216
 1737SOL     OW22352   0.199   0.957   5.631 -0.1580  0.1054  0.7621
 1737SOL    HW122353   0.212   0.906   5.551 -2.1945 -1.4422  1.3279
 1737SOL    HW222354   0.282   1.002   5.644  0.8065 -0.9098 -1.2948
 1738SOL     OW22355   2.130   5.195   6.347 -0.1308 -0.2475  0.0172
 1738SOL    HW122356   2.161   5.161   6.431  0.7198  0.5469  0.0317
 1738SOL    HW222357   2.089   5.120   6.304  0.0279 -0.8192  0.8546
 1739SOL     OW22358   5.198   5.033   7.586 -0.3042 -0.2405 -0.1972
 1739SOL    HW122359   5.141   5.004   7.657  0.6069 -0.6115  0.4007
 1739SOL    HW222360   5.143   5.093   7.534 -1.3480 -0.8843  0.1240
 1740SOL     OW22361   3.179   4.284   0.889 -0.0829  0.3798  0.1392
 1740SOL    HW122362   3.115   4.216   0.910  0.2983  0.2554  0.9148
 1740SOL    HW222363   3.243   4.240   0.832  0.4010 -0.0339  0.9894
 1741SOL     OW22364   2.291   0.787   0.483 -0.3258 -0.2742 -0.5372
 1741SOL    HW122365   2.211   0.828   0.516 -0.1035 -0.2983  0.0500
 1741SOL    HW222366   2.264   0.740   0.405 -0.5969  0.9955 -1.2497
 1742SOL     OW22367   0.308   5.214   2.132  0.1048  0.3652 -0.3625
 1742SOL    HW122368   0.362   5.244   2.206  0.3312  0.8388 -0.7180
 1742SOL    HW222369   0.317   5.118   2.134 -0.2421  0.3447  0.4876
 1743SOL     OW22370   2.717   3.039   6.216  0.3696 -0.3204 -0.4392
 1743SOL    HW122371   2.692   3.130   6.206  0.3162 -0.1986  0.6896
 1743SOL    HW222372   2.644   2.999   6.263  0.5744 -0.8547 -0.5634
 1744SOL     OW22373   0.602   3.858   6.045 -0.3937 -0.1465 -0.3550
 1744SOL    HW122374   0.683   3.824   6.008 -0.3515 -1.2852  0.7245
 1744SOL    HW222375   0.533   3.813   5.996 -0.3691  0.0933 -0.6126
 1745SOL     OW22376   2.983   4.288   2.780 -0.4555 -0.0713 -0.2702
 1745SOL    HW122377   2.915   4.320   2.721  1.2021  0.7187 -1.8485
 1745SOL    HW222378   2.939   4.278   2.864 -2.4050  0.8449 -1.1229
 1746SOL     OW22379   1.135   4.774   6.487 -0.2021 -0.6303 -0.5256
 1746SOL    HW122380   1.098   4.694   6.450  0.0553 -0.3781 -1.3340
 1746SOL    HW222381   1.205   4.799   6.427  0.8898 -0.7558  0.6547
 1747SOL     OW22382   1.359   0.257   1.951  0.1680 -0.3643 -0.5093
 1747SOL    HW122383   1.376   0.215   2.035 -3.2126  1.0180  1.0429
 1747SOL    HW222384   1.386   0.348   1.964 -1.5099  0.1495 -0.4384
 1748SOL     OW22385   1.289   5.699   6.147 -0.9851  0.0712 -0.8152
 1748SOL    HW122386   1.367   5.724   6.096 -0.7369 -0.6572 -0.8085
 1748SOL    HW222387   1.322   5.636   6.211 -1.2694  1.0872  0.3669
 1749SOL     OW22388   0.735   4.294   0.628  0.0244 -0.3490 -0.4410
 1749SOL    HW122389   0.648   4.335   0.634  0.6992  1.3554 -1.4463
 1749SOL    HW222390   0.755   4.294   0.535  0.1290 -2.9719 -0.4797
 1750SOL     OW22391   4.977   1.799   0.131  0.3525 -0.1733  0.2849
 1750SOL    HW122392   5.033   1.744   0.076  0.2804 -1.1555  1.1715
 1750SOL    HW222393   4.901   1.818   0.077  0.5741 -0.5945 -0.1791
 1751SOL     OW22394   2.047   4.073   0.086  0.5097 -0.1588  0.0481
 1751SOL    HW122395   2.075   3.982   0.077  1.1684  0.0683 -0.2910
 1751SOL    HW222396   2.118   4.115   0.135  0.8441  0.4584 -0.9324
 1752SOL     OW22397   0.473   1.651   6.960  0.5248  0.3218 -0.4268
 1752SOL    HW122398   0.546   1.630   6.902  0.5974 -1.0724  0.1384
 1752SOL    HW222399   0.506   1.630   7.048 -1.5017 -3.3889 -0.3529
 1753SOL     OW22400   1.295   4.743   7.684 -0.3063 -0.5878 -0.1926
 1753SOL    HW122401   1.301   4.684   7.609  0.1396 -2.0610  0.9563
 1753SOL    HW222402   1.350   4.818   7.660 -1.7616 -0.0660 -2.1320
 1754SOL     OW22403   4.446   2.158   6.123 -0.5672 -0.6534 -0.0885
 1754SOL    HW122404   4.409   2.245   6.132 -0.1730 -0.3990 -0.8669
 1754SOL    HW222405   4.539   2.169   6.144 -0.0215 -0.4106 -2.3449
 1755SOL     OW22406   4.984   2.940   0.420  0.1576 -0.4825  0.0741
 1755SOL    HW122407   5.048   2.876   0.390  1.0571  0.7195 -0.6514
 1755SOL    HW222408   5.013   2.964   0.508  0.6871  0.0049 -0.2246
 1756SOL     OW22409   0.342   1.361   0.340  0.4236 -0.2743  0.4604
 1756SOL    HW122410   0.375   1.272   0.332 -0.3927 -0.5218 -0.3119
 1756SOL    HW222411   0.351   1.398   0.252  1.1206  0.5361  0.8642
 1757SOL     OW22412   5.691   5.865   6.628  0.3724  0.2187 -0.1896
 1757SOL    HW122413   5.662   5.902   6.544 -1.0328 -0.4051 -0.0216
 1757SOL    HW222414   5.770   5.914   6.651  0.7717  0.4081 -1.8659
 1758SOL     OW22415   6.076   2.599   7.654 -0.1095  0.3440 -0.1352
 1758SOL    HW122416   6.020   2.522   7.641  1.0943 -0.2853 -2.1363
 1758SOL    HW222417   6.064   2.622   7.746 -2.0987 -0.9597  0.0001
 1759SOL     OW22418   3.006   3.975   6.339  0.1228 -0.0226  0.7763
 1759SOL    HW122419   3.029   3.982   6.247 -0.1710  2.1337  0.8107
 1759SOL    HW222420   2.930   3.917   6.341  0.9977 -1.2507 -0.1424
 1760SOL     OW22421   2.791   5.527   0.565 -0.2372 -0.0761 -0.0767
 1760SOL    HW122422   2.774   5.618   0.589 -0.5675 -0.6169  1.8583
 1760SOL    HW222423   2.810   5.483   0.648 -0.6120 -1.8898 -0.9105
 1761SOL     OW22424   2.455   1.658   2.028 -0.5935 -0.5026  0.0215
 1761SOL    HW122425   2.387   1.594   2.008 -0.4252 -1.2190  1.5798
 1761SOL    HW222426   2.478   1.641   2.119 -0.2691  1.5536  0.3686
 1762SOL     OW22427   0.679   6.367   6.852 -0.4578 -0.4479  0.1838
 1762SOL    HW122428   0.664   6.462   6.850  0.9058 -0.2169 -1.1592
 1762SOL    HW222429   0.704   6.348   6.943  0.4323  0.6979  0.1991
 1763SOL     OW22430   5.804   2.353   0.964  0.1012 -0.1651  0.1985
 1763SOL    HW122431   5.835   2.268   0.996  1.4744  0.8088  1.5903
 1763SOL    HW222432   5.857   2.417   1.010 -1.3531  1.5035 -0.3204
 1764SOL     OW22433   5.826   0.209   7.622 -0.8566  0.1703  0.2982
 1764SOL    HW122434   5.880   0.281   7.655  2.2898 -0.9925 -1.7717
 1764SOL    HW222435   5.856   0.132   7.670 -1.0047 -0.4390 -0.5536
 1765SOL     OW22436   4.418   3.341   0.446 -0.1063 -0.3960 -0.0898
 1765SOL    HW122437   4.416   3.435   0.464  2.2448  0.1209 -1.8810
 1765SOL    HW222438   4.407   3.300   0.531  0.1496  1.5477  0.9556
 1766SOL     OW22439   0.330   6.356   7.388 -0.0900  0.4696  0.0839
 1766SOL    HW122440   0.304   6.265   7.407  0.9803  0.1521  0.0676
 1766SOL    HW222441   0.307   6.404   7.468 -0.0885  0.0630  0.3314
 1767SOL     OW22442   3.904   1.955   0.616  0.4553  0.2783 -0.4619
 1767SOL    HW122443   3.845   1.883   0.639  0.9492  0.0912  0.2610
 1767SOL    HW222444   3.928   1.993   0.700 -0.1152  1.5568 -0.8603
 1768SOL     OW22445   3.941   6.302   5.707  0.1984  0.4275  0.6745
 1768SOL    HW122446   3.877   6.327   5.774 -1.5636  0.6462 -0.9964
 1768SOL    HW222447   4.005   6.249   5.753 -2.6034 -2.1004  2.0248
 1769SOL     OW22448   2.802   5.364   1.212  0.1458  0.5302  0.3368
 1769SOL    HW122449   2.892   5.394   1.202  1.0619 -2.0501 -0.0641
 1769SOL    HW222450   2.810   5.276   1.250 -2.0068 -0.7785 -1.8570
 1770SOL     OW22451   2.030   2.549   0.329 -0.0272 -0.2451  0.1817
 1770SOL    HW122452   1.950   2.586   0.367  0.2063 -0.1153  0.5507
 1770SOL    HW222453   2.093   2.621   0.331  0.2250 -0.4685  0.2797
 1771SOL     OW22454   4.377   1.451   0.557 -0.1766 -0.0708  0.1639
 1771SOL    HW122455   4.344   1.533   0.593  0.5956 -0.3148  1.4954
 1771SOL    HW222456   4.298   1.399   0.542 -0.5630  0.1274  1.3550
 1772SOL     OW22457   6.220   3.327   7.610 -0.0787 -0.3237 -0.0965
 1772SOL    HW122458   6.299   3.381   7.607  0.3426 -0.8922  0.5184
 1772SOL    HW222459   6.252   3.237   7.612 -0.6179 -0.5447  2.6378
 1773SOL     OW22460   0.551   4.575   5.224  0.0704  0.0658  0.4168
 1773SOL    HW122461   0.497   4.650   5.250  1.4709  0.3034  2.9494
 1773SOL    HW222462   0.493   4.521   5.170 -1.5441  2.0377  0.0559
 1774SOL     OW22463   6.374   2.238   0.013 -0.3321 -0.1012  0.6061
 1774SOL    HW122464   6.463   2.264   0.040 -0.6982  1.2736  0.5589
 1774SOL    HW222465   6.387   2.194  -0.071  0.3050  0.0457  0.6180
 1775SOL     OW22466   5.095   1.964   6.475 -0.3400 -0.2310  0.3487
 1775SOL    HW122467   5.163   2.030   6.461  0.2094 -1.1538 -1.7798
 1775SOL    HW222468   5.126   1.913   6.550  1.9304 -1.2227 -1.1222
 1776SOL     OW22469   5.607   0.476   7.638 -0.1895 -0.0057 -0.0491
 1776SOL    HW122470   5.562   0.397   7.667 -0.2962  0.7710  2.1011
 1776SOL    HW222471   5.700   0.453   7.641 -0.2883 -0.6129 -1.3025
 1777SOL     OW22472   6.395   6.004   1.871 -0.2375 -0.2774  0.4854
 1777SOL    HW122473   6.425   6.089   1.903  0.4425 -1.0527  2.0135
 1777SOL    HW222474   6.305   5.996   1.904 -0.6215  0.2101 -0.4172
 1778SOL     OW22475   5.151   5.024   6.794  0.5929  0.4581  0.1695
 1778SOL    HW122476   5.093   4.992   6.725  1.0496  2.3159 -1.1350
 1778SOL    HW222477   5.237   5.032   6.752  0.7398  2.2419  0.7249
 1779SOL     OW22478   1.177   2.727   0.262 -0.7554 -0.0193 -0.1703
 1779SOL    HW122479   1.248   2.685   0.310 -0.0060  1.4066  0.0207
 1779SOL    HW222480   1.201   2.718   0.170  0.5720  1.8631 -0.0720
 1780SOL     OW22481   5.620   1.734   0.749 -0.0999 -0.4967 -0.3398
 1780SOL    HW122482   5.543   1.736   0.806  0.9259 -0.8326  1.1244
 1780SOL    HW222483   5.602   1.799   0.681 -1.0428  0.5042  0.8274
 1781SOL     OW22484   2.744   5.756   1.564 -0.1255 -0.0092  0.4056
 1781SOL    HW122485   2.680   5.768   1.634  0.8362 -0.1695  1.3386
 1781SOL    HW222486   2.809   5.695   1.601  0.9597  0.7244 -0.2362
 1782SOL     OW22487   5.491   5.153   0.397 -0.0012  0.0618 -0.0149
 1782SOL    HW122488   5.445   5.104   0.465 -1.6235  0.9459 -0.4156
 1782SOL    HW222489   5.583   5.150   0.423 -0.5605  0.3480  2.2165
 1783SOL     OW22490   4.271   3.233   7.417  0.0225  0.3231  0.0509
 1783SOL    HW122491   4.294   3.163   7.478 -0.0774 -2.0087 -2.3938
 1783SOL    HW222492   4.176   3.242   7.426  0.1382  0.7559  0.9499
 1784SOL     OW22493   3.894   2.590   1.332 -0.0328  0.1112  0.2977
 1784SOL    HW122494   3.890   2.588   1.427 -0.7814 -0.7162  0.2574
 1784SOL    HW222495   3.898   2.499   1.305 -0.3890  0.3078 -0.4782
 1785SOL     OW22496   0.393   6.281   6.951  0.4046 -0.3006 -0.1734
 1785SOL    HW122497   0.428   6.313   6.868  1.3395 -1.9010 -0.4264
 1785SOL    HW222498   0.450   6.321   7.017 -0.4169  1.0761 -0.2491
 1786SOL     OW22499   1.631   4.812   0.940 -0.4794  0.6335 -0.3988
 1786SOL    HW122500   1.566   4.746   0.962  0.0528 -0.5825 -2.2307
 1786SOL    HW222501   1.622   4.879   1.008 -3.2749  0.2653 -0.2909
 1787SOL     OW22502   4.681   6.342   1.914 -0.3682 -0.1104  0.9459
 1787SOL    HW122503   4.604   6.355   1.971 -0.8480 -0.0612  0.2991
 1787SOL    HW222504   4.649   6.286   1.843  0.5975 -1.3605  1.4696
 1788SOL     OW22505   1.704   5.464   0.000  0.0698 -0.6408 -0.3680
 1788SOL    HW122506   1.727   5.451  -0.092  0.6907  0.8697 -0.4454
 1788SOL    HW222507   1.694   5.558   0.010 -0.5276 -0.8205  0.9994
 1789SOL     OW22508   1.737   1.199   0.412 -0.3440 -0.1831  0.0216
 1789SOL    HW122509   1.767   1.109   0.402 -1.1005 -0.6815  1.8683
 1789SOL    HW222510   1.654   1.203   0.364  0.1817 -0.1815 -0.8973
 1790SOL     OW22511   4.526   5.365   7.517  0.1846  0.0238  0.4242
 1790SOL    HW122512   4.451   5.376   7.575  0.2566 -1.5651  0.8663
 1790SOL    HW222513   4.595   5.331   7.574  1.2439  1.3712  0.0028
 1791SOL     OW22514   2.096   1.223   7.725  0.3370 -0.0629 -0.0683
 1791SOL    HW122515   2.144   1.215   7.643 -0.9395 -0.8765 -0.7775
 1791SOL    HW222516   2.011   1.261   7.699  0.4704  1.1136  1.1028
 1792SOL     OW22517   0.893   6.013   0.415 -0.0915  0.4542  0.0555
 1792SOL    HW122518   0.808   6.040   0.449 -0.3467  0.2256 -0.3931
 1792SOL    HW222519   0.920   6.086   0.359 -0.4911  0.0695 -0.6543
 1793SOL     OW22520   0.667   2.036   1.352  0.2769 -0.4593 -0.1681
 1793SOL    HW122521   0.707   2.005   1.434 -1.1845  1.9898  1.6288
 1793SOL    HW222522   0.738   2.034   1.288  1.9729 -0.7411  1.6334
 1794SOL     OW22523   3.436   2.073   6.237 -0.1275  0.4127  0.0301
 1794SOL    HW122524   3.415   2.065   6.143 -0.4386 -0.4928  0.1683
 1794SOL    HW222525   3.481   2.158   6.244 -2.7556  1.9861 -0.4778
 1795SOL     OW22526   2.919   5.747   2.275 -0.3252 -0.3345  0.6150
 1795SOL    HW122527   2.837   5.790   2.250  0.3280  0.7755  0.3219
 1795SOL    HW222528   2.949   5.796   2.351  0.2892 -0.4619  0.4547
 1796SOL     OW22529   2.726   2.078   6.902 -0.4551 -0.4669  0.4861
 1796SOL    HW122530   2.668   2.151   6.884  0.4935 -0.0967 -1.3536
 1796SOL    HW222531   2.761   2.054   6.816  2.4416 -0.3753  1.5349
 1797SOL     OW22532   0.841   3.329   7.489 -0.1517  0.0066  0.7132
 1797SOL    HW122533   0.788   3.390   7.540 -1.0950 -0.0521 -0.1862
 1797SOL    HW222534   0.813   3.342   7.399  2.3241  0.9739 -0.0019
 1798SOL     OW22535   3.075   4.648   0.111  0.0962  0.0675 -0.2007
 1798SOL    HW122536   3.036   4.729   0.078 -0.5361 -0.6610 -1.2890
 1798SOL    HW222537   3.165   4.673   0.133  0.3958  0.7327 -1.9857
 1799SOL     OW22538   4.392   0.696   2.348 -0.3062 -0.9838  0.6447
 1799SOL    HW122539   4.455   0.660   2.286 -0.8817  1.2117 -1.3100
 1799SOL    HW222540   4.436   0.770   2.388 -1.3966  0.2724 -0.3783
 1800SOL     OW22541   5.768   2.727   0.096  0.2431 -0.2481  0.2995
 1800SOL    HW122542   5.798   2.780   0.023 -0.4021 -0.2230  0.0470
 1800SOL    HW222543   5.844   2.674   0.120  0.4034 -0.3913 -0.5058
 1801SOL     OW22544   6.259   0.602   7.544  0.1434  0.0201 -0.0888
 1801SOL    HW122545   6.175   0.617   7.502 -1.0523 -3.1309  0.8777
 1801SOL    HW222546   6.282   0.686   7.584 -2.0375  1.1991 -1.1556
 1802SOL     OW22547   2.696   2.055   1.134  0.4895 -0.4328 -0.0604
 1802SOL    HW122548   2.723   1.964   1.142 -0.2850 -0.6621  0.0478
 1802SOL    HW222549   2.696   2.089   1.224 -1.7080 -1.0821  0.2402
 1803SOL     OW22550   0.050   6.015   7.070  0.9980 -0.3852  0.0342
 1803SOL    HW122551   0.046   6.083   7.137 -0.4262  0.6342 -1.0297
 1803SOL    HW222552   0.092   6.058   6.995  0.4769 -0.8044 -0.5030
 1804SOL     OW22553   0.758   5.056   6.235 -0.7209  0.2024 -0.1859
 1804SOL    HW122554   0.721   5.087   6.318 -1.5986  1.7018 -1.1091
 1804SOL    HW222555   0.697   4.989   6.206  0.1646 -1.1269  0.8672
 1805SOL     OW22556   2.352   3.455   7.684 -0.0728  0.2983  0.1538
 1805SOL    HW122557   2.439   3.494   7.691  0.3928 -0.7135  0.2344
 1805SOL    HW222558   2.347   3.424   7.594 -0.8423  1.4347 -0.2151
 1806SOL     OW22559   2.248   0.326   7.759 -0.0237 -0.0907 -0.3829
 1806SOL    HW122560   2.194   0.359   7.687 -0.6772 -1.3282 -0.4750
 1806SOL    HW222561   2.185   0.296   7.825  0.4767  2.9004  1.7157
 1807SOL     OW22562   4.619   4.693   0.002 -0.1353 -0.1489 -1.0949
 1807SOL    HW122563   4.648   4.783   0.014 -1.5121  0.5398 -2.5367
 1807SOL    HW222564   4.654   4.667  -0.083  0.1132 -0.9365 -0.7662
 1808SOL     OW22565   0.747   3.223   7.244  0.2578 -0.0176 -0.2615
 1808SOL    HW122566   0.725   3.137   7.280  1.6759  0.0555  0.8530
 1808SOL    HW222567   0.823   3.208   7.188  0.8794  0.5872  0.4032
 1809SOL     OW22568   1.146   1.419   1.172 -0.8388 -0.2324 -0.5176
 1809SOL    HW122569   1.121   1.502   1.213 -2.0263 -0.5920 -0.4581
 1809SOL    HW222570   1.147   1.356   1.244 -0.3040 -0.3457 -0.6211
 1810SOL     OW22571   1.610   3.351   5.823  0.0754  0.0378 -0.4971
 1810SOL    HW122572   1.704   3.359   5.839 -0.2613 -0.1412  1.9237
 1810SOL    HW222573   1.602   3.349   5.728  2.5216 -0.0354 -0.7600
 1811SOL     OW22574   5.773   1.485   0.705  0.4020 -0.1701 -0.5456
 1811SOL    HW122575   5.699   1.444   0.659  0.3463  1.0024 -1.5308
 1811SOL    HW222576   5.743   1.574   0.723  1.5255  0.2733 -0.8300
 1812SOL     OW22577   5.307   3.986   7.304  0.3036 -0.3418 -0.2237
 1812SOL    HW122578   5.287   3.896   7.328  1.3175 -0.9415 -1.5488
 1812SOL    HW222579   5.329   4.028   7.387  0.5650 -1.5066  0.3134
 1813SOL     OW22580   0.413   5.294   6.864 -0.2342  0.4619  0.0603
 1813SOL    HW122581   0.474   5.322   6.931 -1.1505 -0.7744  1.4830
 1813SOL    HW222582   0.327   5.298   6.906 -1.1198  1.7425 -1.7439
 1814SOL     OW22583   0.093   4.820   7.017  0.2054  0.7955  0.3274
 1814SOL    HW122584   0.089   4.885   7.087  0.7454  0.9626  0.2131
 1814SOL    HW222585   0.027   4.848   6.954  0.2224  1.0598  0.4246
 1815SOL     OW22586   5.778   3.346   6.375  0.0342  0.1030  0.3617
 1815SOL    HW122587   5.749   3.376   6.289  1.7088 -0.4272 -0.4446
 1815SOL    HW222588   5.850   3.285   6.356  1.5129  1.1738  2.1674
 1816SOL     OW22589   0.995   3.472   1.989  0.1357 -0.1634  0.2651
 1816SOL    HW122590   1.086   3.482   1.960  0.6343 -1.7571  1.1383
 1816SOL    HW222591   0.958   3.405   1.931 -0.3620  0.1885  0.1704
 1817SOL     OW22592   4.011   2.588   1.598 -0.0280  0.3634  0.0414
 1817SOL    HW122593   4.044   2.673   1.628  1.0509  0.2749 -0.8322
 1817SOL    HW222594   4.081   2.554   1.542 -1.0432 -0.4592 -0.7610
 1818SOL     OW22595   4.259   1.588   6.307  0.4599  0.3329 -0.2021
 1818SOL    HW122596   4.261   1.574   6.212 -0.3151 -0.4751 -0.1061
 1818SOL    HW222597   4.334   1.537   6.340 -0.3380 -0.8671 -0.2063
 1819SOL     OW22598   2.195   2.090   0.122 -0.0679  0.0037 -0.0027
 1819SOL    HW122599   2.149   2.086   0.038 -1.9974 -0.0285  0.9993
 1819SOL    HW222600   2.172   2.175   0.158 -1.6025 -1.0174  1.6734
 1820SOL     OW22601   2.308   0.153   6.626 -0.2432 -0.2408  0.2082
 1820SOL    HW122602   2.322   0.201   6.544  0.6762  2.5926  1.9056
 1820SOL    HW222603   2.378   0.183   6.684 -0.3524 -2.8053  1.8310
 1821SOL     OW22604   4.044   2.931   2.083  0.5948 -0.1010 -0.3718
 1821SOL    HW122605   4.135   2.902   2.076  1.0679  0.4053  2.4421
 1821SOL    HW222606   4.005   2.874   2.149  0.3643  2.7722  2.1760
 1822SOL     OW22607   4.266   5.772   7.087 -0.4451  0.1418 -0.5106
 1822SOL    HW122608   4.196   5.712   7.111 -0.5101  0.0718 -0.8677
 1822SOL    HW222609   4.227   5.859   7.094 -0.3391  0.1484  0.0457
 1823SOL     OW22610   0.059   4.263   7.071 -0.0164 -0.1122  0.2654
 1823SOL    HW122611  -0.009   4.315   7.029 -0.0854  0.6196  1.2324
 1823SOL    HW222612   0.117   4.237   6.999 -0.7470  0.1217 -0.4260
 1824SOL     OW22613   1.879   2.621   7.598 -0.6875 -0.3030 -0.0530
 1824SOL    HW122614   1.854   2.530   7.588 -2.1243  0.0745 -0.1530
 1824SOL    HW222615   1.844   2.647   7.683  0.1030  0.0456  0.1773
 1825SOL     OW22616   5.328   5.566   1.599  0.6462 -0.4664  0.1454
 1825SOL    HW122617   5.418   5.590   1.621  1.3182 -0.8455 -1.9910
 1825SOL    HW222618   5.337   5.483   1.551 -0.6856  0.2263 -1.3673
 1826SOL     OW22619   4.579   3.326   7.725  0.0489 -0.0647  0.6571
 1826SOL    HW122620   4.649   3.315   7.789  1.3338  0.3948 -0.6133
 1826SOL    HW222621   4.617   3.294   7.643 -0.6298  1.7118 -0.4053
 1827SOL     OW22622   2.092   6.326   5.401 -0.2335  0.1927 -0.2031
 1827SOL    HW122623   2.098   6.391   5.471 -2.0955  0.6194 -0.3945
 1827SOL    HW222624   2.132   6.247   5.438  1.7584  1.2949  0.1561
 1828SOL     OW22625   5.521   2.667   0.267 -0.3102 -0.6888  0.0808
 1828SOL    HW122626   5.597   2.673   0.209 -0.4469 -0.4491 -0.0734
 1828SOL    HW222627   5.446   2.659   0.209 -0.3679 -1.3844  0.2411
 1829SOL     OW22628   5.232   2.316   7.328 -0.4157  0.1546  0.0111
 1829SOL    HW122629   5.165   2.382   7.346 -0.0153  0.6075 -0.1351
 1829SOL    HW222630   5.293   2.323   7.401  0.5847  1.1887 -0.8826
 1830SOL     OW22631   4.846   1.271   7.199 -0.0332  0.2762 -0.0704
 1830SOL    HW122632   4.825   1.345   7.256 -0.1334 -0.6322  1.0943
 1830SOL    HW222633   4.783   1.203   7.223  0.8486 -0.6248 -0.2461
 1831SOL     OW22634   5.538   2.245   0.732 -0.1503 -0.0523 -0.0740
 1831SOL    HW122635   5.480   2.319   0.748  1.0232  1.3361 -1.8375
 1831SOL    HW222636   5.537   2.196   0.814 -1.4082  1.5904  0.9620
 1832SOL     OW22637   2.928   2.896   6.961  0.1054  0.5426 -0.3389
 1832SOL    HW122638   2.902   2.952   6.888  0.1486  1.5674  0.4080
 1832SOL    HW222639   3.007   2.851   6.930 -0.6016 -0.0220 -1.3777
 1833SOL     OW22640   3.788   5.346   1.649  0.6551 -0.0501 -0.8641
 1833SOL    HW122641   3.766   5.421   1.704 -1.8515 -0.7811 -0.7658
 1833SOL    HW222642   3.753   5.271   1.696  0.2045 -0.9054 -2.4902
 1834SOL     OW22643   3.331   0.697   0.350 -0.2457 -0.0520 -0.0374
 1834SOL    HW122644   3.368   0.620   0.307 -0.3627 -0.2474  0.2055
 1834SOL    HW222645   3.390   0.714   0.424  0.1769  0.5222 -0.5045
 1835SOL     OW22646   4.134   5.107   0.231 -0.0023  0.5310  0.7949
 1835SOL    HW122647   4.196   5.079   0.299  1.1766  1.4584  0.1397
 1835SOL    HW222648   4.059   5.141   0.280 -0.6320 -1.8436  1.6041
 1836SOL     OW22649   0.924   2.027   0.760 -0.1549  0.4107  0.0847
 1836SOL    HW122650   0.976   2.002   0.837 -2.1599 -1.6571  0.8717
 1836SOL    HW222651   0.927   2.122   0.759  0.2466  0.4897  2.5156
 1837SOL     OW22652   4.377   6.457   1.398  0.1880 -0.1470  0.2237
 1837SOL    HW122653   4.377   6.415   1.484 -1.6634  1.0533  0.8703
 1837SOL    HW222654   4.384   6.550   1.417 -1.7440  0.2592 -0.7966
 1838SOL     OW22655   1.801   5.787   7.409  0.4330  0.2601 -0.5744
 1838SOL    HW122656   1.833   5.773   7.320  0.3562 -1.8491 -0.3350
 1838SOL    HW222657   1.825   5.706   7.455  0.3894  1.2785  1.2976
 1839SOL     OW22658   3.355   1.311   7.521 -0.4449 -0.1713 -0.3300
 1839SOL    HW122659   3.291   1.240   7.528 -1.6668  0.8771 -0.6274
 1839SOL    HW222660   3.346   1.360   7.602  1.6295 -1.2894  0.6768
 1840SOL     OW22661   3.547   3.838   6.169  0.2284 -0.1677  0.3022
 1840SOL    HW122662   3.516   3.773   6.107  0.2081 -0.9143  1.0787
 1840SOL    HW222663   3.533   3.798   6.255  0.2657  0.8364  0.7930
 1841SOL     OW22664   3.576   6.191   7.120  0.2850 -0.3014  0.1511
 1841SOL    HW122665   3.513   6.260   7.138  0.1078  0.4016 -2.6555
 1841SOL    HW222666   3.658   6.237   7.099  1.0252 -1.0970  1.1633
 1842SOL     OW22667   3.363   6.356   0.347  0.5265 -0.1383  0.1815
 1842SOL    HW122668   3.322   6.357   0.434 -0.1388 -0.7806 -0.1113
 1842SOL    HW222669   3.415   6.275   0.346  0.0676 -0.4361 -0.2137
 1843SOL     OW22670   3.899   1.042   6.528 -0.4163 -0.1066 -0.8104
 1843SOL    HW122671   3.887   1.134   6.508  0.6485  0.0108 -0.9262
 1843SOL    HW222672   3.852   1.029   6.611  0.6995  0.8922  0.0036
 1844SOL     OW22673   3.780   1.295   7.295 -0.0658 -0.3089  0.1304
 1844SOL    HW122674   3.751   1.371   7.246  1.1611  0.0119 -0.1373
 1844SOL    HW222675   3.720   1.225   7.269 -2.2865  0.8987  1.6439
 1845SOL     OW22676   0.165   2.641   1.515  0.0632 -0.6607  0.3258
 1845SOL    HW122677   0.256   2.616   1.531  0.8273  2.4892  1.6353
 1845SOL    HW222678   0.154   2.724   1.562 -3.0549 -0.1474 -1.0565
 1846SOL     OW22679   0.302   5.092   6.595  0.6694 -0.0094 -0.8196
 1846SOL    HW122680   0.233   5.095   6.661  1.0743  1.3245 -0.4482
 1846SOL    HW222681   0.266   5.035   6.526 -0.2399 -0.4317 -0.0158
 1847SOL     OW22682   2.866   4.809   6.256  0.8296  0.0430 -0.5790
 1847SOL    HW122683   2.879   4.900   6.283 -2.8682  0.3777  0.6512
 1847SOL    HW222684   2.840   4.815   6.164 -0.3326  0.3928 -0.2491
 1848SOL     OW22685   5.956   0.819   0.238  0.1684 -0.1782  0.0660
 1848SOL    HW122686   5.879   0.762   0.231 -0.2038  0.2715  0.4460
 1848SOL    HW222687   5.950   0.857   0.326  1.2584 -0.7512  0.4015
 1849SOL     OW22688   2.447   3.171   0.058 -0.1478  0.5639 -0.1817
 1849SOL    HW122689   2.370   3.126   0.022 -1.0156  2.1690 -0.4252
 1849SOL    HW222690   2.481   3.223  -0.014  1.0956 -0.0063 -0.0289
 1850SOL     OW22691   1.307   2.589   2.079  0.6259 -0.4543  0.5862
 1850SOL    HW122692   1.217   2.606   2.108  0.8640 -1.2982  1.8847
 1850SOL    HW222693   1.302   2.595   1.983 -0.5322  0.7718  0.6912
 1851SOL     OW22694   3.904   2.484   6.937 -0.2380 -0.4007  0.2994
 1851SOL    HW122695   3.941   2.463   7.023 -1.4824  0.0282  0.9787
 1851SOL    HW222696   3.810   2.469   6.948 -0.2691 -2.0771 -1.5239
 1852SOL     OW22697   0.389   1.186   6.704 -0.3459 -0.4197 -0.1871
 1852SOL    HW122698   0.397   1.100   6.663  4.4517  1.0857 -3.2672
 1852SOL    HW222699   0.446   1.181   6.781 -2.2130 -0.6555  1.2385
 1853SOL     OW22700   3.767   2.922   0.557  0.2184  0.3896 -0.4899
 1853SOL    HW122701   3.846   2.963   0.592  0.2063 -0.2300  0.2709
 1853SOL    HW222702   3.765   2.835   0.596 -1.2202  0.6415  0.0591
 1854SOL     OW22703   3.942   0.661   5.962 -0.1121 -0.3270 -0.0930
 1854SOL    HW122704   3.852   0.657   5.993 -0.2587 -3.4494 -0.6063
 1854SOL    HW222705   3.996   0.653   6.041 -0.2091  2.0693  0.2686
 1855SOL     OW22706   4.593   0.348   7.388  0.4554 -0.1776  0.1704
 1855SOL    HW122707   4.668   0.396   7.423  0.2915 -1.3996  2.3449
 1855SOL    HW222708   4.528   0.350   7.458 -0.3330 -1.8158 -0.4639
 1856SOL     OW22709   4.569   5.512   7.143 -0.3528  0.1613  0.8136
 1856SOL    HW122710   4.477   5.493   7.163  0.0044 -1.7675  0.8534
 1856SOL    HW222711   4.617   5.441   7.186  0.7849 -1.6690 -3.0702
 1857SOL     OW22712   1.944   4.884   0.035 -0.0995  0.2809 -0.0572
 1857SOL    HW122713   1.985   4.902   0.119 -1.4506 -0.1075  0.7094
 1857SOL    HW222714   1.911   4.970   0.005 -0.8828  0.1899  0.5160
 1858SOL     OW22715   0.138   4.638   0.305  0.0856 -0.3442  0.2437
 1858SOL    HW122716   0.045   4.652   0.284 -0.7008 -2.9288  1.5478
 1858SOL    HW222717   0.169   4.577   0.238 -0.4868 -3.0045  2.2385
 1859SOL     OW22718   4.879   2.328   6.757  0.7063 -0.1927 -0.2000
 1859SOL    HW122719   4.881   2.393   6.687 -1.2923 -0.4103 -0.5330
 1859SOL    HW222720   4.817   2.262   6.726 -0.0672 -0.4050  1.6676
 1860SOL     OW22721   0.286   2.841   0.189  0.7186  0.6212  0.0808
 1860SOL    HW122722   0.333   2.829   0.106  1.0389 -1.1162  0.4638
 1860SOL    HW222723   0.355   2.841   0.256  0.3414 -0.0005  0.4857
 1861SOL     OW22724   5.559   4.137   1.412 -0.5276  0.2060  0.3467
 1861SOL    HW122725   5.584   4.047   1.434  0.4994  0.3551 -0.1827
 1861SOL    HW222726   5.513   4.168   1.490 -1.4568 -0.9824  0.2935
 1862SOL     OW22727   2.870   2.021   2.272 -0.5925 -0.3682  0.8860
 1862SOL    HW122728   2.837   2.087   2.210 -0.1819 -0.6980  0.3022
 1862SOL    HW222729   2.835   2.048   2.357 -0.8694  0.3001  0.5684
 1863SOL     OW22730   1.255   1.506   6.304 -0.0009  0.1543 -0.0092
 1863SOL    HW122731   1.193   1.497   6.377  1.0140 -1.1302  0.7252
 1863SOL    HW222732   1.225   1.442   6.240 -0.0916  0.3262 -0.1388
 1864SOL     OW22733   4.849   4.171   6.297 -0.0007  0.3693 -0.1101
 1864SOL    HW122734   4.818   4.252   6.257  2.8834  1.3433 -0.6263
 1864SOL    HW222735   4.845   4.187   6.391 -1.7727  0.1125 -0.1115
 1865SOL     OW22736   5.747   4.719   6.298 -0.2816 -1.1237 -0.5956
 1865SOL    HW122737   5.796   4.671   6.232 -0.6581  0.0156 -1.7608
 1865SOL    HW222738   5.807   4.788   6.328 -1.5514  1.3332 -3.2336
 1866SOL     OW22739   4.408   3.682   7.222  0.7976  0.0600  0.0623
 1866SOL    HW122740   4.468   3.743   7.266 -0.6900  0.5222  1.5494
 1866SOL    HW222741   4.323   3.699   7.262 -0.1885 -1.1390 -1.4298
 1867SOL     OW22742   2.313   0.909   5.951  0.0888 -0.1415  0.2655
 1867SOL    HW122743   2.351   0.943   5.869  1.5632 -0.2981  0.8533
 1867SOL    HW222744   2.221   0.935   5.946  0.8466  3.0391  0.1543
 1868SOL     OW22745   2.697   2.822   2.396 -0.0355  0.4225 -0.2624
 1868SOL    HW122746   2.625   2.760   2.377  0.8274 -0.5223 -0.5598
 1868SOL    HW222747   2.669   2.867   2.475 -0.4794 -0.7106  0.2540
 1869SOL     OW22748   0.404   2.046   6.570  0.6594  0.2711  0.2008
 1869SOL    HW122749   0.348   2.112   6.612 -0.0847  0.1394 -0.5588
 1869SOL    HW222750   0.378   1.964   6.611 -1.3272 -0.1226 -1.6725
 1870SOL     OW22751   4.044   0.742   7.012 -0.1314  0.1103 -0.1783
 1870SOL    HW122752   3.951   0.764   7.020  0.3614  1.8755  1.7216
 1870SOL    HW222753   4.085   0.784   7.088  1.9839 -2.1187  0.0503
 1871SOL     OW22754   2.429   6.192   2.466 -0.3316  0.7775  0.1365
 1871SOL    HW122755   2.403   6.210   2.557  0.3866 -0.2601  0.5620
 1871SOL    HW222756   2.416   6.276   2.421  1.9403  2.1516  1.7927
 1872SOL     OW22757   4.518   3.619   6.226  0.5920  0.0324  0.2581
 1872SOL    HW122758   4.611   3.600   6.241  0.4951  0.0743  0.9330
 1872SOL    HW222759   4.504   3.703   6.269  0.1746 -0.1104  0.4020
 1873SOL     OW22760   2.975   2.090   7.375  0.0602 -0.2937 -1.0567
 1873SOL    HW122761   2.926   2.073   7.294 -1.3691  0.3945 -0.3802
 1873SOL    HW222762   2.939   2.172   7.408 -0.1448 -1.0794  0.8065
 1874SOL     OW22763   3.812   6.120   5.487  0.5739 -0.5428 -0.2558
 1874SOL    HW122764   3.864   6.185   5.534 -0.3132 -0.1565  0.2010
 1874SOL    HW222765   3.733   6.109   5.539  1.0672 -2.6239  0.1242
 1875SOL     OW22766   3.664   4.405   7.433  0.2385  0.2836  0.0730
 1875SOL    HW122767   3.720   4.417   7.357 -0.1932 -1.0386 -0.4808
 1875SOL    HW222768   3.664   4.491   7.477  1.8435  0.5941 -0.4640
 1876SOL     OW22769   1.314   3.460   5.819 -0.2117 -0.2420  0.1732
 1876SOL    HW122770   1.267   3.456   5.735  0.5461  2.0127 -0.4137
 1876SOL    HW222771   1.394   3.410   5.803  0.6352  1.4013 -0.9869
 1877SOL     OW22772   0.729   3.689   1.718 -0.3735  0.2314  0.2296
 1877SOL    HW122773   0.671   3.754   1.758 -1.9446 -0.1372 -1.3394
 1877SOL    HW222774   0.692   3.604   1.746  0.6229 -0.0285  0.8286
 1878SOL     OW22775   2.550   0.605   7.510 -0.4407  0.0188  0.2422
 1878SOL    HW122776   2.566   0.678   7.570  0.7901 -1.2144  1.4940
 1878SOL    HW222777   2.555   0.644   7.423 -0.5477  1.5508  0.8985
 1879SOL     OW22778   3.631   5.496   0.468  0.5830 -0.7603 -0.1894
 1879SOL    HW122779   3.574   5.500   0.545  0.6873  1.2942 -0.1611
 1879SOL    HW222780   3.687   5.573   0.476 -0.1450  0.1579 -2.8514
 1880SOL     OW22781   1.576   5.674   0.618 -0.2040 -0.1805  0.0819
 1880SOL    HW122782   1.613   5.608   0.678  0.5520 -0.6073 -0.8314
 1880SOL    HW222783   1.653   5.716   0.580 -0.6885  0.4788 -0.1756
 1881SOL     OW22784   4.737   4.904   5.611  0.5423 -0.6795  0.2708
 1881SOL    HW122785   4.703   4.992   5.626  0.3779 -0.8019  0.6445
 1881SOL    HW222786   4.668   4.846   5.644  0.7014 -0.9444  0.1422
 1882SOL     OW22787   2.058   1.892   7.056  0.2931 -0.2906  0.1740
 1882SOL    HW122788   2.065   1.949   7.132  0.8178  0.2331 -0.2548
 1882SOL    HW222789   1.966   1.896   7.030  0.7796  2.6798 -1.5688
 1883SOL     OW22790   5.072   3.024   0.668 -0.4621  0.3637  0.1657
 1883SOL    HW122791   5.108   3.022   0.757  1.1263  0.6030 -0.4424
 1883SOL    HW222792   5.121   3.093   0.624  0.5558 -1.3613 -1.5967
 1884SOL     OW22793   2.508   6.329   0.904  0.1918  0.5877 -0.3679
 1884SOL    HW122794   2.471   6.288   0.826  2.8417 -2.8096 -0.0955
 1884SOL    HW222795   2.567   6.397   0.870 -0.8919  1.1818 -1.1057
 1885SOL     OW22796   4.039   3.657   6.428 -0.5587 -0.9073 -0.2991
 1885SOL    HW122797   4.022   3.749   6.405  0.2219 -0.8415 -0.6216
 1885SOL    HW222798   4.016   3.608   6.348 -0.2850 -0.9210 -0.3703
 1886SOL     OW22799   0.842   6.368   6.360 -0.2483 -0.2567  0.4692
 1886SOL    HW122800   0.810   6.290   6.405  0.5340 -0.2067  1.1280
 1886SOL    HW222801   0.807   6.360   6.271 -0.5551 -1.1242  0.6573
 1887SOL     OW22802   5.428   2.041   6.955 -0.2477 -0.7284 -0.2155
 1887SOL    HW122803   5.357   2.055   7.017  1.0683  1.8317  0.8697
 1887SOL    HW222804   5.493   1.990   7.003 -0.2620 -0.8728 -0.3469
 1888SOL     OW22805   2.731   2.865   0.478  0.0723 -0.2147 -0.0907
 1888SOL    HW122806   2.823   2.882   0.495 -0.3708  1.2540  1.0240
 1888SOL    HW222807   2.700   2.943   0.432 -0.5002 -0.9412 -0.9707
 1889SOL     OW22808   2.798   3.487   0.121  0.0888  0.2512  0.1287
 1889SOL    HW122809   2.730   3.542   0.083  0.7847 -0.6274 -2.6487
 1889SOL    HW222810   2.844   3.545   0.183 -1.8354  1.4381  0.5537
 1890SOL     OW22811   2.751   2.955   2.128 -0.1315  0.3336  0.1853
 1890SOL    HW122812   2.822   2.965   2.191  0.6240 -0.1788 -0.5616
 1890SOL    HW222813   2.782   3.000   2.049  0.3449 -1.7340 -0.8853
 1891SOL     OW22814   5.017   3.226   0.409  0.1620 -0.0367 -0.3599
 1891SOL    HW122815   5.016   3.131   0.407  2.1676 -0.1204  0.3112
 1891SOL    HW222816   5.089   3.251   0.350 -0.5527  1.0809 -0.7996
 1892SOL     OW22817   2.095   1.159   5.630  0.0471 -0.1739  0.4697
 1892SOL    HW122818   2.052   1.233   5.588  0.3348  0.1990  0.8148
 1892SOL    HW222819   2.033   1.128   5.696  0.5805  0.8480  1.4965
 1893SOL     OW22820   5.251   2.351   7.019 -0.3253 -0.0189 -0.2746
 1893SOL    HW122821   5.263   2.259   7.040 -0.1702 -0.2286 -1.2564
 1893SOL    HW222822   5.156   2.362   7.011 -0.4377  0.1932  1.0233
 1894SOL     OW22823   6.282   1.828   7.058  0.1980 -0.0414 -0.0228
 1894SOL    HW122824   6.370   1.844   7.023  0.7845 -0.6771  1.0972
 1894SOL    HW222825   6.283   1.736   7.083 -0.3426  0.2594  1.1958
 1895SOL     OW22826   5.690   1.366   6.295 -0.0957  0.1298 -0.6859
 1895SOL    HW122827   5.656   1.298   6.353  0.3216 -0.6984 -1.3866
 1895SOL    HW222828   5.630   1.440   6.307  0.9040  0.6218  2.0083
 1896SOL     OW22829   1.459   0.289   6.706  0.5471 -0.2507  0.4559
 1896SOL    HW122830   1.424   0.334   6.629 -0.9797 -0.3259  1.0571
 1896SOL    HW222831   1.551   0.313   6.708 -0.1551  2.8994  0.7172
 1897SOL     OW22832   3.797   2.425   6.395 -0.8843  0.1081 -0.2901
 1897SOL    HW122833   3.888   2.448   6.414 -0.8937 -0.5543  0.6066
 1897SOL    HW222834   3.791   2.332   6.416 -1.8671  0.2391  0.0637
 1898SOL     OW22835   1.315   0.356   7.705 -0.2089  0.1753  0.1306
 1898SOL    HW122836   1.228   0.327   7.730 -0.2894  1.0085  0.8646
 1898SOL    HW222837   1.369   0.277   7.710 -0.9238 -0.3573 -0.3895
 1899SOL     OW22838   1.831   5.530   5.173  0.1893 -0.2919 -0.1617
 1899SOL    HW122839   1.816   5.438   5.197 -0.1122 -0.6227 -1.5073
 1899SOL    HW222840   1.926   5.540   5.177  0.2823 -0.8801 -0.7084
 1900SOL     OW22841   5.763   3.814   0.781  0.4273  0.4046  0.1355
 1900SOL    HW122842   5.850   3.799   0.744  0.7874  1.6929  0.3909
 1900SOL    HW222843   5.715   3.859   0.711  0.2040  0.3445  0.2487
 1901SOL     OW22844   6.136   1.996   1.528 -0.0339 -0.0799 -0.2932
 1901SOL    HW122845   6.136   1.935   1.455  0.9277 -0.7539  0.2531
 1901SOL    HW222846   6.091   1.950   1.599 -1.7197  0.8860 -0.6843
 1902SOL     OW22847   1.233   0.495   1.213 -0.0699  0.5504 -0.3445
 1902SOL    HW122848   1.273   0.566   1.263 -2.1451  0.8134  1.0584
 1902SOL    HW222849   1.306   0.437   1.192  1.2649  1.7207  0.8156
 1903SOL     OW22850   3.532   1.896   6.694 -0.4389 -0.6411 -0.3216
 1903SOL    HW122851   3.582   1.952   6.754  0.5744 -0.8233 -0.9645
 1903SOL    HW222852   3.441   1.924   6.705 -0.2578 -0.5432  1.1551
 1904SOL     OW22853   1.218   5.991   1.674 -0.3220  0.0890 -0.3331
 1904SOL    HW122854   1.258   6.064   1.722  0.1797 -1.0224  1.0071
 1904SOL    HW222855   1.243   6.007   1.582  1.0539  0.8006  0.1269
 1905SOL     OW22856   2.989   1.799   6.752  0.5583 -0.1876  0.2923
 1905SOL    HW122857   2.900   1.792   6.719  0.0763  2.9962  0.6355
 1905SOL    HW222858   3.044   1.766   6.681 -0.8177 -1.7631 -0.1014
 1906SOL     OW22859   6.028   1.521   7.028 -0.4098 -0.7147  0.5324
 1906SOL    HW122860   5.936   1.546   7.036 -0.3575  0.1142 -1.0582
 1906SOL    HW222861   6.027   1.437   6.982 -0.4013 -1.6309  2.1080
 1907SOL     OW22862   6.129   0.174   0.082  0.7267  0.0476 -0.4573
 1907SOL    HW122863   6.096   0.103   0.027  2.1474  0.5364 -2.0395
 1907SOL    HW222864   6.149   0.245   0.021 -2.2656  2.5720  1.2207
 1908SOL     OW22865   3.451   2.769   0.669  0.1728  0.1965 -0.3500
 1908SOL    HW122866   3.412   2.684   0.648 -0.0155  0.4082 -0.8544
 1908SOL    HW222867   3.544   2.757   0.649  0.2383 -0.0585  0.0955
 1909SOL     OW22868   1.143   5.772   6.901 -0.2032  0.0596 -0.2055
 1909SOL    HW122869   1.110   5.847   6.852 -3.2322 -1.8318 -1.3390
 1909SOL    HW222870   1.214   5.737   6.847 -0.1469  0.8977 -0.6942
 1910SOL     OW22871   2.505   5.749   6.021 -0.0928 -0.3614  0.0168
 1910SOL    HW122872   2.456   5.736   5.940 -2.2663 -1.3064  1.3819
 1910SOL    HW222873   2.517   5.660   6.055 -0.0560  0.0794  1.1822
 1911SOL     OW22874   0.549   3.279   0.952  0.3346  0.2834 -0.0638
 1911SOL    HW122875   0.589   3.337   0.887 -1.7227 -0.9125 -2.5932
 1911SOL    HW222876   0.623   3.241   0.999  1.8780  2.0614 -0.8991
 1912SOL     OW22877   5.430   0.814   5.811  0.4102 -0.0566 -0.0114
 1912SOL    HW122878   5.354   0.757   5.810 -0.0250  0.4882  0.6977
 1912SOL    HW222879   5.504   0.757   5.791 -0.0008 -0.8808  0.7631
 1913SOL     OW22880   1.824   0.747   0.855  0.0459  0.6116  0.3403
 1913SOL    HW122881   1.794   0.772   0.768  1.0097 -0.2576 -0.2663
 1913SOL    HW222882   1.884   0.816   0.882 -0.7247  1.1940  0.5899
 1914SOL     OW22883   4.023   5.389   0.548 -0.2360  0.1043  0.1131
 1914SOL    HW122884   3.952   5.412   0.607 -0.0300 -3.1097  1.8186
 1914SOL    HW222885   4.096   5.446   0.575 -0.8659  0.3577  1.3446
 1915SOL     OW22886   5.964   0.841   7.245  0.0202 -0.7315 -0.2899
 1915SOL    HW122887   5.890   0.829   7.185 -0.9021 -0.3366  0.7083
 1915SOL    HW222888   5.972   0.757   7.290 -0.2746 -0.5712  0.0718
 1916SOL     OW22889   4.278   6.212   0.920  0.2050 -0.2228  0.2179
 1916SOL    HW122890   4.244   6.242   0.836 -1.2190 -0.2474  0.7548
 1916SOL    HW222891   4.283   6.117   0.911 -0.2734 -0.2542  0.2738
 1917SOL     OW22892   3.730   2.853   2.604 -0.0800  0.0820  0.2834
 1917SOL    HW122893   3.669   2.787   2.571 -0.1944  0.6825 -0.7440
 1917SOL    HW222894   3.708   2.861   2.697 -0.5453 -0.7977  0.2583
 1918SOL     OW22895   5.012   6.445   2.153 -0.2047 -0.3964  0.2073
 1918SOL    HW122896   5.054   6.478   2.232 -1.7955 -2.3223  1.9807
 1918SOL    HW222897   4.918   6.449   2.172 -0.7015  0.1843 -2.0745
 1919SOL     OW22898   2.410   6.204   0.035 -0.2662  0.5431 -0.0389
 1919SOL    HW122899   2.498   6.191  -0.001  0.0720  0.9956  0.5925
 1919SOL    HW222900   2.407   6.146   0.111  0.0554  1.6382  0.8394
 1920SOL     OW22901   5.022   0.788   1.584 -0.1383  0.6350  0.0597
 1920SOL    HW122902   5.036   0.695   1.602  0.0689  0.7879  0.7358
 1920SOL    HW222903   4.972   0.820   1.659 -1.6730  0.7229 -0.9631
 1921SOL     OW22904   4.371   6.185   5.988  0.7209 -0.1966  0.0421
 1921SOL    HW122905   4.331   6.105   5.956 -0.1642 -0.0391  0.7015
 1921SOL    HW222906   4.304   6.252   5.976  1.3671  0.4076 -0.2955
 1922SOL     OW22907   5.731   0.769   1.997  0.2311  0.3780 -0.0901
 1922SOL    HW122908   5.761   0.840   1.941  0.9464 -0.3181 -0.6212
 1922SOL    HW222909   5.766   0.690   1.956 -1.1110 -0.3386  0.1134
 1923SOL     OW22910   2.234   1.249   0.789  0.0992 -0.1027 -0.1065
 1923SOL    HW122911   2.183   1.253   0.708  0.3722  2.7330 -0.2261
 1923SOL    HW222912   2.193   1.313   0.847  2.0027  0.4786  0.6776
 1924SOL     OW22913   5.194   1.091   5.900 -0.1358  0.0175  0.0720
 1924SOL    HW122914   5.127   1.124   5.959 -0.0416 -1.0093  0.7935
 1924SOL    HW222915   5.169   0.999   5.885 -0.0819  0.2194 -1.3926
 1925SOL     OW22916   3.468   4.790   1.044  0.0257  0.5212  0.1536
 1925SOL    HW122917   3.402   4.849   1.007  1.4796  2.1538  0.0348
 1925SOL    HW222918   3.525   4.847   1.095  1.3721 -0.8265  0.2245
 1926SOL     OW22919   5.909   3.635   6.503 -0.3425  0.3865 -0.0138
 1926SOL    HW122920   5.918   3.550   6.546 -2.3301 -0.5729 -1.3482
 1926SOL    HW222921   5.998   3.670   6.499  0.0490  0.2905  4.2163
 1927SOL     OW22922   2.454   1.559   0.400 -0.0593  0.1264  0.5635
 1927SOL    HW122923   2.374   1.545   0.350  1.0359 -0.0273 -1.2408
 1927SOL    HW222924   2.447   1.650   0.431  0.7049  1.5582 -2.9300
 1928SOL     OW22925   1.803   6.290   0.526  0.1017 -0.1910 -0.1302
 1928SOL    HW122926   1.745   6.258   0.594  1.9586  0.8195  2.0835
 1928SOL    HW222927   1.758   6.366   0.489 -0.7324 -0.4746  0.2805
 1929SOL     OW22928   4.009   3.610   6.161 -0.4810  0.3175  0.0788
 1929SOL    HW122929   4.091   3.561   6.159 -1.2965 -1.0841 -1.4084
 1929SOL    HW222930   4.028   3.691   6.113  0.5392  0.9450  1.4685
 1930SOL     OW22931   0.627   6.192   0.694 -0.1332  0.4031 -0.7330
 1930SOL    HW122932   0.591   6.239   0.619  0.6504  2.2991  0.0063
 1930SOL    HW222933   0.571   6.217   0.767  1.7360  2.3181  0.1611
 1931SOL     OW22934   5.386   4.147   7.527 -0.3121  0.5283  0.1929
 1931SOL    HW122935   5.334   4.116   7.601 -1.6474  0.0616 -0.8900
 1931SOL    HW222936   5.476   4.145   7.558 -0.7628 -0.4603  1.5282
 1932SOL     OW22937   0.066   0.429   1.514  0.4844 -0.3576 -0.1699
 1932SOL    HW122938   0.130   0.498   1.534  2.1316 -1.0417 -2.5788
 1932SOL    HW222939   0.068   0.423   1.419  0.2385 -3.5783 -0.0594
 1933SOL     OW22940   2.421   5.353   6.866  0.0180 -0.1645  0.6490
 1933SOL    HW122941   2.469   5.281   6.824 -0.1967  0.6787 -1.1235
 1933SOL    HW222942   2.344   5.366   6.812 -0.3465  0.8967  1.3821
 1934SOL     OW22943   2.530   6.165   6.725 -0.0087 -0.3026 -0.1910
 1934SOL    HW122944   2.605   6.127   6.680  0.1357  0.9561 -1.0646
 1934SOL    HW222945   2.566   6.196   6.809 -0.0708 -1.7684  0.4025
 1935SOL     OW22946   3.037   2.772   1.185  0.3089 -0.3398  0.5653
 1935SOL    HW122947   3.112   2.829   1.203 -0.5745  0.9084  0.3750
 1935SOL    HW222948   3.030   2.717   1.264 -0.0373  1.1905  1.6429
 1936SOL     OW22949   2.902   3.768   1.556  0.1957  0.3527  0.2763
 1936SOL    HW122950   2.841   3.815   1.612  0.0287 -1.5036  1.7577
 1936SOL    HW222951   2.848   3.735   1.484 -0.2519  0.0719  0.7319
 1937SOL     OW22952   2.425   5.698   6.674 -0.4811 -0.4837 -0.0750
 1937SOL    HW122953   2.454   5.784   6.645 -1.6450  0.6117  1.8661
 1937SOL    HW222954   2.463   5.687   6.761 -0.4192 -1.9151 -0.2481
 1938SOL     OW22955   2.443   3.530   6.651  0.2636  0.1906  0.1368
 1938SOL    HW122956   2.356   3.491   6.650 -0.7539  2.1802  2.1092
 1938SOL    HW222957   2.498   3.466   6.695 -0.9480  0.1736  1.7030
 1939SOL     OW22958   1.305   1.513   7.337  0.1818 -0.5471  0.3160
 1939SOL    HW122959   1.294   1.547   7.425 -0.0352 -0.5539  0.2913
 1939SOL    HW222960   1.222   1.470   7.317  0.3358 -0.8006  0.2220
 1940SOL     OW22961   2.155   0.210   0.555 -0.4292 -0.6353 -0.3642
 1940SOL    HW122962   2.106   0.128   0.541 -1.7990  0.0905 -0.0319
 1940SOL    HW222963   2.220   0.211   0.484  0.1046 -2.3379  0.0536
 1941SOL     OW22964   3.530   5.120   6.811 -0.7453 -0.3266 -0.2523
 1941SOL    HW122965   3.483   5.201   6.830 -1.3626 -0.4963 -0.9997
 1941SOL    HW222966   3.547   5.123   6.717 -2.0724 -1.7203 -0.5691
 1942SOL     OW22967   6.198   6.282   1.781 -0.0006 -0.0705  0.9783
 1942SOL    HW122968   6.260   6.268   1.853 -1.0004  0.2318  1.9212
 1942SOL    HW222969   6.147   6.359   1.808 -2.0985 -1.4569  1.1682
 1943SOL     OW22970   5.870   4.515   0.284 -0.1243 -0.3445 -0.0428
 1943SOL    HW122971   5.790   4.514   0.231  0.7176  1.3534 -1.4586
 1943SOL    HW222972   5.858   4.444   0.347 -1.9045 -1.3780 -1.4449
 1944SOL     OW22973   4.782   2.240   0.707 -0.6656  0.6514 -0.3960
 1944SOL    HW122974   4.736   2.260   0.626  0.7286 -1.0554 -1.6829
 1944SOL    HW222975   4.861   2.294   0.704 -1.2879  1.6643  0.5707
 1945SOL     OW22976   5.050   1.679   0.609  0.0713  0.2246  0.1542
 1945SOL    HW122977   4.993   1.603   0.620 -2.2711  1.8646  0.0282
 1945SOL    HW222978   5.023   1.718   0.526  3.3367 -0.4358 -1.3656
 1946SOL     OW22979   0.570   1.120   6.898 -0.3590  0.5278 -0.2783
 1946SOL    HW122980   0.514   1.111   6.975  0.8744 -0.0690  0.5882
 1946SOL    HW222981   0.596   1.212   6.898  0.8465  0.2238  0.9388
 1947SOL     OW22982   2.485   0.254   1.131  0.1125 -0.4945  0.3242
 1947SOL    HW122983   2.518   0.170   1.162  0.7442 -0.1715  0.5425
 1947SOL    HW222984   2.547   0.319   1.166  0.2913 -0.0383 -0.7995
 1948SOL     OW22985   2.649   2.134   5.587  0.0205  0.2966 -0.4778
 1948SOL    HW122986   2.736   2.097   5.602 -0.6516 -1.0471  0.2645
 1948SOL    HW222987   2.639   2.133   5.492  1.0721  1.1460 -0.6312
 1949SOL     OW22988   6.075   3.211   7.176  0.0343 -0.1872  0.1184
 1949SOL    HW122989   6.042   3.204   7.266 -0.4536  1.0495  0.0551
 1949SOL    HW222990   6.005   3.172   7.122  0.7970 -1.9446  0.3159
 1950SOL     OW22991   2.768   1.439   6.859  0.3776  0.1460  0.3487
 1950SOL    HW122992   2.837   1.374   6.873 -0.0838 -0.4230  0.0295
 1950SOL    HW222993   2.805   1.521   6.890  1.8259  0.1804 -1.2976
 1951SOL     OW22994   1.876   4.193   1.926 -0.0544  0.7499  0.0288
 1951SOL    HW122995   1.950   4.234   1.969 -0.4704  0.7501  0.7719
 1951SOL    HW222996   1.799   4.228   1.971 -0.4632  0.0210 -0.0742
 1952SOL     OW22997   2.380   0.524   0.527  0.0526  0.6101  0.0308
 1952SOL    HW122998   2.359   0.564   0.443  0.3395  0.3021 -0.1886
 1952SOL    HW222999   2.309   0.552   0.585  0.0507  1.1242 -0.2152
 1953SOL     OW23000   1.108   1.787   6.299  0.1059  0.3319 -0.2910
 1953SOL    HW123001   1.040   1.809   6.364 -0.1537 -1.2684  0.0174
 1953SOL    HW223002   1.086   1.699   6.270  0.4199  0.8734 -2.3387
 1954SOL     OW23003   5.264   4.472   0.843  0.0627  0.5402  0.2197
 1954SOL    HW123004   5.242   4.510   0.928  0.8858  0.1361  0.6198
 1954SOL    HW223005   5.345   4.423   0.858 -0.5812 -0.7842 -0.4387
 1955SOL     OW23006   3.099   2.041   0.357  0.5633  0.4573 -0.1402
 1955SOL    HW123007   3.172   2.096   0.329 -0.0095  1.4775  0.3411
 1955SOL    HW223008   3.048   2.027   0.277  2.6312 -2.4710 -1.0974
 1956SOL     OW23009   5.471   1.446   6.082 -0.6876 -0.2157 -0.6474
 1956SOL    HW123010   5.510   1.470   5.998  0.9661 -0.5415 -0.0131
 1956SOL    HW223011   5.439   1.356   6.069 -1.3777  0.1080 -1.2199
 1957SOL     OW23012   5.785   3.750   6.296 -0.4088 -0.3877  0.0807
 1957SOL    HW123013   5.691   3.733   6.290 -0.7181  0.5166  1.7877
 1957SOL    HW223014   5.813   3.705   6.376  0.8166 -1.4107 -0.8840
 1958SOL     OW23015   0.673   1.398   0.717 -0.1792  0.3418  0.0710
 1958SOL    HW123016   0.715   1.327   0.765  1.1367  0.0412 -1.4222
 1958SOL    HW223017   0.581   1.394   0.743  0.0195 -1.3919  0.6361
 1959SOL     OW23018   3.662   1.634   7.603  0.1863 -0.0007 -0.3810
 1959SOL    HW123019   3.589   1.638   7.541  1.1167  0.6439 -1.4521
 1959SOL    HW223020   3.622   1.600   7.684 -1.3757  0.6666 -0.8323
 1960SOL     OW23021   5.228   0.954   7.644  0.8529  0.3260 -0.2851
 1960SOL    HW123022   5.214   0.860   7.639  0.9438  0.2356  0.9389
 1960SOL    HW223023   5.271   0.976   7.561  1.0904 -0.7496 -0.4587
 1961SOL     OW23024   1.715   2.162   1.858 -0.0594  0.4011  0.3129
 1961SOL    HW123025   1.719   2.069   1.837  0.4896  0.4765  0.0877
 1961SOL    HW223026   1.785   2.202   1.807  1.3176  0.5832  2.2774
 1962SOL     OW23027   5.478   6.296   1.134 -0.0676 -0.1373 -0.2534
 1962SOL    HW123028   5.457   6.208   1.163  0.1812 -0.5903 -1.3952
 1962SOL    HW223029   5.393   6.337   1.117 -0.1502 -0.6441 -1.0894
 1963SOL     OW23030   3.484   5.899   6.705 -0.0176  0.7769  0.1843
 1963SOL    HW123031   3.459   5.946   6.785 -0.1193  1.7275 -0.3869
 1963SOL    HW223032   3.573   5.870   6.721 -0.8198 -1.1058  1.5604
 1964SOL     OW23033   3.941   2.252   7.141  0.5476 -0.3454 -0.3422
 1964SOL    HW123034   3.949   2.160   7.169 -1.7905 -0.2237  0.9450
 1964SOL    HW223035   3.890   2.248   7.061  0.6454 -0.1761 -0.4139
 1965SOL     OW23036   3.085   4.439   1.090  0.8322  0.7873  0.1799
 1965SOL    HW123037   3.127   4.378   1.029  1.3486 -0.5536  1.8067
 1965SOL    HW223038   3.007   4.470   1.043  1.7579  0.6276 -1.5456
 1966SOL     OW23039   3.643   0.251   6.642  0.1069 -0.6343  0.1015
 1966SOL    HW123040   3.725   0.262   6.691  0.3082  2.5113 -0.7271
 1966SOL    HW223041   3.644   0.160   6.614  3.0300 -0.8556  0.6176
 1967SOL     OW23042   4.823   4.958   7.748  0.0403 -0.4330 -0.4325
 1967SOL    HW123043   4.799   5.018   7.677  1.9234  1.0799  0.1462
 1967SOL    HW223044   4.917   4.941   7.734  1.2660  2.2084  3.2283
 1968SOL     OW23045   4.290   4.120   0.411 -0.2767  0.0013 -0.3337
 1968SOL    HW123046   4.285   4.195   0.470 -0.8538 -0.0123 -0.3568
 1968SOL    HW223047   4.207   4.122   0.363 -0.1019 -0.3861 -0.6534
 1969SOL     OW23048   2.955   5.678   1.295 -0.2070  0.3880  0.1048
 1969SOL    HW123049   2.895   5.753   1.295 -1.5705 -0.5395 -2.8457
 1969SOL    HW223050   2.996   5.681   1.209  1.3232 -1.0724  0.7397
 1970SOL     OW23051   3.350   3.272   7.441 -0.6224 -0.3789 -0.6729
 1970SOL    HW123052   3.303   3.329   7.501  0.7072  0.9679 -0.8411
 1970SOL    HW223053   3.429   3.321   7.418  0.1903 -1.9638 -1.4669
 1971SOL     OW23054   1.106   6.072   7.459  0.3550  0.1045  0.1512
 1971SOL    HW123055   1.159   5.995   7.440  0.3944  0.1944 -0.1113
 1971SOL    HW223056   1.132   6.136   7.393  0.2261  0.2959  0.2844
 1972SOL     OW23057   5.337   1.412   6.899 -0.0992  0.0527  0.3618
 1972SOL    HW123058   5.419   1.451   6.872 -0.2851 -0.8443 -1.7112
 1972SOL    HW223059   5.348   1.318   6.883 -1.9765  0.0588 -1.3910
 1973SOL     OW23060   5.336   4.472   0.033  0.0628  0.3053 -0.1164
 1973SOL    HW123061   5.428   4.487   0.053 -0.2566  1.6472  0.4467
 1973SOL    HW223062   5.295   4.558   0.043 -1.4383 -0.4633  0.6815
 1974SOL     OW23063   2.008   2.492   5.669  0.4502 -0.0385  0.2311
 1974SOL    HW123064   2.076   2.490   5.736  1.1766  3.1795 -0.2352
 1974SOL    HW223065   2.048   2.449   5.593  0.4724 -1.6287  1.1190
 1975SOL     OW23066   5.526   5.596   0.968 -0.5320  0.5298  0.4800
 1975SOL    HW123067   5.431   5.601   0.957 -0.6142 -1.9348 -0.5543
 1975SOL    HW223068   5.538   5.570   1.059 -0.7694  1.6677  0.8560
 1976SOL     OW23069   4.616   0.521   0.242  0.0128  0.5921 -0.0407
 1976SOL    HW123070   4.578   0.510   0.155  0.5353 -3.6231  0.0611
 1976SOL    HW223071   4.709   0.536   0.226  0.2730 -1.0956 -0.2861
 1977SOL     OW23072   0.315   5.358   1.242 -0.2482  0.3054 -0.6185
 1977SOL    HW123073   0.346   5.313   1.321 -0.3323 -0.7351 -1.1735
 1977SOL    HW223074   0.302   5.289   1.178  0.1185  1.1770 -1.6577
 1978SOL     OW23075   1.465   0.648   0.804 -0.3405  0.2362 -0.4207
 1978SOL    HW123076   1.454   0.703   0.726 -0.9266 -1.4146 -1.5573
 1978SOL    HW223077   1.459   0.709   0.877 -0.2768  1.7774 -1.6402
 1979SOL     OW23078   1.975   5.619   5.576  0.2396  0.6730  0.2444
 1979SOL    HW123079   1.903   5.677   5.600 -0.5779 -0.5764  0.8928
 1979SOL    HW223080   1.936   5.532   5.570  1.7058 -0.0569  0.6975
 1980SOL     OW23081   2.094   0.803   6.746 -0.0602  0.0906  0.1330
 1980SOL    HW123082   2.010   0.813   6.791 -0.4242 -0.6818 -0.3535
 1980SOL    HW223083   2.079   0.841   6.660 -0.1085 -0.6285 -0.1768
 1981SOL     OW23084   5.061   4.872   6.173  0.5379 -0.2635 -0.1761
 1981SOL    HW123085   5.062   4.792   6.225  1.8022 -0.6673 -0.7753
 1981SOL    HW223086   5.036   4.843   6.086 -0.3938  0.2305 -0.0851
 1982SOL     OW23087   2.898   3.460   6.259 -0.2886 -0.0708  0.0071
 1982SOL    HW123088   2.937   3.498   6.337 -0.7292  0.6794 -0.1227
 1982SOL    HW223089   2.886   3.534   6.200  1.8835 -0.8914 -1.6052
 1983SOL     OW23090   3.337   1.533   5.530 -0.1418  0.3169 -0.1335
 1983SOL    HW123091   3.377   1.505   5.612  0.5170  0.0427 -0.5341
 1983SOL    HW223092   3.363   1.466   5.467 -0.5363  0.5909 -0.5936
 1984SOL     OW23093   3.918   2.334   0.900  0.2716 -0.2266  0.3013
 1984SOL    HW123094   3.961   2.411   0.864  0.8896 -0.7364 -0.0620
 1984SOL    HW223095   3.964   2.317   0.982  0.4419 -0.4782  0.1552
 1985SOL     OW23096   2.336   1.741   2.417  0.8035  0.0383 -0.3284
 1985SOL    HW123097   2.363   1.736   2.509 -1.3363 -0.3789  0.3233
 1985SOL    HW223098   2.404   1.692   2.370  2.8743  1.6945  0.7526
 1986SOL     OW23099   1.512   2.702   0.076 -0.4014 -0.6940 -0.6276
 1986SOL    HW123100   1.499   2.778   0.133 -0.6054 -1.4693  0.3683
 1986SOL    HW223101   1.489   2.627   0.130  1.2825 -1.5940 -1.0849
 1987SOL     OW23102   0.695   0.819   6.276 -0.5789  0.2738  0.6039
 1987SOL    HW123103   0.706   0.815   6.181 -0.4428 -0.1454  0.6301
 1987SOL    HW223104   0.690   0.727   6.302  0.8445  0.3298  1.1544
 1988SOL     OW23105   0.307   5.077   1.025 -0.0359  0.1048 -0.8329
 1988SOL    HW123106   0.377   5.018   1.053 -1.0952 -0.6511  0.3130
 1988SOL    HW223107   0.259   5.027   0.959 -0.2437  0.1343 -0.7040
 1989SOL     OW23108   2.714   0.480   6.741  0.1742 -0.0420  0.2072
 1989SOL    HW123109   2.760   0.564   6.733 -1.5035  1.2758  2.7925
 1989SOL    HW223110   2.782   0.414   6.732  1.7878  1.6294 -0.5069
 1990SOL     OW23111   4.134   6.010   1.489  0.4939  0.3191  0.4174
 1990SOL    HW123112   4.118   6.105   1.486  0.8717  0.4856  2.2454
 1990SOL    HW223113   4.125   5.981   1.398 -0.7230  1.9213 -0.0254
 1991SOL     OW23114   4.512   0.527   7.018 -0.3792 -0.0431  0.2208
 1991SOL    HW123115   4.509   0.541   6.923 -1.9345 -1.2752  0.0570
 1991SOL    HW223116   4.421   0.519   7.044  0.0835 -1.1255  1.6073
 1992SOL     OW23117   2.465   4.867   2.431 -0.5360 -0.2894  0.4953
 1992SOL    HW123118   2.472   4.778   2.465 -2.1993 -0.8724 -0.5212
 1992SOL    HW223119   2.549   4.908   2.451  0.4339 -2.2263  0.5998
 1993SOL     OW23120   5.027   5.586   5.940  0.0507 -0.3286 -0.3596
 1993SOL    HW123121   4.983   5.585   5.855  1.0836 -0.1225 -0.9054
 1993SOL    HW223122   5.113   5.548   5.924 -0.0590 -1.1215  0.7822
 1994SOL     OW23123   3.985   4.472   7.514  0.1783 -0.4611 -0.5485
 1994SOL    HW123124   4.037   4.529   7.457  0.1912 -0.7807 -0.8644
 1994SOL    HW223125   3.973   4.522   7.594  2.0017 -0.8342  0.0197
 1995SOL     OW23126   3.761   4.425   0.833  0.3055 -0.4117  0.0053
 1995SOL    HW123127   3.679   4.401   0.790  1.5924 -1.1563 -2.2292
 1995SOL    HW223128   3.776   4.516   0.808  1.0764 -0.8584 -1.2634
 1996SOL     OW23129   3.239   2.239   7.437  0.2563 -0.7936 -0.5540
 1996SOL    HW123130   3.225   2.334   7.439  0.0900 -0.7918  1.8986
 1996SOL    HW223131   3.151   2.201   7.440  0.3405 -1.0244 -0.9322
 1997SOL     OW23132   0.306   0.368   0.463 -0.3948 -0.2490 -0.4910
 1997SOL    HW123133   0.220   0.335   0.487 -0.3047 -0.4928 -0.4981
 1997SOL    HW223134   0.362   0.290   0.460  0.1729  0.0548  0.9713
 1998SOL     OW23135   1.474   0.182   6.418  0.3092  0.0727  0.3461
 1998SOL    HW123136   1.437   0.095   6.430 -1.7574  0.7781 -0.2872
 1998SOL    HW223137   1.568   0.171   6.425  0.0599 -2.1280  0.6850
 1999SOL     OW23138   1.016   5.353   0.157  0.1340 -0.4646 -0.2914
 1999SOL    HW123139   1.091   5.362   0.099  1.8387 -0.5023  1.7880
 1999SOL    HW223140   1.027   5.422   0.222  0.1078 -2.3467  1.8421
 2000SOL     OW23141   2.211   5.307   7.108  0.5495 -0.5854  0.4014
 2000SOL    HW123142   2.276   5.307   7.178  1.7390  1.4369 -0.6004
 2000SOL    HW223143   2.257   5.275   7.031 -0.4611 -1.8279  0.2867
 2001SOL     OW23144   1.723   0.001   5.451 -0.1989  0.4831  0.3778
 2001SOL    HW123145   1.639  -0.039   5.429 -0.0946  0.1326  0.6072
 2001SOL    HW223146   1.778  -0.014   5.375 -0.4137  0.9130  0.1365
 2002SOL     OW23147   0.478   5.368   1.959  0.3258 -0.0936  0.6770
 2002SOL    HW123148   0.399   5.349   2.011  0.0628  1.3153  0.8561
 2002SOL    HW223149   0.451   5.439   1.901  1.3788  0.1804  0.5049
 2003SOL     OW23150   5.202   0.892   0.485 -0.3596  0.2646 -0.3239
 2003SOL    HW123151   5.161   0.825   0.538  1.5475 -0.6305  0.1309
 2003SOL    HW223152   5.165   0.880   0.397  0.7335 -2.1804 -0.5257
 2004SOL     OW23153   0.797   0.318   6.221  0.1298  0.5760  0.5515
 2004SOL    HW123154   0.736   0.389   6.199  0.6832  1.1279  0.7813
 2004SOL    HW223155   0.884   0.355   6.208  0.4919  0.7282  2.9263
 2005SOL     OW23156   3.418   1.563   0.385  0.1906  0.0031 -0.5319
 2005SOL    HW123157   3.343   1.612   0.352  0.7765  0.9354 -0.5152
 2005SOL    HW223158   3.491   1.624   0.377  0.9307 -0.8709 -0.4777
 2006SOL     OW23159   0.766   0.209   6.506  0.0070  0.7001  0.2273
 2006SOL    HW123160   0.837   0.149   6.528 -0.4167 -0.7909 -2.1700
 2006SOL    HW223161   0.788   0.244   6.420 -2.1042  0.1584 -0.6135
 2007SOL     OW23162   0.771   6.030   1.089  0.6229 -0.0389 -0.4291
 2007SOL    HW123163   0.805   6.104   1.138 -2.9649  0.5849  1.4623
 2007SOL    HW223164   0.795   5.953   1.141  0.1930  0.2806  0.2593
 2008SOL     OW23165   3.560   4.163   7.596 -0.3374  0.3968 -0.1768
 2008SOL    HW123166   3.495   4.200   7.536 -0.3220  0.2001 -0.3118
 2008SOL    HW223167   3.545   4.210   7.678  0.7761  1.9168 -0.7926
 2009SOL     OW23168   0.558   3.202   2.537  0.3298 -0.4096 -0.2985
 2009SOL    HW123169   0.558   3.235   2.447 -0.6321 -0.0278 -0.1664
 2009SOL    HW223170   0.646   3.220   2.569 -0.3073  2.7502  0.0086
 2010SOL     OW23171   2.474   0.922   1.104  0.7273  0.3644 -0.5327
 2010SOL    HW123172   2.386   0.914   1.141  0.2880  3.4319 -0.5732
 2010SOL    HW223173   2.513   0.996   1.151  1.8419  1.4948 -3.0305
 2011SOL     OW23174   0.974   5.115   6.934 -0.0686  0.0702  0.6543
 2011SOL    HW123175   1.048   5.157   6.890  0.6602 -3.3626 -1.7474
 2011SOL    HW223176   0.897   5.166   6.907  1.1372  2.9016  2.1540
 2012SOL     OW23177   3.708   1.463   6.412  0.0854  0.1914 -0.2573
 2012SOL    HW123178   3.674   1.546   6.379  0.4734 -0.2719 -1.9128
 2012SOL    HW223179   3.663   1.396   6.361 -1.3962 -0.7557  2.1228
 2013SOL     OW23180   3.082   1.371   6.370 -0.2132 -0.0706 -0.4494
 2013SOL    HW123181   3.166   1.391   6.330  0.3769  1.0891  1.2617
 2013SOL    HW223182   3.032   1.452   6.364  0.5280  0.7348  2.5338
 2014SOL     OW23183   0.994   5.443   0.451  0.2396 -0.2538 -0.1697
 2014SOL    HW123184   1.019   5.502   0.380  0.4092  0.3183  0.3586
 2014SOL    HW223185   0.903   5.467   0.472 -0.1119 -1.0167 -0.7779
 2015SOL     OW23186   5.402   2.211   0.506 -0.1199 -0.2715  0.4541
 2015SOL    HW123187   5.365   2.298   0.522 -1.1001 -0.7992  1.1250
 2015SOL    HW223188   5.475   2.205   0.568 -1.3191 -0.6957  1.8807
 2016SOL     OW23189   5.107   3.755   6.724  0.1759 -0.3448 -0.1202
 2016SOL    HW123190   5.018   3.726   6.743  0.6406 -1.7505  0.0425
 2016SOL    HW223191   5.153   3.747   6.807  0.5943 -0.1548 -0.3290
 2017SOL     OW23192   0.790   5.211   0.367 -0.0621  0.0905  0.2775
 2017SOL    HW123193   0.876   5.183   0.337  0.2635  2.0326 -0.8081
 2017SOL    HW223194   0.806   5.296   0.408 -1.3574  0.1357  0.7414
 2018SOL     OW23195   5.007   5.236   7.534 -0.1875  0.5993  0.0942
 2018SOL    HW123196   5.013   5.304   7.468 -0.3699 -0.0941 -0.6607
 2018SOL    HW223197   5.006   5.282   7.617  1.4611  1.4278 -0.3115
 2019SOL     OW23198   1.521   1.920   6.834 -0.2850  0.2736  0.8069
 2019SOL    HW123199   1.575   1.851   6.872 -0.1912  0.6700  1.4067
 2019SOL    HW223200   1.464   1.875   6.772 -1.5612 -0.6551  2.5584
 2020SOL     OW23201   1.752   5.967   0.672 -0.0298  0.5301  0.0710
 2020SOL    HW123202   1.767   5.993   0.763  0.9862 -0.2400  0.1375
 2020SOL    HW223203   1.699   6.039   0.635  0.4785  1.3862  0.9590
 2021SOL     OW23204   3.259   2.854   6.521 -0.8613  0.0138 -0.4866
 2021SOL    HW123205   3.289   2.922   6.460  1.1396 -1.4206 -1.2196
 2021SOL    HW223206   3.269   2.894   6.608  0.6995  0.5745 -0.8788
 2022SOL     OW23207   5.981   2.266   0.495 -0.3334 -0.3975 -0.0138
 2022SOL    HW123208   5.922   2.340   0.482  0.3052  0.1169  0.0344
 2022SOL    HW223209   5.984   2.254   0.590  2.1432  1.6317  0.2444
 2023SOL     OW23210   4.668   5.196   6.707  0.9256 -0.5080  0.2536
 2023SOL    HW123211   4.737   5.250   6.669  1.3173  0.1682  1.8631
 2023SOL    HW223212   4.600   5.258   6.732  0.3315 -1.0244 -0.0451
 2024SOL     OW23213   2.259   1.210   1.091  0.1579  0.0314  0.8045
 2024SOL    HW123214   2.348   1.246   1.100  0.7542 -0.9042 -0.9399
 2024SOL    HW223215   2.206   1.285   1.067  0.8945  0.2520 -0.2122
 2025SOL     OW23216   1.112   5.788   1.160  0.6143 -0.1818  0.1260
 2025SOL    HW123217   1.038   5.733   1.132 -0.6733  1.7865 -0.5467
 2025SOL    HW223218   1.132   5.759   1.249 -0.9216 -0.8014  0.2900
 2026SOL     OW23219   4.059   0.081   1.313  0.3352  0.3337  0.2140
 2026SOL    HW123220   4.107   0.054   1.235  1.1703  0.2465  0.7449
 2026SOL    HW223221   3.970   0.047   1.300  0.8443 -0.9386 -0.0505
 2027SOL     OW23222   6.050   5.697   7.028 -0.4670 -0.1387  0.0763
 2027SOL    HW123223   6.144   5.679   7.021 -0.0808  1.9975 -1.6589
 2027SOL    HW223224   6.044   5.792   7.017 -2.8644 -0.2767 -0.2269
 2028SOL     OW23225   2.424   0.372   7.423  0.0035  0.1539 -0.3259
 2028SOL    HW123226   2.467   0.457   7.425 -1.7279  1.0449  0.1190
 2028SOL    HW223227   2.467   0.322   7.493  0.5414  0.8872 -0.1199
 2029SOL     OW23228   2.155   6.252   0.778 -0.3960 -0.0538 -0.8417
 2029SOL    HW123229   2.222   6.184   0.786 -1.7331 -1.2467  1.3138
 2029SOL    HW223230   2.148   6.291   0.865 -0.7273  1.8484 -1.6649
 2030SOL     OW23231   2.151   2.965   0.869 -0.0105 -0.0412  0.6238
 2030SOL    HW123232   2.244   2.955   0.887  0.0610  0.9227  0.8505
 2030SOL    HW223233   2.146   3.034   0.804 -0.5945  0.3409  1.0633
 2031SOL     OW23234   3.133   4.356   7.308  0.0763 -0.4039 -0.0332
 2031SOL    HW123235   3.140   4.302   7.229  1.4750 -0.6210  0.2032
 2031SOL    HW223236   3.039   4.367   7.322 -0.1996 -0.5155 -1.6135
 2032SOL     OW23237   5.117   0.725   7.293  0.1332  0.0481 -0.0202
 2032SOL    HW123238   5.124   0.820   7.303  0.5983 -0.1520  1.8465
 2032SOL    HW223239   5.198   0.690   7.329 -0.5382 -1.1159  0.4249
 2033SOL     OW23240   3.539   5.726   6.972 -0.7280  0.1938  0.4557
 2033SOL    HW123241   3.573   5.637   6.959 -0.9188  0.2195 -0.2755
 2033SOL    HW223242   3.565   5.749   7.061  0.7804  0.0378  0.0857
 2034SOL     OW23243   2.538   4.303   5.400  0.2151 -0.5622 -0.0752
 2034SOL    HW123244   2.620   4.318   5.448 -0.6931  1.3584  1.0350
 2034SOL    HW223245   2.515   4.389   5.365 -0.2037 -1.5249 -2.3418
 2035SOL     OW23246   4.326   5.779   6.821  0.4374 -0.1220 -0.3877
 2035SOL    HW123247   4.313   5.786   6.915  0.2552  2.8521 -0.5367
 2035SOL    HW223248   4.238   5.786   6.784  0.7494  3.7445 -0.8248
 2036SOL     OW23249   2.190   5.388   7.490 -0.4806 -0.5600  0.4973
 2036SOL    HW123250   2.245   5.344   7.425 -2.3854  0.6157 -2.0949
 2036SOL    HW223251   2.170   5.321   7.554  1.7648 -1.7152  0.0910
 2037SOL     OW23252   5.125   2.320   5.880 -0.1635 -0.0237 -0.2738
 2037SOL    HW123253   5.139   2.241   5.827 -0.1404 -0.1415 -0.0910
 2037SOL    HW223254   5.117   2.390   5.815 -0.8391 -0.2737 -0.4634
 2038SOL     OW23255   3.754   5.547   6.513  0.2345  0.0156 -0.2605
 2038SOL    HW123256   3.668   5.521   6.546 -1.0921  0.7849 -2.8972
 2038SOL    HW223257   3.743   5.638   6.486  2.2986  0.5682  0.5352
 2039SOL     OW23258   0.201   2.960   1.255 -0.0051  0.1235 -0.4883
 2039SOL    HW123259   0.197   3.037   1.311  0.3232  1.6774 -2.4907
 2039SOL    HW223260   0.293   2.936   1.254 -0.2764 -1.1883  1.1909
 2040SOL     OW23261   3.632   3.630   1.336  0.1399  0.1767 -0.0435
 2040SOL    HW123262   3.723   3.606   1.351 -0.6328 -2.7773  0.7439
 2040SOL    HW223263   3.603   3.669   1.419  0.3287 -0.2987  0.2527
 2041SOL     OW23264   3.705   6.184   6.300  0.2190  0.4148  0.0651
 2041SOL    HW123265   3.664   6.098   6.304 -0.0592  0.5629  0.3860
 2041SOL    HW223266   3.773   6.175   6.233  2.5827 -1.0739  2.4688
 2042SOL     OW23267   2.653   6.002   0.562 -0.0968  0.9039 -0.7392
 2042SOL    HW123268   2.709   6.023   0.487 -0.1497  0.1268 -1.0142
 2042SOL    HW223269   2.705   6.025   0.638  1.2452 -1.1613 -0.9409
 2043SOL     OW23270   5.550   0.956   6.573  0.3688 -0.6039  0.3781
 2043SOL    HW123271   5.586   0.945   6.661  0.6451  0.5200  0.4205
 2043SOL    HW223272   5.491   0.882   6.562 -2.4367  1.0199  2.8726
 2044SOL     OW23273   6.039   0.437   0.638 -0.0166  0.6671 -0.1079
 2044SOL    HW123274   6.029   0.399   0.551  1.4528  1.1621 -0.5317
 2044SOL    HW223275   6.110   0.500   0.628  0.1773  0.7338  1.4534
 2045SOL     OW23276   4.376   4.454   0.335  0.1783  0.1580 -0.1487
 2045SOL    HW123277   4.384   4.359   0.326 -1.0326 -0.0423  0.5976
 2045SOL    HW223278   4.405   4.490   0.251 -1.8208 -1.0193 -1.4023
 2046SOL     OW23279   0.478   3.918   7.761  0.0350  0.0093  0.2486
 2046SOL    HW123280   0.434   4.003   7.761 -1.0907 -0.4774 -2.3134
 2046SOL    HW223281   0.526   3.916   7.678  1.9605 -0.9668  1.3247
 2047SOL     OW23282   2.835   5.392   0.805 -0.0282 -0.7401  0.0645
 2047SOL    HW123283   2.852   5.307   0.846 -0.2781 -1.1892 -0.7485
 2047SOL    HW223284   2.822   5.452   0.879  0.0646 -1.4199  0.6443
 2048SOL     OW23285   1.891   2.797   6.799  0.2575 -0.0942 -0.6358
 2048SOL    HW123286   1.859   2.709   6.814 -0.1181 -0.0551 -1.1781
 2048SOL    HW223287   1.874   2.844   6.881  1.3254 -0.7666 -0.0112
 2049SOL     OW23288   5.214   0.906   1.227 -0.3764 -0.5655 -0.1357
 2049SOL    HW123289   5.251   0.828   1.186 -1.3899 -2.5137  2.3775
 2049SOL    HW223290   5.287   0.945   1.274  0.4350  0.8373 -2.3953
 2050SOL     OW23291   5.392   4.046   6.405  0.0499 -0.1122 -0.4104
 2050SOL    HW123292   5.338   4.039   6.326  0.3017 -0.1548 -0.5804
 2050SOL    HW223293   5.332   4.028   6.477 -0.1869 -0.0525 -0.5922
 2051SOL     OW23294   2.830   1.035   6.278 -0.1223  0.3575  0.0504
 2051SOL    HW123295   2.862   1.115   6.319  0.2544 -0.1092  0.6739
 2051SOL    HW223296   2.835   1.053   6.184 -0.3155  1.1687  0.1895
 2052SOL     OW23297   2.290   1.782   0.481  0.1782 -0.2450 -0.3763
 2052SOL    HW123298   2.236   1.837   0.425  0.1509 -0.3469 -0.4509
 2052SOL    HW223299   2.233   1.709   0.504 -0.5994  0.9354  1.6711
 2053SOL     OW23300   6.334   4.218   6.298  0.3019 -0.2417 -0.4838
 2053SOL    HW123301   6.426   4.226   6.274 -0.0463  0.4548 -1.6190
 2053SOL    HW223302   6.286   4.233   6.217 -0.7905 -1.7804 -0.1636
 2054SOL     OW23303   1.565   4.807   6.707 -0.0710  0.0572  0.1041
 2054SOL    HW123304   1.565   4.744   6.779 -0.6698 -0.4877 -0.3598
 2054SOL    HW223305   1.527   4.759   6.633  0.2279  0.7102 -0.4841
 2055SOL     OW23306   4.224   6.290   0.101  0.0739  0.5561 -0.4595
 2055SOL    HW123307   4.189   6.217   0.050  0.8677 -0.2208  0.0926
 2055SOL    HW223308   4.155   6.311   0.164  0.9558 -1.7072  1.3813
 2056SOL     OW23309   2.474   3.195   6.676 -0.2702 -0.0367  0.3875
 2056SOL    HW123310   2.452   3.164   6.589  0.2572 -1.5591  0.7508
 2056SOL    HW223311   2.396   3.241   6.707 -0.3926  0.6759 -0.9291
 2057SOL     OW23312   3.757   0.800   6.924  0.3320 -0.8316 -0.0488
 2057SOL    HW123313   3.724   0.769   6.840  0.2084 -2.2913  0.5153
 2057SOL    HW223314   3.715   0.744   6.989  1.3269 -0.5010  0.9146
 2058SOL     OW23315   4.310   5.443   7.181  0.2950 -0.5667  0.2421
 2058SOL    HW123316   4.293   5.390   7.104  2.5230  0.7235 -1.2611
 2058SOL    HW223317   4.233   5.498   7.191  0.4861  0.1970 -1.9506
 2059SOL     OW23318   5.499   5.371   0.226 -0.2551  0.2959  0.0652
 2059SOL    HW123319   5.474   5.457   0.261 -1.6603 -0.0527 -0.0150
 2059SOL    HW223320   5.508   5.315   0.303  1.3009  0.6325  0.1708
 2060SOL     OW23321   1.212   1.425   5.794  0.0514 -0.0341 -0.0210
 2060SOL    HW123322   1.118   1.411   5.797 -0.0608  0.8671  1.4930
 2060SOL    HW223323   1.222   1.511   5.753  0.0411  0.9872  1.9971
 2061SOL     OW23324   6.413   2.951   5.889 -0.5290  0.1294 -0.6296
 2061SOL    HW123325   6.329   2.920   5.924 -0.5641  1.0633  0.1646
 2061SOL    HW223326   6.408   2.934   5.795 -0.3283 -2.7489 -0.2247
 2062SOL     OW23327   1.398   3.501   0.478  0.0982  0.2427 -0.3823
 2062SOL    HW123328   1.304   3.488   0.463  0.4111 -2.0290 -0.6647
 2062SOL    HW223329   1.407   3.596   0.489 -2.0764  0.6262 -1.3362
 2063SOL     OW23330   4.236   4.203   0.828  0.5019  0.0166 -0.6309
 2063SOL    HW123331   4.280   4.236   0.750  1.9975  1.4901  0.7448
 2063SOL    HW223332   4.192   4.280   0.864  1.0992 -0.2727  0.7645
 2064SOL     OW23333   1.801   2.933   1.375  0.3472 -0.0333  0.2551
 2064SOL    HW123334   1.708   2.910   1.369 -0.2882  2.4102 -0.3825
 2064SOL    HW223335   1.844   2.875   1.313 -1.4901  1.9853 -3.2609
 2065SOL     OW23336   1.924   1.749   6.837 -0.3568 -0.1325  0.3823
 2065SOL    HW123337   1.865   1.786   6.903 -1.1818 -1.6524  0.5324
 2065SOL    HW223338   1.975   1.684   6.884 -0.0369 -0.3133 -0.2148
 2066SOL     OW23339   5.501   5.248   1.196  0.2376  0.0840  0.0956
 2066SOL    HW123340   5.471   5.237   1.106  1.6880 -2.2841 -0.1870
 2066SOL    HW223341   5.437   5.307   1.236 -1.5019 -0.2971 -1.9592
 2067SOL     OW23342   1.228   1.964   5.192  0.2067  0.1497  0.0290
 2067SOL    HW123343   1.270   1.916   5.120  1.5837 -0.7927  1.3973
 2067SOL    HW223344   1.279   1.941   5.269 -0.5826  1.9593  1.1601
 2068SOL     OW23345   0.724   6.197   2.148  0.2715  0.2314 -0.5060
 2068SOL    HW123346   0.668   6.240   2.212  1.0201  0.6320 -0.1133
 2068SOL    HW223347   0.664   6.144   2.095 -0.4439  0.4914  0.0390
 2069SOL     OW23348   2.577   4.930   1.895  0.4706 -0.1823 -0.3891
 2069SOL    HW123349   2.518   4.962   1.826  0.4955 -0.0975 -0.3712
 2069SOL    HW223350   2.656   4.903   1.848  0.5155 -0.0561 -0.3860
 2070SOL     OW23351   5.905   6.160   1.202  0.1678  0.0245  0.4065
 2070SOL    HW123352   5.883   6.073   1.170  2.1308  0.0422 -1.1739
 2070SOL    HW223353   5.823   6.194   1.238 -0.6784 -2.3856  0.9256
 2071SOL     OW23354   0.998   0.444   0.670 -0.0687 -0.2708  0.1222
 2071SOL    HW123355   1.082   0.465   0.631 -0.2700 -0.0324 -0.1870
 2071SOL    HW223356   0.937   0.508   0.633 -0.4521 -0.6497  0.0908
 2072SOL     OW23357   4.456   2.624   1.523 -0.4283 -0.0982 -0.3234
 2072SOL    HW123358   4.426   2.637   1.613 -0.6517 -0.0675 -0.4009
 2072SOL    HW223359   4.380   2.588   1.477 -0.1089 -0.7864 -0.3390
 2073SOL     OW23360   4.933   0.895   7.060 -0.0703 -0.5481 -1.0229
 2073SOL    HW123361   4.839   0.895   7.041 -0.2490  1.1070 -0.3199
 2073SOL    HW223362   4.940   0.857   7.148 -0.1779  0.0034 -0.7689
 2074SOL     OW23363   3.427   3.708   1.545 -0.2101 -0.3864  0.4861
 2074SOL    HW123364   3.387   3.709   1.458 -0.8464 -3.1023  0.6753
 2074SOL    HW223365   3.357   3.739   1.603 -0.3695 -0.2914  0.2492
 2075SOL     OW23366   0.632   5.391   5.707  0.1114  0.0376 -0.5787
 2075SOL    HW123367   0.669   5.476   5.685 -0.2756  0.6517  1.0050
 2075SOL    HW223368   0.700   5.348   5.760 -0.6709  0.4403  0.8095
 2076SOL     OW23369   2.364   5.240   7.349 -0.3557  0.5013 -0.2430
 2076SOL    HW123370   2.437   5.247   7.287 -0.3068 -3.2444 -0.8696
 2076SOL    HW223371   2.386   5.164   7.403 -1.9236  1.7414  2.3208
 2077SOL     OW23372   3.650   3.483   6.575 -0.1456  0.1628  0.0491
 2077SOL    HW123373   3.706   3.535   6.632 -0.1541  0.0574  0.1517
 2077SOL    HW223374   3.563   3.491   6.614 -0.0456 -0.4184  0.4031
 2078SOL     OW23375   2.656   2.832   5.909  0.0341 -0.0044 -0.4334
 2078SOL    HW123376   2.622   2.916   5.940 -0.3767 -0.2820 -0.1054
 2078SOL    HW223377   2.629   2.770   5.977  0.2489 -0.4153 -0.7210
 2079SOL     OW23378   0.049   2.633   6.480 -0.3263  0.0416 -0.1164
 2079SOL    HW123379   0.078   2.542   6.488  0.4107  0.3939  1.6389
 2079SOL    HW223380  -0.040   2.633   6.513 -1.2222 -0.4280 -2.3559
 2080SOL     OW23381   0.186   4.406   0.158  0.3943 -0.4010  0.2670
 2080SOL    HW123382   0.255   4.394   0.224 -1.0116  0.0862  1.9027
 2080SOL    HW223383   0.141   4.321   0.156 -0.5358  0.0519  1.1292
 2081SOL     OW23384   0.521   3.198   6.328  0.5542 -0.1326 -0.3938
 2081SOL    HW123385   0.461   3.272   6.329  1.7344  0.8469  0.2150
 2081SOL    HW223386   0.465   3.121   6.321 -0.7816  0.7328  0.5220
 2082SOL     OW23387   0.713   1.605   7.195  0.0641 -0.3575 -0.0524
 2082SOL    HW123388   0.716   1.690   7.151 -1.4582 -0.2566 -0.0174
 2082SOL    HW223389   0.796   1.599   7.243  1.4038 -0.1039 -2.2203
 2083SOL     OW23390   4.763   4.122   0.911  0.2910 -0.2968 -0.3273
 2083SOL    HW123391   4.834   4.151   0.853 -0.3777 -1.2304 -1.6693
 2083SOL    HW223392   4.683   4.140   0.861 -0.3575 -0.4706  0.6223
 2084SOL     OW23393   1.269   0.540   5.322  0.5135 -0.1536 -0.4994
 2084SOL    HW123394   1.362   0.529   5.344  0.6884 -1.2606 -1.6352
 2084SOL    HW223395   1.253   0.634   5.332  1.6469 -0.0026  0.1154
 2085SOL     OW23396   5.748   4.933   7.158  0.1497 -0.5050 -0.4973
 2085SOL    HW123397   5.807   4.868   7.198  1.3653  0.5945 -0.4207
 2085SOL    HW223398   5.678   4.881   7.119  1.2002 -1.8790 -0.6297
 2086SOL     OW23399   2.121   0.286   1.178  0.6537 -0.2293  0.1401
 2086SOL    HW123400   2.214   0.308   1.182  0.2895  2.9197 -3.3981
 2086SOL    HW223401   2.119   0.191   1.165  3.5164 -0.1527 -1.5168
 2087SOL     OW23402   4.510   3.635   6.720  0.0815  0.0151 -0.0342
 2087SOL    HW123403   4.587   3.614   6.667  0.2208  2.6105 -1.0345
 2087SOL    HW223404   4.441   3.654   6.656 -0.9668 -0.7729  0.8236
 2088SOL     OW23405   4.487   6.295   6.487  0.7999  0.1640  0.0091
 2088SOL    HW123406   4.459   6.310   6.397  0.0765  1.0700  0.3637
 2088SOL    HW223407   4.463   6.375   6.533  0.3026 -0.6389  1.2078
 2089SOL     OW23408   4.831   1.657   0.981 -0.1639  0.1990  0.5896
 2089SOL    HW123409   4.763   1.724   0.989 -1.6088 -0.8965 -1.4822
 2089SOL    HW223410   4.797   1.597   0.915  1.3098 -2.2810  1.9290
 2090SOL     OW23411   4.639   5.272   1.144  0.1060  0.1563 -0.3111
 2090SOL    HW123412   4.600   5.325   1.074 -1.2432  0.9876  1.0029
 2090SOL    HW223413   4.580   5.197   1.152  0.0320  0.2575  0.1570
 2091SOL     OW23414   1.389   3.035   6.716  0.0171  0.1120 -0.3982
 2091SOL    HW123415   1.312   3.069   6.761 -0.8104 -1.0600 -0.8918
 2091SOL    HW223416   1.386   3.075   6.629 -0.5818 -0.6733 -0.7474
 2092SOL     OW23417   0.589   4.104   0.225 -0.5675  0.2877  0.1349
 2092SOL    HW123418   0.611   4.187   0.183 -2.8523  0.9961  0.2286
 2092SOL    HW223419   0.610   4.038   0.159  0.7831  0.9438 -0.1319
 2093SOL     OW23420   0.486   2.343   7.431 -0.1674 -0.3198  0.2170
 2093SOL    HW123421   0.418   2.364   7.495 -0.7345  2.3598 -1.0849
 2093SOL    HW223422   0.566   2.334   7.483 -1.2279 -2.2186  1.6370
 2094SOL     OW23423   4.053   5.305   2.179 -0.2219  0.3030 -0.6681
 2094SOL    HW123424   3.985   5.342   2.235  0.6857  0.5588  0.2929
 2094SOL    HW223425   4.057   5.364   2.104 -0.7966  0.4837 -0.5653
 2095SOL     OW23426   5.270   0.425   0.173  0.4598 -0.0354 -0.2534
 2095SOL    HW123427   5.332   0.352   0.174  0.1499 -0.3004 -0.4734
 2095SOL    HW223428   5.317   0.495   0.128 -0.1353 -0.8884 -2.2808
 2096SOL     OW23429   3.812   5.231   6.729  0.5359 -0.0719 -0.5323
 2096SOL    HW123430   3.789   5.176   6.804  2.2205 -0.5692 -0.3442
 2096SOL    HW223431   3.753   5.203   6.659 -0.9675  0.2986  0.5280
 2097SOL     OW23432   4.149   5.452   0.279  0.3723  0.5833 -0.0996
 2097SOL    HW123433   4.151   5.547   0.296 -0.6076  0.6903 -0.5430
 2097SOL    HW223434   4.094   5.417   0.349 -0.6573  0.5623 -0.9074
 2098SOL     OW23435   0.287   3.277   7.695 -0.0638 -0.2879  1.2694
 2098SOL    HW123436   0.194   3.254   7.694 -0.3229  0.7065  1.5848
 2098SOL    HW223437   0.295   3.339   7.767  0.6221  0.5758  0.4612
 2099SOL     OW23438   6.462   3.298   6.840 -0.1756 -0.0788  0.0089
 2099SOL    HW123439   6.529   3.233   6.815 -0.1486 -0.8044  1.8348
 2099SOL    HW223440   6.409   3.253   6.906 -2.1487  0.6892 -1.0022
 2100SOL     OW23441   0.779   1.640   0.732  0.0372  0.3315 -0.3176
 2100SOL    HW123442   0.748   1.550   0.722 -0.4275  0.7181 -3.1568
 2100SOL    HW223443   0.825   1.640   0.816 -0.2251 -2.4617 -0.0707
 2101SOL     OW23444   3.270   0.976   5.416 -0.4785 -0.2670  0.3517
 2101SOL    HW123445   3.316   0.900   5.382 -0.0785  0.3699 -0.5631
 2101SOL    HW223446   3.257   1.032   5.340 -0.9363  0.4979  0.9788
 2102SOL     OW23447   3.408   0.229   7.244 -0.9813 -0.2585 -0.3710
 2102SOL    HW123448   3.452   0.259   7.164 -1.9137 -0.3003 -0.9181
 2102SOL    HW223449   3.326   0.278   7.246 -1.0043 -0.3125  0.5370
 2103SOL     OW23450   0.886   4.640   1.048 -0.6506 -0.7086 -0.3031
 2103SOL    HW123451   0.869   4.552   1.014 -2.6147  0.3476 -2.2709
 2103SOL    HW223452   0.907   4.692   0.970 -1.3422  0.9667  0.5868
 2104SOL     OW23453   2.208   2.088   1.942  0.2089 -0.5626  0.0904
 2104SOL    HW123454   2.120   2.082   1.978 -1.2111  2.4599 -2.5037
 2104SOL    HW223455   2.263   2.047   2.009 -2.9711 -1.6756  2.2677
 2105SOL     OW23456   0.098   2.223   6.094 -0.1695 -0.4596 -0.0919
 2105SOL    HW123457   0.123   2.134   6.069 -2.7935 -0.9093 -1.5638
 2105SOL    HW223458   0.002   2.219   6.102 -0.3467  2.1907  0.0167
 2106SOL     OW23459   5.031   5.243   0.066 -0.4106 -0.7969  0.0921
 2106SOL    HW123460   5.113   5.263   0.111 -0.0325 -1.1316 -0.4307
 2106SOL    HW223461   4.963   5.285   0.119  0.1410 -0.1241  0.2807
 2107SOL     OW23462   1.120   4.717   7.205 -0.0782  0.1068 -0.2208
 2107SOL    HW123463   1.120   4.808   7.175  0.1131 -0.3662 -1.7022
 2107SOL    HW223464   1.072   4.669   7.138 -0.0809 -0.9187  0.4859
 2108SOL     OW23465   1.285   5.189   1.401 -0.1032  0.1950  0.2686
 2108SOL    HW123466   1.291   5.269   1.454  1.8965 -1.8585  3.4688
 2108SOL    HW223467   1.191   5.174   1.389 -0.5326  2.5503  0.2084
 2109SOL     OW23468   4.286   6.299   7.028 -0.7944 -0.0355  0.4887
 2109SOL    HW123469   4.368   6.264   6.994  0.9104  3.0351  1.0992
 2109SOL    HW223470   4.249   6.349   6.955 -0.8175  0.6600  0.9692
 2110SOL     OW23471   5.445   1.634   5.713  0.7506 -0.5115  0.0838
 2110SOL    HW123472   5.486   1.718   5.732  0.3351 -0.3699  0.3791
 2110SOL    HW223473   5.497   1.570   5.763  0.3761 -0.2830  0.7795
 2111SOL     OW23474   0.976   6.169   0.865 -0.0112  0.4044 -0.3726
 2111SOL    HW123475   0.905   6.109   0.843 -0.6725  0.5794  1.1582
 2111SOL    HW223476   0.986   6.223   0.787 -1.4376  0.2468 -0.7048
 2112SOL     OW23477   6.023   6.188   6.916  0.1909  0.3121  0.9241
 2112SOL    HW123478   6.033   6.262   6.857 -1.1234 -0.0195  0.2617
 2112SOL    HW223479   6.026   6.227   7.004  0.0815  1.0755  0.5967
 2113SOL     OW23480   5.449   6.165   0.418 -0.1467  0.3129 -0.2497
 2113SOL    HW123481   5.544   6.176   0.416 -0.0176 -0.8490 -1.0537
 2113SOL    HW223482   5.422   6.212   0.497  1.2742 -0.6178  0.8413
 2114SOL     OW23483   0.251   3.639   1.192  0.7512 -0.0418 -0.0939
 2114SOL    HW123484   0.329   3.694   1.189  1.4183 -0.9867 -0.4229
 2114SOL    HW223485   0.195   3.673   1.123  1.4739 -0.2195 -0.7829
 2115SOL     OW23486   5.818   1.272   7.660 -0.4716 -0.7288  0.7145
 2115SOL    HW123487   5.726   1.247   7.662 -0.7843  0.0050 -1.5233
 2115SOL    HW223488   5.820   1.361   7.695 -1.0739  0.2916 -1.6957
 2116SOL     OW23489   1.630   2.738   0.939 -0.4062  0.1166 -0.0059
 2116SOL    HW123490   1.713   2.703   0.970  0.3185 -0.0439 -1.9549
 2116SOL    HW223491   1.641   2.833   0.940 -0.7305  0.1518  1.0543
 2117SOL     OW23492   2.458   0.716   5.468 -0.5601 -0.7709  0.1274
 2117SOL    HW123493   2.531   0.657   5.451  0.1530  0.0130  0.4267
 2117SOL    HW223494   2.401   0.666   5.527  0.2178 -1.0439  0.6730
 2118SOL     OW23495   3.315   5.255   1.491  0.3360 -0.7255  0.5043
 2118SOL    HW123496   3.391   5.310   1.506 -0.0255 -0.4145  1.2460
 2118SOL    HW223497   3.350   5.177   1.448  0.7046  0.5765 -1.7289
 2119SOL     OW23498   3.634   1.420   0.505 -0.3251 -0.2600 -0.5381
 2119SOL    HW123499   3.603   1.448   0.592 -1.2275 -0.0819 -0.9006
 2119SOL    HW223500   3.554   1.407   0.454 -0.0810 -4.1063 -0.2653
 2120SOL     OW23501   1.786   2.759   0.053 -0.3421 -0.9734  0.0020
 2120SOL    HW123502   1.770   2.852   0.070 -0.4238 -0.7971 -0.9726
 2120SOL    HW223503   1.703   2.716   0.074 -0.7290 -0.6421 -0.7880
 2121SOL     OW23504   0.880   0.348   1.240 -0.3104 -0.1409  0.5205
 2121SOL    HW123505   0.939   0.390   1.178 -1.1621  0.2738 -0.0119
 2121SOL    HW223506   0.795   0.388   1.224 -0.8903 -1.2201  0.8178
 2122SOL     OW23507   2.205   2.353   0.262 -0.1757 -0.1179 -0.0399
 2122SOL    HW123508   2.249   2.343   0.346  0.3906  1.4388 -0.1109
 2122SOL    HW223509   2.130   2.410   0.280 -1.1352 -1.2779 -0.2652
 2123SOL     OW23510   1.036   5.241   0.686  0.4176 -0.6801 -0.8489
 2123SOL    HW123511   1.063   5.151   0.670  2.5266 -0.3299  0.4516
 2123SOL    HW223512   1.048   5.285   0.602 -1.0001 -1.6385 -1.6008
 2124SOL     OW23513   1.370   3.986   1.503 -0.5745  0.4233  0.6687
 2124SOL    HW123514   1.409   3.899   1.494 -2.3660 -0.3013 -0.9272
 2124SOL    HW223515   1.432   4.045   1.461  0.3000 -0.1780  1.0883
 2125SOL     OW23516   0.625   4.667   7.075  0.3085  0.4883  1.1046
 2125SOL    HW123517   0.572   4.714   7.011 -0.4925 -0.2995  1.1596
 2125SOL    HW223518   0.700   4.724   7.092  0.7374  0.5312 -0.8122
 2126SOL     OW23519   3.973   1.329   6.460 -0.0747  0.3115 -0.4725
 2126SOL    HW123520   3.900   1.384   6.429 -1.3615  0.5338  2.6246
 2126SOL    HW223521   4.036   1.390   6.497  0.7739 -0.0339 -1.3010
 2127SOL     OW23522   2.866   1.795   5.884 -0.4771  0.7648  0.3782
 2127SOL    HW123523   2.853   1.750   5.800  2.9409  0.7045 -0.2589
 2127SOL    HW223524   2.904   1.880   5.860 -2.8773  2.3674  1.7861
 2128SOL     OW23525   6.423   1.298   6.583 -0.1398  0.0615  0.3520
 2128SOL    HW123526   6.418   1.232   6.513 -1.1252 -1.1990  1.5708
 2128SOL    HW223527   6.370   1.370   6.551  0.1216 -0.1301 -0.5654
 2129SOL     OW23528   5.926   2.597   6.225  0.5004 -0.1116  0.5982
 2129SOL    HW123529   5.946   2.504   6.238 -1.5656 -1.0869 -2.2758
 2129SOL    HW223530   5.979   2.623   6.150 -1.5054 -0.0604 -0.8941
 2130SOL     OW23531   3.204   2.905   1.367 -0.5175  0.1989 -0.1881
 2130SOL    HW123532   3.294   2.915   1.336  0.7824 -1.1717  2.7159
 2130SOL    HW223533   3.171   2.995   1.375 -0.3144  0.6740 -3.3536
 2131SOL     OW23534   2.607   0.092   6.310 -0.4548 -0.2341  0.7032
 2131SOL    HW123535   2.683   0.092   6.253 -0.2003 -0.3847  1.0372
 2131SOL    HW223536   2.600   0.183   6.340 -0.8550 -0.0589  0.0864
 2132SOL     OW23537   4.920   1.914   6.766  0.1796 -0.0141 -0.7859
 2132SOL    HW123538   4.912   1.823   6.737  1.0339 -0.5956  0.7171
 2132SOL    HW223539   4.829   1.944   6.775 -0.1912 -1.4627  0.8433
 2133SOL     OW23540   3.895   4.115   7.551  0.1819 -0.2159 -0.4207
 2133SOL    HW123541   3.820   4.172   7.532  0.2199 -0.0127  0.0356
 2133SOL    HW223542   3.878   4.036   7.500 -1.6756 -1.2651  1.6760
 2134SOL     OW23543   1.609   1.025   1.152  0.5722  0.7960  0.4317
 2134SOL    HW123544   1.577   0.942   1.117  0.8758  0.9933 -0.3300
 2134SOL    HW223545   1.544   1.050   1.218  0.8840 -0.4330  1.2483
 2135SOL     OW23546   3.919   4.509   6.921  0.1099 -0.4644 -0.5357
 2135SOL    HW123547   3.930   4.488   6.828 -0.1453 -0.9207 -0.4619
 2135SOL    HW223548   3.994   4.565   6.941  0.2409 -0.4722 -0.9839
 2136SOL     OW23549   4.026   1.622   0.154 -0.1097  0.0243  0.1689
 2136SOL    HW123550   4.011   1.608   0.060 -0.0989  0.0255  0.1669
 2136SOL    HW223551   4.002   1.714   0.168  0.8868  0.3375 -0.0468
 2137SOL     OW23552   2.895   2.895   2.717  0.3997 -0.8107  0.4025
 2137SOL    HW123553   2.971   2.904   2.775  1.8832 -0.3373 -1.5353
 2137SOL    HW223554   2.908   2.810   2.674  0.2992 -0.3376 -0.5745
 2138SOL     OW23555   4.852   0.510   6.960  0.1249  0.0188  0.5759
 2138SOL    HW123556   4.787   0.580   6.956 -1.0678 -1.0755 -0.3106
 2138SOL    HW223557   4.894   0.521   7.045 -2.0526  0.0940  1.7286
 2139SOL     OW23558   1.381   0.413   0.861 -0.4884  0.3185  0.5200
 2139SOL    HW123559   1.306   0.418   0.802 -0.3461  0.9418  0.3798
 2139SOL    HW223560   1.428   0.495   0.846  0.5429 -0.3135  0.1701
 2140SOL     OW23561   6.110   6.346   1.301 -0.0748 -0.0625  0.1006
 2140SOL    HW123562   6.070   6.275   1.252  1.1144  0.0212 -1.0414
 2140SOL    HW223563   6.202   6.322   1.310  0.7778  2.0719 -1.8572
 2141SOL     OW23564   5.202   1.862   6.769 -0.3907 -0.1417  0.0281
 2141SOL    HW123565   5.272   1.903   6.821 -0.2174 -0.9887  0.4788
 2141SOL    HW223566   5.123   1.909   6.795 -0.0528  0.5908 -0.2227
 2142SOL     OW23567   3.494   3.479   5.785 -0.4837 -0.4039  0.2659
 2142SOL    HW123568   3.481   3.463   5.879  0.1161  2.6064  0.9875
 2142SOL    HW223569   3.587   3.501   5.778 -1.0103  1.8700 -0.5231
 2143SOL     OW23570   5.613   5.923   6.373 -0.3270 -0.1089  0.4233
 2143SOL    HW123571   5.633   5.895   6.284 -0.5895  0.5506  0.1502
 2143SOL    HW223572   5.566   6.006   6.362 -0.8256 -0.2852  1.1541
 2144SOL     OW23573   6.119   1.655   1.765  0.1927 -0.0959 -0.0324
 2144SOL    HW123574   6.052   1.598   1.803 -0.4040 -0.3384 -1.3718
 2144SOL    HW223575   6.195   1.598   1.754 -0.5724 -0.8730 -1.8798
 2145SOL     OW23576   0.646   3.935   7.553 -0.3204  0.5496  0.3112
 2145SOL    HW123577   0.720   3.968   7.604  0.0078  0.5640 -0.1733
 2145SOL    HW223578   0.684   3.902   7.472 -0.7250 -0.3645  0.4701
 2146SOL     OW23579   4.974   6.055   7.768 -0.5008 -0.3201  0.4161
 2146SOL    HW123580   4.995   5.965   7.794  1.2372  0.5092  2.1879
 2146SOL    HW223581   5.053   6.086   7.724 -1.5999 -0.0607 -1.4539
 2147SOL     OW23582   5.177   0.237   1.505  0.2042  0.3001 -0.3269
 2147SOL    HW123583   5.267   0.247   1.537  0.1789  1.5574 -0.5830
 2147SOL    HW223584   5.138   0.172   1.564  1.5979 -1.1596 -0.9328
 2148SOL     OW23585   0.930   5.447   7.240 -0.6560 -0.0626  0.4193
 2148SOL    HW123586   0.866   5.482   7.179  0.6317 -0.5880 -1.3006
 2148SOL    HW223587   1.010   5.439   7.189  0.8484  0.6826  2.5214
 2149SOL     OW23588   2.593   1.459   0.673 -0.3207  0.2593  0.3928
 2149SOL    HW123589   2.503   1.431   0.655 -0.4900  0.2880  1.1823
 2149SOL    HW223590   2.592   1.553   0.656 -0.5316  0.3219  0.7324
 2150SOL     OW23591   0.934   2.076   0.435 -0.5963  0.3158 -0.5949
 2150SOL    HW123592   0.900   1.992   0.466  2.5656  0.2252  3.6711
 2150SOL    HW223593   1.015   2.054   0.388 -0.0192  0.8820  0.0954
 2151SOL     OW23594   1.215   5.261   6.822 -0.2511 -0.3360  0.5440
 2151SOL    HW123595   1.261   5.180   6.799  0.1454 -0.5937  2.1296
 2151SOL    HW223596   1.225   5.316   6.745  1.8404 -0.7738  0.4294
 2152SOL     OW23597   6.378   6.315   1.202  0.7471  1.2657  0.4998
 2152SOL    HW123598   6.396   6.401   1.241  0.3336  1.8907 -0.6240
 2152SOL    HW223599   6.444   6.305   1.134 -0.0683  1.3495 -0.3245
 2153SOL     OW23600   2.017   4.815   5.522 -0.5669 -0.5408  0.1029
 2153SOL    HW123601   2.085   4.841   5.584  1.1346 -0.9136 -1.5196
 2153SOL    HW223602   2.026   4.720   5.514  0.1229 -0.3696 -1.6209
 2154SOL     OW23603   2.368   5.986   5.761 -0.0728  0.0792  0.5248
 2154SOL    HW123604   2.445   6.025   5.803 -1.0633  1.3284  1.2590
 2154SOL    HW223605   2.381   5.891   5.770  2.2016  0.1540 -0.9235
 2155SOL     OW23606   1.469   5.980   7.738 -0.3712 -0.5375  0.2177
 2155SOL    HW123607   1.416   6.017   7.809 -0.7586 -1.9356  0.6891
 2155SOL    HW223608   1.435   5.891   7.726 -0.8325 -0.0839 -2.2672
 2156SOL     OW23609   0.708   1.134   1.109  0.2300 -0.4190  0.5300
 2156SOL    HW123610   0.740   1.047   1.084  0.2325 -0.5674  1.0437
 2156SOL    HW223611   0.630   1.116   1.161  1.5113 -0.2155  2.6062
 2157SOL     OW23612   1.444   2.635   7.580  0.1686  0.4126 -0.2041
 2157SOL    HW123613   1.499   2.647   7.658 -0.0430 -0.2326  0.0483
 2157SOL    HW223614   1.430   2.724   7.547 -0.1990  0.7499  0.8066
 2158SOL     OW23615   2.217   4.687   6.137  0.1646  0.5301 -0.6738
 2158SOL    HW123616   2.288   4.626   6.117 -0.2076  0.1145 -0.7482
 2158SOL    HW223617   2.160   4.684   6.061 -0.2309  0.4277 -0.3800
 2159SOL     OW23618   2.649   1.075   0.681 -0.2133 -0.7582 -0.0642
 2159SOL    HW123619   2.604   0.993   0.662 -0.4493 -0.9850  1.3219
 2159SOL    HW223620   2.588   1.122   0.738  0.0336  0.2638 -0.6356
 2160SOL     OW23621   5.302   5.482   7.597 -0.4584 -0.6550 -0.2233
 2160SOL    HW123622   5.316   5.450   7.686  1.2633  2.0608  0.5900
 2160SOL    HW223623   5.225   5.537   7.603 -0.1603 -0.2218 -0.3294
 2161SOL     OW23624   4.540   4.420   7.306 -0.2526  0.4008  0.0221
 2161SOL    HW123625   4.515   4.427   7.399  0.8818  1.6282  0.2595
 2161SOL    HW223626   4.620   4.368   7.307 -0.4215  0.1325 -0.3128
 2162SOL     OW23627   3.152   5.347   0.633 -0.4862  0.1407  0.1185
 2162SOL    HW123628   3.124   5.343   0.725 -0.4006 -1.3779  0.0927
 2162SOL    HW223629   3.239   5.310   0.633 -0.5500 -0.0180 -0.6118
 2163SOL     OW23630   5.896   0.891   6.727 -0.1439  0.8524 -0.0225
 2163SOL    HW123631   5.886   0.952   6.654 -1.0699 -0.2119 -0.8070
 2163SOL    HW223632   5.818   0.905   6.781  0.5638  1.6754  0.8193
 2164SOL     OW23633   1.188   0.891   1.842 -0.1382 -0.4567 -0.3174
 2164SOL    HW123634   1.249   0.953   1.882 -1.2416 -0.0415  0.7850
 2164SOL    HW223635   1.224   0.805   1.862  0.5973 -0.2002 -0.5291
 2165SOL     OW23636   1.432   3.999   6.565  0.2984 -0.1577 -0.6968
 2165SOL    HW123637   1.386   4.050   6.632 -0.0071  2.4201 -2.7187
 2165SOL    HW223638   1.514   3.973   6.607 -0.7352 -0.3575  1.2966
 2166SOL     OW23639   1.229   0.845   0.635 -0.7967 -0.4850  0.6034
 2166SOL    HW123640   1.288   0.797   0.578 -0.2772 -0.0613  0.7736
 2166SOL    HW223641   1.182   0.905   0.577  0.3416  0.5503  0.7151
 2167SOL     OW23642   4.518   1.845   0.771  0.2157 -0.6200  0.2127
 2167SOL    HW123643   4.599   1.823   0.725 -0.5684 -0.1149 -1.5175
 2167SOL    HW223644   4.547   1.883   0.854  1.7062 -1.5873  0.1823
 2168SOL     OW23645   1.729   1.640   5.967  0.4402 -0.3793 -0.0170
 2168SOL    HW123646   1.660   1.604   5.912  1.0227  0.6665 -1.4940
 2168SOL    HW223647   1.769   1.709   5.914  2.8531 -1.1704  0.6311
 2169SOL     OW23648   1.530   0.810   1.933 -0.2925 -0.3790 -0.2828
 2169SOL    HW123649   1.449   0.758   1.932 -1.1716  0.8999  0.4676
 2169SOL    HW223650   1.593   0.756   1.979 -1.2489 -0.7001  0.6972
 2170SOL     OW23651   3.075   1.220   0.630 -0.4935  0.4183 -0.1297
 2170SOL    HW123652   3.022   1.166   0.571  1.3452 -0.7895 -0.7725
 2170SOL    HW223653   3.029   1.217   0.713 -0.0474 -2.9933  0.1457
 2171SOL     OW23654   3.520   5.524   1.282  0.5005 -0.5690 -0.1235
 2171SOL    HW123655   3.456   5.590   1.309  0.5842 -0.9191  0.9957
 2171SOL    HW223656   3.468   5.455   1.240  0.4828  0.4860 -1.9239
 2172SOL     OW23657   0.757   0.905   5.990 -0.8252  0.3406 -0.1618
 2172SOL    HW123658   0.717   0.977   6.038 -0.8280 -1.4597  2.8492
 2172SOL    HW223659   0.834   0.943   5.949 -1.1874  2.1924  0.7767
 2173SOL     OW23660   4.759   3.499   6.279 -0.0961  0.4915  0.0031
 2173SOL    HW123661   4.710   3.428   6.236 -0.0662  0.9785 -0.8683
 2173SOL    HW223662   4.850   3.473   6.273 -0.0881  0.5767 -0.2902
 2174SOL     OW23663   2.759   4.397   0.187 -0.2038  0.4226  0.8097
 2174SOL    HW123664   2.713   4.478   0.207  0.6602  0.6509  1.9799
 2174SOL    HW223665   2.721   4.332   0.246 -1.8182 -0.3972 -1.0205
 2175SOL     OW23666   0.099   2.280   5.754  0.2262  0.2919  0.0404
 2175SOL    HW123667   0.179   2.240   5.721 -0.2381  2.0328 -3.7781
 2175SOL    HW223668   0.030   2.215   5.737  0.4458 -0.1965  0.9559
 2176SOL     OW23669   1.224   0.128   1.743  0.0859 -0.6970 -0.3310
 2176SOL    HW123670   1.208   0.035   1.759 -0.1268 -0.8531 -1.4151
 2176SOL    HW223671   1.265   0.159   1.824 -3.5302 -0.8009  1.7881
 2177SOL     OW23672   5.790   0.741   7.079 -0.8525 -0.1220 -0.2179
 2177SOL    HW123673   5.729   0.693   7.135 -0.9296 -0.6374 -0.7291
 2177SOL    HW223674   5.746   0.745   6.994 -0.0380 -0.7873 -0.6841
 2178SOL     OW23675   3.494   0.841   7.763  0.2019  0.0454  0.0858
 2178SOL    HW123676   3.479   0.930   7.793 -3.6620 -0.6300  0.7187
 2178SOL    HW223677   3.547   0.801   7.832  1.0661  1.5237  0.3179
 2179SOL     OW23678   6.087   0.145   7.382 -0.0577 -0.0913  0.1111
 2179SOL    HW123679   6.024   0.216   7.388 -1.1201 -0.9939 -0.1877
 2179SOL    HW223680   6.158   0.171   7.441 -1.8068 -0.1695  2.3693
 2180SOL     OW23681   3.235   5.023   6.432 -0.1202 -0.1511  0.1862
 2180SOL    HW123682   3.223   4.928   6.432  1.5141 -0.4133 -1.4896
 2180SOL    HW223683   3.215   5.049   6.342  0.1992  0.9870  0.4324
 2181SOL     OW23684   4.873   0.261   7.757  0.4375  0.1914  0.0850
 2181SOL    HW123685   4.780   0.282   7.768  0.6184  0.6354  0.8034
 2181SOL    HW223686   4.879   0.229   7.667 -0.3260  0.6204 -0.1331
 2182SOL     OW23687   5.851   2.832   7.625  0.1346  0.6884  0.6046
 2182SOL    HW123688   5.779   2.896   7.625  0.7122  1.4392 -1.5225
 2182SOL    HW223689   5.930   2.886   7.619  0.5795 -0.1059 -3.1422
 2183SOL     OW23690   2.769   5.276   2.256 -0.4209  0.1096 -0.0023
 2183SOL    HW123691   2.717   5.210   2.210 -0.8653 -1.4011  2.4593
 2183SOL    HW223692   2.707   5.346   2.276 -1.2260 -0.9690  1.5263
 2184SOL     OW23693   2.283   2.259   5.792  0.1077 -0.6659  0.1646
 2184SOL    HW123694   2.260   2.205   5.867  0.9912 -1.2116  0.0553
 2184SOL    HW223695   2.269   2.349   5.822 -0.1475 -0.9047  0.7667
 2185SOL     OW23696   6.279   5.666   1.281 -0.1066 -0.0068 -0.8833
 2185SOL    HW123697   6.368   5.631   1.291 -0.4979 -0.4917  1.9408
 2185SOL    HW223698   6.274   5.736   1.346 -1.9784 -0.4604 -0.4858
 2186SOL     OW23699   1.736   5.698   1.675  0.5112  0.1582  0.0093
 2186SOL    HW123700   1.786   5.618   1.694  2.2066  0.4992 -2.4546
 2186SOL    HW223701   1.664   5.669   1.619  0.0246  0.1378  0.6356
 2187SOL     OW23702   5.551   0.761   0.338  0.1162 -0.3373  0.0812
 2187SOL    HW123703   5.573   0.746   0.246 -0.7057  1.2929 -0.4131
 2187SOL    HW223704   5.562   0.855   0.350  0.2282 -0.5404  1.6669
 2188SOL     OW23705   4.735   2.401   0.938 -0.1291  0.2387 -0.0421
 2188SOL    HW123706   4.762   2.330   0.880  0.7715  1.4454 -1.1517
 2188SOL    HW223707   4.657   2.437   0.898  0.1052  0.6367 -0.1446
 2189SOL     OW23708   1.318   4.600   1.411 -0.0090  0.2773  0.0443
 2189SOL    HW123709   1.390   4.664   1.409  0.1948  0.0374 -0.3960
 2189SOL    HW223710   1.348   4.532   1.471  0.9340 -0.7475 -1.5349
 2190SOL     OW23711   4.212   3.446   7.222  0.3070 -0.7173 -0.2767
 2190SOL    HW123712   4.290   3.392   7.211  0.4549 -0.4981 -0.3232
 2190SOL    HW223713   4.246   3.528   7.259  0.0239 -0.8441  0.2788
 2191SOL     OW23714   5.465   3.081   6.089 -0.2854  0.0824 -0.1566
 2191SOL    HW123715   5.540   3.069   6.031  0.3149 -1.1713  0.8309
 2191SOL    HW223716   5.473   3.171   6.120  1.1428 -0.2063  0.3677
 2192SOL     OW23717   5.905   0.170   0.766 -0.2704 -0.3883 -0.0652
 2192SOL    HW123718   5.833   0.159   0.828  0.3254 -1.1566  0.5181
 2192SOL    HW223719   5.862   0.187   0.682 -1.1740 -1.7525  0.0887
 2193SOL     OW23720   3.162   6.044   6.966  0.5073 -0.1351 -0.6082
 2193SOL    HW123721   3.073   6.080   6.958  0.8196  0.3490 -2.2181
 2193SOL    HW223722   3.171   5.985   6.892  1.4950 -0.2650 -0.3963
 2194SOL     OW23723   0.184   0.695   0.089  0.4109 -0.3930 -0.0470
 2194SOL    HW123724   0.149   0.622   0.039  1.0853 -1.1182  0.5079
 2194SOL    HW223725   0.264   0.661   0.129  1.3656  1.0002 -0.6962
 2195SOL     OW23726   2.536   3.911   0.933  0.2747 -0.4927 -0.3581
 2195SOL    HW123727   2.547   3.975   0.863 -1.0398 -0.3503 -0.4726
 2195SOL    HW223728   2.622   3.903   0.973  1.0614 -0.6091 -2.0034
 2196SOL     OW23729   6.348   1.224   0.976 -0.1020  0.1838 -0.1884
 2196SOL    HW123730   6.332   1.196   0.885 -1.0448  0.4050 -0.1082
 2196SOL    HW223731   6.322   1.316   0.977  1.0491  0.5144  0.0295
 2197SOL     OW23732   4.859   4.437   5.702  0.0427  0.6631 -0.1994
 2197SOL    HW123733   4.921   4.469   5.768  0.8739  0.3810 -0.8290
 2197SOL    HW223734   4.784   4.497   5.708  0.2544  0.8581  0.7449
 2198SOL     OW23735   2.336   0.602   6.276 -0.7761  0.1020 -0.1292
 2198SOL    HW123736   2.316   0.602   6.182 -0.5719 -0.3186 -0.1779
 2198SOL    HW223737   2.429   0.577   6.280 -0.3894  1.5092  0.1124
 2199SOL     OW23738   3.605   4.405   6.743  0.3233 -0.1195  0.4433
 2199SOL    HW123739   3.610   4.494   6.777  0.1723 -0.0395  0.2611
 2199SOL    HW223740   3.517   4.375   6.766  0.4086 -0.2588  0.5936
 2200SOL     OW23741   4.298   2.810   5.966 -0.3405 -0.4153 -0.3898
 2200SOL    HW123742   4.219   2.857   5.938  0.5383  1.6992  0.4205
 2200SOL    HW223743   4.332   2.771   5.885 -0.2973  1.7071 -1.4657
 2201SOL     OW23744   3.298   0.553   2.169  0.4642 -0.4917 -0.5039
 2201SOL    HW123745   3.383   0.541   2.212  0.6902 -0.6841 -1.0024
 2201SOL    HW223746   3.297   0.645   2.143  0.9016 -0.7032 -1.2974
 2202SOL     OW23747   2.067   3.295   1.026 -0.3958 -0.0468  0.7353
 2202SOL    HW123748   2.159   3.286   1.048  0.0161 -1.5029 -1.2974
 2202SOL    HW223749   2.026   3.216   1.063 -0.0973 -1.3298 -1.5053
 2203SOL     OW23750   1.599   5.186   0.431  0.0738  0.5138  0.0055
 2203SOL    HW123751   1.564   5.098   0.447  1.0134  0.2873  0.9884
 2203SOL    HW223752   1.566   5.238   0.504 -1.6726  1.3840 -1.3293
 2204SOL     OW23753   2.682   1.152   5.038 -0.6896 -0.7329 -0.7980
 2204SOL    HW123754   2.692   1.157   5.133  1.2432  1.7562 -1.0386
 2204SOL    HW223755   2.597   1.195   5.021 -0.8960 -0.9031 -0.2178
 2205SOL     OW23756   3.802   3.121   2.506  0.1727  0.3523 -0.2256
 2205SOL    HW123757   3.878   3.062   2.512  0.7972  0.8158 -2.6873
 2205SOL    HW223758   3.727   3.062   2.502  0.5424 -0.1642  0.1640
 2206SOL     OW23759   4.013   2.982   0.628 -0.4526 -0.0870 -0.0148
 2206SOL    HW123760   4.039   3.058   0.576  1.4210 -0.0608  0.8650
 2206SOL    HW223761   4.080   2.916   0.609 -0.1503 -0.3351  1.7260
 2207SOL     OW23762   2.764   1.971   0.777  0.5973  0.0684  0.8932
 2207SOL    HW123763   2.808   1.897   0.820  1.9970  0.4256  0.1489
 2207SOL    HW223764   2.743   1.938   0.690 -1.9200 -0.5383  1.6419
 2208SOL     OW23765   5.614   2.481   1.371 -0.8946 -0.1040  0.1826
 2208SOL    HW123766   5.585   2.393   1.396 -0.7151 -0.0082  0.7545
 2208SOL    HW223767   5.698   2.492   1.416 -2.5225  1.6871  3.0667
 2209SOL     OW23768   2.923   3.652   2.187  0.1450  0.1046  0.4385
 2209SOL    HW123769   2.831   3.640   2.164  0.1761  1.5151 -0.5448
 2209SOL    HW223770   2.957   3.563   2.196 -0.5393 -0.5580 -2.4604
 2210SOL     OW23771   2.577   5.363   6.481 -0.0242 -0.6908  0.1855
 2210SOL    HW123772   2.501   5.397   6.433  0.3121 -0.8229 -0.4492
 2210SOL    HW223773   2.564   5.269   6.483 -0.3510 -0.6339  0.9029
 2211SOL     OW23774   3.810   6.347   7.125  0.0359  0.1330  0.8119
 2211SOL    HW123775   3.797   6.401   7.047  0.7899 -0.0895  0.5157
 2211SOL    HW223776   3.779   6.401   7.198 -1.5347 -0.0204  0.2792
 2212SOL     OW23777   0.548   5.332   7.095  0.7742  0.2157  0.2589
 2212SOL    HW123778   0.552   5.255   7.151  0.7123  1.6751  2.4063
 2212SOL    HW223779   0.611   5.393   7.133  1.7510  0.8135 -2.1230
 2213SOL     OW23780   5.609   2.351   1.630 -0.0312  0.0425 -0.4698
 2213SOL    HW123781   5.563   2.420   1.582 -0.2734  0.6335  0.5801
 2213SOL    HW223782   5.608   2.380   1.722  0.6263 -0.9372 -0.1300
 2214SOL     OW23783   4.823   0.896   0.218  0.1414  0.0793 -0.1386
 2214SOL    HW123784   4.775   0.956   0.161  0.5535  0.2779 -0.2795
 2214SOL    HW223785   4.768   0.887   0.296 -0.2340  0.1183 -0.3973
 2215SOL     OW23786   1.153   5.837   6.533 -0.2279  0.2524 -0.4247
 2215SOL    HW123787   1.189   5.926   6.536  0.3531  0.1173 -2.0990
 2215SOL    HW223788   1.101   5.835   6.452  0.8388 -1.2770 -1.1315
 2216SOL     OW23789   0.690   5.123   5.949  0.4895 -0.6849  0.0290
 2216SOL    HW123790   0.661   5.189   6.013 -1.5013  1.2251 -2.6253
 2216SOL    HW223791   0.780   5.147   5.928  0.0780  0.6926 -0.2342
 2217SOL     OW23792   3.385   4.745   5.539  0.0109  0.0605 -0.0197
 2217SOL    HW123793   3.475   4.717   5.554 -0.4237 -1.0182  0.7142
 2217SOL    HW223794   3.387   4.786   5.453  1.2828  0.4507  0.1678
 2218SOL     OW23795   4.043   1.616   2.178  0.0275 -0.1770 -0.2885
 2218SOL    HW123796   4.017   1.625   2.270  1.8246  0.1118  0.2295
 2218SOL    HW223797   4.079   1.528   2.172  0.5763  0.0644 -0.5367
 2219SOL     OW23798   0.862   5.682   1.021  0.7597  0.7577  0.3262
 2219SOL    HW123799   0.849   5.587   1.022  0.2608  0.8211  0.5091
 2219SOL    HW223800   0.848   5.706   0.929 -1.2283  0.9091  0.6276
 2220SOL     OW23801   2.444   5.552   7.471  0.1494 -0.3666 -0.7416
 2220SOL    HW123802   2.363   5.518   7.433 -0.4593  1.7032 -1.4492
 2220SOL    HW223803   2.477   5.613   7.404  0.7471  0.9829  0.7213
 2221SOL     OW23804   4.141   2.146   6.431  0.2720  0.6780  0.1881
 2221SOL    HW123805   4.121   2.053   6.441 -0.2837  0.9133  1.4429
 2221SOL    HW223806   4.136   2.161   6.336 -0.7791 -0.3232  0.0567
 2222SOL     OW23807   3.419   3.132   6.640 -0.0392 -0.2986 -0.0416
 2222SOL    HW123808   3.399   3.203   6.701  0.7487  0.1149 -0.2397
 2222SOL    HW223809   3.404   3.171   6.553  1.0990 -0.1290 -0.1753
 2223SOL     OW23810   1.856   3.964   7.676 -0.0563 -0.3961 -0.1007
 2223SOL    HW123811   1.885   4.031   7.737 -1.1370 -0.5782  0.6282
 2223SOL    HW223812   1.849   3.885   7.729 -1.3562 -0.4729 -0.3669
 2224SOL     OW23813   2.188   3.527   7.185 -0.4069  0.1182 -0.3423
 2224SOL    HW123814   2.201   3.607   7.237 -0.6737  1.6208 -2.4323
 2224SOL    HW223815   2.276   3.490   7.176 -0.5007 -0.8971  2.1253
 2225SOL     OW23816   3.081   2.274   0.060 -0.2682  0.6121 -0.5883
 2225SOL    HW123817   3.102   2.218  -0.015  1.8143  0.7734 -0.1658
 2225SOL    HW223818   3.154   2.263   0.120 -0.6273  2.4868  0.2730
 2226SOL     OW23819   2.499   0.641   0.186  0.4523 -0.1350 -0.1166
 2226SOL    HW123820   2.457   0.717   0.145  2.2237  1.0007  0.0382
 2226SOL    HW223821   2.489   0.571   0.122 -3.2596 -0.5444  0.6954
 2227SOL     OW23822   2.005   6.171   7.211 -0.0758 -0.3827  0.0467
 2227SOL    HW123823   1.999   6.085   7.169  0.7055  0.5048 -2.0379
 2227SOL    HW223824   1.915   6.194   7.232 -0.3767 -1.3456 -0.1188
 2228SOL     OW23825   1.395   3.470   7.643  0.3735 -0.2437 -0.3828
 2228SOL    HW123826   1.315   3.508   7.610 -0.2753 -1.6207 -0.4779
 2228SOL    HW223827   1.402   3.502   7.733 -1.2727 -1.5114  0.2464
 2229SOL     OW23828   6.220   3.616   1.351  0.1529  0.5026  0.0651
 2229SOL    HW123829   6.238   3.560   1.276  1.5168 -2.0919  2.1719
 2229SOL    HW223830   6.142   3.578   1.392  1.1030  0.0813  1.5399
 2230SOL     OW23831   1.990   5.950   0.369 -0.6717  0.0928 -0.2298
 2230SOL    HW123832   1.995   5.864   0.412  0.8492  0.1361 -0.2449
 2230SOL    HW223833   2.018   6.012   0.436 -1.1890  0.5053 -0.3969
 2231SOL     OW23834   3.977   5.260   0.910 -0.1008 -0.6766  0.0824
 2231SOL    HW123835   3.917   5.187   0.892 -0.8527  0.0647 -0.4829
 2231SOL    HW223836   3.926   5.319   0.966 -1.0094  1.3474 -2.6459
 2232SOL     OW23837   1.081   0.830   7.457  0.7687 -0.0126 -0.2066
 2232SOL    HW123838   1.145   0.785   7.512  1.1600  1.2645  0.4280
 2232SOL    HW223839   1.061   0.911   7.505  0.9153  1.0145 -1.7959
 2233SOL     OW23840   2.012   3.418   1.911 -0.2119  0.2906  0.2378
 2233SOL    HW123841   1.923   3.396   1.883  0.4352  1.2879 -3.0513
 2233SOL    HW223842   2.008   3.511   1.933 -0.1919  0.0566  1.2896
 2234SOL     OW23843   4.266   5.816   1.237  0.4451  0.6888  1.1983
 2234SOL    HW123844   4.259   5.821   1.142  0.1870  0.5246  1.2086
 2234SOL    HW223845   4.180   5.787   1.266  0.0093  2.2606  1.5915
 2235SOL     OW23846   0.190   1.067   0.379 -0.2312 -0.4592  0.1989
 2235SOL    HW123847   0.276   1.064   0.337 -0.5720 -0.0912 -0.5545
 2235SOL    HW223848   0.159   0.977   0.377  0.0333 -0.5533  0.2634
 2236SOL     OW23849   6.411   2.241   7.129  0.1936 -0.4039 -0.1800
 2236SOL    HW123850   6.426   2.177   7.198  0.2675  0.7524  0.9064
 2236SOL    HW223851   6.318   2.264   7.138  0.7973  1.7154  1.3274
 2237SOL     OW23852   1.602   2.410   6.652 -0.0593  0.4373 -0.4513
 2237SOL    HW123853   1.516   2.437   6.622 -0.0871 -0.0594 -0.8184
 2237SOL    HW223854   1.595   2.315   6.666 -0.1741  0.6894  1.5211
 2238SOL     OW23855   0.846   0.008   0.888  0.3147 -0.1300 -0.5790
 2238SOL    HW123856   0.903  -0.001   0.964 -0.1639  1.1720 -0.0208
 2238SOL    HW223857   0.852   0.101   0.865 -1.7824  0.1089 -0.3132
 2239SOL     OW23858   3.560   3.109   7.146  0.1255  0.7111  0.6777
 2239SOL    HW123859   3.539   3.107   7.052  1.3735  2.4371  0.3028
 2239SOL    HW223860   3.654   3.127   7.148  0.2146  0.2064  2.2922
 2240SOL     OW23861   3.295   0.929   5.690 -0.2516 -0.1143 -0.2784
 2240SOL    HW123862   3.303   1.018   5.722 -0.5909 -0.2507  0.2035
 2240SOL    HW223863   3.280   0.938   5.596  0.8327  0.2881 -0.4246
 2241SOL     OW23864   1.840   2.206   6.895  0.3373 -0.0209 -0.0557
 2241SOL    HW123865   1.784   2.213   6.972 -1.1775  1.7791 -1.2221
 2241SOL    HW223866   1.802   2.134   6.845 -1.1361  1.2715 -0.9043
 2242SOL     OW23867   3.756   1.028   6.753  0.2824  0.0934 -0.1051
 2242SOL    HW123868   3.708   1.083   6.816  1.3076  0.8897  0.0119
 2242SOL    HW223869   3.792   0.957   6.806  0.2041  0.1393  0.0103
 2243SOL     OW23870   1.479   0.765   5.543 -0.0440 -0.8270 -0.2044
 2243SOL    HW123871   1.401   0.774   5.488 -0.9987 -0.6241  1.1317
 2243SOL    HW223872   1.528   0.846   5.529 -1.1815  0.0337  0.5481
 2244SOL     OW23873   2.753   4.418   1.561  0.1428  0.3387  0.0694
 2244SOL    HW123874   2.734   4.441   1.652 -1.6006 -0.3700 -0.0698
 2244SOL    HW223875   2.845   4.440   1.549  0.4644  0.2604  2.0611
 2245SOL     OW23876   1.137   1.417   1.953 -0.0100 -0.2862  0.7124
 2245SOL    HW123877   1.206   1.352   1.941 -0.3931 -0.3588 -1.5511
 2245SOL    HW223878   1.069   1.391   1.891 -1.8339  0.1486  2.4013
 2246SOL     OW23879   5.382   1.633   7.767  0.4003  0.2814 -0.3068
 2246SOL    HW123880   5.418   1.627   7.856  0.9547 -1.0263 -0.5930
 2246SOL    HW223881   5.375   1.542   7.738 -1.6056  0.5715 -0.8948
 2247SOL     OW23882   3.775   2.072   1.224  0.0616 -0.1863  0.9058
 2247SOL    HW123883   3.706   2.038   1.166 -0.8880  0.3934  1.6616
 2247SOL    HW223884   3.787   2.003   1.290  0.3951 -0.4006  0.6212
 2248SOL     OW23885   3.251   2.414   5.955  0.2790  0.4237 -0.5463
 2248SOL    HW123886   3.212   2.485   6.006 -1.4165  1.3455 -2.9231
 2248SOL    HW223887   3.179   2.353   5.940  1.2475 -0.8496 -0.1803
 2249SOL     OW23888   6.287   4.948   6.043  0.1154 -0.5084  0.1503
 2249SOL    HW123889   6.321   4.977   5.958 -0.5224  0.5157  0.2293
 2249SOL    HW223890   6.193   4.938   6.029 -0.1192  0.4431  0.9282
 2250SOL     OW23891   4.245   1.774   1.024 -0.0468  0.1354 -0.1252
 2250SOL    HW123892   4.271   1.864   1.044 -0.1829  0.3630 -0.9065
 2250SOL    HW223893   4.164   1.784   0.974 -0.7454 -0.4856  0.8482
 2251SOL     OW23894   3.106   3.256   7.318  0.4732 -0.6657 -0.4921
 2251SOL    HW123895   3.199   3.245   7.339  0.5974 -0.3661 -0.8713
 2251SOL    HW223896   3.081   3.174   7.276  1.0576 -0.0646 -2.0964
 2252SOL     OW23897   2.720   1.769   6.713  0.2947 -0.5846 -0.2284
 2252SOL    HW123898   2.704   1.843   6.655  3.5988  0.5085  0.0223
 2252SOL    HW223899   2.692   1.692   6.664  1.5746  0.4209 -2.6814
 2253SOL     OW23900   4.166   1.709   7.555 -0.2974  0.2874 -0.3559
 2253SOL    HW123901   4.139   1.793   7.592  1.1338  0.5075  0.2469
 2253SOL    HW223902   4.094   1.649   7.577  0.4161  0.4172  2.8131
 2254SOL     OW23903   2.636   2.888   2.671  0.5507  0.2433  0.1593
 2254SOL    HW123904   2.728   2.869   2.689  0.5875  1.2079  1.1132
 2254SOL    HW223905   2.623   2.976   2.706 -1.4932 -1.0067  2.9076
 2255SOL     OW23906   5.994   3.703   7.441 -0.3420  0.3617  0.0783
 2255SOL    HW123907   6.080   3.669   7.465 -0.6420 -1.3276 -1.0594
 2255SOL    HW223908   5.932   3.637   7.473 -1.2315  1.5084  0.8026
 2256SOL     OW23909   1.635   1.242   6.227 -0.1940  0.4637 -0.1597
 2256SOL    HW123910   1.557   1.211   6.273 -1.0728  1.7394 -0.7534
 2256SOL    HW223911   1.641   1.335   6.248  0.4946  0.6455 -1.0820
 2257SOL     OW23912   4.770   0.210   6.132 -0.8493 -0.1829  0.5607
 2257SOL    HW123913   4.853   0.257   6.117 -0.3437 -0.8509  1.2196
 2257SOL    HW223914   4.711   0.244   6.065  0.1749 -0.2176 -0.3829
 2258SOL     OW23915   1.423   1.100   5.864 -0.7180 -0.1178 -0.0234
 2258SOL    HW123916   1.489   1.084   5.796  1.1479 -2.1808  2.0995
 2258SOL    HW223917   1.447   1.185   5.901  0.6923 -0.7516  0.5886
 2259SOL     OW23918   1.257   2.227   7.722  0.1335  0.5474 -0.1279
 2259SOL    HW123919   1.211   2.276   7.654 -0.1621 -0.9912 -1.0717
 2259SOL    HW223920   1.310   2.163   7.675 -0.4557 -0.8918  1.0588
 2260SOL     OW23921   5.031   0.162   6.386  0.0911 -0.0845  0.2664
 2260SOL    HW123922   5.048   0.144   6.478  0.6225 -0.4703  0.1006
 2260SOL    HW223923   4.945   0.204   6.385  0.9358  1.7458  1.1227
 2261SOL     OW23924   3.165   3.455   7.613  0.1303 -0.8357  0.1247
 2261SOL    HW123925   3.098   3.413   7.667  1.5301 -2.7509  0.4839
 2261SOL    HW223926   3.240   3.465   7.672  1.3306 -2.0096 -1.1416
 2262SOL     OW23927   3.825   3.825   1.596  0.2326  0.1669  0.5528
 2262SOL    HW123928   3.893   3.830   1.663  0.8790 -1.8237  0.1076
 2262SOL    HW223929   3.836   3.739   1.557 -0.3573  1.1082 -1.8751
 2263SOL     OW23930   2.357   5.393   6.289  0.2098  0.6200 -0.2235
 2263SOL    HW123931   2.276   5.344   6.306  0.6889  0.1437  0.7710
 2263SOL    HW223932   2.341   5.480   6.327  1.2372 -0.4028  2.8682
 2264SOL     OW23933   1.338   0.562   1.646  0.1100  0.0374  0.2627
 2264SOL    HW123934   1.257   0.540   1.600  0.2793 -2.1883  0.8890
 2264SOL    HW223935   1.310   0.587   1.734  0.0668 -0.3564  0.3632
 2265SOL     OW23936   0.844   1.628   6.339 -0.8781 -0.3889  0.3338
 2265SOL    HW123937   0.751   1.612   6.323 -0.7336 -2.0312  0.9718
 2265SOL    HW223938   0.888   1.600   6.258 -1.0668  2.7370 -0.9847
 2266SOL     OW23939   2.682   1.508   6.604 -0.0590  0.2610 -0.4920
 2266SOL    HW123940   2.643   1.440   6.549 -2.1424  1.5628 -0.7331
 2266SOL    HW223941   2.671   1.475   6.694 -0.2266 -0.1312 -0.6505
 2267SOL     OW23942   1.556   3.119   5.584 -0.2241  0.4901  0.0083
 2267SOL    HW123943   1.466   3.137   5.556 -0.1264 -1.5109 -1.8249
 2267SOL    HW223944   1.609   3.180   5.534 -0.3565 -0.5664 -1.4977
 2268SOL     OW23945   2.855   5.067   0.184  0.8226 -0.1050 -0.0901
 2268SOL    HW123946   2.837   5.023   0.267 -0.9490  1.3834  0.3798
 2268SOL    HW223947   2.951   5.068   0.178  0.9532 -2.7279  0.5005
 2269SOL     OW23948   3.226   1.728   5.699  0.5629 -0.4470 -0.2326
 2269SOL    HW123949   3.162   1.663   5.728 -1.1414  0.3670 -1.9733
 2269SOL    HW223950   3.267   1.689   5.622 -0.3361  0.3783 -1.1738
 2270SOL     OW23951   4.410   0.786   6.449  0.1632 -0.1480  0.0133
 2270SOL    HW123952   4.328   0.833   6.431  1.9360  2.9705 -0.4874
 2270SOL    HW223953   4.437   0.753   6.363 -0.8726 -1.9148  0.3024
 2271SOL     OW23954   2.240   5.519   0.755  0.0939 -0.5419 -0.6366
 2271SOL    HW123955   2.153   5.557   0.743  0.5757  0.3627 -1.3830
 2271SOL    HW223956   2.226   5.425   0.748 -1.1980 -0.6044  1.7082
 2272SOL     OW23957   5.665   3.706   1.317 -0.7532 -0.5408  0.4018
 2272SOL    HW123958   5.720   3.627   1.320  1.3049  0.8300  1.2888
 2272SOL    HW223959   5.605   3.690   1.244  0.7059 -2.2387 -0.5325
 2273SOL     OW23960   5.170   4.662   1.740 -0.0604  0.1295  0.4853
 2273SOL    HW123961   5.225   4.713   1.800  2.0614  0.1706 -1.3832
 2273SOL    HW223962   5.223   4.585   1.719 -0.0417  0.8379 -2.4662
 2274SOL     OW23963   2.201   6.118   2.328  0.3545 -0.3285  0.4318
 2274SOL    HW123964   2.274   6.153   2.380 -0.8923  2.6988  0.3588
 2274SOL    HW223965   2.238   6.105   2.241  1.2681 -0.7054  0.8624
 2275SOL     OW23966   1.406   1.571   5.292  0.3740  0.0536 -0.2148
 2275SOL    HW123967   1.475   1.635   5.309  1.1050 -0.2071 -2.0025
 2275SOL    HW223968   1.445   1.487   5.315 -0.0609  0.0705  0.6537
 2276SOL     OW23969   3.011   4.041   1.029 -0.3292  0.4837  0.2555
 2276SOL    HW123970   2.966   4.023   0.947  0.5520 -1.6769  0.1679
 2276SOL    HW223971   2.969   3.984   1.093 -0.5361  1.6213  1.1710
 2277SOL     OW23972   2.526   0.874   6.134 -0.4897  0.0752 -0.0531
 2277SOL    HW123973   2.587   0.916   6.074 -1.7114 -0.5962 -1.8618
 2277SOL    HW223974   2.444   0.865   6.083 -0.9315 -2.4586  0.9247
 2278SOL     OW23975   2.357   1.812   6.072  0.3546 -0.1907 -0.2133
 2278SOL    HW123976   2.343   1.862   6.152  0.0897  0.6292 -0.7592
 2278SOL    HW223977   2.274   1.821   6.023 -0.0959 -2.0155  0.1214
 2279SOL     OW23978   2.074   0.588   7.093 -0.2914 -0.4945 -0.8017
 2279SOL    HW123979   2.121   0.591   7.177 -0.3139 -0.2230 -0.7987
 2279SOL    HW223980   2.127   0.642   7.034 -0.7274  0.0083 -0.7340
 2280SOL     OW23981   4.321   4.797   1.476  0.1506 -0.0675  0.1829
 2280SOL    HW123982   4.309   4.759   1.563  1.0673  0.5207  0.5789
 2280SOL    HW223983   4.375   4.734   1.430 -0.2738 -0.3442  0.0557
 2281SOL     OW23984   1.284   2.592   6.335  0.2805  0.1125  0.1495
 2281SOL    HW123985   1.208   2.553   6.379  0.4353 -0.0354  0.2888
 2281SOL    HW223986   1.280   2.557   6.246  1.5541 -1.8606  0.8113
 2282SOL     OW23987   1.144   4.187   7.614  0.4450 -0.5784  0.1279
 2282SOL    HW123988   1.054   4.159   7.633  0.2255 -1.4468 -1.9100
 2282SOL    HW223989   1.134   4.250   7.542  1.3551  0.7742  1.1436
 2283SOL     OW23990   5.750   0.370   6.576  0.5092  0.0874  0.6174
 2283SOL    HW123991   5.780   0.293   6.624 -1.2688 -2.1452 -1.6029
 2283SOL    HW223992   5.655   0.367   6.583  0.1757 -0.2188 -2.6943
 2284SOL     OW23993   5.095   4.977   0.835  0.1563  0.4243 -0.6225
 2284SOL    HW123994   5.166   4.950   0.893  0.5693 -0.5804 -1.5572
 2284SOL    HW223995   5.056   4.896   0.803 -0.5988  0.9534 -1.1076
 2285SOL     OW23996   1.103   0.447   6.729  0.1440  0.1401 -0.1637
 2285SOL    HW123997   1.078   0.518   6.669  2.2456  1.3186  0.2540
 2285SOL    HW223998   1.121   0.491   6.812 -0.1419 -1.1366  0.6037
 2286SOL     OW23999   5.749   5.227   1.308 -0.4897 -0.6953  0.0194
 2286SOL    HW124000   5.693   5.215   1.231  1.8386 -0.8064 -1.7693
 2286SOL    HW224001   5.728   5.315   1.340 -0.8109 -0.2432 -1.3599
 2287SOL     OW24002   4.778   4.284   7.318  0.7857  0.0277 -0.0646
 2287SOL    HW124003   4.782   4.190   7.330  0.4499  0.1538  1.1801
 2287SOL    HW224004   4.869   4.314   7.327  1.0649 -0.2615 -1.5468
 2288SOL     OW24005   5.732   0.902   7.667 -0.0630  0.6881 -0.0167
 2288SOL    HW124006   5.719   0.833   7.602  0.8972 -0.3772  0.8856
 2288SOL    HW224007   5.808   0.951   7.636 -0.7845  1.4052 -0.6920
 2289SOL     OW24008   5.325   3.438   7.306 -0.1677 -0.1791  0.2519
 2289SOL    HW124009   5.315   3.393   7.390 -0.6063  1.2490  0.9834
 2289SOL    HW224010   5.381   3.380   7.255 -1.4695 -2.0369  0.8047
 2290SOL     OW24011   1.153   1.351   6.076  0.0621  0.3525 -0.2276
 2290SOL    HW124012   1.212   1.355   6.001  0.2753  0.0388 -0.0785
 2290SOL    HW224013   1.107   1.268   6.066  0.0713  0.3231 -0.0255
 2291SOL     OW24014   2.186   5.041   0.488  0.1068 -0.1801  0.3858
 2291SOL    HW124015   2.185   5.130   0.452  1.8706 -0.3854 -0.2698
 2291SOL    HW224016   2.099   5.030   0.527 -0.4701  1.4899 -0.3294
 2292SOL     OW24017   0.275   3.603   0.595  0.1131 -0.6104  0.3327
 2292SOL    HW124018   0.367   3.576   0.594 -0.2534 -2.0014  1.3559
 2292SOL    HW224019   0.279   3.699   0.601  1.4894 -0.6439  0.3848
 2293SOL     OW24020   2.345   1.920   0.864 -0.1543 -0.5737  0.3641
 2293SOL    HW124021   2.365   2.010   0.837  1.1882 -0.8475  0.4156
 2293SOL    HW224022   2.330   1.926   0.958 -0.8717 -0.2900  0.2445
 2294SOL     OW24023   2.544   5.018   1.141 -0.4235  0.1474 -0.3152
 2294SOL    HW124024   2.489   5.096   1.145  1.1535  1.2660  1.0009
 2294SOL    HW224025   2.632   5.051   1.122  0.3554 -1.2512  0.6269
 2295SOL     OW24026   2.126   2.706   0.936  0.8309  0.7689 -0.0441
 2295SOL    HW124027   2.123   2.801   0.941  2.4314  0.7808  1.1954
 2295SOL    HW224028   2.107   2.686   0.844 -2.1003  2.1074  0.1615
 2296SOL     OW24029   4.278   0.789   6.707  0.3735  0.2029  0.1044
 2296SOL    HW124030   4.339   0.815   6.637  1.5543 -1.0807  0.5891
 2296SOL    HW224031   4.325   0.808   6.788  0.3777 -1.2810  0.4833
 2297SOL     OW24032   5.726   4.603   5.917 -0.3811 -0.4757 -0.2270
 2297SOL    HW124033   5.739   4.585   5.823  1.3962  0.4081 -0.2151
 2297SOL    HW224034   5.805   4.651   5.942 -0.9712 -0.4276  1.6726
 2298SOL     OW24035   6.430   0.413   7.248  0.2421  0.1378 -0.1795
 2298SOL    HW124036   6.455   0.475   7.179  0.9591  0.2909  0.2063
 2298SOL    HW224037   6.476   0.332   7.224  1.3099  0.4784  0.6459
 2299SOL     OW24038   5.790   0.216   7.088 -0.4293  0.2131 -0.0858
 2299SOL    HW124039   5.704   0.245   7.118 -0.4373  0.9048 -0.7467
 2299SOL    HW224040   5.811   0.274   7.015  1.0079  0.6628  0.6489
 2300SOL     OW24041   0.339   3.386   7.088  0.1554  0.6648 -0.2295
 2300SOL    HW124042   0.257   3.414   7.128 -0.3897 -1.8065  0.5142
 2300SOL    HW224043   0.401   3.382   7.161  0.2169 -0.0165 -0.3127
 2301SOL     OW24044   2.606   2.734   1.089 -0.4059  0.3509  0.2723
 2301SOL    HW124045   2.644   2.713   1.175 -2.7127  1.2540  1.5968
 2301SOL    HW224046   2.659   2.806   1.057  0.9613 -0.4868  0.5526
 2302SOL     OW24047   0.825   5.590   6.414  0.4936  0.0463  0.0173
 2302SOL    HW124048   0.731   5.580   6.425  0.4098  0.0589 -0.6392
 2302SOL    HW224049   0.837   5.600   6.320  1.3553 -2.0050 -0.1279
 2303SOL     OW24050   3.587   1.642   1.292 -1.0334 -0.4785 -0.0802
 2303SOL    HW124051   3.560   1.566   1.240 -0.0807 -0.4959 -0.5767
 2303SOL    HW224052   3.552   1.626   1.379 -2.5158 -0.5450 -0.6586
 2304SOL     OW24053   4.016   0.654   0.775  0.4788  0.6650  0.3689
 2304SOL    HW124054   3.979   0.673   0.861  2.3843  0.3271  1.3062
 2304SOL    HW224055   4.109   0.636   0.792  0.7110 -0.2812 -1.6408
 2305SOL     OW24056   2.489   1.945   5.247  0.0027 -0.7933  0.2288
 2305SOL    HW124057   2.523   1.863   5.213  0.2963 -0.1333 -1.1407
 2305SOL    HW224058   2.565   2.004   5.247 -0.6853  0.1545 -1.0969
 2306SOL     OW24059   0.169   0.210   6.393  0.5006  0.5457 -0.1982
 2306SOL    HW124060   0.185   0.184   6.302  0.5087 -2.1086  0.5030
 2306SOL    HW224061   0.172   0.129   6.443 -5.0350  0.9318  1.4770
 2307SOL     OW24062   3.760   5.768   6.715  0.6977  0.2804 -0.6756
 2307SOL    HW124063   3.731   5.679   6.736  0.4225  0.4105 -0.4927
 2307SOL    HW224064   3.795   5.762   6.626  0.6250  0.0021 -0.6850
 2308SOL     OW24065   3.801   3.549   0.803  0.0511 -0.5682  0.2808
 2308SOL    HW124066   3.723   3.587   0.844 -1.1370 -0.8284 -1.5928
 2308SOL    HW224067   3.871   3.612   0.820 -1.5680  1.9500 -1.6918
 2309SOL     OW24068   3.886   1.445   2.748  0.2262 -0.3711 -0.0942
 2309SOL    HW124069   3.815   1.468   2.809  0.8836 -0.7173  0.8272
 2309SOL    HW224070   3.843   1.437   2.663 -0.3198  2.6497 -0.2146
 2310SOL     OW24071   3.415   0.228   5.817  0.3228  0.1747 -0.0439
 2310SOL    HW124072   3.350   0.191   5.757  0.0770  1.5985 -0.6915
 2310SOL    HW224073   3.373   0.307   5.851  0.4617 -0.6031  2.0431
 2311SOL     OW24074   3.291   4.483   1.263  0.2397 -0.2071  0.5612
 2311SOL    HW124075   3.370   4.506   1.213  0.8507  0.1907  1.6823
 2311SOL    HW224076   3.226   4.461   1.196  0.7040  1.3680 -0.4563
 2312SOL     OW24077   3.546   1.160   0.588  0.0874  0.2830  0.6611
 2312SOL    HW124078   3.553   1.085   0.647  0.3843 -0.4343 -0.2592
 2312SOL    HW224079   3.634   1.200   0.590  0.4974 -0.5314 -0.2942
 2313SOL     OW24080   0.817   4.700   2.150 -0.1516 -0.5201  0.0605
 2313SOL    HW124081   0.800   4.619   2.103  0.8080 -1.0703  0.6355
 2313SOL    HW224082   0.741   4.755   2.131 -0.3625 -1.1877 -1.1007
 2314SOL     OW24083   1.191   3.826   6.235  0.3106 -0.0636 -0.3435
 2314SOL    HW124084   1.222   3.823   6.325 -1.4710 -0.2627  0.3163
 2314SOL    HW224085   1.137   3.747   6.226 -1.0561  0.9024 -0.9733
 2315SOL     OW24086   1.086   3.217   1.523 -0.1735 -0.1670 -0.0301
 2315SOL    HW124087   1.004   3.183   1.487 -0.4612  0.2878  0.1935
 2315SOL    HW224088   1.082   3.311   1.507  0.1459 -0.0945  0.3012
 2316SOL     OW24089   2.427   4.449   0.077 -0.4337  0.1817 -0.0805
 2316SOL    HW124090   2.415   4.532   0.032 -0.2742 -0.1708 -0.7934
 2316SOL    HW224091   2.443   4.386   0.007 -0.0087 -0.3510  0.4867
 2317SOL     OW24092   0.264   4.205   0.553 -0.1706  0.0546  0.3410
 2317SOL    HW124093   0.331   4.143   0.523  0.4707  1.8528 -2.1544
 2317SOL    HW224094   0.182   4.172   0.516 -0.2007 -0.4380  0.8225
 2318SOL     OW24095   3.559   2.852   6.725 -0.2444 -0.4094 -0.4624
 2318SOL    HW124096   3.651   2.859   6.701  0.7853 -0.1109  2.9790
 2318SOL    HW224097   3.518   2.928   6.685  1.2097 -0.0071 -1.2555
 2319SOL     OW24098   3.508   5.456   6.223 -0.0892 -0.0892 -0.0987
 2319SOL    HW124099   3.472   5.367   6.226 -0.8207  0.1200 -2.0190
 2319SOL    HW224100   3.601   5.444   6.245  0.0284 -1.4708 -1.1821
 2320SOL     OW24101   3.463   0.395   6.990 -0.2810  0.5230  0.2162
 2320SOL    HW124102   3.384   0.413   6.939 -0.4349  1.7888  0.8577
 2320SOL    HW224103   3.528   0.366   6.925 -0.9432  0.5419 -0.4616
 2321SOL     OW24104   5.061   0.789   6.822 -0.1553  0.6057  0.2122
 2321SOL    HW124105   4.997   0.801   6.892 -1.0640  0.0444 -0.5043
 2321SOL    HW224106   5.012   0.750   6.751  0.8203  0.9095 -0.6543
 2322SOL     OW24107   6.364   0.960   5.987  0.1576  0.0420  0.3673
 2322SOL    HW124108   6.409   0.913   5.917  2.7709  1.9622  0.6221
 2322SOL    HW224109   6.348   1.047   5.951  0.7552  0.7758  1.7986
 2323SOL     OW24110   1.296   2.255   5.911  0.0813 -0.1481 -0.5447
 2323SOL    HW124111   1.213   2.259   5.865 -1.7143  2.2268  2.5064
 2323SOL    HW224112   1.343   2.334   5.884 -0.3326  0.4685  0.4795
 2324SOL     OW24113   6.140   6.302   6.392  0.6436 -0.6651  0.4900
 2324SOL    HW124114   6.215   6.249   6.417  1.5452 -1.2970 -3.0344
 2324SOL    HW224115   6.064   6.250   6.417  1.4974 -2.9111 -1.2967
 2325SOL     OW24116   5.942   5.397   5.419 -0.3795 -0.1525 -0.1896
 2325SOL    HW124117   6.032   5.430   5.417 -0.0856 -0.5973  2.2227
 2325SOL    HW224118   5.889   5.471   5.389  0.7536  0.1771 -1.4805
 2326SOL     OW24119   3.570   0.934   5.616 -0.8239  0.0140 -0.2937
 2326SOL    HW124120   3.475   0.917   5.617 -1.1000  1.3193  1.6211
 2326SOL    HW224121   3.577   1.028   5.631  0.7977 -0.2675  0.9610
 2327SOL     OW24122   2.536   5.479   0.774 -0.1850 -0.0229  0.0922
 2327SOL    HW124123   2.576   5.392   0.773  0.0611  0.0771 -1.7793
 2327SOL    HW224124   2.443   5.463   0.791 -0.0736 -0.6089  0.1693
 2328SOL     OW24125   4.367   3.635   0.896 -0.0363  0.1577 -0.6809
 2328SOL    HW124126   4.344   3.727   0.878 -1.0971  0.0711  0.1373
 2328SOL    HW224127   4.404   3.603   0.813 -1.3400  0.8125 -1.5583
 2329SOL     OW24128   0.595   6.421   1.675 -0.1280 -0.2746 -0.2353
 2329SOL    HW124129   0.649   6.500   1.678  2.3013 -1.6645 -2.5140
 2329SOL    HW224130   0.651   6.352   1.709 -1.9521 -1.2250  1.0392
 2330SOL     OW24131   3.413   2.727   2.770  0.1236  0.4528  0.0582
 2330SOL    HW124132   3.471   2.691   2.703  0.0572  0.1513  0.1629
 2330SOL    HW224133   3.374   2.651   2.812  1.9223  0.4909  2.0030
 2331SOL     OW24134   3.465   1.485   7.121  0.7558 -0.7574 -1.0845
 2331SOL    HW124135   3.413   1.531   7.054  0.9792 -1.2658 -1.6157
 2331SOL    HW224136   3.421   1.506   7.203  0.8568  0.4129 -1.3061
 2332SOL     OW24137   4.101   1.352   7.617 -0.3471 -0.1690 -0.2505
 2332SOL    HW124138   4.091   1.281   7.680 -0.8388 -0.6499 -0.8473
 2332SOL    HW224139   4.108   1.307   7.532 -0.6416  0.4882 -0.6331
 2333SOL     OW24140   0.933   3.398   6.771  0.3939  0.0901  0.0743
 2333SOL    HW124141   0.894   3.421   6.687  2.2139 -1.4437 -1.3100
 2333SOL    HW224142   0.884   3.321   6.800  1.3331 -0.9441 -0.9348
 2334SOL     OW24143   2.221   0.676   1.457  0.6188 -0.1120 -0.7181
 2334SOL    HW124144   2.200   0.620   1.383  2.4031  1.1575 -2.2865
 2334SOL    HW224145   2.212   0.765   1.423  0.2172  0.5263  0.9765
 2335SOL     OW24146   3.707   4.763   6.641 -0.2275 -0.5651  0.0898
 2335SOL    HW124147   3.774   4.815   6.685  1.7766 -0.0608 -3.2184
 2335SOL    HW224148   3.633   4.823   6.630 -0.2369 -0.2998  1.4611
 2336SOL     OW24149   1.415   2.150   1.220 -0.0547  0.1945  0.3762
 2336SOL    HW124150   1.451   2.111   1.299  1.4054  1.7160  0.5410
 2336SOL    HW224151   1.327   2.177   1.244  0.7718  1.7171  1.9225
 2337SOL     OW24152   1.117   1.349   6.766  0.0726  0.2868 -0.4698
 2337SOL    HW124153   1.042   1.405   6.786  0.1571  0.8297 -1.6083
 2337SOL    HW224154   1.134   1.363   6.673  0.6758 -0.9396 -0.5727
 2338SOL     OW24155   6.330   3.741   7.524 -0.6904 -0.4409 -0.5694
 2338SOL    HW124156   6.290   3.673   7.470  0.8013 -1.8932  0.0460
 2338SOL    HW224157   6.406   3.770   7.473 -1.4937  1.0443 -0.9725
 2339SOL     OW24158   5.075   4.085   5.878  0.0101  0.0671  0.4248
 2339SOL    HW124159   5.098   4.123   5.793 -1.4498  0.4684  0.1811
 2339SOL    HW224160   5.083   4.158   5.939 -1.7001  0.5524  0.1368
 2340SOL     OW24161   1.799   4.851   1.371  0.5833 -0.1146 -0.3018
 2340SOL    HW124162   1.847   4.841   1.289 -0.6674  0.7562 -1.1739
 2340SOL    HW224163   1.788   4.762   1.403  1.5744 -0.4263 -0.7778
 2341SOL     OW24164   3.880   1.820   6.369  0.1175  0.1924 -0.8337
 2341SOL    HW124165   3.873   1.887   6.301  0.8263  0.0934 -1.0057
 2341SOL    HW224166   3.905   1.740   6.323 -0.0242 -0.0253 -0.5385
 2342SOL     OW24167   1.309   4.396   1.219 -0.5064 -0.2499  0.1160
 2342SOL    HW124168   1.301   4.483   1.257 -2.9484  0.1726 -1.1570
 2342SOL    HW224169   1.219   4.366   1.209  0.2627 -2.9713  0.5428
 2343SOL     OW24170   0.614   5.031   1.508 -0.3572 -0.1233 -0.3419
 2343SOL    HW124171   0.705   5.027   1.537 -0.3863  1.8353  0.1806
 2343SOL    HW224172   0.580   4.943   1.524  1.2804 -0.7435 -0.0416
 2344SOL     OW24173   4.646   1.189   1.553  0.0977  0.0319  0.3165
 2344SOL    HW124174   4.648   1.147   1.467 -1.6952 -2.0829  1.1966
 2344SOL    HW224175   4.738   1.197   1.578  0.6523  0.5614 -1.6973
 2345SOL     OW24176   3.033   2.307   6.665 -0.4480 -0.2283  0.7725
 2345SOL    HW124177   2.965   2.332   6.727 -0.4373  1.0198  0.3009
 2345SOL    HW224178   3.105   2.368   6.681 -1.1252  1.3270 -1.6359
 2346SOL     OW24179   0.994   4.470   2.249  0.4768 -0.0301  0.5700
 2346SOL    HW124180   1.073   4.480   2.301 -0.5245  1.7074  1.9028
 2346SOL    HW224181   0.948   4.554   2.260 -2.1951 -1.4265  1.0117
 2347SOL     OW24182   2.792   2.666   6.774  0.2567 -0.1196  0.3145
 2347SOL    HW124183   2.762   2.703   6.691  0.3081 -1.4858 -0.3342
 2347SOL    HW224184   2.768   2.732   6.840 -0.3659  0.6880 -0.6941
 2348SOL     OW24185   0.483   3.196   6.731  0.2834  0.3000  0.2447
 2348SOL    HW124186   0.421   3.152   6.674  1.5220  0.9781 -1.7525
 2348SOL    HW224187   0.500   3.280   6.688  3.2083 -0.2056  0.1718
 2349SOL     OW24188   5.754   1.727   1.075 -0.3514  0.0228  0.7529
 2349SOL    HW124189   5.754   1.778   0.993  2.6003  1.0622  1.2462
 2349SOL    HW224190   5.665   1.692   1.082 -0.3504 -1.5909 -3.7639
 2350SOL     OW24191   0.669   4.676   0.482  0.2343  0.2810 -0.0331
 2350SOL    HW124192   0.744   4.723   0.448  0.9864 -0.1561  0.9679
 2350SOL    HW224193   0.595   4.705   0.428  1.0638  0.9286 -0.8386
 2351SOL     OW24194   0.818   3.743   0.843 -0.0917  0.0048 -0.0488
 2351SOL    HW124195   0.902   3.698   0.846  0.2686  0.5044 -1.6956
 2351SOL    HW224196   0.815   3.793   0.925  1.6409  0.6935 -0.3736
 2352SOL     OW24197   2.409   0.828   6.746  0.3368  0.0989  0.4028
 2352SOL    HW124198   2.326   0.835   6.792 -0.7784  1.5874 -1.6658
 2352SOL    HW224199   2.475   0.854   6.810 -1.1014  1.8033  1.2468
 2353SOL     OW24200   0.876   0.392   7.588  0.3505 -0.0221 -0.1089
 2353SOL    HW124201   0.818   0.427   7.521 -0.6797 -0.1762  0.6868
 2353SOL    HW224202   0.944   0.459   7.597  0.0417  0.3824 -0.7033
 2354SOL     OW24203   5.791   3.930   1.184  0.0610  0.2254 -0.2576
 2354SOL    HW124204   5.878   3.948   1.221 -0.7791  2.7512  0.7430
 2354SOL    HW224205   5.760   3.853   1.232  0.8672  0.6603  1.0319
 2355SOL     OW24206   4.799   2.598   7.647  0.6360  0.0224 -0.5186
 2355SOL    HW124207   4.717   2.555   7.672 -0.0077  1.1570 -0.6370
 2355SOL    HW224208   4.772   2.683   7.612  1.6839 -0.4864 -2.7231
 2356SOL     OW24209   0.371   4.029   1.654 -0.4844 -0.3673  0.3763
 2356SOL    HW124210   0.365   3.934   1.641 -2.4520 -0.9144  3.9735
 2356SOL    HW224211   0.458   4.042   1.694 -0.2792 -0.6853  0.0357
 2357SOL     OW24212   1.694   5.735   0.054 -0.3415  0.2525 -0.1972
 2357SOL    HW124213   1.689   5.830   0.065  1.9295  0.5501 -1.1372
 2357SOL    HW224214   1.713   5.702   0.142 -1.9494  0.5484  0.2900
 2358SOL     OW24215   3.057   1.951   0.632  0.3204  0.1622  0.4219
 2358SOL    HW124216   3.145   1.914   0.630  1.0068  1.7299  0.3451
 2358SOL    HW224217   3.039   1.974   0.541 -0.1655 -0.1332  0.4416
 2359SOL     OW24218   3.460   5.559   5.969 -0.1578 -0.2860 -0.0059
 2359SOL    HW124219   3.382   5.526   5.924  1.3142 -1.8284 -1.6127
 2359SOL    HW224220   3.461   5.514   6.053 -1.2393  0.1510  0.2598
 2360SOL     OW24221   1.891   0.411   7.195 -0.2899 -0.1532  0.1812
 2360SOL    HW124222   1.925   0.330   7.157  0.2762 -0.2930  0.9571
 2360SOL    HW224223   1.949   0.480   7.160  0.2672 -0.2885  0.8193
 2361SOL     OW24224   5.222   2.537   1.428  0.4027  0.9381 -0.7375
 2361SOL    HW124225   5.241   2.474   1.497 -0.8094  1.3820  0.0414
 2361SOL    HW224226   5.200   2.484   1.352  4.1037  0.3859 -1.6131
 2362SOL     OW24227   2.682   3.068   0.339 -0.1532 -0.8238  0.0710
 2362SOL    HW124228   2.652   3.159   0.335 -1.0244 -1.0231  1.4436
 2362SOL    HW224229   2.682   3.039   0.248  0.4698  0.6478 -0.4216
 2363SOL     OW24230   4.754   3.969   6.931 -0.6760 -0.6010  0.2884
 2363SOL    HW124231   4.797   4.046   6.894 -1.1485  0.7783  2.4202
 2363SOL    HW224232   4.664   3.973   6.898 -1.0020  0.4158  1.2470
 2364SOL     OW24233   3.357   3.295   1.037  0.6963  0.0841  0.4768
 2364SOL    HW124234   3.342   3.321   0.946  1.2151 -0.4728  0.2201
 2364SOL    HW224235   3.415   3.361   1.073 -0.5726  1.0499  0.8207
 2365SOL     OW24236   1.317   6.252   6.226  0.2300  0.7680 -0.2990
 2365SOL    HW124237   1.223   6.239   6.216  0.1157  0.4816  0.9711
 2365SOL    HW224238   1.351   6.166   6.250  0.7211  1.0099 -0.1103
 2366SOL     OW24239   0.104   1.879   1.393  0.9744 -0.0954  0.0979
 2366SOL    HW124240   0.111   1.957   1.338  2.7554 -0.3070 -0.0579
 2366SOL    HW224241   0.190   1.873   1.436  0.2690 -0.9826  1.4765
 2367SOL     OW24242   3.746   4.493   7.166  0.6151 -0.4055  0.2768
 2367SOL    HW124243   3.801   4.508   7.090 -1.4846 -0.2945 -1.2960
 2367SOL    HW224244   3.732   4.580   7.203 -0.1748 -0.1598 -0.5654
 2368SOL     OW24245   1.003   4.117   0.907  0.1352  0.7195 -0.4102
 2368SOL    HW124246   1.049   4.101   0.989 -0.9484 -1.6784 -0.1801
 2368SOL    HW224247   1.055   4.070   0.841 -0.2008  0.7822 -0.7252
 2369SOL     OW24248   4.299   4.935   0.363  0.5626  0.7722 -0.1597
 2369SOL    HW124249   4.240   4.886   0.306 -1.6097  3.4409 -0.3985
 2369SOL    HW224250   4.385   4.928   0.319  0.1519 -1.7142 -0.7628
 2370SOL     OW24251   0.119   0.793   0.740  0.2210 -0.1809 -0.2992
 2370SOL    HW124252   0.198   0.757   0.780  0.2537  0.9911  0.7582
 2370SOL    HW224253   0.078   0.844   0.810 -1.2957 -0.4878 -0.9346
 2371SOL     OW24254   2.678   3.526   1.601 -0.2607  0.1995  0.1998
 2371SOL    HW124255   2.629   3.448   1.628  1.3454 -1.0924 -0.4261
 2371SOL    HW224256   2.707   3.566   1.683 -0.9937  0.0644  0.5261
 2372SOL     OW24257   3.791   4.751   0.135 -0.1726 -0.5854  0.3935
 2372SOL    HW124258   3.727   4.731   0.203 -1.2832  0.8053 -0.1873
 2372SOL    HW224259   3.838   4.828   0.169 -0.5527 -0.0478 -0.2904
 2373SOL     OW24260   4.637   0.058   7.476 -0.0840 -0.5695  1.0769
 2373SOL    HW124261   4.616   0.150   7.463 -1.4162 -0.7986  1.4145
 2373SOL    HW224262   4.653   0.024   7.388 -2.6734 -0.6824  0.5726
 2374SOL     OW24263   0.509   4.546   5.981  0.5225  0.2985 -0.0764
 2374SOL    HW124264   0.436   4.497   5.943  0.8386 -0.9981  0.9128
 2374SOL    HW224265   0.469   4.600   6.049  0.5124 -0.9307  0.9488
 2375SOL     OW24266   0.373   0.734   6.280 -0.0959  0.1999 -0.0511
 2375SOL    HW124267   0.282   0.758   6.259 -0.0317  0.1515 -0.3968
 2375SOL    HW224268   0.423   0.764   6.204  0.2463  0.6656  0.3475
 2376SOL     OW24269   3.582   3.912   1.279  0.6118 -0.2099  0.0760
 2376SOL    HW124270   3.616   3.998   1.304 -0.6120  0.5004 -0.5687
 2376SOL    HW224271   3.490   3.914   1.308  0.5639 -1.3046  0.0437
 2377SOL     OW24272   0.378   2.600   1.213  0.3113  0.6645  0.2746
 2377SOL    HW124273   0.447   2.664   1.193  0.7696 -0.4502 -2.0135
 2377SOL    HW224274   0.425   2.529   1.258  1.0581 -0.6918 -2.4087
 2378SOL     OW24275   2.095   1.864   0.249  0.6306  0.0484 -0.0098
 2378SOL    HW124276   2.118   1.945   0.205 -0.0569 -0.5338 -1.5107
 2378SOL    HW224277   2.034   1.820   0.189  0.5356 -1.3100  1.0203
 2379SOL     OW24278   0.785   3.914   1.138 -0.7076  0.2192 -0.7609
 2379SOL    HW124279   0.808   4.001   1.105 -0.0682 -0.0685 -1.0838
 2379SOL    HW224280   0.706   3.929   1.190 -0.6014  0.9943 -0.8046
 2380SOL     OW24281   2.296   1.667   0.768  0.1313  0.4694  0.6574
 2380SOL    HW124282   2.335   1.755   0.765  1.2104  0.0150  0.8732
 2380SOL    HW224283   2.219   1.677   0.824 -1.1550  1.7715 -1.2146
 2381SOL     OW24284   1.413   6.180   5.677  0.7324  0.1925  0.7771
 2381SOL    HW124285   1.373   6.182   5.764  1.4461 -1.6273  1.1980
 2381SOL    HW224286   1.503   6.151   5.692  1.1770  0.8307 -0.4839
 2382SOL     OW24287   3.260   3.038   0.429  0.2588  0.2307 -0.3500
 2382SOL    HW124288   3.244   3.012   0.339  1.0433  0.6338 -0.6102
 2382SOL    HW224289   3.292   3.128   0.423 -1.0637  0.7870  0.4324
 2383SOL     OW24290   3.517   4.449   1.464 -0.5561  0.6738  0.0967
 2383SOL    HW124291   3.447   4.439   1.399 -0.5729  1.4493 -0.0108
 2383SOL    HW224292   3.570   4.522   1.431  0.0486  0.3884  0.4134
 2384SOL     OW24293   3.908   2.910   7.572  0.2111  0.3903 -0.3303
 2384SOL    HW124294   4.001   2.896   7.589  0.4423  2.3982  0.3087
 2384SOL    HW224295   3.866   2.904   7.657 -0.1970 -0.1162 -0.5616
 2385SOL     OW24296   2.829   4.111   5.638  0.0052  0.1968  0.5946
 2385SOL    HW124297   2.784   4.030   5.663 -0.5347  0.2769 -0.1169
 2385SOL    HW224298   2.888   4.084   5.567 -0.9898  0.6407 -0.4102
 2386SOL     OW24299   0.629   4.699   0.163  0.2729  0.0193  0.5076
 2386SOL    HW124300   0.655   4.739   0.080 -0.1393  2.6035  1.5465
 2386SOL    HW224301   0.709   4.698   0.215 -0.2999  2.4913  1.5756
 2387SOL     OW24302   0.241   4.760   1.233 -1.2516  0.1679  0.0050
 2387SOL    HW124303   0.307   4.829   1.226 -0.9675  0.0196  0.9646
 2387SOL    HW224304   0.291   4.678   1.229 -1.2116  0.0579  1.7448
 2388SOL     OW24305   3.967   0.140   6.676  0.1369  0.0716  0.2038
 2388SOL    HW124306   3.994   0.051   6.651 -2.8569 -0.9779  0.2895
 2388SOL    HW224307   3.985   0.194   6.599  1.3494 -0.7261 -0.1044
 2389SOL     OW24308   1.379   5.928   7.053 -0.2588 -0.5520 -0.1602
 2389SOL    HW124309   1.304   5.983   7.029 -1.4886 -1.5937  1.1109
 2389SOL    HW224310   1.386   5.938   7.148  0.1639 -1.7510 -0.0544
 2390SOL     OW24311   6.091   5.744   7.364 -0.0623  0.1976 -0.3711
 2390SOL    HW124312   6.053   5.798   7.295  1.0197  1.3291 -0.1220
 2390SOL    HW224313   6.159   5.693   7.320  1.9520  2.3122  0.1082
 2391SOL     OW24314   3.275   4.750   6.803  0.2048 -0.1594 -0.2973
 2391SOL    HW124315   3.281   4.698   6.883 -3.6605 -0.7824 -0.2236
 2391SOL    HW224316   3.248   4.837   6.833  1.4309  0.3975 -0.7757
 2392SOL     OW24317   0.893   1.218   6.243 -0.3030 -0.2641 -0.1102
 2392SOL    HW124318   0.929   1.147   6.189  1.3972 -0.5233  1.2719
 2392SOL    HW224319   0.866   1.284   6.179  0.1032 -1.2367 -1.3479
 2393SOL     OW24320   4.956   3.322   2.015  0.3649 -0.2546 -0.1479
 2393SOL    HW124321   4.887   3.261   2.042  0.2422 -0.2524 -0.4503
 2393SOL    HW224322   4.911   3.386   1.959  0.2295  0.8763  1.1895
 2394SOL     OW24323   4.673   6.127   0.721  0.1272 -0.1941  0.0862
 2394SOL    HW124324   4.673   6.129   0.817  1.8875  0.2002  0.1012
 2394SOL    HW224325   4.683   6.218   0.696 -1.4486 -0.1576 -0.5274
 2395SOL     OW24326   6.468   4.705   0.851  0.3052 -0.2253  0.0393
 2395SOL    HW124327   6.453   4.629   0.796 -0.5472 -0.2284  0.2478
 2395SOL    HW224328   6.397   4.766   0.827  0.3082  0.0355  0.6613
 2396SOL     OW24329   0.789   4.473   6.072 -0.0625  0.3350  0.1910
 2396SOL    HW124330   0.694   4.472   6.079 -0.2336  1.2012 -1.3855
 2396SOL    HW224331   0.820   4.421   6.146 -1.7613 -0.1555  0.5938
 2397SOL     OW24332   2.004   2.443   6.886  0.2981 -0.1429 -0.9769
 2397SOL    HW124333   1.921   2.448   6.840 -0.5382 -2.2136  0.1759
 2397SOL    HW224334   2.018   2.349   6.900  1.5928  0.2820  1.0214
 2398SOL     OW24335   3.120   6.161   0.745 -0.3059  0.5696  0.4863
 2398SOL    HW124336   3.173   6.085   0.721 -1.9806 -0.2148 -1.0122
 2398SOL    HW224337   3.118   6.215   0.666 -2.5090  0.0453  0.1155
 2399SOL     OW24338   4.036   4.800   7.028 -1.0034 -0.3244  0.3408
 2399SOL    HW124339   4.004   4.780   7.116 -2.1570  0.4896  0.1294
 2399SOL    HW224340   4.072   4.889   7.035  1.4068 -1.2560  0.5991
 2400SOL     OW24341   3.488   1.645   6.819 -0.2012  0.3627 -0.2928
 2400SOL    HW124342   3.489   1.595   6.738 -0.5725  0.4348 -0.3396
 2400SOL    HW224343   3.500   1.736   6.792 -2.8662  0.7228 -0.5021
 2401SOL     OW24344   2.020   6.414   0.014 -0.3680  0.0411 -0.1518
 2401SOL    HW124345   2.062   6.426  -0.071  0.3221 -0.2942  0.1391
 2401SOL    HW224346   1.951   6.349  -0.002  0.3429 -0.6945 -0.2680
 2402SOL     OW24347   3.749   0.679   1.629  0.6077 -0.8028 -0.0459
 2402SOL    HW124348   3.672   0.723   1.665 -0.7464 -2.3833 -0.8601
 2402SOL    HW224349   3.792   0.641   1.706 -0.3814 -1.3244  0.2639
 2403SOL     OW24350   2.609   2.769   0.724 -0.6413  0.3678 -0.1566
 2403SOL    HW124351   2.639   2.810   0.642 -0.8930 -0.1881 -0.5272
 2403SOL    HW224352   2.655   2.685   0.727 -0.6846  0.3581  0.2419
 2404SOL     OW24353   1.301   6.330   0.700 -0.2081 -0.5221 -0.5409
 2404SOL    HW124354   1.256   6.281   0.631 -0.1201 -0.3704 -0.7097
 2404SOL    HW224355   1.312   6.268   0.771 -0.0672 -0.7554 -0.7666
 2405SOL     OW24356   4.105   3.241   0.170  0.0771  0.1940  0.4644
 2405SOL    HW124357   4.075   3.187   0.244  1.3902 -1.6101 -0.2485
 2405SOL    HW224358   4.120   3.327   0.208 -1.9149  0.0633  1.6980
 2406SOL     OW24359   2.450   0.819   2.385 -0.1793 -0.2715 -0.4075
 2406SOL    HW124360   2.432   0.893   2.327  0.8265 -1.2142 -1.9910
 2406SOL    HW224361   2.366   0.773   2.392 -0.7023  0.7661  0.2375
 2407SOL     OW24362   0.473   1.304   6.466  0.0947  0.0700  0.1451
 2407SOL    HW124363   0.476   1.287   6.560  0.7784 -0.8502 -0.0291
 2407SOL    HW224364   0.496   1.221   6.425 -0.8870  0.2653 -0.8660
 2408SOL     OW24365   4.018   3.173   6.658  0.2842  0.1251 -0.3855
 2408SOL    HW124366   4.000   3.097   6.712  4.1502 -0.6564  0.0891
 2408SOL    HW224367   3.940   3.182   6.603 -1.1289 -2.9586  0.8683
 2409SOL     OW24368   2.257   4.425   5.526  0.0865 -0.8037 -0.2300
 2409SOL    HW124369   2.319   4.475   5.579  1.2960 -0.7063 -1.6763
 2409SOL    HW224370   2.312   4.371   5.469 -1.1562 -1.0474 -1.2555
 2410SOL     OW24371   3.519   3.842   6.693 -0.0234 -0.3116  0.3979
 2410SOL    HW124372   3.576   3.777   6.652  0.7278 -0.3067  1.3914
 2410SOL    HW224373   3.577   3.916   6.712 -0.9713  0.9082 -1.1914
 2411SOL     OW24374   4.047   1.886   2.004  0.4244 -0.4310  0.6201
 2411SOL    HW124375   4.055   1.798   2.042  1.1784 -2.0000 -2.7905
 2411SOL    HW224376   3.954   1.894   1.983  0.6067 -1.2017 -0.5997
 2412SOL     OW24377   1.828   1.515   7.317 -0.0970 -1.1745  0.2019
 2412SOL    HW124378   1.798   1.536   7.406  0.4657 -0.4560  0.2266
 2412SOL    HW224379   1.911   1.562   7.308 -0.9402  0.0994 -1.2901
 2413SOL     OW24380   4.539   6.399   0.899  0.2753  0.4204 -0.0515
 2413SOL    HW124381   4.630   6.370   0.894 -0.6075 -2.3476 -2.8830
 2413SOL    HW224382   4.495   6.331   0.950 -0.7411  0.0486 -1.3926
 2414SOL     OW24383   3.035   2.021   6.936  0.1417 -0.2980  0.3520
 2414SOL    HW124384   3.020   2.105   6.893  1.4891 -0.7220 -1.0275
 2414SOL    HW224385   3.002   1.956   6.874  0.2581 -0.8444  0.8528
 2415SOL     OW24386   0.318   4.302   1.547  0.5345  0.0174 -0.3360
 2415SOL    HW124387   0.343   4.221   1.592  0.3810  0.9437  1.5239
 2415SOL    HW224388   0.270   4.352   1.614  1.3185  1.9864 -1.1810
 2416SOL     OW24389   1.932   2.695   1.275  0.7364 -0.1161  0.1130
 2416SOL    HW124390   2.027   2.699   1.260  0.3780  2.0411 -2.0528
 2416SOL    HW224391   1.899   2.638   1.206  0.4207 -0.8763  0.8741
 2417SOL     OW24392   3.376   5.285   6.954  0.2599 -0.0044 -0.5167
 2417SOL    HW124393   3.311   5.215   6.963 -1.4397  1.6923  1.6402
 2417SOL    HW224394   3.430   5.279   7.033  1.8683 -0.4897 -1.5988
 2418SOL     OW24395   5.447   3.297   6.774 -0.0135 -0.1383  0.2797
 2418SOL    HW124396   5.459   3.331   6.862 -0.1784 -1.5158  0.8494
 2418SOL    HW224397   5.381   3.354   6.735  0.2718  0.6518  0.9334
 2419SOL     OW24398   2.961   5.929   1.488 -0.1616  0.3428 -0.1146
 2419SOL    HW124399   2.895   5.860   1.492 -0.4212  0.6340  0.8203
 2419SOL    HW224400   3.045   5.882   1.491 -0.3178 -0.0126 -1.0902
 2420SOL     OW24401   1.594   4.130   7.286 -0.7908  0.1944 -0.4001
 2420SOL    HW124402   1.630   4.043   7.267  0.1857  0.4616  0.1444
 2420SOL    HW224403   1.593   4.134   7.382 -1.5417  0.5020 -0.4173
 2421SOL     OW24404   1.878   4.987   5.689  0.0225 -0.1576 -0.3856
 2421SOL    HW124405   1.842   5.064   5.645 -0.8512 -0.6982 -0.6525
 2421SOL    HW224406   1.930   4.943   5.623  2.5437  1.4260  0.4063
 2422SOL     OW24407   5.612   6.242   6.708  0.4110 -0.1688  0.3084
 2422SOL    HW124408   5.601   6.325   6.755  0.2674 -0.1316  0.2080
 2422SOL    HW224409   5.611   6.176   6.777 -3.0307 -0.4351  0.1854
 2423SOL     OW24410   2.094   4.703   7.675 -0.4034 -0.5173 -0.0328
 2423SOL    HW124411   2.074   4.704   7.581 -0.8718  0.5045  0.0634
 2423SOL    HW224412   2.022   4.750   7.715  0.2051 -0.2327  0.7558
 2424SOL     OW24413   1.021   3.201   6.230 -0.0830 -0.1248  0.5962
 2424SOL    HW124414   1.021   3.105   6.235 -2.3660 -0.2597 -0.5825
 2424SOL    HW224415   0.929   3.224   6.219  0.3232  2.3014  1.7807
 2425SOL     OW24416   2.017   3.269   6.647 -0.3338  0.2987 -0.2935
 2425SOL    HW124417   1.929   3.266   6.684 -1.4075 -1.4968 -2.7167
 2425SOL    HW224418   2.052   3.181   6.660  0.5328  0.5832 -0.6369
 2426SOL     OW24419   4.129   3.377   6.468 -0.2911 -0.4269 -0.0164
 2426SOL    HW124420   4.186   3.342   6.400 -0.0488 -0.0243 -0.0217
 2426SOL    HW224421   4.126   3.471   6.451  1.0167 -0.0819  1.4423
 2427SOL     OW24422   3.556   5.868   0.364  1.4035 -0.3058  0.0422
 2427SOL    HW124423   3.516   5.798   0.312  1.7982 -0.8714  0.4738
 2427SOL    HW224424   3.605   5.821   0.432  2.2202  0.3799 -0.0569
 2428SOL     OW24425   1.847   0.231   1.027  0.2596  0.3565 -0.0204
 2428SOL    HW124426   1.798   0.289   1.084  1.1082  2.2335 -1.1278
 2428SOL    HW224427   1.926   0.279   1.005 -0.1045 -0.1712 -2.9196
 2429SOL     OW24428   1.795   1.131   1.526 -0.1972 -0.0231  0.2957
 2429SOL    HW124429   1.814   1.076   1.450 -0.0843 -3.3109  2.5271
 2429SOL    HW224430   1.700   1.138   1.527 -0.1721  0.6509 -0.4837
 2430SOL     OW24431   1.004   4.985   6.383  0.7587 -0.0870 -0.6392
 2430SOL    HW124432   1.034   4.898   6.411  3.0139 -0.2464 -3.1428
 2430SOL    HW224433   0.962   4.970   6.298 -2.4699  0.8472  0.6298
 2431SOL     OW24434   2.535   4.602   2.507 -0.2664  0.2327 -0.2480
 2431SOL    HW124435   2.516   4.521   2.554 -0.3648 -1.6771 -3.2822
 2431SOL    HW224436   2.629   4.599   2.491 -0.2271  0.8671 -0.1796
 2432SOL     OW24437   4.542   5.203   5.719  0.0802 -0.1553  0.5489
 2432SOL    HW124438   4.594   5.282   5.706 -0.9061  0.4373  0.0177
 2432SOL    HW224439   4.459   5.221   5.674  0.0561 -1.7385 -0.1183
 2433SOL     OW24440   1.092   4.119   6.560 -0.6229  0.4278 -0.2372
 2433SOL    HW124441   1.115   4.028   6.580  0.2800  0.4782 -0.9598
 2433SOL    HW224442   1.105   4.165   6.643 -1.1661 -0.1028  0.1577
 2434SOL     OW24443   4.727   1.356   7.630 -0.2857  0.3629 -0.5992
 2434SOL    HW124444   4.633   1.368   7.616 -0.6027  1.2247  1.8257
 2434SOL    HW224445   4.762   1.445   7.631  0.6688  0.0287 -1.9670
 2435SOL     OW24446   1.327   6.031   1.437  0.0219 -0.1204  0.3074
 2435SOL    HW124447   1.302   5.961   1.377  0.1478  1.1101 -1.2682
 2435SOL    HW224448   1.420   6.017   1.454  0.6502  0.8816 -1.8625
 2436SOL     OW24449   0.727   2.306   2.204 -0.0797  0.3200 -0.1109
 2436SOL    HW124450   0.733   2.301   2.300 -1.4110  1.1928  0.0383
 2436SOL    HW224451   0.806   2.260   2.173  0.0553 -0.5313  1.3841
 2437SOL     OW24452   2.483   4.480   0.721  0.5382 -0.0849 -0.0155
 2437SOL    HW124453   2.490   4.470   0.816  1.1917  1.9791  0.1958
 2437SOL    HW224454   2.389   4.496   0.706  0.7149  1.8859  0.6057
 2438SOL     OW24455   4.107   5.738   0.146 -0.4623 -0.1742  0.1669
 2438SOL    HW124456   4.128   5.772   0.233 -1.3397  0.3089  0.1940
 2438SOL    HW224457   4.186   5.753   0.095 -0.0112 -0.2716  0.8212
 2439SOL     OW24458   0.168   6.156   6.873  0.1625 -0.2047  0.3405
 2439SOL    HW124459   0.153   6.189   6.784 -1.4989 -0.7240  0.3976
 2439SOL    HW224460   0.250   6.197   6.900  1.1069 -0.6204 -1.7064
 2440SOL     OW24461   6.375   1.237   1.640  0.3241  1.0336 -0.7558
 2440SOL    HW124462   6.305   1.219   1.703  0.1010  1.2373 -0.9457
 2440SOL    HW224463   6.381   1.157   1.587 -0.0745  1.1867 -1.0345
 2441SOL     OW24464   4.087   4.886   0.085  0.0673  0.0899  0.0810
 2441SOL    HW124465   4.126   4.960   0.132  0.6520 -0.2750  0.1793
 2441SOL    HW224466   4.113   4.809   0.135  2.2149 -0.4903 -1.7763
 2442SOL     OW24467   5.364   4.793   1.917 -0.2310  0.3273  0.3718
 2442SOL    HW124468   5.334   4.883   1.903 -3.3964 -0.6365  0.1240
 2442SOL    HW224469   5.432   4.780   1.852  0.9569  2.7610  0.9849
 2443SOL     OW24470   4.107   0.720   5.761  0.2952 -0.2852 -0.0659
 2443SOL    HW124471   4.108   0.635   5.717 -0.6137  0.2143 -1.0966
 2443SOL    HW224472   4.032   0.715   5.820  1.2098 -0.7671  1.1005
 2444SOL     OW24473   5.125   5.785   0.791 -0.2080 -0.2377  0.0230
 2444SOL    HW124474   5.192   5.849   0.770 -1.2532  0.0712 -2.7856
 2444SOL    HW224475   5.082   5.820   0.869 -0.6142  2.4680 -1.2964
 2445SOL     OW24476   5.626   0.207   1.576 -0.2977  0.1374  0.3132
 2445SOL    HW124477   5.544   0.209   1.625  0.0714  1.6532  0.9273
 2445SOL    HW224478   5.610   0.144   1.505 -1.6611 -0.2805  0.9486
 2446SOL     OW24479   5.528   2.416   1.056 -0.3345  0.0351 -0.3539
 2446SOL    HW124480   5.597   2.354   1.030  0.7581  1.1390 -0.1952
 2446SOL    HW224481   5.493   2.381   1.137  0.5079 -0.2239 -0.0881
 2447SOL     OW24482   0.200   2.195   7.436  0.0490  0.1401  0.4594
 2447SOL    HW124483   0.136   2.146   7.384  0.8939 -2.7786  1.9338
 2447SOL    HW224484   0.269   2.216   7.373 -1.1528  1.0841 -0.6037
 2448SOL     OW24485   2.967   1.014   1.161  0.1707  0.2532  0.3611
 2448SOL    HW124486   2.922   1.067   1.226  0.5505  0.0392  0.7988
 2448SOL    HW224487   2.942   1.053   1.077 -2.6645 -1.2086  0.4029
 2449SOL     OW24488   2.602   0.520   0.727  0.0939  0.0848  0.0887
 2449SOL    HW124489   2.682   0.540   0.678  1.1316 -3.5364  0.0542
 2449SOL    HW224490   2.534   0.509   0.661 -0.0787  1.4194  0.0055
 2450SOL     OW24491   1.832   1.047   6.237 -0.6896 -0.3780  0.4732
 2450SOL    HW124492   1.904   1.099   6.272 -1.3377  0.7986  0.1233
 2450SOL    HW224493   1.754   1.098   6.257 -1.4779 -1.7958  1.1500
 2451SOL     OW24494   1.940   2.772   2.090 -0.0932  0.1355 -0.1401
 2451SOL    HW124495   1.874   2.804   2.151 -0.6603  0.9662 -1.1392
 2451SOL    HW224496   2.013   2.833   2.100  0.3882 -0.5544  0.6864
 2452SOL     OW24497   5.288   5.345   0.079 -0.5018  0.2126 -0.0207
 2452SOL    HW124498   5.333   5.273   0.035 -1.7944 -0.2286 -0.6762
 2452SOL    HW224499   5.341   5.363   0.156  0.7093 -0.3715 -0.6876
 2453SOL     OW24500   3.959   3.082   7.207  0.4820 -0.1673  1.1963
 2453SOL    HW124501   3.998   3.148   7.264 -0.2638  0.0958  1.4101
 2453SOL    HW224502   4.034   3.034   7.171  1.1667  1.9442 -0.4104
 2454SOL     OW24503   2.781   4.333   0.699  0.3479  0.5078 -0.4807
 2454SOL    HW124504   2.862   4.381   0.681 -0.4534  2.2812  0.3325
 2454SOL    HW224505   2.723   4.358   0.627  0.4371 -0.6122 -0.9623
 2455SOL     OW24506   3.534   3.621   0.882  0.8472 -0.0285  0.3270
 2455SOL    HW124507   3.489   3.609   0.966  0.3161 -0.1843  0.0234
 2455SOL    HW224508   3.481   3.685   0.835  0.0589 -1.3470 -0.6487
 2456SOL     OW24509   1.515   5.565   1.555 -0.5334  0.3529 -0.3982
 2456SOL    HW124510   1.553   5.499   1.614  0.7830  0.7062 -0.8022
 2456SOL    HW224511   1.437   5.524   1.519 -0.5379 -0.4267  0.4744
 2457SOL     OW24512   3.882   6.157   2.120  0.1811  0.4613 -0.2013
 2457SOL    HW124513   3.795   6.117   2.124 -0.3754  1.6481  0.0093
 2457SOL    HW224514   3.870   6.233   2.062  0.7509  1.3933  0.8700
 2458SOL     OW24515   2.982   4.911   5.487 -0.3388 -0.2600 -0.7903
 2458SOL    HW124516   2.912   4.972   5.508 -1.4477 -0.7647 -2.7663
 2458SOL    HW224517   2.954   4.828   5.527  0.6212  0.1924  0.9279
 2459SOL     OW24518   1.245   1.927   7.361  0.3065 -0.5907 -0.0569
 2459SOL    HW124519   1.200   1.997   7.314  1.9592  1.0623  0.7074
 2459SOL    HW224520   1.301   1.886   7.295  0.5269 -0.1311 -0.1557
 2460SOL     OW24521   2.151   2.933   1.887  0.7331  0.1068 -0.0535
 2460SOL    HW124522   2.148   3.026   1.866 -2.5007  0.2306  0.5142
 2460SOL    HW224523   2.150   2.929   1.983 -1.2237 -0.4487 -0.0544
 2461SOL     OW24524   3.122   6.230   6.265 -0.7763  0.0561 -0.2074
 2461SOL    HW124525   3.106   6.144   6.303  2.3315 -1.6117 -2.2329
 2461SOL    HW224526   3.177   6.275   6.329 -0.6620 -0.3040 -0.0509
 2462SOL     OW24527   5.656   6.369   6.302 -0.0281 -0.5887  0.2327
 2462SOL    HW124528   5.700   6.318   6.234  0.4406  1.6403 -1.2422
 2462SOL    HW224529   5.590   6.310   6.337  1.3983 -2.6469 -0.3809
 2463SOL     OW24530   4.908   2.255   5.671  0.7946  0.1537 -0.2997
 2463SOL    HW124531   4.993   2.218   5.647  0.7341 -0.5142  0.4869
 2463SOL    HW224532   4.880   2.204   5.747 -0.8526 -0.4077 -1.2529
 2464SOL     OW24533   3.141   4.785   7.344  0.3172  0.3848  0.0764
 2464SOL    HW124534   3.100   4.720   7.287  1.0275  0.2820 -0.3255
 2464SOL    HW224535   3.078   4.857   7.347 -0.7150 -0.5304  0.9541
 2465SOL     OW24536   5.249   1.072   0.903  0.9447 -0.1936  0.1048
 2465SOL    HW124537   5.260   1.149   0.959  0.3782 -0.1360  0.1375
 2465SOL    HW224538   5.234   1.000   0.964  0.5903 -0.1761  0.0410
 2466SOL     OW24539   1.455   0.772   6.019  0.7556  0.0290  0.1835
 2466SOL    HW124540   1.497   0.780   5.933 -0.4131  0.5190 -0.3607
 2466SOL    HW224541   1.463   0.680   6.042 -0.4800 -0.4645 -1.2703
 2467SOL     OW24542   1.375   2.049   7.565 -0.3654  0.6222 -0.3721
 2467SOL    HW124543   1.327   2.010   7.491  1.6154 -0.2786 -1.2728
 2467SOL    HW224544   1.464   2.059   7.532  0.3517  1.1193  1.6113
 2468SOL     OW24545   3.976   4.277   7.326  0.1291 -0.5058  0.1224
 2468SOL    HW124546   3.965   4.360   7.373  0.5082  0.1991 -0.9801
 2468SOL    HW224547   3.992   4.212   7.394 -0.5225  0.2606  1.0365
 2469SOL     OW24548   5.045   0.123   6.667  0.0844 -0.2896 -0.1608
 2469SOL    HW124549   5.017   0.196   6.722 -2.2860 -0.1357 -1.4388
 2469SOL    HW224550   5.114   0.080   6.718  0.1868  1.6742  1.4815
 2470SOL     OW24551   0.458   1.057   5.706 -0.0262  0.0152 -0.1636
 2470SOL    HW124552   0.431   1.149   5.711 -0.9546 -0.2925  0.7925
 2470SOL    HW224553   0.553   1.061   5.709 -0.0656  0.9187  0.5337
 2471SOL     OW24554   0.752   3.241   6.161 -0.0017 -0.6211  0.0573
 2471SOL    HW124555   0.706   3.205   6.237  0.1422 -1.9101 -0.4348
 2471SOL    HW224556   0.750   3.170   6.097 -0.3760  0.5475 -1.2654
 2472SOL     OW24557   3.757   0.023   6.912  0.4879  0.2376  0.0029
 2472SOL    HW124558   3.674  -0.020   6.891  0.5095 -0.4540  1.2116
 2472SOL    HW224559   3.754   0.107   6.866 -1.7431  1.1073  1.5637
 2473SOL     OW24560   5.072   3.651   1.897 -0.1573  0.6556  0.4783
 2473SOL    HW124561   4.983   3.666   1.930 -0.9091 -2.4014  0.1621
 2473SOL    HW224562   5.059   3.611   1.811  1.4208 -1.3917  1.1202
 2474SOL     OW24563   4.439   5.770   6.386 -0.0054 -0.3567 -0.1841
 2474SOL    HW124564   4.462   5.816   6.467  0.5450  2.7537 -1.9112
 2474SOL    HW224565   4.351   5.735   6.402 -0.1048  0.5775  1.5916
 2475SOL     OW24566   4.062   4.271   7.044 -0.1927  0.1414 -0.1723
 2475SOL    HW124567   4.151   4.305   7.042  0.1686 -0.7364  0.3389
 2475SOL    HW224568   4.007   4.347   7.065  0.5827  0.4221  0.9127
 2476SOL     OW24569   0.669   5.622   5.958 -0.3473  0.3911 -0.0660
 2476SOL    HW124570   0.587   5.586   5.993 -0.0599 -1.4784 -1.1360
 2476SOL    HW224571   0.663   5.607   5.864  0.1236  2.6667 -0.5157
 2477SOL     OW24572   5.259   5.293   6.308 -0.6997 -0.2644 -0.0255
 2477SOL    HW124573   5.237   5.365   6.367 -1.6753  0.9632 -1.7891
 2477SOL    HW224574   5.351   5.306   6.287 -0.6948  0.0659  0.1906
 2478SOL     OW24575   0.212   4.648   1.728 -0.2102 -0.5417 -0.3555
 2478SOL    HW124576   0.170   4.602   1.655  0.6704 -0.4472 -0.9352
 2478SOL    HW224577   0.284   4.591   1.755  0.9458  0.4771 -1.1285
 2479SOL     OW24578   3.095   6.085   5.712 -0.5806 -0.5418 -0.0118
 2479SOL    HW124579   3.144   6.040   5.643  0.7010 -1.0723  1.1763
 2479SOL    HW224580   3.132   6.050   5.794 -1.0031  1.1303  0.9480
 2480SOL     OW24581   0.816   1.444   1.150  0.2047 -0.0775 -0.3155
 2480SOL    HW124582   0.724   1.419   1.140 -1.0073  4.0430 -1.7396
 2480SOL    HW224583   0.823   1.477   1.240  0.2348 -0.2175 -0.2666
 2481SOL     OW24584   5.090   0.986   7.391 -0.1590 -0.0004  0.1917
 2481SOL    HW124585   5.094   1.046   7.317 -1.9495 -0.8614 -0.6544
 2481SOL    HW224586   5.082   1.044   7.468  0.7190  0.8728 -0.3543
 2482SOL     OW24587   2.578   1.767   0.579  0.0738  0.0164  0.1603
 2482SOL    HW124588   2.490   1.802   0.586 -0.2980 -1.1029  1.6513
 2482SOL    HW224589   2.609   1.796   0.494 -1.5473  0.8456 -0.1796
 2483SOL     OW24590   4.100   5.929   6.438 -0.3506  0.4265  0.4053
 2483SOL    HW124591   4.108   5.940   6.343  1.3013  0.8730  0.5763
 2483SOL    HW224592   4.048   6.004   6.466  0.0451  0.8780 -0.0306
 2484SOL     OW24593   4.960   0.992   7.742 -0.0468  0.2491 -0.1774
 2484SOL    HW124594   5.045   0.955   7.721 -0.0587 -0.4805  0.9847
 2484SOL    HW224595   4.969   1.026   7.831 -0.5535  1.5024 -0.5761
 2485SOL     OW24596   3.033   3.204   1.707 -0.5324 -0.5026 -0.3147
 2485SOL    HW124597   3.029   3.287   1.753 -0.1439 -1.3343  1.2878
 2485SOL    HW224598   3.001   3.224   1.619  1.3373  1.7229 -0.5817
 2486SOL     OW24599   5.849   3.325   0.401  0.2590  0.3914 -0.3465
 2486SOL    HW124600   5.820   3.284   0.319 -0.6940 -0.8026  0.5428
 2486SOL    HW224601   5.910   3.393   0.373  0.1579 -0.1466 -2.0310
 2487SOL     OW24602   5.258   1.348   0.624 -0.4468  0.4310  0.6398
 2487SOL    HW124603   5.320   1.279   0.648  0.2468  1.2333  1.2534
 2487SOL    HW224604   5.296   1.387   0.545 -0.5819  0.4222  0.5709
 2488SOL     OW24605   2.647   4.079   5.322 -0.0884 -0.0621  0.5919
 2488SOL    HW124606   2.599   4.148   5.367  0.9367  0.5237  0.8083
 2488SOL    HW224607   2.653   4.008   5.386  1.8744  0.9843  1.6466
 2489SOL     OW24608   3.560   6.186   6.592 -0.7199  0.1744  0.1152
 2489SOL    HW124609   3.543   6.092   6.599 -0.5531  0.1314 -0.0406
 2489SOL    HW224610   3.639   6.192   6.538 -0.5480  0.3919  0.3864
 2490SOL     OW24611   5.261   2.768   0.836  0.3793 -0.1203 -0.0701
 2490SOL    HW124612   5.318   2.844   0.845 -0.8417  0.6938  1.2371
 2490SOL    HW224613   5.276   2.716   0.915 -1.7102  0.8812  1.0640
 2491SOL     OW24614   1.559   1.429   7.542 -0.5102  0.2097  0.0103
 2491SOL    HW124615   1.542   1.353   7.487 -1.7148  0.8013 -0.4849
 2491SOL    HW224616   1.481   1.437   7.597  0.4115 -0.0046  1.4043
 2492SOL     OW24617   3.808   4.835   0.665  0.2134 -0.3269  0.3408
 2492SOL    HW124618   3.767   4.751   0.647 -2.1751  1.2165 -2.2649
 2492SOL    HW224619   3.876   4.843   0.597  1.3576 -0.6560  1.4125
 2493SOL     OW24620   1.091   4.687   0.139 -0.3251 -0.4593 -0.4326
 2493SOL    HW124621   1.154   4.722   0.076 -0.9668  0.5885 -0.5084
 2493SOL    HW224622   1.143   4.669   0.217 -0.1172  1.5661 -0.0622
 2494SOL     OW24623   2.492   2.550   0.256 -0.0627 -0.1880  0.9840
 2494SOL    HW124624   2.554   2.478   0.264  0.6530  0.3289  0.3283
 2494SOL    HW224625   2.406   2.509   0.250  0.4481 -1.0839 -0.8571
 2495SOL     OW24626   2.336   3.908   0.021 -0.0768 -0.2587 -0.6808
 2495SOL    HW124627   2.258   3.883   0.070 -0.6835  0.1001 -1.4533
 2495SOL    HW224628   2.396   3.943   0.087 -0.2202 -1.3449  0.0448
 2496SOL     OW24629   4.779   5.387   7.341 -0.2442  0.9287  0.1772
 2496SOL    HW124630   4.861   5.434   7.355  0.5598 -0.6910  1.2320
 2496SOL    HW224631   4.721   5.419   7.410  0.6179 -0.2505  1.5009
 2497SOL     OW24632   1.510   5.782   6.052 -0.2596  0.0809  0.3437
 2497SOL    HW124633   1.583   5.770   6.112  0.2433 -0.5264 -0.3716
 2497SOL    HW224634   1.543   5.751   5.968 -1.0040  0.7682 -0.2137
 2498SOL     OW24635   2.174   1.456   1.361 -0.5078 -0.3663  0.3905
 2498SOL    HW124636   2.133   1.388   1.307  0.5643 -0.6967 -0.0367
 2498SOL    HW224637   2.190   1.414   1.445 -1.2931 -0.1447  0.6613
 2499SOL     OW24638   3.537   5.036   1.563  0.0805 -0.2339  0.6190
 2499SOL    HW124639   3.535   5.131   1.565  2.1072 -0.1080 -1.0408
 2499SOL    HW224640   3.584   5.011   1.643 -0.4516  0.1405  1.0547
 2500SOL     OW24641   1.720   3.104   0.512 -0.4237  0.1380  0.1713
 2500SOL    HW124642   1.703   3.189   0.474  0.0660 -0.3029 -1.0741
 2500SOL    HW224643   1.660   3.098   0.586 -2.1869  0.5943 -1.1616
 2501SOL     OW24644   0.411   0.510   7.374 -0.1446  0.6247  0.0166
 2501SOL    HW124645   0.441   0.566   7.302 -1.8467 -0.1368 -1.3402
 2501SOL    HW224646   0.325   0.545   7.397  0.2024  0.6043  1.4451
 2502SOL     OW24647   3.758   0.846   7.513 -0.0800 -0.1074 -0.4508
 2502SOL    HW124648   3.664   0.832   7.525 -0.4500  0.7196 -2.1225
 2502SOL    HW224649   3.780   0.797   7.434  0.3594  1.6374 -1.4709
 2503SOL     OW24650   0.437   2.595   6.802  0.2172 -0.0457 -0.0268
 2503SOL    HW124651   0.517   2.578   6.752  1.9787 -0.5481  2.7238
 2503SOL    HW224652   0.446   2.685   6.831  1.1895 -0.8656  2.4588
 2504SOL     OW24653   0.289   5.900   6.870 -0.0265  0.4204  0.5719
 2504SOL    HW124654   0.235   5.978   6.858 -0.4122  0.1540  0.5606
 2504SOL    HW224655   0.368   5.932   6.913 -1.3496  0.4246  3.1892
 2505SOL     OW24656   2.550   4.790   1.009 -1.1640  0.3994  0.0283
 2505SOL    HW124657   2.545   4.864   1.070 -1.0878 -0.8604  1.6530
 2505SOL    HW224658   2.611   4.729   1.051 -0.8531 -0.3792 -1.4995
 2506SOL     OW24659   3.353   4.143   0.747  0.1158 -0.4227 -0.5939
 2506SOL    HW124660   3.336   4.089   0.670  2.4349 -2.4851  0.2039
 2506SOL    HW224661   3.394   4.083   0.810 -0.1227  1.5718  1.6009
 2507SOL     OW24662   5.646   0.981   2.144 -0.5681 -0.0435  0.2752
 2507SOL    HW124663   5.672   0.893   2.118  0.2773  0.9041 -2.4654
 2507SOL    HW224664   5.555   0.973   2.171 -0.0926 -1.9535  1.5258
 2508SOL     OW24665   5.754   2.469   0.713  0.2582 -0.2047  0.2514
 2508SOL    HW124666   5.771   2.428   0.798  0.0468 -1.2590 -0.1965
 2508SOL    HW224667   5.692   2.411   0.671 -0.6286  0.9864 -0.1287
 2509SOL     OW24668   0.496   4.890   1.097  0.1462 -0.1928 -0.3494
 2509SOL    HW124669   0.577   4.872   1.145  0.0003 -4.3598 -1.3069
 2509SOL    HW224670   0.515   4.866   1.007 -1.8232 -0.2229 -0.8078
 2510SOL     OW24671   3.714   0.918   5.290 -0.1548  0.1187  0.4085
 2510SOL    HW124672   3.630   0.902   5.332 -1.4083  1.0739 -1.5844
 2510SOL    HW224673   3.736   0.835   5.247  0.5499 -0.4947  1.8909
 2511SOL     OW24674   0.650   0.250   7.672 -0.5215  0.3407 -0.0380
 2511SOL    HW124675   0.649   0.188   7.599 -0.5404 -0.2820  0.4898
 2511SOL    HW224676   0.736   0.292   7.667 -0.1712 -0.3521  0.1240
 2512SOL     OW24677   0.411   5.710   5.797  0.4252  0.7686  0.8084
 2512SOL    HW124678   0.387   5.623   5.765 -1.2301  0.9044  1.5745
 2512SOL    HW224679   0.488   5.735   5.745 -0.8305  0.0870 -1.5204
 2513SOL     OW24680   2.784   4.312   2.569 -0.0034  0.3013  0.4296
 2513SOL    HW124681   2.795   4.318   2.474 -0.6466 -0.2236  0.3081
 2513SOL    HW224682   2.762   4.401   2.596 -1.7552  0.1108 -0.2119
 2514SOL     OW24683   4.221   5.201   1.286 -0.0714 -0.3328 -0.2570
 2514SOL    HW124684   4.261   5.288   1.286 -0.6979 -0.0253  0.7662
 2514SOL    HW224685   4.146   5.209   1.227 -0.5338  0.0266  0.3709
 2515SOL     OW24686   1.453   2.281   1.754 -0.4847  0.2472  0.5353
 2515SOL    HW124687   1.538   2.254   1.789  0.3627  0.1186 -1.4961
 2515SOL    HW224688   1.394   2.208   1.775  0.0998 -0.0352  1.2205
 2516SOL     OW24689   2.984   0.645   1.996  0.7091  0.6311 -0.0081
 2516SOL    HW124690   2.975   0.740   2.010  0.4004  0.6942 -0.6084
 2516SOL    HW224691   2.903   0.619   1.953  0.4061 -0.0751  0.9623
 2517SOL     OW24692   6.369   2.668   0.555 -0.2294  0.2709  0.0591
 2517SOL    HW124693   6.437   2.637   0.614 -0.0552  0.4075 -0.0685
 2517SOL    HW224694   6.301   2.600   0.557  0.4033 -0.4046 -0.6654
 2518SOL     OW24695   1.545   2.801   0.546 -0.2250  0.5395  0.0821
 2518SOL    HW124696   1.458   2.810   0.585  0.3281  0.1710  1.4651
 2518SOL    HW224697   1.591   2.881   0.571 -0.2192  0.8450 -0.8500
 2519SOL     OW24698   4.582   2.319   7.014 -0.1008 -0.2192  0.3847
 2519SOL    HW124699   4.602   2.244   7.070  1.8837 -0.4970 -0.6159
 2519SOL    HW224700   4.577   2.282   6.925  0.3458  0.7398 -0.0525
 2520SOL     OW24701   6.160   6.432   7.189 -0.1819  0.2446 -0.2584
 2520SOL    HW124702   6.151   6.488   7.266  0.2886  1.5332 -1.1166
 2520SOL    HW224703   6.109   6.475   7.121  0.9659  0.1722 -1.2085
 2521SOL     OW24704   5.097   4.975   0.054  0.1030  0.0414 -0.4169
 2521SOL    HW124705   5.047   5.052   0.084  0.5472  0.6011 -1.0748
 2521SOL    HW224706   5.182   4.984   0.096  0.2441  0.0589 -0.6992
 2522SOL     OW24707   4.860   1.981   1.579  0.0918 -0.0252  0.5777
 2522SOL    HW124708   4.869   1.901   1.527  0.0656  0.4665 -0.2084
 2522SOL    HW224709   4.788   1.963   1.639  1.9615 -1.6633  2.4875
 2523SOL     OW24710   3.000   2.088   6.511  0.7394  0.5655  0.0329
 2523SOL    HW124711   3.090   2.056   6.511  0.6800  0.0385  3.1383
 2523SOL    HW224712   3.006   2.178   6.542  0.2828  0.9739 -1.0367
 2524SOL     OW24713   6.158   3.891   0.273 -0.1511  0.1185  0.9281
 2524SOL    HW124714   6.240   3.868   0.318 -1.6784 -1.6659  2.9924
 2524SOL    HW224715   6.100   3.816   0.289 -0.7123 -1.1468 -4.7079
 2525SOL     OW24716   6.466   5.765   6.067 -0.8140  0.0371  0.4196
 2525SOL    HW124717   6.407   5.702   6.025  0.1050 -0.1914 -0.5685
 2525SOL    HW224718   6.453   5.846   6.019  1.1458 -0.5391 -1.2199
 2526SOL     OW24719   5.652   6.440   6.928  0.8223 -0.4179 -0.6486
 2526SOL    HW124720   5.566   6.469   6.958  0.2553 -0.0655 -2.4828
 2526SOL    HW224721   5.674   6.367   6.986 -0.3710 -0.0471  0.3169
 2527SOL     OW24722   1.577   4.726   1.910  0.2138  0.3089 -0.1541
 2527SOL    HW124723   1.615   4.660   1.967  0.0488  1.2048  1.0258
 2527SOL    HW224724   1.493   4.747   1.950 -0.4797  0.0516 -1.4339
 2528SOL     OW24725   1.880   3.379   5.800 -0.1307  1.0289  0.0516
 2528SOL    HW124726   1.904   3.448   5.863 -1.7764  1.0795  0.6745
 2528SOL    HW224727   1.923   3.300   5.834  0.5988  1.4418  0.1291
 2529SOL     OW24728   5.665   0.507   7.175 -0.0480 -0.0472  0.5205
 2529SOL    HW124729   5.604   0.482   7.105 -0.1979  1.8501 -0.0792
 2529SOL    HW224730   5.625   0.472   7.255 -0.1051 -1.8567 -0.2486
 2530SOL     OW24731   4.665   4.269   7.044 -0.2416  0.1021  0.4593
 2530SOL    HW124732   4.737   4.291   6.986  0.4881 -0.3009  1.1945
 2530SOL    HW224733   4.696   4.292   7.131 -1.7642  1.8039  0.6100
 2531SOL     OW24734   2.639   0.515   5.392 -0.0452  0.0356  0.0646
 2531SOL    HW124735   2.640   0.434   5.444 -0.4712 -1.3256 -1.9439
 2531SOL    HW224736   2.592   0.492   5.312  3.2864  1.0365 -2.4334
 2532SOL     OW24737   5.863   0.532   1.933 -0.5643  0.2776 -0.0060
 2532SOL    HW124738   5.857   0.439   1.956 -1.5917  0.5571  0.9183
 2532SOL    HW224739   5.926   0.568   1.995  0.4004  0.0807 -0.8349
 2533SOL     OW24740   2.955   3.627   0.306  0.7070  0.3319  0.3848
 2533SOL    HW124741   2.965   3.573   0.385  0.8335  0.3445  0.3779
 2533SOL    HW224742   3.038   3.673   0.298  0.0194  1.8045  1.3150
 2534SOL     OW24743   0.134   2.482   2.290  0.3907 -0.2286 -0.0749
 2534SOL    HW124744   0.058   2.440   2.330  0.8788 -0.4303  0.6622
 2534SOL    HW224745   0.124   2.465   2.196 -0.7394  0.1919 -0.0446
 2535SOL     OW24746   1.416   1.470   0.144 -0.3929  0.5514 -0.2915
 2535SOL    HW124747   1.371   1.493   0.062  2.6324  0.6374 -2.1045
 2535SOL    HW224748   1.431   1.554   0.186 -1.2859  0.5787 -0.0057
 2536SOL     OW24749   0.819   1.147   5.391  0.1325 -0.7193  0.5001
 2536SOL    HW124750   0.793   1.156   5.299  0.5259 -0.0491  0.4464
 2536SOL    HW224751   0.792   1.059   5.415  1.9463 -1.7369 -0.8819
 2537SOL     OW24752   0.699   4.345   6.595  0.1874  0.0876  0.5889
 2537SOL    HW124753   0.770   4.383   6.646  0.5179 -0.3621  0.4768
 2537SOL    HW224754   0.732   4.258   6.570 -0.8466 -0.5779  1.4916
 2538SOL     OW24755   0.426   4.097   6.478 -0.0553 -0.1991 -0.0292
 2538SOL    HW124756   0.495   4.087   6.413  0.2048 -2.7554  0.5149
 2538SOL    HW224757   0.456   4.168   6.535  1.6902 -0.6517 -0.3327
 2539SOL     OW24758   1.091   1.802   6.889  0.2005 -0.6834  0.1255
 2539SOL    HW124759   1.171   1.769   6.848 -1.0768 -1.9308 -1.5043
 2539SOL    HW224760   1.074   1.740   6.961  1.4843  0.4861  1.5014
 2540SOL     OW24761   1.734   3.603   0.563  0.2093 -0.2335 -0.0828
 2540SOL    HW124762   1.746   3.510   0.580 -0.0503 -0.7771 -2.4327
 2540SOL    HW224763   1.762   3.647   0.643  2.3297 -2.2359  0.3831
 2541SOL     OW24764   5.392   0.529   7.093  0.2293 -0.9946  0.6956
 2541SOL    HW124765   5.313   0.579   7.072  0.0119 -1.0534  1.3566
 2541SOL    HW224766   5.360   0.446   7.127  0.5423 -0.6370  1.9216
 2542SOL     OW24767   3.695   3.631   0.539  0.0885  0.5974  0.1908
 2542SOL    HW124768   3.649   3.547   0.546 -0.6532  1.1391  2.3746
 2542SOL    HW224769   3.774   3.620   0.592 -0.5172  1.5736  1.3405
 2543SOL     OW24770   1.011   3.475   1.126  0.3850  0.6453 -0.5823
 2543SOL    HW124771   1.017   3.560   1.082  0.8601  0.3981 -0.9998
 2543SOL    HW224772   1.053   3.490   1.211 -0.4042  1.0839 -0.2626
 2544SOL     OW24773   5.108   2.068   7.584  0.4856  0.1740  0.0827
 2544SOL    HW124774   5.155   1.991   7.617 -3.8106 -3.4893 -1.2296
 2544SOL    HW224775   5.169   2.109   7.523  3.8897 -0.5265  2.6622
 2545SOL     OW24776   4.463   4.933   1.862 -0.5787  0.1578 -0.3583
 2545SOL    HW124777   4.426   4.912   1.948  0.2521  1.4617  0.3531
 2545SOL    HW224778   4.505   4.852   1.833 -0.7627 -0.2610  0.5246
 2546SOL     OW24779   6.126   3.599   0.166 -0.0066 -0.1641 -0.2304
 2546SOL    HW124780   6.102   3.573   0.255 -1.0227  0.6904 -0.2232
 2546SOL    HW224781   6.124   3.518   0.115 -0.7335 -0.4702  0.2632
 2547SOL     OW24782   5.155   4.087   6.240 -0.0028  1.1156  0.3314
 2547SOL    HW124783   5.073   4.108   6.283  0.2023  2.2818  0.1705
 2547SOL    HW224784   5.157   4.142   6.162  0.4823  0.3761 -0.1948
 2548SOL     OW24785   3.117   0.061   6.502 -0.2972 -0.3780  0.4888
 2548SOL    HW124786   3.024   0.036   6.500 -0.3157 -0.4594  1.7208
 2548SOL    HW224787   3.163  -0.021   6.518 -0.0369 -0.2643  0.3219
 2549SOL     OW24788   3.889   4.340   0.535 -0.1462 -0.3990 -0.3813
 2549SOL    HW124789   3.909   4.258   0.581 -0.4998 -1.2320 -1.6666
 2549SOL    HW224790   3.797   4.331   0.509 -0.2350  0.4799 -0.3963
 2550SOL     OW24791   1.259   0.255   1.503 -0.3549 -0.0290  0.6933
 2550SOL    HW124792   1.187   0.315   1.487 -0.1028  0.2757  0.6879
 2550SOL    HW224793   1.251   0.231   1.595 -0.9777 -0.6881  0.4846
 2551SOL     OW24794   3.973   4.544   0.368  0.1987 -0.7651  0.0505
 2551SOL    HW124795   3.932   4.491   0.300  0.3652  0.0289 -0.6872
 2551SOL    HW224796   3.937   4.510   0.450 -1.5606 -0.4279 -0.5446
 2552SOL     OW24797   5.865   5.028   6.915 -0.0621  0.3071 -0.2146
 2552SOL    HW124798   5.928   5.096   6.939 -1.9507  1.7203  0.9915
 2552SOL    HW224799   5.814   5.013   6.994 -2.3263  0.4428 -1.5792
 2553SOL     OW24800   4.572   2.907   5.949  0.2539 -0.2863  0.1887
 2553SOL    HW124801   4.588   2.878   5.859  2.1259 -1.1067  0.7223
 2553SOL    HW224802   4.478   2.894   5.962  0.2607 -1.9636 -1.0477
 2554SOL     OW24803   2.298   2.141   5.309 -0.3924  0.3402  0.6007
 2554SOL    HW124804   2.232   2.111   5.247  0.3226  1.7374 -0.9221
 2554SOL    HW224805   2.373   2.082   5.296 -0.4770  0.2290  0.6191
 2555SOL     OW24806   0.407   2.664   7.141  0.1297  0.0364  0.1864
 2555SOL    HW124807   0.489   2.700   7.176 -0.8432  1.1297  1.4905
 2555SOL    HW224808   0.406   2.573   7.171 -0.6943  0.9332  3.3246
 2556SOL     OW24809   2.558   3.673   6.437  0.7626  0.4229 -0.2002
 2556SOL    HW124810   2.535   3.647   6.526 -0.8694 -0.7912 -0.9123
 2556SOL    HW224811   2.501   3.747   6.418 -0.1659 -0.4175 -0.7979
 2557SOL     OW24812   2.809   2.242   2.110 -0.2273 -0.8282 -0.5194
 2557SOL    HW124813   2.784   2.257   2.201 -0.2108 -0.7803 -0.5224
 2557SOL    HW224814   2.727   2.232   2.063 -0.2421 -0.6563 -0.5319
 2558SOL     OW24815   4.163   6.181   1.184  0.2829 -0.6384 -0.0698
 2558SOL    HW124816   4.199   6.177   1.095 -0.9029 -0.9360 -0.5634
 2558SOL    HW224817   4.188   6.267   1.216 -1.2180  0.4471 -1.5949
 2559SOL     OW24818   3.696   6.263   0.304 -0.2091  0.8116 -0.1723
 2559SOL    HW124819   3.754   6.231   0.234 -1.2733 -0.1732 -0.6371
 2559SOL    HW224820   3.624   6.200   0.305 -1.1329  1.8558  0.5808
 2560SOL     OW24821   2.707   3.881   1.704  0.0019  0.2896 -0.1520
 2560SOL    HW124822   2.639   3.945   1.680 -0.2334  0.9688  2.1219
 2560SOL    HW224823   2.727   3.900   1.795  1.9710 -1.1015 -0.2310
 2561SOL     OW24824   5.539   0.047   1.377  0.4634 -0.2626 -0.2507
 2561SOL    HW124825   5.477  -0.020   1.408 -0.0197 -0.1058 -0.8394
 2561SOL    HW224826   5.539   0.035   1.282  1.9034 -0.7357 -0.2081
 2562SOL     OW24827   4.505   3.204   6.375  0.3373  0.3858 -0.8511
 2562SOL    HW124828   4.429   3.247   6.336  0.8437  0.9462 -1.2435
 2562SOL    HW224829   4.546   3.158   6.302  0.5187  0.3036 -0.6985
 2563SOL     OW24830   5.107   5.164   7.026  0.1478 -0.4122  0.2868
 2563SOL    HW124831   5.135   5.105   6.955 -0.6486  0.3942 -0.7358
 2563SOL    HW224832   5.111   5.110   7.105 -0.1814 -1.7297 -0.5653
 2564SOL     OW24833   4.674   2.613   0.364 -0.2160  0.0146 -0.0862
 2564SOL    HW124834   4.745   2.613   0.428  0.5885  0.5481 -0.9478
 2564SOL    HW224835   4.707   2.559   0.291 -1.4729 -1.3398  0.3027
 2565SOL     OW24836   0.797   3.358   6.515 -0.3639 -0.1641  0.1100
 2565SOL    HW124837   0.708   3.384   6.538 -0.3365 -0.6513  0.7914
 2565SOL    HW224838   0.835   3.436   6.474 -1.7898 -0.6146 -2.2178
 2566SOL     OW24839   6.029   2.616   0.172  0.2741  0.1177  0.5983
 2566SOL    HW124840   6.060   2.675   0.241  1.7474  1.0969 -0.8239
 2566SOL    HW224841   6.083   2.538   0.181  1.0282  0.5644  0.0980
 2567SOL     OW24842   1.309   3.709   2.061 -0.0387  0.2075 -0.4047
 2567SOL    HW124843   1.268   3.795   2.071 -0.3564 -0.0504  0.6611
 2567SOL    HW224844   1.393   3.716   2.106 -0.2795 -0.1729  0.1209
 2568SOL     OW24845   0.372   0.028   1.176 -0.1438 -0.0913  0.1077
 2568SOL    HW124846   0.422   0.080   1.239 -0.5267  1.9469 -1.1980
 2568SOL    HW224847   0.434  -0.040   1.148  0.3356 -0.4716  1.9289
 2569SOL     OW24848   3.355   2.322   6.617  0.0248 -0.9935 -0.2298
 2569SOL    HW124849   3.335   2.265   6.691 -1.1882 -0.2475  0.0472
 2569SOL    HW224850   3.448   2.343   6.627  0.0543 -1.4986  0.6579
 2570SOL     OW24851   1.621   0.622   6.428 -0.2127 -0.5761 -0.3532
 2570SOL    HW124852   1.635   0.675   6.506 -0.0072 -0.1557 -0.6656
 2570SOL    HW224853   1.632   0.684   6.355 -1.0607 -0.8175 -0.6964
 2571SOL     OW24854   5.081   2.968   1.218  0.3569  0.4507  0.3641
 2571SOL    HW124855   5.155   2.911   1.240  0.3759  0.4466  0.2899
 2571SOL    HW224856   5.024   2.914   1.164  0.2912  0.4489  0.4350
 2572SOL     OW24857   2.024   2.016   2.119  0.1165  0.3548  0.7398
 2572SOL    HW124858   1.929   2.010   2.131 -0.1131 -0.8274 -1.1601
 2572SOL    HW224859   2.061   1.957   2.184 -0.6806 -1.4323 -0.3375
 2573SOL     OW24860   5.128   0.718   7.747 -0.7146  0.4204  0.2041
 2573SOL    HW124861   5.216   0.692   7.776 -1.4136  0.3517  2.5061
 2573SOL    HW224862   5.085   0.636   7.723 -1.1951 -0.0105  2.3425
 2574SOL     OW24863   1.692   2.494   0.779 -0.2431  0.1029 -0.0177
 2574SOL    HW124864   1.675   2.587   0.790 -1.0168 -0.1926  1.5786
 2574SOL    HW224865   1.605   2.455   0.767 -0.0546 -0.5583  0.6804
 2575SOL     OW24866   2.035   1.489   7.030 -0.1772  0.3788 -0.3229
 2575SOL    HW124867   1.967   1.498   7.097  1.1131  1.0529  0.9554
 2575SOL    HW224868   2.115   1.472   7.080  1.1351  2.5908 -1.5497
 2576SOL     OW24869   1.198   2.526   6.610  0.7108 -0.0895 -0.3882
 2576SOL    HW124870   1.272   2.583   6.634  0.7411 -0.2117 -0.1930
 2576SOL    HW224871   1.238   2.441   6.595  0.3844 -0.6115  1.4886
 2577SOL     OW24872   3.818   0.104   5.713  0.1542  0.8796 -0.0195
 2577SOL    HW124873   3.736   0.055   5.718 -0.6928  2.2182 -0.2056
 2577SOL    HW224874   3.878   0.046   5.666  0.0819 -1.0825  2.1639
 2578SOL     OW24875   5.489   1.856   0.535  0.9042  0.2594 -0.2566
 2578SOL    HW124876   5.416   1.887   0.589  0.0684  0.5479 -1.5153
 2578SOL    HW224877   5.520   1.934   0.490  0.9230 -0.1573 -0.9701
 2579SOL     OW24878   1.743   3.838   7.266 -0.1338 -0.2778  0.0428
 2579SOL    HW124879   1.788   3.780   7.204  2.7224 -0.0198  1.7280
 2579SOL    HW224880   1.808   3.904   7.289 -1.4644  0.3097  2.4228
 2580SOL     OW24881   1.826   0.704   1.503 -0.2781  0.0829 -0.4778
 2580SOL    HW124882   1.846   0.688   1.595 -1.5729 -4.5078 -0.7402
 2580SOL    HW224883   1.910   0.690   1.458 -0.2945 -1.0316 -0.1960
 2581SOL     OW24884   4.719   4.424   0.267  0.2566  0.6947  0.5786
 2581SOL    HW124885   4.673   4.507   0.252 -0.2183  0.6416  1.6444
 2581SOL    HW224886   4.650   4.358   0.268  0.0197  0.8075  3.9119
 2582SOL     OW24887   3.878   3.852   0.198 -0.1598 -0.4316  0.1517
 2582SOL    HW124888   3.800   3.804   0.227 -0.4104 -0.2426 -0.2081
 2582SOL    HW224889   3.935   3.852   0.275  0.6215 -2.8243 -0.3366
 2583SOL     OW24890   4.737   3.427   6.964 -0.2980  0.2280 -1.2740
 2583SOL    HW124891   4.710   3.348   6.916  0.9497 -0.7077 -0.5014
 2583SOL    HW224892   4.656   3.459   7.004 -0.6245 -1.5337 -0.3931
 2584SOL     OW24893   0.544   5.604   6.477  0.5943 -0.1473  0.0553
 2584SOL    HW124894   0.487   5.528   6.489  0.4430 -0.0408  0.0187
 2584SOL    HW224895   0.583   5.618   6.563 -0.4280  0.5668  0.4282
 2585SOL     OW24896   2.751   3.428   7.501 -0.5141  0.1235 -0.4262
 2585SOL    HW124897   2.762   3.350   7.557 -1.4635  0.0483 -0.3404
 2585SOL    HW224898   2.835   3.435   7.454  1.1225  1.3014  2.3807
 2586SOL     OW24899   3.958   4.605   7.735 -0.0824 -0.0382  0.5598
 2586SOL    HW124900   4.026   4.672   7.742 -0.2821  0.2280  0.0388
 2586SOL    HW224901   3.892   4.631   7.799 -0.4922  0.6683 -0.1402
 2587SOL     OW24902   4.804   5.433   1.341 -0.3909  0.6298 -0.0596
 2587SOL    HW124903   4.861   5.510   1.335  0.6637 -0.1839 -0.7904
 2587SOL    HW224904   4.756   5.432   1.258 -0.1922  0.3360 -0.1698
 2588SOL     OW24905   2.360   4.893   1.309  0.4077 -0.0656 -0.0650
 2588SOL    HW124906   2.406   4.823   1.355  0.5174 -0.2245 -0.4156
 2588SOL    HW224907   2.423   4.926   1.245 -0.2210 -0.8298 -1.1156
 2589SOL     OW24908   1.011   2.843   0.618  0.1338 -0.2328 -0.2318
 2589SOL    HW124909   1.066   2.919   0.637  0.7650 -0.5175 -0.8811
 2589SOL    HW224910   0.924   2.868   0.648  0.5064  0.4276  0.3216
 2590SOL     OW24911   1.533   1.658   0.281  0.6289  0.3460  0.9398
 2590SOL    HW124912   1.598   1.724   0.258 -0.7131  1.5776  0.4796
 2590SOL    HW224913   1.512   1.675   0.373  1.8058 -0.8374  1.4512
 2591SOL     OW24914   4.004   4.590   2.202 -0.4159 -0.2103  0.0015
 2591SOL    HW124915   4.034   4.654   2.267  0.8925 -0.5877 -0.1945
 2591SOL    HW224916   4.080   4.534   2.188 -1.3799 -1.4886 -0.2288
 2592SOL     OW24917   0.722   1.044   5.695  0.1237  0.2210 -0.2925
 2592SOL    HW124918   0.742   0.996   5.614 -1.5636 -3.0995  1.0775
 2592SOL    HW224919   0.806   1.047   5.742  0.4937 -0.4577 -0.8839
 2593SOL     OW24920   0.691   2.653   1.389 -0.6448  0.2563  0.3087
 2593SOL    HW124921   0.715   2.733   1.436  0.7791 -0.8300  1.4905
 2593SOL    HW224922   0.720   2.669   1.299  2.2438  0.0391  1.1206
 2594SOL     OW24923   3.248   1.936   6.715 -0.1495 -0.2345  0.4346
 2594SOL    HW124924   3.199   1.919   6.795 -1.8829  1.3399 -0.2123
 2594SOL    HW224925   3.216   1.870   6.653  1.6625 -1.8731  1.1379
 2595SOL     OW24926   2.713   5.296   6.760 -0.6557  0.2964 -0.0056
 2595SOL    HW124927   2.706   5.390   6.744 -0.6853  0.1332 -0.9990
 2595SOL    HW224928   2.805   5.276   6.746 -0.0510  0.6307  2.9183
 2596SOL     OW24929   5.301   0.807   1.648  0.0170 -0.0847  0.4257
 2596SOL    HW124930   5.220   0.799   1.596 -1.0242  1.1197  1.7947
 2596SOL    HW224931   5.371   0.793   1.584 -1.1360  2.7959 -1.7040
 2597SOL     OW24932   5.725   3.756   5.713 -0.2050 -0.7306  0.3740
 2597SOL    HW124933   5.770   3.790   5.635 -2.0795  0.2657 -0.3425
 2597SOL    HW224934   5.633   3.752   5.687 -0.8605 -0.5022  2.4949
 2598SOL     OW24935   6.208   4.846   0.750  0.3169  0.0563  0.1877
 2598SOL    HW124936   6.165   4.885   0.673 -0.0179  0.7308  0.7063
 2598SOL    HW224937   6.150   4.776   0.777  0.3161 -0.0301 -0.0312
 2599SOL     OW24938   2.799   3.930   7.474  0.3906 -0.3202  0.6604
 2599SOL    HW124939   2.725   3.984   7.502 -0.3648 -1.0135  0.0401
 2599SOL    HW224940   2.836   3.895   7.555 -0.4072 -0.5482  0.9326
 2600SOL     OW24941   0.428   4.472   1.809  0.2361 -0.0345 -0.0409
 2600SOL    HW124942   0.451   4.539   1.874 -2.4485  2.2022 -1.2013
 2600SOL    HW224943   0.378   4.407   1.858 -0.1917  0.6767  0.4864
 2601SOL     OW24944   3.571   4.228   6.347  0.4094  0.4254  0.3770
 2601SOL    HW124945   3.501   4.257   6.406  0.4423 -0.2522  0.7493
 2601SOL    HW224946   3.650   4.265   6.385  0.1862  1.8814 -0.4881
 2602SOL     OW24947   5.498   4.774   0.099 -0.1451  0.3359 -0.4858
 2602SOL    HW124948   5.420   4.741   0.055  0.1359  0.4445 -1.0837
 2602SOL    HW224949   5.491   4.741   0.188 -0.4636 -0.3496 -0.7519
 2603SOL     OW24950   1.471   2.081   0.944 -0.5032  0.2772 -0.0340
 2603SOL    HW124951   1.475   2.091   1.040 -1.4659  3.1342 -0.1798
 2603SOL    HW224952   1.383   2.110   0.921  0.3363  1.5577 -1.9206
 2604SOL     OW24953   0.390   1.849   6.771  0.5658  0.2194 -0.1041
 2604SOL    HW124954   0.387   1.928   6.824  0.2480 -0.0293  0.2604
 2604SOL    HW224955   0.417   1.780   6.832  0.4206 -0.0283 -0.3148
 2605SOL     OW24956   4.210   5.517   6.425  0.2653  0.1773 -0.0348
 2605SOL    HW124957   4.152   5.443   6.443  0.2996 -0.1325 -1.0910
 2605SOL    HW224958   4.268   5.484   6.356  1.9278  0.3672  1.2191
 2606SOL     OW24959   0.251   3.363   0.761 -0.2685 -0.6254  0.4720
 2606SOL    HW124960   0.344   3.344   0.749  0.6799  1.9498  2.6520
 2606SOL    HW224961   0.235   3.441   0.709 -0.9994 -0.6094  0.7056
 2607SOL     OW24962   1.525   2.304   6.306  0.1401  0.4814 -0.6533
 2607SOL    HW124963   1.516   2.224   6.356  0.6943  0.8198  0.0039
 2607SOL    HW224964   1.435   2.326   6.280 -0.2277  0.5751  0.6352
 2608SOL     OW24965   0.493   4.410   0.616  0.0961 -0.0482  0.2742
 2608SOL    HW124966   0.478   4.502   0.596  1.1173  0.2417  0.7493
 2608SOL    HW224967   0.416   4.382   0.665 -1.3275 -0.1139 -1.8793
 2609SOL     OW24968   4.229   0.797   0.464 -0.0547  0.0848  1.0623
 2609SOL    HW124969   4.137   0.786   0.439 -0.1818  1.6387  0.7091
 2609SOL    HW224970   4.276   0.729   0.416 -0.9302 -0.2564  0.6727
 2610SOL     OW24971   5.921   3.668   1.137 -0.4001  0.0325 -0.5892
 2610SOL    HW124972   5.898   3.610   1.209 -2.4055  1.2212 -0.1853
 2610SOL    HW224973   5.860   3.645   1.067 -1.1421  1.5137 -0.4714
 2611SOL     OW24974   0.415   4.447   7.075 -0.0318 -0.1584 -0.0445
 2611SOL    HW124975   0.340   4.506   7.076  0.4787  0.6087 -2.2604
 2611SOL    HW224976   0.492   4.504   7.076  0.5485 -0.9143  1.4493
 2612SOL     OW24977   2.641   1.545   7.108  0.2459 -0.5729  0.2054
 2612SOL    HW124978   2.723   1.509   7.142  1.7304  0.7616 -1.7014
 2612SOL    HW224979   2.662   1.636   7.088 -1.4914 -0.3968 -1.0154
 2613SOL     OW24980   2.606   0.601   6.253 -0.7187 -0.2718 -0.0495
 2613SOL    HW124981   2.622   0.695   6.247 -0.2226 -0.3863 -0.5350
 2613SOL    HW224982   2.625   0.567   6.166 -0.9714 -0.8130  0.0999
 2614SOL     OW24983   6.067   2.009   7.124  0.7160  0.7943 -0.6875
 2614SOL    HW124984   6.143   1.966   7.084 -0.7767  0.0779 -2.9637
 2614SOL    HW224985   6.021   1.939   7.171  1.0327  1.0710  0.0572
 2615SOL     OW24986   6.278   1.761   0.722  0.3168  0.5281  0.5880
 2615SOL    HW124987   6.326   1.679   0.723 -0.7066 -0.1467 -1.0562
 2615SOL    HW224988   6.282   1.793   0.813 -0.8147 -2.2730  1.7455
 2616SOL     OW24989   4.074   4.469   0.702 -0.1230 -0.8705 -0.3633
 2616SOL    HW124990   3.998   4.432   0.657 -0.5071  0.6352 -1.0093
 2616SOL    HW224991   4.039   4.502   0.784 -1.0117  2.9536 -2.0734
 2617SOL     OW24992   5.286   3.304   0.284  0.3580  0.1335  0.0945
 2617SOL    HW124993   5.345   3.251   0.230 -0.9016  1.1286 -2.4570
 2617SOL    HW224994   5.331   3.388   0.294  1.0638 -0.3940  1.6062
 2618SOL     OW24995   0.604   5.508   6.767 -0.5181 -0.0891 -0.7132
 2618SOL    HW124996   0.533   5.539   6.822 -1.4017 -0.8273 -1.4077
 2618SOL    HW224997   0.680   5.562   6.792 -1.4601  1.1217 -0.3827
 2619SOL     OW24998   0.291   3.528   5.446 -0.0642 -0.3082 -0.3938
 2619SOL    HW124999   0.311   3.530   5.540  1.1091  0.6528 -0.6463
 2619SOL    HW225000   0.329   3.608   5.411  0.8460 -1.3589 -1.9560
 2620SOL     OW25001   0.700   0.548   6.035  0.9238  0.3731  0.3180
 2620SOL    HW125002   0.620   0.598   6.014  0.3792 -0.2350  0.9076
 2620SOL    HW225003   0.722   0.503   5.953 -0.4362 -0.9439  0.6258
 2621SOL     OW25004   5.010   5.579   1.971  0.2575 -0.0189  0.1218
 2621SOL    HW125005   4.962   5.513   2.021  0.9987  0.3718  1.3724
 2621SOL    HW225006   5.071   5.528   1.917  0.4647 -0.3725  0.6860
 2622SOL     OW25007   4.217   4.000   1.597  0.1604 -0.1592 -0.0921
 2622SOL    HW125008   4.266   3.920   1.617  0.2713 -0.2396 -0.6729
 2622SOL    HW225009   4.252   4.065   1.657 -1.7457 -1.1593  2.2662
 2623SOL     OW25010   2.612   5.773   1.329  0.3812 -0.3391  0.1003
 2623SOL    HW125011   2.643   5.775   1.419 -0.9030  0.7138  0.5564
 2623SOL    HW225012   2.608   5.680   1.307  0.6969 -0.6074  1.1241
 2624SOL     OW25013   3.923   6.298   0.557 -0.0139 -0.0936 -0.7535
 2624SOL    HW125014   3.831   6.324   0.546 -0.2416  0.2781  1.5137
 2624SOL    HW225015   3.926   6.206   0.530 -1.0107 -0.0443 -1.0581
 2625SOL     OW25016   4.264   0.853   2.038  0.2121  0.1013 -0.3106
 2625SOL    HW125017   4.319   0.789   1.992 -0.5287 -0.3845 -0.5367
 2625SOL    HW225018   4.204   0.799   2.090 -0.8355  0.5937 -0.9832
 2626SOL     OW25019   5.625   0.954   5.947 -0.9538  0.0146 -0.2523
 2626SOL    HW125020   5.557   0.918   5.891  0.5143  0.8765 -2.7373
 2626SOL    HW225021   5.626   1.048   5.926 -0.2172  0.3451  1.1024
 2627SOL     OW25022   0.620   2.620   1.831  0.0603 -0.7033  0.0880
 2627SOL    HW125023   0.528   2.597   1.834 -0.9384  2.7445  0.6686
 2627SOL    HW225024   0.646   2.624   1.923 -0.4674  2.2768  0.1975
 2628SOL     OW25025   6.441   2.482   0.263 -0.0656  0.0580  0.5806
 2628SOL    HW125026   6.366   2.505   0.208  1.4683  0.5172 -1.4535
 2628SOL    HW225027   6.404   2.429   0.333 -2.5688  2.0635  0.8993
 2629SOL     OW25028   3.215   4.860   5.688  0.9214  0.3825 -0.1031
 2629SOL    HW125029   3.127   4.844   5.653  0.1708  1.8514  1.0102
 2629SOL    HW225030   3.274   4.824   5.622 -0.4597  1.9863 -2.3422
 2630SOL     OW25031   3.923   1.846   6.936  0.2319  0.5051  0.0782
 2630SOL    HW125032   4.013   1.878   6.945  0.0119  2.1051 -2.3777
 2630SOL    HW225033   3.927   1.782   6.865 -0.8453  2.3970 -1.8206
 2631SOL     OW25034   5.725   0.681   1.300  0.0224  0.7779 -0.0457
 2631SOL    HW125035   5.642   0.729   1.309 -1.0482 -1.1701  1.1667
 2631SOL    HW225036   5.739   0.677   1.205 -1.5448  0.7423 -0.3137
 2632SOL     OW25037   2.756   6.026   5.579 -0.2161 -0.2367  0.2088
 2632SOL    HW125038   2.692   6.051   5.645 -0.1731 -1.0817  0.5788
 2632SOL    HW225039   2.745   6.091   5.509 -0.5689  0.3933  0.8407
 2633SOL     OW25040   0.152   4.929   6.452 -0.5378  0.3545 -0.4623
 2633SOL    HW125041   0.195   4.903   6.371 -0.0024  1.7536 -0.6467
 2633SOL    HW225042   0.089   4.859   6.468  1.5704 -1.6328 -0.3226
 2634SOL     OW25043   4.558   4.623   0.591  0.0398  0.7920  1.0035
 2634SOL    HW125044   4.593   4.639   0.503  0.6384  2.0574  1.4550
 2634SOL    HW225045   4.463   4.625   0.579  0.0937  2.3249  0.5949
 2635SOL     OW25046   2.233   5.896   0.605  0.3234 -0.2279 -0.4770
 2635SOL    HW125047   2.158   5.904   0.664 -0.4488 -0.4202 -1.4031
 2635SOL    HW225048   2.253   5.987   0.580 -0.4644 -0.2560 -1.2594
 2636SOL     OW25049   4.766   2.460   0.181 -0.5450  0.2900 -0.5386
 2636SOL    HW125050   4.729   2.433   0.097 -0.7126  2.1761 -1.1287
 2636SOL    HW225051   4.860   2.448   0.171 -0.5937  0.1790 -0.8783
 2637SOL     OW25052   5.577   4.993   0.853 -0.0144  0.1246  0.2546
 2637SOL    HW125053   5.647   4.977   0.916 -0.1406  0.0659  0.3825
 2637SOL    HW225054   5.518   5.053   0.899 -0.6801 -0.7800  0.6268
 2638SOL     OW25055   4.471   2.499   0.771  0.5301  0.3039 -0.0867
 2638SOL    HW125056   4.383   2.525   0.799 -0.6897 -1.0759 -2.3780
 2638SOL    HW225057   4.519   2.582   0.764 -0.1481  0.9912  2.3786
 2639SOL     OW25058   0.045   5.941   6.623 -0.0522 -0.0445  0.1644
 2639SOL    HW125059   0.031   5.963   6.531  0.8035 -0.2683 -0.0338
 2639SOL    HW225060   0.139   5.921   6.628 -0.4387 -1.8577  0.7123
 2640SOL     OW25061   5.414   0.275   1.716  0.2963 -0.0509  0.5052
 2640SOL    HW125062   5.450   0.355   1.753 -2.0926  1.7172 -0.6941
 2640SOL    HW225063   5.324   0.273   1.748 -0.0797 -1.5418 -0.5617
 2641SOL     OW25064   4.247   3.031   7.194  0.1124  0.2105 -0.4296
 2641SOL    HW125065   4.263   3.086   7.271  2.7994 -1.5408  0.4191
 2641SOL    HW225066   4.319   3.054   7.134  1.0195 -1.9270 -0.2500
 2642SOL     OW25067   2.224   0.598   6.834  0.3629 -0.5019  0.1837
 2642SOL    HW125068   2.165   0.670   6.809 -0.6155 -0.1047  3.2627
 2642SOL    HW225069   2.292   0.599   6.766 -2.3697 -0.1173 -2.8230
 2643SOL     OW25070   3.254   4.214   7.112  0.2252 -0.5435  0.4351
 2643SOL    HW125071   3.341   4.253   7.126 -0.2590  0.3530  1.0633
 2643SOL    HW225072   3.271   4.120   7.103  1.3141 -0.3240  0.0260
 2644SOL     OW25073   1.621   4.616   6.916  0.5017 -0.2365 -0.6624
 2644SOL    HW125074   1.528   4.619   6.893  1.1367 -0.8864 -3.8056
 2644SOL    HW225075   1.632   4.532   6.960 -0.3819 -0.2033 -0.3624
 2645SOL     OW25076   4.523   4.204   0.262  0.0001 -0.3685 -0.0776
 2645SOL    HW125077   4.597   4.167   0.309 -0.1966  0.3068  0.7949
 2645SOL    HW225078   4.447   4.154   0.293 -0.0363 -0.4238 -0.2523
 2646SOL     OW25079   1.552   3.776   1.405 -0.3255  0.2340  0.4151
 2646SOL    HW125080   1.504   3.719   1.345  0.5088  0.0537 -0.0949
 2646SOL    HW225081   1.571   3.855   1.353  1.9157 -0.6213 -0.1573
 2647SOL     OW25082   6.204   0.147   0.727 -0.0945 -0.2852  0.2785
 2647SOL    HW125083   6.119   0.191   0.731  0.3757  0.8155 -1.0050
 2647SOL    HW225084   6.209   0.097   0.809 -1.9063 -0.2849  0.4408
 2648SOL     OW25085   0.398   0.230   7.392  0.1969  0.9348  0.2507
 2648SOL    HW125086   0.477   0.193   7.352 -0.7794 -1.5866  0.4983
 2648SOL    HW225087   0.409   0.325   7.383  2.0985  0.5983 -1.9135
 2649SOL     OW25088   0.413   2.574   5.197  0.6595  0.1362 -0.1571
 2649SOL    HW125089   0.373   2.579   5.283 -0.9900  2.2992 -0.9623
 2649SOL    HW225090   0.356   2.626   5.140  2.3861 -0.1268 -2.2852
 2650SOL     OW25091   0.696   1.610   6.796 -0.8987 -0.1765  0.5559
 2650SOL    HW125092   0.737   1.644   6.716  0.1262 -0.5568  0.9021
 2650SOL    HW225093   0.714   1.516   6.793 -0.4819 -0.1276  1.4464
 2651SOL     OW25094   1.104   3.487   1.383  0.7300  0.1140 -0.0823
 2651SOL    HW125095   1.078   3.522   1.469 -1.4221  0.7360 -0.9309
 2651SOL    HW225096   1.200   3.494   1.383  0.8272 -0.2321  2.3883
 2652SOL     OW25097   1.375   0.153   7.520 -0.5324 -0.0317  0.4762
 2652SOL    HW125098   1.395   0.060   7.516 -0.8975 -0.1356  0.9405
 2652SOL    HW225099   1.283   0.160   7.494 -0.4550  0.2170  0.2657
 2653SOL     OW25100   5.396   2.359   6.016  0.6694  0.1860  0.8009
 2653SOL    HW125101   5.330   2.421   6.046 -1.6337 -0.7218 -1.9795
 2653SOL    HW225102   5.372   2.276   6.057 -0.6631 -0.3737 -0.9793
 2654SOL     OW25103   2.998   3.777   1.951  0.2709  0.1408 -0.1087
 2654SOL    HW125104   3.090   3.799   1.964  0.3189  0.2907 -0.7036
 2654SOL    HW225105   2.965   3.761   2.040  0.7304  0.6255  0.1528
 2655SOL     OW25106   3.187   4.019   6.819  0.4028 -0.2774 -0.6449
 2655SOL    HW125107   3.096   3.991   6.829  0.1248  1.1611  1.3417
 2655SOL    HW225108   3.206   4.003   6.726 -1.9072 -0.4805 -1.1554
 2656SOL     OW25109   5.315   3.874   5.779  0.4852 -0.2230  0.4278
 2656SOL    HW125110   5.233   3.923   5.773  1.0076  0.4955 -1.7456
 2656SOL    HW225111   5.323   3.851   5.872 -1.0633  1.5952  1.0708
 2657SOL     OW25112   5.587   1.055   1.599 -0.2688 -0.1968 -0.0804
 2657SOL    HW125113   5.674   1.089   1.622  0.0206  0.0426 -1.4176
 2657SOL    HW225114   5.600   0.961   1.588 -0.8920 -0.7201  2.7934
 2658SOL     OW25115   5.829   1.506   0.057  0.5558  0.3578  0.4972
 2658SOL    HW125116   5.884   1.511   0.135  1.0050  0.5624  0.1700
 2658SOL    HW225117   5.760   1.571   0.073  1.6444  1.6953 -0.0417
 2659SOL     OW25118   4.991   1.228   7.475  0.7729  0.2348  0.1099
 2659SOL    HW125119   4.974   1.265   7.388  0.1245 -0.3355 -0.0147
 2659SOL    HW225120   4.905   1.201   7.507  1.2272 -1.2361  0.1485
 2660SOL     OW25121   3.181   6.046   0.341  0.4051  0.3072 -0.4667
 2660SOL    HW125122   3.205   6.006   0.424  1.2527  1.5658 -0.0736
 2660SOL    HW225123   3.132   5.978   0.294  1.7077 -1.1359  0.1793
 2661SOL     OW25124   3.242   1.598   0.848  0.5140  0.0344 -0.0811
 2661SOL    HW125125   3.237   1.564   0.759 -0.1961 -0.1660  0.0325
 2661SOL    HW225126   3.199   1.532   0.902  2.0101 -0.4285  0.5909
 2662SOL     OW25127   5.920   5.486   7.134 -0.6379  0.1137 -0.1115
 2662SOL    HW125128   5.961   5.564   7.098 -0.6133  0.5494  0.8468
 2662SOL    HW225129   5.826   5.498   7.119 -0.4659 -1.1445 -2.8267
 2663SOL     OW25130   3.835   1.216   0.974  0.0821  0.2634 -0.4525
 2663SOL    HW125131   3.865   1.297   1.014 -0.6120  0.1027  0.4298
 2663SOL    HW225132   3.913   1.161   0.968  0.2879  0.4752  0.2338
 2664SOL     OW25133   3.145   3.877   1.418 -0.5899  0.6093 -0.1927
 2664SOL    HW125134   3.057   3.849   1.442 -1.5206  0.8414 -2.9884
 2664SOL    HW225135   3.170   3.819   1.346  2.0378 -0.1481  1.1868
 2665SOL     OW25136   1.000   0.684   6.179 -0.0454 -0.2206 -0.0719
 2665SOL    HW125137   0.910   0.682   6.211  0.3738 -1.2465  1.1345
 2665SOL    HW225138   1.030   0.773   6.199 -0.9150  0.3013 -0.9453
 2666SOL     OW25139   6.265   2.519   6.565 -0.4537  0.2831 -0.0341
 2666SOL    HW125140   6.268   2.431   6.603 -0.9120  1.4555  3.0325
 2666SOL    HW225141   6.172   2.537   6.551 -0.3947  0.4260 -0.2454
 2667SOL     OW25142   2.154   1.235   0.514 -0.2345  0.2958  0.1736
 2667SOL    HW125143   2.146   1.140   0.508  0.6984  0.1088  1.4413
 2667SOL    HW225144   2.165   1.265   0.424  0.3650 -0.8838 -0.1583
 2668SOL     OW25145   3.069   2.944   1.630  0.1369  0.4787  0.3192
 2668SOL    HW125146   3.104   2.957   1.543  0.0975  0.8548  0.3580
 2668SOL    HW225147   3.099   3.019   1.680  0.7873 -0.1099  0.8331
 2669SOL     OW25148   3.249   0.201   0.850 -0.8140  0.0677 -0.2388
 2669SOL    HW125149   3.328   0.183   0.901 -0.6096 -0.4506 -0.7347
 2669SOL    HW225150   3.184   0.226   0.916 -0.1487  0.8402  0.1362
 2670SOL     OW25151   3.566   5.359   1.503 -1.4977  0.2977 -0.2583
 2670SOL    HW125152   3.561   5.430   1.439  1.1747  1.8623  1.0870
 2670SOL    HW225153   3.654   5.367   1.540 -2.8334 -0.5904  3.4994
 2671SOL     OW25154   3.070   4.860   7.671  0.1572  0.5496 -0.3077
 2671SOL    HW125155   3.033   4.897   7.590 -0.1642  2.6892  0.7753
 2671SOL    HW225156   3.057   4.765   7.660 -2.4400  0.9420 -1.5539
 2672SOL     OW25157   0.503   1.950   0.902 -0.3068 -0.7788  0.3647
 2672SOL    HW125158   0.457   1.903   0.832  0.4013 -0.8496 -0.0660
 2672SOL    HW225159   0.577   1.894   0.925  0.0079 -0.3182  0.5040
 2673SOL     OW25160   2.840   1.771   0.369 -0.1223  0.0796  0.1208
 2673SOL    HW125161   2.868   1.690   0.411  2.0340  0.8050  0.1887
 2673SOL    HW225162   2.867   1.762   0.278 -0.4108  0.4877 -0.0083
 2674SOL     OW25163   1.254   5.218   7.242 -0.2458 -0.3030  0.1007
 2674SOL    HW125164   1.321   5.164   7.201 -0.1898  0.7240 -1.1867
 2674SOL    HW225165   1.277   5.308   7.219 -2.9514  0.0090 -1.8591
 2675SOL     OW25166   5.951   4.018   7.422  0.1802  0.3442  0.0084
 2675SOL    HW125167   5.999   3.949   7.469  1.0200  1.0402  0.1903
 2675SOL    HW225168   5.875   3.973   7.386  0.0391 -0.4173  1.1988
 2676SOL     OW25169   0.776   0.629   6.877  0.3581 -0.0509  0.0896
 2676SOL    HW125170   0.806   0.716   6.852  0.2706  0.1759  0.7518
 2676SOL    HW225171   0.700   0.613   6.821  0.7048  0.0652 -0.4183
 2677SOL     OW25172   4.715   0.356   6.765 -0.0533 -0.1647 -0.0734
 2677SOL    HW125173   4.752   0.413   6.832  1.5075  0.0794 -1.0729
 2677SOL    HW225174   4.645   0.309   6.809 -1.0084  2.0651  0.9540
 2678SOL     OW25175   2.690   4.925   7.613  0.4885  0.1313  0.2900
 2678SOL    HW125176   2.698   5.020   7.618  0.8673  0.0652  1.1628
 2678SOL    HW225177   2.736   4.893   7.691  0.1563 -0.7557  0.1359
 2679SOL     OW25178   1.379   4.889   5.762  0.2591 -0.0674 -0.1409
 2679SOL    HW125179   1.295   4.882   5.715  0.7797 -0.2628 -1.0729
 2679SOL    HW225180   1.371   4.968   5.815 -0.0565  0.6216 -1.1820
 2680SOL     OW25181   3.369   0.297   1.874 -0.0496  0.0931  0.1199
 2680SOL    HW125182   3.358   0.276   1.966  1.9124 -0.2933  0.3105
 2680SOL    HW225183   3.366   0.213   1.829  0.5784  0.1238  0.0176
 2681SOL     OW25184   2.599   0.545   1.552 -0.1199  0.3353  0.4717
 2681SOL    HW125185   2.611   0.488   1.627 -0.2497 -1.6993 -0.9808
 2681SOL    HW225186   2.688   0.560   1.519 -0.2194 -0.6574 -0.2799
 2682SOL     OW25187   4.343   1.396   1.478  0.2921 -1.1353  0.2939
 2682SOL    HW125188   4.409   1.434   1.537 -0.4649 -0.6034  0.8142
 2682SOL    HW225189   4.389   1.384   1.395  0.7828  0.1362  0.3635
 2683SOL     OW25190   5.514   2.428   6.591 -0.0039 -0.6856 -0.1417
 2683SOL    HW125191   5.590   2.401   6.540  0.2732  1.7196 -1.1476
 2683SOL    HW225192   5.447   2.448   6.525 -1.5241 -2.6153  0.7160
 2684SOL     OW25193   3.678   3.945   6.435 -0.0955  0.0302  0.2301
 2684SOL    HW125194   3.661   3.998   6.514  0.1440  0.8191 -0.2430
 2684SOL    HW225195   3.643   3.997   6.363 -0.5812 -0.8232 -0.1651
 2685SOL     OW25196   1.324   5.752   1.381 -0.0359 -0.1000  0.2500
 2685SOL    HW125197   1.340   5.692   1.453  1.1681 -0.4581 -0.2898
 2685SOL    HW225198   1.361   5.708   1.304  0.6107  1.1827 -0.2107
 2686SOL     OW25199   1.950   3.800   0.486  0.0235  0.3138 -0.5392
 2686SOL    HW125200   1.911   3.713   0.471  0.2019  0.4348 -1.7567
 2686SOL    HW225201   1.879   3.851   0.525 -0.6197  0.1188 -1.4289
 2687SOL     OW25202   5.477   3.261   0.901 -0.8415 -0.5113 -0.5766
 2687SOL    HW125203   5.561   3.229   0.867 -1.2670  0.1455 -2.3522
 2687SOL    HW225204   5.466   3.347   0.861 -1.6629  0.0975  0.8545
 2688SOL     OW25205   5.823   4.223   0.358  0.4299  0.3204 -0.4672
 2688SOL    HW125206   5.884   4.168   0.307 -1.8775 -1.0041 -1.9700
 2688SOL    HW225207   5.746   4.168   0.370 -0.6801  2.1037  0.9549
 2689SOL     OW25208   5.720   1.344   6.706  0.1110  0.4299 -0.1678
 2689SOL    HW125209   5.781   1.314   6.639  0.3024  0.4050  0.0130
 2689SOL    HW225210   5.777   1.381   6.774 -0.0040 -0.5503  0.4895
 2690SOL     OW25211   4.687   5.581   1.113  0.2100  0.3736 -0.1660
 2690SOL    HW125212   4.753   5.583   1.044  0.5317  0.2813  0.1363
 2690SOL    HW225213   4.612   5.536   1.074  1.0718 -1.3816  0.1393
 2691SOL     OW25214   4.056   3.425   7.710 -0.5134  0.4848  0.0923
 2691SOL    HW125215   4.028   3.379   7.789 -0.5524  2.4460  1.2761
 2691SOL    HW225216   4.150   3.437   7.721 -0.5044  0.7110 -0.2136
 2692SOL     OW25217   1.008   3.758   5.542 -0.4840 -0.2675  0.7383
 2692SOL    HW125218   1.058   3.710   5.476  0.2370  0.6029  0.6209
 2692SOL    HW225219   0.958   3.691   5.588  0.8326 -1.1803  0.8862
 2693SOL     OW25220   0.561   0.591   5.699  0.0724 -0.8868 -0.3472
 2693SOL    HW125221   0.545   0.635   5.783  1.0073 -0.7807 -0.2197
 2693SOL    HW225222   0.561   0.662   5.634  3.4186 -0.3390  0.0679
 2694SOL     OW25223   3.606   4.980   1.183  0.2192  0.1542 -0.6458
 2694SOL    HW125224   3.694   4.964   1.216 -0.2265  0.7394  0.9307
 2694SOL    HW225225   3.605   5.072   1.159  0.0491  0.1393 -0.7013
 2695SOL     OW25226   2.758   0.875   7.419  0.4371  0.0638  0.4145
 2695SOL    HW125227   2.777   0.788   7.383 -0.9162  0.6618 -1.9660
 2695SOL    HW225228   2.843   0.909   7.446  1.5743 -0.6490 -1.9612
 2696SOL     OW25229   1.593   0.825   1.627  0.3562 -0.4289  0.1840
 2696SOL    HW125230   1.612   0.804   1.718  0.7442  0.0704  0.2210
 2696SOL    HW225231   1.673   0.801   1.580 -0.0319 -1.1904 -0.1100
 2697SOL     OW25232   4.662   3.449   2.515 -0.4136  0.0681 -0.6672
 2697SOL    HW125233   4.706   3.368   2.542 -1.5561  0.1660  1.7437
 2697SOL    HW225234   4.570   3.425   2.505 -0.3020  0.3948 -3.3275
 2698SOL     OW25235   5.905   3.273   6.926  0.1508 -0.1353 -0.1695
 2698SOL    HW125236   5.863   3.354   6.896 -1.5226 -0.7144  0.4944
 2698SOL    HW225237   5.890   3.211   6.855  0.2105 -0.2331 -0.0962
 2699SOL     OW25238   5.812   0.896   0.799  0.0693 -0.2191  0.1959
 2699SOL    HW125239   5.750   0.824   0.787 -0.0437 -0.9935  4.1924
 2699SOL    HW225240   5.760   0.965   0.840  0.9090  0.9328 -0.6254
 2700SOL     OW25241   1.455   5.856   5.439 -0.6232 -0.3107  0.4568
 2700SOL    HW125242   1.515   5.818   5.375 -0.8148  2.7753 -1.7925
 2700SOL    HW225243   1.505   5.859   5.520  1.5291  0.1974 -0.8027
 2701SOL     OW25244   4.211   4.191   1.956  0.7094 -0.1849  0.0878
 2701SOL    HW125245   4.278   4.162   1.894  1.9223  0.7317  0.9199
 2701SOL    HW225246   4.158   4.113   1.973 -0.4792 -0.1988 -3.0161
 2702SOL     OW25247   5.619   4.039   0.278 -0.2355 -0.2896 -0.2674
 2702SOL    HW125248   5.621   3.985   0.199 -0.4099 -0.1261 -0.3848
 2702SOL    HW225249   5.525   4.047   0.299 -0.1870 -0.3949  0.0006
 2703SOL     OW25250   3.936   0.184   0.600  0.0948  0.0281 -0.2570
 2703SOL    HW125251   3.939   0.141   0.514 -1.0082 -0.6633  0.0344
 2703SOL    HW225252   3.901   0.272   0.582 -1.3979 -0.5565 -0.3814
 2704SOL     OW25253   5.174   6.107   6.407  0.6361  0.4877 -0.1366
 2704SOL    HW125254   5.118   6.184   6.403 -0.4274  0.0494  3.1355
 2704SOL    HW225255   5.247   6.133   6.463  0.5560 -0.6659  0.5395
 2705SOL     OW25256   1.981   4.367   5.886  0.0166 -0.5102  0.0884
 2705SOL    HW125257   1.995   4.459   5.866  0.6099 -0.7951 -0.8698
 2705SOL    HW225258   2.001   4.321   5.804 -1.9829 -1.3593  0.0110
 2706SOL     OW25259   2.458   1.833   1.640  0.3300  0.1937 -0.1696
 2706SOL    HW125260   2.497   1.855   1.555  0.7388  2.1778  0.4705
 2706SOL    HW225261   2.529   1.793   1.690  0.8135  1.2870  0.0518
 2707SOL     OW25262   4.501   0.164   6.845 -0.0409  0.0623  0.0963
 2707SOL    HW125263   4.548   0.137   6.766  1.1221  1.1344  0.4001
 2707SOL    HW225264   4.521   0.096   6.909  0.8713  0.3633  0.1365
 2708SOL     OW25265   1.862   2.745   0.426 -0.4471  0.2615 -0.3539
 2708SOL    HW125266   1.866   2.812   0.357  1.2249  0.1164 -0.4295
 2708SOL    HW225267   1.850   2.795   0.507  0.6401  0.6587 -0.4234
 2709SOL     OW25268   1.632   1.889   7.382 -0.3886  0.5357 -0.2596
 2709SOL    HW125269   1.727   1.902   7.374 -0.4514  0.6904 -0.8497
 2709SOL    HW225270   1.609   1.931   7.465  0.1838 -0.2407  0.3043
 2710SOL     OW25271   2.924   4.910   6.794  0.2341  0.7254  0.8599
 2710SOL    HW125272   2.933   4.826   6.750  1.1378  0.8056  0.8757
 2710SOL    HW225273   3.004   4.957   6.773 -0.4472  1.7501  0.5043
 2711SOL     OW25274   2.297   0.990   0.850 -0.4638 -0.0900 -0.6789
 2711SOL    HW125275   2.373   0.979   0.906 -1.0183 -1.1006 -0.0888
 2711SOL    HW225276   2.296   1.083   0.828  1.1928 -0.1413 -1.0914
 2712SOL     OW25277   6.421   3.391   0.382  0.2679 -0.4511 -0.2239
 2712SOL    HW125278   6.494   3.369   0.439 -0.4138  1.2607  1.4092
 2712SOL    HW225279   6.403   3.484   0.400 -1.8524 -0.6402 -1.0917
 2713SOL     OW25280   3.826   6.201   6.046 -0.3157 -0.2548 -0.3941
 2713SOL    HW125281   3.887   6.161   5.984  1.1218 -0.7921  1.3063
 2713SOL    HW225282   3.778   6.265   5.993  1.3317 -0.1817 -1.9108
 2714SOL     OW25283   1.584   1.254   0.090 -0.0432 -0.1578  0.3371
 2714SOL    HW125284   1.675   1.282   0.104  0.0121 -0.8880  1.6308
 2714SOL    HW225285   1.532   1.327   0.125  0.0355  0.3190 -0.5244
 2715SOL     OW25286   5.973   5.465   6.388 -0.1046  0.6053 -0.1149
 2715SOL    HW125287   6.039   5.456   6.457  1.0307  1.0658 -1.0996
 2715SOL    HW225288   5.911   5.394   6.404  1.1363 -0.4201  0.3116
 2716SOL     OW25289   0.841   1.238   7.575 -0.3876 -0.4350 -0.3275
 2716SOL    HW125290   0.768   1.249   7.637  0.9676  2.0935  0.9743
 2716SOL    HW225291   0.800   1.249   7.489 -1.7983 -0.7589  0.2636
 2717SOL     OW25292   5.042   4.391   7.347  0.0516  0.3208 -1.0014
 2717SOL    HW125293   5.037   4.467   7.405 -1.0113 -0.7660  0.3975
 2717SOL    HW225294   5.133   4.362   7.352  0.2954  1.0537 -0.9997
 2718SOL     OW25295   1.753   6.147   1.441 -0.0829  0.2567  0.1861
 2718SOL    HW125296   1.668   6.189   1.426  0.5367  1.1877 -0.8385
 2718SOL    HW225297   1.733   6.073   1.498 -1.6667  0.1108 -0.5106
 2719SOL     OW25298   0.972   0.997   5.817 -0.8648 -0.0059 -0.8833
 2719SOL    HW125299   0.985   0.973   5.725 -0.6536  0.1292 -0.8879
 2719SOL    HW225300   1.056   0.978   5.859 -1.5632 -2.1003 -0.2767
 2720SOL     OW25301   1.362   0.593   6.446  0.1694  0.6361 -0.2456
 2720SOL    HW125302   1.454   0.596   6.418  0.3050  1.4083  0.2668
 2720SOL    HW225303   1.347   0.676   6.491  0.0407 -0.5841  2.1901
 2721SOL     OW25304   1.226   1.939   0.609 -0.5093  0.0682  0.4947
 2721SOL    HW125305   1.135   1.911   0.596 -0.2715 -0.0265 -1.2356
 2721SOL    HW225306   1.224   1.991   0.688 -2.5004  1.7873 -0.5966
 2722SOL     OW25307   2.416   3.137   0.352  0.7261  0.2870  0.1045
 2722SOL    HW125308   2.414   3.131   0.256 -2.5911 -3.2474  0.1906
 2722SOL    HW225309   2.493   3.086   0.378  0.8067  0.0365 -0.6150
 2723SOL     OW25310   4.084   4.235   6.522 -0.7849 -0.3189  0.0742
 2723SOL    HW125311   4.101   4.205   6.612 -1.2411  0.3735  0.3937
 2723SOL    HW225312   4.065   4.154   6.474  0.9942 -0.8678  0.2364
 2724SOL     OW25313   5.283   2.600   1.043 -0.4922  0.2181  0.1717
 2724SOL    HW125314   5.357   2.590   1.103  1.9706  2.4746 -2.2106
 2724SOL    HW225315   5.265   2.512   1.011  1.6327 -0.3110  0.3473
 2725SOL     OW25316   6.452   4.834   1.306  0.0825 -0.5702 -0.2081
 2725SOL    HW125317   6.539   4.809   1.273  0.5619 -0.3290  0.8329
 2725SOL    HW225318   6.399   4.756   1.296  0.9864 -1.3753  1.0366
 2726SOL     OW25319   4.174   6.327   0.700  0.2096 -0.5579 -0.3727
 2726SOL    HW125320   4.185   6.421   0.716  0.6288 -0.7812  0.7697
 2726SOL    HW225321   4.089   6.319   0.658  0.3994  0.3806 -0.9700
 2727SOL     OW25322   6.231   4.651   1.663 -0.2087  0.2433 -0.0557
 2727SOL    HW125323   6.159   4.638   1.724  0.5569  0.9438  1.0344
 2727SOL    HW225324   6.188   4.666   1.579 -1.3360  0.7122  0.5777
 2728SOL     OW25325   3.923   5.247   7.488 -0.8413 -0.2797  0.3248
 2728SOL    HW125326   3.966   5.191   7.553 -0.5984 -0.5819 -0.0815
 2728SOL    HW225327   3.984   5.320   7.476 -0.9427 -0.1630  0.5238
 2729SOL     OW25328   4.555   4.169   7.522 -0.0806 -0.2637  0.3545
 2729SOL    HW125329   4.570   4.076   7.543 -0.7590 -0.9493 -1.8974
 2729SOL    HW225330   4.521   4.168   7.433 -1.4067  2.0799  0.7426
 2730SOL     OW25331   2.891   4.945   0.431  0.3474  0.5336  0.1801
 2730SOL    HW125332   2.978   4.981   0.447  0.5560  0.1130 -0.0004
 2730SOL    HW225333   2.838   4.978   0.504  0.0532  2.7462 -0.9290
 2731SOL     OW25334   5.384   4.854   5.977  0.4290 -0.4366 -0.0873
 2731SOL    HW125335   5.395   4.828   6.068  2.0437 -0.5084 -0.2726
 2731SOL    HW225336   5.328   4.785   5.939  0.0208 -0.5810  0.7599
 2732SOL     OW25337   3.895   4.359   2.005  0.1495  0.3811  0.2829
 2732SOL    HW125338   3.938   4.419   2.066  0.3634  0.5991 -0.0786
 2732SOL    HW225339   3.938   4.375   1.921 -2.4193  2.6437 -0.7939
 2733SOL     OW25340   5.190   0.790   0.915  0.5679 -0.0602  0.1072
 2733SOL    HW125341   5.263   0.729   0.915 -0.9076 -1.9988 -1.9572
 2733SOL    HW225342   5.173   0.808   0.822 -0.0842  2.2581  0.6011
 2734SOL     OW25343   1.083   1.062   7.073  0.4622 -0.3469 -0.7997
 2734SOL    HW125344   1.177   1.049   7.081  0.3546 -0.3748  0.5681
 2734SOL    HW225345   1.044   1.005   7.139 -0.4680  0.2430 -0.8126
 2735SOL     OW25346   2.067   4.084   1.056  0.1076  0.0130 -0.0902
 2735SOL    HW125347   2.014   4.087   1.135 -0.6124 -1.1796 -0.5030
 2735SOL    HW225348   2.128   4.011   1.070 -0.3747 -0.5472 -0.8359
 2736SOL     OW25349   1.204   5.629   5.707  0.1150  0.2213 -0.3725
 2736SOL    HW125350   1.111   5.608   5.697 -0.5641  1.9751  1.4014
 2736SOL    HW225351   1.229   5.670   5.624 -0.6502 -0.3867 -0.9138
 2737SOL     OW25352   2.071   0.921   6.463  0.0050 -0.6217  0.2527
 2737SOL    HW125353   2.028   0.839   6.439 -0.4511  0.0449 -1.3895
 2737SOL    HW225354   2.164   0.904   6.447  0.1686 -1.4235  1.8624
 2738SOL     OW25355   5.487   5.152   6.636  0.2940  0.3661 -0.3896
 2738SOL    HW125356   5.397   5.183   6.644  0.4944  0.5966  1.2592
 2738SOL    HW225357   5.539   5.232   6.636  0.6198  0.1785  0.9072
 2739SOL     OW25358   3.794   1.425   2.481  0.2716  0.0266  0.0760
 2739SOL    HW125359   3.699   1.434   2.477  0.0502 -0.9391  1.8589
 2739SOL    HW225360   3.813   1.349   2.427 -0.0691 -0.2049  0.2760
 2740SOL     OW25361   5.525   2.159   1.229  0.0722  0.1382 -0.5722
 2740SOL    HW125362   5.439   2.151   1.269  0.3806  2.4150  0.7087
 2740SOL    HW225363   5.583   2.109   1.286 -0.2302 -0.5502 -0.8627
 2741SOL     OW25364   0.283   6.059   5.445  0.5691  0.8150 -0.4113
 2741SOL    HW125365   0.290   5.986   5.383  1.2318  1.3500 -0.9699
 2741SOL    HW225366   0.215   6.031   5.506  1.7408 -0.8769  0.1923
 2742SOL     OW25367   4.762   2.674   5.444 -0.2229 -0.0734  0.4115
 2742SOL    HW125368   4.688   2.616   5.464 -0.3725 -0.0058  0.0681
 2742SOL    HW225369   4.832   2.614   5.416 -0.0514 -0.1581  1.0056
 2743SOL     OW25370   5.635   2.387   2.235 -0.2350  0.4077 -0.5758
 2743SOL    HW125371   5.669   2.443   2.305 -1.7241 -1.2858  1.6697
 2743SOL    HW225372   5.711   2.368   2.181  1.1163  1.4128  0.8627
 2744SOL     OW25373   2.377   4.218   0.569 -0.2727 -0.8925  0.5970
 2744SOL    HW125374   2.416   4.303   0.592 -0.6695 -0.5246 -0.0496
 2744SOL    HW225375   2.288   4.239   0.542  0.0228 -1.3505 -0.8063
 2745SOL     OW25376   1.024   3.609   6.915  0.2673 -0.2122  0.2043
 2745SOL    HW125377   1.090   3.577   6.976  0.1822  0.0663  0.4462
 2745SOL    HW225378   1.003   3.533   6.860  0.5620 -0.3831  0.3264
 2746SOL     OW25379   5.959   4.173   7.192 -0.4369 -0.2267  0.3226
 2746SOL    HW125380   6.051   4.191   7.172 -0.6615 -1.2685 -1.9595
 2746SOL    HW225381   5.962   4.108   7.262  0.5516  0.0950  0.5994
 2747SOL     OW25382   5.450   5.816   0.512 -0.1902 -0.4465  0.0727
 2747SOL    HW125383   5.407   5.890   0.556 -0.4487  0.2237 -1.2363
 2747SOL    HW225384   5.474   5.757   0.583 -3.3700 -0.9421  0.9284
 2748SOL     OW25385   1.997   3.967   7.182 -0.0903 -0.5274  0.1010
 2748SOL    HW125386   2.013   3.992   7.273  1.1981 -0.0237 -0.2414
 2748SOL    HW225387   2.048   4.030   7.131 -2.9947  0.9948 -1.1170
 2749SOL     OW25388   3.769   4.436   1.118  1.0053  0.3037 -0.3966
 2749SOL    HW125389   3.742   4.479   1.037  2.0298  1.0095 -0.3791
 2749SOL    HW225390   3.766   4.505   1.184 -2.0086 -0.7274  0.7259
 2750SOL     OW25391   0.996   0.100   6.870  0.1936 -0.1681 -0.0942
 2750SOL    HW125392   1.040   0.067   6.948  0.1156 -2.1598 -0.8456
 2750SOL    HW225393   0.954   0.181   6.898  0.8553 -0.4191  1.7086
 2751SOL     OW25394   4.299   2.289   0.434 -0.1384 -0.0804  0.1813
 2751SOL    HW125395   4.390   2.319   0.446 -0.2507  0.0961  0.6032
 2751SOL    HW225396   4.302   2.237   0.353  0.2930  0.1074  0.0703
 2752SOL     OW25397   5.155   3.150   2.002  0.1663 -0.0439  0.0568
 2752SOL    HW125398   5.075   3.202   1.990  0.2349  0.2367  0.8324
 2752SOL    HW225399   5.219   3.191   1.944 -0.0585  0.1234 -0.0773
 2753SOL     OW25400   0.696   5.050   0.140 -0.2532  0.5265 -0.5149
 2753SOL    HW125401   0.703   5.001   0.058 -0.0176  0.1883 -0.2936
 2753SOL    HW225402   0.619   5.014   0.183  0.0680  0.1770 -0.2353
 2754SOL     OW25403   1.061   3.953   0.667 -0.1201  0.3231  0.0401
 2754SOL    HW125404   1.041   3.862   0.650 -0.3508  0.7201 -2.0003
 2754SOL    HW225405   0.999   4.002   0.614 -0.9517  1.7247  2.1694
 2755SOL     OW25406   5.600   4.481   0.214  0.3189  0.4659  0.3861
 2755SOL    HW125407   5.575   4.412   0.275 -1.4201  0.1041 -0.6412
 2755SOL    HW225408   5.576   4.563   0.258 -0.3687  0.2395  0.4501
 2756SOL     OW25409   0.842   1.879   7.371 -0.3134  0.1565 -0.2884
 2756SOL    HW125410   0.868   1.968   7.393 -1.4854  1.0977 -2.3829
 2756SOL    HW225411   0.801   1.887   7.285 -0.3629 -2.4354 -0.5836
 2757SOL     OW25412   1.912   2.339   0.037  0.3527  0.6775 -1.2233
 2757SOL    HW125413   1.825   2.368   0.010 -0.6591 -3.4881 -3.2537
 2757SOL    HW225414   1.901   2.311   0.128  0.0500  1.7516 -0.9196
 2758SOL     OW25415   0.074   0.965   6.631  0.4150 -0.3227 -0.6055
 2758SOL    HW125416   0.008   0.898   6.616  0.6195 -0.9058  0.8696
 2758SOL    HW225417   0.053   1.035   6.569 -2.9766  0.5293  1.2796
 2759SOL     OW25418   5.702   2.498   7.051  0.3986  0.2860 -0.6476
 2759SOL    HW125419   5.685   2.513   6.958 -1.0499  1.5490 -0.2205
 2759SOL    HW225420   5.725   2.405   7.057  1.6224  0.4479 -2.3941
 2760SOL     OW25421   1.124   2.585   7.349 -0.2148  0.6778 -0.1542
 2760SOL    HW125422   1.108   2.679   7.347  1.1108  0.9067 -1.5528
 2760SOL    HW225423   1.105   2.556   7.260  0.5812 -0.1564 -0.0641
 2761SOL     OW25424   1.855   2.212   1.021  0.3534  0.6011 -0.0076
 2761SOL    HW125425   1.871   2.136   1.078 -2.0897 -0.8492 -1.1013
 2761SOL    HW225426   1.914   2.198   0.947 -0.4202 -0.5689 -0.4400
 2762SOL     OW25427   2.427   6.033   7.442  0.8442 -0.3037 -0.6958
 2762SOL    HW125428   2.448   6.102   7.380 -1.8407  0.8981 -0.3772
 2762SOL    HW225429   2.345   5.996   7.410  1.5311 -2.4929 -0.1088
 2763SOL     OW25430   2.684   2.904   1.576 -0.0569 -0.2874 -0.1715
 2763SOL    HW125431   2.615   2.839   1.587 -2.0617  1.6186 -0.6403
 2763SOL    HW225432   2.735   2.900   1.656 -0.7088 -1.7479  0.1968
 2764SOL     OW25433   1.944   4.030   1.621  0.2841 -0.1902 -0.2112
 2764SOL    HW125434   1.974   3.997   1.705 -0.1647  1.9729  0.8738
 2764SOL    HW225435   1.996   4.109   1.607  0.0103 -0.2537 -1.7533
 2765SOL     OW25436   2.053   4.627   5.831 -0.2463 -0.3451 -0.4777
 2765SOL    HW125437   2.141   4.657   5.808  0.6593  0.5762  3.4322
 2765SOL    HW225438   2.003   4.707   5.846 -0.1824 -0.7003  2.1391
 2766SOL     OW25439   4.789   1.452   6.471 -0.2616 -0.5237 -0.0264
 2766SOL    HW125440   4.811   1.500   6.391 -2.7605  0.3705 -0.2763
 2766SOL    HW225441   4.781   1.361   6.444 -0.3896 -0.3316 -0.6448
 2767SOL     OW25442   2.130   3.356   0.748  1.0684  0.2519  0.0766
 2767SOL    HW125443   2.200   3.420   0.758  1.1231  0.0142  1.2690
 2767SOL    HW225444   2.081   3.360   0.830 -0.4507  0.5610 -0.8176
 2768SOL     OW25445   4.722   0.933   1.653 -0.6132  0.1396 -0.5564
 2768SOL    HW125446   4.699   0.999   1.588  2.7844  0.4531 -1.6360
 2768SOL    HW225447   4.778   0.979   1.716  1.4022 -1.4784 -1.0472
 2769SOL     OW25448   0.198   4.478   0.541  0.0251  0.3842 -0.1758
 2769SOL    HW125449   0.227   4.530   0.465 -0.1879  0.9778  0.1415
 2769SOL    HW225450   0.233   4.390   0.524  0.2851  0.5943 -0.7874
 2770SOL     OW25451   2.251   1.202   7.502 -0.2150  0.1376 -0.1822
 2770SOL    HW125452   2.220   1.224   7.414  0.1572  2.4391  0.1885
 2770SOL    HW225453   2.345   1.184   7.490  0.5299  3.2757  0.0268
 2771SOL     OW25454   3.224   4.980   0.854  0.0544 -0.4356 -0.0193
 2771SOL    HW125455   3.202   4.890   0.879  2.0003 -2.1004 -3.5834
 2771SOL    HW225456   3.318   4.978   0.837 -0.0751  1.9633 -1.4154
 2772SOL     OW25457   4.593   3.285   1.411  0.2645 -0.1662 -0.5228
 2772SOL    HW125458   4.501   3.313   1.410 -0.0488 -1.1425 -1.6096
 2772SOL    HW225459   4.593   3.207   1.468  1.0414  1.6167  2.0995
 2773SOL     OW25460   2.256   4.548   1.502  0.1193 -0.1770  0.1337
 2773SOL    HW125461   2.271   4.548   1.407 -1.5679  0.5685 -0.1833
 2773SOL    HW225462   2.310   4.476   1.535  0.0678 -1.0378 -1.5216
 2774SOL     OW25463   2.271   4.695   1.749 -0.7145  0.5073  0.3086
 2774SOL    HW125464   2.201   4.654   1.800  0.2213 -0.6945  0.6830
 2774SOL    HW225465   2.264   4.655   1.662  0.3856 -0.7152  0.7587
 2775SOL     OW25466   1.804   0.866   5.846  0.3424  0.4671 -0.5236
 2775SOL    HW125467   1.780   0.949   5.805  2.3285  0.9310 -0.8608
 2775SOL    HW225468   1.735   0.805   5.820 -0.0890  1.5281 -1.9580
 2776SOL     OW25469   0.662   3.891   6.585 -0.4032  0.3029 -0.0756
 2776SOL    HW125470   0.643   3.830   6.655  0.7996 -0.7619 -0.6371
 2776SOL    HW225471   0.622   3.852   6.507  0.0320  0.4279 -0.3647
 2777SOL     OW25472   2.879   1.378   1.600  0.3603  0.1782 -0.1900
 2777SOL    HW125473   2.840   1.426   1.527 -0.4487 -0.2284 -0.0334
 2777SOL    HW225474   2.955   1.431   1.625 -1.0999  2.0080  0.6617
 2778SOL     OW25475   6.365   0.529   0.855  0.2285 -0.1463 -0.0432
 2778SOL    HW125476   6.328   0.534   0.766 -0.8780 -0.4594  0.3758
 2778SOL    HW225477   6.424   0.454   0.852  0.9956  0.4727 -0.7848
 2779SOL     OW25478   1.628   1.730   7.655 -0.5130  0.1048 -0.0838
 2779SOL    HW125479   1.608   1.641   7.624 -1.0401  1.2365 -3.4849
 2779SOL    HW225480   1.542   1.773   7.660 -0.2294  0.5513  1.1120
 2780SOL     OW25481   2.272   5.512   5.997 -0.5700  0.3025 -0.0750
 2780SOL    HW125482   2.332   5.481   6.065  1.5828 -1.7764 -2.6834
 2780SOL    HW225483   2.327   5.521   5.919 -2.8779  2.6914 -1.5953
 2781SOL     OW25484   6.310   2.492   7.477 -0.5527 -0.3144  0.0387
 2781SOL    HW125485   6.269   2.534   7.553  0.7041 -0.0849  0.6271
 2781SOL    HW225486   6.280   2.401   7.480  0.6151 -0.7080  1.7227
 2782SOL     OW25487   1.400   0.331   1.123 -0.3847  0.4694 -0.3101
 2782SOL    HW125488   1.399   0.237   1.106  0.8484  0.6028 -1.3268
 2782SOL    HW225489   1.380   0.371   1.038 -2.1573  1.1365  0.3827
 2783SOL     OW25490   3.162   5.051   0.593 -0.0613 -0.2414  0.2835
 2783SOL    HW125491   3.237   5.110   0.599 -1.1783  1.3308 -0.6228
 2783SOL    HW225492   3.148   5.021   0.683 -0.9263  2.7955  1.2601
 2784SOL     OW25493   5.975   4.759   6.884 -0.5272 -0.1379  0.4192
 2784SOL    HW125494   6.014   4.787   6.801 -2.2734 -0.8785 -0.7033
 2784SOL    HW225495   5.940   4.839   6.922  0.3407  0.2169  0.4940
 2785SOL     OW25496   5.037   2.038   6.965 -0.0270  0.1997 -0.1121
 2785SOL    HW125497   4.973   1.999   6.904 -1.2298 -1.4361  2.0517
 2785SOL    HW225498   5.005   2.127   6.978  0.3755  0.6610 -1.9752
 2786SOL     OW25499   3.699   0.667   6.673  0.3955 -1.0168 -0.4158
 2786SOL    HW125500   3.762   0.710   6.614  1.1967 -2.0494 -0.3449
 2786SOL    HW225501   3.727   0.576   6.674 -0.3820 -1.2512  0.5902
 2787SOL     OW25502   6.151   5.061   6.316 -0.2329  0.7499 -0.0329
 2787SOL    HW125503   6.148   5.071   6.411 -2.1400 -0.0105  0.0381
 2787SOL    HW225504   6.169   5.149   6.283  0.0360  1.0997  1.0236
 2788SOL     OW25505   0.509   0.475   1.988  0.2769  0.0877  0.0411
 2788SOL    HW125506   0.443   0.545   1.993  0.6288  0.3524  1.7889
 2788SOL    HW225507   0.495   0.435   1.902  1.1168  3.3384 -1.7735
 2789SOL     OW25508   3.334   6.357   1.081  0.1980  0.9750  0.0207
 2789SOL    HW125509   3.345   6.380   0.988  1.8769  2.0079  0.4350
 2789SOL    HW225510   3.406   6.402   1.125 -0.2671  0.0687  1.7692
 2790SOL     OW25511   5.570   3.077   0.589  0.4022  0.2601  0.1674
 2790SOL    HW125512   5.499   3.142   0.592  0.3182  0.1336  1.5206
 2790SOL    HW225513   5.528   2.998   0.553 -0.5978 -0.2965  2.3845
 2791SOL     OW25514   3.315   5.656   6.239  0.1794 -0.4173 -0.2456
 2791SOL    HW125515   3.346   5.690   6.323  0.2378 -0.7183 -0.1450
 2791SOL    HW225516   3.371   5.580   6.222  0.6521  0.0629 -0.9055
 2792SOL     OW25517   0.176   5.864   5.810 -0.4303 -0.1289 -0.1184
 2792SOL    HW125518   0.248   5.805   5.835  0.1074  0.0990 -1.0798
 2792SOL    HW225519   0.178   5.864   5.714 -1.2688  0.4322 -0.1403
 2793SOL     OW25520   1.448   1.994   7.113 -0.3276 -0.0151 -0.3776
 2793SOL    HW125521   1.427   1.912   7.157 -1.9272  0.7227  0.3381
 2793SOL    HW225522   1.434   1.976   7.020  1.2716 -1.0683 -0.4585
 2794SOL     OW25523   2.814   0.428   7.657  0.1923  0.7273  0.3749
 2794SOL    HW125524   2.819   0.333   7.646 -2.8618  0.5787 -0.5092
 2794SOL    HW225525   2.799   0.440   7.750  0.0418  0.3139  0.4068
 2795SOL     OW25526   1.236   3.327   6.341 -0.1486  0.6013  0.6187
 2795SOL    HW125527   1.146   3.320   6.309 -0.2723  0.4174  1.0129
 2795SOL    HW225528   1.281   3.379   6.273 -0.1993 -0.5067 -0.2927
 2796SOL     OW25529   2.197   2.107   5.998 -0.3622 -0.3891  0.5587
 2796SOL    HW125530   2.115   2.074   5.960  1.0933 -1.5644 -1.7572
 2796SOL    HW225531   2.200   2.066   6.085 -0.9438 -2.5504 -0.3778
 2797SOL     OW25532   1.747   3.578   6.551  0.3437 -0.4934 -0.0303
 2797SOL    HW125533   1.811   3.544   6.613  0.0275 -1.0468  0.0032
 2797SOL    HW225534   1.735   3.507   6.488  0.8612  0.1683 -0.8774
 2798SOL     OW25535   0.095   1.861   0.068  0.1279  0.3253 -0.0476
 2798SOL    HW125536   0.022   1.893   0.015  0.6291  0.9711 -0.3605
 2798SOL    HW225537   0.173   1.901   0.028  0.5714  0.3109  0.7853
 2799SOL     OW25538   3.889   1.341   6.976  0.1164  0.6519  0.0529
 2799SOL    HW125539   3.794   1.343   6.971  0.1293  0.3875 -0.3327
 2799SOL    HW225540   3.919   1.387   6.898  0.3086  1.5640  0.6440
 2800SOL     OW25541   2.092   4.525   0.105 -0.0396  0.1782 -0.8202
 2800SOL    HW125542   2.114   4.571   0.024  1.1137 -0.5595 -0.9526
 2800SOL    HW225543   2.011   4.566   0.135  0.3394  1.5136 -1.5258
 2801SOL     OW25544   1.554   3.055   0.731  0.3558  0.5339 -0.4086
 2801SOL    HW125545   1.609   3.041   0.808  0.6405  0.3812 -0.6343
 2801SOL    HW225546   1.467   3.072   0.766  0.3105 -0.3267 -0.0711
 2802SOL     OW25547   4.184   4.533   0.962  0.0602  0.0293  0.3660
 2802SOL    HW125548   4.227   4.584   0.894 -0.6472 -0.7306 -0.6884
 2802SOL    HW225549   4.218   4.568   1.044  1.5279  0.4416 -0.3947
 2803SOL     OW25550   3.298   2.591   1.785  0.0673 -0.6489 -0.4951
 2803SOL    HW125551   3.329   2.640   1.709  0.0744 -1.0035 -0.7247
 2803SOL    HW225552   3.224   2.642   1.819  0.8319  0.1425 -0.0048
 2804SOL     OW25553   4.560   6.188   0.288 -0.0051 -0.1397 -0.1864
 2804SOL    HW125554   4.480   6.238   0.303 -0.0184 -0.4930  1.0482
 2804SOL    HW225555   4.618   6.248   0.240 -0.0508  1.0466  1.1676
 2805SOL     OW25556   1.625   0.396   6.272  0.3295 -0.9078  0.7556
 2805SOL    HW125557   1.658   0.473   6.319  0.5894 -1.0490  0.8088
 2805SOL    HW225558   1.579   0.345   6.338 -0.6637 -0.3407  0.5258
 2806SOL     OW25559   1.102   4.974   7.109 -0.0516  0.4642  0.2710
 2806SOL    HW125560   1.126   5.049   7.163 -1.6758 -0.5506  2.5590
 2806SOL    HW225561   1.058   5.012   7.033  3.1226  1.9843 -0.9761
 2807SOL     OW25562   4.510   3.920   6.812 -0.3980  0.1781 -0.0791
 2807SOL    HW125563   4.540   3.940   6.724 -3.7581  0.8102 -1.2371
 2807SOL    HW225564   4.490   3.826   6.810 -0.7382  0.2506 -0.0750
 2808SOL     OW25565   3.709   4.611   0.577  0.3351 -0.2443 -0.3443
 2808SOL    HW125566   3.647   4.639   0.510 -0.2894 -0.4024  0.1617
 2808SOL    HW225567   3.691   4.518   0.590 -0.7228  0.1508  1.2531
 2809SOL     OW25568   2.359   4.693   7.713  0.0147  0.2816 -0.6286
 2809SOL    HW125569   2.271   4.713   7.681 -1.3123  0.8021  2.9104
 2809SOL    HW225570   2.367   4.744   7.794  3.1690 -0.6375 -0.2298
 2810SOL     OW25571   0.780   1.338   5.644 -0.3798 -0.2467  0.2349
 2810SOL    HW125572   0.862   1.295   5.623 -1.0856 -0.9984 -1.1497
 2810SOL    HW225573   0.715   1.268   5.646 -0.7605  0.0822  2.9937
 2811SOL     OW25574   1.524   5.319   1.034 -0.0076  0.1149 -0.3637
 2811SOL    HW125575   1.485   5.389   0.983  0.1655  1.9694  1.8517
 2811SOL    HW225576   1.461   5.247   1.029 -0.7025  0.7892 -1.8363
 2812SOL     OW25577   4.145   3.685   0.672  0.2936 -0.2640 -0.2314
 2812SOL    HW125578   4.161   3.756   0.735 -1.4763  1.3445 -1.4889
 2812SOL    HW225579   4.134   3.607   0.727  2.3977  0.3355  1.1799
 2813SOL     OW25580   3.058   0.237   1.032  0.3840 -0.0761 -0.0453
 2813SOL    HW125581   2.994   0.308   1.037  2.5642  1.8619  2.4079
 2813SOL    HW225582   3.047   0.189   1.115 -0.0074 -1.7691 -1.0139
 2814SOL     OW25583   5.743   1.636   7.062 -0.4927 -0.1400  0.0096
 2814SOL    HW125584   5.717   1.687   7.138 -4.8479 -0.5586 -0.9466
 2814SOL    HW225585   5.692   1.556   7.068 -0.6380 -0.3990 -3.0547
 2815SOL     OW25586   5.111   4.155   6.928 -0.3062 -0.4139  0.4153
 2815SOL    HW125587   5.129   4.082   6.987  0.4004 -1.3488 -0.9264
 2815SOL    HW225588   5.183   4.216   6.943 -0.1488 -0.6304  0.5430
 2816SOL     OW25589   5.805   1.886   6.729  0.0811  0.4351  0.1558
 2816SOL    HW125590   5.797   1.965   6.675  0.1374  0.2050 -0.1955
 2816SOL    HW225591   5.894   1.889   6.763 -0.4995  1.4880  1.6790
 2817SOL     OW25592   4.422   5.454   5.901 -0.3755 -0.0069  0.0317
 2817SOL    HW125593   4.504   5.414   5.931 -0.7127  0.0609  1.0985
 2817SOL    HW225594   4.418   5.538   5.948  0.4670  1.4680 -2.3799
 2818SOL     OW25595   0.219   0.276   6.900  0.0341  0.0904  0.0715
 2818SOL    HW125596   0.285   0.232   6.954 -0.8394 -0.3866  0.7787
 2818SOL    HW225597   0.168   0.204   6.862 -1.1603  0.4468  0.9242
 2819SOL     OW25598   1.613   4.457   7.145  0.2261  0.1794  0.0962
 2819SOL    HW125599   1.601   4.393   7.215 -0.7126 -0.0148 -0.2325
 2819SOL    HW225600   1.689   4.423   7.096 -0.6136 -1.0290 -0.4275
 2820SOL     OW25601   6.018   6.206   7.189  0.1686 -0.6465 -0.3517
 2820SOL    HW125602   6.096   6.261   7.179 -0.3805  0.0912 -0.6824
 2820SOL    HW225603   5.946   6.268   7.195 -0.4792 -1.3381 -0.8562
 2821SOL     OW25604   5.426   3.871   6.910  0.1041 -0.1070 -0.1999
 2821SOL    HW125605   5.431   3.932   6.984  1.4461  0.5338 -0.7845
 2821SOL    HW225606   5.388   3.792   6.947 -2.1744  1.2117  0.4830
 2822SOL     OW25607   5.486   3.404   7.045 -0.0740  0.0512 -0.2056
 2822SOL    HW125608   5.452   3.493   7.047 -1.0675 -0.2649 -1.6040
 2822SOL    HW225609   5.581   3.415   7.034 -0.2593  0.9534 -1.0830
 2823SOL     OW25610   3.870   3.159   0.066 -0.5141  0.3098  0.2621
 2823SOL    HW125611   3.854   3.067   0.089  2.2114 -1.0883 -2.6544
 2823SOL    HW225612   3.956   3.178   0.102  0.0797  0.7841 -1.3031
 2824SOL     OW25613   4.606   0.357   7.743 -0.0795  0.7538  0.5317
 2824SOL    HW125614   4.532   0.300   7.724 -0.8609  1.3792  1.6148
 2824SOL    HW225615   4.569   0.445   7.747  0.8686  1.1760  0.2977
 2825SOL     OW25616   2.036   0.643   6.457  0.6181  0.5912  0.0795
 2825SOL    HW125617   2.000   0.569   6.506  0.3648  0.9194  0.4007
 2825SOL    HW225618   2.127   0.618   6.440  1.0766  0.9594  1.7664
 2826SOL     OW25619   3.277   3.735   6.770  0.1298 -0.7442  0.3869
 2826SOL    HW125620   3.362   3.747   6.728 -0.4524 -0.3743 -0.7121
 2826SOL    HW225621   3.251   3.823   6.797 -1.3694 -0.2840 -2.2425
 2827SOL     OW25622   2.203   2.305   1.585  0.0423  0.2896  0.2131
 2827SOL    HW125623   2.129   2.322   1.526  0.3835 -1.0226 -0.6312
 2827SOL    HW225624   2.180   2.224   1.630 -0.1654  1.2163  1.8675
 2828SOL     OW25625   1.723   0.604   1.086 -0.4446  0.1599 -0.0202
 2828SOL    HW125626   1.656   0.622   1.153 -1.7053 -2.3881 -0.4743
 2828SOL    HW225627   1.712   0.674   1.022 -0.7572  1.3485  1.2718
 2829SOL     OW25628   0.589   0.039   6.150  0.5371  0.0592 -0.0525
 2829SOL    HW125629   0.643  -0.033   6.118 -0.0774 -1.2947  1.7819
 2829SOL    HW225630   0.650   0.101   6.190  0.8753 -0.7347  0.6807
 2830SOL     OW25631   6.156   0.623   1.005 -0.0640  0.2176 -0.0375
 2830SOL    HW125632   6.076   0.571   0.999 -0.3440  0.7745 -1.9505
 2830SOL    HW225633   6.216   0.583   0.942  0.5099  0.8772  0.0718
 2831SOL     OW25634   4.716   1.402   6.729  0.0612  0.0563  0.1141
 2831SOL    HW125635   4.773   1.415   6.654 -0.9185  0.3600 -0.5833
 2831SOL    HW225636   4.776   1.384   6.802  1.0393  0.4046 -0.5960
 2832SOL     OW25637   4.199   5.269   5.873 -0.1652  0.7904  0.7405
 2832SOL    HW125638   4.283   5.312   5.858  0.0526  0.8223  1.9644
 2832SOL    HW225639   4.165   5.252   5.785  1.2145  0.5802  0.2256
 2833SOL     OW25640   6.122   1.173   2.096 -0.0303 -0.5861 -0.8565
 2833SOL    HW125641   6.057   1.120   2.142  0.6015 -0.5207  0.1229
 2833SOL    HW225642   6.193   1.113   2.076  0.1313 -0.3919 -0.8685
 2834SOL     OW25643   3.570   4.738   0.346 -0.2284  0.8635 -0.1177
 2834SOL    HW125644   3.568   4.830   0.319 -1.0015  0.5465 -1.1889
 2834SOL    HW225645   3.510   4.694   0.286  0.2928 -0.3834  0.2478
 2835SOL     OW25646   4.151   1.579   2.717  0.3761 -0.7289 -0.1744
 2835SOL    HW125647   4.224   1.520   2.735  1.4434  0.1896 -1.3013
 2835SOL    HW225648   4.074   1.535   2.754  1.3318 -2.2192  0.0994
 2836SOL     OW25649   0.184   2.115   1.227  0.2129  0.5556 -0.2065
 2836SOL    HW125650   0.160   2.187   1.286 -0.3182  2.2194 -2.3030
 2836SOL    HW225651   0.280   2.119   1.222  0.2136  0.8793  0.0138
 2837SOL     OW25652   0.977   1.792   0.626  0.0655  1.0553  0.6443
 2837SOL    HW125653   0.932   1.711   0.653  0.2026  1.3269  1.7488
 2837SOL    HW225654   0.948   1.857   0.690  0.6579  1.6618  0.2997
 2838SOL     OW25655   6.063   1.363   7.293  0.0104 -0.3282 -0.0685
 2838SOL    HW125656   6.035   1.387   7.204  0.0911 -1.8999 -0.5526
 2838SOL    HW225657   6.001   1.408   7.350 -1.0994 -0.6277 -0.9950
 2839SOL     OW25658   3.506   4.394   2.265 -0.2214  0.3897 -0.6530
 2839SOL    HW125659   3.474   4.451   2.196  1.0172  0.3854 -1.2554
 2839SOL    HW225660   3.600   4.410   2.268 -0.0294 -0.7327 -0.0094
 2840SOL     OW25661   2.482   6.370   6.477  0.1058  0.3603  0.0983
 2840SOL    HW125662   2.518   6.437   6.419  1.0701 -0.6028 -0.4567
 2840SOL    HW225663   2.496   6.405   6.565  1.1594  0.6201 -0.1611
 2841SOL     OW25664   1.191   2.959   7.749  0.5160  0.0848 -0.4198
 2841SOL    HW125665   1.258   3.027   7.746 -0.0499  0.6574 -3.4369
 2841SOL    HW225666   1.109   3.007   7.757  0.2612 -0.4823  0.6110
 2842SOL     OW25667   3.764   1.719   0.643 -0.0442 -0.2930  0.2325
 2842SOL    HW125668   3.855   1.691   0.628 -0.3391 -0.9835 -0.3204
 2842SOL    HW225669   3.760   1.740   0.736  0.5173 -0.8823  0.3919
 2843SOL     OW25670   2.351   6.175   7.083  0.6124  0.3090 -0.1401
 2843SOL    HW125671   2.336   6.203   7.173  0.4337 -2.2252  0.6934
 2843SOL    HW225672   2.279   6.214   7.033  0.8552  1.9636  0.7137
 2844SOL     OW25673   0.436   1.596   0.593  0.6110  0.0261 -0.4157
 2844SOL    HW125674   0.411   1.549   0.513  1.4402 -1.9857  0.4167
 2844SOL    HW225675   0.421   1.532   0.663  1.1275  1.2857  0.8776
 2845SOL     OW25676   2.699   4.998   2.424  0.2120 -0.6612 -0.1074
 2845SOL    HW125677   2.676   5.083   2.385  0.2867 -0.4910  0.2149
 2845SOL    HW225678   2.794   4.992   2.413  0.2276 -0.6324  0.0075
 2846SOL     OW25679   4.419   0.212   7.647 -0.3246 -0.2711 -0.0609
 2846SOL    HW125680   4.403   0.146   7.713 -1.4219  1.4128  1.4483
 2846SOL    HW225681   4.387   0.173   7.565 -2.8005 -0.9072  1.1250
 2847SOL     OW25682   0.825   4.657   5.863 -0.4294  0.3509 -0.0313
 2847SOL    HW125683   0.920   4.655   5.854 -0.3560  0.3080  0.6811
 2847SOL    HW225684   0.807   4.593   5.932 -1.0449 -0.2212 -0.7095
 2848SOL     OW25685   5.060   6.294   6.624 -0.0001 -0.7444 -0.2536
 2848SOL    HW125686   4.978   6.343   6.619 -0.5033 -1.6032 -0.6286
 2848SOL    HW225687   5.122   6.345   6.572 -0.5275 -0.5143 -0.6709
 2849SOL     OW25688   5.988   1.805   0.773 -0.0047 -0.0234  0.1293
 2849SOL    HW125689   6.077   1.787   0.745 -0.5899 -1.1695 -1.0997
 2849SOL    HW225690   5.981   1.901   0.769  0.9360  0.0370 -0.4967
 2850SOL     OW25691   3.314   4.396   0.049 -1.3601  0.4710 -0.2016
 2850SOL    HW125692   3.378   4.466   0.038 -1.8447  0.7305 -1.7167
 2850SOL    HW225693   3.259   4.424   0.122  0.6586 -0.1178  1.6584
 2851SOL     OW25694   5.810   3.420   1.694 -0.3931 -0.2907 -0.1599
 2851SOL    HW125695   5.827   3.409   1.788 -1.8756  1.1658  0.3241
 2851SOL    HW225696   5.758   3.344   1.670 -1.4415  0.1438  0.6267
 2852SOL     OW25697   6.055   3.785   7.187  0.1045 -0.8270 -0.1584
 2852SOL    HW125698   6.061   3.763   7.280 -1.1204 -1.3612 -0.1801
 2852SOL    HW225699   6.023   3.705   7.145 -0.3986 -0.2731 -0.8747
 2853SOL     OW25700   1.743   6.072   0.942 -0.2631 -0.4079  0.6529
 2853SOL    HW125701   1.784   6.067   1.028  0.8421  0.2951  0.1912
 2853SOL    HW225702   1.697   6.156   0.942  0.8625  0.2334  0.1072
 2854SOL     OW25703   5.879   2.299   0.183  0.4053 -0.3040 -0.4643
 2854SOL    HW125704   5.805   2.338   0.230 -0.6161 -0.3484 -1.9720
 2854SOL    HW225705   5.867   2.327   0.092  1.8387 -0.9331 -0.8694
 2855SOL     OW25706   3.913   1.572   1.916  0.3178  0.1504 -0.3616
 2855SOL    HW125707   3.927   1.560   2.010  0.2291 -0.6582 -0.4439
 2855SOL    HW225708   3.822   1.601   1.908 -0.1556 -1.2571 -0.2917
 2856SOL     OW25709   5.352   3.781   0.598  0.3565  0.2168  0.0987
 2856SOL    HW125710   5.260   3.804   0.586  0.9334  2.4025 -0.6207
 2856SOL    HW225711   5.379   3.829   0.676  0.5101 -1.7527  1.3244
 2857SOL     OW25712   1.677   5.223   7.513  0.1617 -0.0868 -0.5237
 2857SOL    HW125713   1.669   5.159   7.442 -2.3448 -2.5730  1.7784
 2857SOL    HW225714   1.592   5.268   7.513 -0.2652 -0.8183  1.4366
 2858SOL     OW25715   5.331   2.642   0.076 -0.0279  0.1816  0.4218
 2858SOL    HW125716   5.251   2.640   0.023 -0.2850  0.6253  0.7775
 2858SOL    HW225717   5.399   2.672   0.016 -0.1915  0.0885  0.1884
 2859SOL     OW25718   1.810   0.052   1.266  0.1691  0.7478 -0.3937
 2859SOL    HW125719   1.786   0.144   1.257 -0.8756  0.4442 -0.8095
 2859SOL    HW225720   1.860   0.049   1.348 -0.3668  1.5705 -0.0214
 2860SOL     OW25721   2.089   3.022   6.606  0.4407 -0.1155 -0.0904
 2860SOL    HW125722   2.142   2.970   6.667  0.6847  0.0358 -0.1739
 2860SOL    HW225723   2.091   2.972   6.524  0.0120 -0.3809  0.0593
 2861SOL     OW25724   2.597   1.873   1.916 -0.2323 -0.1480  0.0411
 2861SOL    HW125725   2.526   1.810   1.928  1.6850 -2.8331 -1.6616
 2861SOL    HW225726   2.660   1.853   1.984  0.6093 -0.3967 -0.7965
 2862SOL     OW25727   1.724   3.448   0.864  0.1216  0.3657 -0.8410
 2862SOL    HW125728   1.789   3.413   0.803  3.0197  2.9765  0.4625
 2862SOL    HW225729   1.714   3.380   0.930  0.3072 -0.7089 -1.8733
 2863SOL     OW25730   5.619   6.202   7.249 -0.1315 -0.6699 -0.1232
 2863SOL    HW125731   5.608   6.165   7.337 -2.0264  1.7397  0.7829
 2863SOL    HW225732   5.545   6.168   7.199 -0.5157 -0.0515  0.0086
 2864SOL     OW25733   1.905   1.126   6.621 -0.0547  0.1370 -0.6032
 2864SOL    HW125734   1.975   1.092   6.566  0.9056  0.9410  0.0846
 2864SOL    HW225735   1.857   1.187   6.565  0.1780  0.0465 -0.9019
 2865SOL     OW25736   2.558   4.729   1.405 -0.2805 -0.0015 -0.2783
 2865SOL    HW125737   2.558   4.761   1.495  2.9336  0.0705 -0.2044
 2865SOL    HW225738   2.529   4.638   1.412  2.6750 -0.9462  1.3708
 2866SOL     OW25739   4.951   3.404   1.249  0.2348 -0.5770 -0.1077
 2866SOL    HW125740   4.987   3.491   1.231  1.2540 -1.1287 -0.8155
 2866SOL    HW225741   4.918   3.410   1.339  1.0255  0.3015  0.1339
 2867SOL     OW25742   0.160   3.546   6.786 -0.1929  0.2266 -0.7336
 2867SOL    HW125743   0.118   3.533   6.701 -0.7071 -0.9882 -0.3213
 2867SOL    HW225744   0.105   3.498   6.848  2.1033 -1.9929 -0.2533
 2868SOL     OW25745   2.681   5.879   7.121  0.4735 -0.2168  0.0164
 2868SOL    HW125746   2.762   5.835   7.096 -0.2396 -0.6517 -1.6876
 2868SOL    HW225747   2.621   5.863   7.048  0.0340  3.2493 -0.5599
 2869SOL     OW25748   0.333   2.059   6.992 -0.4171  0.4452  0.2272
 2869SOL    HW125749   0.370   2.147   6.992 -0.4292  0.4512  0.5712
 2869SOL    HW225750   0.351   2.026   7.080  1.2414 -0.5879 -0.4454
 2870SOL     OW25751   5.293   2.135   6.526 -0.2793  0.1949  0.3155
 2870SOL    HW125752   5.365   2.078   6.554  1.0618  0.6962 -1.8662
 2870SOL    HW225753   5.295   2.208   6.588  0.3671 -0.3439  0.9478
 2871SOL     OW25754   1.632   3.871   1.168  0.0770  0.0652 -0.0870
 2871SOL    HW125755   1.592   3.953   1.138 -0.5847  0.3774  1.5427
 2871SOL    HW225756   1.613   3.809   1.098 -3.0086  0.2863  0.4034
 2872SOL     OW25757   2.214   2.754   0.387  0.1489 -0.0707  0.0977
 2872SOL    HW125758   2.264   2.833   0.366 -1.1811  0.8783  0.3067
 2872SOL    HW225759   2.279   2.689   0.409  1.3492  0.6352 -1.1890
 2873SOL     OW25760   1.012   1.869   2.103  0.3400  0.3038  0.0680
 2873SOL    HW125761   0.999   1.942   2.042 -0.0617  0.6668  0.5842
 2873SOL    HW225762   1.080   1.816   2.061 -0.5287  0.0864 -1.1091
 2874SOL     OW25763   3.110   3.422   2.220  0.6738 -0.1585  0.2745
 2874SOL    HW125764   3.151   3.372   2.290 -0.1068  0.8232  1.4904
 2874SOL    HW225765   3.169   3.496   2.205  1.5830 -1.1302 -1.1791
 2875SOL     OW25766   0.125   0.757   5.376 -0.3654 -0.7687  0.0549
 2875SOL    HW125767   0.083   0.715   5.451 -0.9072 -2.1082 -0.9485
 2875SOL    HW225768   0.203   0.703   5.359  0.3977  0.2099  0.3462
 2876SOL     OW25769   4.454   3.311   7.161  0.2648  0.2119  0.7374
 2876SOL    HW125770   4.483   3.231   7.118 -2.7315 -1.2016  1.0734
 2876SOL    HW225771   4.464   3.379   7.095 -0.6191 -1.1877 -0.9330
 2877SOL     OW25772   3.249   5.868   7.658  0.3915 -0.0056 -0.3556
 2877SOL    HW125773   3.245   5.850   7.752  0.8716  1.2373 -0.0704
 2877SOL    HW225774   3.301   5.797   7.622  1.4417  0.2726  0.5551
 2878SOL     OW25775   1.653   4.323   1.597 -0.5405  0.3664  0.5727
 2878SOL    HW125776   1.644   4.375   1.677  0.2714 -0.2357  1.0715
 2878SOL    HW225777   1.710   4.376   1.540 -0.9520  0.7014  0.4632
 2879SOL     OW25778   5.739   2.980   7.004 -0.2187  0.0552 -0.4646
 2879SOL    HW125779   5.810   2.917   6.993  0.2257  0.5625 -0.5581
 2879SOL    HW225780   5.732   3.025   6.920  1.0850  1.7683  0.2871
 2880SOL     OW25781   4.520   1.217   6.760 -0.0630 -0.9090 -0.1196
 2880SOL    HW125782   4.436   1.252   6.787  0.9732 -1.4735  4.7214
 2880SOL    HW225783   4.573   1.294   6.739 -1.0633 -0.4233 -0.9448
 2881SOL     OW25784   4.810   4.341   1.699  0.1291 -0.5443 -0.0875
 2881SOL    HW125785   4.772   4.420   1.737  3.1607  0.0063  2.1570
 2881SOL    HW225786   4.754   4.270   1.729 -0.1744  0.3648  1.5952
 2882SOL     OW25787   4.932   6.391   6.979 -0.2396  0.4627  0.1077
 2882SOL    HW125788   4.900   6.307   6.947 -2.0495  1.4459 -0.7684
 2882SOL    HW225789   4.888   6.456   6.925  0.1400  2.0381  1.6118
 2883SOL     OW25790   2.340   2.204   7.609  0.0620  0.8537  0.0625
 2883SOL    HW125791   2.285   2.155   7.670  0.9859 -1.0780 -0.5533
 2883SOL    HW225792   2.311   2.176   7.522  0.3673  1.7035 -0.3244
 2884SOL     OW25793   4.108   4.242   7.626  0.0930 -0.0046  0.3516
 2884SOL    HW125794   4.024   4.196   7.620 -0.6646  0.7152  3.4224
 2884SOL    HW225795   4.090   4.330   7.595 -0.1545  0.0038  0.5162
 2885SOL     OW25796   3.198   2.605   7.182 -0.6513 -0.9880  0.0035
 2885SOL    HW125797   3.124   2.578   7.127 -0.7294  0.0336 -0.4031
 2885SOL    HW225798   3.273   2.603   7.123 -0.5788 -0.7723  0.0897
 2886SOL     OW25799   2.078   4.542   5.026  0.4036 -0.0604  0.3458
 2886SOL    HW125800   2.045   4.628   5.003 -1.5992 -1.1643 -1.2517
 2886SOL    HW225801   2.017   4.509   5.092  1.3047 -0.1921  1.1456
 2887SOL     OW25802   2.557   2.503   2.123  0.4097  0.1462 -0.2134
 2887SOL    HW125803   2.483   2.561   2.143 -0.0503 -0.9760  1.5582
 2887SOL    HW225804   2.551   2.489   2.029 -0.6453  1.3875 -0.3687
 2888SOL     OW25805   0.783   4.575   6.807 -0.3304  0.5965 -0.1851
 2888SOL    HW125806   0.717   4.532   6.861 -0.0688  0.5283  0.0854
 2888SOL    HW225807   0.865   4.563   6.856  0.2880 -1.2736 -1.5336
 2889SOL     OW25808   4.068   2.010   7.529  0.3550  0.1235  0.0388
 2889SOL    HW125809   3.985   1.979   7.495  0.0222 -0.8150  1.6215
 2889SOL    HW225810   4.069   2.104   7.508 -2.0265  0.6032  1.7166
 2890SOL     OW25811   1.945   1.371   0.429 -0.5244 -0.0432 -0.0328
 2890SOL    HW125812   1.864   1.321   0.425 -0.4680 -0.0589 -1.0255
 2890SOL    HW225813   2.010   1.309   0.462 -0.4673 -0.6190 -1.1989
 2891SOL     OW25814   5.336   1.348   1.047  0.6236 -0.1044  0.6665
 2891SOL    HW125815   5.322   1.404   0.970 -0.3305 -0.5700  0.4942
 2891SOL    HW225816   5.262   1.368   1.104 -0.2620 -1.8405  0.2009
 2892SOL     OW25817   2.435   4.258   6.689 -0.4494  0.0057 -0.0876
 2892SOL    HW125818   2.408   4.291   6.603 -1.0545  0.1643  0.1542
 2892SOL    HW225819   2.458   4.166   6.674 -0.3361  0.0941 -0.4590
 2893SOL     OW25820   1.620   2.646   5.599  0.3189 -0.3288  0.3188
 2893SOL    HW125821   1.651   2.558   5.623 -0.5754 -0.7738 -0.0803
 2893SOL    HW225822   1.658   2.662   5.513 -1.7855 -1.5702 -0.9231
 2894SOL     OW25823   5.198   5.455   1.812 -0.4682  0.0856 -0.2013
 2894SOL    HW125824   5.173   5.381   1.757  0.6682  0.0197 -0.6429
 2894SOL    HW225825   5.238   5.518   1.752  0.4566  0.1691  0.4857
 2895SOL     OW25826   4.938   0.757   1.868  0.4868  0.3592 -0.0118
 2895SOL    HW125827   4.884   0.720   1.938  1.6499 -1.3087  0.0576
 2895SOL    HW225828   5.028   0.748   1.899  0.9780  0.5393 -1.2952
 2896SOL     OW25829   0.072   5.784   1.046 -0.1513 -0.3556 -0.2538
 2896SOL    HW125830   0.072   5.690   1.060  0.8993 -0.3732 -0.2945
 2896SOL    HW225831   0.094   5.822   1.131 -0.9474 -0.1165 -0.1416
 2897SOL     OW25832   3.011   3.293   6.843 -0.0136  0.1345  0.2797
 2897SOL    HW125833   2.923   3.332   6.843  0.5374  1.4579  0.0749
 2897SOL    HW225834   3.060   3.347   6.780  1.3177  0.3304  1.4449
 2898SOL     OW25835   5.383   2.546   7.155 -0.0577  0.1631  0.4503
 2898SOL    HW125836   5.344   2.485   7.093  0.9730 -1.1916  1.0807
 2898SOL    HW225837   5.429   2.610   7.101  0.8221 -0.9915 -0.2121
 2899SOL     OW25838   5.435   3.696   1.120 -0.7064 -1.2804 -0.4661
 2899SOL    HW125839   5.400   3.663   1.038  3.1618  1.4367 -3.6062
 2899SOL    HW225840   5.422   3.791   1.116  1.5275 -0.8378  0.8881
 2900SOL     OW25841   5.713   1.663   6.045 -0.0475 -0.4319  0.2641
 2900SOL    HW125842   5.645   1.730   6.047 -1.4439 -1.8303  1.3835
 2900SOL    HW225843   5.687   1.603   5.975  1.6588  0.5637 -1.3381
 2901SOL     OW25844   0.502   4.784   1.478  0.5293 -0.3687  0.2998
 2901SOL    HW125845   0.502   4.771   1.383  2.5547 -0.6165  0.2961
 2901SOL    HW225846   0.513   4.696   1.514 -1.6652 -0.4739  0.8711
 2902SOL     OW25847   2.835   2.325   7.506  0.3631  0.3517 -0.0006
 2902SOL    HW125848   2.760   2.376   7.476  0.8389  0.6640 -0.7014
 2902SOL    HW225849   2.810   2.294   7.593 -0.2627  1.1028  0.0993
 2903SOL     OW25850   4.427   0.674   7.360  0.3240  0.6183  0.5052
 2903SOL    HW125851   4.506   0.722   7.383  0.9384 -0.5490  0.9659
 2903SOL    HW225852   4.459   0.601   7.306 -0.5210  0.5056  0.1491
 2904SOL     OW25853   0.566   1.530   7.657  0.1002  0.1080  0.0238
 2904SOL    HW125854   0.566   1.465   7.586 -0.8834  1.0804 -0.9073
 2904SOL    HW225855   0.612   1.605   7.621  1.6274 -0.2003  1.2577
 2905SOL     OW25856   1.253   0.892   0.329 -0.6517  0.1403  0.2805
 2905SOL    HW125857   1.285   0.903   0.239  1.2238  1.4579  1.0496
 2905SOL    HW225858   1.169   0.938   0.329  1.0970  3.7051  0.0821
 2906SOL     OW25859   1.756   5.423   7.013 -0.3453 -0.0409 -0.2548
 2906SOL    HW125860   1.663   5.440   6.995  0.0803  2.0858 -0.7028
 2906SOL    HW225861   1.783   5.363   6.943 -0.9704  0.7378 -1.1837
 2907SOL     OW25862   1.847   4.198   0.395 -0.4613 -0.6083 -0.0742
 2907SOL    HW125863   1.844   4.123   0.336 -0.6341  0.6168 -1.6929
 2907SOL    HW225864   1.760   4.237   0.390 -0.5085 -0.5177  1.0683
 2908SOL     OW25865   0.978   3.229   0.515 -0.1751 -0.2159  0.5664
 2908SOL    HW125866   0.982   3.173   0.437 -1.0858 -1.1447  1.1745
 2908SOL    HW225867   0.996   3.170   0.588 -0.0820  0.4997  1.1343
 2909SOL     OW25868   0.393   2.777   7.715 -0.1101 -0.3127  0.1732
 2909SOL    HW125869   0.480   2.781   7.675 -0.7445  3.4997 -1.1720
 2909SOL    HW225870   0.335   2.749   7.643 -0.5732  1.8632 -0.3728
 2910SOL     OW25871   4.558   4.263   1.291 -0.2414 -0.1196  0.0834
 2910SOL    HW125872   4.465   4.287   1.300  0.0722  0.6777  1.6833
 2910SOL    HW225873   4.568   4.238   1.199 -2.0881 -0.4521 -0.0688
 2911SOL     OW25874   5.931   4.400   0.715 -0.0124  0.0536  0.0094
 2911SOL    HW125875   5.975   4.336   0.659  1.1462 -0.4300  1.4098
 2911SOL    HW225876   5.853   4.355   0.747  0.6819 -0.6100  0.8132
 2912SOL     OW25877   1.650   4.819   6.394 -0.1210 -0.5791 -0.3231
 2912SOL    HW125878   1.741   4.810   6.422  0.1255 -2.0346 -1.4589
 2912SOL    HW225879   1.604   4.750   6.442 -0.3060 -0.9008 -0.9523
 2913SOL     OW25880   3.778   4.604   6.248 -0.4542 -0.3413  0.1306
 2913SOL    HW125881   3.849   4.570   6.195  1.3903  1.9486  0.9409
 2913SOL    HW225882   3.790   4.563   6.334  1.1530  1.3949  0.8155
 2914SOL     OW25883   3.592   3.869   7.734  0.2337 -0.2767 -0.3096
 2914SOL    HW125884   3.501   3.844   7.721 -0.1136  0.3978  0.7213
 2914SOL    HW225885   3.610   3.932   7.665  0.1776 -1.0228 -1.0181
 2915SOL     OW25886   2.242   4.001   6.787  0.0569  0.0236  0.3354
 2915SOL    HW125887   2.253   3.908   6.808 -0.1263  0.2271  1.3770
 2915SOL    HW225888   2.193   4.037   6.861  1.7398  1.3361  0.8824
 2916SOL     OW25889   2.940   0.606   0.542  0.4724  0.3899 -0.2992
 2916SOL    HW125890   2.878   0.662   0.589 -0.7889 -1.3871  0.2416
 2916SOL    HW225891   2.887   0.535   0.506  2.0647 -0.7333 -0.5389
 2917SOL     OW25892   1.041   2.885   6.577 -0.5469  0.4884  0.7018
 2917SOL    HW125893   1.022   2.965   6.528 -0.4506 -0.2052 -0.5049
 2917SOL    HW225894   1.134   2.867   6.560 -0.8691 -0.5531 -0.0931
 2918SOL     OW25895   2.279   3.739   6.817  0.1045 -0.0848  0.0668
 2918SOL    HW125896   2.294   3.731   6.911 -1.3683  0.5394  0.3766
 2918SOL    HW225897   2.353   3.693   6.777  0.4501 -0.8559  1.5257
 2919SOL     OW25898   0.442   0.831   1.004 -0.5402  0.1454 -0.0224
 2919SOL    HW125899   0.524   0.782   1.005  0.1757  1.3137  0.0143
 2919SOL    HW225900   0.387   0.785   0.940  1.1897  0.9995 -2.2387
 2920SOL     OW25901   3.442   2.299   0.483 -0.6103  0.6212 -0.4222
 2920SOL    HW125902   3.517   2.240   0.473 -1.4071 -0.8141  1.3355
 2920SOL    HW225903   3.478   2.386   0.471  1.0796 -0.0917 -0.9094
 2921SOL     OW25904   4.826   1.116   1.132  0.0680 -0.0678 -0.4578
 2921SOL    HW125905   4.869   1.197   1.107  0.5683 -0.0247  0.4952
 2921SOL    HW225906   4.782   1.087   1.052 -1.7569  2.1281 -0.3453
 2922SOL     OW25907   1.332   1.168   6.363  0.0152  0.1907 -0.3818
 2922SOL    HW125908   1.305   1.192   6.275  0.1140  1.9647  0.0305
 2922SOL    HW225909   1.250   1.147   6.408 -0.0383 -0.6623 -0.8650
 2923SOL     OW25910   1.325   2.819   1.443 -0.5270 -0.0274 -0.2194
 2923SOL    HW125911   1.280   2.843   1.524 -0.3774  0.6674 -0.3376
 2923SOL    HW225912   1.261   2.765   1.395 -0.8301  0.0515  0.0941
 2924SOL     OW25913   4.516   5.613   1.328  0.2663 -0.1248  0.2948
 2924SOL    HW125914   4.589   5.597   1.268 -0.5561  0.5840 -0.9250
 2924SOL    HW225915   4.503   5.708   1.326 -1.9876 -0.3914 -1.1180
 2925SOL     OW25916   5.100   2.032   0.200  0.9484 -0.2515 -1.0185
 2925SOL    HW125917   5.064   2.073   0.121 -2.2085 -1.4969 -0.3586
 2925SOL    HW225918   5.081   1.939   0.189  1.9375 -0.6625  0.4990
 2926SOL     OW25919   2.152   0.998   6.176 -0.1700  0.0604 -0.2145
 2926SOL    HW125920   2.093   0.954   6.238 -0.9451 -0.0979 -1.0415
 2926SOL    HW225921   2.226   0.938   6.167  0.8682  0.8938  1.9165
 2927SOL     OW25922   5.906   4.359   1.212 -0.2389  0.2008 -0.1423
 2927SOL    HW125923   5.842   4.291   1.189  0.6814 -0.9074  0.4515
 2927SOL    HW225924   5.991   4.317   1.200  0.4081  1.6679 -0.9846
 2928SOL     OW25925   1.381   2.608   0.388 -0.0804  0.2140 -0.2150
 2928SOL    HW125926   1.447   2.641   0.449  2.3109 -0.1759 -2.4195
 2928SOL    HW225927   1.382   2.514   0.402 -0.9874  0.2951  0.4718
 2929SOL     OW25928   3.246   1.613   6.941  0.0182 -0.5898 -0.3386
 2929SOL    HW125929   3.323   1.661   6.911  0.8644 -0.4897  1.8387
 2929SOL    HW225930   3.226   1.552   6.870  0.8399  0.7876 -1.8049
 2930SOL     OW25931   0.378   2.486   1.852 -0.1842  0.0306  0.0653
 2930SOL    HW125932   0.376   2.418   1.920 -0.5520  0.0559  0.0818
 2930SOL    HW225933   0.289   2.521   1.851 -0.4023 -0.5240 -0.9869
 2931SOL     OW25934   1.042   4.564   6.377  0.1952 -0.6053  0.3362
 2931SOL    HW125935   1.083   4.488   6.336  0.8707 -0.3598  0.5575
 2931SOL    HW225936   0.960   4.530   6.413 -0.2367 -0.9131 -0.8650
 2932SOL     OW25937   1.226   4.998   5.282 -0.2370 -0.4176  0.4839
 2932SOL    HW125938   1.150   4.941   5.270 -1.2359  1.0362 -0.4315
 2932SOL    HW225939   1.300   4.947   5.247 -1.3999 -0.4540 -2.1199
 2933SOL     OW25940   4.610   3.722   1.803  0.7732 -0.1742 -0.5200
 2933SOL    HW125941   4.591   3.814   1.821  0.6140 -0.5383  1.3457
 2933SOL    HW225942   4.538   3.674   1.844  2.5581 -1.2834  1.5190
 2934SOL     OW25943   1.514   3.323   1.253 -0.2642 -0.3608  0.3494
 2934SOL    HW125944   1.551   3.281   1.330 -1.1397 -0.9837  0.4519
 2934SOL    HW225945   1.579   3.307   1.184  2.0585  2.8578  1.5485
 2935SOL     OW25946   2.579   1.666   0.087 -0.1922  0.3812  0.3162
 2935SOL    HW125947   2.555   1.689   0.176 -0.5429  1.7963 -0.1301
 2935SOL    HW225948   2.573   1.747   0.038  2.4117  0.1785 -0.5093
 2936SOL     OW25949   4.865   1.194   1.749  0.4395  0.5350 -0.1373
 2936SOL    HW125950   4.957   1.217   1.741  0.3657  1.4372  1.2540
 2936SOL    HW225951   4.820   1.277   1.759 -0.7608  0.2320 -2.4304
 2937SOL     OW25952   2.491   4.088   1.296 -0.0706 -0.2886  0.1167
 2937SOL    HW125953   2.571   4.132   1.323 -0.1255 -0.3625  0.3983
 2937SOL    HW225954   2.513   3.995   1.295  0.1211 -0.2452 -0.7291
 2938SOL     OW25955   5.090   2.750   6.935 -0.4212  0.9167  0.2398
 2938SOL    HW125956   5.007   2.715   6.903  0.2634 -0.5372 -0.0400
 2938SOL    HW225957   5.065   2.818   6.998 -1.8415 -0.3719  1.1377
 2939SOL     OW25958   4.324   0.013   1.836  0.0358 -0.4679 -0.6581
 2939SOL    HW125959   4.248  -0.033   1.800 -0.1691 -0.7449  0.1233
 2939SOL    HW225960   4.290   0.099   1.861 -0.2869 -0.9593  0.6808
 2940SOL     OW25961   4.791   6.275   0.145 -0.3874  0.1951 -0.6482
 2940SOL    HW125962   4.817   6.229   0.065 -1.9623 -1.0110 -0.5099
 2940SOL    HW225963   4.758   6.359   0.114  2.1571  1.1806 -0.9344
 2941SOL     OW25964   0.128   6.272   1.681  0.1945  0.0967 -0.3270
 2941SOL    HW125965   0.143   6.319   1.599  0.4790  1.1253  0.2905
 2941SOL    HW225966   0.210   6.283   1.730  0.0580 -0.5779  0.0601
 2942SOL     OW25967   5.979   6.357   0.371  0.4652  0.7252  0.6864
 2942SOL    HW125968   6.005   6.447   0.351  0.5613  0.7886  1.0888
 2942SOL    HW225969   5.932   6.364   0.455 -0.9936  0.6441 -0.0908
 2943SOL     OW25970   4.830   2.131   5.890  0.1282  0.8327  0.1217
 2943SOL    HW125971   4.875   2.132   5.974  0.8639 -2.5225 -0.0899
 2943SOL    HW225972   4.741   2.160   5.909 -0.3607 -1.9004  2.5845
 2944SOL     OW25973   0.351   6.463   0.234 -0.3994 -0.1472 -0.4383
 2944SOL    HW125974   0.344   6.546   0.186  1.1395  0.1198 -0.2504
 2944SOL    HW225975   0.393   6.403   0.172  0.0206 -0.3021 -0.0110
 2945SOL     OW25976   2.305   1.067   1.604  0.7746  0.7825 -0.5769
 2945SOL    HW125977   2.214   1.078   1.633  0.2175 -1.4115 -1.3185
 2945SOL    HW225978   2.298   1.036   1.514  2.3024  0.9832 -0.7967
 2946SOL     OW25979   4.593   2.874   6.455 -0.5748 -0.4215  0.2427
 2946SOL    HW125980   4.542   2.866   6.536 -0.7834  0.2177  0.1812
 2946SOL    HW225981   4.531   2.909   6.391 -0.1169  0.1861  0.1212
 2947SOL     OW25982   5.925   2.769   1.449 -0.3871  0.3984 -0.0143
 2947SOL    HW125983   5.882   2.685   1.437  0.2680  0.1970 -0.9826
 2947SOL    HW225984   6.003   2.766   1.394  0.6085  0.9669  1.2966
 2948SOL     OW25985   3.097   5.774   6.108 -0.2324 -0.0834  0.4798
 2948SOL    HW125986   3.020   5.808   6.153  1.6607  1.9833  2.4337
 2948SOL    HW225987   3.153   5.740   6.179  0.9809 -0.8433 -0.7936
 2949SOL     OW25988   5.104   6.312   0.258 -0.2379 -0.0337 -0.2201
 2949SOL    HW125989   5.180   6.257   0.242 -0.5892 -0.0212 -2.2356
 2949SOL    HW225990   5.036   6.276   0.201 -1.0919  1.2352 -0.0469
 2950SOL     OW25991   1.371   5.344   7.761 -0.5387  0.3028  0.3840
 2950SOL    HW125992   1.455   5.310   7.732 -1.1512 -1.6286  0.7201
 2950SOL    HW225993   1.376   5.346   7.856 -1.1967 -0.8241  0.4630
 2951SOL     OW25994   5.256   4.907   0.540 -0.2144  0.7624  0.2338
 2951SOL    HW125995   5.222   4.827   0.579 -0.6270  0.9922  0.3477
 2951SOL    HW225996   5.225   4.905   0.449  1.2139 -0.0509 -0.2713
 2952SOL     OW25997   2.371   5.568   1.484  0.0827 -0.3986 -0.1043
 2952SOL    HW125998   2.286   5.587   1.522  0.3226  0.7865 -0.1033
 2952SOL    HW225999   2.412   5.654   1.472  0.9601 -0.8896 -0.8381
 2953SOL     OW26000   5.574   0.595   2.152 -0.1094  0.6282  0.5502
 2953SOL    HW126001   5.619   0.658   2.096 -1.1947  0.7346 -0.2354
 2953SOL    HW226002   5.556   0.520   2.095  1.9506 -0.8306  1.6862
 2954SOL     OW26003   5.067   5.614   1.413  0.5026 -0.2937 -0.6548
 2954SOL    HW126004   5.144   5.558   1.411  0.5620 -0.2433 -0.0381
 2954SOL    HW226005   5.095   5.693   1.459  0.2427 -0.0239 -0.9468
 2955SOL     OW26006   0.318   3.619   6.522 -0.1472 -0.9006 -0.0402
 2955SOL    HW126007   0.234   3.574   6.530  0.2730 -2.0645 -1.5877
 2955SOL    HW226008   0.297   3.712   6.529 -1.4623 -1.2043  0.2846
 2956SOL     OW26009   4.893   4.627   0.105  0.0730  0.2168  0.2610
 2956SOL    HW126010   4.849   4.542   0.107  0.4152 -0.0163 -1.2976
 2956SOL    HW226011   4.825   4.689   0.133 -0.8227 -0.3132 -0.6672
 2957SOL     OW26012   1.336   1.636   6.916 -0.2687 -0.1239 -0.0436
 2957SOL    HW126013   1.429   1.639   6.936 -0.6025  0.8145  1.4339
 2957SOL    HW226014   1.321   1.545   6.887  0.9206 -0.5177  0.5332
 2958SOL     OW26015   0.517   0.301   2.197  0.3525 -0.7220  0.0465
 2958SOL    HW126016   0.542   0.368   2.133  0.8194 -0.5409  0.4133
 2958SOL    HW226017   0.580   0.311   2.268 -0.9098 -0.1244  1.1066
 2959SOL     OW26018   4.465   3.541   6.997 -0.1775 -0.7340 -0.8979
 2959SOL    HW126019   4.457   3.601   6.923 -1.8702 -1.1142 -1.0583
 2959SOL    HW226020   4.436   3.592   7.073  0.3969 -0.7153 -0.6873
 2960SOL     OW26021   4.541   1.677   2.634 -0.1444 -0.9690  0.4459
 2960SOL    HW126022   4.526   1.618   2.560 -1.0635 -2.5080  1.7965
 2960SOL    HW226023   4.476   1.746   2.624 -0.0851 -1.0126 -0.3111
 2961SOL     OW26024   3.399   0.914   7.025 -0.1100  0.4667  0.3040
 2961SOL    HW126025   3.482   0.913   6.978 -0.6251 -1.8581 -0.6764
 2961SOL    HW226026   3.422   0.901   7.117  0.6212  0.0473  0.0625
 2962SOL     OW26027   0.154   4.950   0.838  0.6162 -0.1399  0.2305
 2962SOL    HW126028   0.169   4.920   0.748  0.4185  2.3650 -0.7455
 2962SOL    HW226029   0.093   4.887   0.876  2.5953 -2.6647 -0.4992
 2963SOL     OW26030   3.949   1.989   7.215 -0.6490  0.1267 -0.1755
 2963SOL    HW126031   3.879   1.941   7.260  0.0868 -0.1755  0.6654
 2963SOL    HW226032   4.030   1.950   7.247 -0.0979 -0.4566 -2.1948
 2964SOL     OW26033   5.820   3.950   5.523 -0.1027 -0.2333 -0.0755
 2964SOL    HW126034   5.745   3.997   5.558 -1.2292 -1.8534 -0.1927
 2964SOL    HW226035   5.837   3.990   5.438 -0.6771  0.2972  0.0571
 2965SOL     OW26036   2.213   4.023   0.701  0.6016  0.1926  0.0169
 2965SOL    HW126037   2.285   3.982   0.748  1.6660  0.1761 -1.5375
 2965SOL    HW226038   2.252   4.099   0.658 -0.5245  0.7410 -0.0763
 2966SOL     OW26039   2.413   2.851   6.498  0.0035 -0.1523  0.1238
 2966SOL    HW126040   2.470   2.886   6.430  1.3006 -1.1679  0.6588
 2966SOL    HW226041   2.329   2.839   6.455  0.3130  0.8929 -0.8146
 2967SOL     OW26042   5.765   5.001   1.044 -0.2392 -0.4098  0.8033
 2967SOL    HW126043   5.807   4.919   1.018  0.3202  0.2526 -0.4604
 2967SOL    HW226044   5.827   5.041   1.105  0.1200 -0.3028  0.3756
 2968SOL     OW26045   2.838   1.163   1.384  0.1928 -0.3013  0.2232
 2968SOL    HW126046   2.804   1.089   1.434  0.5835  0.1139  1.1187
 2968SOL    HW226047   2.893   1.211   1.446 -0.4336  1.0119 -0.2063
 2969SOL     OW26048   0.327   3.608   5.720  0.2151 -0.4065  0.6935
 2969SOL    HW126049   0.399   3.668   5.742 -0.9320  0.9742  0.8374
 2969SOL    HW226050   0.255   3.636   5.776 -1.5248  0.5663 -1.8469
 2970SOL     OW26051   4.260   3.892   0.806 -0.0379 -0.0668  0.3485
 2970SOL    HW126052   4.229   3.931   0.887  0.6969 -0.8297  1.0118
 2970SOL    HW226053   4.337   3.944   0.782 -0.2998  0.2068  0.0897
 2971SOL     OW26054   3.538   6.410   6.325  0.1170  0.0300  0.4213
 2971SOL    HW126055   3.599   6.338   6.311 -1.9665 -1.6406 -0.5118
 2971SOL    HW226056   3.540   6.460   6.244 -1.3634 -1.3479 -0.5128
 2972SOL     OW26057   3.753   1.902   1.445  0.0725 -0.2814 -0.5412
 2972SOL    HW126058   3.674   1.915   1.496  1.8303  1.4099  2.0078
 2972SOL    HW226059   3.786   1.816   1.472  0.0517 -0.1842 -0.2070
 2973SOL     OW26060   0.905   0.263   0.842 -0.0528  0.3621  0.8689
 2973SOL    HW126061   0.973   0.257   0.909  0.9885  0.4876 -0.1565
 2973SOL    HW226062   0.937   0.328   0.780 -0.0660 -1.1261 -0.7774
 2974SOL     OW26063   6.100   5.630   0.396  0.5870  0.2982 -0.1949
 2974SOL    HW126064   6.195   5.627   0.380  0.2628 -2.0647 -2.2674
 2974SOL    HW226065   6.061   5.641   0.309 -1.0692 -0.5929  0.3964
 2975SOL     OW26066   5.313   2.329   6.740 -0.3174  0.7650 -0.2664
 2975SOL    HW126067   5.380   2.393   6.717 -1.0304  2.4808  2.0099
 2975SOL    HW226068   5.344   2.292   6.823  0.0310 -1.8936 -1.4767
 2976SOL     OW26069   3.408   3.322   6.866  0.0497 -0.1294 -0.5184
 2976SOL    HW126070   3.337   3.263   6.891  1.0520 -1.0169  0.3081
 2976SOL    HW226071   3.389   3.403   6.913  0.2545 -0.7859  0.7410
 2977SOL     OW26072   2.967   5.394   1.882 -0.0049 -0.9284 -0.5686
 2977SOL    HW126073   2.963   5.407   1.976  2.6816 -3.4841  0.0631
 2977SOL    HW226074   2.913   5.317   1.866  0.7571 -1.4305 -0.8155
 2978SOL     OW26075   4.292   5.140   2.103 -0.3211  0.0970  0.0643
 2978SOL    HW126076   4.210   5.171   2.141  0.3594  0.7426  1.0598
 2978SOL    HW226077   4.315   5.207   2.038 -0.2856  0.2253  0.2077
 2979SOL     OW26078   6.337   4.991   7.415  0.0340  0.4931  0.0325
 2979SOL    HW126079   6.389   5.034   7.484 -0.5917  0.4580  0.5337
 2979SOL    HW226080   6.260   5.047   7.405  1.2844  1.9293 -2.4619
 2980SOL     OW26081   3.255   0.397   6.854  0.0466  0.2548  0.0366
 2980SOL    HW126082   3.213   0.475   6.819  1.2580  0.7382 -0.3777
 2980SOL    HW226083   3.271   0.342   6.777  0.2468  0.1119  0.1803
 2981SOL     OW26084   4.182   1.262   0.567 -0.0757  0.0213  0.3927
 2981SOL    HW126085   4.127   1.283   0.643 -0.3803 -1.1480  0.5106
 2981SOL    HW226086   4.240   1.192   0.599  1.7581  1.4540  0.3855
 2982SOL     OW26087   1.567   3.384   6.764 -0.5686 -0.4091  0.1195
 2982SOL    HW126088   1.608   3.460   6.804 -1.3400  0.8826 -1.4215
 2982SOL    HW226089   1.475   3.408   6.754 -1.2628 -2.3419  1.3906
 2983SOL     OW26090   0.402   4.593   6.613 -0.0949 -0.2458  0.8403
 2983SOL    HW126091   0.483   4.627   6.574 -0.3617 -0.7201 -0.1457
 2983SOL    HW226092   0.389   4.647   6.692 -1.2713  2.9971 -1.3598
 2984SOL     OW26093   6.146   5.199   7.448  0.1056 -0.6836 -0.0673
 2984SOL    HW126094   6.075   5.262   7.455  1.3389  0.7287  0.2603
 2984SOL    HW226095   6.167   5.176   7.539 -0.3193 -1.5882 -0.1801
 2985SOL     OW26096   4.063   4.508   6.689 -0.4870  0.4416 -0.3649
 2985SOL    HW126097   4.093   4.434   6.740 -1.7929  0.2532  0.1835
 2985SOL    HW226098   4.139   4.565   6.681  0.4780 -0.8467 -0.6213
 2986SOL     OW26099   5.488   4.695   0.349 -0.6745  0.1711 -0.0054
 2986SOL    HW126100   5.442   4.625   0.396  0.4893 -1.1153 -0.7069
 2986SOL    HW226101   5.515   4.756   0.418 -0.5613 -0.7549  0.7891
 2987SOL     OW26102   2.670   0.041   0.795  0.3290 -0.4308  0.1155
 2987SOL    HW126103   2.666   0.018   0.702  2.2434 -1.3818  0.2236
 2987SOL    HW226104   2.701   0.131   0.796  0.5437 -0.4992 -0.1813
 2988SOL     OW26105   5.802   2.249   7.043 -0.3221 -0.5770 -0.1150
 2988SOL    HW126106   5.775   2.164   7.077 -0.2428  0.3333  2.4364
 2988SOL    HW226107   5.872   2.229   6.980 -1.2639 -2.4411 -0.6476
 2989SOL     OW26108   2.549   4.702   1.678 -0.1581  0.3757  0.9165
 2989SOL    HW126109   2.468   4.713   1.727 -0.3288  0.3235  0.6510
 2989SOL    HW226110   2.590   4.625   1.716 -0.9248 -0.4528  0.1283
 2990SOL     OW26111   0.115   3.503   7.159  0.3518  0.0061 -0.0742
 2990SOL    HW126112   0.086   3.412   7.172 -0.1109  0.2101  0.3671
 2990SOL    HW226113   0.034   3.551   7.145  0.6771  0.1619 -1.5779
 2991SOL     OW26114   4.986   5.041   1.862 -0.1286  0.5069 -0.6753
 2991SOL    HW126115   4.928   5.114   1.883 -0.2237  0.3498 -0.3817
 2991SOL    HW226116   4.971   4.978   1.933  0.1918  0.3437 -0.7519
 2992SOL     OW26117   2.080   0.878   0.959  0.4299  0.4167 -0.0947
 2992SOL    HW126118   2.156   0.907   0.908  2.0801  0.3424  2.1520
 2992SOL    HW226119   2.089   0.783   0.965  1.3430  0.5881  1.8416
 2993SOL     OW26120   2.981   2.591   1.377  0.0419 -0.3758  0.1372
 2993SOL    HW126121   3.039   2.519   1.354  1.3488  0.0921  1.7421
 2993SOL    HW226122   2.980   2.592   1.473 -2.9911 -0.6112  0.2011
 2994SOL     OW26123   5.465   0.020   0.677 -0.0031 -0.6845  0.1273
 2994SOL    HW126124   5.388   0.021   0.621 -1.0550 -2.3139  1.4261
 2994SOL    HW226125   5.430   0.021   0.766  1.3692 -2.5774  0.7742
 2995SOL     OW26126   5.476   6.174   6.355  0.4536 -0.1937 -0.1165
 2995SOL    HW126127   5.411   6.179   6.285 -0.0017 -1.5065  0.1760
 2995SOL    HW226128   5.424   6.164   6.435  0.9165  2.4376  0.6009
 2996SOL     OW26129   0.250   1.377   2.230 -0.0328  0.3302 -0.6002
 2996SOL    HW126130   0.208   1.419   2.304 -0.6864 -0.5972 -0.4239
 2996SOL    HW226131   0.341   1.404   2.235 -0.4697  1.8731 -0.6281
 2997SOL     OW26132   2.768   5.665   0.007 -0.0874  0.2128  0.3832
 2997SOL    HW126133   2.731   5.737  -0.044  0.4962 -0.0429 -0.4233
 2997SOL    HW226134   2.694   5.630   0.055 -0.5237  0.8913  0.2274
 2998SOL     OW26135   5.716   2.671   1.153 -0.8403 -0.1866  0.1438
 2998SOL    HW126136   5.749   2.584   1.177  0.2101 -0.1624 -1.0859
 2998SOL    HW226137   5.687   2.710   1.235  0.7429 -0.8526  1.0534
 2999SOL     OW26138   5.231   1.854   1.068 -0.7980 -0.3069  0.1605
 2999SOL    HW126139   5.193   1.771   1.038 -0.6905  0.2190 -1.5212
 2999SOL    HW226140   5.255   1.837   1.160 -0.8486 -2.0968 -0.1090
 3000SOL     OW26141   5.882   3.918   2.322  0.6118 -0.2740  0.1503
 3000SOL    HW126142   5.953   3.954   2.269  1.0891  0.0935  1.0090
 3000SOL    HW226143   5.918   3.837   2.359  0.7197  0.0853  0.8576
 3001SOL     OW26144   3.310   2.611   2.287  0.1926  0.1764  0.4886
 3001SOL    HW126145   3.281   2.580   2.372 -1.2849  0.6986  0.2086
 3001SOL    HW226146   3.258   2.691   2.272 -0.3763 -0.4799 -1.3496
 3002SOL     OW26147   6.251   0.703   0.291  0.2417 -0.2316 -0.2465
 3002SOL    HW126148   6.215   0.763   0.356  0.1550  1.3679 -1.6881
 3002SOL    HW226149   6.231   0.744   0.207  1.4396 -1.5902 -1.2544
 3003SOL     OW26150   0.468   3.526   6.224  0.1686 -0.0837 -0.3534
 3003SOL    HW126151   0.391   3.562   6.179  1.4324  2.8757 -0.3736
 3003SOL    HW226152   0.443   3.524   6.316 -0.8138 -1.7868 -0.6003
 3004SOL     OW26153   4.458   1.810   6.337  0.1428  0.0586  0.4903
 3004SOL    HW126154   4.380   1.774   6.379  0.1655  0.3756  0.8115
 3004SOL    HW226155   4.475   1.752   6.263 -0.0469 -0.3606  0.7752
 3005SOL     OW26156   1.151   3.444   0.577  0.0730  0.1605  0.0533
 3005SOL    HW126157   1.156   3.426   0.671 -0.4089  1.3559  0.3284
 3005SOL    HW226158   1.096   3.373   0.542  1.1110 -0.8913  0.4720
 3006SOL     OW26159   3.565   3.199   1.236  0.2874  0.1477  0.8415
 3006SOL    HW126160   3.497   3.211   1.170  0.3013 -1.3624  0.5059
 3006SOL    HW226161   3.603   3.113   1.215  1.5806  0.4965  1.6616
 3007SOL     OW26162   5.161   5.779   1.588 -0.4839  0.0786 -0.2175
 3007SOL    HW126163   5.216   5.701   1.585 -0.4424  0.1264 -2.1116
 3007SOL    HW226164   5.125   5.780   1.677 -0.3992 -2.0320 -0.1097
 3008SOL     OW26165   3.513   3.196   1.942 -0.1750  0.0967  0.7279
 3008SOL    HW126166   3.453   3.152   1.882 -1.2797  0.5865  1.4629
 3008SOL    HW226167   3.486   3.168   2.029  1.2174 -0.3485  1.0552
 3009SOL     OW26168   4.537   1.189   0.878  0.3842 -0.4678  0.3522
 3009SOL    HW126169   4.570   1.275   0.904 -0.3194 -0.1006  0.0608
 3009SOL    HW226170   4.584   1.169   0.797  0.6794 -0.4405  0.5143
 3010SOL     OW26171   0.730   3.848   7.270  0.2566 -0.0207 -0.0042
 3010SOL    HW126172   0.799   3.915   7.277  0.1802  0.0327  0.2171
 3010SOL    HW226173   0.659   3.892   7.223  0.8784 -0.4649 -1.4189
 3011SOL     OW26174   6.199   5.326   6.256  0.2164 -0.3930  0.2816
 3011SOL    HW126175   6.200   5.351   6.164  1.5382  0.4596  0.4855
 3011SOL    HW226176   6.120   5.367   6.292  1.8743  3.0479  0.4165
 3012SOL     OW26177   5.640   5.321   7.673  0.2698  0.2443 -0.7278
 3012SOL    HW126178   5.560   5.286   7.713  0.5234 -0.0549 -0.4776
 3012SOL    HW226179   5.667   5.392   7.731  0.0918  0.4644 -0.9089
 3013SOL     OW26180   4.303   3.869   1.856  0.8513 -0.1127  0.4761
 3013SOL    HW126181   4.338   3.780   1.859  0.4630 -0.3056 -0.4503
 3013SOL    HW226182   4.380   3.925   1.861  1.1352 -0.5047  0.5635
 3014SOL     OW26183   4.934   2.700   6.560  0.1872 -0.2499  0.1299
 3014SOL    HW126184   4.970   2.617   6.529  2.7219  0.2069  1.6176
 3014SOL    HW226185   4.906   2.682   6.650  1.0911  0.5633  0.5885
 3015SOL     OW26186   1.746   2.666   7.309 -0.0512  0.0120  0.3325
 3015SOL    HW126187   1.792   2.669   7.393 -0.5626  0.1984  0.6144
 3015SOL    HW226188   1.706   2.753   7.301  1.4657  0.6518 -0.9617
 3016SOL     OW26189   1.722   3.288   1.083 -0.6233  0.2159 -0.4356
 3016SOL    HW126190   1.770   3.212   1.114  0.8745  0.1836 -2.6165
 3016SOL    HW226191   1.763   3.363   1.127  0.0919  0.0098 -0.7341
 3017SOL     OW26192   1.992   6.307   6.312 -0.6065  0.0277  0.6076
 3017SOL    HW126193   1.937   6.230   6.328  0.2933 -0.5378  1.1052
 3017SOL    HW226194   2.076   6.284   6.352  0.2810  0.4785 -0.9087
 3018SOL     OW26195   4.882   2.129   6.493  0.1846  0.4034 -0.0043
 3018SOL    HW126196   4.905   2.202   6.551 -0.0010  0.2457  0.2677
 3018SOL    HW226197   4.959   2.072   6.494  1.0769  1.4990 -1.6632
 3019SOL     OW26198   0.491   5.780   7.135  0.7216  0.1776  0.8972
 3019SOL    HW126199   0.519   5.866   7.103  1.0849  0.3005  1.5205
 3019SOL    HW226200   0.494   5.788   7.231 -0.3515 -0.1690  0.9813
 3020SOL     OW26201   4.353   2.050   5.575  0.4271 -0.4346  0.2388
 3020SOL    HW126202   4.343   2.024   5.484  1.4879  0.5998 -0.1995
 3020SOL    HW226203   4.447   2.049   5.590  0.3634  0.8399  0.8736
 3021SOL     OW26204   0.395   5.632   6.940 -0.3660  0.3687  0.2770
 3021SOL    HW126205   0.429   5.690   7.008 -2.0088 -1.6073  2.9807
 3021SOL    HW226206   0.321   5.680   6.903  0.8109  1.6497 -0.4923
 3022SOL     OW26207   2.116   0.489   0.954  0.4500  0.2549  0.5222
 3022SOL    HW126208   2.072   0.455   1.032  1.3476  0.6899  1.2320
 3022SOL    HW226209   2.149   0.411   0.910  2.6460  0.1246  2.2250
 3023SOL     OW26210   2.632   0.595   0.409 -0.2856 -0.3960  0.0574
 3023SOL    HW126211   2.551   0.590   0.460 -0.3425  2.5764  0.4505
 3023SOL    HW226212   2.604   0.625   0.322  0.3094  0.2758  0.0815
 3024SOL     OW26213   1.444   5.987   6.231  0.1452 -0.2546 -0.4014
 3024SOL    HW126214   1.411   5.900   6.207  0.2914 -0.3559 -0.2418
 3024SOL    HW226215   1.503   6.011   6.160  1.0056 -0.7917  0.1011
 3025SOL     OW26216   0.604   6.158   0.085 -0.1525 -0.2256 -0.3246
 3025SOL    HW126217   0.682   6.201   0.049  0.3206  0.1111  1.0508
 3025SOL    HW226218   0.531   6.209   0.049  0.2043 -0.8140 -1.9763
 3026SOL     OW26219   1.421   4.790   5.468  0.0689  0.1793 -0.3874
 3026SOL    HW126220   1.385   4.839   5.542 -0.5406  0.7439 -1.0391
 3026SOL    HW226221   1.491   4.846   5.434  1.4970 -0.8265  0.7529
 3027SOL     OW26222   0.547   2.410   0.973  0.1785  0.8740  0.1952
 3027SOL    HW126223   0.576   2.326   0.938  2.4791  1.5997  0.1463
 3027SOL    HW226224   0.452   2.407   0.969  0.2486 -0.6417 -2.4205
 3028SOL     OW26225   3.723   2.988   1.194 -0.5492  0.3242 -0.0501
 3028SOL    HW126226   3.794   2.968   1.256  0.3400  0.4107 -1.0196
 3028SOL    HW226227   3.728   2.919   1.128 -1.9593 -0.1851  0.3320
 3029SOL     OW26228   6.443   4.706   6.502  0.3471  0.1239 -0.5777
 3029SOL    HW126229   6.388   4.746   6.435 -1.0325 -0.4600  0.1774
 3029SOL    HW226230   6.387   4.701   6.579  2.4991  2.7703  1.3444
 3030SOL     OW26231   0.347   0.510   6.109 -0.1554 -0.7133 -0.2224
 3030SOL    HW126232   0.387   0.578   6.164 -2.9215 -0.1124  1.2231
 3030SOL    HW226233   0.389   0.429   6.139  0.5131 -0.0622  0.6863
 3031SOL     OW26234   4.044   2.392   6.545  0.4560  0.3831 -0.9618
 3031SOL    HW126235   4.065   2.311   6.500  1.3896 -0.6901  1.2708
 3031SOL    HW226236   4.078   2.381   6.633 -2.3002  1.8831  0.4494
 3032SOL     OW26237   5.803   5.636   0.558  0.2171  0.2321  0.3876
 3032SOL    HW126238   5.773   5.688   0.632  1.8989  0.4529  0.9534
 3032SOL    HW226239   5.890   5.672   0.537  0.2620 -0.5889 -0.9383
 3033SOL     OW26240   5.831   4.962   0.336  0.4367  0.3347 -0.2214
 3033SOL    HW126241   5.785   4.986   0.416  0.2224 -0.1052 -0.2113
 3033SOL    HW226242   5.762   4.954   0.270  0.4017 -0.9905 -0.0543
 3034SOL     OW26243   5.185   5.246   0.643 -1.0179  0.3780 -0.4844
 3034SOL    HW126244   5.165   5.291   0.725 -1.0708 -0.2871 -0.1238
 3034SOL    HW226245   5.179   5.152   0.664 -0.5443  0.1897 -1.1203
 3035SOL     OW26246   3.109   5.193   7.502  0.1002  0.1877  0.3922
 3035SOL    HW126247   3.031   5.249   7.505 -1.2350 -1.5104 -0.9323
 3035SOL    HW226248   3.076   5.104   7.514  1.8078 -0.6078 -0.4445
 3036SOL     OW26249   4.861   5.399   0.194 -0.2179 -0.2000 -0.5523
 3036SOL    HW126250   4.829   5.370   0.279  2.9080 -0.2237  0.7410
 3036SOL    HW226251   4.884   5.491   0.206  0.0726 -0.1427 -1.4355
 3037SOL     OW26252   1.776   2.656   6.400 -0.1098 -0.3565  0.1701
 3037SOL    HW126253   1.765   2.601   6.322  0.7676  0.3159 -0.4339
 3037SOL    HW226254   1.844   2.612   6.451 -0.4708 -0.6300  0.4301
 3038SOL     OW26255   3.660   3.148   5.954 -0.3547  0.3349 -0.4566
 3038SOL    HW126256   3.740   3.098   5.944 -0.1855  0.3039  0.8624
 3038SOL    HW226257   3.597   3.105   5.895  0.2906 -0.3021 -0.6927
 3039SOL     OW26258   4.172   2.722   5.597 -0.0746 -0.4223  0.0125
 3039SOL    HW126259   4.227   2.699   5.672 -0.6915  2.2988  1.4289
 3039SOL    HW226260   4.229   2.775   5.541 -0.6316  0.8260  0.5653
 3040SOL     OW26261   0.913   4.953   1.538 -0.2592  0.3141 -0.7030
 3040SOL    HW126262   0.883   4.878   1.487 -3.1982  0.7815  0.1834
 3040SOL    HW226263   0.944   4.915   1.621 -1.4383  0.0313 -0.3803
 3041SOL     OW26264   4.031   3.420   1.314 -0.4403  0.2187  0.0816
 3041SOL    HW126265   4.079   3.365   1.252 -0.3101  0.6485 -0.2079
 3041SOL    HW226266   3.941   3.389   1.311  0.0235 -1.4813  1.5991
 3042SOL     OW26267   5.531   2.017   1.740  0.0449  0.1638 -0.5101
 3042SOL    HW126268   5.568   2.017   1.652  2.0052 -2.4705  0.1697
 3042SOL    HW226269   5.581   2.083   1.788  1.0162 -0.4300 -0.6788
 3043SOL     OW26270   4.733   4.072   0.419  0.0093  0.2242 -0.2789
 3043SOL    HW126271   4.823   4.063   0.387 -0.2282 -2.6052 -0.3685
 3043SOL    HW226272   4.738   4.140   0.486  2.1931  0.2035 -0.3499
 3044SOL     OW26273   0.045   0.594   1.064 -0.2521 -0.1477  0.5590
 3044SOL    HW126274   0.126   0.633   1.033  0.3440 -0.7088  1.3919
 3044SOL    HW226275  -0.017   0.609   0.992  0.7530 -0.2977 -0.3669
 3045SOL     OW26276   4.263   2.062   0.276  0.1914 -0.7089  0.5788
 3045SOL    HW126277   4.267   2.044   0.370  1.7527 -0.7107  0.5462
 3045SOL    HW226278   4.301   1.984   0.235  1.0993 -0.0142  0.0606
 3046SOL     OW26279   4.280   0.349   0.498 -0.0671 -0.0103  0.4769
 3046SOL    HW126280   4.319   0.269   0.462  0.3978 -0.1006  1.1693
 3046SOL    HW226281   4.310   0.419   0.440 -1.0142 -0.4106 -0.5256
 3047SOL     OW26282   2.549   0.927   6.968  0.1240 -0.5954 -0.2134
 3047SOL    HW126283   2.590   0.854   7.013 -2.7222 -0.8528  2.3071
 3047SOL    HW226284   2.589   1.005   7.007  1.2987 -0.7865 -1.0060
 3048SOL     OW26285   6.346   1.556   7.455  0.0664  0.6985  0.8346
 3048SOL    HW126286   6.352   1.496   7.529  2.7029  1.1075  1.0605
 3048SOL    HW226287   6.279   1.620   7.480  0.4589  0.4575  2.5815
 3049SOL     OW26288   1.297   1.283   0.997 -0.3247 -0.4103 -0.0146
 3049SOL    HW126289   1.252   1.360   1.033  1.3775  0.3752  0.5751
 3049SOL    HW226290   1.242   1.209   1.021 -2.3291  0.6248 -1.0925
 3050SOL     OW26291   5.554   2.769   6.775 -0.1970  0.1030  0.7115
 3050SOL    HW126292   5.543   2.861   6.750  0.6971  0.9432  3.1320
 3050SOL    HW226293   5.465   2.739   6.793 -0.3298  1.1574  1.9300
 3051SOL     OW26294   0.609   1.792   0.535 -0.3338  0.1457  0.0021
 3051SOL    HW126295   0.668   1.768   0.606  1.3800  1.1616 -0.9922
 3051SOL    HW226296   0.534   1.734   0.545 -0.1534  0.2600  2.6006
 3052SOL     OW26297   4.233   0.456   6.232  0.3270 -0.1471 -0.3498
 3052SOL    HW126298   4.273   0.381   6.278 -0.0990 -0.1443  0.0399
 3052SOL    HW226299   4.238   0.432   6.140  2.1828  0.3258 -0.4170
 3053SOL     OW26300   4.235   2.330   7.095 -0.0197 -0.6282 -0.2017
 3053SOL    HW126301   4.168   2.268   7.066  1.5190 -2.5982  0.2331
 3053SOL    HW226302   4.316   2.280   7.093  0.8670  0.4183  3.1730
 3054SOL     OW26303   1.211   0.935   5.902 -0.4910 -0.3921  0.1712
 3054SOL    HW126304   1.252   0.878   5.967  4.3539 -0.8879 -2.8882
 3054SOL    HW226305   1.275   1.005   5.887 -3.4545  2.3858 -0.8633
 3055SOL     OW26306   6.305   2.899   7.351 -0.2477  0.0369  0.3286
 3055SOL    HW126307   6.237   2.849   7.396 -2.6922  2.5291 -0.2907
 3055SOL    HW226308   6.326   2.970   7.413  0.0901  0.5951 -0.4137
 3056SOL     OW26309   3.201   1.663   7.514  0.2708  0.7150 -0.0490
 3056SOL    HW126310   3.195   1.737   7.454 -0.3440  0.6816 -0.0370
 3056SOL    HW226311   3.111   1.631   7.522  0.6992 -0.8507 -1.0603
 3057SOL     OW26312   0.785   3.011   6.040 -0.2803 -0.1336 -0.5996
 3057SOL    HW126313   0.760   2.985   5.951 -0.2815  1.2024 -1.0213
 3057SOL    HW226314   0.845   2.943   6.069  0.7788  0.0741 -2.1572
 3058SOL     OW26315   2.696   6.435   1.818 -0.4317 -0.3595  0.1199
 3058SOL    HW126316   2.788   6.442   1.793 -0.5037  1.0780  0.1777
 3058SOL    HW226317   2.695   6.367   1.886  0.5844 -0.3697  0.1471
 3059SOL     OW26318   5.748   2.751   0.733 -0.4810  0.2931  0.0105
 3059SOL    HW126319   5.691   2.766   0.657  1.4743 -1.2328 -1.9089
 3059SOL    HW226320   5.735   2.658   0.754  0.3851  0.2286  0.2945
 3060SOL     OW26321   0.711   0.291   0.358 -0.0502 -0.3541  0.1705
 3060SOL    HW126322   0.668   0.373   0.331  1.9420  0.8243  0.3857
 3060SOL    HW226323   0.641   0.241   0.401 -1.3188  1.2657  0.1110
 3061SOL     OW26324   2.975   1.660   1.303 -0.3609 -0.2572 -0.3346
 3061SOL    HW126325   3.040   1.652   1.234 -0.1121  0.7324 -0.2268
 3061SOL    HW226326   3.026   1.681   1.382 -0.7401 -0.1785 -0.1084
 3062SOL     OW26327   6.451   0.373   1.184 -0.8090 -0.2597  0.3633
 3062SOL    HW126328   6.469   0.465   1.164  0.7119 -0.3074  1.3599
 3062SOL    HW226329   6.448   0.331   1.098 -1.0798  0.6482 -0.0838
 3063SOL     OW26330   6.073   4.037   2.166  0.4294 -0.4645  0.2765
 3063SOL    HW126331   6.052   3.993   2.084  2.5341 -1.3465  0.1546
 3063SOL    HW226332   6.153   4.086   2.148  1.2273 -1.0915  1.9243
 3064SOL     OW26333   3.745   5.634   1.544 -0.3853  0.2659  0.0127
 3064SOL    HW126334   3.712   5.613   1.632  0.0082 -0.0113  0.0971
 3064SOL    HW226335   3.840   5.647   1.557 -0.1336 -0.9323 -0.5740
 3065SOL     OW26336   1.040   6.158   1.125  0.0757 -0.2038 -0.0993
 3065SOL    HW126337   1.027   6.162   1.030  0.2436 -1.0658 -0.1588
 3065SOL    HW226338   1.017   6.069   1.149 -2.0334  0.5639  0.9852
 3066SOL     OW26339   2.416   0.379   0.906  0.6458 -0.2965  1.0502
 3066SOL    HW126340   2.498   0.388   0.858  0.1980 -1.1280  0.0762
 3066SOL    HW226341   2.436   0.318   0.977  0.3842 -2.3484 -0.5252
 3067SOL     OW26342   0.472   3.341   0.157 -0.9597  0.1952 -0.1596
 3067SOL    HW126343   0.533   3.382   0.219 -2.1680 -1.6599  2.4523
 3067SOL    HW226344   0.386   3.376   0.181 -1.3759  0.0547 -1.3887
 3068SOL     OW26345   1.649   5.223   5.823 -0.4114 -0.2047  0.4967
 3068SOL    HW126346   1.677   5.211   5.732  1.4538  0.3871  0.9475
 3068SOL    HW226347   1.709   5.289   5.858 -1.6565  0.2236  1.9180
 3069SOL     OW26348   0.094   5.253   7.210 -0.2425 -0.0958  0.9323
 3069SOL    HW126349   0.111   5.277   7.301  0.2488  1.5819  0.4486
 3069SOL    HW226350   0.122   5.330   7.160 -0.2322 -1.0880 -0.6595
 3070SOL     OW26351   0.068   6.249   0.957  0.2667  0.1218 -0.4797
 3070SOL    HW126352   0.001   6.196   0.915  0.6847  0.2835 -1.3949
 3070SOL    HW226353   0.143   6.191   0.966 -0.4744 -0.5444  2.0419
 3071SOL     OW26354   5.060   6.435   1.100  0.7434 -0.0485  0.1798
 3071SOL    HW126355   5.100   6.429   1.187  1.7781  2.2871 -0.0693
 3071SOL    HW226356   5.120   6.387   1.043  1.1263  0.1211  0.4327
 3072SOL     OW26357   6.324   3.031   1.224 -0.3313  0.9719 -0.0108
 3072SOL    HW126358   6.354   3.096   1.288 -2.6660  1.0466  1.1245
 3072SOL    HW226359   6.313   3.080   1.143 -2.8303  2.3055  1.0272
 3073SOL     OW26360   0.640   3.735   5.689  0.4202  0.2311  0.1963
 3073SOL    HW126361   0.729   3.700   5.680 -0.2599 -1.3036 -0.9040
 3073SOL    HW226362   0.616   3.764   5.601 -0.6613 -0.6295  0.1911
 3074SOL     OW26363   0.968   1.564   6.948  0.6579  0.1540  0.0799
 3074SOL    HW126364   0.882   1.581   6.911  1.4897 -0.9993 -2.6567
 3074SOL    HW226365   0.961   1.476   6.986  0.5822  0.1485  0.0522
 3075SOL     OW26366   5.471   5.734   6.882  1.1791  0.4071  0.1082
 3075SOL    HW126367   5.395   5.741   6.823  0.9775  0.1296  0.3295
 3075SOL    HW226368   5.503   5.645   6.869  1.8024  0.7008 -0.3825
 3076SOL     OW26369   1.558   3.857   7.064 -0.3497  0.7024 -0.1796
 3076SOL    HW126370   1.516   3.780   7.028  0.4738  0.9630 -1.8023
 3076SOL    HW226371   1.610   3.824   7.138 -2.3503  0.2100  1.0793
 3077SOL     OW26372   0.826   1.292   0.914  0.6047 -0.0605 -0.0805
 3077SOL    HW126373   0.830   1.373   0.965 -1.0202  1.0370 -1.5796
 3077SOL    HW226374   0.788   1.228   0.975 -0.4997  0.9861  0.3940
 3078SOL     OW26375   5.535   1.568   6.466 -0.0655 -0.6818  0.0975
 3078SOL    HW126376   5.567   1.502   6.527  2.5011  0.5696  0.2283
 3078SOL    HW226377   5.533   1.649   6.517  2.0584  0.3749 -1.3481
 3079SOL     OW26378   2.940   5.542   1.652 -1.1156  0.1916 -0.6135
 3079SOL    HW126379   2.912   5.520   1.741 -1.0689  0.1091 -0.6194
 3079SOL    HW226380   2.970   5.459   1.615 -0.4148  0.3641 -0.4460
 3080SOL     OW26381   6.421   2.350   0.772 -0.4037 -0.0747  0.3442
 3080SOL    HW126382   6.364   2.396   0.834 -0.5425  2.9210 -1.7889
 3080SOL    HW226383   6.508   2.354   0.812 -0.7736  0.1260  1.1642
 3081SOL     OW26384   4.613   2.560   1.869 -0.1164 -0.5204  0.2413
 3081SOL    HW126385   4.580   2.470   1.869 -1.5380 -0.0983  2.6818
 3081SOL    HW226386   4.534   2.614   1.879  0.5811  1.1216 -2.2627
 3082SOL     OW26387   4.327   4.621   2.001  0.8536 -0.2141  0.1692
 3082SOL    HW126388   4.383   4.616   1.923 -1.8435  0.0217 -1.9276
 3082SOL    HW226389   4.338   4.711   2.033 -0.1656  0.6588 -1.7648
 3083SOL     OW26390   2.931   3.913   7.768 -0.2363  0.4053  0.3639
 3083SOL    HW126391   3.020   3.880   7.781 -0.6815 -0.6426  0.8365
 3083SOL    HW226392   2.883   3.884   7.845 -1.2783 -0.0226 -0.4262
 3084SOL     OW26393   4.736   6.090   5.525 -0.1464  0.3601 -0.4556
 3084SOL    HW126394   4.773   6.077   5.438  0.6517  0.0311 -0.0790
 3084SOL    HW226395   4.653   6.135   5.510  0.0786  0.4782 -1.3682
 3085SOL     OW26396   5.382   4.930   7.396  0.1362  0.9231  0.0894
 3085SOL    HW126397   5.374   5.022   7.424 -0.9530  0.9057 -0.1231
 3085SOL    HW226398   5.303   4.888   7.430 -0.3009  0.4786 -1.4262
 3086SOL     OW26399   1.955   0.894   7.591 -0.0113 -0.2308 -0.5326
 3086SOL    HW126400   1.921   0.968   7.540  1.7836  0.6429 -0.5240
 3086SOL    HW226401   1.881   0.833   7.594 -1.0439  0.8445 -1.8970
 3087SOL     OW26402   0.721   2.708   2.575 -0.3952  1.4775 -0.1637
 3087SOL    HW126403   0.631   2.698   2.606 -0.2818  2.0711  0.3512
 3087SOL    HW226404   0.758   2.779   2.627  1.3150 -0.6554  1.7176
 3088SOL     OW26405   2.110   6.463   7.543  0.4365  0.3086  0.2525
 3088SOL    HW126406   2.145   6.403   7.477  0.5510  0.7615 -0.1116
 3088SOL    HW226407   2.065   6.531   7.492 -1.6308 -0.6375  0.7203
 3089SOL     OW26408   6.059   5.670   5.585  0.3345  0.5180 -0.0517
 3089SOL    HW126409   5.966   5.682   5.604 -0.2869 -2.7186 -0.5245
 3089SOL    HW226410   6.090   5.757   5.559 -2.5495  1.6540  0.0172
 3090SOL     OW26411   2.372   4.505   5.965 -0.6052 -0.1131  0.0974
 3090SOL    HW126412   2.467   4.510   5.974 -0.6616  0.2308  0.5745
 3090SOL    HW226413   2.353   4.543   5.879 -0.5241  2.5582  1.1631
 3091SOL     OW26414   3.144   0.049   7.761 -0.2589 -0.0089 -0.4368
 3091SOL    HW126415   3.080   0.065   7.692  0.3456 -1.5165 -1.3939
 3091SOL    HW226416   3.206  -0.012   7.723  1.8188  1.4439  0.4304
 3092SOL     OW26417   0.432   4.316   6.651 -0.1425 -0.5514  0.4539
 3092SOL    HW126418   0.384   4.387   6.610 -0.9934 -1.8479 -0.8548
 3092SOL    HW226419   0.524   4.336   6.634 -0.4393 -0.7224 -1.6084
 3093SOL     OW26420   5.953   2.530   6.760 -0.2155 -0.3705 -0.6362
 3093SOL    HW126421   5.858   2.531   6.773 -0.0539 -0.2352  0.7187
 3093SOL    HW226422   5.965   2.541   6.666 -1.5487 -0.6757 -0.8556
 3094SOL     OW26423   0.676   1.376   6.934 -0.0456  0.3284 -0.1666
 3094SOL    HW126424   0.611   1.403   6.999  0.6221  0.5139  0.4517
 3094SOL    HW226425   0.756   1.361   6.986  0.3446 -0.0953 -0.8756
 3095SOL     OW26426   5.366   6.124   7.178 -0.4724 -0.6143  0.6042
 3095SOL    HW126427   5.298   6.112   7.112  0.1542  1.7186 -0.5861
 3095SOL    HW226428   5.318   6.144   7.258 -1.2300 -0.2581  0.0747
 3096SOL     OW26429   1.812   5.492   5.799 -0.9958  0.4578 -0.5820
 3096SOL    HW126430   1.845   5.435   5.730  1.4059 -0.0012  0.8208
 3096SOL    HW226431   1.888   5.509   5.854 -2.4083  2.2966  0.9356
 3097SOL     OW26432   3.010   5.064   7.111 -0.2676 -0.5387  0.0035
 3097SOL    HW126433   2.954   5.078   7.034  0.0961  1.8747  0.1071
 3097SOL    HW226434   2.960   5.099   7.184 -0.2670 -2.0855  0.7832
 3098SOL     OW26435   2.510   1.619   6.328  0.0183  0.2653 -0.1170
 3098SOL    HW126436   2.428   1.574   6.309  0.6303 -1.3638  0.8214
 3098SOL    HW226437   2.488   1.686   6.392 -0.5861 -0.1395  0.0984
 3099SOL     OW26438   4.428   5.161   0.912 -0.5174  0.1653 -0.4341
 3099SOL    HW126439   4.477   5.165   0.831  0.8154  2.3143  0.4014
 3099SOL    HW226440   4.424   5.068   0.933  1.0544 -0.2567 -1.8129
 3100SOL     OW26441   6.215   3.532   7.415  0.1210  0.2083 -0.2659
 3100SOL    HW126442   6.170   3.507   7.335  0.7615 -0.1815 -0.5092
 3100SOL    HW226443   6.239   3.449   7.457  1.0676  0.3991 -0.4047
 3101SOL     OW26444   5.810   2.560   7.526 -0.0071 -0.1950 -0.2557
 3101SOL    HW126445   5.801   2.654   7.543  1.3063 -0.0103 -0.5243
 3101SOL    HW226446   5.750   2.544   7.453  1.8098  1.0365 -2.1247
 3102SOL     OW26447   3.744   1.632   0.905  0.6083 -0.1199 -0.1237
 3102SOL    HW126448   3.658   1.654   0.940  1.0093 -0.2293  0.9805
 3102SOL    HW226449   3.749   1.537   0.910  0.2311 -0.2435 -1.6034
 3103SOL     OW26450   4.280   0.355   5.964 -0.0651  0.2704 -0.1630
 3103SOL    HW126451   4.270   0.260   5.959 -2.4219  0.3050  2.0171
 3103SOL    HW226452   4.264   0.385   5.875  1.3416 -1.3433 -1.0376
 3104SOL     OW26453   2.885   3.258   2.186 -0.1579 -0.0984 -0.4130
 3104SOL    HW126454   2.838   3.311   2.122  0.4559  0.6423 -0.2501
 3104SOL    HW226455   2.973   3.295   2.190 -0.1714 -0.1484  0.8371
 3105SOL     OW26456   3.042   2.746   7.341  0.2782  0.3902 -0.4809
 3105SOL    HW126457   3.109   2.697   7.293 -0.5167 -0.7289 -0.4971
 3105SOL    HW226458   3.064   2.732   7.434  0.4339  0.5521 -0.4937
 3106SOL     OW26459   3.523   2.250   2.668 -0.2328  0.6733 -0.1583
 3106SOL    HW126460   3.611   2.276   2.641 -0.6921  1.8751 -0.5843
 3106SOL    HW226461   3.494   2.190   2.599 -0.2865  1.4177 -0.7932
 3107SOL     OW26462   6.416   6.408   6.987 -0.6472 -0.4142 -0.4073
 3107SOL    HW126463   6.497   6.425   7.034 -0.8989 -0.4123  0.0319
 3107SOL    HW226464   6.358   6.481   7.012 -0.4438  0.1424 -1.5139
 3108SOL     OW26465   2.145   1.354   1.644  0.2978  0.2014 -0.1973
 3108SOL    HW126466   2.184   1.278   1.688  0.2304 -0.8644 -1.9148
 3108SOL    HW226467   2.152   1.424   1.709  0.6812 -1.1606  1.3126
 3109SOL     OW26468   2.197   2.763   5.741  0.5187 -0.4307 -0.6735
 3109SOL    HW126469   2.161   2.827   5.802 -2.3643 -0.0084 -2.6268
 3109SOL    HW226470   2.210   2.813   5.660  2.3298 -1.4278 -1.0625
 3110SOL     OW26471   5.380   1.803   0.851  0.3996 -0.4396  0.6949
 3110SOL    HW126472   5.342   1.860   0.784 -1.2148 -1.3662  0.7731
 3110SOL    HW226473   5.346   1.836   0.934  0.6251 -0.6358  0.8683
 3111SOL     OW26474   1.453   4.035   6.866  0.0561  0.2753 -0.0464
 3111SOL    HW126475   1.368   3.994   6.850  1.0726 -1.1991 -2.1093
 3111SOL    HW226476   1.501   3.971   6.918  0.6418  0.1092 -0.7745
 3112SOL     OW26477   1.755   6.265   7.121  0.3549  0.1332 -0.5695
 3112SOL    HW126478   1.694   6.226   7.184  0.1665 -0.6264 -1.2008
 3112SOL    HW226479   1.761   6.357   7.146  0.4448 -0.1976  0.6786
 3113SOL     OW26480   2.936   4.628   7.555  0.2823 -0.2278  0.1603
 3113SOL    HW126481   2.914   4.565   7.624  0.5208  0.8016  1.2022
 3113SOL    HW226482   2.865   4.620   7.491 -0.6320 -0.2838  1.1644
 3114SOL     OW26483   5.677   0.300   5.843 -0.3796  0.0169  0.0010
 3114SOL    HW126484   5.717   0.312   5.757  1.5743  2.9391  1.1380
 3114SOL    HW226485   5.732   0.352   5.902 -1.7097 -1.7471  3.0143
 3115SOL     OW26486   5.216   4.618   6.187  0.1080 -0.0236  0.4342
 3115SOL    HW126487   5.289   4.665   6.227 -0.4300  1.0284  0.2194
 3115SOL    HW226488   5.220   4.641   6.094 -0.9583  0.7128  0.5446
 3116SOL     OW26489   5.248   2.824   0.577  0.5374  0.1611  0.1631
 3116SOL    HW126490   5.226   2.798   0.667 -0.0414  0.7174  0.1911
 3116SOL    HW226491   5.217   2.914   0.571 -0.2321 -0.1577 -0.8683
 3117SOL     OW26492   2.245   4.645   6.843 -0.0957  0.1310  0.3094
 3117SOL    HW126493   2.193   4.613   6.916  1.6250 -3.9587 -0.0235
 3117SOL    HW226494   2.200   4.614   6.765  0.5816  0.3376 -0.1745
 3118SOL     OW26495   5.589   2.086   0.940  0.3805  0.9455 -0.2637
 3118SOL    HW126496   5.685   2.078   0.945  0.2055 -3.4697 -0.3941
 3118SOL    HW226497   5.560   2.075   1.031 -0.0641  1.3507 -0.3559
 3119SOL     OW26498   6.100   4.480   5.615 -1.0118 -0.4422  0.4301
 3119SOL    HW126499   6.036   4.419   5.578  0.1638 -0.8451 -1.0209
 3119SOL    HW226500   6.175   4.476   5.556 -0.5231  1.7446  0.8156
 3120SOL     OW26501   2.501   0.279   6.790 -0.5328  0.2032  0.1303
 3120SOL    HW126502   2.463   0.345   6.848 -1.9062  1.5276 -2.1417
 3120SOL    HW226503   2.583   0.318   6.759  0.0557 -0.3821  0.9044
 3121SOL     OW26504   4.467   6.115   1.461  0.2455  0.2182  0.1436
 3121SOL    HW126505   4.482   6.083   1.550  1.1406 -1.3127 -0.5281
 3121SOL    HW226506   4.396   6.178   1.471  0.6198  0.4158  2.0038
 3122SOL     OW26507   4.344   4.099   5.755 -0.0740  0.1491 -0.1057
 3122SOL    HW126508   4.284   4.163   5.716 -0.0183 -1.0863 -2.3980
 3122SOL    HW226509   4.430   4.123   5.720  0.1601 -0.3849  0.0886
 3123SOL     OW26510   0.229   0.354   2.195 -0.0212 -0.4491 -0.5927
 3123SOL    HW126511   0.317   0.380   2.222 -0.7265  0.5934  0.8670
 3123SOL    HW226512   0.196   0.430   2.146  0.3621 -1.3769 -2.3543
 3124SOL     OW26513   2.214   2.597   7.385 -0.1719  0.0118 -0.2365
 3124SOL    HW126514   2.285   2.584   7.447  2.0580  1.1035 -2.3559
 3124SOL    HW226515   2.216   2.519   7.330  0.4862  0.7132 -1.2499
 3125SOL     OW26516   1.980   2.328   6.490 -0.3973  0.0569 -0.1635
 3125SOL    HW126517   1.910   2.267   6.465  0.2710 -0.4915 -0.7398
 3125SOL    HW226518   1.992   2.383   6.412 -0.7354  0.6817  0.2209
 3126SOL     OW26519   2.233   5.779   7.340 -0.0141  0.4367  0.0425
 3126SOL    HW126520   2.325   5.752   7.345 -0.0354  0.0816 -1.0622
 3126SOL    HW226521   2.195   5.720   7.275 -1.1339  0.3113  0.7891
 3127SOL     OW26522   3.015   4.016   1.704  0.8005 -0.8292  0.3810
 3127SOL    HW126523   2.989   4.032   1.795  0.1483 -0.5625  0.1556
 3127SOL    HW226524   2.970   3.935   1.680 -0.3637 -0.0419 -0.2051
 3128SOL     OW26525   0.356   1.040   7.444 -0.3766  0.6566  0.4431
 3128SOL    HW126526   0.394   0.979   7.507 -2.3628 -0.0619  1.0049
 3128SOL    HW226527   0.266   1.052   7.473 -0.6643  2.1766 -0.9232
 3129SOL     OW26528   0.280   3.698   6.024  0.0644  0.0633 -1.0382
 3129SOL    HW126529   0.265   3.758   6.097 -0.1852  0.3023 -1.2844
 3129SOL    HW226530   0.193   3.685   5.986  0.3012  0.5043 -1.7387
 3130SOL     OW26531   1.121   6.184   0.566 -0.6092 -0.5373  0.3315
 3130SOL    HW126532   1.114   6.171   0.471 -2.2307  0.5601  0.2529
 3130SOL    HW226533   1.042   6.233   0.589  1.0323  1.5774  1.8444
 3131SOL     OW26534   5.694   6.416   7.732  0.0722  0.3235  0.1925
 3131SOL    HW126535   5.777   6.387   7.694  0.7367  1.0810  1.0208
 3131SOL    HW226536   5.720   6.473   7.805 -1.1778  0.4822  0.5283
 3132SOL     OW26537   1.429   5.274   0.701 -0.1215  0.6107 -0.1301
 3132SOL    HW126538   1.402   5.204   0.760 -0.8054  0.7895 -0.2210
 3132SOL    HW226539   1.352   5.289   0.644  0.5836  0.2971 -1.1966
 3133SOL     OW26540   0.444   1.270   1.593 -0.3964  0.0745  0.2761
 3133SOL    HW126541   0.375   1.227   1.542  1.7012  0.3430 -3.1245
 3133SOL    HW226542   0.477   1.201   1.650 -1.5322 -0.8693 -0.1447
 3134SOL     OW26543   3.859   0.054   1.605 -0.3360  0.5601  0.2577
 3134SOL    HW126544   3.867  -0.023   1.663  0.1441 -0.8824 -1.6351
 3134SOL    HW226545   3.923   0.116   1.641 -0.0572 -0.2746  1.2975
 3135SOL     OW26546   3.185   3.513   0.167 -0.5471 -0.3861 -0.6639
 3135SOL    HW126547   3.097   3.487   0.140 -0.4122  1.8518 -3.8062
 3135SOL    HW226548   3.241   3.442   0.134 -0.8777 -0.0644 -1.9762
 3136SOL     OW26549   1.121   3.053   1.203 -0.4988 -0.1309 -0.3018
 3136SOL    HW126550   1.187   3.053   1.273 -0.4239 -0.0279 -0.3737
 3136SOL    HW226551   1.137   2.972   1.156  2.5746  1.8868 -3.1767
 3137SOL     OW26552   4.869   0.018   0.299  0.5718 -0.7329  0.1948
 3137SOL    HW126553   4.905  -0.067   0.324  0.1280 -1.0472 -0.2356
 3137SOL    HW226554   4.945   0.072   0.280  0.8511 -1.0511  0.4049
 3138SOL     OW26555   2.883   5.063   6.359  0.1680  0.0398  0.2564
 3138SOL    HW126556   2.894   5.038   6.451 -0.5806 -0.0371  0.3258
 3138SOL    HW226557   2.952   5.128   6.344  0.5142 -0.2038  0.7724
 3139SOL     OW26558   6.273   4.922   7.024 -0.1014  0.3064  0.7457
 3139SOL    HW126559   6.207   4.869   7.068 -1.7678  2.5233  1.0872
 3139SOL    HW226560   6.260   5.010   7.059  0.7406  1.4916 -1.7361
 3140SOL     OW26561   3.503   5.984   1.212  0.7502  0.0720  0.1703
 3140SOL    HW126562   3.472   5.923   1.279  0.8844 -0.8216 -0.5591
 3140SOL    HW226563   3.499   6.070   1.254  1.6988 -0.5547  1.6487
 3141SOL     OW26564   2.097   3.011   0.202 -0.3705  0.0209 -0.4877
 3141SOL    HW126565   2.023   2.999   0.262 -0.3334  0.9543 -0.2351
 3141SOL    HW226566   2.118   3.104   0.208  0.3989 -0.1013 -1.0652
 3142SOL     OW26567   2.412   6.190   6.001 -0.3056  0.0482 -0.5617
 3142SOL    HW126568   2.484   6.188   6.064 -2.0070 -1.5225  1.4661
 3142SOL    HW226569   2.438   6.258   5.938  2.3953  0.3127  0.6762
 3143SOL     OW26570   5.920   1.318   1.026  0.0453 -0.0305 -0.1925
 3143SOL    HW126571   6.004   1.312   1.071 -0.1415  0.3473  0.2144
 3143SOL    HW226572   5.942   1.354   0.939  0.2595  0.4676  0.0613
 3144SOL     OW26573   3.857   1.943   6.612  0.2710  0.2388 -0.3652
 3144SOL    HW126574   3.905   1.872   6.655 -0.8739  0.3192  1.1086
 3144SOL    HW226575   3.847   1.914   6.521 -0.8562 -1.8604  0.3776
 3145SOL     OW26576   1.393   4.181   1.065 -0.2097 -0.2808 -0.3154
 3145SOL    HW126577   1.352   4.252   1.114 -0.3243  0.3170 -1.2550
 3145SOL    HW226578   1.483   4.177   1.099 -0.4900 -0.3471  0.4257
 3146SOL     OW26579   1.931   5.153   1.152 -0.9511 -0.7127  0.1007
 3146SOL    HW126580   1.874   5.124   1.222 -0.9694 -0.9907 -0.0264
 3146SOL    HW226581   1.989   5.217   1.193 -1.9330  0.2430  0.0265
 3147SOL     OW26582   1.489   6.279   1.397  0.1280 -0.1560 -0.2075
 3147SOL    HW126583   1.445   6.335   1.334  0.0531 -1.4405 -1.3476
 3147SOL    HW226584   1.418   6.230   1.439  0.2198  0.3193  0.5317
 3148SOL     OW26585   2.609   2.204   1.370  0.1884  0.2348  0.1653
 3148SOL    HW126586   2.659   2.259   1.310 -0.1096  0.0586 -0.2512
 3148SOL    HW226587   2.630   2.238   1.457  0.3605  0.7123 -0.0590
 3149SOL     OW26588   3.350   1.449   5.952 -0.2065 -0.5873 -0.1901
 3149SOL    HW126589   3.354   1.539   5.918  1.3727 -0.0531  1.2735
 3149SOL    HW226590   3.402   1.398   5.890  0.1742 -0.1977 -0.1971
 3150SOL     OW26591   1.826   1.977   1.166 -0.2603  0.7378 -0.1002
 3150SOL    HW126592   1.784   1.954   1.249  1.6608 -0.4289  0.5978
 3150SOL    HW226593   1.786   1.918   1.102  0.9782 -1.0882  0.7454
 3151SOL     OW26594   4.075   5.487   6.023  0.1482 -0.1542  0.4199
 3151SOL    HW126595   4.150   5.484   6.083 -0.3674 -0.0183  1.0750
 3151SOL    HW226596   4.110   5.454   5.940  0.9328 -0.1065  0.7196
 3152SOL     OW26597   0.095   1.335   0.192  0.0379  0.3292 -0.3859
 3152SOL    HW126598   0.158   1.316   0.261  0.9164 -0.3075 -1.3252
 3152SOL    HW226599   0.113   1.426   0.168  0.1959  0.3404 -0.2291
 3153SOL     OW26600   2.144   3.757   5.581  0.0057 -0.1406 -0.4002
 3153SOL    HW126601   2.075   3.756   5.514 -0.2514 -0.4055 -0.1325
 3153SOL    HW226602   2.199   3.831   5.557  0.1513 -0.4870 -1.1450
 3154SOL     OW26603   0.330   4.484   7.380 -0.0570  0.0811 -0.3727
 3154SOL    HW126604   0.253   4.432   7.359 -0.1413  0.7634 -1.8187
 3154SOL    HW226605   0.344   4.540   7.304  1.5160  0.4046  0.1108
 3155SOL     OW26606   5.498   0.968   1.139  0.3939 -0.0048  0.2102
 3155SOL    HW126607   5.508   1.045   1.194  0.8415 -0.1135  0.2819
 3155SOL    HW226608   5.526   0.995   1.052 -1.1716  0.4293 -0.1957
 3156SOL     OW26609   1.590   1.608   0.684 -0.2836 -0.3163  0.4648
 3156SOL    HW126610   1.626   1.626   0.597 -1.2673  0.1263  0.1297
 3156SOL    HW226611   1.665   1.615   0.743  0.0623  1.3079 -0.1110
 3157SOL     OW26612   2.200   5.513   1.150  0.0265 -0.8175  0.4673
 3157SOL    HW126613   2.282   5.470   1.127 -0.0008 -0.2436 -0.7916
 3157SOL    HW226614   2.199   5.592   1.097 -1.3022 -0.7707  0.5342
 3158SOL     OW26615   3.573   2.532   0.875 -0.2283  0.5973 -0.0664
 3158SOL    HW126616   3.496   2.520   0.930  0.6382 -1.6785  0.8121
 3158SOL    HW226617   3.621   2.449   0.883  2.3573  1.9380 -0.5041
 3159SOL     OW26618   0.733   1.140   6.660 -0.2820 -0.2672  0.3556
 3159SOL    HW126619   0.684   1.113   6.737  1.6304 -1.2877  1.2913
 3159SOL    HW226620   0.807   1.079   6.656  0.1710  0.3214 -1.7795
 3160SOL     OW26621   2.792   3.879   1.122  0.2576 -0.4001  0.1025
 3160SOL    HW126622   2.826   3.827   1.050 -2.4338 -0.7414 -1.0608
 3160SOL    HW226623   2.751   3.816   1.181 -1.4625  0.1690 -0.4076
 3161SOL     OW26624   5.903   5.027   1.394 -0.1438 -0.1304 -0.1111
 3161SOL    HW126625   5.827   5.085   1.391  0.9032  1.4923  2.1866
 3161SOL    HW226626   5.942   5.034   1.307 -1.3690  0.7327 -0.6235
 3162SOL     OW26627   2.984   5.561   0.209 -0.0311  0.0106 -0.1025
 3162SOL    HW126628   2.987   5.489   0.271 -0.0998  0.9678  1.0506
 3162SOL    HW226629   2.892   5.589   0.210  0.1395  0.5826  0.0315
 3163SOL     OW26630   0.726   5.853   1.842 -0.2636 -0.2499  0.1277
 3163SOL    HW126631   0.690   5.921   1.898  0.0577  1.0178 -1.1577
 3163SOL    HW226632   0.810   5.888   1.812 -0.1910 -1.1198 -0.7348
 3164SOL     OW26633   1.364   4.601   0.618 -0.6211  0.2298  0.2576
 3164SOL    HW126634   1.418   4.677   0.637 -1.5922  0.8110  0.7860
 3164SOL    HW226635   1.417   4.548   0.558 -0.8229  2.4381 -2.0508
 3165SOL     OW26636   0.710   4.997   1.256  0.1162 -0.3654  0.0723
 3165SOL    HW126637   0.761   4.926   1.294  0.7499  0.5825  1.0430
 3165SOL    HW226638   0.664   5.036   1.330 -0.9807 -0.3491 -0.5897
 3166SOL     OW26639   0.738   0.579   6.463  0.1656  0.1404  0.4956
 3166SOL    HW126640   0.832   0.585   6.481  0.3859 -2.3309  0.5241
 3166SOL    HW226641   0.716   0.489   6.485 -2.1793  0.5937  0.2032
 3167SOL     OW26642   0.858   6.422   2.102  0.3178 -0.0098 -0.1483
 3167SOL    HW126643   0.819   6.343   2.139 -2.3080  0.6097 -1.3598
 3167SOL    HW226644   0.841   6.415   2.008 -0.3420  2.1443 -0.2389
 3168SOL     OW26645   1.735   5.964   6.822  0.4935  0.3097 -0.0425
 3168SOL    HW126646   1.669   6.032   6.830  0.1017 -0.2660  2.3266
 3168SOL    HW226647   1.785   5.969   6.904  0.8595 -1.8098 -0.0788
 3169SOL     OW26648   5.773   2.171   6.622  0.3526  0.2688  0.0660
 3169SOL    HW126649   5.761   2.245   6.563 -0.6726  1.1277  1.2730
 3169SOL    HW226650   5.859   2.186   6.661 -0.6586  2.0723  1.8389
 3170SOL     OW26651   5.598   1.840   1.388  0.4107  0.6745  0.2763
 3170SOL    HW126652   5.541   1.844   1.311  1.2274  1.8217 -0.2979
 3170SOL    HW226653   5.556   1.775   1.445 -1.2462  1.1939 -0.2897
 3171SOL     OW26654   4.690   4.220   0.019  0.0520 -0.5897  0.2317
 3171SOL    HW126655   4.615   4.243   0.074  0.8197 -1.4085  1.6972
 3171SOL    HW226656   4.653   4.170  -0.053 -0.7891 -1.3506  1.1595
 3172SOL     OW26657   1.050   1.418   7.681  0.7616  0.1628  0.3982
 3172SOL    HW126658   1.005   1.355   7.626  1.2746  0.7903 -0.7713
 3172SOL    HW226659   0.998   1.421   7.762  1.7610 -3.1325  1.3231
 3173SOL     OW26660   3.115   0.182   1.330  0.1036  0.1308 -0.0415
 3173SOL    HW126661   3.177   0.145   1.393  0.1873 -1.7827 -1.1705
 3173SOL    HW226662   3.071   0.106   1.292 -2.2961  1.3924  0.0339
 3174SOL     OW26663   6.359   5.336   6.896  0.2184 -0.6861  0.1494
 3174SOL    HW126664   6.438   5.296   6.859  1.1595  0.2030  1.1454
 3174SOL    HW226665   6.289   5.276   6.873  1.0647 -1.1426 -1.3831
 3175SOL     OW26666   3.826   2.422   0.601 -0.3343  0.7362 -0.1148
 3175SOL    HW126667   3.905   2.418   0.547  1.2250  1.1269  2.0404
 3175SOL    HW226668   3.844   2.366   0.676 -1.3960  2.1587  1.2863
 3176SOL     OW26669   0.481   2.015   0.482 -0.2010  0.2561 -0.3001
 3176SOL    HW126670   0.510   1.945   0.423  1.5448 -0.1796  0.9905
 3176SOL    HW226671   0.437   1.970   0.554 -1.6737  0.7341 -0.8707
 3177SOL     OW26672   0.539   3.932   5.462 -0.2406  0.2434  0.5532
 3177SOL    HW126673   0.486   3.983   5.522  1.7751  0.9047  1.8730
 3177SOL    HW226674   0.476   3.888   5.405 -2.1549  0.9774  2.0191
 3178SOL     OW26675   2.976   0.145   0.668 -0.3512  0.0918 -0.2670
 3178SOL    HW126676   2.944   0.068   0.716 -0.7090 -0.0915 -0.7900
 3178SOL    HW226677   2.960   0.219   0.726 -0.2365 -0.2032  0.1382
 3179SOL     OW26678   2.435   3.476   6.285 -0.2210  0.5293  0.1247
 3179SOL    HW126679   2.432   3.522   6.201  0.8800 -1.1155 -0.8827
 3179SOL    HW226680   2.481   3.536   6.344  3.6856 -0.1920 -1.8762
 3180SOL     OW26681   2.321   2.072   1.188 -0.3846 -0.3421 -0.4004
 3180SOL    HW126682   2.378   2.133   1.141 -1.3589  0.9467  0.0341
 3180SOL    HW226683   2.380   2.005   1.221  0.5366 -0.3915 -2.0586
 3181SOL     OW26684   1.827   5.972   7.089  0.0463  0.7975 -0.3409
 3181SOL    HW126685   1.759   6.012   7.142 -0.7818  1.0146 -1.5256
 3181SOL    HW226686   1.820   5.878   7.107 -0.7761  0.7900 -0.6800
 3182SOL     OW26687   2.224   1.537   0.213 -0.4586  0.2871  0.2985
 3182SOL    HW126688   2.148   1.594   0.219 -1.2656 -0.8712  1.5609
 3182SOL    HW226689   2.273   1.570   0.137  0.0228  3.6852  1.9065
 3183SOL     OW26690   0.679   3.655   0.475 -0.1999  0.1241 -0.0938
 3183SOL    HW126691   0.720   3.596   0.539  0.0278  0.4254  0.0378
 3183SOL    HW226692   0.646   3.728   0.527 -1.3276 -0.3236 -0.1372
 3184SOL     OW26693   4.360   5.253   6.957 -0.0262  0.3340  0.0997
 3184SOL    HW126694   4.423   5.187   6.986 -1.0907 -0.3691  0.9119
 3184SOL    HW226695   4.409   5.307   6.895  0.7941 -1.4199 -0.8779
 3185SOL     OW26696   0.963   4.391   0.882 -0.2875  0.3678 -0.5858
 3185SOL    HW126697   0.949   4.297   0.875 -2.9785  0.7958 -3.0759
 3185SOL    HW226698   1.027   4.410   0.814  1.8201  0.1981  1.2401
 3186SOL     OW26699   5.083   3.109   7.342 -0.2557 -0.9892  0.4492
 3186SOL    HW126700   5.047   3.163   7.271  0.2654  0.4445  1.2366
 3186SOL    HW226701   5.178   3.121   7.335 -0.2401  0.0382  2.0279
 3187SOL     OW26702   3.800   3.960   6.103 -0.3536 -0.3096  0.8659
 3187SOL    HW126703   3.837   3.889   6.049 -0.8546  2.2137 -3.2136
 3187SOL    HW226704   3.711   3.931   6.123 -0.2265 -1.2742  0.1144
 3188SOL     OW26705   5.108   0.721   5.513 -0.0057 -0.3676  0.1519
 3188SOL    HW126706   5.019   0.736   5.480 -0.2293  0.4086  1.0641
 3188SOL    HW226707   5.097   0.709   5.607  0.6227 -2.5239  0.0027
 3189SOL     OW26708   5.501   0.720   1.494  0.0905  0.4390  0.4721
 3189SOL    HW126709   5.459   0.716   1.408 -0.3910  1.6802  0.6313
 3189SOL    HW226710   5.557   0.642   1.497  2.1861  1.7138 -2.0186
 3190SOL     OW26711   4.924   3.750   0.160  0.1645 -1.0206  0.3427
 3190SOL    HW126712   4.846   3.777   0.208  0.7198 -1.5603  1.5801
 3190SOL    HW226713   4.892   3.735   0.070 -0.6857  0.9679  0.2674
 3191SOL     OW26714   6.116   2.914   5.966 -0.1798  0.7828 -0.3457
 3191SOL    HW126715   6.082   2.825   5.962  2.0862 -0.3166  1.8912
 3191SOL    HW226716   6.045   2.965   6.005 -1.4451 -0.0273 -1.5072
 3192SOL     OW26717   1.322   0.922   6.189 -0.3235  0.5338 -0.3185
 3192SOL    HW126718   1.370   0.869   6.126 -1.7347  0.9224 -1.7897
 3192SOL    HW226719   1.389   0.971   6.236  0.7391  1.3292 -2.5186
 3193SOL     OW26720   4.866   5.086   0.951 -0.3459  0.2206 -0.3688
 3193SOL    HW126721   4.892   5.178   0.950  0.5575 -0.0111  0.6444
 3193SOL    HW226722   4.945   5.038   0.923 -0.0651 -0.3906  1.3492
 3194SOL     OW26723   3.886   0.134   0.345 -0.3621 -0.1404 -0.4290
 3194SOL    HW126724   3.879   0.129   0.250 -1.5900 -0.7488 -0.3339
 3194SOL    HW226725   3.795   0.133   0.376 -0.1050  2.6036  0.6747
 3195SOL     OW26726   0.179   5.617   1.493  0.3760  0.5318  0.0979
 3195SOL    HW126727   0.222   5.659   1.568  0.2010  0.2831  0.3376
 3195SOL    HW226728   0.248   5.607   1.428  1.0865 -1.3431  1.0667
 3196SOL     OW26729   4.023   3.267   7.477 -0.0762  0.6911  0.6246
 3196SOL    HW126730   3.929   3.253   7.491 -0.0490 -0.8510 -0.4702
 3196SOL    HW226731   4.051   3.319   7.553 -1.6160  0.3152  1.4975
 3197SOL     OW26732   0.838   2.481   6.969 -0.1761 -0.1040 -0.4877
 3197SOL    HW126733   0.877   2.479   6.882  0.8912 -1.3278 -0.0272
 3197SOL    HW226734   0.801   2.569   6.978  0.2364  0.2363 -1.9292
 3198SOL     OW26735   5.348   6.386   7.446 -0.3178 -0.3716 -0.0018
 3198SOL    HW126736   5.364   6.357   7.536 -1.2410 -1.3151 -0.1248
 3198SOL    HW226737   5.262   6.429   7.450 -0.0553  0.1895 -0.3032
 3199SOL     OW26738   5.649   5.458   7.180  0.1102 -0.1028 -0.4415
 3199SOL    HW126739   5.655   5.486   7.271 -2.5032  1.1965 -0.5880
 3199SOL    HW226740   5.611   5.371   7.184 -0.4213  0.1337 -0.2925
 3200SOL     OW26741   6.018   4.908   1.618  0.3841  0.1636 -0.3619
 3200SOL    HW126742   5.965   4.940   1.544  0.5522  1.0092 -0.1247
 3200SOL    HW226743   5.955   4.899   1.690  0.5047  0.9454 -0.1461
 3201SOL     OW26744   1.879   1.647   0.371 -0.2108  0.1487 -0.3460
 3201SOL    HW126745   1.913   1.560   0.393 -2.2945 -0.7878 -0.5607
 3201SOL    HW226746   1.819   1.668   0.442 -1.1158  0.5830 -1.2127
 3202SOL     OW26747   2.791   6.115   0.346 -0.5656 -0.5053 -0.3155
 3202SOL    HW126748   2.828   6.109   0.258 -0.0857  0.3642 -0.1796
 3202SOL    HW226749   2.820   6.200   0.379 -1.7004 -0.3182  0.2508
 3203SOL     OW26750   2.298   0.091   2.050 -0.5261 -0.4417 -0.0849
 3203SOL    HW126751   2.337   0.016   2.003 -0.0734 -0.0874 -0.2841
 3203SOL    HW226752   2.367   0.119   2.110 -0.9632 -0.6398  0.5173
 3204SOL     OW26753   3.717   5.883   1.109 -0.2855 -0.1394  0.2792
 3204SOL    HW126754   3.634   5.919   1.140 -0.7298 -0.1881 -0.7964
 3204SOL    HW226755   3.736   5.811   1.169 -1.2784 -0.4421  0.2558
 3205SOL     OW26756   5.416   1.188   6.031  0.2019  0.6864 -0.0704
 3205SOL    HW126757   5.489   1.172   5.971  0.6572 -0.6791  0.8024
 3205SOL    HW226758   5.338   1.173   5.978  0.5790  0.5138 -0.5878
 3206SOL     OW26759   3.712   1.863   2.172  0.0942  0.5737  0.2566
 3206SOL    HW126760   3.630   1.866   2.221  0.1714  3.7743  0.4493
 3206SOL    HW226761   3.776   1.907   2.229  2.1961 -2.3481  0.3697
 3207SOL     OW26762   0.570   1.171   7.359  0.0649 -0.1721  0.4393
 3207SOL    HW126763   0.501   1.128   7.410  0.7788 -1.5343  0.2994
 3207SOL    HW226764   0.565   1.262   7.386 -0.4852 -0.6001  1.9325
 3208SOL     OW26765   3.097   1.454   0.309  0.0455 -0.5891 -0.1663
 3208SOL    HW126766   3.020   1.501   0.341  1.0802 -0.2343  1.9743
 3208SOL    HW226767   3.064   1.366   0.290 -1.1704 -0.0527 -0.6761
 3209SOL     OW26768   0.303   0.596   6.857  0.1087  0.0687  0.0839
 3209SOL    HW126769   0.224   0.542   6.850  0.4839 -0.6551  1.1273
 3209SOL    HW226770   0.354   0.554   6.926  1.6101  0.2686 -0.8531
 3210SOL     OW26771   4.515   2.983   0.225  0.1459 -0.1551  0.4365
 3210SOL    HW126772   4.472   3.066   0.245  2.5977  1.0351  1.1596
 3210SOL    HW226773   4.518   2.980   0.130 -1.5827 -0.3687  0.3479
 3211SOL     OW26774   5.064   3.489   0.145 -0.1678 -0.2264 -0.1496
 3211SOL    HW126775   5.014   3.492   0.226  0.4393  0.4798  0.2144
 3211SOL    HW226776   5.017   3.545   0.084 -0.9701 -1.2536 -0.5059
 3212SOL     OW26777   2.901   6.251   6.760  0.8489 -0.6884  0.1569
 3212SOL    HW126778   2.884   6.225   6.850 -0.8328  0.5178  0.2391
 3212SOL    HW226779   2.909   6.347   6.764  2.1147 -0.7303 -0.7924
 3213SOL     OW26780   0.417   0.832   1.577  0.1704  0.1179 -0.9103
 3213SOL    HW126781   0.336   0.880   1.592  0.8322  1.7146 -2.1214
 3213SOL    HW226782   0.452   0.815   1.664  0.4025  2.7602 -0.4261
 3214SOL     OW26783   3.578   1.748   6.233 -0.0219 -0.0313  0.1564
 3214SOL    HW126784   3.653   1.752   6.293 -0.1632 -1.3617  0.4560
 3214SOL    HW226785   3.504   1.780   6.285  0.2949  1.2003 -0.1130
 3215SOL     OW26786   3.740   3.905   2.034  0.1611  0.0899  0.0388
 3215SOL    HW126787   3.699   3.907   1.948  0.0733 -1.2358  0.0255
 3215SOL    HW226788   3.757   3.812   2.050  0.1669  0.3088  1.4475
 3216SOL     OW26789   5.227   2.376   0.903  0.7252 -0.4151  0.0125
 3216SOL    HW126790   5.151   2.379   0.845 -0.0489  1.4235  1.0389
 3216SOL    HW226791   5.223   2.290   0.944 -1.4644  0.0180  0.8349
 3217SOL     OW26792   3.536   2.336   6.224  0.1467  0.5480  0.2305
 3217SOL    HW126793   3.605   2.339   6.291  1.5002 -1.8677 -0.9398
 3217SOL    HW226794   3.456   2.357   6.272  1.0426 -1.0716  2.6293
 3218SOL     OW26795   6.175   1.752   7.760 -0.4089 -0.1507  0.0402
 3218SOL    HW126796   6.169   1.813   7.833  0.2190  1.4257 -1.1686
 3218SOL    HW226797   6.242   1.789   7.703 -0.6698 -1.4924 -1.2013
 3219SOL     OW26798   2.249   5.375   1.674 -0.5042  0.4140 -0.2005
 3219SOL    HW126799   2.238   5.333   1.588 -0.7465 -2.0723  0.9703
 3219SOL    HW226800   2.341   5.362   1.695 -0.5527  0.5827  0.1207
 3220SOL     OW26801   4.662   0.238   0.963 -0.0877 -0.2202  0.1950
 3220SOL    HW126802   4.610   0.274   0.890 -0.0359  2.0421  1.1727
 3220SOL    HW226803   4.730   0.303   0.978  2.0186 -2.2979  0.0962
 3221SOL     OW26804   4.563   2.423   7.770  0.1709 -0.3544 -0.2976
 3221SOL    HW126805   4.502   2.494   7.748  0.6289 -0.3468 -1.6402
 3221SOL    HW226806   4.512   2.364   7.825 -0.4037  0.7067  0.3371
 3222SOL     OW26807   2.999   5.300   0.426  0.1661 -0.1445  0.0055
 3222SOL    HW126808   2.954   5.228   0.471 -0.7545  0.3744 -0.0517
 3222SOL    HW226809   3.065   5.331   0.489  2.0297 -2.3517 -0.7262
 3223SOL     OW26810   4.018   2.095   2.464  0.7035 -0.5006 -0.4083
 3223SOL    HW126811   4.109   2.118   2.484  1.4054 -1.7512 -1.9852
 3223SOL    HW226812   4.004   2.130   2.376 -0.9972  1.3364  0.5162
 3224SOL     OW26813   0.321   3.332   2.110  0.3809  0.1095 -0.4811
 3224SOL    HW126814   0.325   3.425   2.086  1.7142  0.0791 -0.4547
 3224SOL    HW226815   0.263   3.292   2.045 -0.7503  1.0662 -0.0979
 3225SOL     OW26816   1.164   3.429   5.615 -0.4937  0.2423  0.5036
 3225SOL    HW126817   1.086   3.389   5.577  0.0486  0.1911 -0.5944
 3225SOL    HW226818   1.206   3.473   5.541  0.1263  0.9011  1.2341
 3226SOL     OW26819   5.489   1.433   0.420  0.2987  0.0663 -0.2117
 3226SOL    HW126820   5.447   1.414   0.336 -3.5965  2.2045  1.0155
 3226SOL    HW226821   5.530   1.519   0.407  1.5087 -0.5311 -0.4576
 3227SOL     OW26822   4.755   1.089   7.552  0.5878 -0.2803  0.4361
 3227SOL    HW126823   4.788   1.047   7.632  0.1087 -0.2303  0.6643
 3227SOL    HW226824   4.729   1.177   7.580  0.0413 -0.4008  0.3105
 3228SOL     OW26825   5.192   0.325   7.534 -0.0048  0.4361  0.0941
 3228SOL    HW126826   5.221   0.313   7.443 -0.5478  1.2155 -0.1967
 3228SOL    HW226827   5.268   0.301   7.587  0.5638  0.6770 -0.5954
 3229SOL     OW26828   2.541   2.368   6.063  0.1134  0.4903 -0.0116
 3229SOL    HW126829   2.572   2.354   5.973  1.1904  0.8733  0.2839
 3229SOL    HW226830   2.585   2.448   6.091 -1.1941  1.0779  0.4330
 3230SOL     OW26831   2.563   1.983   2.326 -1.1918  0.3296 -0.8093
 3230SOL    HW126832   2.627   2.025   2.384 -2.5417  1.5418 -0.1335
 3230SOL    HW226833   2.591   1.891   2.323  0.1761  0.6783  0.0038
 3231SOL     OW26834   3.399   2.628   6.758 -0.0787  0.4211 -0.3044
 3231SOL    HW126835   3.462   2.698   6.775 -0.7260  0.1816  4.3549
 3231SOL    HW226836   3.320   2.673   6.729 -0.2557  1.6731  1.9114
 3232SOL     OW26837   3.036   6.282   6.016  0.4632 -0.0795  0.3269
 3232SOL    HW126838   3.057   6.272   6.109 -0.1782 -0.3724  0.4479
 3232SOL    HW226839   3.108   6.334   5.981  1.0912 -0.5873  0.8313
 3233SOL     OW26840   1.293   4.008   7.252  0.3750 -0.0434  0.0626
 3233SOL    HW126841   1.326   4.038   7.336  0.6771  0.2126 -0.1460
 3233SOL    HW226842   1.361   3.949   7.218  0.4071  0.1129 -0.1508
 3234SOL     OW26843   1.637   3.715   0.294 -0.2695  0.3128  0.5271
 3234SOL    HW126844   1.608   3.799   0.331 -0.0333  0.6463 -0.0301
 3234SOL    HW226845   1.671   3.666   0.369  0.2847  1.0084  0.7446
 3235SOL     OW26846   1.904   1.867   7.370  0.5104 -0.2092  0.2863
 3235SOL    HW126847   1.936   1.945   7.325  2.2025 -0.9617  0.1358
 3235SOL    HW226848   1.902   1.892   7.462 -0.2326  0.4144  0.1173
 3236SOL     OW26849   0.957   1.519   5.800  0.3248  0.5355 -0.5476
 3236SOL    HW126850   0.895   1.447   5.787  0.1664  0.1972  1.7014
 3236SOL    HW226851   0.907   1.598   5.777 -0.4248  0.1372 -0.3096
 3237SOL     OW26852   5.457   3.760   0.344 -0.1895  0.0814 -0.1945
 3237SOL    HW126853   5.448   3.790   0.435  1.0391 -1.0134  0.3091
 3237SOL    HW226854   5.411   3.827   0.293  0.5739  1.6368  1.0680
 3238SOL     OW26855   1.997   5.828   0.121  0.2738 -0.0118 -0.1739
 3238SOL    HW126856   1.994   5.881   0.201 -0.7500  0.0700 -0.2531
 3238SOL    HW226857   1.918   5.775   0.124  1.1834 -1.4269 -0.1983
 3239SOL     OW26858   4.671   2.044   6.859 -0.0313  0.0452  0.4653
 3239SOL    HW126859   4.670   2.052   6.955 -2.3333  0.9677  0.4131
 3239SOL    HW226860   4.588   2.081   6.831 -0.5017 -2.4500 -1.7467
 3240SOL     OW26861   4.755   3.694   2.099 -0.2334  0.2211 -0.3223
 3240SOL    HW126862   4.714   3.610   2.120  0.4639  0.3398  1.6363
 3240SOL    HW226863   4.691   3.760   2.128  0.6367  0.3822  1.3457
 3241SOL     OW26864   5.520   4.070   5.692 -0.4921  0.1148 -0.0409
 3241SOL    HW126865   5.439   4.020   5.702  0.3689 -1.4390 -0.3518
 3241SOL    HW226866   5.579   4.033   5.757 -0.1850  1.6159  0.5689
 3242SOL     OW26867   4.600   0.690   0.925  0.2118 -0.1631  0.1199
 3242SOL    HW126868   4.646   0.633   0.986 -0.3043  1.7580  2.4669
 3242SOL    HW226869   4.661   0.763   0.910 -0.5079  0.4251  0.0240
 3243SOL     OW26870   1.479   2.160   6.717  0.0848  0.5026 -0.1312
 3243SOL    HW126871   1.403   2.184   6.771 -0.0381 -0.0507 -0.0562
 3243SOL    HW226872   1.498   2.070   6.741  0.5561  0.5281 -0.4053
 3244SOL     OW26873   1.041   0.424   6.210  0.0837  0.1112 -0.0004
 3244SOL    HW126874   1.117   0.419   6.268  0.2113 -0.3071 -0.1981
 3244SOL    HW226875   1.038   0.515   6.180  0.5164  0.1223 -0.0083
 3245SOL     OW26876   3.890   1.883   2.399  0.4627  0.7515  0.1880
 3245SOL    HW126877   3.947   1.810   2.425  1.6440  1.6131  0.0882
 3245SOL    HW226878   3.927   1.959   2.443 -1.8370  1.0484  1.7990
 3246SOL     OW26879   0.850   4.612   5.198 -0.3023 -0.0833 -0.2712
 3246SOL    HW126880   0.756   4.596   5.203 -0.4983  0.9630 -0.4586
 3246SOL    HW226881   0.890   4.528   5.220 -1.2689 -0.2515  0.9101
 3247SOL     OW26882   0.980   2.248   6.085  0.0033  0.7055  0.3507
 3247SOL    HW126883   0.989   2.292   6.000  0.4580  0.1113  0.0795
 3247SOL    HW226884   0.963   2.157   6.062 -1.4249  0.8077  0.9011
 3248SOL     OW26885   2.603   6.097   7.632  0.1367  0.4036  0.4438
 3248SOL    HW126886   2.548   6.088   7.554 -0.0457 -1.0386  0.7135
 3248SOL    HW226887   2.638   6.010   7.647 -0.0776  0.5769  2.1601
 3249SOL     OW26888   3.093   2.653   2.026 -0.0329 -0.0981  0.0264
 3249SOL    HW126889   3.123   2.628   2.114  1.1686 -1.4143 -0.7049
 3249SOL    HW226890   2.998   2.658   2.033  0.0043 -0.7758  1.2687
 3250SOL     OW26891   0.041   0.721   7.303 -0.2190 -0.3142  0.3388
 3250SOL    HW126892   0.038   0.789   7.371  1.4161  0.2658 -0.1279
 3250SOL    HW226893  -0.045   0.680   7.307 -1.0049  1.3035  1.1273
 3251SOL     OW26894   0.534   1.884   2.122  0.4531 -0.1223  0.1572
 3251SOL    HW126895   0.521   1.917   2.211  1.4005 -1.3558  0.7945
 3251SOL    HW226896   0.626   1.903   2.102  0.1993  0.3072 -0.6314
 3252SOL     OW26897   2.957   1.055   6.783 -0.7885 -0.4237  0.1232
 3252SOL    HW126898   2.985   1.071   6.693  1.5215 -0.0198  0.8679
 3252SOL    HW226899   2.869   1.018   6.774 -0.3419 -1.0357 -2.3160
 3253SOL     OW26900   6.081   5.920   1.964 -0.0653 -0.1823  0.2188
 3253SOL    HW126901   6.073   5.826   1.948  0.6731  0.1426 -2.5572
 3253SOL    HW226902   6.025   5.960   1.897  1.0497  1.3857  0.1737
 3254SOL     OW26903   2.849   5.239   7.301 -0.3769 -0.0444 -0.4368
 3254SOL    HW126904   2.929   5.262   7.254 -0.6713 -0.0935 -0.9666
 3254SOL    HW226905   2.809   5.323   7.323  0.6724  0.0492  1.3600
 3255SOL     OW26906   1.546   6.303   6.715  0.2459 -0.0866 -0.1277
 3255SOL    HW126907   1.507   6.386   6.745  0.3289 -0.0919 -0.0070
 3255SOL    HW226908   1.535   6.243   6.788 -0.9990 -0.5685 -0.6858
 3256SOL     OW26909   3.699   1.887   7.692 -0.0896  0.0017  0.2484
 3256SOL    HW126910   3.686   1.793   7.680  0.5640 -0.2080  1.0845
 3256SOL    HW226911   3.707   1.898   7.787  2.5963  0.5029  0.0545
 3257SOL     OW26912   6.036   0.176   0.328 -0.3900 -0.3729 -0.4020
 3257SOL    HW126913   6.043   0.195   0.235  2.1025  0.8715 -0.0634
 3257SOL    HW226914   6.035   0.262   0.370  2.5035 -0.8130  0.8175
 3258SOL     OW26915   0.262   0.713   5.951 -0.3566  0.1152 -0.2708
 3258SOL    HW126916   0.285   0.683   5.863 -0.0879 -0.8246  0.1049
 3258SOL    HW226917   0.252   0.633   6.002 -0.9642  0.6340  0.4488
 3259SOL     OW26918   3.366   4.521   7.340 -0.1044  0.0663  0.1767
 3259SOL    HW126919   3.288   4.466   7.341 -0.0724  0.0111 -0.2942
 3259SOL    HW226920   3.437   4.462   7.368 -0.0918 -0.1046 -0.2032
 3260SOL     OW26921   5.969   2.048   0.323 -0.2980  0.0909  0.0928
 3260SOL    HW126922   6.004   2.093   0.400 -0.8370 -0.1997  0.5158
 3260SOL    HW226923   5.946   2.119   0.262 -3.4209  0.6366  1.7057
 3261SOL     OW26924   3.181   1.772   1.432  0.3291  0.5172  0.0891
 3261SOL    HW126925   3.191   1.782   1.527 -0.7851  1.2224  0.1517
 3261SOL    HW226926   3.213   1.855   1.396 -2.1467  1.5718  0.1003
 3262SOL     OW26927   5.548   0.920   7.275  0.5092 -0.0153 -0.1810
 3262SOL    HW126928   5.537   0.986   7.343  0.7386 -0.4847  0.3219
 3262SOL    HW226929   5.619   0.954   7.220 -0.8623  1.2316 -1.2697
 3263SOL     OW26930   1.900   3.430   1.253 -0.0315 -0.3799  0.2949
 3263SOL    HW126931   1.992   3.421   1.228  0.4287  1.5540  1.0656
 3263SOL    HW226932   1.897   3.401   1.344 -0.6894 -2.6056 -0.3795
 3264SOL     OW26933   2.610   5.780   2.170 -0.2567 -0.5705  0.2677
 3264SOL    HW126934   2.619   5.861   2.121  0.3326 -1.0830 -0.5022
 3264SOL    HW226935   2.516   5.765   2.178 -0.4069  0.8309  1.5282
 3265SOL     OW26936   4.177   5.465   6.743  0.0366  0.4988  0.1211
 3265SOL    HW126937   4.119   5.399   6.705  0.2073 -0.3542  1.3151
 3265SOL    HW226938   4.189   5.528   6.672  0.4424 -1.0933 -1.2987
 3266SOL     OW26939   5.883   6.246   6.530 -0.1095 -0.4363 -0.2605
 3266SOL    HW126940   5.801   6.229   6.485  0.1465  1.7744 -1.7344
 3266SOL    HW226941   5.877   6.337   6.559  1.6856 -0.2984 -0.1670
 3267SOL     OW26942   1.856   0.525   6.608 -0.6092 -0.0654  0.5651
 3267SOL    HW126943   1.830   0.471   6.533 -1.0931 -0.8461  1.2762
 3267SOL    HW226944   1.790   0.594   6.611 -0.7537 -0.1949  0.4300
 3268SOL     OW26945   1.369   3.285   6.959  0.1319 -0.1641 -0.0596
 3268SOL    HW126946   1.345   3.214   6.899 -0.4743 -0.8699  0.9920
 3268SOL    HW226947   1.459   3.308   6.934  0.4063 -1.4288 -0.3006
 3269SOL     OW26948   0.779   3.110   1.348 -0.2193  0.0283 -0.5731
 3269SOL    HW126949   0.801   3.134   1.258  0.5929 -0.1629 -0.4301
 3269SOL    HW226950   0.821   3.025   1.361 -1.7193 -0.7462 -0.5455
 3270SOL     OW26951   4.146   6.438   6.424  0.1589 -0.0849 -0.3741
 3270SOL    HW126952   4.140   6.375   6.352 -2.2232  2.8260 -3.0188
 3270SOL    HW226953   4.238   6.464   6.426  0.6772 -1.7724 -0.9032
 3271SOL     OW26954   0.731   4.135   1.514 -0.5498  0.3357 -0.0833
 3271SOL    HW126955   0.742   4.225   1.484 -2.6481  0.1814 -1.5227
 3271SOL    HW226956   0.734   4.141   1.610 -0.0594  1.8233 -0.1688
 3272SOL     OW26957   4.609   5.731   0.722 -0.7967  0.1407 -0.0119
 3272SOL    HW126958   4.640   5.646   0.754 -0.7450 -0.5097 -1.6513
 3272SOL    HW226959   4.688   5.775   0.691 -0.7087  1.1724  1.6018
 3273SOL     OW26960   1.706   5.090   6.344  0.4041 -0.3164 -0.3191
 3273SOL    HW126961   1.790   5.066   6.305  1.2082 -0.8542  1.5845
 3273SOL    HW226962   1.666   5.006   6.369  0.7794  0.0181  1.5842
 3274SOL     OW26963   5.493   3.157   0.210 -0.4366  0.0398  0.7952
 3274SOL    HW126964   5.511   3.228   0.148  1.7244  0.1877  1.5029
 3274SOL    HW226965   5.574   3.106   0.211 -1.9162 -2.4810  0.3053
 3275SOL     OW26966   1.846   5.671   0.321 -0.0962 -0.2723 -0.0958
 3275SOL    HW126967   1.864   5.710   0.406  0.8550 -1.0016  0.0609
 3275SOL    HW226968   1.916   5.606   0.309 -0.8127 -0.9164 -0.9646
 3276SOL     OW26969   4.138   3.735   7.281  0.0515  0.0795 -0.3430
 3276SOL    HW126970   4.116   3.827   7.264  1.0599  0.6293  1.1221
 3276SOL    HW226971   4.064   3.686   7.245 -0.7165  1.4792 -0.7706
 3277SOL     OW26972   3.612   3.261   6.389 -0.0151  0.1174  0.1555
 3277SOL    HW126973   3.613   3.339   6.444  0.1687  0.1060  0.1679
 3277SOL    HW226974   3.640   3.293   6.303  0.8687 -0.0867  0.3599
 3278SOL     OW26975   1.969   0.415   6.871  0.4861  0.0991  0.3194
 3278SOL    HW126976   2.022   0.447   6.944  1.4375  1.1256 -0.7746
 3278SOL    HW226977   1.959   0.491   6.814 -0.6943 -0.5435 -0.3626
 3279SOL     OW26978   6.390   0.272   6.902 -0.0717  0.0386 -0.0074
 3279SOL    HW126979   6.298   0.299   6.907  0.2357  1.0070  0.5022
 3279SOL    HW226980   6.440   0.350   6.926  0.9473 -0.0356 -1.7347
 3280SOL     OW26981   5.354   1.070   1.415  0.2775 -0.2837  0.2960
 3280SOL    HW126982   5.449   1.085   1.416  0.3827 -0.8075  2.0594
 3280SOL    HW226983   5.317   1.146   1.460 -0.4757  1.3528 -2.7857
 3281SOL     OW26984   4.863   3.171   6.667 -0.0738  0.4381  0.4420
 3281SOL    HW126985   4.808   3.234   6.620 -0.4371  0.5417  1.0076
 3281SOL    HW226986   4.861   3.093   6.612  0.2980  0.8743 -0.2162
 3282SOL     OW26987   4.814   5.818   7.519 -0.2828 -0.4677  0.3048
 3282SOL    HW126988   4.808   5.827   7.614  3.2550 -1.5596  0.7865
 3282SOL    HW226989   4.800   5.724   7.503  3.1276 -1.1382  0.4028
 3283SOL     OW26990   1.508   1.035   7.726  0.7169  0.1192  0.1962
 3283SOL    HW126991   1.562   1.023   7.648 -1.5874  0.8676 -1.6392
 3283SOL    HW226992   1.531   1.122   7.759 -0.0067  0.8643 -1.1702
 3284SOL     OW26993   6.116   1.498   7.711 -0.0677 -0.1529 -0.0569
 3284SOL    HW126994   6.027   1.475   7.737 -0.0625 -0.6379 -0.4521
 3284SOL    HW226995   6.123   1.592   7.728 -1.6816  0.5845 -2.8080
 3285SOL     OW26996   0.564   5.303   6.109  0.0578 -0.3916 -0.0733
 3285SOL    HW126997   0.529   5.389   6.131  0.1175 -0.1718 -0.8185
 3285SOL    HW226998   0.614   5.277   6.187  0.6035  0.5495 -0.0865
 3286SOL     OW26999   0.240   3.162   1.417 -0.3741  0.2084 -0.2084
 3286SOL    HW127000   0.274   3.251   1.419 -0.5870  0.2816  1.1066
 3286SOL    HW227001   0.261   3.126   1.503 -2.3277 -0.2196  0.1426
 3287SOL     OW27002   4.191   4.614   6.921  0.4508 -0.0652 -0.1443
 3287SOL    HW127003   4.143   4.693   6.942 -2.3871 -1.6280 -0.2708
 3287SOL    HW227004   4.225   4.583   7.004  1.0764  0.9182 -0.0130
 3288SOL     OW27005   2.187   4.304   6.778  0.3221  1.3453 -0.1464
 3288SOL    HW127006   2.181   4.378   6.717  1.3318  1.7366  0.2164
 3288SOL    HW227007   2.278   4.276   6.773 -0.2907 -0.6587 -1.1630
 3289SOL     OW27008   0.908   3.838   0.243 -0.3239  0.2850 -0.1607
 3289SOL    HW127009   0.945   3.887   0.170  0.8882 -1.6432 -0.9259
 3289SOL    HW227010   0.931   3.889   0.321 -1.9423  2.5580 -1.0825
 3290SOL     OW27011   4.627   0.086   1.234  0.3082  0.7431  0.0069
 3290SOL    HW127012   4.684   0.161   1.224  0.6751  0.8728  2.5690
 3290SOL    HW227013   4.540   0.119   1.210  1.0361  0.8048 -2.9177
 3291SOL     OW27014   5.783   0.443   5.292  0.3570  0.2382 -0.1933
 3291SOL    HW127015   5.837   0.431   5.371 -0.9726 -0.4255  0.6465
 3291SOL    HW227016   5.845   0.436   5.220  1.2972 -1.3457  0.6984
 3292SOL     OW27017   3.462   6.220   1.345 -0.1518  0.5677 -0.4855
 3292SOL    HW127018   3.413   6.301   1.329  1.1156  1.8572  1.5968
 3292SOL    HW227019   3.433   6.192   1.432  1.3610  0.2931 -0.0445
 3293SOL     OW27020   3.684   4.630   1.327 -0.4068  0.6641  0.0326
 3293SOL    HW127021   3.733   4.702   1.368 -0.7714  0.4060  0.9616
 3293SOL    HW227022   3.628   4.673   1.262  0.3143  1.0725 -0.3331
 3294SOL     OW27023   6.315   3.022   6.291 -0.6134 -0.1769 -0.1130
 3294SOL    HW127024   6.309   2.927   6.290  0.4892 -0.2705  0.7950
 3294SOL    HW227025   6.264   3.049   6.368 -2.0229  0.0874 -1.0911
 3295SOL     OW27026   1.133   1.612   0.477 -0.2106  0.2871 -0.0754
 3295SOL    HW127027   1.210   1.595   0.531  0.1269  0.2554 -0.5597
 3295SOL    HW227028   1.109   1.702   0.498  0.0105  0.3260  0.0145
 3296SOL     OW27029   2.015   5.481   1.527 -0.6744 -0.1136  0.2498
 3296SOL    HW127030   2.035   5.574   1.529 -0.5847 -0.0161 -1.9441
 3296SOL    HW227031   1.961   5.466   1.604 -3.2271  2.4227 -0.8299
 3297SOL     OW27032   4.572   3.019   7.518  0.3235  0.3521 -0.1522
 3297SOL    HW127033   4.647   3.041   7.573  0.0402  0.2609  0.2736
 3297SOL    HW227034   4.497   3.021   7.577  0.3311 -2.2949  0.0833
 3298SOL     OW27035   1.688   3.480   0.060  0.6776  0.1326  0.0922
 3298SOL    HW127036   1.783   3.489   0.055  0.7077  0.1919  0.6472
 3298SOL    HW227037   1.662   3.445  -0.025  1.4885 -2.3538  0.7980
 3299SOL     OW27038   3.468   1.249   6.506 -0.4115 -0.1257  0.4610
 3299SOL    HW127039   3.496   1.211   6.422  0.2339 -0.1796  0.6965
 3299SOL    HW227040   3.413   1.182   6.546 -2.9646  0.8978 -1.0826
 3300SOL     OW27041   2.711   0.033   5.862  0.0918 -0.3598 -0.1325
 3300SOL    HW127042   2.731  -0.050   5.819 -0.5276 -0.6155  0.0580
 3300SOL    HW227043   2.621   0.023   5.894 -0.2994  0.6722 -0.8116
 3301SOL     OW27044   2.255   3.340   6.788  0.0067 -0.0553 -0.3699
 3301SOL    HW127045   2.242   3.308   6.877  1.2882  0.2268 -0.0692
 3301SOL    HW227046   2.169   3.329   6.746 -1.3974  2.3534  1.6569
 3302SOL     OW27047   1.719   5.299   6.507  0.0279 -0.6289 -0.2811
 3302SOL    HW127048   1.713   5.205   6.494 -1.0330 -0.2782 -2.9876
 3302SOL    HW227049   1.728   5.335   6.418  0.9487  1.7969  0.7053
 3303SOL     OW27050   4.349   0.325   6.548  0.2238 -0.0676 -0.0374
 3303SOL    HW127051   4.387   0.344   6.462 -1.4998 -2.4711 -1.4527
 3303SOL    HW227052   4.360   0.406   6.598  1.1315  1.4657 -2.5563
 3304SOL     OW27053   1.647   5.244   0.162 -0.2102  0.6323  0.6325
 3304SOL    HW127054   1.631   5.203   0.247  0.3866 -1.1302 -0.0530
 3304SOL    HW227055   1.663   5.337   0.182 -2.9035  0.8578  2.1259
 3305SOL     OW27056   0.645   5.629   1.279 -0.3296  0.4712  0.3846
 3305SOL    HW127057   0.720   5.572   1.294 -1.0841 -0.7432 -0.2810
 3305SOL    HW227058   0.658   5.665   1.192 -0.5111  0.2480  0.2625
 3306SOL     OW27059   4.015   3.849   1.796  0.3411 -0.3890 -0.0766
 3306SOL    HW127060   4.109   3.863   1.806  0.2122  0.9649 -0.6355
 3306SOL    HW227061   3.974   3.928   1.831 -0.5473 -0.4570 -0.9165
 3307SOL     OW27062   4.498   1.833   6.814 -0.1382  1.0727  0.9508
 3307SOL    HW127063   4.552   1.754   6.822 -1.1497  0.3299  0.7603
 3307SOL    HW227064   4.559   1.906   6.828  0.7315  0.2494  1.6094
 3308SOL     OW27065   1.091   1.286   1.603  0.3659 -0.2129  0.2782
 3308SOL    HW127066   1.049   1.274   1.688  1.1699 -0.1166  0.6910
 3308SOL    HW227067   1.128   1.375   1.607  1.2128 -0.5544  0.1884
 3309SOL     OW27068   3.941   0.965   5.455 -0.0507 -0.0588 -0.2532
 3309SOL    HW127069   3.994   0.900   5.408 -0.5884  0.2939 -1.4010
 3309SOL    HW227070   3.868   0.983   5.396 -0.0684  1.3710  0.1625
 3310SOL     OW27071   4.900   5.935   0.349 -0.3162  0.1895  0.0351
 3310SOL    HW127072   4.992   5.929   0.323  0.1829 -0.6590  1.8505
 3310SOL    HW227073   4.889   5.866   0.414 -1.5368  2.0119  1.8859
 3311SOL     OW27074   4.029   4.040   5.411  0.8065 -0.5198 -0.2491
 3311SOL    HW127075   3.976   3.999   5.342  1.6549 -1.5809 -0.2961
 3311SOL    HW227076   4.029   4.133   5.388  0.5974 -0.7732 -1.3706
 3312SOL     OW27077   5.299   4.651   0.654 -0.4592  0.1992 -0.4936
 3312SOL    HW127078   5.267   4.593   0.723 -0.4692 -0.7926 -1.3151
 3312SOL    HW227079   5.280   4.605   0.573 -0.0320  1.1441 -1.1525
 3313SOL     OW27080   5.167   5.872   0.299 -0.4576 -0.1927  0.0778
 3313SOL    HW127081   5.203   5.801   0.351 -1.4155 -0.9079 -0.2092
 3313SOL    HW227082   5.143   5.831   0.216  0.2885  0.7601 -0.6329
 3314SOL     OW27083   2.191   1.269   0.264  0.1988 -0.1968  0.3858
 3314SOL    HW127084   2.214   1.362   0.254 -0.2615 -0.0920  0.3045
 3314SOL    HW227085   2.188   1.235   0.175 -0.8154 -0.0026  0.3377
 3315SOL     OW27086   2.220   0.603   0.713  0.4001  0.9552 -0.7107
 3315SOL    HW127087   2.147   0.576   0.768 -0.5752 -0.3266 -2.5200
 3315SOL    HW227088   2.280   0.647   0.773 -0.9088  0.2767  1.2112
 3316SOL     OW27089   5.583   2.757   7.127 -0.3907  0.2534 -0.5182
 3316SOL    HW127090   5.626   2.838   7.100 -0.6450  0.4669 -0.2819
 3316SOL    HW227091   5.574   2.707   7.046  3.4108 -1.3083 -0.1497
 3317SOL     OW27092   6.357   2.527   0.981 -0.2374  0.2026 -0.6203
 3317SOL    HW127093   6.421   2.530   1.053 -0.4577  0.7883 -0.4397
 3317SOL    HW227094   6.292   2.593   1.005 -1.0548 -0.5767 -0.6652
 3318SOL     OW27095   5.721   0.153   0.997 -0.2888  0.1026  0.2507
 3318SOL    HW127096   5.639   0.203   0.994  0.3856  1.2528  0.2433
 3318SOL    HW227097   5.754   0.166   1.086  0.7265  1.1034 -0.2408
 3319SOL     OW27098   5.362   4.051   1.654 -0.3675  0.6829  0.0967
 3319SOL    HW127099   5.385   3.959   1.665 -0.3551  0.7174  0.3814
 3319SOL    HW227100   5.273   4.058   1.689 -0.1469  0.8935  0.6345
 3320SOL     OW27101   0.409   3.885   1.136 -0.0394  0.6381  0.2659
 3320SOL    HW127102   0.469   3.917   1.204  1.1833 -2.5455  0.8482
 3320SOL    HW227103   0.428   3.940   1.060  1.7656  1.4079  1.2062
 3321SOL     OW27104   1.505   3.765   2.219 -0.5662  0.0106  0.7104
 3321SOL    HW127105   1.571   3.697   2.206 -0.5625  0.4171 -2.0669
 3321SOL    HW227106   1.539   3.818   2.291  0.2000 -1.9772  1.8706
 3322SOL     OW27107   4.129   5.186   7.041  0.8038  0.5066 -0.3940
 3322SOL    HW127108   4.157   5.115   7.099 -1.4765 -1.5295 -1.6192
 3322SOL    HW227109   4.210   5.220   7.004  2.2135  0.8309  2.7101
 3323SOL     OW27110   0.863   5.814   5.907 -0.4013 -0.0613  0.4460
 3323SOL    HW127111   0.779   5.775   5.881 -0.3522  0.1515 -0.0429
 3323SOL    HW227112   0.922   5.739   5.916  0.1673 -0.0271 -2.2283
 3324SOL     OW27113   3.588   1.094   0.915 -0.1383  0.2172 -0.0452
 3324SOL    HW127114   3.526   1.087   0.988 -0.8320  0.0328 -0.6365
 3324SOL    HW227115   3.669   1.126   0.954 -0.9115  1.4353  0.5808
 3325SOL     OW27116   2.826   2.077   2.721  0.0356  0.2412  0.1564
 3325SOL    HW127117   2.812   1.999   2.774  0.0830  1.1474  1.5682
 3325SOL    HW227118   2.788   2.057   2.636  1.9892 -2.1373 -0.2709
 3326SOL     OW27119   3.486   5.559   5.335 -0.4985  0.4942 -0.4682
 3326SOL    HW127120   3.452   5.473   5.309 -2.0846  0.3940  1.7366
 3326SOL    HW227121   3.426   5.621   5.295 -0.2536  0.5318 -0.7837
 3327SOL     OW27122   5.340   1.656   6.228 -0.2511  0.0020  0.1751
 3327SOL    HW127123   5.326   1.659   6.323 -1.4625  0.9516 -0.0097
 3327SOL    HW227124   5.403   1.585   6.216  0.6379  0.4570  1.7687
 3328SOL     OW27125   2.557   4.079   0.721  0.2825 -0.4104  0.4556
 3328SOL    HW127126   2.495   4.114   0.657  1.8154  0.8515 -0.4085
 3328SOL    HW227127   2.630   4.141   0.720  0.9488 -1.0843  2.4720
 3329SOL     OW27128   0.627   3.871   0.639 -0.2141  0.1454  0.1872
 3329SOL    HW127129   0.673   3.929   0.699 -0.5316  0.1265  0.4521
 3329SOL    HW227130   0.612   3.791   0.689  0.3432 -0.2177 -0.2212
 3330SOL     OW27131   5.946   3.779   0.028 -0.3323 -0.1968 -0.9745
 3330SOL    HW127132   6.009   3.822  -0.030  2.7670  1.7920  3.2658
 3330SOL    HW227133   5.999   3.717   0.078 -2.4846 -0.8755  0.5608
 3331SOL     OW27134   2.818   4.877   1.721  0.1456 -0.0164  0.5574
 3331SOL    HW127135   2.813   4.788   1.758 -4.4697 -0.3936 -0.4044
 3331SOL    HW227136   2.809   4.864   1.626  3.3595  1.4042 -0.0662
 3332SOL     OW27137   3.059   0.222   1.832 -0.3480  0.2170 -0.6551
 3332SOL    HW127138   3.142   0.181   1.805 -0.9385 -2.4803  1.2910
 3332SOL    HW227139   3.084   0.287   1.897  0.2073 -1.5995  1.0141
 3333SOL     OW27140   2.152   5.671   1.761  0.1387 -0.2141  0.2459
 3333SOL    HW127141   2.102   5.590   1.746 -0.5453  0.3338 -0.4974
 3333SOL    HW227142   2.227   5.643   1.813  1.8806 -1.9872 -2.9385
 3334SOL     OW27143   5.988   3.800   0.477 -0.5224 -0.0622 -0.1880
 3334SOL    HW127144   6.021   3.857   0.546 -1.1873  0.0563  0.0438
 3334SOL    HW227145   5.913   3.848   0.441 -2.1271 -1.4631  1.0966
 3335SOL     OW27146   5.278   3.508   6.647  0.1050  0.1834  0.6124
 3335SOL    HW127147   5.204   3.568   6.651  1.1023  1.6665 -1.3610
 3335SOL    HW227148   5.355   3.562   6.667  0.8948 -0.7104  0.1128
 3336SOL     OW27149   1.959   1.366   0.742  0.2326  0.4971  0.9413
 3336SOL    HW127150   1.884   1.307   0.755  0.1755  0.3424 -0.0008
 3336SOL    HW227151   1.960   1.382   0.648  3.4651 -2.3564  0.2773
 3337SOL     OW27152   3.866   0.044   7.548  0.4879 -0.4987  0.3992
 3337SOL    HW127153   3.939   0.082   7.596  0.0199 -1.4939  1.9715
 3337SOL    HW227154   3.907  -0.001   7.474  1.1411  1.8409 -0.7707
 3338SOL     OW27155   0.033   3.654   0.459  0.4559  0.2311 -0.2066
 3338SOL    HW127156   0.059   3.621   0.373  0.7963 -1.0869  0.3702
 3338SOL    HW227157   0.100   3.621   0.519 -0.4055  0.1163  0.7350
 3339SOL     OW27158   5.743   6.368   0.905 -0.4109  0.4852  0.0832
 3339SOL    HW127159   5.661   6.327   0.934 -0.5599 -0.3234 -1.3939
 3339SOL    HW227160   5.731   6.461   0.927 -1.5801  0.3250  0.2238
 3340SOL     OW27161   1.829   5.467   1.312  0.7383  0.3289 -0.0509
 3340SOL    HW127162   1.817   5.511   1.397 -2.2982 -0.6441  0.1343
 3340SOL    HW227163   1.818   5.374   1.332  1.1035 -0.0168 -1.3806
 3341SOL     OW27164   4.548   3.332   1.767 -1.1519  0.0078  0.8950
 3341SOL    HW127165   4.630   3.381   1.771 -0.8711 -0.4660  0.9243
 3341SOL    HW227166   4.500   3.359   1.846 -0.1694 -1.2411  1.9528
 3342SOL     OW27167   0.385   4.153   6.060 -0.8537 -0.7802 -0.2437
 3342SOL    HW127168   0.460   4.126   6.114 -0.8357  1.3435  0.9136
 3342SOL    HW227169   0.370   4.079   6.001  1.6122 -1.6166  0.0521
 3343SOL     OW27170   0.897   3.187   1.107  0.0118  0.0332  0.0735
 3343SOL    HW127171   0.962   3.124   1.135 -0.8609 -0.4657  1.0345
 3343SOL    HW227172   0.935   3.272   1.128  0.4068 -0.2476  0.5049
 3344SOL     OW27173   0.668   4.357   5.376 -0.4208  0.4513 -0.1112
 3344SOL    HW127174   0.641   4.432   5.323  0.9512  1.5339  0.6765
 3344SOL    HW227175   0.762   4.350   5.362 -0.0116  0.7434  2.0866
 3345SOL     OW27176   3.726   5.788   6.421  0.1884  0.6501 -0.3524
 3345SOL    HW127177   3.661   5.803   6.352  0.5766 -0.3151 -0.9480
 3345SOL    HW227178   3.810   5.811   6.380  0.4408 -0.0776 -0.2617
 3346SOL     OW27179   1.988   1.260   1.274  0.0192 -0.4506  0.4483
 3346SOL    HW127180   1.973   1.231   1.184  2.1226 -0.7108  0.1325
 3346SOL    HW227181   2.001   1.178   1.323  0.0508 -0.2635  0.7531
 3347SOL     OW27182   1.896   0.182   5.540  0.6332  0.1031 -0.0714
 3347SOL    HW127183   1.841   0.260   5.542  2.0818  1.1803  1.6308
 3347SOL    HW227184   1.837   0.111   5.516 -1.2523  1.3482  0.6594
 3348SOL     OW27185   2.540   5.567   0.119  0.1513  0.9986  0.1153
 3348SOL    HW127186   2.540   5.648   0.169 -0.4662 -0.1068  1.9796
 3348SOL    HW227187   2.523   5.498   0.183  0.6524 -0.6260 -1.4071
 3349SOL     OW27188   3.422   2.812   6.979 -0.0152  0.2520  0.3831
 3349SOL    HW127189   3.499   2.810   6.922  0.2231 -0.7474  0.7271
 3349SOL    HW227190   3.458   2.830   7.066  0.0897 -2.1873  0.9045
 3350SOL     OW27191   1.918   2.161   0.763 -0.1246  0.3418  0.4453
 3350SOL    HW127192   1.940   2.231   0.701  0.1007  0.1228  0.2771
 3350SOL    HW227193   1.822   2.162   0.766 -0.5692 -2.6197 -3.4877
 3351SOL     OW27194   2.522   2.466   1.069  0.5881  0.0130 -0.5220
 3351SOL    HW127195   2.531   2.560   1.085 -0.0881 -0.1678  1.1213
 3351SOL    HW227196   2.594   2.426   1.117  0.2189 -0.3749 -0.2842
 3352SOL     OW27197   4.736   2.789   7.467  0.1489  0.2490 -0.0463
 3352SOL    HW127198   4.672   2.857   7.488  1.5214  0.8271  2.5982
 3352SOL    HW227199   4.821   2.830   7.482  1.0752 -1.4634 -0.3862
 3353SOL     OW27200   2.622   0.514   1.236 -0.1627  0.2027 -0.4655
 3353SOL    HW127201   2.689   0.567   1.280  0.9097  0.3549 -2.1872
 3353SOL    HW227202   2.662   0.490   1.153 -1.6228 -1.1796 -0.8032
 3354SOL     OW27203   1.345   2.040   1.864 -0.1738  0.1703  0.1322
 3354SOL    HW127204   1.347   1.961   1.809  1.5508 -1.1132  1.8555
 3354SOL    HW227205   1.253   2.049   1.890 -0.5557 -0.7799 -0.8045
 3355SOL     OW27206   5.388   4.290   5.583 -0.0607  0.1281  0.9827
 3355SOL    HW127207   5.300   4.253   5.577 -1.2149  2.3378  2.9663
 3355SOL    HW227208   5.423   4.257   5.666  1.3112 -1.2400 -0.0704
 3356SOL     OW27209   5.801   2.087   7.407  0.4795 -0.7024 -0.6012
 3356SOL    HW127210   5.893   2.073   7.429  0.5037 -1.4426 -1.1198
 3356SOL    HW227211   5.791   2.049   7.320  0.2378  1.5230 -1.6165
 3357SOL     OW27212   4.313   3.440   1.608  0.2736  0.0920  0.4982
 3357SOL    HW127213   4.394   3.447   1.658  0.3968 -0.7747  0.4389
 3357SOL    HW227214   4.337   3.469   1.520  0.3575  0.4528  0.6388
 3358SOL     OW27215   5.138   5.467   0.389 -0.3474 -1.1574  0.2532
 3358SOL    HW127216   5.097   5.381   0.393 -0.4036 -1.1383  0.1076
 3358SOL    HW227217   5.121   5.506   0.475 -2.0440 -0.5162 -0.3371
 3359SOL     OW27218   3.406   0.345   0.632 -0.0478 -0.4714  0.4092
 3359SOL    HW127219   3.372   0.394   0.557  0.7323  2.4796  1.7926
 3359SOL    HW227220   3.330   0.300   0.668 -0.7758 -0.5410 -1.1493
 3360SOL     OW27221   5.569   2.762   1.364  0.0277 -0.3198 -0.3653
 3360SOL    HW127222   5.506   2.690   1.360 -1.6188  1.0894 -1.1319
 3360SOL    HW227223   5.601   2.762   1.455 -1.7781 -0.5375  0.3087
 3361SOL     OW27224   3.120   6.042   6.470  0.3196  0.2072 -0.3405
 3361SOL    HW127225   3.185   6.110   6.486  1.3432 -0.4083 -1.7058
 3361SOL    HW227226   3.084   6.022   6.557  2.0290  0.4944  0.4794
 3362SOL     OW27227   4.991   4.421   0.774 -0.4499 -0.4318  0.0094
 3362SOL    HW127228   5.010   4.341   0.822 -2.6200 -0.0718  1.6231
 3362SOL    HW227229   4.967   4.391   0.686 -1.3458 -1.5853  0.6217
 3363SOL     OW27230   0.157   1.336   7.186  0.3208 -0.4446  0.5764
 3363SOL    HW127231   0.163   1.241   7.193 -0.4457 -0.6379 -0.9923
 3363SOL    HW227232   0.075   1.352   7.140  0.4454  0.9831  0.7945
 3364SOL     OW27233   4.985   4.155   1.432 -0.4911 -0.0286 -0.0123
 3364SOL    HW127234   4.943   4.241   1.437  1.2433  0.9638 -1.2143
 3364SOL    HW227235   4.947   4.114   1.354 -0.3663  0.2288 -0.2117
 3365SOL     OW27236   4.608   3.081   6.142  0.0163  0.3322  0.5358
 3365SOL    HW127237   4.605   3.015   6.072  1.9875  2.7977 -2.1429
 3365SOL    HW227238   4.610   3.165   6.095  1.4300  2.1652  3.5670
 3366SOL     OW27239   3.108   3.431   1.447 -0.4139 -0.1414 -0.1836
 3366SOL    HW127240   3.130   3.507   1.501 -1.6906  1.8574 -2.2940
 3366SOL    HW227241   3.015   3.416   1.462  0.1097 -2.3966  1.3921
 3367SOL     OW27242   2.970   4.121   0.213 -0.2078  0.1969 -0.0936
 3367SOL    HW127243   2.886   4.095   0.176 -0.4082  0.3613  0.2464
 3367SOL    HW227244   2.986   4.208   0.178 -0.4924  0.4336  0.3666
 3368SOL     OW27245   0.600   6.095   7.384  0.4331  0.1507  0.0290
 3368SOL    HW127246   0.536   6.024   7.381  0.5635  0.0480 -0.3755
 3368SOL    HW227247   0.684   6.052   7.401  0.8206 -0.0116 -2.0794
 3369SOL     OW27248   3.558   3.134   0.788 -0.2918 -0.6784 -0.5197
 3369SOL    HW127249   3.574   3.116   0.695 -2.3640 -1.1174 -0.8529
 3369SOL    HW227250   3.502   3.212   0.787  0.3659 -0.1790  0.4298
 3370SOL     OW27251   5.947   1.059   7.587  0.5626 -0.0998 -0.3077
 3370SOL    HW127252   5.992   1.060   7.502 -0.7908  1.5831 -1.0760
 3370SOL    HW227253   5.926   1.151   7.603 -0.7439 -0.5938  1.0160
 3371SOL     OW27254   6.090   2.763   6.855 -0.1238 -0.0634 -0.0286
 3371SOL    HW127255   6.025   2.695   6.839 -0.9213  0.2729  1.5277
 3371SOL    HW227256   6.121   2.746   6.944  1.7217 -0.0326 -0.6260
 3372SOL     OW27257   4.958   5.337   1.054  0.0189 -0.0447  0.0885
 3372SOL    HW127258   4.998   5.289   1.126 -0.7582 -2.1593 -0.7922
 3372SOL    HW227259   4.864   5.324   1.065 -0.1323 -0.1335 -1.1048
 3373SOL     OW27260   5.200   2.367   1.650 -0.3212  0.0018 -0.1495
 3373SOL    HW127261   5.276   2.336   1.699  0.3335 -0.1083 -1.1987
 3373SOL    HW227262   5.153   2.288   1.625 -0.8610  0.0757  0.6037
 3374SOL     OW27263   1.369   2.465   1.533  0.1140 -0.2307  0.2466
 3374SOL    HW127264   1.373   2.373   1.559 -0.0626 -0.0981  0.7644
 3374SOL    HW227265   1.449   2.480   1.483 -1.1152 -1.3681 -2.2093
 3375SOL     OW27266   4.730   0.797   7.652 -0.4352 -0.0169 -0.3477
 3375SOL    HW127267   4.822   0.815   7.667 -0.0686 -0.9363 -1.3323
 3375SOL    HW227268   4.706   0.854   7.579 -0.2440 -0.7855 -1.0351
 3376SOL     OW27269   0.983   5.387   6.453 -0.5164  0.6108  0.9154
 3376SOL    HW127270   0.950   5.360   6.367 -1.7765  1.9547  0.9374
 3376SOL    HW227271   0.930   5.464   6.476  0.4212  0.8290  2.4867
 3377SOL     OW27272   1.203   5.466   7.580 -0.0969  0.2368 -0.7208
 3377SOL    HW127273   1.166   5.548   7.613 -1.4601 -0.3137 -0.7805
 3377SOL    HW227274   1.247   5.427   7.656 -1.2805  0.0395 -0.1099
 3378SOL     OW27275   4.424   2.996   1.180  0.2356 -0.5690 -0.2048
 3378SOL    HW127276   4.356   3.063   1.191  1.5229  0.8141 -0.2868
 3378SOL    HW227277   4.436   2.959   1.268 -0.3766 -0.5736 -0.1209
 3379SOL     OW27278   4.255   3.013   5.714 -0.0824 -0.2237  0.2684
 3379SOL    HW127279   4.201   3.006   5.792 -0.6245  0.8480  0.0063
 3379SOL    HW227280   4.240   2.930   5.667 -2.2130  0.3835 -0.2293
 3380SOL     OW27281   4.627   2.719   0.743  0.2764  0.0372  0.0954
 3380SOL    HW127282   4.661   2.799   0.782  1.2365  0.3133 -1.2032
 3380SOL    HW227283   4.704   2.678   0.703 -0.6907  0.0604 -1.9217
 3381SOL     OW27284   4.276   1.284   6.800  0.1087 -0.1038  0.4532
 3381SOL    HW127285   4.206   1.219   6.789  0.0417  0.1527 -0.8924
 3381SOL    HW227286   4.231   1.362   6.833 -0.0787 -0.2557  0.5574
 3382SOL     OW27287   0.122   2.521   1.846 -0.8734  0.9874  0.5846
 3382SOL    HW127288   0.087   2.474   1.771  2.2898 -0.1686 -0.3153
 3382SOL    HW227289   0.113   2.460   1.919  2.0945 -0.7181 -0.3290
 3383SOL     OW27290   1.454   4.487   6.294  0.0914 -0.1612  0.0334
 3383SOL    HW127291   1.489   4.485   6.205 -0.3125 -0.9617 -0.1209
 3383SOL    HW227292   1.359   4.482   6.283  0.0805 -2.1319  0.5156
 3384SOL     OW27293   3.822   4.274   6.469  0.0615  0.1083  0.1979
 3384SOL    HW127294   3.809   4.369   6.480  1.9969  0.5591 -0.8635
 3384SOL    HW227295   3.899   4.255   6.522 -0.6497 -1.0259  0.8636
 3385SOL     OW27296   5.858   6.148   7.563 -0.4226  0.0077 -0.2752
 3385SOL    HW127297   5.889   6.235   7.540  1.2869 -0.6206 -0.4769
 3385SOL    HW227298   5.909   6.089   7.508 -1.6146 -1.1377 -0.2175
 3386SOL     OW27299   4.469   0.976   0.169  0.0912 -0.3656 -0.2122
 3386SOL    HW127300   4.380   0.984   0.134 -0.3698 -0.1039  0.9965
 3386SOL    HW227301   4.514   1.056   0.140 -0.4573  0.1258  0.2884
 3387SOL     OW27302   2.289   5.190   1.451 -0.0722 -0.1881 -0.0879
 3387SOL    HW127303   2.255   5.100   1.460  2.0720 -1.2612 -1.7409
 3387SOL    HW227304   2.230   5.232   1.388 -0.6749 -0.6781  0.1412
 3388SOL     OW27305   4.800   2.166   1.373  0.3022 -0.0740 -0.3754
 3388SOL    HW127306   4.808   2.104   1.446  0.6582  3.3192  2.7991
 3388SOL    HW227307   4.870   2.141   1.313  1.1722 -2.0108  1.3103
 3389SOL     OW27308   5.960   0.345   5.537 -0.5242  0.5019 -0.2946
 3389SOL    HW127309   5.878   0.316   5.578 -1.2308  0.6444 -1.5622
 3389SOL    HW227310   6.017   0.268   5.539 -1.2197 -0.0337 -0.7122
 3390SOL     OW27311   3.930   0.999   0.384 -0.3316 -0.2089 -0.2482
 3390SOL    HW127312   3.928   1.068   0.317  1.5222 -0.4727 -0.6228
 3390SOL    HW227313   3.899   1.042   0.464  3.5525  2.0586  0.3061
 3391SOL     OW27314   0.632   4.352   6.881  0.3379  0.2506  0.5115
 3391SOL    HW127315   0.541   4.379   6.885  0.3637  0.9919 -1.9471
 3391SOL    HW227316   0.630   4.261   6.853  0.3273  0.3345  0.2296
 3392SOL     OW27317   2.057   5.626   6.514 -0.7247  0.1597 -0.0702
 3392SOL    HW127318   2.018   5.562   6.454 -2.7858  0.3052  1.0046
 3392SOL    HW227319   1.988   5.642   6.579  0.2558  2.4000  0.5021
 3393SOL     OW27320   3.471   1.456   1.119 -0.3407 -0.2223 -0.5495
 3393SOL    HW127321   3.510   1.456   1.032  0.5632 -0.4609 -0.1594
 3393SOL    HW227322   3.458   1.363   1.139  0.8288 -0.2493  0.1560
 3394SOL     OW27323   5.144   4.568   1.131 -0.3762  0.4650  0.5410
 3394SOL    HW127324   5.053   4.553   1.105  0.3116 -1.1365 -1.1027
 3394SOL    HW227325   5.149   4.532   1.220 -1.3960  0.8403  0.7711
 3395SOL     OW27326   1.917   1.261   6.377 -0.4321 -0.6026 -0.1529
 3395SOL    HW127327   1.984   1.301   6.433  0.1616 -1.4192 -0.2547
 3395SOL    HW227328   1.848   1.326   6.372  0.2465  0.1617  0.1652
 3396SOL     OW27329   5.660   4.473   7.326  0.1449  0.5133  0.2666
 3396SOL    HW127330   5.618   4.540   7.379 -0.1913 -0.2117  0.9336
 3396SOL    HW227331   5.687   4.519   7.246  0.2295  1.5029  0.8561
 3397SOL     OW27332   0.418   3.679   0.067 -0.0313 -0.3981 -0.1275
 3397SOL    HW127333   0.488   3.676   0.132  0.6639  0.1588 -0.8315
 3397SOL    HW227334   0.433   3.761   0.019  0.1671 -1.3263 -1.7394
 3398SOL     OW27335   3.024   3.060   0.837 -0.2104 -0.2564 -0.3899
 3398SOL    HW127336   3.089   3.017   0.782 -0.5911 -1.5467  0.1492
 3398SOL    HW227337   2.972   2.989   0.874 -0.9149  0.6692  0.4600
 3399SOL     OW27338   6.353   3.808   0.620  0.2772  0.1094  0.7215
 3399SOL    HW127339   6.344   3.766   0.706 -0.5547 -0.5626  0.3169
 3399SOL    HW227340   6.376   3.737   0.561 -0.4160  0.3460  0.1571
 3400SOL     OW27341   3.031   6.383   0.852 -0.4476  0.5599  0.0759
 3400SOL    HW127342   3.051   6.292   0.834 -0.5820  0.7649 -1.1845
 3400SOL    HW227343   3.098   6.432   0.805 -1.3410  1.1472 -0.6148
 3401SOL     OW27344   3.087   5.872   1.039 -0.2693  0.1084 -0.6192
 3401SOL    HW127345   3.131   5.953   1.066  0.5477 -0.1463 -1.1652
 3401SOL    HW227346   3.000   5.879   1.077 -0.2321  1.2822 -0.7119
 3402SOL     OW27347   1.581   2.779   1.353  0.0573  0.5954  0.0557
 3402SOL    HW127348   1.498   2.795   1.398 -0.1291 -0.4420  0.1068
 3402SOL    HW227349   1.598   2.686   1.367  0.5317  0.4874 -1.1386
 3403SOL     OW27350   0.012   2.139   6.870 -0.3315  0.2450  0.0292
 3403SOL    HW127351   0.017   2.044   6.883  1.3184  0.4723  1.3446
 3403SOL    HW227352   0.008   2.176   6.958  5.1807  1.5798  0.0907
 3404SOL     OW27353   4.509   1.269   0.373 -0.2453 -0.2975  0.1543
 3404SOL    HW127354   4.526   1.325   0.297 -0.0388 -0.3839  0.1377
 3404SOL    HW227355   4.457   1.324   0.432 -3.8074 -1.4095 -1.6971
 3405SOL     OW27356   3.342   0.661   0.913  0.3808 -0.2025  0.0470
 3405SOL    HW127357   3.263   0.711   0.895  0.7643 -0.0552 -1.3518
 3405SOL    HW227358   3.396   0.718   0.967  0.0761  0.2026 -0.0777
 3406SOL     OW27359   4.379   4.113   2.218 -0.3804  0.0089 -0.5182
 3406SOL    HW127360   4.292   4.138   2.186 -0.5994  2.2383  1.5080
 3406SOL    HW227361   4.431   4.192   2.211  0.4089 -0.2463  1.6293
 3407SOL     OW27362   4.395   0.634   1.937  0.7839 -0.7695 -0.0523
 3407SOL    HW127363   4.442   0.601   2.014  1.1154 -1.7201 -0.6355
 3407SOL    HW227364   4.464   0.648   1.872  0.5373  0.2932 -0.1015
 3408SOL     OW27365   4.141   1.925   5.693  0.1509  0.0216 -0.4459
 3408SOL    HW127366   4.099   1.915   5.608 -1.8675 -1.2275  0.5995
 3408SOL    HW227367   4.233   1.937   5.674  0.1791 -2.8390 -2.7697
 3409SOL     OW27368   4.368   2.948   6.320  0.1522  0.3001  0.0088
 3409SOL    HW127369   4.343   2.999   6.397  0.3944 -0.0027  0.2909
 3409SOL    HW227370   4.366   3.010   6.248 -1.3147  0.3072  0.0368
 3410SOL     OW27371   6.117   2.047   2.203  0.1144  0.1869  0.4395
 3410SOL    HW127372   6.070   2.105   2.263 -0.9404 -0.5354  0.3378
 3410SOL    HW227373   6.208   2.077   2.207 -0.5041  2.3264 -0.1793
 3411SOL     OW27374   4.978   4.203   0.058  0.1971 -0.0481  0.2333
 3411SOL    HW127375   4.886   4.183   0.043  0.2939 -2.8037  2.5216
 3411SOL    HW227376   5.025   4.148  -0.005  0.3065 -0.1729  0.4221
 3412SOL     OW27377   2.834   2.519   6.336 -0.4633 -0.1836 -0.4414
 3412SOL    HW127378   2.823   2.584   6.406  0.9116  0.4463 -0.7824
 3412SOL    HW227379   2.923   2.533   6.304  0.0855 -2.6256 -0.1633
 3413SOL     OW27380   3.874   1.057   7.662  0.0600 -0.1559  0.4903
 3413SOL    HW127381   3.871   0.963   7.641  0.2298 -0.5382  2.0728
 3413SOL    HW227382   3.793   1.092   7.624  0.4290 -0.7567 -0.9074
 3414SOL     OW27383   0.457   4.671   2.036 -0.1912  0.0217 -0.4290
 3414SOL    HW127384   0.367   4.704   2.043  0.2798  1.3410 -0.3525
 3414SOL    HW227385   0.512   4.743   2.065  0.9706 -0.2797 -1.7337
 3415SOL     OW27386   1.602   2.575   5.989  0.4448 -0.0925  0.6385
 3415SOL    HW127387   1.634   2.513   6.055 -0.8118 -0.5734  0.8464
 3415SOL    HW227388   1.680   2.609   5.947  1.2101 -1.0767  1.2180
 3416SOL     OW27389   5.693   2.028   0.327  0.6946  0.0957 -0.1523
 3416SOL    HW127390   5.781   2.005   0.357  1.2854 -0.4662 -2.1713
 3416SOL    HW227391   5.694   2.124   0.322  0.5217  0.2247  1.6601
 3417SOL     OW27392   4.198   1.915   0.571  0.2272  0.2973 -0.0198
 3417SOL    HW127393   4.238   1.841   0.525  0.9812  0.4884  0.3179
 3417SOL    HW227394   4.105   1.907   0.552  0.4562  0.0128 -1.0609
 3418SOL     OW27395   3.401   3.283   1.470  0.3206  0.1825 -0.1074
 3418SOL    HW127396   3.320   3.295   1.419  1.4277  1.1675 -1.7417
 3418SOL    HW227397   3.469   3.271   1.404  1.5151 -0.7821  1.2371
 3419SOL     OW27398   1.036   5.130   1.358  0.0997 -0.5516 -0.0359
 3419SOL    HW127399   0.961   5.130   1.300 -1.0605 -1.4879  1.4032
 3419SOL    HW227400   1.007   5.082   1.436  1.8873 -0.1604  0.9341
 3420SOL     OW27401   6.383   6.339   5.879  0.7250  0.0327  0.0016
 3420SOL    HW127402   6.331   6.319   5.957 -0.2412  0.4681 -0.5112
 3420SOL    HW227403   6.471   6.309   5.900  0.5286  0.3464  1.3442
 3421SOL     OW27404   2.429   1.377   5.973 -0.1368  0.1953  0.5359
 3421SOL    HW127405   2.501   1.321   6.001 -1.8271 -2.7581 -0.5867
 3421SOL    HW227406   2.419   1.359   5.879 -1.8744  1.0423  0.5018
 3422SOL     OW27407   5.098   0.871   2.112  0.8794  0.1067  0.1537
 3422SOL    HW127408   5.156   0.837   2.180  0.0591 -0.7390  0.4532
 3422SOL    HW227409   5.139   0.844   2.030  1.1886 -0.0101  0.3429
 3423SOL     OW27410   1.306   5.055   0.825  0.7578 -0.1983  0.0381
 3423SOL    HW127411   1.237   5.052   0.891  1.0041 -1.1925  0.2596
 3423SOL    HW227412   1.269   5.008   0.750  1.0846 -0.4814  0.0530
 3424SOL     OW27413   4.047   1.303   7.330  0.3910 -0.0296 -0.0721
 3424SOL    HW127414   4.068   1.213   7.308 -0.0172 -0.0085 -0.5518
 3424SOL    HW227415   3.952   1.310   7.316  0.2045  0.1289  1.1663
 3425SOL     OW27416   0.429   2.859   0.416 -0.2857  0.2303  0.1551
 3425SOL    HW127417   0.407   2.931   0.474  0.1138  0.9291 -0.5321
 3425SOL    HW227418   0.431   2.782   0.472 -0.4949  0.7921  0.9454
 3426SOL     OW27419   0.556   5.289   7.731  0.2388  0.5643 -0.4666
 3426SOL    HW127420   0.551   5.349   7.657  1.1270 -0.7433 -1.6347
 3426SOL    HW227421   0.615   5.332   7.793 -0.0793  1.4200 -0.7392
 3427SOL     OW27422   0.045   5.140   6.780 -0.1870  0.3229 -0.4099
 3427SOL    HW127423   0.093   5.123   6.862  2.0972 -0.3818 -1.7927
 3427SOL    HW227424   0.023   5.053   6.747 -0.2291  0.5650 -1.0277
 3428SOL     OW27425   1.998   4.464   0.904 -0.3864 -0.1394 -0.3205
 3428SOL    HW127426   1.969   4.554   0.919 -0.9694 -0.6070  1.6370
 3428SOL    HW227427   1.943   4.411   0.962  1.9887 -1.4428  0.9004
 3429SOL     OW27428   0.049   0.995   7.455 -0.0378 -0.0807  0.1486
 3429SOL    HW127429  -0.019   0.949   7.504  1.5671 -0.0885  2.5246
 3429SOL    HW227430   0.006   1.073   7.421 -1.4725 -0.5924  0.7287
 3430SOL     OW27431   5.069   3.782   2.405 -0.4654 -0.2287  0.3887
 3430SOL    HW127432   5.123   3.833   2.464 -0.0703  1.4361 -1.3298
 3430SOL    HW227433   4.997   3.750   2.460  0.1802  0.7676  1.8689
 3431SOL     OW27434   3.062   3.268   0.304  0.1760 -0.2192  0.6038
 3431SOL    HW127435   3.015   3.267   0.220 -0.7411 -0.4831  1.1152
 3431SOL    HW227436   3.004   3.314   0.364  0.8902  0.0911  1.0746
 3432SOL     OW27437   4.276   2.615   1.193 -0.2178 -0.8750  0.7403
 3432SOL    HW127438   4.272   2.706   1.222 -0.3020 -0.9634  1.0036
 3432SOL    HW227439   4.364   2.605   1.158 -0.8539 -0.1128 -1.1990
 3433SOL     OW27440   5.524   5.075   6.036 -0.1637  0.0007  0.1450
 3433SOL    HW127441   5.486   4.990   6.014 -0.9795  0.7169 -1.3596
 3433SOL    HW227442   5.528   5.122   5.952  1.4361  0.9939  0.7263
 3434SOL     OW27443   3.377   4.210   0.284  0.6213  0.3300  0.0889
 3434SOL    HW127444   3.406   4.120   0.267 -0.7265  0.2103 -1.7828
 3434SOL    HW227445   3.370   4.250   0.197 -1.5425  1.3565  0.6696
 3435SOL     OW27446   4.203   2.676   6.567  0.3710 -0.1633  0.0694
 3435SOL    HW127447   4.237   2.587   6.568  0.2394 -0.2063  0.8248
 3435SOL    HW227448   4.255   2.724   6.631  0.3570  0.2762 -0.2382
 3436SOL     OW27449   1.010   3.767   1.253 -0.5353  0.1938 -0.1940
 3436SOL    HW127450   0.966   3.757   1.338  0.2128 -0.1095  0.1631
 3436SOL    HW227451   0.947   3.815   1.200 -0.9276  0.5830  0.6025
 3437SOL     OW27452   0.412   0.724   7.183 -0.0834  0.5760  0.1348
 3437SOL    HW127453   0.418   0.653   7.119  1.0387  1.1040 -0.3859
 3437SOL    HW227454   0.366   0.795   7.137 -0.6455  0.4113  0.4399
 3438SOL     OW27455   4.145   1.805   7.295 -0.0446  0.3378  0.2826
 3438SOL    HW127456   4.175   1.801   7.386  2.0010 -0.1981 -0.3536
 3438SOL    HW227457   4.128   1.714   7.271  1.4467  0.2088 -0.4386
 3439SOL     OW27458   4.511   0.058   2.389  0.3645  0.2787 -0.6097
 3439SOL    HW127459   4.426   0.021   2.368 -0.2873  0.8545  0.8540
 3439SOL    HW227460   4.496   0.152   2.395  1.5496  0.6262 -2.2584
 3440SOL     OW27461   3.047   0.844   7.497  0.0081 -0.4664 -0.4226
 3440SOL    HW127462   3.129   0.806   7.529 -0.1941  1.2561  2.5246
 3440SOL    HW227463   2.979   0.788   7.534 -0.2078 -0.9088 -1.4597
 3441SOL     OW27464   1.558   5.317   1.313  0.8693  0.1701 -0.8876
 3441SOL    HW127465   1.466   5.290   1.315  0.6422  0.8863  1.7613
 3441SOL    HW227466   1.574   5.338   1.221 -1.3163 -0.8756 -1.5907
 3442SOL     OW27467   1.990   4.933   6.724  0.0079 -0.1776  0.4338
 3442SOL    HW127468   1.897   4.954   6.729  0.0765  0.9553 -1.7147
 3442SOL    HW227469   2.027   4.967   6.805 -1.0973  1.6698  0.2261
 3443SOL     OW27470   1.673   4.200   5.849  0.9418 -0.3162 -0.0291
 3443SOL    HW127471   1.608   4.156   5.903  1.3284 -0.9106 -0.0383
 3443SOL    HW227472   1.733   4.241   5.912 -0.5680  2.0032  0.0064
 3444SOL     OW27473   5.768   5.096   6.212  0.0251  0.1574  0.0339
 3444SOL    HW127474   5.782   5.155   6.138  0.8882 -1.0209 -0.7703
 3444SOL    HW227475   5.692   5.044   6.186 -0.1843  0.2930  0.3608
 3445SOL     OW27476   2.384   4.883   6.749  0.5110  0.3881 -0.3959
 3445SOL    HW127477   2.358   4.799   6.786  1.8488 -0.4699 -1.3067
 3445SOL    HW227478   2.309   4.911   6.697  0.2786 -0.5638 -0.5896
 3446SOL     OW27479   1.616   6.327   0.897  0.1188 -0.0487  0.0816
 3446SOL    HW127480   1.700   6.368   0.879 -0.4815  0.8530 -0.8448
 3446SOL    HW227481   1.589   6.290   0.813 -1.3666  1.5613 -0.2228
 3447SOL     OW27482   3.231   5.993   1.375  0.4351 -0.1486  0.3070
 3447SOL    HW127483   3.270   6.039   1.449 -0.1678  0.1678  0.4382
 3447SOL    HW227484   3.160   6.050   1.346 -0.3889 -1.0342  0.5218
 3448SOL     OW27485   4.031   4.535   1.408  0.1642  0.1868 -0.3419
 3448SOL    HW127486   3.954   4.479   1.418 -0.8934  1.6968  0.4321
 3448SOL    HW227487   4.022   4.601   1.477  1.7051  0.9141 -0.7801
 3449SOL     OW27488   1.954   2.758   7.088 -0.1936 -0.3996  0.0356
 3449SOL    HW127489   1.877   2.755   7.144 -0.0970  0.5888  0.2390
 3449SOL    HW227490   2.003   2.679   7.110 -0.3131 -0.1826  1.1251
 3450SOL     OW27491   4.445   3.321   2.412 -0.3720  0.0070  0.4370
 3450SOL    HW127492   4.466   3.275   2.330  1.0954  1.3349 -0.0070
 3450SOL    HW227493   4.356   3.353   2.400 -0.9491 -1.5763  0.2473
 3451SOL     OW27494   3.966   6.140   7.212  0.1849 -0.0239 -0.3956
 3451SOL    HW127495   4.000   6.088   7.139  1.3739  1.1895 -0.7553
 3451SOL    HW227496   3.890   6.185   7.176 -1.6270 -2.3442  0.2598
 3452SOL     OW27497   4.612   1.439   5.930  0.1877  0.6736 -0.8938
 3452SOL    HW127498   4.601   1.530   5.900 -0.4531  0.3813 -1.5902
 3452SOL    HW227499   4.528   1.418   5.971  0.6138  0.6490 -0.0244
 3453SOL     OW27500   0.655   5.021   6.906  0.5274  0.3723 -0.2750
 3453SOL    HW127501   0.708   5.096   6.879  0.3794  0.4660 -0.3010
 3453SOL    HW227502   0.623   4.984   6.824 -0.3368  0.9542 -0.2124
 3454SOL     OW27503   2.891   6.089   7.022 -0.4456  0.2782  0.3767
 3454SOL    HW127504   2.839   6.014   7.051 -1.2860  0.9189  0.5810
 3454SOL    HW227505   2.859   6.162   7.076 -1.4506  1.3267 -1.5383
 3455SOL     OW27506   3.252   6.104   1.117 -0.1621  0.2596 -0.2720
 3455SOL    HW127507   3.287   6.185   1.080 -1.4385  1.5517  1.1985
 3455SOL    HW227508   3.314   6.081   1.186 -0.5551  0.8407  0.2909
 3456SOL     OW27509   2.435   1.850   6.474  0.0279  0.2059  0.2135
 3456SOL    HW127510   2.363   1.906   6.446 -0.3340 -0.4197 -0.1454
 3456SOL    HW227511   2.444   1.866   6.568 -0.7066  0.1458  0.2978
 3457SOL     OW27512   3.504   2.056   0.640 -0.3474  0.0839  0.2133
 3457SOL    HW127513   3.560   2.096   0.573 -0.1527 -0.0793  0.2782
 3457SOL    HW227514   3.565   2.025   0.706 -0.4291 -1.1500 -0.2741
 3458SOL     OW27515   5.983   4.715   5.968 -0.9173 -0.1618  0.0752
 3458SOL    HW127516   5.997   4.776   6.041 -0.3538 -0.5090  0.2637
 3458SOL    HW227517   6.024   4.759   5.893  0.5808 -0.8251  0.4638
 3459SOL     OW27518   1.150   3.898   5.282 -0.5300 -0.3910 -0.8489
 3459SOL    HW127519   1.066   3.929   5.315 -0.2888 -0.8873  0.2769
 3459SOL    HW227520   1.159   3.810   5.319  0.4783 -0.3420 -0.9601
 3460SOL     OW27521   6.424   0.236   0.199  0.3947 -0.0802 -0.3016
 3460SOL    HW127522   6.328   0.238   0.197  0.4200  1.4000 -2.1286
 3460SOL    HW227523   6.449   0.323   0.231  1.1258 -0.2016 -0.5225
 3461SOL     OW27524   5.122   1.074   1.639 -0.9419 -0.5488 -0.0017
 3461SOL    HW127525   5.154   0.995   1.596  1.8541 -0.1221  1.0519
 3461SOL    HW227526   5.168   1.145   1.595  0.5597  0.0355  2.3052
 3462SOL     OW27527   1.180   3.878   6.933 -0.4200 -0.1379 -0.1180
 3462SOL    HW127528   1.120   3.951   6.918 -0.9756 -0.5267  0.1969
 3462SOL    HW227529   1.127   3.811   6.975  0.1769 -0.5852 -0.0622
 3463SOL     OW27530   6.348   4.044   0.733  0.1353  0.4712  0.3168
 3463SOL    HW127531   6.360   4.102   0.658 -0.9095  1.8393  1.1491
 3463SOL    HW227532   6.358   3.955   0.698  0.4620  1.1156 -1.2560
 3464SOL     OW27533   1.628   2.224   0.459  0.4207 -0.4879  0.0236
 3464SOL    HW127534   1.643   2.317   0.478 -0.8367 -0.2210 -0.1915
 3464SOL    HW227535   1.693   2.178   0.511  0.5343  0.4773  0.7677
 3465SOL     OW27536   5.877   2.920   2.275 -0.9488 -0.0933 -0.0463
 3465SOL    HW127537   5.806   2.944   2.335  0.0936  1.4790  0.6471
 3465SOL    HW227538   5.956   2.951   2.319  0.0116 -0.3912 -1.5073
 3466SOL     OW27539   0.135   5.805   7.226  0.0327  0.1900  0.0403
 3466SOL    HW127540   0.112   5.882   7.173  0.8364 -0.2980 -1.0428
 3466SOL    HW227541   0.230   5.811   7.237  0.1980 -1.0207 -0.6559
 3467SOL     OW27542   5.291   3.161   0.531  0.1533 -0.7315 -1.0434
 3467SOL    HW127543   5.270   3.190   0.442  0.1295 -0.5623 -0.9836
 3467SOL    HW227544   5.310   3.242   0.579 -1.4463 -0.6455 -0.4741
 3468SOL     OW27545   5.330   1.853   7.356  0.0892 -0.5039  0.3107
 3468SOL    HW127546   5.347   1.882   7.445 -1.0956 -0.1031  0.4178
 3468SOL    HW227547   5.346   1.759   7.358 -1.1860 -0.7341  1.2980
 3469SOL     OW27548   0.072   0.096   1.292  0.6203  0.2935  0.1754
 3469SOL    HW127549   0.058   0.190   1.298 -2.3540  0.0138 -0.8163
 3469SOL    HW227550   0.112   0.082   1.207 -1.3626  0.5353 -0.8572
 3470SOL     OW27551   1.931   3.657   0.993 -0.0493  0.3680 -0.5449
 3470SOL    HW127552   2.021   3.689   0.991 -0.5645  2.2534  1.8484
 3470SOL    HW227553   1.938   3.565   1.017  1.2240  0.6784  0.3254
 3471SOL     OW27554   4.161   1.519   6.930 -0.1958  0.7750 -0.7490
 3471SOL    HW127555   4.105   1.536   7.006  0.8566  3.1671 -0.4223
 3471SOL    HW227556   4.157   1.600   6.879  2.9259  1.0519 -0.7103
 3472SOL     OW27557   2.179   3.889   2.112 -0.0938 -0.1515 -0.0784
 3472SOL    HW127558   2.184   3.984   2.120 -1.0611 -0.1395  0.5218
 3472SOL    HW227559   2.266   3.858   2.137 -0.0353  0.5358  0.6048
 3473SOL     OW27560   5.813   5.590   6.210 -0.0201  0.1783 -0.3073
 3473SOL    HW127561   5.854   5.550   6.287  1.5498  0.3224 -1.0298
 3473SOL    HW227562   5.870   5.565   6.138 -1.1788  0.4908 -1.3522
 3474SOL     OW27563   4.242   4.069   7.412 -0.6157  0.2437 -0.1834
 3474SOL    HW127564   4.223   4.080   7.505  1.3800  1.1387  0.1650
 3474SOL    HW227565   4.254   3.975   7.400 -0.5495  0.1597  0.5407
 3475SOL     OW27566   4.076   5.604   7.214 -0.2298  0.0092 -0.0421
 3475SOL    HW127567   4.003   5.628   7.271 -0.2425  1.8752 -0.7517
 3475SOL    HW227568   4.035   5.567   7.136 -0.2451 -1.7559  0.7527
 3476SOL     OW27569   5.979   3.123   7.432  0.1063  0.1093  0.1821
 3476SOL    HW127570   5.914   3.056   7.411  0.0014  0.2909 -0.0715
 3476SOL    HW227571   6.037   3.080   7.496  1.0163 -0.7986 -1.2088
 3477SOL     OW27572   3.760   3.318   0.585 -0.6925 -0.2325  0.0429
 3477SOL    HW127573   3.727   3.330   0.674 -0.9908 -0.2972 -0.0572
 3477SOL    HW227574   3.698   3.257   0.544 -0.0898 -0.8676  0.0510
 3478SOL     OW27575   1.024   1.196   0.748  0.2958  0.0515  0.0378
 3478SOL    HW127576   1.059   1.162   0.830 -0.4973 -0.7546  0.0637
 3478SOL    HW227577   0.942   1.239   0.772  0.6160  0.8018 -0.1855
 3479SOL     OW27578   2.011   5.620   7.655 -0.1734  0.6310 -0.0246
 3479SOL    HW127579   2.044   5.562   7.722 -0.8073 -0.2758 -0.4772
 3479SOL    HW227580   1.932   5.577   7.621  0.7054  0.5082 -2.0908
 3480SOL     OW27581   4.997   2.870   0.096  0.2299  0.0517 -0.9163
 3480SOL    HW127582   4.913   2.896   0.134 -0.2739 -0.4207 -1.6921
 3480SOL    HW227583   5.058   2.938   0.125  0.3835 -1.3771  2.5905
 3481SOL     OW27584   0.290   2.139   6.361  0.0087 -0.2290  0.2227
 3481SOL    HW127585   0.343   2.102   6.431 -0.4006 -0.8063  0.2345
 3481SOL    HW227586   0.326   2.102   6.280  0.9898  1.0443  0.0350
 3482SOL     OW27587   3.386   5.204   0.643 -0.2193 -0.2784  0.2328
 3482SOL    HW127588   3.414   5.295   0.653  0.1133 -0.3332 -0.1909
 3482SOL    HW227589   3.466   5.155   0.625 -0.3341 -0.7277  0.8692
 3483SOL     OW27590   5.069   4.311   6.034 -0.1840  0.3059  0.5231
 3483SOL    HW127591   5.011   4.352   6.098 -0.6811  1.4697 -0.6135
 3483SOL    HW227592   5.065   4.369   5.958  0.8189 -0.7340 -0.3616
 3484SOL     OW27593   4.833   3.384   0.861 -0.1618  0.3324  0.9299
 3484SOL    HW127594   4.822   3.313   0.924  0.1292  2.4361  3.5659
 3484SOL    HW227595   4.752   3.385   0.810  0.2212 -2.3983  0.1425
 3485SOL     OW27596   2.719   4.040   2.668  0.2084 -0.0711  0.3776
 3485SOL    HW127597   2.751   4.122   2.633 -0.1960 -0.0875 -0.0364
 3485SOL    HW227598   2.626   4.037   2.644 -0.5543  0.7107  2.8842
 3486SOL     OW27599   4.211   1.876   7.022 -0.7067  0.5989 -0.2247
 3486SOL    HW127600   4.191   1.852   7.112 -3.5429  0.5541 -0.7685
 3486SOL    HW227601   4.267   1.805   6.990  0.4214  0.6705  1.4746
 3487SOL     OW27602   0.276   3.279   1.021 -0.4548  0.3890  0.3662
 3487SOL    HW127603   0.245   3.301   0.933  1.3057  2.6792  0.1950
 3487SOL    HW227604   0.367   3.254   1.009  0.0314  1.4291  1.5614
 3488SOL     OW27605   3.190   5.924   0.598  0.4708 -0.5293 -0.5790
 3488SOL    HW127606   3.247   5.908   0.673  0.5236  0.1837 -0.4602
 3488SOL    HW227607   3.155   5.837   0.575 -0.5978 -0.5987  1.1027
 3489SOL     OW27608   2.799   1.826   1.159  0.1235  0.4943  0.2315
 3489SOL    HW127609   2.852   1.770   1.217 -0.6086 -0.5778 -0.1009
 3489SOL    HW227610   2.797   1.778   1.076 -1.5761  0.3655  0.3158
 3490SOL     OW27611   0.809   2.152   6.464  0.2518 -0.0073 -0.1646
 3490SOL    HW127612   0.770   2.101   6.393  1.2421  1.7448 -2.0821
 3490SOL    HW227613   0.895   2.178   6.430  1.0426  0.3373  1.9701
 3491SOL     OW27614   1.643   3.011   0.975 -0.1318  0.3410  0.0864
 3491SOL    HW127615   1.693   3.092   0.963 -0.7225  0.4947 -1.5551
 3491SOL    HW227616   1.598   3.023   1.059 -0.3858  1.8191 -0.2359
 3492SOL     OW27617   3.246   3.325   6.514 -0.5892  0.3244  0.3274
 3492SOL    HW127618   3.185   3.369   6.572 -0.9162 -0.1960  0.3886
 3492SOL    HW227619   3.283   3.395   6.460  0.5312  0.9586  1.8701
 3493SOL     OW27620   0.773   0.850   1.115 -0.5063  0.3281  0.0427
 3493SOL    HW127621   0.699   0.830   1.173  0.2959  0.0356  0.9932
 3493SOL    HW227622   0.795   0.765   1.075  0.5131  0.0191  1.2175
 3494SOL     OW27623   5.779   4.042   0.925 -0.2141 -0.0585 -0.6987
 3494SOL    HW127624   5.791   3.960   0.877  0.2134 -0.9118  0.8198
 3494SOL    HW227625   5.776   4.017   1.017  1.6327  1.7574 -0.0357
 3495SOL     OW27626   5.993   1.778   7.249  0.1513 -0.0704  0.0823
 3495SOL    HW127627   5.988   1.709   7.183  0.9037  0.8333 -0.9629
 3495SOL    HW227628   5.951   1.741   7.327 -1.9099 -0.7223 -1.2635
 3496SOL     OW27629   6.298   4.530   1.043 -0.5229  0.6092  0.5861
 3496SOL    HW127630   6.228   4.497   0.987 -0.7456 -0.9497  1.7034
 3496SOL    HW227631   6.332   4.607   0.997  1.1429 -2.0329 -3.1233
 3497SOL     OW27632   1.651   5.711   1.349  0.0489  0.0202 -0.4360
 3497SOL    HW127633   1.629   5.623   1.381  1.4888 -0.3194 -0.2955
 3497SOL    HW227634   1.586   5.768   1.390 -2.8231 -1.2528 -2.8151
 3498SOL     OW27635   1.647   0.901   7.473 -0.2302  0.3884 -0.7730
 3498SOL    HW127636   1.678   0.841   7.540  0.0749  0.6245 -0.7003
 3498SOL    HW227637   1.566   0.862   7.441  0.5439 -0.6527 -1.5277
 3499SOL     OW27638   1.559   4.782   0.650  0.1662 -0.2410  0.4665
 3499SOL    HW127639   1.597   4.760   0.735  2.1324 -0.0526 -0.2860
 3499SOL    HW227640   1.588   4.872   0.634 -1.5482  0.3013  0.2917
 3500SOL     OW27641   3.558   1.490   1.820  0.6387 -0.2828 -0.0620
 3500SOL    HW127642   3.626   1.425   1.836 -0.4210 -0.9419  2.2537
 3500SOL    HW227643   3.576   1.560   1.883 -1.7491 -1.3297  2.0018
 3501SOL     OW27644   4.982   6.306   6.357 -0.6985 -0.2738  0.1397
 3501SOL    HW127645   4.994   6.377   6.293 -0.4065  0.0158  0.5095
 3501SOL    HW227646   4.894   6.320   6.392 -1.4778 -1.3331 -1.2790
 3502SOL     OW27647   5.555   1.779   6.635 -0.2716 -0.1623 -0.2329
 3502SOL    HW127648   5.646   1.790   6.663 -0.2690  1.2418 -0.7367
 3502SOL    HW227649   5.513   1.863   6.653 -1.7841 -1.0986  0.9964
 3503SOL     OW27650   0.844   4.406   7.768  0.1637 -0.2658  0.2694
 3503SOL    HW127651   0.889   4.403   7.852  1.6851  2.8284 -0.2732
 3503SOL    HW227652   0.754   4.429   7.789  0.3084 -0.4388  1.0903
 3504SOL     OW27653   2.935   4.168   7.650 -0.2169  0.1816  0.5500
 3504SOL    HW127654   3.028   4.189   7.648  0.0835 -1.0470 -1.6679
 3504SOL    HW227655   2.931   4.078   7.680 -0.8128  0.5836  1.7396
 3505SOL     OW27656   2.068   4.634   6.366 -0.7039 -0.5400  0.3640
 3505SOL    HW127657   2.113   4.640   6.281 -1.0102 -0.4038  0.2109
 3505SOL    HW227658   1.986   4.589   6.346 -1.0038 -0.0607  0.5017
 3506SOL     OW27659   2.990   4.063   7.344  0.0984 -0.3347 -0.0328
 3506SOL    HW127660   2.971   4.152   7.373  1.5728 -0.3779  1.1502
 3506SOL    HW227661   2.922   4.009   7.384  0.6053 -0.0450  1.2550
 3507SOL     OW27662   3.913   5.792   7.743 -0.7408 -0.1868  0.5899
 3507SOL    HW127663   3.966   5.779   7.821 -0.8287 -0.5154  0.5957
 3507SOL    HW227664   3.914   5.887   7.729 -0.7376 -0.1240  0.9982
 3508SOL     OW27665   0.978   4.739   6.152  0.0784  0.6038 -0.3070
 3508SOL    HW127666   1.028   4.694   6.083 -0.8232  0.7573 -1.0765
 3508SOL    HW227667   1.009   4.698   6.233 -0.5500 -1.2872 -0.9531
 3509SOL     OW27668   3.463   0.883   7.270  0.0843  0.3770 -0.1474
 3509SOL    HW127669   3.433   0.812   7.328  0.0316 -0.0605 -0.7010
 3509SOL    HW227670   3.485   0.955   7.329 -0.3898  0.0887  0.3876
 3510SOL     OW27671   1.222   4.751   2.326 -0.1078  0.7104 -0.3990
 3510SOL    HW127672   1.209   4.663   2.362 -3.5617  2.6603  4.2424
 3510SOL    HW227673   1.305   4.780   2.363  0.5266 -0.2202 -1.0707
 3511SOL     OW27674   5.981   6.430   7.717  0.1197 -0.2162  0.1764
 3511SOL    HW127675   6.005   6.344   7.754  1.3505  0.1027  0.1530
 3511SOL    HW227676   5.987   6.418   7.623  2.0462  0.3597  0.2014
 3512SOL     OW27677   1.788   3.742   0.782  0.2389 -0.6078 -0.9887
 3512SOL    HW127678   1.720   3.809   0.784 -1.1533 -1.9749  0.4762
 3512SOL    HW227679   1.826   3.744   0.870  1.1960 -0.7563 -1.3903
 3513SOL     OW27680   0.873   0.900   6.928  0.5045 -0.2183 -0.2492
 3513SOL    HW127681   0.810   0.971   6.935 -0.5189 -1.0692 -0.5312
 3513SOL    HW227682   0.928   0.907   7.006 -0.3093  0.1906  0.2904
 3514SOL     OW27683   4.538   3.173   2.649 -0.1016  0.0476  0.5696
 3514SOL    HW127684   4.487   3.188   2.569  0.2155  0.3470  0.4245
 3514SOL    HW227685   4.507   3.088   2.681  1.4277 -1.2102 -1.1399
 3515SOL     OW27686   4.614   3.918   7.603 -0.1690  0.3400  0.5228
 3515SOL    HW127687   4.564   3.913   7.684  1.4770  0.6917  1.5944
 3515SOL    HW227688   4.675   3.844   7.607 -0.7369 -0.2622 -0.8997
 3516SOL     OW27689   3.502   4.290   7.157  0.4437 -0.0054  0.2793
 3516SOL    HW127690   3.550   4.351   7.214 -1.1040 -0.8718  2.6670
 3516SOL    HW227691   3.564   4.269   7.087  1.3867  3.4862 -0.1341
 3517SOL     OW27692   1.156   2.362   7.491 -0.0064 -0.0563  0.1388
 3517SOL    HW127693   1.167   2.318   7.407 -1.3080 -0.2232  0.0356
 3517SOL    HW227694   1.142   2.454   7.469 -0.5470 -0.1330  0.1616
 3518SOL     OW27695   4.918   1.034   1.949 -0.0483 -0.2734 -0.6975
 3518SOL    HW127696   4.898   1.091   1.874 -0.4037 -0.2779 -0.6110
 3518SOL    HW227697   4.928   0.947   1.910 -2.7859 -0.7783 -0.4919
 3519SOL     OW27698   6.036   2.995   0.351 -0.1059 -0.1636 -0.6527
 3519SOL    HW127699   6.087   2.914   0.352  0.2540 -0.0169 -2.4727
 3519SOL    HW227700   6.011   3.009   0.442  0.9997 -1.5745 -0.0858
 3520SOL     OW27701   6.179   1.139   1.168 -0.7352 -0.2356  0.1675
 3520SOL    HW127702   6.241   1.168   1.102  0.4746 -1.5135  0.6812
 3520SOL    HW227703   6.199   1.192   1.245 -0.8450 -0.0737  0.0847
 3521SOL     OW27704   0.473   2.468   6.360  0.2283 -0.3886  0.2693
 3521SOL    HW127705   0.377   2.463   6.364  0.2917 -1.5042  3.6049
 3521SOL    HW227706   0.502   2.428   6.442  3.5698  0.1923 -0.5039
 3522SOL     OW27707   4.793   3.991   7.220  0.3125 -0.0702 -0.7516
 3522SOL    HW127708   4.882   4.019   7.241  0.2407  0.2441 -0.8689
 3522SOL    HW227709   4.797   3.968   7.127  0.5930 -1.3182 -0.4478
 3523SOL     OW27710   6.242   5.804   1.680 -0.4709  0.0284 -0.3427
 3523SOL    HW127711   6.299   5.732   1.653  1.3958  1.5445 -0.6203
 3523SOL    HW227712   6.277   5.833   1.764 -2.0224 -0.2028  0.4258
 3524SOL     OW27713   5.690   0.487   1.483  0.4023 -0.9316  0.4574
 3524SOL    HW127714   5.641   0.411   1.452  0.5258 -0.3192 -1.3805
 3524SOL    HW227715   5.705   0.540   1.404  0.1994  1.0838  1.6871
 3525SOL     OW27716   6.281   2.184   6.068 -0.2613  0.2997  0.4652
 3525SOL    HW127717   6.223   2.261   6.067 -0.0020  0.4923  0.1568
 3525SOL    HW227718   6.272   2.149   6.156 -1.4013 -0.0918  0.2112
 3526SOL     OW27719   1.700   3.151   0.113  0.0879  0.6702 -0.3066
 3526SOL    HW127720   1.693   3.244   0.132  1.1277  0.9790 -1.3044
 3526SOL    HW227721   1.632   3.110   0.167  0.4875  1.8502  1.1650
 3527SOL     OW27722   4.177   0.907   6.392 -0.1134 -0.3412 -0.3384
 3527SOL    HW127723   4.238   0.979   6.376 -1.5447  0.4431 -2.9330
 3527SOL    HW227724   4.108   0.945   6.446 -0.1596 -0.1663 -0.5198
 3528SOL     OW27725   3.612   2.455   6.673  0.1699 -0.1092 -0.4199
 3528SOL    HW127726   3.536   2.508   6.698  0.6822 -0.0126  1.0016
 3528SOL    HW227727   3.674   2.519   6.636 -0.1568 -0.0919 -0.9555
 3529SOL     OW27728   4.776   0.062   0.708 -0.5463 -0.2009  0.0572
 3529SOL    HW127729   4.773   0.027   0.797  1.5052 -1.3065 -0.2415
 3529SOL    HW227730   4.854   0.117   0.707 -0.6309 -0.0835 -1.0093
 3530SOL     OW27731   5.057   4.340   0.286 -0.3265  0.1520 -0.5017
 3530SOL    HW127732   4.980   4.375   0.331 -1.4990 -1.1134 -1.4676
 3530SOL    HW227733   5.022   4.293   0.211  1.5048  0.8703 -1.8673
 3531SOL     OW27734   1.831   2.534   5.857 -0.2986  0.0059 -0.0179
 3531SOL    HW127735   1.883   2.515   5.779  0.9921 -1.5533  1.1655
 3531SOL    HW227736   1.831   2.453   5.907 -1.9848  0.6534  1.1325
 3532SOL     OW27737   5.075   5.176   1.233 -0.0184 -0.0796  1.1767
 3532SOL    HW127738   5.089   5.083   1.214  1.0184 -0.3239  2.9019
 3532SOL    HW227739   5.101   5.186   1.325  1.7359  2.2734  0.5338
 3533SOL     OW27740   4.024   0.956   2.066  0.2580  0.2656  0.5630
 3533SOL    HW127741   3.954   0.920   2.011  0.4819  0.0391  0.4211
 3533SOL    HW227742   4.103   0.911   2.036  1.1447  3.1565 -1.8654
 3534SOL     OW27743   5.747   2.901   6.414 -0.2188 -0.0325 -0.2038
 3534SOL    HW127744   5.676   2.849   6.375  0.2263  0.5107 -1.7977
 3534SOL    HW227745   5.822   2.886   6.357  0.9562 -0.5005  1.3949
 3535SOL     OW27746   0.760   3.579   7.261 -0.1292  0.4287 -0.0585
 3535SOL    HW127747   0.673   3.538   7.256  0.0532 -0.8515  3.9196
 3535SOL    HW227748   0.742   3.672   7.269 -0.9956  0.4017 -1.4111
 3536SOL     OW27749   5.303   3.392   6.380  0.3665  0.1145 -0.1999
 3536SOL    HW127750   5.296   3.421   6.471 -0.0918  0.4787 -0.3458
 3536SOL    HW227751   5.227   3.430   6.337  0.0282 -0.8791 -0.5193
 3537SOL     OW27752   5.098   3.532   6.234 -0.7096 -0.1212 -0.1045
 3537SOL    HW127753   5.132   3.471   6.169 -1.6689 -0.9275  0.1305
 3537SOL    HW227754   5.094   3.617   6.189 -0.2872 -0.4299 -0.7293
 3538SOL     OW27755   1.721   3.769   0.040  0.0509 -0.2783  0.0969
 3538SOL    HW127756   1.743   3.681   0.010  0.4662 -0.2946  0.4380
 3538SOL    HW227757   1.665   3.755   0.116  0.3268 -0.2560  0.3081
 3539SOL     OW27758   1.227   2.447   0.994 -0.9424  0.0703  0.1679
 3539SOL    HW127759   1.191   2.425   1.079 -0.1441  0.8069  0.7117
 3539SOL    HW227760   1.311   2.490   1.013  1.1755 -3.1262 -1.0676
 3540SOL     OW27761   3.503   0.935   0.721 -0.8083 -0.1682 -0.3913
 3540SOL    HW127762   3.408   0.934   0.715 -0.9020  0.2086  0.8284
 3540SOL    HW227763   3.522   0.989   0.798  0.3340 -1.3726  0.2234
 3541SOL     OW27764   3.843   0.785   6.453  0.3413 -0.2982  0.1763
 3541SOL    HW127765   3.922   0.737   6.477  0.6730 -0.0809 -0.4691
 3541SOL    HW227766   3.852   0.870   6.498 -0.5733 -1.0524  1.8876
 3542SOL     OW27767   5.189   5.738   6.802  0.3075  0.1062 -0.1095
 3542SOL    HW127768   5.203   5.685   6.724  0.9359 -0.4701  0.3845
 3542SOL    HW227769   5.107   5.707   6.839  0.5801 -0.3969  0.0755
 3543SOL     OW27770   5.772   0.307   1.773 -0.3968 -0.7838  0.4388
 3543SOL    HW127771   5.850   0.271   1.815  0.4575 -0.0955 -0.5288
 3543SOL    HW227772   5.751   0.243   1.704 -0.0072 -0.3999 -0.0403
 3544SOL     OW27773   0.201   5.454   6.980 -0.1139  0.0390  0.3611
 3544SOL    HW127774   0.281   5.499   7.008 -0.2463  0.7026 -0.3122
 3544SOL    HW227775   0.175   5.498   6.900 -0.2374 -1.2615 -0.3422
 3545SOL     OW27776   3.966   4.117   0.760  0.1705  0.1937  0.2882
 3545SOL    HW127777   4.056   4.108   0.731  0.4538 -1.5079  1.5760
 3545SOL    HW227778   3.972   4.161   0.845 -0.3548  1.4508 -0.2919
 3546SOL     OW27779   6.381   5.602   1.554  0.0704  0.4356  0.2107
 3546SOL    HW127780   6.402   5.537   1.620 -0.7133 -0.5100 -0.4240
 3546SOL    HW227781   6.465   5.623   1.513  0.4251  0.3217  0.8665
 3547SOL     OW27782   3.803   2.613   7.700 -0.2386  0.1971  0.1830
 3547SOL    HW127783   3.864   2.618   7.626  1.3722  2.1848  1.5149
 3547SOL    HW227784   3.798   2.703   7.732 -2.3537 -0.2880  1.3744
 3548SOL     OW27785   5.135   4.153   5.569  0.0712 -0.1194  0.0126
 3548SOL    HW127786   5.117   4.070   5.525 -1.3040  0.5086 -0.6743
 3548SOL    HW227787   5.071   4.214   5.532  2.1196  1.7025 -0.7491
 3549SOL     OW27788   2.880   3.751   0.877  0.1702  0.4807  0.5792
 3549SOL    HW127789   2.884   3.829   0.822 -0.0187 -0.1780 -0.4053
 3549SOL    HW227790   2.875   3.678   0.814  0.3340 -0.3185  1.4708
 3550SOL     OW27791   1.522   0.164   0.844  0.1582 -0.0578  0.4931
 3550SOL    HW127792   1.566   0.129   0.766  1.5906 -1.4226  1.8343
 3550SOL    HW227793   1.500   0.254   0.821 -0.1954 -0.6509 -1.7569
 3551SOL     OW27794   4.628   1.561   0.547  0.1061 -0.9374 -0.1499
 3551SOL    HW127795   4.610   1.617   0.472  0.9682 -0.8382 -0.2942
 3551SOL    HW227796   4.553   1.503   0.553 -1.0937  0.5965  0.3505
 3552SOL     OW27797   2.914   1.062   0.496 -0.2135 -0.2114 -0.3201
 3552SOL    HW127798   2.903   0.968   0.507 -1.0684 -0.0435  0.3642
 3552SOL    HW227799   2.825   1.096   0.489  0.1103  0.4710 -1.2634
 3553SOL     OW27800   1.441   2.389   0.785  0.5236 -0.2851  0.3132
 3553SOL    HW127801   1.415   2.403   0.876  0.9668  2.7890  0.0687
 3553SOL    HW227802   1.362   2.358   0.742 -0.5941  1.2478  1.1629
 3554SOL     OW27803   3.166   2.672   6.038  0.0809 -0.3540  0.5140
 3554SOL    HW127804   3.076   2.686   6.009 -0.1072 -2.0769  0.1890
 3554SOL    HW227805   3.213   2.750   6.008 -1.1887  0.3365  0.2438
 3555SOL     OW27806   5.563   5.628   0.699  0.3987 -0.3585  0.7488
 3555SOL    HW127807   5.536   5.591   0.783 -1.8009 -1.4412 -0.3414
 3555SOL    HW227808   5.637   5.574   0.672  0.7426 -0.3777  1.7092
 3556SOL     OW27809   0.928   5.015   6.045 -0.3570  0.3127 -0.5627
 3556SOL    HW127810   0.943   4.921   6.053 -0.7517  0.2084 -0.9792
 3556SOL    HW227811   0.851   5.031   6.100  0.0016  0.4785 -0.1046
 3557SOL     OW27812   2.089   0.955   0.561  0.0435  0.1763 -0.3837
 3557SOL    HW127813   2.024   0.937   0.629 -1.1528  3.3789 -0.5168
 3557SOL    HW227814   2.038   0.957   0.479  0.7150  0.4154 -0.8015
 3558SOL     OW27815   3.242   2.978   0.063  0.0843  0.3765  0.4813
 3558SOL    HW127816   3.150   2.976   0.089  0.3173 -0.0482  1.3146
 3558SOL    HW227817   3.251   2.907  -0.001 -0.1874  0.4787  0.3301
 3559SOL     OW27818   0.957   3.411   7.100 -0.5848 -0.0222 -0.2860
 3559SOL    HW127819   0.933   3.482   7.040 -0.6144  0.6421  0.4902
 3559SOL    HW227820   0.919   3.436   7.184 -0.1197 -0.6808  0.1360
 3560SOL     OW27821   2.635   3.628   2.421  0.0173 -0.2413 -0.4502
 3560SOL    HW127822   2.645   3.662   2.332 -0.8751  1.3437  0.0139
 3560SOL    HW227823   2.550   3.584   2.420 -1.1745  1.8541  0.1533
 3561SOL     OW27824   3.314   2.117   1.127  0.0002  0.2138  0.1268
 3561SOL    HW127825   3.351   2.074   1.205 -0.2812 -0.0465  0.1163
 3561SOL    HW227826   3.240   2.062   1.103  0.1091  0.2760 -0.3482
 3562SOL     OW27827   6.213   5.173   7.730 -0.0654 -0.6478  0.0487
 3562SOL    HW127828   6.220   5.264   7.758 -0.2262 -0.2927 -0.9825
 3562SOL    HW227829   6.191   5.125   7.809  0.9040  0.0732  0.7837
 3563SOL     OW27830   0.834   1.916   6.773  0.1867 -0.1224 -0.0727
 3563SOL    HW127831   0.767   1.971   6.813 -0.0721 -0.9409  0.6314
 3563SOL    HW227832   0.906   1.916   6.836  1.2526  1.4412 -1.1814
 3564SOL     OW27833   0.374   4.512   0.962  0.7530 -0.2885  0.1762
 3564SOL    HW127834   0.339   4.451   0.897 -1.0457 -0.1119  0.9103
 3564SOL    HW227835   0.390   4.593   0.914 -0.0297 -0.3313 -0.1597
 3565SOL     OW27836   0.077   3.067   1.018 -0.0893  0.4232  0.0800
 3565SOL    HW127837   0.127   3.018   1.084  0.7005 -0.4046 -1.0792
 3565SOL    HW227838   0.120   3.152   1.014  1.2006 -0.2402 -0.8192
 3566SOL     OW27839   0.390   4.780   5.311 -0.1879  0.3068  0.3383
 3566SOL    HW127840   0.309   4.777   5.261 -0.5431  2.0751  0.7396
 3566SOL    HW227841   0.364   4.809   5.398  0.6946 -0.5776  0.9209
 3567SOL     OW27842   4.495   1.488   2.440 -0.1131 -0.1218  0.4150
 3567SOL    HW127843   4.426   1.475   2.376 -0.0530 -0.9327  0.5088
 3567SOL    HW227844   4.575   1.496   2.389 -0.4703  2.8918  0.1477
 3568SOL     OW27845   2.774   0.776   0.140  0.2082  0.1549  0.5099
 3568SOL    HW127846   2.698   0.827   0.169 -0.3756  0.1897 -1.0206
 3568SOL    HW227847   2.850   0.829   0.166 -0.2656  0.1327  2.0278
 3569SOL     OW27848   4.772   3.081   7.673 -0.1194 -0.5018  0.2113
 3569SOL    HW127849   4.802   3.139   7.743 -1.3541 -0.6124  0.8609
 3569SOL    HW227850   4.849   3.029   7.650  0.3993 -0.2026  1.2304
 3570SOL     OW27851   2.747   2.001   0.433  0.0263 -0.2781  0.2461
 3570SOL    HW127852   2.792   2.064   0.377 -1.4214  2.0497  1.5749
 3570SOL    HW227853   2.794   1.918   0.418  2.2884  1.1648 -1.2296
 3571SOL     OW27854   5.131   0.516   1.112  0.0220 -0.0601  0.5377
 3571SOL    HW127855   5.105   0.464   1.189 -1.9167 -0.2207 -0.1737
 3571SOL    HW227856   5.095   0.603   1.129  1.5591  0.5571  0.8096
 3572SOL     OW27857   3.318   5.060   6.004  0.2883  0.1130  0.0429
 3572SOL    HW127858   3.317   4.965   6.011  0.0097  0.1283  0.2298
 3572SOL    HW227859   3.400   5.086   6.046  1.5373 -0.1830 -2.0304
 3573SOL     OW27860   0.236   0.850   1.196  0.5822 -0.0811  0.5572
 3573SOL    HW127861   0.320   0.856   1.150 -0.6204  0.7782 -1.7300
 3573SOL    HW227862   0.184   0.922   1.159 -2.4122 -2.7659 -0.9714
 3574SOL     OW27863   0.907   4.291   6.284 -0.1760 -0.3466  0.0787
 3574SOL    HW127864   0.869   4.222   6.338  1.8971 -1.1418  0.5690
 3574SOL    HW227865   1.000   4.273   6.282  0.0892  0.8943 -2.0427
 3575SOL     OW27866   0.226   4.893   0.584 -0.3175 -0.3369  0.2511
 3575SOL    HW127867   0.138   4.910   0.549  0.3909  0.8803 -1.0394
 3575SOL    HW227868   0.276   4.972   0.562  1.0844 -0.9691  1.0506
 3576SOL     OW27869   5.374   2.524   6.365 -0.6653  0.1034 -0.1237
 3576SOL    HW127870   5.353   2.581   6.291 -1.2889 -0.1466 -0.1429
 3576SOL    HW227871   5.305   2.458   6.365  0.6549 -1.3121 -0.7637
 3577SOL     OW27872   0.878   4.142   7.638 -0.0845  0.4322 -0.1302
 3577SOL    HW127873   0.886   4.137   7.542 -0.7959  1.6842 -0.2763
 3577SOL    HW227874   0.832   4.224   7.654  0.2562  0.3706  1.3149
 3578SOL     OW27875   0.887   0.377   6.850  0.2264  0.2250  0.3558
 3578SOL    HW127876   0.871   0.468   6.876  1.5555  0.7649 -0.5809
 3578SOL    HW227877   0.967   0.381   6.798 -0.8740 -1.1520 -1.5745
 3579SOL     OW27878   1.219   2.306   0.655 -0.7823 -0.4616 -0.3800
 3579SOL    HW127879   1.142   2.346   0.613 -1.0292 -0.5393 -0.0003
 3579SOL    HW227880   1.284   2.301   0.584 -0.2607  1.8320 -0.1443
 3580SOL     OW27881   5.779   4.884   1.780 -0.6732 -0.1754 -0.4469
 3580SOL    HW127882   5.770   4.790   1.768 -0.8636 -0.1384 -0.5995
 3580SOL    HW227883   5.733   4.903   1.862  0.4777 -0.4032  0.2655
 3581SOL     OW27884   6.015   3.538   1.535  0.1858  0.1464  0.1842
 3581SOL    HW127885   6.070   3.611   1.566  1.2521 -0.4124 -0.3284
 3581SOL    HW227886   5.937   3.541   1.591  0.0007  1.9452 -0.1238
 3582SOL     OW27887   1.111   2.959   1.618  0.7281  0.5354 -0.4285
 3582SOL    HW127888   1.132   2.972   1.710 -1.9027 -0.0289  0.3451
 3582SOL    HW227889   1.108   3.047   1.580  0.4101  0.8850  0.3994
 3583SOL     OW27890   1.586   4.325   0.385 -0.1716  0.0368 -0.0465
 3583SOL    HW127891   1.578   4.418   0.366 -0.7811 -0.1644 -0.8175
 3583SOL    HW227892   1.522   4.309   0.455  2.1597  0.8026  2.4375
 3584SOL     OW27893   6.101   5.233   6.749 -0.4270  0.1656 -0.4369
 3584SOL    HW127894   6.102   5.305   6.686 -1.7182 -0.2488 -0.9811
 3584SOL    HW227895   6.032   5.257   6.811  0.1867  0.1179  0.2806
 3585SOL     OW27896   1.744   4.206   0.717 -0.7514  0.3971  0.3927
 3585SOL    HW127897   1.733   4.247   0.632 -1.9385 -0.9788 -0.1593
 3585SOL    HW227898   1.814   4.142   0.705 -1.5192 -0.4226  0.1843
 3586SOL     OW27899   0.992   0.664   6.506  0.0947 -0.4101 -0.2569
 3586SOL    HW127900   0.997   0.759   6.518 -1.0026 -0.4900  1.2217
 3586SOL    HW227901   1.075   0.640   6.466  1.2858  0.9230  1.2759
 3587SOL     OW27902   2.240   2.643   2.156  0.1633  0.7774  0.8194
 3587SOL    HW127903   2.263   2.712   2.217 -0.3100  2.8115 -1.1796
 3587SOL    HW227904   2.171   2.681   2.101  0.2203 -1.1024 -0.6714
 3588SOL     OW27905   2.340   2.398   6.243 -0.1761  0.6394 -0.2512
 3588SOL    HW127906   2.310   2.314   6.277 -2.1239  1.6883  0.7951
 3588SOL    HW227907   2.413   2.376   6.184 -0.8281 -1.7802 -0.2429
 3589SOL     OW27908   0.092   4.380   1.128  0.3202 -0.3788  0.0580
 3589SOL    HW127909   0.138   4.451   1.083  0.0494 -1.8048 -2.6408
 3589SOL    HW227910  -0.001   4.405   1.124  0.3810  0.0290  0.9054
 3590SOL     OW27911   0.775   2.055   0.155 -0.4483  0.0432 -0.3593
 3590SOL    HW127912   0.784   2.001   0.234  2.1843 -0.1154 -0.7009
 3590SOL    HW227913   0.810   2.140   0.180 -1.4332  0.6123 -0.8306
 3591SOL     OW27914   0.010   2.018   7.283 -0.0321  0.3709 -0.0568
 3591SOL    HW127915  -0.062   1.958   7.266  0.5037 -0.7616  1.3754
 3591SOL    HW227916   0.089   1.963   7.277  0.5544  1.1418  0.3441
 3592SOL     OW27917   0.367   3.133   6.981  0.1252 -0.1598  0.1932
 3592SOL    HW127918   0.339   3.218   7.016 -0.3032  0.5228 -1.6793
 3592SOL    HW227919   0.417   3.155   6.903 -0.0701 -1.6338 -0.3738
 3593SOL     OW27920   0.340   1.685   0.304 -0.0538  0.0194  0.0673
 3593SOL    HW127921   0.267   1.639   0.262  0.7845 -0.2549 -1.1054
 3593SOL    HW227922   0.416   1.663   0.252  1.1575 -0.8208  2.0684
 3594SOL     OW27923   3.284   0.470   1.118  0.7379 -0.0516 -0.0902
 3594SOL    HW127924   3.198   0.497   1.152  0.9137  0.2875  0.0876
 3594SOL    HW227925   3.295   0.521   1.038  1.3549  0.9013  0.5867
 3595SOL     OW27926   1.139   5.039   7.744  0.2626 -0.7718  0.0365
 3595SOL    HW127927   1.215   5.010   7.794  0.4416  0.5084  0.5555
 3595SOL    HW227928   1.176   5.086   7.669 -0.0120 -1.4269 -0.5122
 3596SOL     OW27929   6.359   2.767   1.693  0.0190 -0.7270 -0.0908
 3596SOL    HW127930   6.340   2.715   1.615 -0.2217  0.1340 -0.6197
 3596SOL    HW227931   6.275   2.776   1.737 -0.2475  0.4637 -0.7972
 3597SOL     OW27932   2.708   5.787   6.435  0.6065  0.1056 -0.1423
 3597SOL    HW127933   2.780   5.823   6.383 -0.6520  3.9188  0.4395
 3597SOL    HW227934   2.630   5.800   6.381 -0.3263  1.3280  1.3986
 3598SOL     OW27935   2.269   5.208   0.822 -0.0947  0.5328 -0.1895
 3598SOL    HW127936   2.338   5.144   0.805 -1.2525 -1.1017  0.9245
 3598SOL    HW227937   2.193   5.174   0.776 -0.4810  1.6669 -0.4160
 3599SOL     OW27938   4.405   5.120   7.309  0.4301  0.1715  0.5945
 3599SOL    HW127939   4.449   5.122   7.394 -1.9413  1.7480  1.8975
 3599SOL    HW227940   4.441   5.194   7.261 -1.5797  2.3471  2.1976
 3600SOL     OW27941   1.614   3.350   0.386 -0.2877 -0.4462  0.3868
 3600SOL    HW127942   1.682   3.400   0.342  0.3104 -1.7525 -0.2319
 3600SOL    HW227943   1.547   3.414   0.408  1.0466  0.8365  0.8414
 3601SOL     OW27944   0.247   3.470   1.817 -0.6565  0.3521  0.0717
 3601SOL    HW127945   0.213   3.388   1.853  2.8821 -1.4717 -0.3145
 3601SOL    HW227946   0.297   3.509   1.889 -0.1995  0.8273 -0.4891
 3602SOL     OW27947   1.992   1.053   7.047  0.2701 -0.4985 -0.2559
 3602SOL    HW127948   2.072   1.100   7.026 -0.7054  1.7132  0.6069
 3602SOL    HW227949   2.017   0.993   7.118  1.1634  0.2053  0.0477
 3603SOL     OW27950   4.111   5.721   1.952 -0.3911  0.2405 -0.2296
 3603SOL    HW127951   4.164   5.648   1.919  0.7352  1.3051 -0.8679
 3603SOL    HW227952   4.022   5.701   1.923 -0.1263 -0.9277 -0.2943
 3604SOL     OW27953   3.672   2.752   0.342  0.1344  0.0249  0.2773
 3604SOL    HW127954   3.705   2.826   0.394  1.2364  0.5938 -1.1553
 3604SOL    HW227955   3.619   2.793   0.274 -0.3489 -0.6128  0.2672
 3605SOL     OW27956   0.556   4.149   1.927 -0.3004  0.2521  0.0852
 3605SOL    HW127957   0.516   4.150   2.015 -2.1075  0.4037 -0.6914
 3605SOL    HW227958   0.481   4.149   1.867  0.9045  0.3850 -1.4714
 3606SOL     OW27959   6.330   4.311   6.698  0.0426  0.6045  0.2962
 3606SOL    HW127960   6.353   4.229   6.653 -0.1328  0.0520  1.1860
 3606SOL    HW227961   6.275   4.358   6.636  0.5180  0.2576 -0.4050
 3607SOL     OW27962   6.428   4.836   1.615 -0.0939 -0.1390  0.5495
 3607SOL    HW127963   6.384   4.756   1.644  1.2924 -0.9855  0.3948
 3607SOL    HW227964   6.434   4.827   1.520  1.1131 -0.4370  0.6358
 3608SOL     OW27965   2.803   3.809   6.409 -0.8539 -0.2522  0.0624
 3608SOL    HW127966   2.730   3.758   6.445 -1.9651  0.7219 -0.6886
 3608SOL    HW227967   2.825   3.765   6.327 -1.3782  0.0943 -0.2696
 3609SOL     OW27968   3.702   3.643   0.134  0.4999 -0.1548  0.0962
 3609SOL    HW127969   3.694   3.562   0.084  1.3007 -0.6969  0.8091
 3609SOL    HW227970   3.673   3.711   0.074 -3.1425 -1.2088  0.4433
 3610SOL     OW27971   0.833   5.440   1.322  0.0550 -0.0458 -0.4868
 3610SOL    HW127972   0.856   5.434   1.229  0.6420  0.2630 -0.3602
 3610SOL    HW227973   0.917   5.442   1.368 -0.2220  0.6004  0.0057
 3611SOL     OW27974   5.083   0.709   0.664 -0.1014 -0.0162  0.1124
 3611SOL    HW127975   5.019   0.683   0.730 -1.2942  0.9724 -0.6118
 3611SOL    HW227976   5.118   0.627   0.631  0.7326 -0.5354  2.1328
 3612SOL     OW27977   1.836   5.046   6.974  0.4551 -0.2764  0.0211
 3612SOL    HW127978   1.751   5.044   7.018 -0.0311 -1.2104 -0.9074
 3612SOL    HW227979   1.890   5.104   7.028 -0.5191 -0.3232  1.0842
 3613SOL     OW27980   4.862   0.881   0.510 -0.6861 -0.0067 -0.1958
 3613SOL    HW127981   4.888   0.954   0.567  2.2236 -0.3468 -0.9108
 3613SOL    HW227982   4.813   0.822   0.568  1.7885 -0.1434  2.0032
 3614SOL     OW27983   0.764   5.252   6.793  0.2769 -0.0882 -0.6614
 3614SOL    HW127984   0.704   5.324   6.777 -0.6688 -0.5434  0.7194
 3614SOL    HW227985   0.792   5.225   6.705 -2.5436 -0.7070 -1.4737
 3615SOL     OW27986   2.949   1.611   7.610 -0.3403  0.2813  0.0929
 3615SOL    HW127987   2.926   1.534   7.663  1.0243  0.0350  0.3833
 3615SOL    HW227988   2.887   1.610   7.537  0.8634 -2.2865 -1.0204
 3616SOL     OW27989   5.565   3.448   1.193 -0.3611 -0.0186 -0.4788
 3616SOL    HW127990   5.623   3.463   1.118  1.3832  3.2900  1.3022
 3616SOL    HW227991   5.607   3.376   1.241 -0.4142 -0.8422 -1.6348
 3617SOL     OW27992   4.818   0.707   6.717  0.2515  0.1430 -0.2726
 3617SOL    HW127993   4.795   0.796   6.690  1.3486  0.9481  1.2932
 3617SOL    HW227994   4.749   0.652   6.681 -1.7744  1.9167  0.6905
 3618SOL     OW27995   2.786   2.159   7.179  0.4212  0.3609 -0.2390
 3618SOL    HW127996   2.755   2.250   7.180 -1.9332 -0.3489 -1.1513
 3618SOL    HW227997   2.775   2.131   7.088  1.5656 -0.7052 -0.0686
 3619SOL     OW27998   3.054   5.919   6.723  0.5211 -0.1218  0.0361
 3619SOL    HW127999   3.084   5.828   6.721  0.7481 -0.0583  0.4250
 3619SOL    HW228000   2.961   5.913   6.745  1.0160 -0.1808  2.4382
 3620SOL     OW28001   5.795   5.719   5.676  0.0232 -0.4186  0.3237
 3620SOL    HW128002   5.745   5.746   5.753 -0.3201  1.3019 -0.4383
 3620SOL    HW228003   5.729   5.695   5.611  0.1817  0.7280 -0.2948
 3621SOL     OW28004   5.738   6.315   1.375 -0.3585  0.4557 -0.7659
 3621SOL    HW128005   5.654   6.273   1.390 -0.9020  0.9321 -2.3477
 3621SOL    HW228006   5.718   6.407   1.360  0.3909  0.5170 -1.5156
 3622SOL     OW28007   3.136   4.886   1.216 -0.1122  0.8515 -0.4275
 3622SOL    HW128008   3.176   4.962   1.259 -0.0994  0.9894 -0.6787
 3622SOL    HW228009   3.103   4.832   1.288  2.2780 -0.2882 -0.0855
 3623SOL     OW28010   0.033   4.727   7.534 -0.1734  0.0747  0.2989
 3623SOL    HW128011   0.026   4.664   7.606  0.0068 -0.1865  0.0871
 3623SOL    HW228012  -0.055   4.764   7.527 -0.0264  0.6284  1.1253
 3624SOL     OW28013   5.380   2.145   6.269 -0.2358 -0.0454 -0.3620
 3624SOL    HW128014   5.466   2.177   6.241  1.0050 -1.6280  1.4207
 3624SOL    HW228015   5.388   2.136   6.363 -2.1538 -0.8961 -0.2548
 3625SOL     OW28016   0.824   6.242   7.722 -0.7314  0.5418 -0.7597
 3625SOL    HW128017   0.857   6.153   7.733 -1.8696  0.3375  1.6011
 3625SOL    HW228018   0.903   6.296   7.715  0.0242 -0.3962  0.2975
 3626SOL     OW28019   1.888   3.997   6.913 -0.1122 -0.1404  0.1666
 3626SOL    HW128020   1.887   4.058   6.839  1.2121  0.1553  0.3636
 3626SOL    HW228021   1.961   4.028   6.967 -0.1880 -1.1945  0.8814
 3627SOL     OW28022   6.329   5.576   6.996 -0.0338  0.1186 -0.5670
 3627SOL    HW128023   6.341   5.486   6.964  0.7423  0.1979 -0.4957
 3627SOL    HW228024   6.381   5.630   6.937  1.6024  0.2478  0.9404
 3628SOL     OW28025   4.687   0.319   0.418  0.7264 -0.3581 -0.5434
 3628SOL    HW128026   4.657   0.249   0.360 -0.9331 -0.9708  0.9591
 3628SOL    HW228027   4.673   0.399   0.368 -2.4790 -0.7014 -0.4146
 3629SOL     OW28028   0.639   2.403   0.033 -0.7996 -0.2524 -0.0030
 3629SOL    HW128029   0.690   2.388  -0.046 -1.1992  0.8321 -0.4914
 3629SOL    HW228030   0.705   2.426   0.100 -0.5731  0.3919 -0.4351
 3630SOL     OW28031   6.275   0.137   6.693 -0.0103  0.6597  0.3804
 3630SOL    HW128032   6.256   0.219   6.649  1.9790  0.4070 -1.0710
 3630SOL    HW228033   6.343   0.159   6.757 -1.4539  0.6300  2.0107
 3631SOL     OW28034   5.161   3.939   6.510  0.0127  0.3662 -0.0516
 3631SOL    HW128035   5.150   4.024   6.551  1.3314  0.2002  0.7288
 3631SOL    HW228036   5.165   3.877   6.583 -2.4487 -0.6063 -0.6524
 3632SOL     OW28037   1.424   5.978   1.139 -0.0583  0.4927  0.2614
 3632SOL    HW128038   1.486   5.914   1.104  0.6057  0.7593  0.9176
 3632SOL    HW228039   1.345   5.927   1.158  0.8004 -0.3478  1.7132
 3633SOL     OW28040   0.538   0.214   1.302  0.1252 -0.0152 -0.8376
 3633SOL    HW128041   0.593   0.254   1.235 -1.3881  1.3605 -1.3267
 3633SOL    HW228042   0.516   0.286   1.361  1.7000 -1.2621  1.4207
 3634SOL     OW28043   1.677   2.502   0.479 -0.0552 -0.6255  0.3523
 3634SOL    HW128044   1.708   2.591   0.462  1.6543 -1.0680  0.9398
 3634SOL    HW228045   1.644   2.506   0.569 -1.4429 -0.2500 -0.1409
 3635SOL     OW28046   4.774   0.052   2.258 -0.0173 -0.1614  0.5547
 3635SOL    HW128047   4.796   0.130   2.309  0.0052 -0.4510  0.9891
 3635SOL    HW228048   4.694   0.019   2.297 -0.3259 -0.0499  0.0220
 3636SOL     OW28049   2.161   2.899   7.405  0.0031 -0.1293  0.1408
 3636SOL    HW128050   2.165   2.804   7.413 -0.4944 -0.3127 -1.5986
 3636SOL    HW228051   2.068   2.920   7.411 -0.4121 -0.2299 -3.5757
 3637SOL     OW28052   5.938   1.580   7.469 -0.3597 -0.5626  0.4382
 3637SOL    HW128053   5.891   1.644   7.522 -0.3263 -0.7528  0.7014
 3637SOL    HW228054   6.006   1.546   7.527 -0.3079 -0.7567  0.2664
 3638SOL     OW28055   3.149   2.834   2.320  0.4086  0.0950 -0.2821
 3638SOL    HW128056   3.230   2.868   2.282 -0.6600  0.2187 -2.5978
 3638SOL    HW228057   3.083   2.900   2.298 -0.4254 -0.2162  1.1772
 3639SOL     OW28058   4.156   2.233   5.739  0.1851  0.3862  0.5656
 3639SOL    HW128059   4.205   2.180   5.676  2.6627  0.3914  2.3465
 3639SOL    HW228060   4.110   2.170   5.794 -0.3237  0.3071  0.0651
 3640SOL     OW28061   3.258   6.165   6.698 -0.0544 -0.0946  0.3695
 3640SOL    HW128062   3.196   6.220   6.746 -0.4637  0.4347 -0.7389
 3640SOL    HW228063   3.315   6.128   6.766  1.2328  2.8635  1.0471
 3641SOL     OW28064   6.231   4.327   1.307  0.2406  0.0941 -0.0906
 3641SOL    HW128065   6.179   4.294   1.380  0.1774  2.4814  1.0380
 3641SOL    HW228066   6.200   4.278   1.231 -0.6818 -1.4699  1.2267
 3642SOL     OW28067   4.612   0.400   1.454  0.4496 -0.2501 -0.6140
 3642SOL    HW128068   4.619   0.494   1.470  1.1931 -0.4531  0.3757
 3642SOL    HW228069   4.518   0.382   1.459  0.3073  0.4270 -0.7431
 3643SOL     OW28070   3.842   2.368   2.040 -0.0890 -0.0232 -0.0185
 3643SOL    HW128071   3.821   2.376   1.947  0.4420 -0.2604 -0.1682
 3643SOL    HW228072   3.758   2.366   2.084 -0.3410  0.4349 -0.4664
 3644SOL     OW28073   3.143   2.660   6.374  0.4419 -0.2003  0.3352
 3644SOL    HW128074   3.187   2.726   6.428 -0.2242  1.5305 -1.1183
 3644SOL    HW228075   3.164   2.685   6.284 -0.3105 -1.6605 -0.2814
 3645SOL     OW28076   4.993   3.829   0.881 -0.1467  0.0741 -0.0558
 3645SOL    HW128077   4.927   3.892   0.910  0.4834  0.8474 -0.2397
 3645SOL    HW228078   5.001   3.767   0.953 -1.3860 -0.2945 -0.2151
 3646SOL     OW28079   4.419   3.825   6.375 -0.3161  0.4562 -0.1429
 3646SOL    HW128080   4.375   3.797   6.456  1.0528 -2.7471 -0.3625
 3646SOL    HW228081   4.347   3.849   6.316 -1.4684  0.3851  1.1822
 3647SOL     OW28082   0.087   4.516   1.533  0.4184  0.9368  0.0829
 3647SOL    HW128083   0.087   4.527   1.437  1.3727  0.5134  0.0235
 3647SOL    HW228084   0.041   4.434   1.548  0.1043  1.0969 -0.0003
 3648SOL     OW28085   4.732   3.191   2.112 -0.2423  0.2049  0.3631
 3648SOL    HW128086   4.636   3.186   2.120 -0.6581  4.0141 -0.3694
 3648SOL    HW228087   4.762   3.212   2.200  0.0033 -1.1478  0.6269
 3649SOL     OW28088   2.530   1.892   7.687 -0.6435  0.2465 -1.1838
 3649SOL    HW128089   2.617   1.930   7.673 -0.3743  0.1799  0.1865
 3649SOL    HW228090   2.496   1.937   7.764 -0.9121 -1.2933 -0.3791
 3650SOL     OW28091   0.139   5.678   6.803 -0.2003 -0.1914  0.4237
 3650SOL    HW128092   0.185   5.761   6.795 -0.7322  0.0156 -0.6836
 3650SOL    HW228093   0.047   5.701   6.800 -0.3513 -0.8477 -0.3840
 3651SOL     OW28094   3.583   0.119   1.630 -0.1763  0.1197  0.0472
 3651SOL    HW128095   3.676   0.100   1.639 -0.1645  0.0156 -0.2782
 3651SOL    HW228096   3.579   0.193   1.569 -0.3647 -0.6852 -0.9436
 3652SOL     OW28097   2.402   6.135   0.696 -0.1233 -0.3185 -0.0153
 3652SOL    HW128098   2.443   6.096   0.773  1.5531  1.4620  0.0834
 3652SOL    HW228099   2.449   6.095   0.622 -0.7024 -0.9163 -0.0686
 3653SOL     OW28100   2.215   5.370   1.939  0.2547 -0.0537 -0.6734
 3653SOL    HW128101   2.269   5.449   1.943 -2.3701  1.8537  0.9646
 3653SOL    HW228102   2.198   5.357   1.846 -0.2017  2.1080 -0.9558
 3654SOL     OW28103   3.114   0.402   2.014  0.6581  0.0165  0.4118
 3654SOL    HW128104   3.194   0.398   2.067  0.5481 -0.0530  0.5736
 3654SOL    HW228105   3.090   0.494   2.014 -1.1226 -0.3126  3.1749
 3655SOL     OW28106   2.134   5.003   6.961  0.4228 -0.0016  0.0922
 3655SOL    HW128107   2.207   4.949   6.932  1.0169  1.0936 -0.5061
 3655SOL    HW228108   2.137   5.000   7.056  0.9167 -0.3994  0.0641
 3656SOL     OW28109   0.087   4.138   0.199  0.1768  0.3018 -0.5649
 3656SOL    HW128110   0.168   4.097   0.168  0.3693  0.5567 -0.4051
 3656SOL    HW228111   0.038   4.067   0.241  0.6446  0.2952 -0.0213
 3657SOL     OW28112   0.818   4.087   1.820  0.2630 -0.3641 -0.0486
 3657SOL    HW128113   0.891   4.098   1.881  1.0826 -0.0255 -1.0617
 3657SOL    HW228114   0.747   4.140   1.857  0.9447  0.3256  0.2932
 3658SOL     OW28115   4.326   4.951   0.633  0.4192  0.0905 -0.9995
 3658SOL    HW128116   4.288   5.035   0.658 -0.8714 -1.2275  1.9531
 3658SOL    HW228117   4.304   4.942   0.540 -1.0837  2.1743 -0.9293
 3659SOL     OW28118   0.265   3.804   0.272  0.5625 -0.2363 -0.4558
 3659SOL    HW128119   0.325   3.779   0.202  1.7738 -0.8008  0.7582
 3659SOL    HW228120   0.320   3.842   0.340 -0.2020 -2.1818  1.3583
 3660SOL     OW28121   0.671   2.156   0.974 -0.2653  0.5828  0.0928
 3660SOL    HW128122   0.749   2.126   1.019 -0.4931  3.0678  2.4122
 3660SOL    HW228123   0.649   2.085   0.914  1.6758 -1.7597  1.9359
 3661SOL     OW28124   5.329   5.972   0.784  0.5704  0.2461  0.0674
 3661SOL    HW128125   5.360   6.061   0.769 -0.6482  1.3123  2.9285
 3661SOL    HW228126   5.408   5.921   0.801  1.3145  0.6308 -1.9831
 3662SOL     OW28127   5.472   3.327   0.018  0.2890  0.7422  0.6358
 3662SOL    HW128128   5.424   3.408   0.001 -1.2573 -0.1423  0.6275
 3662SOL    HW228129   5.527   3.315  -0.059  0.3041  1.6205  0.5045
 3663SOL     OW28130   3.825   3.947   0.578  0.0240 -0.2441 -0.0436
 3663SOL    HW128131   3.778   3.901   0.648 -0.4738  0.8456  0.3661
 3663SOL    HW228132   3.864   4.023   0.621  0.3364  0.0410 -0.8081
 3664SOL     OW28133   6.154   1.441   2.001 -0.5890  0.2211  0.5715
 3664SOL    HW128134   6.125   1.362   2.047  0.3092  0.4127  1.4920
 3664SOL    HW228135   6.076   1.470   1.953 -1.5829  0.0676  2.0316
 3665SOL     OW28136   2.207   6.119   1.870 -0.0325 -0.3282  0.4315
 3665SOL    HW128137   2.273   6.187   1.860  1.3014 -1.5020  0.8634
 3665SOL    HW228138   2.238   6.067   1.945 -0.6159 -1.8162 -0.3214
 3666SOL     OW28139   3.964   5.538   5.342  0.5860 -0.1085 -0.2446
 3666SOL    HW128140   4.044   5.516   5.390 -0.1518  1.7466  2.0131
 3666SOL    HW228141   3.964   5.634   5.339 -2.7363  0.1156  2.1333
 3667SOL     OW28142   4.351   1.922   6.583  0.4097 -0.0179 -0.2403
 3667SOL    HW128143   4.407   1.911   6.660 -0.8157  1.6547  0.9517
 3667SOL    HW228144   4.408   1.900   6.509  1.7992 -1.0980  1.0777
 3668SOL     OW28145   5.128   1.450   7.281  0.7322 -0.1272 -0.1986
 3668SOL    HW128146   5.072   1.514   7.324 -0.2645 -1.4536  0.5622
 3668SOL    HW228147   5.098   1.447   7.190  0.1477 -0.1835 -0.0058
 3669SOL     OW28148   5.168   2.088   0.454  0.2256  0.2441  0.1510
 3669SOL    HW128149   5.149   2.071   0.362  1.4718  0.0039 -0.0783
 3669SOL    HW228150   5.261   2.107   0.456  0.0111  1.3128  1.2289
 3670SOL     OW28151   5.966   5.527   5.995 -0.4668  0.8166 -0.2381
 3670SOL    HW128152   5.985   5.608   5.948  1.2129  2.1486  2.4413
 3670SOL    HW228153   6.049   5.479   5.996 -0.2153  1.1674  1.7753
 3671SOL     OW28154   1.108   0.456   7.324 -0.3434 -0.5687 -0.6539
 3671SOL    HW128155   1.180   0.462   7.260  0.3256  1.1026  0.1970
 3671SOL    HW228156   1.034   0.499   7.280  0.7440  2.6789  0.4355
 3672SOL     OW28157   1.122   3.066   0.700  0.9161 -0.3943 -0.0063
 3672SOL    HW128158   1.071   3.100   0.774 -0.8763 -0.2500 -1.2712
 3672SOL    HW228159   1.211   3.098   0.717  0.2924  0.7333  1.4038
 3673SOL     OW28160   1.307   6.143   5.919  0.0261  0.3259 -0.4477
 3673SOL    HW128161   1.312   6.175   6.009 -0.1781 -0.4302 -0.1542
 3673SOL    HW228162   1.231   6.084   5.920 -1.4318  2.0639 -1.6815
 3674SOL     OW28163   1.842   2.933   6.551 -0.4597  0.0897  0.4081
 3674SOL    HW128164   1.903   2.937   6.624 -0.4257 -2.3559  0.5698
 3674SOL    HW228165   1.893   2.964   6.476  0.3974 -0.1576  0.8804
 3675SOL     OW28166   6.338   5.584   0.732  0.0512  0.2708 -0.1537
 3675SOL    HW128167   6.317   5.677   0.735  1.7577  0.6828 -0.0741
 3675SOL    HW228168   6.259   5.542   0.697 -0.5443  1.7899 -0.6842
 3676SOL     OW28169   0.792   5.187   0.824 -0.0935 -0.2897 -0.0834
 3676SOL    HW128170   0.829   5.123   0.884 -0.1193  0.5680  0.8850
 3676SOL    HW228171   0.868   5.224   0.778  0.1447  0.3968  0.8186
 3677SOL     OW28172   3.586   3.881   0.439  0.1073 -0.4068  0.0170
 3677SOL    HW128173   3.617   3.798   0.475  0.9731 -0.0672  0.0793
 3677SOL    HW228174   3.653   3.944   0.464  0.0555  0.0879 -1.0443
 3678SOL     OW28175   6.082   3.807   1.603  0.1553 -0.1111  0.4028
 3678SOL    HW128176   6.102   3.832   1.693  0.0765  1.3074  0.0462
 3678SOL    HW228177   6.087   3.888   1.553 -0.3928 -0.7693 -0.7821
 3679SOL     OW28178   1.609   0.656   1.352 -0.2469 -0.4558  0.1721
 3679SOL    HW128179   1.576   0.577   1.395 -0.9632 -1.1245 -1.5374
 3679SOL    HW228180   1.682   0.685   1.408 -1.8221 -0.6187  2.4277
 3680SOL     OW28181   2.317   6.415   5.299 -0.1161 -0.2689 -0.4639
 3680SOL    HW128182   2.262   6.468   5.241 -0.4230  1.5700  1.3826
 3680SOL    HW228183   2.255   6.365   5.352 -0.0213  0.7930  0.6989
 3681SOL     OW28184   6.085   3.821   0.936 -0.2354  0.5013 -0.4717
 3681SOL    HW128185   6.138   3.829   1.015  0.5848 -0.0673 -0.9575
 3681SOL    HW228186   6.047   3.733   0.942 -2.8024  1.5920  0.8799
 3682SOL     OW28187   6.116   1.548   5.913 -0.0166 -0.0260 -0.2658
 3682SOL    HW128188   6.138   1.546   6.006  0.1079  1.4183 -0.2312
 3682SOL    HW228189   6.163   1.474   5.875  1.7821  0.6915  0.4608
 3683SOL     OW28190   2.347   6.467   7.727 -0.2772  0.1200 -0.0817
 3683SOL    HW128191   2.259   6.500   7.707 -1.7752 -0.5559  4.2754
 3683SOL    HW228192   2.339   6.372   7.726  0.7071  0.0253 -0.5919
 3684SOL     OW28193   4.595   3.990   5.658 -0.5416  0.3692 -0.5797
 3684SOL    HW128194   4.650   3.988   5.580  0.2600  0.6011 -0.0363
 3684SOL    HW228195   4.518   3.939   5.635  0.2894 -0.6933 -1.0689
 3685SOL     OW28196   2.559   2.254   6.780 -0.4218  0.0851  0.0928
 3685SOL    HW128197   2.478   2.244   6.829 -1.4224  2.1219 -1.0451
 3685SOL    HW228198   2.546   2.331   6.726  2.1214  0.2210 -0.4743
 3686SOL     OW28199   6.070   2.041   7.734 -0.0011  0.7011 -0.3407
 3686SOL    HW128200   5.987   2.061   7.776 -0.9595 -2.3026 -0.5523
 3686SOL    HW228201   6.129   2.020   7.807 -0.1328  0.5106 -0.2892
 3687SOL     OW28202   2.639   3.473   0.799  0.1121  0.1921  0.2498
 3687SOL    HW128203   2.581   3.440   0.730 -1.9612  0.7052  1.6237
 3687SOL    HW228204   2.703   3.527   0.753  1.6232 -3.0084 -1.6873
 3688SOL     OW28205   3.737   5.682   1.269  0.0672 -0.1067  0.3137
 3688SOL    HW128206   3.732   5.678   1.365 -0.6809  0.6008  0.3179
 3688SOL    HW228207   3.689   5.605   1.239  0.6317 -0.5376  0.5071
 3689SOL     OW28208   5.634   0.392   6.882  0.1418  0.1966  0.2037
 3689SOL    HW128209   5.541   0.374   6.873  0.0151  0.3672  1.0943
 3689SOL    HW228210   5.677   0.318   6.839 -0.3876  0.8361 -1.5333
 3690SOL     OW28211   5.185   3.406   1.544 -0.0370  0.0392 -0.3823
 3690SOL    HW128212   5.229   3.475   1.494 -0.0242 -0.3844 -0.9506
 3690SOL    HW228213   5.243   3.331   1.539 -0.1437 -0.0796  0.0812
 3691SOL     OW28214   5.163   1.642   6.590 -0.1649  0.2176  0.4504
 3691SOL    HW128215   5.208   1.694   6.656  0.1679  0.0271  0.3748
 3691SOL    HW228216   5.070   1.658   6.606 -0.0820  0.2922  0.8680
 3692SOL     OW28217   1.447   0.987   0.755 -0.7252 -0.3153 -0.0040
 3692SOL    HW128218   1.353   0.986   0.771 -0.7477 -0.2721 -0.1352
 3692SOL    HW228219   1.457   1.029   0.670 -0.3323  3.3645  1.6475
 3693SOL     OW28220   2.470   5.795   6.286  0.4672  0.6262  0.3026
 3693SOL    HW128221   2.477   5.748   6.202  0.9120 -1.0548  1.2368
 3693SOL    HW228222   2.401   5.749   6.334 -1.4674  3.0242  0.0254
 3694SOL     OW28223   2.543   5.793   1.745  0.2122 -0.2282  0.0871
 3694SOL    HW128224   2.540   5.840   1.828  0.8045 -0.6793  0.3758
 3694SOL    HW228225   2.466   5.736   1.745 -0.4241  0.6099 -0.1962
 3695SOL     OW28226   0.825   6.161   1.587  0.8118 -0.5540 -0.1865
 3695SOL    HW128227   0.904   6.216   1.591  0.3584  0.0980  3.2603
 3695SOL    HW228228   0.787   6.169   1.674 -2.0064 -2.4736 -1.1230
 3696SOL     OW28229   4.569   3.589   7.643 -0.3513  0.1596  0.3034
 3696SOL    HW128230   4.577   3.520   7.708  0.3524  0.6631  0.7758
 3696SOL    HW228231   4.540   3.545   7.563  0.1396 -0.6841  0.5830
 3697SOL     OW28232   2.441   2.192   0.862 -0.6831  0.3396  0.1307
 3697SOL    HW128233   2.536   2.185   0.869 -0.3643  1.4926 -1.9693
 3697SOL    HW228234   2.425   2.285   0.843 -1.8407 -0.3737 -3.1675
 3698SOL     OW28235   2.803   0.015   6.597  0.0369 -0.2337 -0.0069
 3698SOL    HW128236   2.797  -0.023   6.510  1.3416  2.7715 -1.5554
 3698SOL    HW228237   2.714   0.014   6.631 -0.3828 -2.0448 -1.0639
 3699SOL     OW28238   3.633   4.117   6.680 -0.2480 -0.3554 -0.5274
 3699SOL    HW128239   3.709   4.159   6.641  0.2083  0.2089  0.8969
 3699SOL    HW228240   3.604   4.177   6.748 -0.9910 -1.2952  0.0224
 3700SOL     OW28241   1.812   1.776   6.186 -0.4071  0.2223 -0.4720
 3700SOL    HW128242   1.772   1.750   6.103  0.5581  0.4362 -1.0223
 3700SOL    HW228243   1.750   1.747   6.253 -2.4214  2.2629 -1.3234
 3701SOL     OW28244   0.797   3.504   6.136  0.0558 -0.2743  0.4256
 3701SOL    HW128245   0.800   3.410   6.151 -0.3941 -0.4270 -0.4100
 3701SOL    HW228246   0.707   3.529   6.155  0.0668 -0.0838  0.2322
 3702SOL     OW28247   2.023   5.183   6.008 -0.1195  0.5378  0.6238
 3702SOL    HW128248   1.967   5.141   6.074 -1.9328  1.5664 -0.1838
 3702SOL    HW228249   2.050   5.112   5.950 -2.2730  0.2670 -0.1165
 3703SOL     OW28250   4.599   0.898   7.412  0.7149 -0.1627  0.3522
 3703SOL    HW128251   4.643   0.980   7.390 -0.0892  0.4733  1.0444
 3703SOL    HW228252   4.523   0.925   7.464  2.0921 -1.4700  3.2886
 3704SOL     OW28253   1.900   5.848   1.318  0.2677  0.0014 -0.2527
 3704SOL    HW128254   1.830   5.782   1.321  0.4334 -0.1329  1.1787
 3704SOL    HW228255   1.869   5.912   1.254  0.0656 -1.4006 -1.6116
 3705SOL     OW28256   5.643   2.218   1.919  0.1783  0.0729 -0.0356
 3705SOL    HW128257   5.693   2.158   1.974  1.7205  0.1779 -1.2728
 3705SOL    HW228258   5.699   2.294   1.908  0.8670 -0.7743 -3.4013
 3706SOL     OW28259   4.190   5.175   0.663  0.1200  0.2850 -0.2406
 3706SOL    HW128260   4.197   5.225   0.745 -0.7712 -0.1420  0.1093
 3706SOL    HW228261   4.152   5.237   0.601 -1.2906 -0.0125  0.2800
 3707SOL     OW28262   0.379   1.435   0.064  0.2819 -0.0465  0.8563
 3707SOL    HW128263   0.436   1.475  -0.001 -2.8725  3.1606 -0.2525
 3707SOL    HW228264   0.350   1.353   0.025  0.8232  0.3679 -0.4444
 3708SOL     OW28265   4.840   4.169   1.180  0.5371 -0.1506 -0.1960
 3708SOL    HW128266   4.801   4.254   1.197  2.4694  1.4320 -2.8753
 3708SOL    HW228267   4.796   4.137   1.101  2.6211  0.4307 -1.6907
 3709SOL     OW28268   3.826   4.865   7.632 -0.2072 -0.4113 -0.1733
 3709SOL    HW128269   3.913   4.877   7.594 -0.6270  0.7866 -0.7893
 3709SOL    HW228270   3.843   4.824   7.717  0.7915 -2.5398 -1.3108
 3710SOL     OW28271   5.901   5.826   0.758  0.4056  0.1125 -0.1115
 3710SOL    HW128272   5.925   5.747   0.806  1.5087 -0.6317 -1.7960
 3710SOL    HW228273   5.982   5.853   0.714 -0.2044  1.6043 -0.3744
 3711SOL     OW28274   4.488   3.300   0.745 -0.1293 -0.3075 -0.3979
 3711SOL    HW128275   4.537   3.225   0.776  0.3249  0.5765  1.1561
 3711SOL    HW228276   4.396   3.271   0.744  0.1332 -1.1447 -0.7407
 3712SOL     OW28277   6.319   6.207   6.816 -0.3091  0.0415  0.3611
 3712SOL    HW128278   6.308   6.287   6.868  0.8874  0.9489 -0.7037
 3712SOL    HW228279   6.406   6.175   6.839 -0.2403 -0.2018 -0.2101
 3713SOL     OW28280   4.563   0.784   1.224 -0.3510  0.6541  0.1012
 3713SOL    HW128281   4.654   0.771   1.198 -0.2361  0.5793  0.5373
 3713SOL    HW228282   4.522   0.823   1.147  0.1815  1.2141  0.0873
 3714SOL     OW28283   2.273   3.760   6.272 -0.0028 -0.2061  0.1355
 3714SOL    HW128284   2.311   3.709   6.201 -0.7057 -2.1209  1.0703
 3714SOL    HW228285   2.189   3.717   6.291 -0.0795  0.5605  1.7654
 3715SOL     OW28286   3.788   3.991   5.175 -0.0984 -0.0154  0.3098
 3715SOL    HW128287   3.750   3.923   5.118  0.2207  0.7354 -0.8422
 3715SOL    HW228288   3.720   4.057   5.181  0.1562  0.2612  0.1615
 3716SOL     OW28289   5.056   3.634   1.126  0.0573 -0.4978 -0.8896
 3716SOL    HW128290   5.070   3.706   1.188 -1.6477 -1.3065  0.5111
 3716SOL    HW228291   5.143   3.594   1.117  1.0259  1.5812 -1.5967
 3717SOL     OW28292   1.918   5.565   0.780  0.0109  0.1256  0.0654
 3717SOL    HW128293   1.915   5.525   0.867 -0.9007  0.1507  0.0569
 3717SOL    HW228294   1.884   5.498   0.721 -0.0838  0.3714 -0.1609
 3718SOL     OW28295   1.604   5.668   5.835 -0.4736 -0.4356 -0.0887
 3718SOL    HW128296   1.671   5.608   5.803  1.4775  1.4059  0.3297
 3718SOL    HW228297   1.587   5.727   5.762 -1.4485 -0.6926 -0.0853
 3719SOL     OW28298   2.167   5.937   6.489  0.0619  0.2045 -0.4631
 3719SOL    HW128299   2.135   5.989   6.562 -0.8262 -2.5422  1.2602
 3719SOL    HW228300   2.165   5.846   6.521  5.3088 -0.7048 -1.8237
 3720SOL     OW28301   4.669   5.017   7.285  0.1790  0.1334 -0.2387
 3720SOL    HW128302   4.698   4.926   7.283 -3.6360 -1.4282  2.4866
 3720SOL    HW228303   4.622   5.029   7.202  1.6462  0.0738 -1.1108
 3721SOL     OW28304   1.130   4.856   6.764  0.0287 -0.2032  0.1263
 3721SOL    HW128305   1.157   4.948   6.761 -2.1500  0.5425  0.9498
 3721SOL    HW228306   1.109   4.835   6.673 -2.1582  1.0892  0.2475
 3722SOL     OW28307   1.910   2.930   0.656  0.3004 -0.2276  0.1329
 3722SOL    HW128308   1.994   2.954   0.694  0.1011 -1.0717  1.1458
 3722SOL    HW228309   1.876   3.011   0.620  0.8953  0.4228  0.9936
 3723SOL     OW28310   4.440   1.733   0.378  0.1051 -0.2632  0.1181
 3723SOL    HW128311   4.457   1.778   0.295 -0.2046 -2.0122 -0.9504
 3723SOL    HW228312   4.358   1.686   0.364  0.9902 -2.1177  0.7045
 3724SOL     OW28313   3.201   5.485   6.962 -0.3266  0.5274  0.2622
 3724SOL    HW128314   3.268   5.417   6.955 -0.4659  0.3541  0.6150
 3724SOL    HW228315   3.225   5.549   6.895 -0.4898 -0.1247 -0.4316
 3725SOL     OW28316   2.043   4.114   6.265 -0.3248 -0.4716 -0.2480
 3725SOL    HW128317   1.951   4.137   6.278 -0.5758 -1.6021  0.1148
 3725SOL    HW228318   2.043   4.067   6.181  0.0287  0.1030 -0.5679
 3726SOL     OW28319   3.216   1.719   7.202  0.0344 -0.5855  0.6007
 3726SOL    HW128320   3.260   1.645   7.245  0.5318 -0.8547 -0.3365
 3726SOL    HW228321   3.202   1.689   7.112 -1.3065 -0.1698  0.6620
 3727SOL     OW28322   0.432   5.856   7.383  0.4356 -0.2631  0.6088
 3727SOL    HW128323   0.491   5.792   7.424  2.0969  0.8378  0.0731
 3727SOL    HW228324   0.387   5.898   7.456  0.0918 -1.3127  1.0186
 3728SOL     OW28325   6.107   0.698   5.488 -0.3699  0.0630 -0.0171
 3728SOL    HW128326   6.183   0.667   5.536 -0.2709  1.3270  0.6767
 3728SOL    HW228327   6.142   0.729   5.404 -0.0223  1.1329  0.5073
 3729SOL     OW28328   2.891   4.015   0.783  0.9805 -0.6456 -0.1483
 3729SOL    HW128329   2.912   4.032   0.691 -0.5928  2.3782 -0.0644
 3729SOL    HW228330   2.800   4.043   0.792  1.1911 -0.5895  2.4056
 3730SOL     OW28331   2.020   3.980   7.458 -0.3864 -0.4104 -0.5010
 3730SOL    HW128332   2.108   3.988   7.497 -0.2153 -0.8690 -0.7854
 3730SOL    HW228333   1.963   3.963   7.532  0.0387 -1.9938 -0.4939
 3731SOL     OW28334   1.516   1.080   1.552  0.6869 -0.0198  0.9986
 3731SOL    HW128335   1.526   0.986   1.559 -0.3213 -0.0316  2.7949
 3731SOL    HW228336   1.439   1.092   1.496  1.3844 -0.2269 -0.0190
 3732SOL     OW28337   6.221   4.642   6.704 -0.6544 -0.0208  0.5378
 3732SOL    HW128338   6.210   4.551   6.731  3.2829 -1.5767 -2.1376
 3732SOL    HW228339   6.162   4.652   6.629 -1.2132 -0.2969  0.9343
 3733SOL     OW28340   3.462   0.474   0.197 -0.1512  0.0726  0.2030
 3733SOL    HW128341   3.544   0.426   0.183 -0.8417 -1.4615  1.1388
 3733SOL    HW228342   3.393   0.412   0.173 -1.1065  0.1975  2.3762
 3734SOL     OW28343   5.424   4.359   1.233  0.4081 -0.2225 -0.3639
 3734SOL    HW128344   5.334   4.390   1.230  0.7557  1.0928  1.0884
 3734SOL    HW228345   5.447   4.361   1.326  1.6670 -1.3983 -0.6013
 3735SOL     OW28346   4.854   1.305   0.913  0.4082 -0.3362  0.1526
 3735SOL    HW128347   4.941   1.326   0.878 -0.0655 -0.1287 -0.9518
 3735SOL    HW228348   4.796   1.371   0.874 -0.4377 -1.2146 -0.1133
 3736SOL     OW28349   1.454   4.658   0.144  0.4180  0.4603  0.6135
 3736SOL    HW128350   1.491   4.593   0.084  0.8967  1.3711 -0.1155
 3736SOL    HW228351   1.389   4.704   0.091  0.4917  0.9461  0.9402
 3737SOL     OW28352   4.679   0.826   7.023 -0.6865 -0.0017 -0.0540
 3737SOL    HW128353   4.594   0.806   6.983 -0.1852 -0.9815 -0.6549
 3737SOL    HW228354   4.692   0.758   7.089 -1.2630  1.2989  1.4844
 3738SOL     OW28355   2.849   5.718   7.408 -0.1895 -0.7155 -0.3062
 3738SOL    HW128356   2.871   5.727   7.501 -1.7781 -0.4129  0.0539
 3738SOL    HW228357   2.800   5.797   7.386 -1.1162 -1.4693 -1.0183
 3739SOL     OW28358   4.501   2.192   0.893 -0.4399 -0.3520 -0.3499
 3739SOL    HW128359   4.575   2.214   0.837  0.4423 -0.9196  0.5710
 3739SOL    HW228360   4.432   2.166   0.832  0.5530 -1.1236 -1.1736
 3740SOL     OW28361   3.946   1.567   6.251  0.1004  0.4900 -0.1831
 3740SOL    HW128362   4.009   1.618   6.199  1.0501 -0.0073  0.4373
 3740SOL    HW228363   3.930   1.488   6.199 -0.1935  0.7239 -0.4491
 3741SOL     OW28364   4.024   6.057   7.458 -0.1033  0.0354 -0.4562
 3741SOL    HW128365   3.989   6.090   7.375 -0.3189  0.2953 -0.2605
 3741SOL    HW228366   4.112   6.027   7.435  0.0119  0.5284 -0.6863
 3742SOL     OW28367   2.836   0.349   0.483  0.2372 -0.2716  0.3748
 3742SOL    HW128368   2.897   0.283   0.516  0.5438 -1.3192 -2.0292
 3742SOL    HW228369   2.752   0.304   0.481 -0.2193  0.4792  1.6685
 3743SOL     OW28370   3.550   2.498   7.387 -0.2610  0.0482  0.0835
 3743SOL    HW128371   3.601   2.514   7.467 -1.2723  1.1455  0.5430
 3743SOL    HW228372   3.601   2.433   7.339  1.5043  1.0123  0.5749
 3744SOL     OW28373   1.283   4.395   6.985 -0.7789  0.0373 -0.3294
 3744SOL    HW128374   1.304   4.483   7.016 -0.8287  0.0027 -0.1961
 3744SOL    HW228375   1.247   4.351   7.062 -0.7890 -0.0871 -0.4057
 3745SOL     OW28376   2.954   1.652   6.342 -0.5269  1.2794 -0.3925
 3745SOL    HW128377   2.883   1.593   6.366 -0.1480  1.0626  0.2453
 3745SOL    HW228378   2.958   1.649   6.247 -1.0865  0.9563 -0.4050
 3746SOL     OW28379   1.885   3.534   2.547 -0.0950 -0.3707  0.2186
 3746SOL    HW128380   1.962   3.491   2.583 -0.7121 -1.2660  0.5268
 3746SOL    HW228381   1.829   3.550   2.623  0.3142  1.4558  0.1816
 3747SOL     OW28382   4.856   6.319   7.588  0.4581  0.1593 -0.7506
 3747SOL    HW128383   4.835   6.226   7.587  0.1205  0.2346 -1.4484
 3747SOL    HW228384   4.792   6.358   7.648  0.1366  0.0396 -1.0108
 3748SOL     OW28385   0.735   5.501   0.445 -0.0063  0.0161  0.3842
 3748SOL    HW128386   0.698   5.544   0.368  0.8335 -0.4687 -0.3043
 3748SOL    HW228387   0.664   5.503   0.510 -1.5741 -1.6369 -1.1523
 3749SOL     OW28388   5.535   6.086   6.055 -0.2166  0.0308  0.7245
 3749SOL    HW128389   5.605   6.143   6.086 -1.4322  0.8812  1.9991
 3749SOL    HW228390   5.454   6.130   6.082 -1.3057 -0.3616 -1.6560
 3750SOL     OW28391   0.235   3.475   0.160  0.2222  0.6515 -0.6121
 3750SOL    HW128392   0.291   3.545   0.127  1.3982  1.0066  1.8828
 3750SOL    HW228393   0.148   3.514   0.166  0.5773  1.4470 -0.6019
 3751SOL     OW28394   0.089   5.513   1.246 -0.5527 -0.2596 -0.4237
 3751SOL    HW128395   0.144   5.440   1.219 -1.0103 -0.7004 -0.1842
 3751SOL    HW228396   0.098   5.517   1.341 -1.9173 -1.1607 -0.2343
 3752SOL     OW28397   1.448   3.628   6.967  0.4871 -0.0969  0.4347
 3752SOL    HW128398   1.374   3.574   6.993  0.4209 -0.2248 -0.0045
 3752SOL    HW228399   1.448   3.624   6.871  1.2964 -0.4112  0.4390
 3753SOL     OW28400   4.744   5.787   0.021  0.0238 -0.3302 -0.5670
 3753SOL    HW128401   4.726   5.864   0.075  1.0942 -0.0920 -0.5380
 3753SOL    HW228402   4.659   5.744   0.012 -0.2434 -0.2020  1.0466
 3754SOL     OW28403   6.396   1.818   7.606  0.6015 -0.0819  0.0458
 3754SOL    HW128404   6.350   1.838   7.524  0.8451  0.0368 -0.0643
 3754SOL    HW228405   6.466   1.759   7.580  0.3774 -0.4428  0.2483
 3755SOL     OW28406   2.698   2.300   6.430 -0.5345  0.5238  0.1377
 3755SOL    HW128407   2.637   2.336   6.494  0.0619  1.8447 -0.0060
 3755SOL    HW228408   2.724   2.375   6.377 -1.1384 -0.5512 -1.7791
 3756SOL     OW28409   1.447   0.086   5.615  0.3162  0.1814  0.1719
 3756SOL    HW128410   1.514   0.154   5.615 -0.2854  0.8916 -2.4762
 3756SOL    HW228411   1.494   0.005   5.594  0.5528  0.4313 -0.2716
 3757SOL     OW28412   1.759   5.533   6.136  0.0989 -0.2964 -0.2453
 3757SOL    HW128413   1.802   5.539   6.051 -0.6587  0.6954 -0.5820
 3757SOL    HW228414   1.697   5.461   6.126  1.3696 -1.4816  0.1221
 3758SOL     OW28415   3.339   4.210   7.430 -0.3199  0.0139 -0.0415
 3758SOL    HW128416   3.260   4.257   7.404  0.9265  1.4645 -1.3722
 3758SOL    HW228417   3.374   4.175   7.348  1.0744  0.4669  0.3352
 3759SOL     OW28418   4.493   5.765   7.251  0.7670  0.1113 -0.3590
 3759SOL    HW128419   4.431   5.763   7.178  2.3884  0.0018 -1.8260
 3759SOL    HW228420   4.564   5.706   7.222  0.6494 -1.3628  2.1078
 3760SOL     OW28421   5.964   5.409   7.425 -0.4254 -0.3212 -0.4734
 3760SOL    HW128422   5.871   5.429   7.435 -0.8552 -1.2816 -2.1614
 3760SOL    HW228423   5.980   5.417   7.331  1.2070 -0.1834 -0.2068
 3761SOL     OW28424   5.269   4.501   0.403 -0.6235 -0.4752 -0.1374
 3761SOL    HW128425   5.206   4.436   0.373 -0.7210  0.5232 -2.3140
 3761SOL    HW228426   5.238   4.583   0.364 -0.9607  1.1094  3.1423
 3762SOL     OW28427   0.530   3.506   1.787 -0.0044  0.1369 -0.0631
 3762SOL    HW128428   0.467   3.534   1.854 -1.2747 -0.5337 -0.9260
 3762SOL    HW228429   0.519   3.411   1.784  2.3921 -0.2497  1.0372
 3763SOL     OW28430   1.457   0.708   0.508 -0.0725 -0.2927  0.7186
 3763SOL    HW128431   1.547   0.708   0.476 -0.0646 -0.0566  0.7368
 3763SOL    HW228432   1.415   0.779   0.460 -0.6293 -1.3071 -0.3501
 3764SOL     OW28433   1.087   4.709   1.295  0.3514 -0.3434  0.4383
 3764SOL    HW128434   1.155   4.699   1.362  1.0068 -1.0347 -0.3084
 3764SOL    HW228435   1.007   4.682   1.339  0.5435  0.4755  1.3288
 3765SOL     OW28436   4.256   5.618   5.438 -0.5990 -0.3332  0.1465
 3765SOL    HW128437   4.217   5.600   5.524 -0.4082  1.0927  0.5636
 3765SOL    HW228438   4.345   5.582   5.444 -0.8578 -0.9585  0.2530
 3766SOL     OW28439   5.358   0.061   0.934 -0.1310 -0.7871 -0.7665
 3766SOL    HW128440   5.337   0.006   1.009 -0.3244 -0.3360 -0.4806
 3766SOL    HW228441   5.277   0.107   0.915  0.2301 -0.0196 -0.4993
 3767SOL     OW28442   1.340   4.237   0.792  0.5938  0.0491  0.0390
 3767SOL    HW128443   1.373   4.213   0.878  0.1774 -1.3339 -0.1507
 3767SOL    HW228444   1.351   4.158   0.739 -1.6801 -0.0415 -0.4095
 3768SOL     OW28445   6.149   2.089   1.003 -0.3206  0.1849 -0.4231
 3768SOL    HW128446   6.155   2.170   0.951 -0.6421 -0.4428 -1.4594
 3768SOL    HW228447   6.225   2.093   1.061  2.5781 -0.9980 -3.7217
 3769SOL     OW28448   0.355   0.555   0.241 -0.0835 -0.2365  0.3495
 3769SOL    HW128449   0.301   0.489   0.284  0.1351 -1.1953 -0.7924
 3769SOL    HW228450   0.441   0.514   0.233 -0.3891 -0.5543 -1.9654
 3770SOL     OW28451   2.871   3.711   6.160  0.3642 -0.0004 -0.4960
 3770SOL    HW128452   2.914   3.724   6.076 -0.7345  0.7911 -0.9692
 3770SOL    HW228453   2.780   3.739   6.144  0.3583  1.0396  1.1902
 3771SOL     OW28454   6.042   5.344   0.159  0.1795  0.1065  0.1838
 3771SOL    HW128455   5.948   5.354   0.172  0.3440 -0.0757  1.7695
 3771SOL    HW228456   6.058   5.374   0.069 -1.4396 -0.2648 -0.2572
 3772SOL     OW28457   3.996   2.291   7.427 -0.1981 -0.0759  0.6526
 3772SOL    HW128458   3.931   2.360   7.436 -0.4888 -0.2195 -0.2787
 3772SOL    HW228459   4.032   2.302   7.339  0.6534 -0.3349  0.9512
 3773SOL     OW28460   1.031   4.722   0.799  0.3736 -0.1055  0.1049
 3773SOL    HW128461   1.093   4.649   0.802  1.3947  0.7849  1.2910
 3773SOL    HW228462   0.956   4.687   0.749  0.7400 -2.0211  0.8086
 3774SOL     OW28463   3.957   4.993   5.295 -0.2908 -0.4631  0.9795
 3774SOL    HW128464   3.969   5.088   5.284 -0.2965 -0.5523  0.1356
 3774SOL    HW228465   3.946   4.981   5.390  0.5219  0.2827  1.1749
 3775SOL     OW28466   1.238   5.271   6.272 -0.4822 -0.5771 -1.1832
 3775SOL    HW128467   1.192   5.352   6.249 -1.7535 -1.3766 -1.5112
 3775SOL    HW228468   1.266   5.235   6.188 -0.7660 -0.9651 -1.1129
 3776SOL     OW28469   0.593   1.125   6.118  0.6072 -0.1019  0.2997
 3776SOL    HW128470   0.582   1.109   6.212  1.6375  1.1429  0.6522
 3776SOL    HW228471   0.560   1.214   6.105  1.6844  0.2329 -0.2566
 3777SOL     OW28472   5.809   0.243   1.229 -0.4998 -0.6207  0.3382
 3777SOL    HW128473   5.884   0.272   1.177 -1.3468 -0.6315 -0.9432
 3777SOL    HW228474   5.835   0.258   1.320  1.1145 -0.7938 -0.0635
 3778SOL     OW28475   4.023   1.629   0.607 -0.0920  0.1834 -0.3511
 3778SOL    HW128476   4.089   1.620   0.538 -2.4504  0.6959 -2.8310
 3778SOL    HW228477   4.070   1.671   0.679  2.5847 -0.6474 -1.4762
 3779SOL     OW28478   2.516   2.755   1.828  0.1332  0.4071 -0.0883
 3779SOL    HW128479   2.454   2.692   1.866  0.0312  0.5597 -0.0026
 3779SOL    HW228480   2.512   2.831   1.886  0.0925  0.5787 -0.3141
 3780SOL     OW28481   4.439   6.348   1.635 -0.3852  0.0830  0.4197
 3780SOL    HW128482   4.498   6.283   1.673 -2.6881 -2.8643 -0.6243
 3780SOL    HW228483   4.408   6.399   1.710  2.0157  0.5720  1.1915
 3781SOL     OW28484   1.140   5.651   0.749 -0.4352 -0.5719  0.0779
 3781SOL    HW128485   1.162   5.728   0.802  0.6371 -1.0190  0.3087
 3781SOL    HW228486   1.046   5.638   0.764 -0.4056  0.0531  0.8848
 3782SOL     OW28487   1.583   4.493   7.665 -0.4550 -0.1177  0.1116
 3782SOL    HW128488   1.526   4.453   7.600 -0.1272 -0.8535  0.2679
 3782SOL    HW228489   1.601   4.423   7.728 -0.1790  0.3807  0.5975
 3783SOL     OW28490   5.242   2.684   1.914 -0.5122  0.1284  0.2424
 3783SOL    HW128491   5.157   2.640   1.915 -0.2948 -0.2938  0.7750
 3783SOL    HW228492   5.263   2.698   2.006  0.1816 -0.1320  0.1277
 3784SOL     OW28493   2.508   3.351   0.597  0.1642 -0.2121 -0.2615
 3784SOL    HW128494   2.482   3.382   0.510 -0.9745  0.4195  0.2846
 3784SOL    HW228495   2.540   3.262   0.582 -1.8123 -0.8507 -1.0792
 3785SOL     OW28496   2.655   4.525   0.511 -0.2195 -0.0714 -0.2640
 3785SOL    HW128497   2.600   4.516   0.589  0.6281 -0.0880  0.3522
 3785SOL    HW228498   2.594   4.527   0.438 -0.9561 -1.8612  0.2575
 3786SOL     OW28499   1.252   4.066   5.904  0.2094 -0.0969  0.1923
 3786SOL    HW128500   1.198   4.003   5.857 -0.8309  0.2460  0.8984
 3786SOL    HW228501   1.269   4.135   5.841  0.8121 -0.7559 -0.3866
 3787SOL     OW28502   1.612   2.208   0.180  0.1094 -0.3632  0.3752
 3787SOL    HW128503   1.618   2.214   0.275  0.5898 -0.0728  0.3320
 3787SOL    HW228504   1.704   2.209   0.150 -0.0301 -0.6070 -0.0797
 3788SOL     OW28505   4.476   4.426   6.888 -0.3415  0.1273  0.0627
 3788SOL    HW128506   4.388   4.404   6.918 -0.5406  1.6320  0.6499
 3788SOL    HW228507   4.534   4.378   6.948 -0.7538  0.8510  1.0674
 3789SOL     OW28508   1.570   6.080   7.240  0.0157 -0.3814  0.6426
 3789SOL    HW128509   1.537   5.994   7.266 -3.2565 -1.0046 -4.2892
 3789SOL    HW228510   1.511   6.142   7.284 -0.2814 -0.8621  0.9335
 3790SOL     OW28511   4.549   1.493   2.141 -0.0557 -0.0987  0.7061
 3790SOL    HW128512   4.508   1.481   2.056 -0.8575 -0.7038  1.1729
 3790SOL    HW228513   4.477   1.490   2.204  0.5021  0.5320  1.4017
 3791SOL     OW28514   4.628   4.901   6.294  0.2781  0.5376 -0.2317
 3791SOL    HW128515   4.619   4.975   6.234 -1.9858  0.2179 -0.3763
 3791SOL    HW228516   4.560   4.915   6.360  1.9632  0.2761  1.6334
 3792SOL     OW28517   0.031   1.119   0.012  0.1434  0.4090 -0.3945
 3792SOL    HW128518   0.092   1.046   0.011 -1.4646 -0.9927 -1.6281
 3792SOL    HW228519   0.057   1.171   0.088  0.1442 -2.5313  1.7974
 3793SOL     OW28520   6.342   5.678   1.924 -0.0444 -0.5033  0.1210
 3793SOL    HW128521   6.368   5.731   1.999  1.7227 -1.9556  0.6204
 3793SOL    HW228522   6.247   5.668   1.934  0.2751 -1.7578  3.0066
 3794SOL     OW28523   2.743   0.912   1.473  0.1026  0.4895 -0.6859
 3794SOL    HW128524   2.756   0.942   1.563  0.6600 -0.0556 -0.5844
 3794SOL    HW228525   2.650   0.892   1.468  0.2335 -0.3301  0.0318
 3795SOL     OW28526   6.253   1.185   0.717 -0.1109 -0.4217 -0.3005
 3795SOL    HW128527   6.168   1.142   0.714  0.6137 -1.8934 -1.6484
 3795SOL    HW228528   6.244   1.262   0.660 -0.8700  0.1508  0.5713
 3796SOL     OW28529   1.251   3.812   7.731 -0.5614  0.0698 -0.5841
 3796SOL    HW128530   1.225   3.746   7.667 -2.3439 -0.3648  0.5230
 3796SOL    HW228531   1.296   3.763   7.800 -0.4459  0.2418 -0.5365
 3797SOL     OW28532   5.449   4.434   6.840 -0.6560  0.2020 -0.6167
 3797SOL    HW128533   5.529   4.382   6.834 -0.1282  0.9784 -0.5312
 3797SOL    HW228534   5.399   4.393   6.910  0.1388  0.3193  0.0388
 3798SOL     OW28535   2.006   3.051   1.133 -0.8263  0.3729  0.2323
 3798SOL    HW128536   2.068   2.989   1.173  1.3882  1.7381 -0.9079
 3798SOL    HW228537   1.985   3.012   1.048  0.7380  1.2461 -0.5771
 3799SOL     OW28538   5.275   6.108   0.222  0.3284  0.3968  0.2476
 3799SOL    HW128539   5.242   6.024   0.252 -0.3836  0.1143 -1.2175
 3799SOL    HW228540   5.337   6.135   0.290 -0.0968 -0.8684  1.1862
 3800SOL     OW28541   2.138   6.304   6.043 -0.5254 -0.1526 -0.2789
 3800SOL    HW128542   2.226   6.267   6.043 -1.0426 -1.4565  0.4489
 3800SOL    HW228543   2.110   6.299   6.134 -1.3632  0.2554 -0.5056
 3801SOL     OW28544   4.405   1.231   5.614  0.2501 -0.2728  0.0348
 3801SOL    HW128545   4.403   1.249   5.520 -2.1715 -1.8165 -0.2722
 3801SOL    HW228546   4.341   1.291   5.652  1.1429  0.2752  0.7396
 3802SOL     OW28547   0.917   2.509   6.692 -0.4889 -0.4409 -0.0610
 3802SOL    HW128548   0.997   2.528   6.644  0.1990 -0.6243  0.9628
 3802SOL    HW228549   0.910   2.414   6.692 -0.6681 -0.4290 -0.0932
 3803SOL     OW28550   1.776   6.296   6.042  0.3334 -0.1423  0.5918
 3803SOL    HW128551   1.730   6.216   6.065 -0.3963  0.1663  0.2329
 3803SOL    HW228552   1.799   6.336   6.126  2.4479 -1.6845  0.8160
 3804SOL     OW28553   4.503   0.862   0.416 -0.3019  0.0209  0.3173
 3804SOL    HW128554   4.512   0.894   0.326 -0.1653 -0.4765  0.1510
 3804SOL    HW228555   4.408   0.861   0.432 -0.2715  2.8712  1.2036
 3805SOL     OW28556   5.708   5.117   0.568 -0.1583 -0.4709  0.6208
 3805SOL    HW128557   5.755   5.083   0.645  2.7818 -1.5394 -1.4424
 3805SOL    HW228558   5.766   5.185   0.533 -1.0385 -0.5298 -1.0448
 3806SOL     OW28559   2.232   0.126   6.993  0.1953 -0.3981 -0.2461
 3806SOL    HW128560   2.303   0.142   6.930 -0.3013 -2.1144 -1.3070
 3806SOL    HW228561   2.228   0.031   7.001 -0.9773 -0.2726  0.9912
 3807SOL     OW28562   4.842   5.268   7.068  0.2261 -0.2939 -0.1177
 3807SOL    HW128563   4.806   5.282   7.155 -0.4267 -0.9185 -0.2729
 3807SOL    HW228564   4.931   5.236   7.082  0.1652 -0.2684  0.3120
 3808SOL     OW28565   2.199   2.811   6.774  0.3302  0.7720  0.2065
 3808SOL    HW128566   2.106   2.822   6.792 -0.0580 -2.7497  1.1510
 3808SOL    HW228567   2.202   2.755   6.696  1.5492 -0.2448  0.9281
 3809SOL     OW28568   6.150   2.455   6.949 -0.2323  0.0105  0.6538
 3809SOL    HW128569   6.143   2.484   7.040 -0.6630 -0.3904  0.7538
 3809SOL    HW228570   6.071   2.490   6.907 -1.4641 -2.0810  1.0857
 3810SOL     OW28571   2.414   5.726   0.749  0.3731  0.3825  0.5375
 3810SOL    HW128572   2.343   5.775   0.706  1.2235  1.8762  0.7475
 3810SOL    HW228573   2.371   5.650   0.788 -0.6903 -0.1347 -1.5052
 3811SOL     OW28574   0.054   2.760   6.727  0.1583  0.3659 -0.4470
 3811SOL    HW128575   0.081   2.724   6.643  5.1946 -1.1876  1.4618
 3811SOL    HW228576   0.010   2.687   6.771  1.0109 -0.1481 -0.4104
 3812SOL     OW28577   4.149   0.275   0.160 -0.3479  0.2456 -0.2547
 3812SOL    HW128578   4.224   0.263   0.219 -1.1498 -2.8025  0.3092
 3812SOL    HW228579   4.083   0.318   0.213 -0.3360 -0.5957  0.4587
 3813SOL     OW28580   4.180   2.816   1.662 -0.2588 -0.6798  0.3797
 3813SOL    HW128581   4.160   2.900   1.703 -0.0558 -0.1559 -0.5634
 3813SOL    HW228582   4.249   2.779   1.717  1.2595  0.8052 -0.4193
 3814SOL     OW28583   1.185   2.176   0.884  0.3801 -0.2579 -0.0286
 3814SOL    HW128584   1.144   2.250   0.930 -0.5647 -1.1639  0.6324
 3814SOL    HW228585   1.195   2.207   0.794 -1.5386  0.1337 -0.1603
 3815SOL     OW28586   3.751   5.035   6.039 -0.7646  0.0295 -0.0411
 3815SOL    HW128587   3.787   4.990   6.115 -0.0197  0.2411 -0.2580
 3815SOL    HW228588   3.810   5.109   6.025 -0.4293 -0.4507 -1.2974
 3816SOL     OW28589   4.026   4.837   5.079  0.1811  0.1614  0.1520
 3816SOL    HW128590   4.035   4.899   5.007  0.3146  1.0513  0.9181
 3816SOL    HW228591   3.997   4.890   5.154  1.7703 -0.4181  1.2291
 3817SOL     OW28592   0.431   5.184   5.239 -0.1013  0.2369  0.2625
 3817SOL    HW128593   0.403   5.249   5.174 -2.6856  0.1748  1.1728
 3817SOL    HW228594   0.525   5.178   5.228 -0.0508  2.5084 -1.3676
 3818SOL     OW28595   4.334   2.586   6.890 -0.2086  0.4189  0.6650
 3818SOL    HW128596   4.293   2.672   6.882  0.0839  0.4593 -0.5408
 3818SOL    HW228597   4.266   2.524   6.862 -0.7186  0.1528  2.3579
 3819SOL     OW28598   5.572   6.100   7.536  0.4943  0.2210 -0.3242
 3819SOL    HW128599   5.513   6.122   7.608  1.8616  2.4167  0.2133
 3819SOL    HW228600   5.660   6.101   7.575  1.2149  0.8043 -1.8592
 3820SOL     OW28601   1.276   4.863   6.261  0.5729 -0.3999  0.3153
 3820SOL    HW128602   1.372   4.856   6.268  0.5771  0.3820  1.2885
 3820SOL    HW228603   1.260   4.888   6.171  1.4134  1.2234  0.5932
 3821SOL     OW28604   6.148   1.842   2.039  0.2208 -0.7914 -0.5141
 3821SOL    HW128605   6.168   1.925   2.082  0.5974  0.0606 -2.2499
 3821SOL    HW228606   6.133   1.781   2.111 -2.6568  1.3314  0.8528
 3822SOL     OW28607   1.068   6.318   1.580 -0.1984 -0.4287  0.5295
 3822SOL    HW128608   1.125   6.301   1.655 -0.1256 -1.3635  0.2783
 3822SOL    HW228609   1.107   6.394   1.537 -0.2258  0.1020  1.4129
 3823SOL     OW28610   0.385   2.888   1.563 -0.4875  0.4399 -0.0802
 3823SOL    HW128611   0.299   2.863   1.597 -0.6934  0.9355 -0.2334
 3823SOL    HW228612   0.408   2.968   1.611  0.6567 -0.6013  1.1941
 3824SOL     OW28613   0.834   3.800   6.990  0.3375  0.7440 -0.2597
 3824SOL    HW128614   0.871   3.815   7.077 -0.2947 -0.5342  0.2597
 3824SOL    HW228615   0.873   3.717   6.962 -0.2836  0.6085 -0.7365
 3825SOL     OW28616   2.573   4.067   7.072 -0.3062  0.7827 -0.2168
 3825SOL    HW128617   2.587   4.000   7.138 -1.8830  0.0255 -0.5820
 3825SOL    HW228618   2.589   4.022   6.989 -0.5387  1.0935 -0.4315
 3826SOL     OW28619   1.952   5.025   0.630  0.0821  0.4691  0.7757
 3826SOL    HW128620   1.984   5.013   0.720 -1.1070 -1.0491  1.0451
 3826SOL    HW228621   1.857   5.011   0.637  0.1622 -1.3765 -0.9544
 3827SOL     OW28622   5.957   0.530   6.473 -0.0954 -0.0996 -0.0589
 3827SOL    HW128623   5.933   0.517   6.381 -3.1268 -0.4034  0.6828
 3827SOL    HW228624   5.886   0.488   6.522  0.2132  2.0692  2.4264
 3828SOL     OW28625   3.499   0.050   0.886  0.2770  0.2108  0.6525
 3828SOL    HW128626   3.440   0.040   0.812 -0.3796 -0.9133  1.3016
 3828SOL    HW228627   3.581   0.011   0.857  1.0293  2.5116 -0.5491
 3829SOL     OW28628   5.948   4.268   5.528 -0.3952 -0.3989  0.0119
 3829SOL    HW128629   5.972   4.185   5.488 -1.7537 -0.5755 -0.4808
 3829SOL    HW228630   5.862   4.288   5.493  0.1510  1.5428 -0.3840
 3830SOL     OW28631   1.016   2.341   0.485 -0.1168  0.1320  0.3632
 3830SOL    HW128632   0.983   2.425   0.452 -2.2637 -0.5606  0.5917
 3830SOL    HW228633   0.961   2.275   0.441 -0.2977 -0.9984  2.1939
 3831SOL     OW28634   5.301   0.902   7.140 -0.0673 -0.1039  0.3208
 3831SOL    HW128635   5.286   0.985   7.185 -1.0722 -0.6298  0.9884
 3831SOL    HW228636   5.375   0.863   7.187  0.2539  0.2946  0.1560
 3832SOL     OW28637   1.258   0.352   6.363  0.2366  0.0638 -0.0269
 3832SOL    HW128638   1.325   0.285   6.376 -0.0989 -0.6315 -1.6618
 3832SOL    HW228639   1.298   0.433   6.396  1.1761 -0.6696  0.6809
 3833SOL     OW28640   5.674   3.018   7.736  0.2117 -0.0091 -0.4639
 3833SOL    HW128641   5.705   3.107   7.722 -0.5430  0.6400  1.6402
 3833SOL    HW228642   5.696   2.999   7.827 -1.3523 -1.2621 -0.3072
 3834SOL     OW28643   1.618   3.663   6.263  0.2729  0.0476 -0.2543
 3834SOL    HW128644   1.613   3.621   6.349 -0.2307 -0.2241 -0.4163
 3834SOL    HW228645   1.676   3.606   6.212  0.6743  0.2775 -0.0578
 3835SOL     OW28646   3.060   5.435   1.238 -0.3630  0.7756  0.4523
 3835SOL    HW128647   3.106   5.373   1.295 -2.2833 -0.6438  0.5289
 3835SOL    HW228648   3.075   5.521   1.279 -0.5376 -0.0403  2.3236
 3836SOL     OW28649   5.522   3.521   0.749 -0.1057 -0.1701 -0.7821
 3836SOL    HW128650   5.573   3.506   0.670  0.5413  0.7136 -0.5522
 3836SOL    HW228651   5.476   3.603   0.733  0.9074  0.6203  0.1575
 3837SOL     OW28652   6.450   4.154   7.703 -0.2454  0.0531 -0.1496
 3837SOL    HW128653   6.369   4.142   7.752 -0.3038  1.2748  0.0695
 3837SOL    HW228654   6.485   4.238   7.733  0.9238 -0.2860 -0.4976
 3838SOL     OW28655   4.633   3.674   0.497 -0.1181  0.2115  0.0745
 3838SOL    HW128656   4.635   3.752   0.442 -1.8146  1.5432  1.7637
 3838SOL    HW228657   4.541   3.665   0.522  0.1767 -1.8548  0.6419
 3839SOL     OW28658   5.910   4.323   6.031 -0.5365 -0.0176  0.1227
 3839SOL    HW128659   5.857   4.386   5.981  0.0289  0.0272 -0.4275
 3839SOL    HW228660   5.997   4.363   6.034 -0.5517 -0.0398  1.1133
 3840SOL     OW28661   1.406   6.444   0.179 -0.0587 -0.2006 -0.8114
 3840SOL    HW128662   1.427   6.389   0.255  0.7210  1.7546  0.4762
 3840SOL    HW228663   1.314   6.427   0.162 -0.7795  0.6124  1.7818
 3841SOL     OW28664   5.122   2.958   6.747  0.1608  0.0234 -0.5054
 3841SOL    HW128665   5.122   2.879   6.801  1.3633 -0.2455 -0.8788
 3841SOL    HW228666   5.142   3.029   6.808 -3.2524  0.4772  0.3329
 3842SOL     OW28667   1.262   3.427   6.092 -0.5205  0.1355  0.0850
 3842SOL    HW128668   1.353   3.399   6.104 -0.7497 -0.5970  0.1785
 3842SOL    HW228669   1.251   3.432   5.997 -0.7215 -0.9651  0.0373
 3843SOL     OW28670   4.985   4.839   5.886  0.0394 -0.7417  0.5229
 3843SOL    HW128671   4.913   4.777   5.876  0.4348 -1.1282 -0.0238
 3843SOL    HW228672   5.064   4.786   5.870  0.4918 -0.4927  1.8459
 3844SOL     OW28673   4.264   2.418   5.912 -0.4496  0.5469  0.0911
 3844SOL    HW128674   4.287   2.491   5.854  3.1413 -0.0815  0.4774
 3844SOL    HW228675   4.242   2.346   5.852  0.4692  0.6977 -0.4579
 3845SOL     OW28676   2.565   2.908   6.993 -0.4011 -0.4038 -0.0702
 3845SOL    HW128677   2.541   2.884   6.903 -0.1952 -2.4573  0.3594
 3845SOL    HW228678   2.516   2.846   7.047 -0.5669  0.8528  1.2447
 3846SOL     OW28679   5.858   1.145   1.610  0.4464 -0.1163  0.6391
 3846SOL    HW128680   5.915   1.069   1.600  2.0327  1.0934  0.1008
 3846SOL    HW228681   5.882   1.181   1.695  1.5908  1.2231 -0.2047
 3847SOL     OW28682   3.455   4.030   0.964 -0.1154  0.7032 -0.4340
 3847SOL    HW128683   3.531   4.082   0.990 -0.4016  1.3159 -0.7954
 3847SOL    HW228684   3.463   3.948   1.013  0.9849  0.6067 -0.7667
 3848SOL     OW28685   1.245   0.823   5.375  0.2638 -0.1231 -0.1711
 3848SOL    HW128686   1.267   0.895   5.317  0.2040 -0.5197 -0.6969
 3848SOL    HW228687   1.185   0.861   5.439 -0.0015  0.2243 -0.6198
 3849SOL     OW28688   2.100   6.108   1.336  0.4116 -0.1234 -0.1702
 3849SOL    HW128689   2.034   6.038   1.339  0.7324 -0.5408 -1.9162
 3849SOL    HW228690   2.054   6.184   1.372 -0.6181 -0.7218 -0.1529
 3850SOL     OW28691   5.019   4.687   0.869  0.2337  0.2604  0.3102
 3850SOL    HW128692   4.937   4.725   0.839  1.0826  0.6291 -1.7326
 3850SOL    HW228693   5.009   4.593   0.855 -0.0709  0.2325  0.7008
 3851SOL     OW28694   1.705   3.642   2.361  0.1894 -0.5767 -0.6330
 3851SOL    HW128695   1.727   3.608   2.274  0.7480 -0.8601 -0.3869
 3851SOL    HW228696   1.767   3.599   2.420  2.0781  2.0639 -0.5062
 3852SOL     OW28697   2.367   0.347   6.416 -0.6970 -0.2480 -0.0184
 3852SOL    HW128698   2.321   0.427   6.442  0.0320  0.3494 -0.4932
 3852SOL    HW228699   2.459   0.365   6.438 -0.5364 -1.0000 -0.0471
 3853SOL     OW28700   4.959   3.030   5.967 -0.1741  0.3718 -0.3197
 3853SOL    HW128701   5.043   3.059   6.001  0.3316 -0.6178 -0.6911
 3853SOL    HW228702   4.904   3.020   6.045  0.6562 -0.8669  0.1268
 3854SOL     OW28703   1.619   3.356   7.583 -0.3431 -0.0590 -0.1428
 3854SOL    HW128704   1.630   3.310   7.500  0.4464 -0.1238 -0.0127
 3854SOL    HW228705   1.531   3.392   7.579 -0.3658 -0.1821 -0.9517
 3855SOL     OW28706   1.602   2.817   6.527 -0.7468 -0.2179  0.3645
 3855SOL    HW128707   1.635   2.738   6.484  0.2529  0.4740 -0.1943
 3855SOL    HW228708   1.681   2.869   6.546 -1.3293  0.3395  1.3386
 3856SOL     OW28709   4.084   6.239   6.233 -0.3586  0.4688 -0.7044
 3856SOL    HW128710   3.991   6.260   6.220 -0.6050 -0.1440 -0.0134
 3856SOL    HW228711   4.119   6.231   6.145 -1.2055 -0.2931 -0.9939
 3857SOL     OW28712   2.863   0.311   6.132 -0.4032  0.2830 -0.0271
 3857SOL    HW128713   2.797   0.362   6.086 -0.3916  0.5571  0.2507
 3857SOL    HW228714   2.913   0.376   6.182 -1.8279 -0.1743  2.1596
 3858SOL     OW28715   4.999   2.135   6.098 -0.4652  0.5080  0.2608
 3858SOL    HW128716   5.083   2.165   6.062 -0.0660 -0.8224  0.0055
 3858SOL    HW228717   5.024   2.087   6.177 -1.0422  0.5187  0.4513
 3859SOL     OW28718   2.209   0.875   7.513  0.2147 -0.2440 -0.1717
 3859SOL    HW128719   2.276   0.941   7.530 -0.2542  1.0782 -2.9132
 3859SOL    HW228720   2.132   0.907   7.561  0.5323  0.1296  0.1071
 3860SOL     OW28721   0.647   4.505   6.359 -0.0054  0.0940 -0.1186
 3860SOL    HW128722   0.659   4.579   6.417  1.1538 -0.3116  0.1983
 3860SOL    HW228723   0.680   4.430   6.408  1.6218 -0.1676 -1.4762
 3861SOL     OW28724   2.469   6.321   2.179 -0.1354  0.7215 -0.5571
 3861SOL    HW128725   2.518   6.284   2.106  0.8865  1.3757 -0.2223
 3861SOL    HW228726   2.535   6.362   2.235 -0.9396  0.5882  0.5341
 3862SOL     OW28727   0.756   3.325   2.163 -0.0908  0.4863  0.0116
 3862SOL    HW128728   0.769   3.240   2.121 -1.3554  0.2683  0.0193
 3862SOL    HW228729   0.840   3.371   2.152  0.3556 -0.4646 -0.6626
 3863SOL     OW28730   4.964   4.850   7.454  0.4274 -0.1231  0.0429
 3863SOL    HW128731   5.033   4.784   7.456  0.8298  0.3118  0.6125
 3863SOL    HW228732   4.887   4.805   7.488  0.6092 -0.4020  0.0828
 3864SOL     OW28733   1.818   4.850   5.350 -0.2127 -0.2219  0.1809
 3864SOL    HW128734   1.802   4.765   5.309  2.0749 -0.7514  0.2523
 3864SOL    HW228735   1.896   4.836   5.404 -1.6664  1.0704  2.8412
 3865SOL     OW28736   0.466   2.947   0.888  0.0064 -0.0050  0.4967
 3865SOL    HW128737   0.464   2.851   0.890 -1.8817 -0.0301 -0.1886
 3865SOL    HW228738   0.378   2.972   0.859  0.9184  1.8855 -0.8925
 3866SOL     OW28739   0.390   4.610   6.235  0.0954 -0.3041  0.4397
 3866SOL    HW128740   0.461   4.572   6.287  0.3820 -0.1046  0.1951
 3866SOL    HW228741   0.314   4.608   6.293  0.2356 -0.7652  0.6114
 3867SOL     OW28742   5.276   3.433   1.161  0.2304 -0.4602  0.1523
 3867SOL    HW128743   5.266   3.338   1.158  1.0477 -0.5373 -0.3384
 3867SOL    HW228744   5.368   3.447   1.184  0.2466  0.2159 -0.3088
 3868SOL     OW28745   3.847   3.527   7.568  0.1385 -0.2005 -0.2960
 3868SOL    HW128746   3.863   3.490   7.481  0.9035 -0.2201 -0.1546
 3868SOL    HW228747   3.917   3.491   7.622 -0.5005 -0.4204  0.4051
 3869SOL     OW28748   1.660   0.752   6.666 -0.0168 -0.0622 -0.4976
 3869SOL    HW128749   1.722   0.800   6.721 -0.1526 -1.0969  0.5903
 3869SOL    HW228750   1.574   0.785   6.691 -0.1146 -0.8877  0.2949
 3870SOL     OW28751   0.847   4.291   2.089 -0.1782 -0.5234 -0.6606
 3870SOL    HW128752   0.893   4.359   2.139 -0.3927  0.0130 -1.1810
 3870SOL    HW228753   0.917   4.235   2.054  0.0257 -0.3030 -0.6074
 3871SOL     OW28754   1.998   5.432   6.299  0.4742 -0.2359  0.1120
 3871SOL    HW128755   1.955   5.442   6.214 -1.8349 -0.3330  1.1842
 3871SOL    HW228756   2.024   5.340   6.303 -0.6788 -0.5814  0.0394
 3872SOL     OW28757   1.026   2.710   2.094  0.0855 -0.4115 -0.0360
 3872SOL    HW128758   0.979   2.774   2.041  2.0817  1.2966  0.1403
 3872SOL    HW228759   0.983   2.711   2.179  1.2762  2.2493  0.6115
 3873SOL     OW28760   2.599   0.955   0.248 -0.5013 -0.2314  0.7845
 3873SOL    HW128761   2.508   0.953   0.276 -0.8471  1.5812 -0.0371
 3873SOL    HW228762   2.638   1.027   0.298  0.4350 -0.8714  0.9932
 3874SOL     OW28763   0.520   2.898   6.169 -0.1168 -0.6127 -0.2518
 3874SOL    HW128764   0.483   2.902   6.258  0.7144  0.0024  0.0837
 3874SOL    HW228765   0.613   2.884   6.183  0.2730  1.0456 -0.9641
 3875SOL     OW28766   5.483   3.370   6.165  0.5079  0.4265  0.0069
 3875SOL    HW128767   5.433   3.374   6.247  1.0262 -1.6978  0.4838
 3875SOL    HW228768   5.441   3.435   6.108  0.0162  1.8296  1.8620
 3876SOL     OW28769   3.185   5.201   1.032  0.4194 -0.1979  0.4721
 3876SOL    HW128770   3.198   5.134   0.965 -1.2952  0.2181 -0.3526
 3876SOL    HW228771   3.138   5.271   0.985 -2.8389 -0.7933  2.5451
 3877SOL     OW28772   5.543   1.602   6.862 -0.0632 -0.3197 -0.0815
 3877SOL    HW128773   5.550   1.668   6.793 -1.2689  1.4142  1.3603
 3877SOL    HW228774   5.605   1.632   6.929 -1.2413 -0.1085  0.9584
 3878SOL     OW28775   3.306   1.480   7.728  0.2582 -0.3917 -0.0996
 3878SOL    HW128776   3.311   1.473   7.823 -1.4530  0.0752  0.0611
 3878SOL    HW228777   3.302   1.574   7.711  2.3756 -0.3852 -0.7856
 3879SOL     OW28778   4.237   1.325   1.122  0.5758 -0.3703 -0.0293
 3879SOL    HW128779   4.255   1.283   1.038  1.1994 -1.2487  0.5307
 3879SOL    HW228780   4.319   1.316   1.171  0.0381 -0.3710  0.8852
 3880SOL     OW28781   2.836   2.385   6.830 -0.2352 -0.0850 -0.4690
 3880SOL    HW128782   2.794   2.470   6.818  0.1618  0.3037  0.7721
 3880SOL    HW228783   2.763   2.322   6.828 -0.8364  0.5204  0.9845
 3881SOL     OW28784   5.396   1.371   7.611  0.0603  0.5693 -0.8572
 3881SOL    HW128785   5.336   1.304   7.644  0.4574 -0.3195 -1.8719
 3881SOL    HW228786   5.475   1.321   7.586  0.2573  1.3726 -1.8969
 3882SOL     OW28787   3.053   4.490   1.475  0.0642 -0.2750 -0.1584
 3882SOL    HW128788   3.128   4.482   1.416  1.7650  1.2499  1.6272
 3882SOL    HW228789   3.042   4.403   1.512  0.8965 -0.5543 -0.5446
 3883SOL     OW28790   3.679   1.988   7.005  0.4844 -0.0493  0.0771
 3883SOL    HW128791   3.700   2.081   7.014 -0.8342  0.0707  3.6815
 3883SOL    HW228792   3.764   1.944   7.008  1.0001  0.9566  1.4885
 3884SOL     OW28793   0.242   0.748   0.385 -0.1978  0.0328  0.5813
 3884SOL    HW128794   0.280   0.794   0.460  0.2025  2.7536 -1.1522
 3884SOL    HW228795   0.312   0.690   0.355  0.3466  0.4014  1.1215
 3885SOL     OW28796   5.828   3.464   1.357 -0.0840 -0.0872 -0.0038
 3885SOL    HW128797   5.881   3.489   1.433  0.1377 -0.7674  0.0757
 3885SOL    HW228798   5.784   3.384   1.385 -2.3953  1.2626  0.4991
 3886SOL     OW28799   3.567   4.534   0.024 -0.2199  0.4578  0.2154
 3886SOL    HW128800   3.572   4.625  -0.007  2.6432  0.0614 -0.8790
 3886SOL    HW228801   3.618   4.485  -0.040  0.6180 -1.4708  2.2358
 3887SOL     OW28802   2.867   3.356   1.500  0.4744  0.2977  0.0396
 3887SOL    HW128803   2.813   3.293   1.452 -0.3786  0.9276  0.1653
 3887SOL    HW228804   2.808   3.427   1.522  1.0607  0.4349  1.2649
 3888SOL     OW28805   5.128   0.606   7.023 -0.1985 -0.6187  0.3093
 3888SOL    HW128806   5.105   0.677   7.083 -1.0331 -1.3021  0.8234
 3888SOL    HW228807   5.095   0.635   6.937  0.7891  0.2548  0.2061
 3889SOL     OW28808   2.775   3.782   0.188 -0.3438  0.6097 -0.4372
 3889SOL    HW128809   2.835   3.733   0.244 -0.8367 -0.2237 -0.6237
 3889SOL    HW228810   2.759   3.863   0.236  0.1548  0.4102  0.0801
 3890SOL     OW28811   6.429   5.768   7.540  0.3383  0.3030  0.4478
 3890SOL    HW128812   6.390   5.732   7.620  0.1708 -1.7402 -0.4864
 3890SOL    HW228813   6.395   5.711   7.470  0.3238  2.1409 -1.1133
 3891SOL     OW28814   0.442   5.589   1.793  0.0090  0.0464 -0.0333
 3891SOL    HW128815   0.388   5.645   1.738  0.5404 -1.2702 -1.9974
 3891SOL    HW228816   0.479   5.649   1.859 -1.1943  1.5523 -0.6583
 3892SOL     OW28817   4.408   2.043   1.419  0.4096 -0.2774  0.6085
 3892SOL    HW128818   4.356   2.028   1.339  1.4272 -0.4359 -0.0416
 3892SOL    HW228819   4.406   2.138   1.431  0.2940 -0.2460  0.3557
 3893SOL     OW28820   5.584   5.871   0.813  0.1518  0.2137 -0.6400
 3893SOL    HW128821   5.601   5.785   0.777 -1.9782  0.3843 -2.2075
 3893SOL    HW228822   5.587   5.858   0.908  0.8898 -1.3349 -0.8439
 3894SOL     OW28823   2.369   2.224   7.007  0.0667 -0.2660  0.0562
 3894SOL    HW128824   2.371   2.319   6.997  0.7764 -0.1618  1.0063
 3894SOL    HW228825   2.285   2.197   6.970 -0.0015  0.6945 -0.5050
 3895SOL     OW28826   3.996   2.698   2.545  0.2723  0.6502  0.7682
 3895SOL    HW128827   3.934   2.770   2.537  2.0136  2.0511 -1.1114
 3895SOL    HW228828   3.946   2.620   2.520 -1.1269  1.4685  0.9209
 3896SOL     OW28829   3.201   4.771   5.943  0.3083  0.1148 -0.0218
 3896SOL    HW128830   3.189   4.826   5.865  0.8922  0.2287 -0.0333
 3896SOL    HW228831   3.123   4.715   5.944 -0.0210  0.5539 -0.3225
 3897SOL     OW28832   5.248   1.971   6.132 -0.3749  0.1568  0.8407
 3897SOL    HW128833   5.288   1.893   6.169  0.9229  0.1434 -0.5180
 3897SOL    HW228834   5.292   2.044   6.177  1.7584  0.1603 -1.0836
 3898SOL     OW28835   4.229   4.962   7.146  0.9724  0.3941  0.1446
 3898SOL    HW128836   4.309   4.922   7.112  2.0206  1.5883  1.1066
 3898SOL    HW228837   4.239   4.962   7.241 -0.7082 -0.4593  0.3674
 3899SOL     OW28838   3.969   0.523   6.830  0.3803  0.0192 -0.3201
 3899SOL    HW128839   3.993   0.551   6.742 -1.5038  0.7197 -0.6444
 3899SOL    HW228840   3.980   0.601   6.884  1.7911 -0.4756  0.1580
 3900SOL     OW28841   2.299   4.743   7.284  0.6446  0.3405  0.1583
 3900SOL    HW128842   2.364   4.714   7.348 -0.0910  1.5950  1.5146
 3900SOL    HW228843   2.215   4.712   7.318  0.1778  1.5353  0.1282
 3901SOL     OW28844   3.625   5.030   7.673 -0.1390 -0.0678 -0.4724
 3901SOL    HW128845   3.695   4.965   7.668  0.0478 -0.1591  1.9964
 3901SOL    HW228846   3.589   5.020   7.761 -4.4253 -1.1584 -2.0705
 3902SOL     OW28847   2.437   2.923   6.222 -0.2411  0.7785 -0.4402
 3902SOL    HW128848   2.446   2.999   6.165  1.5536  0.4852 -0.6091
 3902SOL    HW228849   2.385   2.861   6.171  0.1936  1.0457 -1.2255
 3903SOL     OW28850   2.094   2.585   7.747  0.2937  0.1031 -0.0286
 3903SOL    HW128851   2.072   2.524   7.817  0.2450  0.1859  0.0287
 3903SOL    HW228852   2.030   2.567   7.678  0.7184 -0.3970 -0.3021
 3904SOL     OW28853   4.558   1.525   0.150 -1.1876  0.2441 -0.1261
 3904SOL    HW128854   4.466   1.497   0.149 -1.5384  1.3240  0.3159
 3904SOL    HW228855   4.574   1.555   0.060 -1.5642  0.9371  0.0285
 3905SOL     OW28856   2.389   3.976   5.228  0.4840  0.2127  0.8112
 3905SOL    HW128857   2.413   4.061   5.264 -0.4348  0.8499 -0.0338
 3905SOL    HW228858   2.439   3.970   5.146  0.1143  0.2008  0.5833
 3906SOL     OW28859   4.660   2.621   6.503 -0.1828 -0.2581 -0.0444
 3906SOL    HW128860   4.625   2.708   6.481 -1.5650 -0.3621  1.5273
 3906SOL    HW228861   4.753   2.627   6.483 -0.3590  1.4095 -0.5225
 3907SOL     OW28862   4.021   1.103   7.117  0.5052 -0.5310 -0.3933
 3907SOL    HW128863   3.959   1.055   7.173  1.8316  0.9680  2.5863
 3907SOL    HW228864   3.965   1.150   7.055 -1.1493 -1.3092  0.4296
 3908SOL     OW28865   0.350   5.451   5.680  0.4365  0.2497 -0.1446
 3908SOL    HW128866   0.445   5.451   5.664  0.2437  0.5099 -1.3965
 3908SOL    HW228867   0.335   5.375   5.736  1.6453  1.3728  1.8105
 3909SOL     OW28868   6.454   1.485   6.966  0.0415  0.1449 -0.8746
 3909SOL    HW128869   6.443   1.554   7.032  0.0470 -0.6826  0.0179
 3909SOL    HW228870   6.548   1.472   6.960 -0.0021 -0.5402 -0.2173
 3910SOL     OW28871   5.888   1.497   6.177 -0.6062  0.4483  0.2352
 3910SOL    HW128872   5.839   1.435   6.231 -1.0301 -0.9854 -1.6785
 3910SOL    HW228873   5.821   1.547   6.131 -0.3955 -1.1852 -2.0177
 3911SOL     OW28874   3.388   2.188   7.672  0.2450 -0.7530  0.1825
 3911SOL    HW128875   3.341   2.194   7.588  0.7395 -1.1131 -0.1257
 3911SOL    HW228876   3.437   2.270   7.678  0.1674 -0.7032  0.1458
 3912SOL     OW28877   3.511   1.254   1.536 -0.1208 -0.2837 -0.6516
 3912SOL    HW128878   3.549   1.330   1.579  0.6194 -2.2606  2.5559
 3912SOL    HW228879   3.416   1.268   1.540 -0.0269 -0.0184  0.9724
 3913SOL     OW28880   5.419   3.904   0.832 -0.6259 -0.0590  0.4735
 3913SOL    HW128881   5.476   3.863   0.898 -1.8450 -0.5428  1.2694
 3913SOL    HW228882   5.372   3.972   0.881 -0.6781  0.3851 -0.1899
 3914SOL     OW28883   4.625   1.062   1.319  0.3564  0.5832  0.5652
 3914SOL    HW128884   4.688   1.093   1.254  0.7470  0.4348  0.8691
 3914SOL    HW228885   4.586   0.984   1.278  1.7542 -0.4644  1.1394
 3915SOL     OW28886   2.512   1.698   0.973  0.3164 -0.2053 -0.1423
 3915SOL    HW128887   2.442   1.668   0.915  0.9115 -0.8174 -0.5633
 3915SOL    HW228888   2.555   1.769   0.925 -1.0571  1.3199  0.8320
 3916SOL     OW28889   2.481   5.558   7.024 -0.0995 -0.1334  0.0145
 3916SOL    HW128890   2.548   5.596   6.967  0.2130  1.3984  1.3201
 3916SOL    HW228891   2.473   5.467   6.994  0.8542  0.2879 -1.6955
 3917SOL     OW28892   3.337   2.468   6.980  0.1056 -0.1197 -0.1467
 3917SOL    HW128893   3.341   2.372   6.981  2.1363 -0.0766 -0.3885
 3917SOL    HW228894   3.341   2.491   6.887 -2.0042  0.2228 -0.2215
 3918SOL     OW28895   2.459   1.236   1.726  0.1631 -0.0851  0.1898
 3918SOL    HW128896   2.439   1.246   1.819 -0.9500  0.2070 -0.0717
 3918SOL    HW228897   2.404   1.163   1.698  0.9862 -0.6082 -0.1060
 3919SOL     OW28898   4.242   0.273   6.843 -0.5060 -0.2005  0.3545
 3919SOL    HW128899   4.180   0.208   6.810  1.0957 -1.1708 -0.8634
 3919SOL    HW228900   4.327   0.230   6.840  0.5650  1.8086 -0.1353
 3920SOL     OW28901   2.114   1.822   2.297 -0.2594 -0.5093 -0.2951
 3920SOL    HW128902   2.111   1.766   2.219 -0.4794 -1.7996  0.6140
 3920SOL    HW228903   2.192   1.792   2.345 -0.5586 -0.2506  0.3640
 3921SOL     OW28904   1.060   1.776   0.244 -0.1327 -0.7325 -0.3429
 3921SOL    HW128905   0.965   1.786   0.253 -0.2652 -1.2093 -1.1195
 3921SOL    HW228906   1.084   1.718   0.317 -0.2715  0.1957  0.4649
 3922SOL     OW28907   0.322   2.979   5.702  0.1257  0.0786  0.1906
 3922SOL    HW128908   0.270   3.032   5.640  0.2453 -0.2038 -0.1532
 3922SOL    HW228909   0.281   2.893   5.699  1.1103 -0.3780 -0.7063
 3923SOL     OW28910   4.676   5.381   5.938 -0.0023  0.2299 -0.1906
 3923SOL    HW128911   4.753   5.399   5.991  0.8497  0.4526 -1.4687
 3923SOL    HW228912   4.706   5.390   5.847 -1.6903  1.0072 -0.7183
 3924SOL     OW28913   4.174   2.064   1.237 -0.0842  0.1540  0.0896
 3924SOL    HW128914   4.131   2.010   1.303 -1.1204  0.7682 -0.0541
 3924SOL    HW228915   4.147   2.025   1.153 -1.3748  1.2380 -0.0353
 3925SOL     OW28916   6.367   3.630   0.815  0.0183  0.1875  0.2340
 3925SOL    HW128917   6.420   3.646   0.893  0.1430 -0.2026  0.2306
 3925SOL    HW228918   6.393   3.543   0.785 -0.9078 -0.1903  0.4682
 3926SOL     OW28919   0.392   5.603   1.338 -0.0643  0.1068  0.0445
 3926SOL    HW128920   0.350   5.537   1.283  0.0377 -0.2421  0.3740
 3926SOL    HW228921   0.485   5.595   1.319 -0.1564  1.0535 -0.8719
 3927SOL     OW28922   1.272   0.572   0.104 -0.6501 -0.5703  0.8079
 3927SOL    HW128923   1.351   0.558   0.155  0.1275  0.9760  0.1030
 3927SOL    HW228924   1.261   0.492   0.053  1.0777 -0.4080  0.1295
 3928SOL     OW28925   2.537   4.624   7.082 -0.6462  0.1808  0.0407
 3928SOL    HW128926   2.610   4.683   7.101 -0.6164  0.9036 -2.0580
 3928SOL    HW228927   2.555   4.592   6.993 -0.4105 -3.4070  1.2321
 3929SOL     OW28928   0.612   2.787   7.247 -0.5579 -0.5081  0.6943
 3929SOL    HW128929   0.551   2.826   7.309 -0.4206 -0.5446  0.8526
 3929SOL    HW228930   0.692   2.840   7.255 -0.4324 -0.7106  0.7813
 3930SOL     OW28931   5.901   4.384   7.419  0.1927  0.4456 -0.1590
 3930SOL    HW128932   5.811   4.417   7.415 -0.3689 -0.7009  1.7689
 3930SOL    HW228933   5.914   4.342   7.334 -1.2374  0.2846 -0.3308
 3931SOL     OW28934   4.249   4.993   5.786 -0.2282  0.3910  0.4020
 3931SOL    HW128935   4.228   5.053   5.715  1.5300 -0.1748 -0.6597
 3931SOL    HW228936   4.221   5.039   5.865 -0.4420  1.8735 -0.5007
 3932SOL     OW28937   6.119   3.098   6.468 -0.3629 -0.2814  0.6471
 3932SOL    HW128938   6.083   3.029   6.524 -0.7245  0.6598  1.5951
 3932SOL    HW228939   6.050   3.164   6.464  0.3256  0.4384  0.4888
 3933SOL     OW28940   4.053   0.638   6.601  0.4982 -0.4459 -0.0602
 3933SOL    HW128941   4.108   0.636   6.522  0.1002  1.9118 -0.4590
 3933SOL    HW228942   4.095   0.702   6.658  1.4849 -2.9634  2.3027
 3934SOL     OW28943   1.002   2.894   7.005 -0.1819  0.1337 -0.4045
 3934SOL    HW128944   0.993   2.989   7.009 -3.1530 -0.0441 -0.6180
 3934SOL    HW228945   0.916   2.863   6.976  0.0734 -2.7197  1.4467
 3935SOL     OW28946   1.055   0.652   0.309 -0.3981  0.1682 -0.3199
 3935SOL    HW128947   1.148   0.659   0.286 -0.2503  0.5530  0.3577
 3935SOL    HW228948   1.032   0.562   0.288 -0.1116  0.3237 -1.3399
 3936SOL     OW28949   6.310   3.529   1.583 -0.1350 -0.4036 -0.3361
 3936SOL    HW128950   6.274   3.565   1.502  0.2916 -1.1308 -0.8719
 3936SOL    HW228951   6.402   3.559   1.583  0.4371 -2.0462 -1.1690
 3937SOL     OW28952   4.791   3.933   6.174 -0.4765 -0.0151 -0.4317
 3937SOL    HW128953   4.812   4.007   6.231  0.0812  0.8663 -1.7272
 3937SOL    HW228954   4.729   3.968   6.110 -2.6691 -1.4903  0.7479
 3938SOL     OW28955   2.548   2.471   6.608 -0.1832  0.5885  0.3546
 3938SOL    HW128956   2.469   2.515   6.576 -0.7210 -0.3749  0.3058
 3938SOL    HW228957   2.603   2.541   6.642 -0.2598  1.4768 -1.2728
 3939SOL     OW28958   1.175   4.467   0.730  0.0410  0.0704  0.0522
 3939SOL    HW128959   1.221   4.390   0.763 -0.2628 -0.1371 -0.0092
 3939SOL    HW228960   1.245   4.525   0.700  0.2949  0.0126  0.5148
 3940SOL     OW28961   5.653   4.104   7.578 -0.0683  0.5602  0.1926
 3940SOL    HW128962   5.719   4.138   7.638 -0.0483 -1.5488  1.4793
 3940SOL    HW228963   5.671   4.010   7.574 -1.7883  0.2356 -0.9595
 3941SOL     OW28964   6.107   4.553   0.143 -0.1700 -0.6472  0.2020
 3941SOL    HW128965   6.043   4.522   0.207 -1.3994  0.7423 -0.2873
 3941SOL    HW228966   6.056   4.610   0.084  1.7107  1.4741  0.4770
 3942SOL     OW28967   4.597   4.953   0.700 -0.0348 -0.1819 -0.0521
 3942SOL    HW128968   4.629   5.003   0.625  1.4098 -1.2493 -0.2056
 3942SOL    HW228969   4.505   4.935   0.680 -1.5318  4.6282  1.2804
 3943SOL     OW28970   5.561   2.649   0.916 -0.1678  0.3161  0.1897
 3943SOL    HW128971   5.636   2.691   0.957  1.3520 -1.7702 -0.2534
 3943SOL    HW228972   5.561   2.560   0.952 -1.6923 -0.1067 -0.7563
 3944SOL     OW28973   2.066   5.938   0.811  0.6099 -0.3044  0.2062
 3944SOL    HW128974   2.070   6.020   0.861  0.5065 -0.2874  0.1862
 3944SOL    HW228975   1.980   5.901   0.833  0.9301 -0.7454  0.7523
 3945SOL     OW28976   6.241   1.783   7.366 -0.0231  0.1490 -0.5847
 3945SOL    HW128977   6.285   1.715   7.315 -1.7726  1.4489 -4.1901
 3945SOL    HW228978   6.158   1.796   7.320 -1.1548  2.5031  1.8845
 3946SOL     OW28979   1.523   5.754   6.895  0.1184  0.8916 -0.5473
 3946SOL    HW128980   1.474   5.814   6.951 -2.8623 -1.0998 -0.7619
 3946SOL    HW228981   1.473   5.751   6.814  0.8698 -0.8997 -1.0001
 3947SOL     OW28982   5.071   3.245   6.826  0.2112 -0.0595 -0.1841
 3947SOL    HW128983   4.999   3.219   6.767 -0.2226  1.7227 -0.5009
 3947SOL    HW228984   5.131   3.294   6.770  2.3252 -2.4424 -0.1822
 3948SOL     OW28985   4.967   0.282   0.491  0.4837  0.2234  0.0544
 3948SOL    HW128986   4.978   0.364   0.443  1.3461  0.6797  0.9998
 3948SOL    HW228987   4.875   0.260   0.480 -0.4011  2.6627  1.8852
 3949SOL     OW28988   0.288   3.860   0.634 -0.4055  0.4557 -0.2084
 3949SOL    HW128989   0.358   3.908   0.679  1.4946 -2.2490 -0.0503
 3949SOL    HW228990   0.210   3.915   0.647  0.8384  1.7677  2.9792
 3950SOL     OW28991   3.014   2.526   1.639 -0.6034 -0.2569  0.4647
 3950SOL    HW128992   3.103   2.522   1.675  0.0339 -2.1924 -1.1299
 3950SOL    HW228993   2.959   2.546   1.714  1.1318  0.7159  1.5522
 3951SOL     OW28994   5.760   4.511   5.659  0.3944 -0.4166 -0.3716
 3951SOL    HW128995   5.671   4.533   5.633  0.2127 -0.4220  0.2327
 3951SOL    HW228996   5.810   4.592   5.645  0.6745 -0.8753 -2.3129
 3952SOL     OW28997   0.851   2.919   7.305 -0.4576  0.7081 -0.1166
 3952SOL    HW128998   0.835   2.943   7.396 -0.4936 -0.1992  0.1224
 3952SOL    HW228999   0.946   2.914   7.297 -0.4558  0.7501 -0.1229
 3953SOL     OW29000   4.632   0.982   6.291  0.0530 -0.1987  0.5935
 3953SOL    HW129001   4.545   1.015   6.314 -0.1654 -0.7033  0.4942
 3953SOL    HW229002   4.647   1.015   6.203  1.3557  2.6923  1.7487
 3954SOL     OW29003   5.984   5.597   0.830 -0.4909 -0.1944  0.2936
 3954SOL    HW129004   6.010   5.538   0.759 -3.4059 -1.7314  0.3317
 3954SOL    HW229005   6.054   5.589   0.895  1.7864  0.5317 -1.9329
 3955SOL     OW29006   2.593   5.541   1.201  0.1134  0.4463 -0.6437
 3955SOL    HW129007   2.533   5.487   1.253 -0.9984  2.0851 -0.1088
 3955SOL    HW229008   2.676   5.493   1.201 -0.6551 -0.9521  0.2621
 3956SOL     OW29009   0.452   0.189   0.795 -0.0970 -0.1107 -0.0768
 3956SOL    HW129010   0.388   0.159   0.730 -0.3321  1.4695 -0.6224
 3956SOL    HW229011   0.484   0.109   0.836 -0.8153 -1.0682 -1.3201
 3957SOL     OW29012   4.758   6.106   7.219  0.3617  0.4101 -0.3090
 3957SOL    HW129013   4.730   6.084   7.130  0.4333  1.5492 -0.6236
 3957SOL    HW229014   4.699   6.055   7.276 -0.5895  0.7060 -0.9940
 3958SOL     OW29015   3.275   3.619   2.115  0.1468 -0.6432  0.5060
 3958SOL    HW129016   3.241   3.699   2.075 -0.8366 -0.6266  1.3267
 3958SOL    HW229017   3.324   3.576   2.045  0.4712  0.5479 -0.0134
 3959SOL     OW29018   3.108   3.565   0.565  0.2558  0.2061  0.7627
 3959SOL    HW129019   3.195   3.526   0.570 -0.2995 -1.5363 -1.4463
 3959SOL    HW229020   3.062   3.531   0.643  0.8257 -0.8541  0.6536
 3960SOL     OW29021   2.203   4.504   1.210  0.1576 -0.2208 -0.1798
 3960SOL    HW129022   2.242   4.426   1.171  1.6649  0.6208 -0.4477
 3960SOL    HW229023   2.123   4.473   1.251  0.8374 -1.9514 -0.0764
 3961SOL     OW29024   0.910   5.971   1.329  0.4696 -0.1728  0.5851
 3961SOL    HW129025   0.908   5.883   1.367 -0.8943  0.0777  1.1170
 3961SOL    HW229026   0.929   6.029   1.402 -0.7341  0.1706  0.6395
 3962SOL     OW29027   6.009   1.988   5.415  0.9827  0.1932 -0.0529
 3962SOL    HW129028   5.949   2.053   5.379  1.0831  0.5539  0.4332
 3962SOL    HW229029   6.000   1.996   5.510 -1.3207 -2.5688  0.1166
 3963SOL     OW29030   0.326   0.620   0.846 -0.1888 -0.0594 -0.3119
 3963SOL    HW129031   0.329   0.538   0.896 -1.0861  0.4843  0.6813
 3963SOL    HW229032   0.342   0.594   0.755 -0.5867 -1.3450 -0.0322
 3964SOL     OW29033   3.117   5.104   0.095 -0.5019  0.3221  0.1255
 3964SOL    HW129034   3.103   5.144   0.009  1.0191  0.4678 -0.0904
 3964SOL    HW229035   3.134   5.012   0.076 -4.1799 -0.6297  0.6340
 3965SOL     OW29036   6.329   0.675   6.823 -0.0853 -0.3170  0.4367
 3965SOL    HW129037   6.295   0.625   6.749  2.0899  0.3704 -1.1246
 3965SOL    HW229038   6.253   0.722   6.858 -1.5278 -2.1754 -0.0789
 3966SOL     OW29039   0.527   1.048   6.372 -0.3957 -0.1512  0.2231
 3966SOL    HW129040   0.476   1.016   6.446 -2.0087  1.7189  0.0247
 3966SOL    HW229041   0.583   0.975   6.347 -0.8126 -1.2871  2.3897
 3967SOL     OW29042   2.438   6.373   7.290 -0.3922  0.0709 -0.2567
 3967SOL    HW129043   2.357   6.344   7.332  0.3206  0.7755  1.7394
 3967SOL    HW229044   2.419   6.462   7.261  0.1373  0.9256  1.8266
 3968SOL     OW29045   6.085   0.737   6.606 -0.1696  0.5310  0.1239
 3968SOL    HW129046   6.036   0.665   6.567 -0.2012 -0.3206  1.6512
 3968SOL    HW229047   6.018   0.797   6.639 -0.1810  0.3000  0.5347
 3969SOL     OW29048   5.768   3.079   1.795 -0.0334  0.3303  0.8970
 3969SOL    HW129049   5.785   2.987   1.776 -0.0064  0.5031  0.0643
 3969SOL    HW229050   5.827   3.099   1.868 -0.2023 -0.3650  1.2314
 3970SOL     OW29051   4.956   6.258   0.693 -0.1149  0.1256  0.3410
 3970SOL    HW129052   4.954   6.353   0.707 -0.6603  0.4382 -1.6084
 3970SOL    HW229053   4.898   6.243   0.618 -1.4323 -1.9707  1.6544
 3971SOL     OW29054   4.857   5.452   6.121 -0.4153 -0.0537  0.3293
 3971SOL    HW129055   4.912   5.492   6.054 -1.8781 -1.0102 -1.5311
 3971SOL    HW229056   4.919   5.413   6.183  0.9897  0.1970 -0.8683
 3972SOL     OW29057   4.868   4.924   6.383  0.4213 -0.2806 -0.0379
 3972SOL    HW129058   4.779   4.901   6.356  0.8200 -0.9010 -0.8287
 3972SOL    HW229059   4.920   4.918   6.304  1.0398  0.8485  0.2544
 3973SOL     OW29060   2.836   0.041   5.501  0.4775 -0.1668 -0.3308
 3973SOL    HW129061   2.836   0.130   5.536 -1.3572 -0.5480  0.7860
 3973SOL    HW229062   2.744   0.023   5.482  0.7785 -1.9023 -0.3106
 3974SOL     OW29063   1.764   3.619   2.102  0.0114 -0.1840  0.3549
 3974SOL    HW129064   1.734   3.562   2.031  1.0647 -0.7235  0.3294
 3974SOL    HW229065   1.837   3.668   2.065 -0.7146  1.0128  0.4625
 3975SOL     OW29066   5.454   1.017   0.412 -0.4189 -0.0274 -0.3254
 3975SOL    HW129067   5.388   0.955   0.444  0.2399 -0.9505 -0.7079
 3975SOL    HW229068   5.493   1.053   0.491 -1.2937  0.4429 -0.0935
 3976SOL     OW29069   6.093   1.044   7.349  0.2720 -0.3854  0.0633
 3976SOL    HW129070   6.077   1.129   7.310  1.1712 -0.6467 -0.9084
 3976SOL    HW229071   6.035   0.984   7.302  1.2986 -0.6856 -0.8737
 3977SOL     OW29072   2.601   2.208   7.595 -0.5043 -0.5644  0.2055
 3977SOL    HW129073   2.506   2.196   7.603 -0.5591 -0.0692  0.3561
 3977SOL    HW229074   2.624   2.265   7.668 -0.0272 -0.9960  0.3925
 3978SOL     OW29075   6.197   0.374   7.657  0.1232 -0.0124 -0.9514
 3978SOL    HW129076   6.219   0.463   7.630  0.7102 -0.0550 -0.6392
 3978SOL    HW229077   6.257   0.318   7.608  0.2668 -0.1832 -0.5855
 3979SOL     OW29078   4.878   3.501   0.373  0.2057  0.2999 -0.7817
 3979SOL    HW129079   4.825   3.581   0.376 -2.5291 -1.3660 -0.1578
 3979SOL    HW229080   4.840   3.446   0.442  3.8523 -0.5054  0.7921
 3980SOL     OW29081   2.867   5.161   0.957  0.2099 -0.2260 -0.0138
 3980SOL    HW129082   2.859   5.074   0.920 -0.1892 -0.4963  0.6810
 3980SOL    HW229083   2.866   5.147   1.052  0.9494  0.4656  0.1073
 3981SOL     OW29084   4.384   5.698   6.029 -0.1403 -0.2372 -0.3395
 3981SOL    HW129085   4.437   5.774   6.052  0.7317 -0.1873 -2.3297
 3981SOL    HW229086   4.318   5.731   5.968 -1.7075 -0.5544  1.0967
 3982SOL     OW29087   3.965   0.729   0.370 -0.4189 -0.2819  0.1895
 3982SOL    HW129088   3.959   0.825   0.371 -0.4777 -0.2846  0.0658
 3982SOL    HW229089   3.912   0.701   0.445 -0.9947 -0.2507 -0.2015
 3983SOL     OW29090   5.494   4.386   0.467 -0.2874 -0.0744  0.6142
 3983SOL    HW129091   5.404   4.421   0.465 -0.7069 -1.0621 -2.1072
 3983SOL    HW229092   5.483   4.294   0.493 -0.1970 -0.4278 -0.5453
 3984SOL     OW29093   0.441   1.536   1.635 -0.3289 -0.0117  0.3691
 3984SOL    HW129094   0.447   1.570   1.545  2.3366  0.4755  0.6236
 3984SOL    HW229095   0.426   1.442   1.624 -1.3641  0.2432 -0.5372
 3985SOL     OW29096   4.473   5.510   0.957 -0.2779 -0.2683  0.0366
 3985SOL    HW129097   4.439   5.599   0.953 -2.1835 -0.8777  1.4348
 3985SOL    HW229098   4.396   5.455   0.969  0.8317 -2.1547 -0.9744
 3986SOL     OW29099   0.669   2.574   5.156  0.7744  0.9842  0.4552
 3986SOL    HW129100   0.576   2.557   5.171  1.3913 -3.4725  0.7459
 3986SOL    HW229101   0.686   2.540   5.068  1.9999  2.5611  0.0470
 3987SOL     OW29102   4.307   3.419   1.040  0.2767 -0.4757  0.2148
 3987SOL    HW129103   4.375   3.359   1.006  0.2623  0.0143 -0.7253
 3987SOL    HW229104   4.309   3.493   0.979 -3.4543 -1.9506 -2.0519
 3988SOL     OW29105   4.858   3.939   6.561 -0.4271 -0.6206 -0.8060
 3988SOL    HW129106   4.942   3.954   6.518  1.0767  0.9180  2.3527
 3988SOL    HW229107   4.870   3.858   6.610 -0.9501 -0.6260 -0.6729
 3989SOL     OW29108   1.790   4.609   0.089  0.0968  0.0586  0.0452
 3989SOL    HW129109   1.773   4.672   0.159 -0.0812 -0.4514  0.4616
 3989SOL    HW229110   1.736   4.641   0.016 -2.2092 -1.1162  1.1083
 3990SOL     OW29111   6.287   6.421   5.635  0.0098  0.0179 -0.7089
 3990SOL    HW129112   6.317   6.383   5.717 -0.6964 -1.0771 -0.9323
 3990SOL    HW229113   6.349   6.390   5.569 -0.7225 -1.0210 -0.9349
 3991SOL     OW29114   5.143   0.599   6.506  0.0776  0.0252 -0.0377
 3991SOL    HW129115   5.128   0.542   6.430 -0.7375 -0.4685  0.4658
 3991SOL    HW229116   5.105   0.683   6.481 -0.6808 -0.2910  0.0090
 3992SOL     OW29117   5.940   4.708   5.623 -0.0039  0.2396 -0.9555
 3992SOL    HW129118   6.008   4.761   5.666 -1.6927  3.0948 -1.4983
 3992SOL    HW229119   5.979   4.621   5.614  2.8383  1.2439  0.4192
 3993SOL     OW29120   2.669   1.150   0.419 -0.0829 -0.3847 -0.1336
 3993SOL    HW129121   2.648   1.149   0.513  2.0300 -2.1777  0.3963
 3993SOL    HW229122   2.647   1.239   0.391 -1.6588 -0.0829  1.8150
 3994SOL     OW29123   4.566   4.415   0.758  0.3967 -0.0554 -0.3629
 3994SOL    HW129124   4.585   4.436   0.849 -1.7672  0.9241 -0.0536
 3994SOL    HW229125   4.565   4.500   0.713  1.0262 -0.4804 -1.2163
 3995SOL     OW29126   2.218   6.377   6.564  0.2575  0.5906  0.2378
 3995SOL    HW129127   2.265   6.454   6.597  0.6232  0.6916 -0.4812
 3995SOL    HW229128   2.280   6.337   6.503 -1.1615  1.6493 -2.0411
 3996SOL     OW29129   4.781   3.359   7.493  0.1587  0.9475 -0.0340
 3996SOL    HW129130   4.694   3.383   7.460 -0.3770 -0.9437 -0.1015
 3996SOL    HW229131   4.836   3.356   7.414 -0.1523  0.4262 -0.2390
 3997SOL     OW29132   2.390   3.758   7.072  0.3134  0.6112 -0.7869
 3997SOL    HW129133   2.327   3.748   7.143  0.6657  0.8356 -0.4363
 3997SOL    HW229134   2.447   3.830   7.101  2.2011 -1.1163  0.0060
 3998SOL     OW29135   0.305   1.208   7.689  0.1211 -0.1698 -0.5203
 3998SOL    HW129136   0.265   1.125   7.715  0.1775 -0.0430 -0.0174
 3998SOL    HW229137   0.243   1.248   7.629 -0.3389 -0.1436 -0.0308
 3999SOL     OW29138   2.103   0.671   0.318 -0.4624 -0.1746 -0.9458
 3999SOL    HW129139   2.039   0.685   0.249 -1.5299  1.2148  0.2545
 3999SOL    HW229140   2.081   0.585   0.355 -0.4241 -0.5354 -1.7482
 4000SOL     OW29141   2.717   4.512   1.816 -1.0367 -0.0077  0.0348
 4000SOL    HW129142   2.783   4.551   1.874 -0.0904 -0.1129 -0.9294
 4000SOL    HW229143   2.684   4.437   1.865 -0.1203 -0.2010  0.3816
 4001SOL     OW29144   1.452   5.640   1.147 -0.4058  0.5698  0.1412
 4001SOL    HW129145   1.540   5.676   1.151  0.5327 -1.6576  1.4468
 4001SOL    HW229146   1.424   5.656   1.057  2.5042 -1.1185 -1.2170
 4002SOL     OW29147   3.948   5.780   6.249 -0.0957 -0.2635 -0.2637
 4002SOL    HW129148   4.030   5.733   6.261  0.2110  0.1995 -0.4963
 4002SOL    HW229149   3.936   5.784   6.154 -0.5028 -0.5226 -0.2263
 4003SOL     OW29150   4.632   0.139   0.209 -0.0981 -0.2390 -0.1314
 4003SOL    HW129151   4.622   0.114   0.117  0.0264  0.3714 -0.3172
 4003SOL    HW229152   4.723   0.119   0.230  0.0838  0.3183 -0.3658
 4004SOL     OW29153   3.180   3.698   6.211  0.8524 -0.2153 -0.2823
 4004SOL    HW129154   3.193   3.693   6.116  0.4988  5.0094 -0.8872
 4004SOL    HW229155   3.085   3.696   6.223  0.8754 -0.2375 -0.0964
 4005SOL     OW29156   5.110   4.150   1.116  0.5682 -0.3917  0.2601
 4005SOL    HW129157   5.017   4.158   1.137  0.2772  0.7932 -1.3355
 4005SOL    HW229158   5.153   4.143   1.201 -0.7196  1.9750  1.2024
 4006SOL     OW29159   3.372   1.759   1.038  0.4168  0.0370  0.2995
 4006SOL    HW129160   3.329   1.712   0.966 -0.7773  1.6532 -0.1057
 4006SOL    HW229161   3.300   1.791   1.092  1.0946  1.9459  0.1714
 4007SOL     OW29162   1.519   1.182   7.424 -0.4530  0.0745 -0.0111
 4007SOL    HW129163   1.534   1.088   7.425 -0.8627 -0.0012 -0.5472
 4007SOL    HW229164   1.425   1.192   7.407 -0.1070  0.5840 -1.9023
 4008SOL     OW29165   3.774   0.991   1.175  0.2658  0.3058 -0.4310
 4008SOL    HW129166   3.843   1.057   1.186 -0.1396  1.0408 -1.9313
 4008SOL    HW229167   3.791   0.954   1.088 -1.4091  0.7688 -1.0070
 4009SOL     OW29168   0.097   6.191   6.125 -0.4859 -0.2066 -0.6091
 4009SOL    HW129169   0.144   6.234   6.054  2.2476 -0.5296  0.8716
 4009SOL    HW229170   0.074   6.262   6.185  0.9261 -0.3485  0.1433
 4010SOL     OW29171   5.434   2.964   1.574  0.0374  0.5301 -0.0003
 4010SOL    HW129172   5.518   2.923   1.551  0.2530  1.9773 -2.0757
 4010SOL    HW229173   5.373   2.891   1.583  0.2059 -0.4396 -4.3862
 4011SOL     OW29174   0.479   2.365   7.184  0.3325 -0.2069  0.1858
 4011SOL    HW129175   0.386   2.347   7.171  0.3872  0.3780 -1.1332
 4011SOL    HW229176   0.490   2.365   7.279 -1.5476  2.2443  0.4993
 4012SOL     OW29177   0.819   1.232   7.269 -0.5124  0.2075 -0.0067
 4012SOL    HW129178   0.865   1.149   7.256 -0.5123  0.5271 -2.3106
 4012SOL    HW229179   0.727   1.207   7.278 -0.4456 -0.0731 -0.1046
 4013SOL     OW29180   0.682   4.679   1.240  0.5125 -0.2287 -0.3524
 4013SOL    HW129181   0.600   4.676   1.191  0.9831 -0.3307 -1.1525
 4013SOL    HW229182   0.748   4.652   1.177  1.1103 -0.5714  0.4084
 4014SOL     OW29183   1.547   5.794   7.273  0.0757  0.7583 -0.2428
 4014SOL    HW129184   1.506   5.709   7.292 -1.0412  0.7054 -2.4945
 4014SOL    HW229185   1.640   5.779   7.288 -0.1807 -0.6275  0.1950
 4015SOL     OW29186   3.901   6.231   1.117  0.1241 -0.8123 -0.3625
 4015SOL    HW129187   3.863   6.283   1.188 -1.4965 -0.9256 -1.1043
 4015SOL    HW229188   3.984   6.200   1.152  0.7446  1.5278  0.4314
 4016SOL     OW29189   2.678   2.596   1.635  0.1103  0.5770 -0.5195
 4016SOL    HW129190   2.620   2.656   1.682 -0.4412  1.1264 -1.8499
 4016SOL    HW229191   2.762   2.602   1.681 -0.4669  0.9110  0.5162
 4017SOL     OW29192   2.614   5.824   7.634  0.1632 -0.5932  0.3661
 4017SOL    HW129193   2.590   5.776   7.555 -1.6884 -2.8956  2.1815
 4017SOL    HW229194   2.531   5.852   7.672  0.9329 -0.2802  1.9018
 4018SOL     OW29195   0.887   3.077   6.772 -0.0688  0.2006 -0.2665
 4018SOL    HW129196   0.934   2.998   6.745 -0.0971 -0.0780  0.4807
 4018SOL    HW229197   0.805   3.045   6.809  0.0121  0.5626  0.2370
 4019SOL     OW29198   3.639   0.706   0.211 -0.0319 -0.1432 -0.4814
 4019SOL    HW129199   3.680   0.743   0.289 -1.4409 -1.0042  0.7244
 4019SOL    HW229200   3.596   0.626   0.242 -0.5961 -0.5387 -2.1552
 4020SOL     OW29201   2.453   2.871   1.348 -0.1699 -0.4353 -0.0350
 4020SOL    HW129202   2.517   2.808   1.314 -0.5226  0.3956 -2.4181
 4020SOL    HW229203   2.400   2.819   1.408  1.5287 -1.6023  0.5687
 4021SOL     OW29204   2.195   4.982   7.230  0.5053  0.0086  0.4005
 4021SOL    HW129205   2.200   5.032   7.311  0.6512  0.0818  0.3482
 4021SOL    HW229206   2.233   4.897   7.251 -2.5020 -1.2167  1.3165
 4022SOL     OW29207   4.653   3.345   6.055  0.3541 -0.1595 -0.1741
 4022SOL    HW129208   4.743   3.367   6.032  0.3145 -1.7493 -2.1452
 4022SOL    HW229209   4.600   3.385   5.986 -0.2346 -1.1167 -0.2939
 4023SOL     OW29210   2.724   3.262   6.680 -0.0920 -0.3051 -0.2282
 4023SOL    HW129211   2.780   3.185   6.691  0.2967 -0.0107 -0.1253
 4023SOL    HW229212   2.635   3.228   6.687  0.0458 -0.9065 -1.1522
 4024SOL     OW29213   6.032   6.414   6.789  0.5359 -0.5580  0.3842
 4024SOL    HW129214   6.116   6.429   6.745 -0.0991  0.8929 -0.4004
 4024SOL    HW229215   6.021   6.489   6.846 -0.6800 -0.2307 -0.2630
 4025SOL     OW29216   3.212   6.364   1.389 -0.0085 -0.1709  0.5612
 4025SOL    HW129217   3.174   6.288   1.344  0.8319 -1.3443  1.7521
 4025SOL    HW229218   3.217   6.337   1.481  1.3576  0.9058  0.8317
 4026SOL     OW29219   0.017   4.152   7.453  0.3890 -0.7462 -0.0122
 4026SOL    HW129220   0.077   4.224   7.434 -0.7603  0.4616  0.7708
 4026SOL    HW229221   0.004   4.155   7.548 -0.2810 -1.4829 -0.0654
 4027SOL     OW29222   5.645   3.891   1.502  0.3120 -0.2039 -0.0886
 4027SOL    HW129223   5.656   3.834   1.426  0.1133  2.2513 -2.0993
 4027SOL    HW229224   5.685   3.843   1.575 -0.4240 -3.1188 -1.4567
 4028SOL     OW29225   5.061   5.802   1.826 -0.3805 -0.4415  0.3549
 4028SOL    HW129226   5.085   5.866   1.893  1.3531 -0.8432  0.1768
 4028SOL    HW229227   5.053   5.719   1.874 -2.4958 -0.1778  0.5655
 4029SOL     OW29228   5.606   3.636   5.984  0.1391 -0.5389  0.3276
 4029SOL    HW129229   5.518   3.599   5.979 -1.1956  2.3816 -0.6995
 4029SOL    HW229230   5.618   3.656   6.077 -1.5995  1.5670  0.2086
 4030SOL     OW29231   5.677   0.972   6.240 -0.6604  0.2520  0.2599
 4030SOL    HW129232   5.730   1.050   6.226  0.6703 -0.6004  0.3794
 4030SOL    HW229233   5.620   0.967   6.163  0.9448  0.0128 -0.9588
 4031SOL     OW29234   5.312   6.439   0.462 -0.0842 -0.2583 -1.3284
 4031SOL    HW129235   5.269   6.519   0.493 -1.5697 -1.5782  0.2468
 4031SOL    HW229236   5.243   6.394   0.412  0.8708 -0.3825 -2.5713
 4032SOL     OW29237   1.923   4.005   0.722 -0.0660 -0.8597 -0.0047
 4032SOL    HW129238   1.902   3.923   0.767  0.5925 -1.0623 -0.0457
 4032SOL    HW229239   2.019   4.007   0.721 -0.0638 -0.8654 -1.4104
 4033SOL     OW29240   3.489   3.061   1.607 -0.4611 -0.0863  0.7059
 4033SOL    HW129241   3.435   3.081   1.683 -1.2119  0.2379  0.1013
 4033SOL    HW229242   3.471   3.131   1.545 -0.8484 -1.0119 -0.2680
 4034SOL     OW29243   0.189   4.725   2.098 -0.8876  0.8161 -0.1129
 4034SOL    HW129244   0.117   4.729   2.035 -1.3914 -0.7830  0.3121
 4034SOL    HW229245   0.176   4.641   2.144 -0.0536  1.5367  1.5304
 4035SOL     OW29246   0.196   4.035   1.979  0.5382 -0.0167 -0.2520
 4035SOL    HW129247   0.150   3.994   1.906 -0.5071  1.0520 -0.2361
 4035SOL    HW229248   0.261   3.970   2.007 -0.5040 -1.3112 -0.7361
 4036SOL     OW29249   2.175   2.962   7.126  0.1138 -0.1880  0.0957
 4036SOL    HW129250   2.113   2.908   7.077  1.6146 -2.4858  0.5668
 4036SOL    HW229251   2.156   2.943   7.217  0.4123  0.3962  0.2825
 4037SOL     OW29252   4.029   3.687   6.817 -0.0821  0.1342  0.1153
 4037SOL    HW129253   4.095   3.718   6.879  2.1270 -2.4883 -0.6853
 4037SOL    HW229254   4.050   3.594   6.805 -2.0031 -0.0602 -2.5856
 4038SOL     OW29255   0.686   3.544   7.726 -0.3546 -0.1435 -0.0137
 4038SOL    HW129256   0.654   3.605   7.792  0.3012 -0.0841  0.2538
 4038SOL    HW229257   0.716   3.468   7.776 -1.9095 -1.0584 -0.3854
 4039SOL     OW29258   4.103   6.107   7.717  0.4568  0.2808  0.5945
 4039SOL    HW129259   4.197   6.101   7.699  0.3751  3.3700 -1.6737
 4039SOL    HW229260   4.061   6.076   7.637 -0.3647  1.3661  0.5796
 4040SOL     OW29261   5.916   1.739   0.497 -0.2930 -0.3810 -0.2682
 4040SOL    HW129262   5.982   1.804   0.474  0.8396 -2.0000 -1.8950
 4040SOL    HW229263   5.918   1.736   0.593  2.1960 -0.5250 -0.2566
 4041SOL     OW29264   0.535   3.409   7.297  0.8459 -0.2994  0.4633
 4041SOL    HW129265   0.569   3.319   7.298 -1.2725 -1.1759  0.3143
 4041SOL    HW229266   0.511   3.426   7.388  0.6407 -0.1259  0.3771
 4042SOL     OW29267   0.813   6.027   6.136  0.7874 -0.5028  0.1783
 4042SOL    HW129268   0.817   6.105   6.081 -1.0453  0.9347  1.9706
 4042SOL    HW229269   0.829   5.955   6.075  2.5310  1.1934 -1.5506
 4043SOL     OW29270   0.794   5.405   7.470 -0.2747 -0.5374  0.1205
 4043SOL    HW129271   0.839   5.330   7.509 -1.1493 -1.0863  0.1101
 4043SOL    HW229272   0.848   5.429   7.395  1.2294  0.2963  1.4351
 4044SOL     OW29273   0.463   2.173   1.186 -0.0865  0.0561 -0.8111
 4044SOL    HW129274   0.527   2.184   1.116  0.5399  1.4822 -0.0678
 4044SOL    HW229275   0.515   2.139   1.259 -0.6326 -0.9262 -0.8711
 4045SOL     OW29276   2.907   6.053   6.086  0.3634 -0.2373  0.0442
 4045SOL    HW129277   2.812   6.052   6.074  0.3455 -3.7207 -0.5644
 4045SOL    HW229278   2.939   6.117   6.022 -1.5722  1.4715  0.7100
 4046SOL     OW29279   5.658   5.787   6.128 -0.2460 -0.0136 -0.3283
 4046SOL    HW129280   5.651   5.775   6.034  0.0061  0.0556 -0.3548
 4046SOL    HW229281   5.709   5.712   6.159  0.2573  0.3289 -0.3341
 4047SOL     OW29282   5.851   1.999   1.312 -0.5733 -0.3949  0.0723
 4047SOL    HW129283   5.824   2.056   1.385  0.4131  0.2166 -0.0297
 4047SOL    HW229284   5.794   1.923   1.320 -0.4979 -0.3407  1.4854
 4048SOL     OW29285   1.463   3.451   1.712 -0.0773  0.0274 -0.0157
 4048SOL    HW129286   1.383   3.445   1.764 -0.8717  1.7194 -0.9496
 4048SOL    HW229287   1.514   3.374   1.736 -2.6209 -1.8887 -0.4494
 4049SOL     OW29288   1.902   3.489   7.284  0.0855 -0.5523 -0.1067
 4049SOL    HW129289   1.987   3.446   7.280  1.1181  1.1475  1.7736
 4049SOL    HW229290   1.913   3.569   7.233 -0.6817 -0.7540 -0.6027
 4050SOL     OW29291   3.634   6.449   6.582  0.4689 -0.2168 -0.2067
 4050SOL    HW129292   3.595   6.446   6.494  0.9732 -0.5276 -0.4241
 4050SOL    HW229293   3.596   6.374   6.628  0.6938 -0.4356 -0.3729
 4051SOL     OW29294   3.119   1.510   1.637 -0.1646 -0.5390 -0.2267
 4051SOL    HW129295   3.128   1.575   1.706 -2.1121 -1.4642  0.9842
 4051SOL    HW229296   3.195   1.452   1.647 -0.4747 -0.7206  1.2415
 4052SOL     OW29297   3.368   4.392   6.864  0.6537  0.9685 -0.0713
 4052SOL    HW129298   3.275   4.385   6.842  0.5436  0.6814  0.4410
 4052SOL    HW229299   3.390   4.306   6.901  1.2646  0.8446 -0.6949
 4053SOL     OW29300   1.953   1.121   1.034  0.8069 -0.0533  0.0432
 4053SOL    HW129301   2.016   1.051   1.017  1.4157  0.9556 -2.3412
 4053SOL    HW229302   1.884   1.107   0.969 -0.5290 -0.0435  1.3994
 4054SOL     OW29303   1.500   2.030   1.465  0.4413 -0.1439 -0.1871
 4054SOL    HW129304   1.591   2.059   1.464 -0.0490  1.5582  0.2059
 4054SOL    HW229305   1.489   1.989   1.551  1.0867 -1.3140 -0.6441
 4055SOL     OW29306   4.324   3.072   7.660  0.1939 -0.0647  0.1181
 4055SOL    HW129307   4.277   2.989   7.670 -1.5234  0.4095 -2.8139
 4055SOL    HW229308   4.288   3.128   7.729  1.3838 -1.6547  2.1417
 4056SOL     OW29309   1.689   1.707   7.180 -0.2588 -0.9358 -0.3170
 4056SOL    HW129310   1.737   1.632   7.216  0.5052  0.5670  2.0486
 4056SOL    HW229311   1.642   1.744   7.255 -1.5170  0.3110 -1.6531
 4057SOL     OW29312   5.053   5.446   7.333  0.0196 -0.0869 -0.4489
 4057SOL    HW129313   5.051   5.446   7.237  1.0654 -0.5825 -0.4913
 4057SOL    HW229314   5.136   5.488   7.355 -0.0894 -0.2121  0.2368
 4058SOL     OW29315   0.799   5.903   7.074 -0.5082  0.3637 -0.3048
 4058SOL    HW129316   0.772   5.823   7.030 -0.4080 -0.3936  0.9644
 4058SOL    HW229317   0.890   5.887   7.100 -0.4251  0.9597 -0.2012
 4059SOL     OW29318   6.131   6.046   7.645 -0.0417 -0.1234  0.0329
 4059SOL    HW129319   6.097   6.087   7.725  1.2112  0.1987  0.4346
 4059SOL    HW229320   6.181   6.116   7.602  1.0859 -0.8647  0.0890
 4060SOL     OW29321   0.767   4.857   7.734  0.1408  0.0576  0.7395
 4060SOL    HW129322   0.753   4.895   7.648  0.3703  1.3987  1.2751
 4060SOL    HW229323   0.861   4.835   7.735  0.0321 -0.4516  0.4759
 4061SOL     OW29324   4.938   0.552   0.396  0.0552  0.3736  0.9852
 4061SOL    HW129325   4.896   0.625   0.442  1.3710  2.0909 -0.3436
 4061SOL    HW229326   4.921   0.570   0.303  2.8890  0.7281  0.4303
 4062SOL     OW29327   3.843   0.814   1.920 -0.3011  0.0552  0.6914
 4062SOL    HW129328   3.876   0.731   1.886  0.6827  0.9938 -0.7224
 4062SOL    HW229329   3.754   0.820   1.885 -0.8307 -0.9221  1.7838
 4063SOL     OW29330   6.039   4.032   5.352  0.6951  0.6930 -0.3873
 4063SOL    HW129331   6.127   4.020   5.316 -0.4166  0.3210 -3.2091
 4063SOL    HW229332   6.025   3.954   5.406  2.2207  0.9807  0.4943
 4064SOL     OW29333   6.048   1.249   6.944  0.2372  0.4292 -0.4817
 4064SOL    HW129334   6.058   1.162   6.983  3.2049  1.0307  0.3623
 4064SOL    HW229335   6.110   1.249   6.871 -0.7730  1.4010 -1.3723
 4065SOL     OW29336   6.356   6.121   0.789  0.1325 -0.2266 -0.5635
 4065SOL    HW129337   6.358   6.026   0.782 -0.0660 -0.2378 -0.4701
 4065SOL    HW229338   6.273   6.146   0.749  0.2902 -0.0735 -0.8028
 4066SOL     OW29339   5.801   5.050   5.326 -0.1204 -0.7951 -0.3896
 4066SOL    HW129340   5.857   4.973   5.315  0.6513 -0.3092  0.0506
 4066SOL    HW229341   5.738   5.024   5.393  0.1265 -1.0589 -0.2536
 4067SOL     OW29342   3.233   5.354   0.277  0.4765  0.1963 -0.6882
 4067SOL    HW129343   3.175   5.301   0.332  0.5156  1.8113  1.0203
 4067SOL    HW229344   3.196   5.346   0.189 -0.5676 -1.1858 -0.1648
 4068SOL     OW29345   0.303   4.347   5.876  0.3195  0.6432  0.1038
 4068SOL    HW129346   0.351   4.298   5.943  2.0853  1.3786 -0.5609
 4068SOL    HW229347   0.234   4.288   5.847  2.1519 -1.3619 -0.4122
 4069SOL     OW29348   2.032   0.162   6.769 -0.1185  0.2089  0.2351
 4069SOL    HW129349   2.127   0.165   6.756 -0.1673  0.6783 -0.0097
 4069SOL    HW229350   2.005   0.253   6.770 -0.7460  0.0507 -0.9972
 4070SOL     OW29351   4.495   5.409   6.748  0.2646  0.4551  0.2139
 4070SOL    HW129352   4.407   5.444   6.741  0.3159  0.6358  0.4760
 4070SOL    HW229353   4.545   5.457   6.682  0.3487  0.9228  0.6143
 4071SOL     OW29354   3.749   2.377   1.500 -0.4832 -0.1536  0.1130
 4071SOL    HW129355   3.802   2.358   1.422 -0.3878  0.4950  0.0092
 4071SOL    HW229356   3.711   2.463   1.482  1.9765  1.5027  2.0341
 4072SOL     OW29357   2.611   2.306   0.305 -0.1400  0.3506 -0.1857
 4072SOL    HW129358   2.698   2.269   0.285  0.5193  1.4096  0.6193
 4072SOL    HW229359   2.599   2.288   0.398 -0.5173  0.7628 -0.1561
 4073SOL     OW29360   0.545   3.505   1.515 -0.2128 -0.4094 -0.1302
 4073SOL    HW129361   0.615   3.460   1.469  1.2099  2.2001 -0.6862
 4073SOL    HW229362   0.566   3.496   1.607 -0.8719 -2.2215 -0.1228
 4074SOL     OW29363   1.031   3.875   5.778  0.2094 -0.3570 -0.1578
 4074SOL    HW129364   1.020   3.843   5.688 -0.4833 -1.2999  0.2475
 4074SOL    HW229365   1.101   3.820   5.814 -2.0312 -2.6182  1.0374
 4075SOL     OW29366   1.069   0.295   0.030  0.2452 -0.1459 -0.1475
 4075SOL    HW129367   1.038   0.269   0.117 -1.7187 -2.8978 -1.5283
 4075SOL    HW229368   1.000   0.351  -0.004 -0.6078 -1.7005 -1.0897
 4076SOL     OW29369   6.121   2.277   7.535 -0.6732 -0.5383 -0.4260
 4076SOL    HW129370   6.207   2.235   7.536 -0.8671 -0.9342 -0.2873
 4076SOL    HW229371   6.078   2.246   7.614 -0.5723  0.4430  0.0274
 4077SOL     OW29372   2.685   3.278   1.864 -0.5739  0.3055 -0.5528
 4077SOL    HW129373   2.767   3.257   1.820 -0.1349  1.3514 -0.2647
 4077SOL    HW229374   2.710   3.336   1.936 -1.7606  2.3288 -1.6804
 4078SOL     OW29375   0.624   2.728   7.549  0.4437  0.1294  0.0241
 4078SOL    HW129376   0.575   2.709   7.468 -0.8134  2.3917  0.1731
 4078SOL    HW229377   0.692   2.789   7.522  1.5292 -0.9310  0.3030
 4079SOL     OW29378   1.492   5.917   0.456  0.1746  0.1864  0.5854
 4079SOL    HW129379   1.408   5.889   0.491  0.3619 -0.7365  0.3266
 4079SOL    HW229380   1.557   5.882   0.517  0.4610 -0.7713 -0.2233
 4080SOL     OW29381   2.530   0.522   5.761 -0.0808 -0.8639 -0.0791
 4080SOL    HW129382   2.453   0.575   5.738 -0.7479 -1.8825 -0.2234
 4080SOL    HW229383   2.535   0.455   5.693  0.1870 -1.5803  0.6319
 4081SOL     OW29384   5.656   0.921   6.883  0.0663  0.0883 -0.2155
 4081SOL    HW129385   5.601   0.843   6.889  0.1706 -0.0695 -1.1235
 4081SOL    HW229386   5.632   0.974   6.959  0.4704 -1.1313  0.7932
 4082SOL     OW29387   1.913   4.367   7.488 -0.2002  0.6109 -0.9022
 4082SOL    HW129388   1.848   4.398   7.551 -1.5365  0.4556 -2.1602
 4082SOL    HW229389   1.901   4.272   7.485  2.0077  0.1913  0.8903
 4083SOL     OW29390   0.236   1.503   6.922 -0.1009 -0.2326 -0.2975
 4083SOL    HW129391   0.324   1.540   6.909 -0.2958  0.2372 -0.3101
 4083SOL    HW229392   0.206   1.479   6.834 -0.7414  1.3769 -0.5574
 4084SOL     OW29393   3.785   5.715   0.526  0.2295  0.0194  0.3480
 4084SOL    HW129394   3.869   5.681   0.558 -0.4859 -0.8563  1.3844
 4084SOL    HW229395   3.755   5.773   0.596  0.4646  1.1941 -0.5061
 4085SOL     OW29396   0.745   3.042   7.557 -0.1220  0.2143  0.1923
 4085SOL    HW129397   0.781   3.131   7.550 -0.9248  0.5012 -0.4400
 4085SOL    HW229398   0.662   3.053   7.602 -1.5507  0.2004 -2.2513
 4086SOL     OW29399   4.709   5.632   0.375  0.1657  0.4608  0.1688
 4086SOL    HW129400   4.636   5.667   0.426 -1.2907 -0.1638 -1.4111
 4086SOL    HW229401   4.715   5.691   0.299  0.2383 -0.4363 -0.5318
 4087SOL     OW29402   5.006   2.951   2.138  0.2047 -0.3749 -0.1883
 4087SOL    HW129403   5.067   3.014   2.100  0.4299 -0.7513 -0.4630
 4087SOL    HW229404   5.058   2.905   2.204 -0.4793  1.0082  1.3591
 4088SOL     OW29405   2.902   4.462   6.978  0.0534 -0.3308  0.8732
 4088SOL    HW129406   2.849   4.447   6.900  0.5274  0.5342  0.3785
 4088SOL    HW229407   2.876   4.391   7.038  1.2534 -2.3100 -0.8299
 4089SOL     OW29408   3.459   4.760   6.008 -0.1861  0.3792 -0.4968
 4089SOL    HW129409   3.373   4.748   5.970 -0.2145  0.3958 -0.4385
 4089SOL    HW229410   3.517   4.703   5.957 -0.6435 -1.4521  0.9299
 4090SOL     OW29411   6.430   5.194   0.722 -0.4359 -0.0613 -0.0099
 4090SOL    HW129412   6.369   5.147   0.779  1.1100 -1.3110  0.7116
 4090SOL    HW229413   6.515   5.151   0.737  0.3252  0.5560 -2.1491
 4091SOL     OW29414   2.988   4.687   0.829  0.0899  0.3476 -0.6116
 4091SOL    HW129415   3.076   4.693   0.868 -0.4669  0.5321  0.6602
 4091SOL    HW229416   2.997   4.620   0.761  0.4900 -2.0683  1.6433
 4092SOL     OW29417   1.190   2.084   6.571 -0.0258  0.7137 -0.5809
 4092SOL    HW129418   1.110   2.133   6.548 -1.4885  0.1110  2.7115
 4092SOL    HW229419   1.246   2.149   6.612 -0.3219  0.4347  0.2723
 4093SOL     OW29420   4.172   0.334   7.433 -0.5709 -0.0818  0.0432
 4093SOL    HW129421   4.180   0.307   7.341  0.1429 -2.4843  0.7216
 4093SOL    HW229422   4.222   0.267   7.481 -1.8480  0.4744  2.2747
 4094SOL     OW29423   0.347   2.557   2.424  0.2920 -0.1876  0.0807
 4094SOL    HW129424   0.257   2.529   2.410  0.5569 -0.5262 -1.0934
 4094SOL    HW229425   0.394   2.527   2.346  1.5308 -0.4790  0.8905
 4095SOL     OW29426   6.164   4.953   0.459 -0.3457  0.2151 -0.2276
 4095SOL    HW129427   6.103   4.879   0.463 -0.9592  0.6898 -0.5783
 4095SOL    HW229428   6.137   5.002   0.381 -0.5592  1.3246  0.5304
 4096SOL     OW29429   2.633   6.017   6.088  0.1297 -0.2455 -0.3088
 4096SOL    HW129430   2.605   5.926   6.076 -0.4354  0.0846 -1.6024
 4096SOL    HW229431   2.599   6.041   6.174  0.3820 -1.2852  0.1036
 4097SOL     OW29432   2.582   5.526   2.262  0.8273 -0.2527  0.4078
 4097SOL    HW129433   2.489   5.540   2.278  0.8767 -0.6414  1.0655
 4097SOL    HW229434   2.618   5.614   2.248  0.1204 -0.1955 -1.2509
 4098SOL     OW29435   2.726   0.410   7.060 -0.0068  0.2319 -0.7081
 4098SOL    HW129436   2.819   0.409   7.035 -0.1870 -0.4031 -1.3904
 4098SOL    HW229437   2.682   0.453   6.987 -0.3289 -0.0568 -0.6890
 4099SOL     OW29438   3.293   1.836   0.588  0.1409  0.0093 -0.1544
 4099SOL    HW129439   3.360   1.902   0.566  0.2812  0.5217  1.6319
 4099SOL    HW229440   3.337   1.777   0.649 -1.0147  0.3480  1.0471
 4100SOL     OW29441   2.192   0.261   0.824  0.2163  0.3298  0.1314
 4100SOL    HW129442   2.180   0.283   0.731  1.5941  1.3212  0.1547
 4100SOL    HW229443   2.287   0.267   0.837  0.1963 -1.2800  1.2609
 4101SOL     OW29444   2.860   1.489   0.782 -0.0005  0.5043  0.0624
 4101SOL    HW129445   2.885   1.396   0.788 -0.2545  0.4638  0.4935
 4101SOL    HW229446   2.768   1.487   0.757 -0.3016  0.6254  1.1227
 4102SOL     OW29447   1.010   3.562   5.823  0.1484  0.4507 -0.4013
 4102SOL    HW129448   0.950   3.548   5.749 -1.3178  2.8505  0.2168
 4102SOL    HW229449   1.094   3.529   5.792 -0.4254  1.3087 -3.1345
 4103SOL     OW29450   3.791   2.911   7.327 -0.5847 -0.3242  0.2370
 4103SOL    HW129451   3.855   2.957   7.273 -1.1491  0.0073 -0.1531
 4103SOL    HW229452   3.814   2.937   7.417 -0.2607 -0.1006  0.0926
 4104SOL     OW29453   4.321   0.195   6.285  0.2477  0.4415 -0.0078
 4104SOL    HW129454   4.300   0.151   6.203 -1.2869  1.9664 -0.4803
 4104SOL    HW229455   4.416   0.182   6.295 -0.1323 -3.4140  0.2368
 4105SOL     OW29456   5.994   6.331   1.001 -0.2984  0.8892 -0.0761
 4105SOL    HW129457   5.963   6.281   1.076 -0.7051  1.4033  0.1114
 4105SOL    HW229458   5.914   6.358   0.956 -0.0522  0.4183 -0.8110
 4106SOL     OW29459   5.716   6.019   1.551 -0.0995  0.1527 -0.3762
 4106SOL    HW129460   5.682   5.935   1.583  0.2362 -0.0437 -0.5382
 4106SOL    HW229461   5.638   6.070   1.531 -0.3494  0.4275  1.1279
 4107SOL     OW29462   3.169   1.961   5.847  0.1672  0.1118  0.0621
 4107SOL    HW129463   3.082   1.997   5.830 -0.3871 -1.3007 -0.2367
 4107SOL    HW229464   3.188   1.906   5.771  1.2875  0.3459  0.1592
 4108SOL     OW29465   1.705   0.757   0.353  0.0597 -0.0379  0.1429
 4108SOL    HW129466   1.737   0.667   0.341  2.8133  0.7904  0.6936
 4108SOL    HW229467   1.680   0.785   0.265 -1.4532 -1.4783  0.0410
 4109SOL     OW29468   5.330   5.034   0.212 -0.2496 -0.1655 -0.0359
 4109SOL    HW129469   5.392   5.076   0.271 -0.0757 -2.2250  1.3423
 4109SOL    HW229470   5.379   5.021   0.131  0.4973 -0.0600  0.3903
 4110SOL     OW29471   4.841   4.222   6.564  0.1003 -0.2593 -0.0973
 4110SOL    HW129472   4.817   4.278   6.638  0.9416 -0.5331  0.4025
 4110SOL    HW229473   4.823   4.133   6.594  0.7277 -0.3934 -0.1014
 4111SOL     OW29474   2.264   2.940   2.630  0.4802 -0.3644 -0.0042
 4111SOL    HW129475   2.322   3.013   2.648 -1.1647  0.7056  1.3051
 4111SOL    HW229476   2.242   2.948   2.537  0.4989  0.6900  0.0750
 4112SOL     OW29477   4.804   1.470   1.780  0.4153  0.3844  0.1097
 4112SOL    HW129478   4.764   1.557   1.769  1.5467  1.2575  2.2415
 4112SOL    HW229479   4.898   1.486   1.773  0.7372 -0.3375  2.0523
 4113SOL     OW29480   0.020   2.122   0.249 -0.2995 -0.3153  0.0470
 4113SOL    HW129481   0.091   2.173   0.209 -0.4366 -0.8375 -0.8949
 4113SOL    HW229482   0.064   2.044   0.284 -0.4083 -0.6961 -0.6409
 4114SOL     OW29483   3.728   1.927   6.054  0.2397  0.5814  0.1614
 4114SOL    HW129484   3.676   1.920   5.974  1.0721  0.7406 -0.4055
 4114SOL    HW229485   3.664   1.921   6.125 -0.4882  0.2321 -0.5102
 4115SOL     OW29486   4.284   3.531   6.084 -0.3776 -0.6720 -0.6576
 4115SOL    HW129487   4.321   3.515   5.997  0.2223  0.9755 -0.7332
 4115SOL    HW229488   4.360   3.555   6.138 -0.5092 -3.0636  0.7397
 4116SOL     OW29489   4.752   1.183   6.454 -0.2438 -0.0693  0.2838
 4116SOL    HW129490   4.726   1.138   6.374 -0.1734 -3.2153  1.8710
 4116SOL    HW229491   4.773   1.112   6.516 -0.8771  2.1512  3.2879
 4117SOL     OW29492   5.081   5.633   7.560  0.2586 -0.0411 -0.0216
 4117SOL    HW129493   4.993   5.595   7.560 -0.0771  0.6959  1.0066
 4117SOL    HW229494   5.088   5.677   7.475 -1.0891  1.4598  0.6005
 4118SOL     OW29495   6.035   2.889   6.609  0.1864  0.0043  0.2993
 4118SOL    HW129496   5.990   2.830   6.549 -0.3526  0.4520  0.2570
 4118SOL    HW229497   6.060   2.834   6.683  0.2802 -0.4140 -0.0373
 4119SOL     OW29498   4.066   3.137   0.952  0.0884  0.3528  0.3246
 4119SOL    HW129499   4.081   3.101   0.864 -0.8835  0.1802  0.2226
 4119SOL    HW229500   3.977   3.173   0.948  0.9983  2.8570  0.3840
 4120SOL     OW29501   3.151   0.230   6.136  0.3476 -0.6242  0.7519
 4120SOL    HW129502   3.154   0.310   6.084  0.2032 -0.0161  1.6697
 4120SOL    HW229503   3.168   0.160   6.073 -0.6531  0.0265 -0.2676
 4121SOL     OW29504   3.778   0.839   0.915  0.5050  0.2500  0.4969
 4121SOL    HW129505   3.692   0.862   0.879  0.9734  0.8169 -0.2839
 4121SOL    HW229506   3.764   0.753   0.954 -0.4354  0.3537  0.4291
 4122SOL     OW29507   0.562   0.783   1.301  0.0038  0.2532  0.2587
 4122SOL    HW129508   0.503   0.812   1.370  0.5299 -1.1428  1.3408
 4122SOL    HW229509   0.514   0.713   1.256 -1.0287  2.2447 -1.9588
 4123SOL     OW29510   2.950   3.067   1.961  0.2973  0.0024  0.2022
 4123SOL    HW129511   3.006   3.115   2.022 -0.6200  0.1851  0.9261
 4123SOL    HW229512   2.948   3.121   1.882 -0.6828  1.1822  0.9875
 4124SOL     OW29513   4.712   3.038   6.854 -0.4500  0.2823  0.2919
 4124SOL    HW129514   4.670   2.970   6.801  0.3405 -1.3174  1.6489
 4124SOL    HW229515   4.749   3.098   6.789 -0.7667 -0.8127 -0.9530
 4125SOL     OW29516   1.076   0.216   1.041 -0.1055  0.1301  0.0910
 4125SOL    HW129517   1.036   0.132   1.067 -0.7501  0.7118  1.0402
 4125SOL    HW229518   1.133   0.239   1.114  2.0900 -0.7035 -1.2573
 4126SOL     OW29519   5.864   2.587   0.483  0.0276  0.4509 -0.3808
 4126SOL    HW129520   5.806   2.615   0.413 -1.0529  0.4575  0.4982
 4126SOL    HW229521   5.807   2.576   0.559  0.9290 -0.9853  0.1346
 4127SOL     OW29522   2.403   4.133   1.973 -0.1115  0.4444 -0.0389
 4127SOL    HW129523   2.477   4.104   2.026  0.1044  2.0949  0.6124
 4127SOL    HW229524   2.329   4.132   2.033 -0.0301  1.5389  0.0993
 4128SOL     OW29525   3.208   0.396   0.422 -0.5433 -0.1493  0.0578
 4128SOL    HW129526   3.126   0.398   0.374 -1.2889  1.2654  1.3098
 4128SOL    HW229527   3.268   0.448   0.368 -1.3019  1.2198  0.4777
 4129SOL     OW29528   4.949   1.015   5.343 -0.5870 -0.1233 -0.0110
 4129SOL    HW129529   4.931   1.083   5.408  0.6429  0.2042  0.0137
 4129SOL    HW229530   4.915   0.934   5.382 -1.7772  0.4083  0.0993
 4130SOL     OW29531   0.849   2.637   5.903 -0.3271  0.1872 -0.0659
 4130SOL    HW129532   0.801   2.641   5.820  1.0954  1.2598 -0.8855
 4130SOL    HW229533   0.884   2.548   5.906 -0.4673  0.1119 -0.5759
 4131SOL     OW29534   5.240   5.263   6.685 -0.2591  0.1437 -0.2965
 4131SOL    HW129535   5.264   5.347   6.647  0.0901  0.0610 -0.2659
 4131SOL    HW229536   5.165   5.282   6.741  1.5273  1.0044  1.9780
 4132SOL     OW29537   4.439   5.053   1.225 -0.0154  0.1191 -0.1595
 4132SOL    HW129538   4.406   4.978   1.177 -0.1759 -2.2540  3.2645
 4132SOL    HW229539   4.361   5.097   1.258  0.1217  0.6780 -0.5610
 4133SOL     OW29540   5.361   0.830   5.159 -0.2665 -0.3591 -0.4810
 4133SOL    HW129541   5.395   0.768   5.224  0.8664  1.6193  0.9316
 4133SOL    HW229542   5.266   0.821   5.165 -0.2260  0.1430  1.9073
 4134SOL     OW29543   0.295   5.649   0.762 -0.0965 -0.0835 -0.1736
 4134SOL    HW129544   0.249   5.710   0.704 -1.1649 -0.0433  0.6855
 4134SOL    HW229545   0.227   5.612   0.817  0.6772 -1.3312 -0.0110
 4135SOL     OW29546   5.721   3.300   7.313  0.5502  0.1687 -0.0386
 4135SOL    HW129547   5.796   3.263   7.359  0.5035  1.1579  0.8867
 4135SOL    HW229548   5.755   3.325   7.227  0.9170 -0.7059 -0.1481
 4136SOL     OW29549   0.245   2.404   7.580 -0.6017 -0.6889 -0.4527
 4136SOL    HW129550   0.209   2.391   7.668 -2.4206  1.4317 -0.7902
 4136SOL    HW229551   0.211   2.331   7.529  0.3047 -1.8244  0.5297
 4137SOL     OW29552   1.361   5.253   6.020  0.1054  0.1670  0.5451
 4137SOL    HW129553   1.379   5.322   5.956 -0.5170 -0.5164 -0.3995
 4137SOL    HW229554   1.288   5.203   5.981 -0.8447  0.2255  2.1730
 4138SOL     OW29555   4.773   2.022   7.534 -0.3176  0.0928  0.2985
 4138SOL    HW129556   4.807   2.073   7.461 -0.0129 -0.4201  0.0778
 4138SOL    HW229557   4.679   2.019   7.520 -0.5127  1.6517  0.9894
 4139SOL     OW29558   1.038   0.196   6.544  0.2782 -0.4029  0.1224
 4139SOL    HW129559   1.078   0.254   6.608 -1.1473  1.8291 -0.9021
 4139SOL    HW229560   1.066   0.231   6.459 -2.6811  0.4470 -0.5961
 4140SOL     OW29561   6.172   4.491   0.805 -0.0837  0.1487 -0.6965
 4140SOL    HW129562   6.093   4.471   0.755 -1.9606 -0.9358  2.4096
 4140SOL    HW229563   6.242   4.495   0.739 -2.5773  0.5848 -3.5223
 4141SOL     OW29564   5.075   4.580   7.563  0.0736  0.1980 -0.3139
 4141SOL    HW129565   5.035   4.568   7.649  0.4341  0.1576 -0.1491
 4141SOL    HW229566   5.156   4.529   7.567 -1.2012 -2.0801 -1.6226
 4142SOL     OW29567   3.494   0.828   1.041 -0.0669  0.2099 -0.8002
 4142SOL    HW129568   3.578   0.832   1.087 -1.1500  2.0389  1.1984
 4142SOL    HW229569   3.446   0.905   1.073 -2.3990 -0.6342 -2.0851
 4143SOL     OW29570   1.822   3.089   7.628  0.3554  0.3228 -0.0028
 4143SOL    HW129571   1.905   3.137   7.622  0.7949 -0.5731 -2.4107
 4143SOL    HW229572   1.798   3.093   7.720  4.0563 -0.9714  1.2081
 4144SOL     OW29573   0.975   4.861   1.786  0.1640 -0.4930 -0.6380
 4144SOL    HW129574   0.886   4.844   1.815 -0.5018  0.4560 -2.0296
 4144SOL    HW229575   1.021   4.892   1.865 -1.0381  0.0927 -0.1518
 4145SOL     OW29576   2.623   0.009   0.475 -0.0773  0.0662  0.1930
 4145SOL    HW129577   2.572   0.089   0.474 -1.8965 -1.0286  0.9507
 4145SOL    HW229578   2.564  -0.058   0.441  1.5508 -0.9061 -0.9094
 4146SOL     OW29579   0.683   2.903   0.712  0.3972 -0.4031  0.2411
 4146SOL    HW129580   0.656   2.814   0.689  0.4421  0.2752 -2.7591
 4146SOL    HW229581   0.605   2.942   0.753 -0.1782 -1.2873  0.0132
 4147SOL     OW29582   2.124   4.939   5.955  0.2409  0.7649  0.1582
 4147SOL    HW129583   2.151   4.922   5.864 -0.2868  1.4280 -0.1378
 4147SOL    HW229584   2.051   4.878   5.969  1.0613 -0.1434  0.5323
 4148SOL     OW29585   1.004   1.553   6.110 -0.1142  0.6788  0.0561
 4148SOL    HW129586   0.974   1.567   6.020 -2.9061 -0.9487  0.6207
 4148SOL    HW229587   1.059   1.475   6.105 -0.9341  0.0987 -0.1563
 4149SOL     OW29588   1.752   1.901   1.731 -0.6439 -0.3652  0.0077
 4149SOL    HW129589   1.665   1.865   1.714 -0.9810  0.7223 -0.7244
 4149SOL    HW229590   1.805   1.826   1.758 -1.2977 -1.4119 -1.4689
 4150SOL     OW29591   0.291   5.889   6.599  0.5612 -0.1993 -0.2591
 4150SOL    HW129592   0.319   5.897   6.690 -0.0180  2.2216 -0.2083
 4150SOL    HW229593   0.353   5.942   6.550 -1.4520  1.9984 -0.6398
 4151SOL     OW29594   0.021   5.450   0.546 -0.0053  0.3120 -0.0963
 4151SOL    HW129595   0.013   5.359   0.574 -1.0412 -0.5610 -2.8405
 4151SOL    HW229596  -0.002   5.501   0.623 -1.8175 -1.8054  0.8909
 4152SOL     OW29597   3.441   2.102   7.288  0.0506  1.1053  0.6891
 4152SOL    HW129598   3.387   2.169   7.332  0.9884  1.2703  1.6336
 4152SOL    HW229599   3.380   2.057   7.230 -1.0533  1.4584  1.5316
 4153SOL     OW29600   1.021   3.190   6.505  0.3569  0.2474  0.3737
 4153SOL    HW129601   1.059   3.186   6.417  1.7885 -0.8846  1.0216
 4153SOL    HW229602   0.940   3.241   6.493  0.5531  0.1807 -1.5747
 4154SOL     OW29603   2.921   4.076   1.964 -0.1861 -0.6312  0.3234
 4154SOL    HW129604   2.997   4.070   2.021 -0.7123  0.3608  1.1647
 4154SOL    HW229605   2.874   3.993   1.978  0.1074 -0.7319  0.7248
 4155SOL     OW29606   2.787   4.436   5.574  0.6509  0.1505 -0.1969
 4155SOL    HW129607   2.800   4.342   5.586 -1.4170 -0.1784 -0.1768
 4155SOL    HW229608   2.870   4.475   5.601  1.5763 -1.6607 -0.2583
 4156SOL     OW29609   1.043   4.384   0.216 -0.0442 -0.2082 -0.2773
 4156SOL    HW129610   1.116   4.341   0.172  0.5955  0.9665 -0.4027
 4156SOL    HW229611   1.078   4.469   0.243 -0.7827 -0.4246  1.4516
 4157SOL     OW29612   2.879   6.268   5.775  0.2504  0.3294 -0.0369
 4157SOL    HW129613   2.917   6.296   5.858 -0.1145  1.8335 -0.3365
 4157SOL    HW229614   2.937   6.199   5.744  0.4684 -0.1559  1.3876
 4158SOL     OW29615   5.637   4.546   0.931 -0.3651  0.5455  0.1183
 4158SOL    HW129616   5.717   4.597   0.946  0.4999 -0.9239  0.7622
 4158SOL    HW229617   5.575   4.609   0.894  0.1006  2.4757  2.3362
 4159SOL     OW29618   3.659   6.435   1.856 -0.4382  0.4019 -0.4703
 4159SOL    HW129619   3.735   6.398   1.811  0.1886  0.0820  0.8021
 4159SOL    HW229620   3.627   6.503   1.797  1.5659  1.3760 -0.5320
 4160SOL     OW29621   2.145   2.791   6.419 -0.2196  0.2224  0.2452
 4160SOL    HW129622   2.115   2.800   6.329 -0.9909  0.6895  0.5414
 4160SOL    HW229623   2.077   2.739   6.462 -1.1633  2.1024  1.1593
 4161SOL     OW29624   1.487   6.335   5.457 -0.0097  0.9211  0.0960
 4161SOL    HW129625   1.452   6.298   5.538 -1.0767  0.7138 -0.4576
 4161SOL    HW229626   1.446   6.285   5.387 -0.4013  2.2045 -0.6233
 4162SOL     OW29627   2.426   4.227   7.661  0.0179 -0.3886 -0.3961
 4162SOL    HW129628   2.396   4.289   7.595  1.5132  0.4605 -0.3249
 4162SOL    HW229629   2.346   4.188   7.696 -1.2109  3.2040  1.2770
 4163SOL     OW29630   1.173   4.281   6.352  0.2309 -0.2059  0.2474
 4163SOL    HW129631   1.192   4.216   6.285  2.2651 -1.1856  1.6730
 4163SOL    HW229632   1.172   4.233   6.434 -1.1344  1.1317  1.0800
 4164SOL     OW29633   4.697   4.428   7.587 -0.3943 -1.0911 -0.5642
 4164SOL    HW129634   4.727   4.367   7.520  0.7093 -1.2662  0.0520
 4164SOL    HW229635   4.670   4.373   7.660  1.6027 -0.8854  0.3990
 4165SOL     OW29636   2.938   2.764   0.772  0.1794  0.3761 -0.3675
 4165SOL    HW129637   2.907   2.674   0.767 -0.3790  0.5593 -0.3765
 4165SOL    HW229638   3.025   2.763   0.732 -0.6006  0.1973 -2.1661
 4166SOL     OW29639   5.635   4.633   6.542 -0.6815  0.1990  0.3223
 4166SOL    HW129640   5.661   4.651   6.451 -1.0593 -0.6296  0.0384
 4166SOL    HW229641   5.637   4.718   6.584 -0.0138  0.5284 -0.3376
 4167SOL     OW29642   0.453   5.326   6.577 -0.1816 -0.9148  0.1154
 4167SOL    HW129643   0.481   5.349   6.666  2.0107 -0.8317 -0.5293
 4167SOL    HW229644   0.403   5.245   6.587  2.3551 -2.4763  1.2102
 4168SOL     OW29645   3.134   1.929   1.138 -0.7495 -0.1250 -0.1274
 4168SOL    HW129646   3.059   1.893   1.185 -0.2655  0.1424  0.8684
 4168SOL    HW229647   3.123   1.898   1.048 -2.4568  0.5455 -0.1794
 4169SOL     OW29648   0.467   6.059   6.459  0.5014 -0.1052  0.6310
 4169SOL    HW129649   0.414   6.084   6.384 -0.8830 -0.4717  1.4459
 4169SOL    HW229650   0.504   6.142   6.491  0.0763  0.2191  0.2960
 4170SOL     OW29651   4.013   4.299   5.351  0.2435  0.5437  0.1236
 4170SOL    HW129652   3.966   4.311   5.268 -1.2141 -0.6177  0.7552
 4170SOL    HW229653   3.993   4.378   5.401 -0.4614  0.3706  0.1171
 4171SOL     OW29654   5.441   0.619   0.546  0.0012 -0.2597 -0.5613
 4171SOL    HW129655   5.485   0.668   0.477  0.4825  0.1279  0.0143
 4171SOL    HW229656   5.351   0.609   0.514 -0.4331  1.9774 -0.2200
 4172SOL     OW29657   1.302   3.127   1.399 -0.2497 -0.4129  0.5816
 4172SOL    HW129658   1.237   3.173   1.452  0.3445 -0.3855  1.3088
 4172SOL    HW229659   1.362   3.089   1.463  0.3307 -0.6169 -0.0687
 4173SOL     OW29660   3.244   5.908   5.548  0.5063  0.0577 -0.4944
 4173SOL    HW129661   3.310   5.975   5.527  1.4654 -1.1348 -1.3982
 4173SOL    HW229662   3.241   5.852   5.470 -0.8254 -0.5279 -0.0436
 4174SOL     OW29663   0.766   2.611   0.578  0.6382  0.6027  0.2212
 4174SOL    HW129664   0.820   2.635   0.503  0.0682 -1.5065 -0.9561
 4174SOL    HW229665   0.706   2.545   0.544 -1.5745  1.6200  1.8851
 4175SOL     OW29666   4.598   3.971   6.556 -0.1782 -0.6815 -0.2555
 4175SOL    HW129667   4.691   3.981   6.537 -0.7271  1.3379 -2.4381
 4175SOL    HW229668   4.567   3.908   6.490 -0.3451 -1.4664  0.5606
 4176SOL     OW29669   2.128   2.026   0.607 -0.5483  0.2528 -0.4598
 4176SOL    HW129670   2.079   2.065   0.679  2.2355  1.1553  1.0933
 4176SOL    HW229671   2.171   1.950   0.645  1.4286  1.0706 -0.9334
 4177SOL     OW29672   5.435   4.067   7.077  0.6852 -0.3955 -0.1149
 4177SOL    HW129673   5.527   4.060   7.101  0.3528 -1.2076  1.0164
 4177SOL    HW229674   5.387   4.044   7.157 -0.4849 -1.3777 -1.0421
 4178SOL     OW29675   2.150   4.908   6.282 -0.2539  0.3010  0.3596
 4178SOL    HW129676   2.184   4.861   6.205  2.1687  0.7698  1.0324
 4178SOL    HW229677   2.151   4.842   6.351 -0.8115  0.3054  0.3706
 4179SOL     OW29678   5.598   2.419   7.344 -0.3274  0.0005  0.3224
 4179SOL    HW129679   5.627   2.383   7.261  0.8816  0.3321  0.5904
 4179SOL    HW229680   5.521   2.472   7.322 -0.4575 -0.5073 -0.4621
 4180SOL     OW29681   1.770   1.440   6.585 -0.7156  0.1277 -0.2403
 4180SOL    HW129682   1.751   1.442   6.679 -0.9796 -2.9133 -0.1151
 4180SOL    HW229683   1.698   1.390   6.547  1.2609 -2.0276 -1.4253
 4181SOL     OW29684   3.402   3.555   0.579  0.7402  0.3019  0.3144
 4181SOL    HW129685   3.382   3.543   0.486  0.8899 -0.6154  0.3969
 4181SOL    HW229686   3.432   3.646   0.585 -1.1373  1.0183 -0.2048
 4182SOL     OW29687   1.200   4.950   5.547  0.2115  0.1761 -0.6764
 4182SOL    HW129688   1.191   4.988   5.459  0.1176  1.2870 -0.2063
 4182SOL    HW229689   1.157   5.013   5.605  1.1989 -0.0090  0.2864
 4183SOL     OW29690   4.517   1.954   0.532 -0.2702  0.2077  0.7796
 4183SOL    HW129691   4.484   1.884   0.476  0.5654  1.2951 -1.1871
 4183SOL    HW229692   4.493   1.928   0.621 -2.8519 -0.9445 -0.1627
 4184SOL     OW29693   0.673   0.595   7.689 -0.3241  0.1954 -0.7044
 4184SOL    HW129694   0.676   0.564   7.598  1.6395 -1.0672 -0.2736
 4184SOL    HW229695   0.730   0.672   7.689  1.7696 -1.2553 -0.1265
 4185SOL     OW29696   2.481   2.922   2.050 -0.1293 -0.6548  0.3101
 4185SOL    HW129697   2.572   2.933   2.078 -0.4303  2.1096  0.5249
 4185SOL    HW229698   2.432   2.909   2.131 -0.3329  1.9506  0.7099
 4186SOL     OW29699   2.800   4.835   7.167 -0.1336 -1.0035  0.6883
 4186SOL    HW129700   2.788   4.910   7.108 -2.2610 -1.3847  0.5878
 4186SOL    HW229701   2.872   4.786   7.127  1.5466  1.0772  0.9149
 4187SOL     OW29702   4.723   4.756   7.235 -0.4933  0.1245  0.5793
 4187SOL    HW129703   4.674   4.726   7.159 -1.2158 -2.0993  1.8356
 4187SOL    HW229704   4.815   4.749   7.209 -0.7327 -0.1336 -0.2250
 4188SOL     OW29705   6.421   2.673   2.021 -0.0969  0.6973  0.4095
 4188SOL    HW129706   6.502   2.657   1.973 -0.4963 -2.0228  0.5060
 4188SOL    HW229707   6.357   2.692   1.953  0.0450  0.1029  0.0973
 4189SOL     OW29708   3.854   4.970   0.289 -0.1976  0.4168  0.3294
 4189SOL    HW129709   3.901   5.045   0.252 -0.6447  0.3428 -0.4246
 4189SOL    HW229710   3.909   4.939   0.361  0.7338  0.5443 -0.3138
 4190SOL     OW29711   6.344   1.115   0.364  0.6846 -0.0751  1.2804
 4190SOL    HW129712   6.430   1.155   0.378  0.3665  1.2752 -0.3143
 4190SOL    HW229713   6.361   1.040   0.308  0.7880  0.5031  0.5182
 4191SOL     OW29714   2.605   5.107   2.093  0.1278 -0.1536  0.0679
 4191SOL    HW129715   2.612   5.042   2.023 -0.3546  1.1598 -1.2547
 4191SOL    HW229716   2.520   5.089   2.133  0.4651 -0.9989  0.4393
 4192SOL     OW29717   0.994   1.677   5.513  0.3397 -0.0045 -0.1543
 4192SOL    HW129718   0.942   1.703   5.437  0.9974  1.3962 -0.1570
 4192SOL    HW229719   0.987   1.582   5.515 -0.6855  0.0174 -1.2435
 4193SOL     OW29720   4.485   1.745   7.106  0.3712 -0.4210 -0.2736
 4193SOL    HW129721   4.568   1.728   7.150 -0.0959 -1.7345  0.1481
 4193SOL    HW229722   4.510   1.762   7.015  1.1955  0.4565  0.1042
 4194SOL     OW29723   1.649   6.233   0.221  0.0275  0.2938  0.4686
 4194SOL    HW129724   1.678   6.274   0.140  1.1179  1.0717  1.2292
 4194SOL    HW229725   1.665   6.139   0.208  0.9518  0.4982  0.0832
 4195SOL     OW29726   3.002   4.500   0.643  0.3754  0.0312  0.6846
 4195SOL    HW129727   2.980   4.552   0.566 -1.3496 -1.0827  0.3574
 4195SOL    HW229728   3.070   4.439   0.613  0.9491  0.7403  0.5307
 4196SOL     OW29729   0.664   5.071   7.599 -0.1752 -0.2825 -0.6480
 4196SOL    HW129730   0.595   5.021   7.556 -1.5784 -2.1378  3.2414
 4196SOL    HW229731   0.617   5.130   7.658  1.4717 -0.6042  1.1009
 4197SOL     OW29732   2.894   5.902   7.613 -0.2926 -0.5687  0.2552
 4197SOL    HW129733   2.984   5.893   7.646  0.1364  2.5444  0.2886
 4197SOL    HW229734   2.904   5.920   7.520 -0.8841 -0.3407  0.2330
 4198SOL     OW29735   6.436   3.745   6.701 -0.0632  0.5113  0.2693
 4198SOL    HW129736   6.483   3.797   6.636  0.5550  0.6151  0.7808
 4198SOL    HW229737   6.406   3.810   6.765 -0.4182  0.3801  0.2356
 4199SOL     OW29738   0.711   2.423   1.199  0.4305  0.4723 -0.0439
 4199SOL    HW129739   0.665   2.435   1.116 -2.4099 -4.1928  0.5070
 4199SOL    HW229740   0.651   2.459   1.265 -1.2056 -2.8085  0.4272
 4200SOL     OW29741   4.682   6.093   7.622 -0.0453  0.3988  0.5726
 4200SOL    HW129742   4.666   6.035   7.547 -0.5935  1.2831 -0.0127
 4200SOL    HW229743   4.755   6.052   7.668  0.1942 -0.2604 -0.3486
 4201SOL     OW29744   0.172   2.348   0.935  0.3601  0.5669 -0.5816
 4201SOL    HW129745   0.163   2.366   1.029 -0.4797  0.5525 -0.6467
 4201SOL    HW229746   0.239   2.280   0.930 -0.3119 -0.1759  0.1122
 4202SOL     OW29747   1.266   3.518   1.884  0.1834  0.4911 -0.0518
 4202SOL    HW129748   1.302   3.573   1.954  0.5966 -0.2723  0.3411
 4202SOL    HW229749   1.233   3.581   1.819  1.5094  1.2161 -0.0551
 4203SOL     OW29750   0.579   5.724   0.868 -0.1032 -0.6109 -0.0734
 4203SOL    HW129751   0.664   5.689   0.843 -0.0866 -0.9615  0.4504
 4203SOL    HW229752   0.569   5.804   0.816 -0.0340 -1.2606 -1.1076
 4204SOL     OW29753   2.685   5.219   7.552 -0.3612 -0.2549  0.1397
 4204SOL    HW129754   2.621   5.289   7.539  0.8672  0.9605  0.4643
 4204SOL    HW229755   2.720   5.201   7.465 -0.6259 -0.4456  0.0682
 4205SOL     OW29756   3.736   1.555   7.151 -0.2165 -0.8815 -0.2387
 4205SOL    HW129757   3.734   1.635   7.203  1.5253 -0.3704 -0.8899
 4205SOL    HW229758   3.644   1.537   7.131 -0.5988  2.2311 -1.9449
 4206SOL     OW29759   4.786   3.053   0.644  0.5362 -0.0814 -1.2109
 4206SOL    HW129760   4.769   3.032   0.736  1.5526  1.2016 -0.6945
 4206SOL    HW229761   4.881   3.064   0.639  0.1954  4.5168 -1.2948
 4207SOL     OW29762   5.687   4.197   5.466  0.4710  0.0114  0.6365
 4207SOL    HW129763   5.650   4.169   5.382  0.4508 -0.2504  0.7319
 4207SOL    HW229764   5.613   4.199   5.526  0.7222 -1.2752  1.0246
 4208SOL     OW29765   5.715   3.124   6.540  1.1397  0.1403  0.3947
 4208SOL    HW129766   5.731   3.205   6.492 -0.2423  0.7815  0.9769
 4208SOL    HW229767   5.734   3.055   6.476 -0.9844  0.9664 -1.2283
 4209SOL     OW29768   2.210   2.617   1.172  0.5996  0.2234  0.0924
 4209SOL    HW129769   2.173   2.656   1.093 -0.8153  0.5310  0.8873
 4209SOL    HW229770   2.267   2.547   1.139 -1.2073 -0.7447 -1.1918
 4210SOL     OW29771   0.868   0.135   2.309 -0.6238  0.0052 -0.2908
 4210SOL    HW129772   0.817   0.091   2.241 -1.6229 -1.8585  1.5495
 4210SOL    HW229773   0.913   0.064   2.354  1.6697  1.3858 -0.2585
 4211SOL     OW29774   0.523   5.477   7.521  0.0775  0.3353  0.1741
 4211SOL    HW129775   0.530   5.572   7.526  2.5990  0.1789  0.7636
 4211SOL    HW229776   0.592   5.451   7.460 -1.3637 -1.0879 -0.9572
 4212SOL     OW29777   4.277   4.644   1.683  0.5682 -0.2206 -0.4173
 4212SOL    HW129778   4.257   4.557   1.718  3.8134 -1.2216 -0.6618
 4212SOL    HW229779   4.371   4.656   1.702  0.3761  3.0052 -0.9295
 4213SOL     OW29780   2.903   6.379   0.080  0.0633  0.3058 -0.2226
 4213SOL    HW129781   2.973   6.414   0.136  0.4516  0.2187 -0.6435
 4213SOL    HW229782   2.837   6.448   0.078  0.5484  0.7758 -0.5486
 4214SOL     OW29783   5.605   5.840   1.086  0.4969 -0.0383  0.5692
 4214SOL    HW129784   5.579   5.917   1.136  1.0234  0.2161  0.4645
 4214SOL    HW229785   5.616   5.771   1.151 -2.7790 -0.8612  0.4020
 4215SOL     OW29786   4.972   3.564   1.667  0.5942 -0.1852  0.0543
 4215SOL    HW129787   4.897   3.508   1.645  0.2308  0.3024  0.0165
 4215SOL    HW229788   5.045   3.526   1.618  0.8127 -1.7666  1.5334
 4216SOL     OW29789   5.972   4.907   6.174  0.0689 -0.0185  0.1407
 4216SOL    HW129790   5.907   4.977   6.174  0.3817  0.3256 -1.8758
 4216SOL    HW229791   6.042   4.939   6.231  0.6750  1.8246 -1.5219
 4217SOL     OW29792   3.702   2.645   0.664  0.4566 -0.4690  0.3053
 4217SOL    HW129793   3.748   2.576   0.615  0.7101 -0.7388  0.9101
 4217SOL    HW229794   3.650   2.597   0.729 -1.9998 -0.2761 -1.3790
 4218SOL     OW29795   3.414   0.660   6.623 -0.2406 -0.0111 -0.3466
 4218SOL    HW129796   3.424   0.752   6.648 -1.4974  0.7359 -2.3214
 4218SOL    HW229797   3.483   0.646   6.558  0.5672 -0.7876  0.6460
 4219SOL     OW29798   6.143   1.421   0.537  0.2865 -0.8158 -0.2907
 4219SOL    HW129799   6.198   1.495   0.510 -0.6821  0.0740  0.0669
 4219SOL    HW229800   6.117   1.380   0.454 -0.8806  0.5603 -0.6666
 4220SOL     OW29801   4.992   0.333   6.061 -0.4249 -0.0623 -0.2627
 4220SOL    HW129802   5.023   0.386   5.988  1.9539  1.8150  1.9188
 4220SOL    HW229803   5.047   0.254   6.058 -1.5970 -0.8794 -1.4800
 4221SOL     OW29804   1.577   0.494   1.790  0.2234 -0.2152 -0.0486
 4221SOL    HW129805   1.500   0.502   1.733  0.7255  0.7575 -0.6068
 4221SOL    HW229806   1.545   0.521   1.876 -0.6460 -2.0990  0.2679
 4222SOL     OW29807   1.469   2.720   6.960 -0.0020  0.0631 -0.0635
 4222SOL    HW129808   1.500   2.807   6.934  0.7946 -0.7923 -2.2315
 4222SOL    HW229809   1.537   2.687   7.018  0.2497  0.4599 -0.1284
 4223SOL     OW29810   0.442   2.905   6.493 -0.5437  0.1207  0.1098
 4223SOL    HW129811   0.397   2.978   6.535  0.5051 -0.8296  3.1480
 4223SOL    HW229812   0.533   2.914   6.520 -0.4139 -2.3545  0.7236
 4224SOL     OW29813   3.080   6.369   5.543 -0.1462 -0.0555  0.6782
 4224SOL    HW129814   3.001   6.417   5.516 -0.0024 -0.9732 -1.5894
 4224SOL    HW229815   3.048   6.293   5.590 -0.6906 -0.7804 -0.8188
 4225SOL     OW29816   4.779   5.549   7.578  0.1544  0.0679  0.4789
 4225SOL    HW129817   4.700   5.599   7.598  0.5434  0.3022  1.5081
 4225SOL    HW229818   4.771   5.470   7.632  0.6624  0.1324  0.6492
 4226SOL     OW29819   0.147   5.447   6.649 -0.4654 -0.1657 -0.6511
 4226SOL    HW129820   0.224   5.424   6.702 -0.2054  2.2914  0.1384
 4226SOL    HW229821   0.075   5.450   6.712 -0.2873  2.0699 -0.4929
 4227SOL     OW29822   1.289   1.135   5.578 -0.4862  0.0810  0.1481
 4227SOL    HW129823   1.204   1.177   5.591  0.5053  2.2068  0.2544
 4227SOL    HW229824   1.322   1.120   5.667  0.0454  1.0796  0.1401
 4228SOL     OW29825   2.069   2.435   6.190 -0.2367 -0.1434  0.3146
 4228SOL    HW129826   2.164   2.429   6.184 -0.3039 -0.7988 -0.2319
 4228SOL    HW229827   2.045   2.500   6.123 -0.3325 -1.5984 -1.1322
 4229SOL     OW29828   6.205   2.775   6.230 -0.0565 -0.5162  0.3622
 4229SOL    HW129829   6.182   2.701   6.173 -1.0712  1.2057 -1.5864
 4229SOL    HW229830   6.126   2.828   6.232  0.7512  0.6849  1.4684
 4230SOL     OW29831   6.411   3.821   6.977  0.3872 -0.0635  0.1091
 4230SOL    HW129832   6.331   3.867   6.999  1.2441  1.6445 -0.1468
 4230SOL    HW229833   6.392   3.729   6.994 -2.3402 -0.0169 -1.9808
 4231SOL     OW29834   0.141   5.160   7.555  0.3831 -0.3474 -0.2102
 4231SOL    HW129835   0.200   5.222   7.513 -0.0616  0.6582  0.5834
 4231SOL    HW229836   0.196   5.111   7.616  0.5392  0.0704 -0.0128
 4232SOL     OW29837   1.016   5.674   7.427 -0.0871  0.1575  0.2823
 4232SOL    HW129838   0.960   5.602   7.399 -0.1181  0.1370  0.3961
 4232SOL    HW229839   1.006   5.677   7.522 -0.0948  0.3185  0.2778
 4233SOL     OW29840   2.759   4.176   6.833  0.4499 -0.1487 -0.2585
 4233SOL    HW129841   2.714   4.099   6.866 -0.0316  0.7080  1.1895
 4233SOL    HW229842   2.766   4.162   6.739 -0.4044 -1.5514 -0.1316
 4234SOL     OW29843   5.662   3.626   7.124 -0.8519  0.0498 -0.3795
 4234SOL    HW129844   5.693   3.706   7.082  2.5960  0.5931  2.6608
 4234SOL    HW229845   5.581   3.652   7.167 -1.0023  1.2443 -1.3249
 4235SOL     OW29846   3.505   3.940   7.104 -0.0253  0.0951  0.3558
 4235SOL    HW129847   3.445   3.939   7.179 -0.3212 -0.3488  0.1195
 4235SOL    HW229848   3.587   3.975   7.139 -0.3113  0.3587  0.7694
 4236SOL     OW29849   2.862   4.639   2.002  0.0332  0.5105  0.1993
 4236SOL    HW129850   2.937   4.585   1.976 -0.0757  0.1624  0.6180
 4236SOL    HW229851   2.895   4.691   2.075 -0.3678 -0.2180  0.9071
 4237SOL     OW29852   4.382   3.818   5.598  0.2141 -0.1424  0.4241
 4237SOL    HW129853   4.293   3.790   5.580  0.6996 -1.0410 -0.6488
 4237SOL    HW229854   4.425   3.741   5.634  0.7092  0.1320  0.4334
 4238SOL     OW29855   1.089   1.278   6.477  0.0880  0.3496  0.0391
 4238SOL    HW129856   1.016   1.242   6.426  1.0042 -0.8555 -0.4641
 4238SOL    HW229857   1.057   1.363   6.507 -1.3051  0.1061 -0.6565
 4239SOL     OW29858   3.750   3.656   6.760  0.1381  0.2348  0.0236
 4239SOL    HW129859   3.843   3.671   6.780 -0.0096  1.0836  0.1304
 4239SOL    HW229860   3.704   3.677   6.841 -0.1851  0.2904 -0.1725
 4240SOL     OW29861   6.217   5.927   6.973  0.3040  0.0943  0.4705
 4240SOL    HW129862   6.294   5.961   7.019 -0.6396 -0.1753  2.3448
 4240SOL    HW229863   6.167   6.005   6.950  1.1379  0.2737 -0.7994
 4241SOL     OW29864   5.327   2.645   6.841  0.2882  0.6203  0.0817
 4241SOL    HW129865   5.264   2.685   6.900  1.3253 -0.4660  2.0140
 4241SOL    HW229866   5.282   2.569   6.805 -0.5001  1.5299 -0.9462
 4242SOL     OW29867   2.429   1.436   7.343 -0.0112 -0.1975 -0.3759
 4242SOL    HW129868   2.464   1.492   7.274  1.5388 -2.5288 -1.6495
 4242SOL    HW229869   2.481   1.457   7.421 -0.1590  0.8096 -0.5436
 4243SOL     OW29870   0.680   5.699   1.618 -0.0851 -0.0732 -0.1036
 4243SOL    HW129871   0.691   5.753   1.696 -0.5727  1.3697 -0.9953
 4243SOL    HW229872   0.591   5.665   1.625 -0.0413 -0.1468  0.0973
 4244SOL     OW29873   2.650   0.361   6.409  0.2064 -0.4670 -0.8652
 4244SOL    HW129874   2.736   0.369   6.451 -0.3538 -0.8994  0.4161
 4244SOL    HW229875   2.638   0.445   6.364  0.5435  0.3166  0.4430
 4245SOL     OW29876   2.717   3.977   0.361  0.1777  0.0280 -0.3589
 4245SOL    HW129877   2.632   4.014   0.340 -0.5001 -0.1873  1.7877
 4245SOL    HW229878   2.765   4.049   0.403 -0.5852 -0.9197  2.3966
 4246SOL     OW29879   1.175   2.711   7.076  0.0535  0.1130  0.1314
 4246SOL    HW129880   1.097   2.764   7.059 -0.0503  0.3920  1.3933
 4246SOL    HW229881   1.247   2.760   7.036 -0.4152 -0.1898 -1.1177
 4247SOL     OW29882   5.708   6.185   0.345 -0.0399 -0.4095 -0.2937
 4247SOL    HW129883   5.799   6.194   0.374  0.5620  1.0245 -2.3702
 4247SOL    HW229884   5.715   6.161   0.252 -1.7581  0.7345 -0.7634
 4248SOL     OW29885   2.016   0.907   7.263  0.2669 -0.2100 -0.2887
 4248SOL    HW129886   1.966   0.956   7.329  0.9574  0.7471 -0.4614
 4248SOL    HW229887   2.106   0.908   7.294  0.5153 -0.2010 -0.9774
 4249SOL     OW29888   4.536   0.046   7.075 -0.4506  0.1230 -0.3399
 4249SOL    HW129889   4.564   0.137   7.076 -2.3101  0.7411 -0.6940
 4249SOL    HW229890   4.606  -0.002   7.120 -0.0771  1.8926  1.0379
 4250SOL     OW29891   5.616   3.933   5.925  0.2984 -0.0519 -0.9376
 4250SOL    HW129892   5.600   3.839   5.927  0.2447 -0.0528  1.2843
 4250SOL    HW229893   5.690   3.947   5.985 -0.0356  1.3598 -0.8009
 4251SOL     OW29894   0.587   4.018   1.309  0.2373 -0.2420  0.4985
 4251SOL    HW129895   0.562   3.944   1.364  0.1686  0.1191  0.9651
 4251SOL    HW229896   0.651   4.066   1.362  0.5492 -0.1603  0.0554
 4252SOL     OW29897   1.081   3.268   7.637 -0.0418 -0.1909  0.3499
 4252SOL    HW129898   1.041   3.214   7.705 -0.1948 -0.0564  0.3689
 4252SOL    HW229899   1.008   3.290   7.579  0.0481 -0.1279  0.2605
 4253SOL     OW29900   0.162   0.035   1.013 -0.1852 -0.1628 -0.0102
 4253SOL    HW129901   0.141  -0.057   0.998 -0.9788 -0.1142  0.6786
 4253SOL    HW229902   0.252   0.035   1.044  0.0934 -0.6218 -0.7973
 4254SOL     OW29903   4.788   3.599   1.035 -0.4118  0.0253 -0.1494
 4254SOL    HW129904   4.804   3.523   0.978 -0.8155 -0.9597  1.0083
 4254SOL    HW229905   4.867   3.604   1.090  0.0412  1.0648 -0.8737
 4255SOL     OW29906   2.416   3.119   1.866 -0.6007 -0.1384  0.3554
 4255SOL    HW129907   2.391   3.048   1.925  0.2751 -1.0150 -0.3117
 4255SOL    HW229908   2.497   3.154   1.903 -1.2832  0.8684  0.9597
 4256SOL     OW29909   3.240   0.359   0.056 -0.4349 -0.5462  0.1148
 4256SOL    HW129910   3.164   0.377   0.112  0.4142 -0.9925  1.4441
 4256SOL    HW229911   3.239   0.264   0.044  0.7421 -0.7538  1.4084
 4257SOL     OW29912   2.327   4.744   6.460 -0.1426  0.2205 -0.0855
 4257SOL    HW129913   2.280   4.668   6.493  0.3635 -1.0318 -2.0502
 4257SOL    HW229914   2.416   4.713   6.443 -0.2027  0.8939 -1.9444
 4258SOL     OW29915   1.597   6.098   2.062 -0.2786  0.1541  0.2124
 4258SOL    HW129916   1.520   6.083   2.116 -0.3311 -0.2056  0.0353
 4258SOL    HW229917   1.569   6.076   1.973  0.3131 -0.9510  0.2856
 4259SOL     OW29918   4.227   4.605   1.217 -0.0090 -0.1666  0.0413
 4259SOL    HW129919   4.305   4.610   1.272 -0.2342 -2.6679  0.7186
 4259SOL    HW229920   4.155   4.594   1.279 -0.6289 -0.0739 -0.6539
 4260SOL     OW29921   3.487   1.396   0.844 -0.2760  0.4206 -0.2092
 4260SOL    HW129922   3.486   1.473   0.787  0.9984  0.2138 -0.5347
 4260SOL    HW229923   3.511   1.324   0.786  4.5437  0.6805  1.0194
 4261SOL     OW29924   1.786   3.441   6.181 -0.0575 -0.5552 -0.0502
 4261SOL    HW129925   1.832   3.485   6.110 -0.9973 -0.9704 -0.9372
 4261SOL    HW229926   1.855   3.408   6.238  0.7009 -0.0605 -0.6733
 4262SOL     OW29927   0.803   1.962   1.599 -0.3873  0.4733  0.8586
 4262SOL    HW129928   0.860   1.932   1.669 -0.8030  0.3236  1.1371
 4262SOL    HW229929   0.764   2.043   1.632  0.8161  1.4154  0.0652
 4263SOL     OW29930   2.195   2.943   1.288  0.1546  0.2637  0.3793
 4263SOL    HW129931   2.174   2.967   1.378  0.8421  1.2299  0.2962
 4263SOL    HW229932   2.290   2.937   1.286  0.2971  1.9948 -0.6764
 4264SOL     OW29933   4.185   3.195   1.184  0.1702 -0.3821  0.2856
 4264SOL    HW129934   4.118   3.163   1.124 -0.9235 -0.4891  1.5032
 4264SOL    HW229935   4.226   3.268   1.138 -1.4350  0.2935 -0.1320
 4265SOL     OW29936   5.797   1.200   6.088  0.2880 -0.4322  0.0692
 4265SOL    HW129937   5.738   1.207   6.012  1.6670  0.7305 -0.9719
 4265SOL    HW229938   5.774   1.275   6.143 -0.7488 -1.3057  0.8670
 4266SOL     OW29939   1.745   5.020   6.641  0.6594  0.4592  0.5287
 4266SOL    HW129940   1.779   4.998   6.554 -0.5230  1.5179 -0.2407
 4266SOL    HW229941   1.670   4.962   6.652  0.7602  0.3816  0.8219
 4267SOL     OW29942   3.628   0.629   7.089  0.4362  0.3321 -0.3370
 4267SOL    HW129943   3.630   0.636   7.185  2.6329 -0.4776 -0.2698
 4267SOL    HW229944   3.558   0.566   7.071 -1.6769  2.2606  0.5174
 4268SOL     OW29945   3.456   3.375   0.761 -0.1823  0.1757  0.1751
 4268SOL    HW129946   3.506   3.443   0.805  0.5118  0.6486 -1.2657
 4268SOL    HW229947   3.419   3.418   0.683 -0.0417 -0.9785 -0.5615
 4269SOL     OW29948   6.435   3.366   0.764 -0.2387  0.4396  0.0532
 4269SOL    HW129949   6.376   3.317   0.706 -0.6571 -1.3392  1.8621
 4269SOL    HW229950   6.522   3.335   0.740 -0.0071  2.4957 -2.0936
 4270SOL     OW29951   1.779   1.822   0.770 -0.1594  0.5512  0.0467
 4270SOL    HW129952   1.776   1.829   0.866  0.3790  0.1293  0.0937
 4270SOL    HW229953   1.784   1.913   0.740 -0.3587  0.6862  0.4141
 4271SOL     OW29954   1.897   0.234   7.634  0.3743 -0.5137  0.1865
 4271SOL    HW129955   1.857   0.155   7.670  1.3926 -1.2156 -0.1881
 4271SOL    HW229956   1.923   0.211   7.545  0.4845  0.3167 -0.0108
 4272SOL     OW29957   4.790   0.543   7.459  0.5724 -0.5855 -0.1681
 4272SOL    HW129958   4.736   0.590   7.522 -1.2099 -0.1551 -1.9467
 4272SOL    HW229959   4.877   0.543   7.499  0.0147  1.6323  1.2682
 4273SOL     OW29960   4.276   3.123   1.870 -0.3705 -0.4031  0.0239
 4273SOL    HW129961   4.276   3.215   1.898  2.3978 -0.3342  0.0214
 4273SOL    HW229962   4.304   3.074   1.947 -0.7802 -1.1515 -0.2945
 4274SOL     OW29963   6.359   2.114   1.404  0.1583 -0.1417 -0.6074
 4274SOL    HW129964   6.285   2.067   1.443  1.2540 -1.4267  0.0028
 4274SOL    HW229965   6.338   2.206   1.417 -2.2285 -0.3674 -2.1461
 4275SOL     OW29966   1.613   4.801   7.424 -0.0735 -0.3061 -0.2481
 4275SOL    HW129967   1.518   4.786   7.418  0.0696 -0.7057 -2.3790
 4275SOL    HW229968   1.652   4.719   7.393  0.8981  0.6580 -1.6918
 4276SOL     OW29969   4.704   4.701   5.849  0.1083  0.3392 -0.2772
 4276SOL    HW129970   4.627   4.757   5.859  0.2753  0.5494 -0.1611
 4276SOL    HW229971   4.691   4.656   5.765  0.2914  1.0456 -0.6940
 4277SOL     OW29972   4.028   2.994   1.814 -0.0394 -0.1672  0.2575
 4277SOL    HW129973   4.111   3.042   1.821  1.4105 -2.3362 -0.7442
 4277SOL    HW229974   4.001   2.979   1.904  2.8990 -2.8752  0.8603
 4278SOL     OW29975   4.441   1.019   1.075 -0.4570 -0.0690  0.5054
 4278SOL    HW129976   4.437   1.111   1.046  1.4295  1.3465  4.1369
 4278SOL    HW229977   4.354   0.985   1.056 -2.3808  3.5150  1.8236
 4279SOL     OW29978   2.191   1.349   7.280 -0.1571 -0.2583  0.3533
 4279SOL    HW129979   2.126   1.419   7.286 -0.5611 -0.6177  0.2215
 4279SOL    HW229980   2.273   1.390   7.307 -0.5653  0.0218  1.1839
 4280SOL     OW29981   2.883   2.452   0.023 -0.1225 -0.0132  0.0675
 4280SOL    HW129982   2.915   2.527   0.074 -3.3088  0.4612  1.6327
 4280SOL    HW229983   2.943   2.381   0.045  1.2402  1.3245  0.9015
 4281SOL     OW29984   2.430   5.912   7.001 -0.5532  0.1153 -0.4194
 4281SOL    HW129985   2.421   6.008   6.998 -0.4309  0.1479  0.2009
 4281SOL    HW229986   2.345   5.880   7.030 -0.9135 -0.0354 -1.5978
 4282SOL     OW29987   1.942   6.247   2.268 -0.0297  0.5749 -0.4958
 4282SOL    HW129988   2.018   6.195   2.295 -2.1567 -2.6685 -0.1725
 4282SOL    HW229989   1.920   6.300   2.345  1.0948  0.5342 -0.1300
 4283SOL     OW29990   4.265   2.865   6.780  0.3348 -0.0666 -0.5036
 4283SOL    HW129991   4.225   2.916   6.851  4.5094  1.2280  1.1778
 4283SOL    HW229992   4.247   2.916   6.701 -0.3410  0.9994  0.3055
 4284SOL     OW29993   0.449   1.957   6.206  0.4991  0.3659  0.0151
 4284SOL    HW129994   0.514   1.958   6.276  0.0622  1.7099  0.4335
 4284SOL    HW229995   0.424   1.865   6.197  0.1842  0.2219  1.9873
 4285SOL     OW29996   0.488   5.989   1.058  0.2716 -0.0301  0.0735
 4285SOL    HW129997   0.577   5.969   1.028  0.8445 -1.5183  2.5594
 4285SOL    HW229998   0.448   5.904   1.076 -1.8851  0.5783 -1.4210
 4286SOL     OW29999   2.439   5.954   6.556 -0.9175  0.3043 -0.1046
 4286SOL    HW130000   2.446   6.039   6.599  1.0669  1.1745 -1.9518
 4286SOL    HW230001   2.348   5.949   6.528 -1.6615  0.7179  2.0612
 4287SOL     OW30002   1.900   2.879   7.475  0.0789 -0.2681  0.0213
 4287SOL    HW130003   1.901   2.799   7.528 -1.6830 -0.3352 -0.0005
 4287SOL    HW230004   1.867   2.947   7.534  0.4243  0.1915 -0.3063
 4288SOL     OW30005   1.549   0.346   5.899  0.3050  0.0670 -0.2318
 4288SOL    HW130006   1.600   0.265   5.888  3.2991  1.6375  1.0295
 4288SOL    HW230007   1.577   0.402   5.827 -0.7580  0.4998 -0.3294
 4289SOL     OW30008   2.277   2.023   7.398  0.1550 -0.2611  0.0381
 4289SOL    HW130009   2.355   2.062   7.356  0.2568 -0.0780  0.3959
 4289SOL    HW230010   2.309   1.941   7.435  0.4861  0.4019  1.2831
 4290SOL     OW30011   2.281   3.609   1.313  0.7689  0.2395  0.1162
 4290SOL    HW130012   2.204   3.615   1.369  1.0150 -0.4614  0.5430
 4290SOL    HW230013   2.323   3.526   1.338  2.8896  1.6261  1.4547
 4291SOL     OW30014   6.333   0.806   6.534  0.4402 -0.2878  0.4339
 4291SOL    HW130015   6.243   0.789   6.561 -0.1619  0.2562 -1.1437
 4291SOL    HW230016   6.330   0.805   6.439  2.4477 -2.0230  0.3092
 4292SOL     OW30017   2.000   0.024   5.883 -0.5077  0.0093 -0.2722
 4292SOL    HW130018   1.909  -0.001   5.872 -0.1229 -2.0083  0.6418
 4292SOL    HW230019   2.035  -0.040   5.946  1.2618  1.3737  0.2047
 4293SOL     OW30020   4.375   6.212   7.290  0.5831 -0.4392 -0.2386
 4293SOL    HW130021   4.367   6.300   7.328 -0.1000 -0.7569  0.3675
 4293SOL    HW230022   4.369   6.227   7.196  1.9570  0.3232 -0.2333
 4294SOL     OW30023   5.824   3.142   0.612 -0.0668 -0.4594  0.2753
 4294SOL    HW130024   5.837   3.203   0.540 -0.2707  0.1781  0.7698
 4294SOL    HW230025   5.736   3.106   0.597 -0.3685  0.1526  0.5561
 4295SOL     OW30026   2.833   4.416   7.699  0.0715  0.6354 -0.0815
 4295SOL    HW130027   2.856   4.324   7.691 -1.2059  0.3908 -1.4400
 4295SOL    HW230028   2.814   4.429   7.792 -1.5002 -0.9343 -0.1320
 4296SOL     OW30029   1.853   0.033   6.955  0.1717  0.0246 -0.2440
 4296SOL    HW130030   1.796  -0.041   6.939 -2.1000  1.8796 -1.2708
 4296SOL    HW230031   1.891   0.054   6.870  1.2143 -0.2476  0.1379
 4297SOL     OW30032   2.675   0.114   1.300 -0.1729 -0.0852 -0.2249
 4297SOL    HW130033   2.715   0.045   1.248  1.4421  0.9475 -0.4386
 4297SOL    HW230034   2.726   0.192   1.280  0.0314  0.5329  2.3173
 4298SOL     OW30035   5.785   3.255   0.838 -0.4106 -0.3071  0.2112
 4298SOL    HW130036   5.782   3.219   0.750 -0.2245 -0.0342  0.0912
 4298SOL    HW230037   5.850   3.201   0.884  1.8553  1.4583 -0.7124
 4299SOL     OW30038   4.530   2.888   6.725 -0.4492  0.0986  0.1287
 4299SOL    HW130039   4.545   2.795   6.743 -0.3721  0.0272 -0.2819
 4299SOL    HW230040   4.438   2.902   6.747 -0.2981  0.0786  0.8010
 4300SOL     OW30041   4.631   0.703   1.482 -0.5490 -0.0601  0.3208
 4300SOL    HW130042   4.708   0.757   1.498 -0.5168 -0.1302  0.4051
 4300SOL    HW230043   4.590   0.741   1.404  0.1736 -0.6827 -0.3808
 4301SOL     OW30044   4.244   6.105   6.723 -0.6367  0.5187  0.2752
 4301SOL    HW130045   4.245   6.085   6.630 -1.1214  1.8644 -0.0440
 4301SOL    HW230046   4.153   6.096   6.749 -0.3731 -0.7242  0.8481
 4302SOL     OW30047   0.202   6.163   0.253 -0.3278  0.8526  0.1746
 4302SOL    HW130048   0.172   6.247   0.290 -2.8052  0.3915 -0.6445
 4302SOL    HW230049   0.252   6.188   0.175  0.0014  1.5946  0.6069
 4303SOL     OW30050   4.709   5.481   0.715  0.1700 -0.3835 -0.0034
 4303SOL    HW130051   4.775   5.476   0.785  1.1543  0.6322 -0.8194
 4303SOL    HW230052   4.753   5.444   0.638 -0.2776  0.1311 -0.5132
 4304SOL     OW30053   5.541   5.917   0.294 -0.1059  0.1450 -0.2206
 4304SOL    HW130054   5.494   6.000   0.296 -1.4845 -0.5485 -1.6147
 4304SOL    HW230055   5.510   5.869   0.371 -1.0264  0.0407 -0.6538
 4305SOL     OW30056   4.618   3.681   5.457  0.0057  0.2775  0.0223
 4305SOL    HW130057   4.572   3.647   5.534  1.4244  1.6352  1.5438
 4305SOL    HW230058   4.565   3.756   5.430 -2.1960 -1.9436 -2.3113
 4306SOL     OW30059   5.389   0.730   6.555  0.1056  0.1596 -0.4611
 4306SOL    HW130060   5.335   0.747   6.478 -2.3467  0.1917  1.1372
 4306SOL    HW230061   5.337   0.669   6.608  1.6120  0.2706  1.2418
 4307SOL     OW30062   3.217   5.507   1.792  0.2615 -0.0680 -0.1133
 4307SOL    HW130063   3.294   5.450   1.794  0.2400 -0.0990 -0.1942
 4307SOL    HW230064   3.147   5.454   1.830  0.1077 -0.2899 -0.7041
 4308SOL     OW30065   4.233   4.356   1.674 -0.1191 -0.4236 -0.3009
 4308SOL    HW130066   4.139   4.339   1.668 -0.1073 -0.2673 -0.9911
 4308SOL    HW230067   4.269   4.275   1.711 -0.5255 -0.4628  0.0216
 4309SOL     OW30068   1.683   0.128   5.778 -0.0659 -0.5138  0.5085
 4309SOL    HW130069   1.677   0.181   5.699 -0.0769  0.9211  1.4286
 4309SOL    HW230070   1.690   0.038   5.746  1.1947  0.1105 -1.1385
 4310SOL     OW30071   2.653   6.076   5.806  0.2737 -0.4050  0.3099
 4310SOL    HW130072   2.623   6.069   5.897  0.7494  1.6352  0.6743
 4310SOL    HW230073   2.737   6.122   5.812 -0.6021  1.5305 -1.2684
 4311SOL     OW30074   4.876   1.476   0.597  0.1346  0.0435 -0.2557
 4311SOL    HW130075   4.788   1.515   0.591  0.3610  0.7717  0.8871
 4311SOL    HW230076   4.881   1.418   0.521 -0.5629  1.5336 -1.4890
 4312SOL     OW30077   5.824   5.911   0.270 -0.4487 -0.0409 -0.4165
 4312SOL    HW130078   5.877   5.961   0.332  1.7549 -1.9918 -0.5929
 4312SOL    HW230079   5.734   5.940   0.287  0.3824  1.6105  1.6375
 4313SOL     OW30080   2.446   0.706   0.886 -0.6034  0.2778  0.1799
 4313SOL    HW130081   2.486   0.760   0.954 -0.5031 -0.4806  0.7353
 4313SOL    HW230082   2.500   0.627   0.883  0.5107  1.0325 -2.0659
 4314SOL     OW30083   0.551   1.148   0.472  0.0049  0.5813 -0.1503
 4314SOL    HW130084   0.603   1.111   0.400 -0.1126  1.6984 -0.8307
 4314SOL    HW230085   0.595   1.229   0.495  0.4160 -0.0574  1.5159
 4315SOL     OW30086   2.831   1.750   0.892 -0.7411  0.3298 -0.3597
 4315SOL    HW130087   2.831   1.684   0.822 -0.1299  0.4911 -0.5143
 4315SOL    HW230088   2.923   1.775   0.902 -1.0982  2.2826 -1.3731
 4316SOL     OW30089   5.546   4.932   6.882  0.3330 -0.0474 -0.4584
 4316SOL    HW130090   5.599   4.927   6.802  1.9095 -2.8208  0.5952
 4316SOL    HW230091   5.488   4.856   6.876  0.6239 -0.4246  1.0662
 4317SOL     OW30092   3.342   2.471   2.774  0.4460 -0.2323 -0.2458
 4317SOL    HW130093   3.407   2.401   2.773  0.7067 -0.0145  0.6495
 4317SOL    HW230094   3.262   2.430   2.805  0.8309  0.0454  1.1609
 4318SOL     OW30095   4.963   2.706   0.826 -0.9352  0.0816 -0.7808
 4318SOL    HW130096   5.058   2.720   0.821 -1.1301  1.1960 -1.5813
 4318SOL    HW230097   4.939   2.737   0.913 -0.6701  0.4522 -0.8364
 4319SOL     OW30098   5.611   0.680   5.396  0.1473  0.0265 -0.1067
 4319SOL    HW130099   5.517   0.676   5.379  0.1742  0.2546 -0.3195
 4319SOL    HW230100   5.649   0.614   5.337  0.0265 -0.8227  0.7361
 4320SOL     OW30101   3.771   2.047   1.953 -0.3118  0.2829 -0.1874
 4320SOL    HW130102   3.701   2.044   1.888 -3.9313  0.0117  3.3609
 4320SOL    HW230103   3.745   1.984   2.020  2.3177  1.6278  2.3363
 4321SOL     OW30104   3.317   0.113   7.486 -0.2734  0.1123  0.1236
 4321SOL    HW130105   3.391   0.076   7.534 -0.1719  0.5391  0.3011
 4321SOL    HW230106   3.358   0.164   7.415 -0.4064  0.0003 -0.0343
 4322SOL     OW30107   1.368   0.747   1.294  0.9212 -0.0326  0.3221
 4322SOL    HW130108   1.457   0.719   1.316  0.1101 -2.0239  1.3030
 4322SOL    HW230109   1.326   0.762   1.379 -1.5219 -5.4143  0.4692
 4323SOL     OW30110   0.824   4.126   6.485 -0.1217 -0.0868  0.0775
 4323SOL    HW130111   0.778   4.042   6.489 -0.3117  0.0515  1.0472
 4323SOL    HW230112   0.914   4.105   6.511 -0.0013 -0.1080 -0.3586
 4324SOL     OW30113   1.298   2.313   6.477 -0.2096 -0.3220 -0.9343
 4324SOL    HW130114   1.220   2.297   6.423 -0.2415 -0.4159 -0.8612
 4324SOL    HW230115   1.361   2.351   6.416  0.2804 -1.8143 -1.4158
 4325SOL     OW30116   5.301   1.850   1.349  0.7260 -0.2309 -0.0076
 4325SOL    HW130117   5.325   1.816   1.435  1.8746 -0.3406 -0.3570
 4325SOL    HW230118   5.278   1.942   1.366  1.8257  0.0035  0.2970
 4326SOL     OW30119   4.196   1.713   1.603 -0.3209  0.1935  0.8136
 4326SOL    HW130120   4.274   1.769   1.605 -0.5530  0.6306 -0.8335
 4326SOL    HW230121   4.188   1.686   1.512 -0.1340 -2.7227  1.5746
 4327SOL     OW30122   4.811   1.294   0.397 -0.5064 -0.7032  0.2019
 4327SOL    HW130123   4.811   1.361   0.329 -1.1787  0.2031  1.0559
 4327SOL    HW230124   4.744   1.232   0.370  0.4053 -1.2961 -0.8087
 4328SOL     OW30125   6.456   6.030   0.222  0.0884  0.0877 -0.1390
 4328SOL    HW130126   6.476   5.939   0.199 -1.2625 -0.3907  0.4639
 4328SOL    HW230127   6.541   6.066   0.249  0.1077 -2.2794  3.8616
 4329SOL     OW30128   2.792   3.481   6.545  0.6208 -0.4234  0.3096
 4329SOL    HW130129   2.769   3.395   6.580 -0.2667 -0.5349 -0.5002
 4329SOL    HW230130   2.709   3.527   6.540  1.1694  0.7198  1.3163
 4330SOL     OW30131   5.657   0.162   6.185  0.2278  0.4360  0.2696
 4330SOL    HW130132   5.690   0.082   6.226 -0.1290  1.1746  2.0579
 4330SOL    HW230133   5.731   0.193   6.132  0.6065 -0.6836  0.1126
 4331SOL     OW30134   4.738   0.738   6.377 -0.2117  0.3974  0.2698
 4331SOL    HW130135   4.674   0.808   6.369 -1.5264 -0.8768 -0.8805
 4331SOL    HW230136   4.699   0.676   6.439 -0.8216 -1.0848 -1.5251
 4332SOL     OW30137   3.195   5.971   5.927  0.4368 -0.4194  0.4699
 4332SOL    HW130138   3.171   5.896   5.981  0.3016 -0.0965  0.8656
 4332SOL    HW230139   3.263   6.016   5.976 -1.1779  1.0813  1.4462
 4333SOL     OW30140   4.433   0.448   1.131 -0.2241  0.7236  0.0626
 4333SOL    HW130141   4.399   0.366   1.167 -1.8833  0.3169 -2.2006
 4333SOL    HW230142   4.527   0.432   1.120  0.0147  0.2414  2.3454
 4334SOL     OW30143   1.648   4.153   7.581  0.0969 -0.2372  0.1217
 4334SOL    HW130144   1.718   4.097   7.615  1.5752  0.6890 -1.2952
 4334SOL    HW230145   1.568   4.102   7.596  1.0348 -1.2872  1.8458
 4335SOL     OW30146   5.480   4.744   0.843  0.5643  0.0226  0.1604
 4335SOL    HW130147   5.507   4.827   0.804 -2.9544  2.1958  1.7438
 4335SOL    HW230148   5.411   4.711   0.785 -0.7426  0.3234  1.4771
 4336SOL     OW30149   1.533   0.043   1.097 -0.2320  0.0952 -0.5998
 4336SOL    HW130150   1.626   0.053   1.115 -0.2392  0.7145 -0.8582
 4336SOL    HW230151   1.527   0.048   1.001 -0.6524  1.3593 -0.5326
 4337SOL     OW30152   5.535   1.182   6.854  0.5544  0.0216  0.0462
 4337SOL    HW130153   5.517   1.104   6.800  0.9039 -0.0484  0.0278
 4337SOL    HW230154   5.564   1.248   6.791 -0.4108  0.3956 -0.0319
 4338SOL     OW30155   0.237   4.886   0.275  0.1848 -0.4211  0.2534
 4338SOL    HW130156   0.195   4.801   0.283 -0.7882 -0.1419 -1.3255
 4338SOL    HW230157   0.206   4.936   0.350  1.0456 -1.5397  1.3954
 4339SOL     OW30158   2.536   0.263   0.471  0.0871  0.5931  0.5847
 4339SOL    HW130159   2.450   0.286   0.506 -0.2830  0.2564 -0.0822
 4339SOL    HW230160   2.522   0.256   0.376  0.6678 -0.2661  0.5528
 4340SOL     OW30161   2.639   3.772   6.091  0.5197  0.0024  0.3603
 4340SOL    HW130162   2.584   3.698   6.065  1.4916 -1.4363  2.1280
 4340SOL    HW230163   2.586   3.820   6.155 -0.0904  0.8357 -0.7467
 4341SOL     OW30164   6.331   5.338   0.247  0.2170  0.0112 -0.1794
 4341SOL    HW130165   6.236   5.350   0.254  0.4789  1.1154  3.4594
 4341SOL    HW230166   6.342   5.244   0.235 -1.2860  0.0061 -2.1364
 4342SOL     OW30167   2.212   4.937   1.529  0.6134  0.8270 -0.4556
 4342SOL    HW130168   2.235   4.921   1.438  0.2812 -0.8957 -0.2585
 4342SOL    HW230169   2.117   4.942   1.530  0.6665  2.2798 -0.3973
 4343SOL     OW30170   3.603   0.539   1.294  0.2800 -0.3335 -0.7040
 4343SOL    HW130171   3.628   0.630   1.309  5.0282 -1.3392 -0.9558
 4343SOL    HW230172   3.602   0.530   1.199  1.6953 -0.9054 -0.6804
 4344SOL     OW30173   5.562   5.200   7.240  0.5694 -0.0501 -0.0131
 4344SOL    HW130174   5.608   5.122   7.208  0.5059  0.0273 -0.2974
 4344SOL    HW230175   5.488   5.211   7.180 -0.1326 -0.4776  0.7424
 4345SOL     OW30176   2.633   4.642   0.198  0.0728  0.0023  0.6393
 4345SOL    HW130177   2.571   4.678   0.136  1.7318  2.1124  0.0750
 4345SOL    HW230178   2.658   4.716   0.253  1.7321 -0.8545  1.1201
 4346SOL     OW30179   0.854   5.175   6.541 -0.2694  0.3447 -0.4249
 4346SOL    HW130180   0.894   5.090   6.524 -1.8436 -0.9416  1.7274
 4346SOL    HW230181   0.921   5.239   6.518  1.3103 -1.5015 -1.2035
 4347SOL     OW30182   3.696   2.265   7.332  0.2061  0.3124 -0.1936
 4347SOL    HW130183   3.645   2.191   7.298  1.0546 -0.3532 -0.0707
 4347SOL    HW230184   3.767   2.276   7.268 -0.5809  1.8076 -0.8361
 4348SOL     OW30185   3.615   4.320   0.493 -0.7776 -0.1556  0.0612
 4348SOL    HW130186   3.553   4.391   0.481 -0.6112 -0.1566 -0.9146
 4348SOL    HW230187   3.573   4.243   0.454 -1.6300 -1.0057  2.5023
 4349SOL     OW30188   2.020   4.278   5.629 -0.2903 -0.6142 -0.4401
 4349SOL    HW130189   1.977   4.224   5.563 -0.8688  1.1389 -1.5788
 4349SOL    HW230190   2.066   4.345   5.579 -0.9147  0.9025  0.9043
 4350SOL     OW30191   2.979   5.780   0.788 -0.4506  0.3267 -0.4980
 4350SOL    HW130192   2.986   5.758   0.695  0.2457  0.3622 -0.4565
 4350SOL    HW230193   3.066   5.763   0.824 -1.3938 -2.5323  0.7638
 4351SOL     OW30194   2.812   4.435   6.703  0.0041 -0.0232  0.0153
 4351SOL    HW130195   2.817   4.351   6.750  0.1364  0.6975  1.3473
 4351SOL    HW230196   2.737   4.425   6.644 -0.3855 -0.8544  0.6206
 4352SOL     OW30197   1.601   4.556   1.258  0.1972 -0.5928  0.5086
 4352SOL    HW130198   1.566   4.631   1.306 -0.4101  0.2642 -1.1776
 4352SOL    HW230199   1.694   4.575   1.247 -0.3539  1.0851 -1.8439
 4353SOL     OW30200   5.609   1.184   1.287 -0.1822  0.0296 -0.5229
 4353SOL    HW130201   5.650   1.244   1.225  0.5036 -0.3604 -0.4490
 4353SOL    HW230202   5.681   1.137   1.327 -0.6159  0.3121  0.6222
 4354SOL     OW30203   1.892   3.403   0.319 -0.3502  1.0374  0.2971
 4354SOL    HW130204   1.933   3.319   0.297 -0.6007  0.1503  2.8766
 4354SOL    HW230205   1.912   3.459   0.244 -0.0940 -1.2652 -1.4961
 4355SOL     OW30206   3.960   2.575   0.293 -0.1539 -1.0567  0.6835
 4355SOL    HW130207   3.876   2.574   0.246  0.7284 -0.1478 -1.0089
 4355SOL    HW230208   3.979   2.668   0.306  1.0131 -1.2052  0.2038
 4356SOL     OW30209   3.244   5.727   5.364  0.1461 -0.1001  0.4225
 4356SOL    HW130210   3.266   5.649   5.415 -0.5026 -0.3780  0.2948
 4356SOL    HW230211   3.184   5.695   5.297  1.8278  0.0501 -1.2339
 4357SOL     OW30212   5.755   0.046   0.205 -0.2071  0.1749 -0.4248
 4357SOL    HW130213   5.671   0.012   0.236 -0.5118 -1.1651 -2.4562
 4357SOL    HW230214   5.809   0.052   0.283 -1.9360  0.3188  0.8217
 4358SOL     OW30215   1.047   3.597   6.212 -0.2752  0.4940  0.4216
 4358SOL    HW130216   0.961   3.575   6.176 -0.7202 -1.0437  2.2227
 4358SOL    HW230217   1.106   3.533   6.174  0.2803  1.9841 -1.3635
 4359SOL     OW30218   3.903   2.147   0.320  0.2335  0.2729 -0.1114
 4359SOL    HW130219   3.894   2.179   0.230  3.2723  0.2780 -0.5136
 4359SOL    HW230220   3.970   2.203   0.359 -1.4731  0.6994  2.4366
 4360SOL     OW30221   5.429   0.710   1.213  0.1022 -0.5566 -0.5229
 4360SOL    HW130222   5.435   0.651   1.137 -0.0480  0.1259 -1.0778
 4360SOL    HW230223   5.451   0.796   1.178 -1.4332  0.0309 -0.1327
 4361SOL     OW30224   5.050   2.904   7.157 -0.4996  0.1767  0.1235
 4361SOL    HW130225   5.061   2.968   7.228 -1.2919  0.1127  0.3092
 4361SOL    HW230226   5.039   2.820   7.202  0.0181 -0.0228 -0.1101
 4362SOL     OW30227   1.444   6.363   7.161 -0.0376  0.5095 -0.4871
 4362SOL    HW130228   1.501   6.427   7.119  1.0641 -0.8832 -1.1762
 4362SOL    HW230229   1.472   6.363   7.253  0.3765  0.5766 -0.6112
 4363SOL     OW30230   6.027   1.670   1.018 -0.3748 -0.1624  0.7011
 4363SOL    HW130231   6.009   1.702   0.930 -1.9697 -0.6246  0.8240
 4363SOL    HW230232   5.951   1.697   1.070 -0.2994 -1.4084  1.5172
 4364SOL     OW30233   5.671   5.910   5.867  0.3243 -0.1691  0.6499
 4364SOL    HW130234   5.589   5.885   5.824  0.3736 -1.2366  1.1586
 4364SOL    HW230235   5.644   5.970   5.937 -0.1018 -1.0160  1.2233
 4365SOL     OW30236   5.363   5.596   0.307  0.1818 -0.0639 -0.4370
 4365SOL    HW130237   5.378   5.648   0.386 -1.4913  0.4399 -0.3904
 4365SOL    HW230238   5.285   5.544   0.327  0.5963 -1.0314 -1.2490
 4366SOL     OW30239   1.180   1.925   1.557  0.4948  0.6637  0.2010
 4366SOL    HW130240   1.112   1.908   1.621  0.4675  0.2647  0.0718
 4366SOL    HW230241   1.250   1.864   1.580 -0.4436 -1.1970 -1.5376
 4367SOL     OW30242   5.584   5.509   6.311  0.2300 -0.2690 -0.6052
 4367SOL    HW130243   5.545   5.424   6.293  1.1751 -0.7063 -0.6543
 4367SOL    HW230244   5.658   5.515   6.251  0.7752  0.1501  0.0882
 4368SOL     OW30245   4.601   5.871   0.998  0.6455 -0.2542 -0.3784
 4368SOL    HW130246   4.515   5.845   1.033  0.4094 -0.0141 -0.7795
 4368SOL    HW230247   4.595   5.854   0.904  0.7972  0.4102 -0.5133
 4369SOL     OW30248   5.280   2.950   0.264 -0.4296  0.1235 -0.4992
 4369SOL    HW130249   5.294   2.983   0.175 -1.1672 -1.5966 -1.2905
 4369SOL    HW230250   5.333   3.008   0.319  0.1280  1.1631 -2.0576
 4370SOL     OW30251   3.692   2.183   0.500  0.3203 -0.3524 -0.3090
 4370SOL    HW130252   3.774   2.152   0.462  0.7192  2.3492 -1.9562
 4370SOL    HW230253   3.717   2.253   0.559 -0.7493 -0.1545 -0.0590
 4371SOL     OW30254   1.925   0.973   0.337  0.4262  0.0664 -0.0194
 4371SOL    HW130255   1.941   0.977   0.243 -2.3937 -0.6659 -0.6337
 4371SOL    HW230256   1.894   0.884   0.353  0.1607  0.3867  1.4697
 4372SOL     OW30257   5.031   3.191   7.089  0.0752 -0.2621  0.6691
 4372SOL    HW130258   5.004   3.207   6.998  1.5193 -1.1472  0.0425
 4372SOL    HW230259   5.127   3.194   7.086  0.1647 -0.9687  2.0485
 4373SOL     OW30260   5.924   3.594   6.988 -0.3118 -0.1525 -0.2294
 4373SOL    HW130261   5.916   3.686   6.963  0.1861  0.4872  1.7245
 4373SOL    HW230262   5.838   3.571   7.023 -0.8885 -0.9141 -2.0699
 4374SOL     OW30263   3.072   2.505   0.817  0.1412 -0.0300  0.4510
 4374SOL    HW130264   3.130   2.439   0.777 -0.1882 -0.4440  0.6447
 4374SOL    HW230265   3.124   2.585   0.816 -0.3000  0.3143 -1.9702
 4375SOL     OW30266   2.529   1.632   5.946  0.5099 -0.3314  0.0844
 4375SOL    HW130267   2.501   1.543   5.967 -1.8896  0.1727 -0.6950
 4375SOL    HW230268   2.487   1.686   6.013 -0.7234  0.4790 -1.2747
 4376SOL     OW30269   4.393   0.398   0.754  0.4009  0.0133 -0.2660
 4376SOL    HW130270   4.478   0.383   0.713 -0.1807 -2.8287 -0.6009
 4376SOL    HW230271   4.331   0.402   0.682 -0.6070 -4.8758 -0.0412
 4377SOL     OW30272   2.858   0.282   1.652 -0.5659  0.2768  0.8338
 4377SOL    HW130273   2.794   0.325   1.709 -0.8736 -0.3370  0.9612
 4377SOL    HW230274   2.926   0.252   1.711 -0.6223  0.1074  0.8123
 4378SOL     OW30275   1.502   2.908   0.248  0.9517  0.0804 -0.3514
 4378SOL    HW130276   1.475   3.000   0.256  2.1333  0.4679 -0.5752
 4378SOL    HW230277   1.514   2.878   0.338 -2.1795 -0.7756 -0.0769
 4379SOL     OW30278   2.847   0.632   7.316  0.3409 -0.1246  0.3656
 4379SOL    HW130279   2.933   0.639   7.272  0.6461 -1.2182  0.7554
 4379SOL    HW230280   2.843   0.541   7.346 -1.8942 -0.7582 -1.5697
 4380SOL     OW30281   1.810   6.220   7.729  0.3118  0.3731  0.3074
 4380SOL    HW130282   1.770   6.211   7.643 -1.2070  0.5551  0.9630
 4380SOL    HW230283   1.824   6.130   7.759 -0.9381  0.2677  0.6398
 4381SOL     OW30284   1.028   3.681   0.559  0.7188  0.0336 -0.0959
 4381SOL    HW130285   1.077   3.600   0.545  0.2095 -0.2845 -0.0608
 4381SOL    HW230286   0.954   3.675   0.498 -0.3942 -0.4211  1.2691
 4382SOL     OW30287   6.181   0.787   0.056  0.1369  0.1516  0.5972
 4382SOL    HW130288   6.087   0.772   0.068  0.2758 -0.3992  1.0206
 4382SOL    HW230289   6.187   0.879   0.030 -0.4448  0.4914  1.5972
 4383SOL     OW30290   2.570   5.108   7.241  0.3209  0.1656 -0.1529
 4383SOL    HW130291   2.594   5.073   7.155  3.2254  0.8467  0.2595
 4383SOL    HW230292   2.519   5.039   7.282  0.2069 -0.8079 -1.8362
 4384SOL     OW30293   1.858   1.642   1.757  0.1235 -0.0455  0.3723
 4384SOL    HW130294   1.835   1.588   1.682  1.0315 -0.2738  0.2416
 4384SOL    HW230295   1.954   1.635   1.763  0.2249  1.2428  0.5791
 4385SOL     OW30296   0.928   0.753   0.622  0.2254 -0.0754 -0.2838
 4385SOL    HW130297   0.880   0.812   0.563 -0.0633 -0.4634 -0.4395
 4385SOL    HW230298   1.020   0.774   0.607  0.0994  1.6259  0.9802
 4386SOL     OW30299   0.308   1.469   6.320  0.3939 -0.3397 -0.7624
 4386SOL    HW130300   0.245   1.407   6.284 -0.2961 -0.1643  0.1010
 4386SOL    HW230301   0.347   1.423   6.395  1.9564 -0.7807 -1.8124
 4387SOL     OW30302   4.804   6.441   0.958 -0.2008  0.1908 -0.5163
 4387SOL    HW130303   4.744   6.494   1.012  0.7665  1.2221 -0.4126
 4387SOL    HW230304   4.872   6.412   1.018  0.1027  0.1265 -0.8856
 4388SOL     OW30305   2.944   3.036   2.320  0.7152 -0.1676 -0.1149
 4388SOL    HW130306   2.887   3.049   2.396  0.7074 -0.0714 -0.1368
 4388SOL    HW230307   2.937   3.118   2.271  1.0333 -0.0774 -0.0098
 4389SOL     OW30308   4.705   4.894   1.048 -0.0650 -0.3793 -0.2980
 4389SOL    HW130309   4.757   4.972   1.028 -1.6828  0.4003 -1.6907
 4389SOL    HW230310   4.628   4.928   1.094 -0.3117 -1.2720 -0.0276
 4390SOL     OW30311   3.418   4.906   7.212 -0.5036 -0.0815 -0.4144
 4390SOL    HW130312   3.342   4.854   7.239  1.4853 -2.2931  1.2867
 4390SOL    HW230313   3.425   4.974   7.279  1.3398 -2.4229  1.9895
 4391SOL     OW30314   1.670   4.942   5.865 -0.0547  0.3162  0.1691
 4391SOL    HW130315   1.639   5.031   5.885  2.1512  0.8250  1.7629
 4391SOL    HW230316   1.734   4.955   5.794 -0.7968 -0.2143 -0.6049
 4392SOL     OW30317   3.760   1.791   5.438  0.2246 -0.4804  0.1772
 4392SOL    HW130318   3.746   1.764   5.347  2.8600 -0.7005 -0.2338
 4392SOL    HW230319   3.797   1.879   5.431  3.6180 -1.7285  0.7432
 4393SOL     OW30320   1.553   5.133   1.726  0.0649  0.0341  0.0846
 4393SOL    HW130321   1.609   5.208   1.704  0.6671 -0.8036 -1.3344
 4393SOL    HW230322   1.468   5.173   1.744  0.2446  1.0456 -1.1329
 4394SOL     OW30323   3.441   5.672   7.578  0.5075 -0.5541  0.3647
 4394SOL    HW130324   3.507   5.717   7.631  1.6380 -0.8532 -0.7493
 4394SOL    HW230325   3.485   5.594   7.546 -0.2012 -0.4808 -0.8551
 4395SOL     OW30326   2.730   1.169   1.689 -0.1760 -0.1167 -0.1110
 4395SOL    HW130327   2.639   1.200   1.691 -0.3712 -0.6533 -0.5116
 4395SOL    HW230328   2.781   1.246   1.663 -0.1536  0.9770  2.7528
 4396SOL     OW30329   1.613   3.207   1.473 -0.2964  0.6347 -0.3310
 4396SOL    HW130330   1.576   3.195   1.560  1.4059 -0.2292  0.3141
 4396SOL    HW230331   1.703   3.177   1.480  0.4905  2.3865 -1.9041
 4397SOL     OW30332   0.478   1.089   1.290  0.3842  0.4128 -0.1543
 4397SOL    HW130333   0.515   1.161   1.342  1.1009  0.4611 -0.7264
 4397SOL    HW230334   0.403   1.058   1.343  1.1124  0.4382  0.9301
 4398SOL     OW30335   2.496   1.334   6.880  0.1757 -0.4429  0.0403
 4398SOL    HW130336   2.485   1.289   6.964  0.5222 -0.3355  0.1442
 4398SOL    HW230337   2.564   1.400   6.896  0.9844 -1.1057 -0.5942
 4399SOL     OW30338   3.834   1.068   5.733  0.0090 -0.4500 -0.4866
 4399SOL    HW130339   3.749   1.106   5.713  0.1499 -0.1838 -0.5873
 4399SOL    HW230340   3.872   1.049   5.647 -0.1175 -0.9431 -0.4339
 4400SOL     OW30341   1.294   6.038   0.176 -0.4778  0.3927 -0.3793
 4400SOL    HW130342   1.255   5.971   0.232 -0.6365  1.1411  0.4276
 4400SOL    HW230343   1.314   6.111   0.235  0.8086  0.5995 -1.0246
 4401SOL     OW30344   5.568   0.073   7.496 -0.5384 -0.2314  0.3371
 4401SOL    HW130345   5.504   0.008   7.468 -1.0289  0.4784 -0.2263
 4401SOL    HW230346   5.631   0.023   7.548  0.1658 -1.5327 -1.6253
 4402SOL     OW30347   0.600   0.818   0.125 -0.3114 -0.8529 -0.4562
 4402SOL    HW130348   0.676   0.815   0.066 -0.6234 -0.9028 -0.8649
 4402SOL    HW230349   0.542   0.751   0.091 -2.4895  1.9792 -2.8897
 4403SOL     OW30350   0.602   0.067   0.110  0.6194  0.3026 -0.0725
 4403SOL    HW130351   0.508   0.087   0.107  0.8594  1.6913  0.9532
 4403SOL    HW230352   0.641   0.123   0.044  0.9773  1.3659  1.0126
 4404SOL     OW30353   1.874   0.286   6.422  0.0804 -0.1792 -0.3090
 4404SOL    HW130354   1.831   0.249   6.345  0.6101 -0.2541 -0.5716
 4404SOL    HW230355   1.904   0.210   6.472  2.8747 -0.1819 -1.7999
 4405SOL     OW30356   5.265   1.971   1.708  0.0970 -0.3583 -0.2639
 4405SOL    HW130357   5.295   1.894   1.659  0.1012 -0.7745  0.3724
 4405SOL    HW230358   5.343   2.001   1.754  0.5856  1.2374 -2.0315
 4406SOL     OW30359   5.399   5.732   6.562  0.2107  0.1641  0.5738
 4406SOL    HW130360   5.421   5.815   6.605 -0.0862  0.0085  1.0354
 4406SOL    HW230361   5.482   5.703   6.523  0.0762  1.2093 -0.5313
 4407SOL     OW30362   1.114   2.531   6.075 -0.4867  1.3015 -0.1354
 4407SOL    HW130363   1.047   2.487   6.023 -0.2958  0.8103  0.0283
 4407SOL    HW230364   1.137   2.609   6.024 -1.0189  1.3516 -0.2986
 4408SOL     OW30365   0.133   3.021   0.359 -0.5669 -0.8036  0.0489
 4408SOL    HW130366   0.170   2.954   0.302  2.9958  0.8745  0.0998
 4408SOL    HW230367   0.105   2.973   0.437  0.6504 -2.4038 -0.4505
 4409SOL     OW30368   2.974   4.136   6.993 -0.9450 -0.6523 -0.6230
 4409SOL    HW130369   2.955   4.152   7.086 -0.5929 -0.7507 -0.5306
 4409SOL    HW230370   2.891   4.152   6.948 -0.9649  0.0029 -0.3634
 4410SOL     OW30371   4.335   0.519   6.726 -0.7866 -0.0657 -1.0253
 4410SOL    HW130372   4.307   0.432   6.755  1.9668 -0.6785  0.1870
 4410SOL    HW230373   4.275   0.580   6.768  0.0665 -1.2211  2.1570
 4411SOL     OW30374   5.733   5.663   0.276  0.0850 -0.5869 -0.0530
 4411SOL    HW130375   5.734   5.666   0.372  0.5347 -1.7597  0.0013
 4411SOL    HW230376   5.744   5.754   0.249 -2.5123  0.1599  0.9950
 4412SOL     OW30377   0.879   2.029   1.198 -0.5531 -0.4425  0.0855
 4412SOL    HW130378   0.870   1.961   1.131  0.5053 -0.0744 -0.4645
 4412SOL    HW230379   0.920   2.102   1.152  0.7498 -0.3932  1.2442
 4413SOL     OW30380   2.604   3.740   0.470 -0.4456  0.4274  0.5512
 4413SOL    HW130381   2.547   3.769   0.541 -1.9955  2.1519 -1.2527
 4413SOL    HW230382   2.650   3.820   0.443  1.0665 -0.4600  0.4324
 4414SOL     OW30383   2.565   5.164   1.394  0.1896 -0.1599 -0.1390
 4414SOL    HW130384   2.471   5.170   1.412 -0.0146  1.5181 -1.4245
 4414SOL    HW230385   2.600   5.249   1.423  1.1053 -0.3248 -0.7178
 4415SOL     OW30386   1.385   3.889   0.364 -0.0044 -0.3860  0.1506
 4415SOL    HW130387   1.426   3.939   0.293 -0.8624  2.7699  1.7058
 4415SOL    HW230388   1.291   3.898   0.349 -0.2035  0.4198  1.7009
 4416SOL     OW30389   1.447   6.194   0.393  0.3882  0.3673 -0.3273
 4416SOL    HW130390   1.456   6.101   0.414  0.2624  0.5327  0.4811
 4416SOL    HW230391   1.511   6.209   0.322 -0.9142 -0.7364 -1.8021
 4417SOL     OW30392   6.083   0.746   6.913 -0.1574  0.2990  0.4724
 4417SOL    HW130393   6.033   0.679   6.959  1.5730 -1.3240  0.1203
 4417SOL    HW230394   6.031   0.764   6.834 -0.6308 -0.6858  0.5368
 4418SOL     OW30395   1.620   2.490   1.399 -0.1197 -0.0958 -0.1569
 4418SOL    HW130396   1.625   2.452   1.311 -0.7107  2.8068 -1.5615
 4418SOL    HW230397   1.691   2.449   1.447  0.2629 -1.7281 -2.0048
 4419SOL     OW30398   1.346   3.175   0.856  0.2988  0.7759 -0.4511
 4419SOL    HW130399   1.386   3.253   0.818  1.5296  0.2572 -0.2624
 4419SOL    HW230400   1.306   3.205   0.938  1.9743  0.9764  0.3283
 4420SOL     OW30401   3.376   5.328   1.176 -0.1497 -0.3768  0.2388
 4420SOL    HW130402   3.407   5.261   1.238  0.7524  0.6622  0.9594
 4420SOL    HW230403   3.305   5.286   1.128  0.9155 -2.1292  0.1022
 4421SOL     OW30404   6.377   3.270   7.169  0.1182  0.1946 -0.5774
 4421SOL    HW130405   6.284   3.281   7.151 -0.5092  1.9045  2.8664
 4421SOL    HW230406   6.392   3.176   7.164 -2.7304 -0.5787  2.2681
 4422SOL     OW30407   4.654   2.108   0.364 -0.2761 -0.3686  0.4082
 4422SOL    HW130408   4.737   2.091   0.408  1.3736  0.8783 -1.9751
 4422SOL    HW230409   4.590   2.056   0.412  1.7222 -0.7846  2.8158
 4423SOL     OW30410   4.285   5.493   1.305  0.1345  0.1538 -0.1580
 4423SOL    HW130411   4.260   5.494   1.397  0.0895  0.7173 -0.1715
 4423SOL    HW230412   4.374   5.527   1.303 -0.7218  2.5611 -0.5392
 4424SOL     OW30413   2.103   2.178   6.899 -0.0753 -0.1402 -0.1840
 4424SOL    HW130414   2.011   2.157   6.915  0.5918 -2.6314  0.8736
 4424SOL    HW230415   2.132   2.113   6.836  0.5098  1.9165 -2.1831
 4425SOL     OW30416   1.934   3.668   7.080 -0.6467 -0.5789  0.0355
 4425SOL    HW130417   1.992   3.600   7.046 -1.0714 -0.5759 -0.7239
 4425SOL    HW230418   1.889   3.702   7.002 -1.6015 -0.5339  0.5901
 4426SOL     OW30419   0.156   3.720   0.952  0.1210  0.3001  0.1470
 4426SOL    HW130420   0.152   3.803   0.903 -1.7277 -1.2157 -2.5297
 4426SOL    HW230421   0.200   3.660   0.891  0.2676 -1.0229  1.5207
 4427SOL     OW30422   4.994   5.870   7.280  0.5029 -0.3321  0.0334
 4427SOL    HW130423   5.087   5.867   7.306  0.9438 -1.0263 -1.5096
 4427SOL    HW230424   4.946   5.852   7.360  1.6236  1.4868  1.2018
 4428SOL     OW30425   6.395   1.611   6.317 -0.6841 -0.2351  0.4018
 4428SOL    HW130426   6.380   1.602   6.411 -0.6732  0.4749  0.4746
 4428SOL    HW230427   6.314   1.581   6.277 -0.1236 -2.1034  0.5585
 4429SOL     OW30428   1.302   3.070   6.133  0.0619 -0.0471 -0.3503
 4429SOL    HW130429   1.233   3.008   6.157  0.1971  0.0443  0.3025
 4429SOL    HW230430   1.262   3.156   6.142 -0.5129 -0.0590 -2.5098
 4430SOL     OW30431   4.041   4.928   7.408 -0.0888 -0.1685  0.4480
 4430SOL    HW130432   3.993   4.980   7.344 -0.1877 -0.7659  0.0223
 4430SOL    HW230433   4.062   4.989   7.479 -1.5091  0.1077  0.6643
 4431SOL     OW30434   3.942   5.835   5.508  0.4109 -0.7654 -0.5307
 4431SOL    HW130435   3.914   5.918   5.470  0.3799 -0.1170  0.8593
 4431SOL    HW230436   4.026   5.854   5.549 -0.3619 -0.9526  1.2461
 4432SOL     OW30437   4.396   4.734   7.527  0.1793  0.3998  0.4933
 4432SOL    HW130438   4.464   4.668   7.518  1.5286  1.4640  2.1407
 4432SOL    HW230439   4.442   4.813   7.556 -1.8485  0.8215  2.9734
 4433SOL     OW30440   3.264   6.184   0.090  0.4343 -0.2257  0.1253
 4433SOL    HW130441   3.224   6.111   0.043  1.4300 -0.9539  0.3742
 4433SOL    HW230442   3.208   6.198   0.166  0.6634 -1.2418  0.4877
 4434SOL     OW30443   4.458   1.470   7.618  0.2432 -0.1663 -0.1361
 4434SOL    HW130444   4.431   1.422   7.540 -0.4528 -1.1106  0.6674
 4434SOL    HW230445   4.395   1.542   7.624 -0.2049 -0.5643  0.0031
 4435SOL     OW30446   6.247   1.305   6.114  0.1615  0.1452  0.0427
 4435SOL    HW130447   6.246   1.294   6.019  1.4270  0.7053 -0.0525
 4435SOL    HW230448   6.338   1.293   6.139 -0.2099 -0.3479  1.2414
 4436SOL     OW30449   0.977   2.501   1.300  0.1652 -0.1094  0.2913
 4436SOL    HW130450   1.033   2.428   1.272 -1.4568 -1.4465  0.4068
 4436SOL    HW230451   0.892   2.483   1.261 -1.3155 -0.3192  3.3574
 4437SOL     OW30452   0.470   2.608   1.549  0.1074 -0.0706 -0.0513
 4437SOL    HW130453   0.547   2.598   1.494  0.2560 -0.6976  0.2680
 4437SOL    HW230454   0.443   2.700   1.537  1.2850  0.3408  0.3580
 4438SOL     OW30455   5.276   6.190   6.136 -0.3519  0.3562 -0.0876
 4438SOL    HW130456   5.239   6.240   6.064  0.0267 -2.5454 -2.4897
 4438SOL    HW230457   5.200   6.162   6.188 -0.7796  1.0354 -0.3428
 4439SOL     OW30458   1.078   1.551   6.558  0.5853  0.0405  0.2180
 4439SOL    HW130459   1.076   1.646   6.548  0.7015  0.0693  0.4650
 4439SOL    HW230460   1.009   1.531   6.621 -0.8826 -0.2480 -1.4064
 4440SOL     OW30461   1.890   4.765   7.026  0.1071  0.5858 -0.4492
 4440SOL    HW130462   1.809   4.737   6.983 -0.7806  1.5117  0.5284
 4440SOL    HW230463   1.898   4.857   7.003 -0.2033  1.0132  1.0165
 4441SOL     OW30464   2.532   6.461   5.503 -0.0130 -0.3154 -0.1269
 4441SOL    HW130465   2.486   6.505   5.575  0.0290 -0.3118 -0.1021
 4441SOL    HW230466   2.464   6.448   5.436 -0.4875 -1.9472  0.6280
 4442SOL     OW30467   0.837   5.661   0.731  0.4309  0.5342 -0.7881
 4442SOL    HW130468   0.835   5.580   0.680  2.6763  0.0597 -0.2295
 4442SOL    HW230469   0.815   5.729   0.668  0.4617 -0.3099 -1.7383
 4443SOL     OW30470   4.278   2.543   7.510  0.0969 -0.1057  0.1961
 4443SOL    HW130471   4.367   2.537   7.475 -0.9593 -2.3137 -2.5111
 4443SOL    HW230472   4.223   2.510   7.439 -2.5921 -2.0406  2.9531
 4444SOL     OW30473   4.110   2.382   1.148  0.4923  0.1197 -0.2928
 4444SOL    HW130474   4.148   2.467   1.129 -1.0211  0.8374 -0.2887
 4444SOL    HW230475   4.185   2.324   1.164  1.5291  1.6233  0.5019
 4445SOL     OW30476   4.425   5.693   0.218 -0.0871 -0.0687 -0.1215
 4445SOL    HW130477   4.442   5.745   0.297  0.0454  0.7882 -0.7014
 4445SOL    HW230478   4.379   5.753   0.159  0.1637 -0.5818 -0.8507
 4446SOL     OW30479   6.150   1.535   6.219  0.1259  0.7787 -0.2791
 4446SOL    HW130480   6.205   1.458   6.201 -1.4329 -0.9494  1.7101
 4446SOL    HW230481   6.061   1.502   6.210 -0.6352  2.9023 -1.1340
 4447SOL     OW30482   6.295   5.971   7.353 -0.0343  0.0362 -0.0125
 4447SOL    HW130483   6.341   5.887   7.349 -1.1526 -0.6456  0.8541
 4447SOL    HW230484   6.205   5.948   7.375 -1.2425  1.2003 -3.1183
 4448SOL     OW30485   1.743   1.870   0.082  0.1067 -0.3724 -0.4566
 4448SOL    HW130486   1.696   1.839   0.005  0.4632  1.3004 -1.3870
 4448SOL    HW230487   1.676   1.881   0.149 -0.4550 -0.3147 -1.0262
 4449SOL     OW30488   2.342   2.499   7.604  0.4817 -0.1630  0.1137
 4449SOL    HW130489   2.273   2.545   7.653  2.6949  0.9586  2.4398
 4449SOL    HW230490   2.339   2.409   7.637  0.3036 -0.0435  0.4304
 4450SOL     OW30491   0.754   4.580   0.723 -0.1800  0.4938 -0.4899
 4450SOL    HW130492   0.788   4.491   0.713 -2.7214 -0.7536  0.9456
 4450SOL    HW230493   0.717   4.602   0.638 -0.2825 -0.1818 -0.6246
 4451SOL     OW30494   1.238   3.223   1.932 -0.9188  0.1081  0.2531
 4451SOL    HW130495   1.281   3.308   1.916 -0.1889 -0.0895  1.0720
 4451SOL    HW230496   1.146   3.240   1.915 -0.3220 -0.2325 -4.7906
 4452SOL     OW30497   2.242   2.809   0.030  0.2374 -0.6978 -0.0435
 4452SOL    HW130498   2.194   2.861   0.094 -0.2681 -1.3946  0.1412
 4452SOL    HW230499   2.179   2.745  -0.003  0.6559 -0.7334 -0.8023
 4453SOL     OW30500   1.330   4.811   2.015 -0.3385 -0.5740  0.3711
 4453SOL    HW130501   1.330   4.902   1.985 -0.5234 -0.5810  0.3456
 4453SOL    HW230502   1.242   4.798   2.050  0.3649 -0.0261  2.5434
 4454SOL     OW30503   2.394   1.298   7.738 -0.6009 -0.2164  0.5227
 4454SOL    HW130504   2.374   1.216   7.693  0.5093  0.7455 -1.8401
 4454SOL    HW230505   2.487   1.292   7.759 -0.3845  0.6371 -0.1375
 4455SOL     OW30506   5.902   2.632   6.509  0.1314  0.5300  0.1760
 4455SOL    HW130507   5.916   2.609   6.418  0.5648  0.6726  0.2048
 4455SOL    HW230508   5.813   2.667   6.512  0.4425  1.3695 -0.3503
 4456SOL     OW30509   4.858   2.464   1.164 -0.5050  0.1803  0.1955
 4456SOL    HW130510   4.794   2.507   1.221 -0.5033  2.6929 -1.4926
 4456SOL    HW230511   4.808   2.442   1.085  0.2143 -0.0395 -0.2000
 4457SOL     OW30512   3.961   0.823   1.523  0.0993  0.0896 -0.1229
 4457SOL    HW130513   3.999   0.818   1.610 -0.1052  1.4026  0.0658
 4457SOL    HW230514   3.871   0.791   1.533 -0.1316  0.8478  0.2975
 4458SOL     OW30515   4.617   0.051   6.329 -0.3681  0.1502 -0.3146
 4458SOL    HW130516   4.557  -0.007   6.283 -1.2685  0.3623  0.5662
 4458SOL    HW230517   4.664   0.097   6.260 -2.2270  1.0219 -1.0616
 4459SOL     OW30518   0.915   1.787   1.415 -0.4980  0.4324 -0.3253
 4459SOL    HW130519   0.906   1.852   1.485 -2.4805 -1.8535  1.7365
 4459SOL    HW230520   0.826   1.772   1.385  0.1095 -0.1693 -1.9223
 4460SOL     OW30521   5.518   5.776   1.441  0.2448 -0.2195 -0.3424
 4460SOL    HW130522   5.534   5.699   1.386  1.0604  1.1150 -2.0817
 4460SOL    HW230523   5.556   5.753   1.526  1.0989 -1.4839 -1.0246
 4461SOL     OW30524   3.431   5.498   0.641 -0.0807 -0.6424 -0.5243
 4461SOL    HW130525   3.385   5.538   0.567 -0.4127 -1.0558 -0.5499
 4461SOL    HW230526   3.396   5.543   0.718 -1.0412 -1.4038 -0.4906
 4462SOL     OW30527   3.328   4.753   0.167 -0.0114 -0.5326  0.4433
 4462SOL    HW130528   3.385   4.814   0.121  1.2852 -0.2938  2.2656
 4462SOL    HW230529   3.276   4.808   0.226 -0.3732 -0.9845  0.5526
 4463SOL     OW30530   4.259   4.997   6.185  0.4464  0.5906  0.2341
 4463SOL    HW130531   4.288   4.912   6.219  0.8220  0.8938  0.6868
 4463SOL    HW230532   4.339   5.043   6.164  0.2366  0.7646 -0.1965
 4464SOL     OW30533   3.626   1.836   1.132  0.0449 -0.3190 -0.0227
 4464SOL    HW130534   3.622   1.766   1.196 -1.1910 -0.4280 -0.1970
 4464SOL    HW230535   3.535   1.851   1.106  0.0397  2.3917  1.1424
 4465SOL     OW30536   4.092   0.634   2.094  0.1764  0.1679  0.4878
 4465SOL    HW130537   4.170   0.590   2.062 -0.0552 -1.4998  2.1038
 4465SOL    HW230538   4.026   0.618   2.026  0.5156 -0.6767  0.3553
 4466SOL     OW30539   2.893   1.516   7.220 -0.0285  0.1583  0.4645
 4466SOL    HW130540   2.940   1.548   7.143  0.0857 -1.4740 -0.1795
 4466SOL    HW230541   2.961   1.480   7.276 -0.2005  0.6051  0.9638
 4467SOL     OW30542   4.500   5.779   0.481 -0.0548 -0.5670 -0.3421
 4467SOL    HW130543   4.494   5.875   0.484  2.0053 -0.3800 -0.2282
 4467SOL    HW230544   4.512   5.752   0.572  0.9443 -0.7493 -0.5089
 4468SOL     OW30545   2.026   4.532   5.498  0.5875 -0.1785 -0.0429
 4468SOL    HW130546   2.116   4.501   5.503  0.3084 -1.3035 -1.3689
 4468SOL    HW230547   1.991   4.492   5.419 -0.6877  1.2978 -0.2879
 4469SOL     OW30548   4.482   4.871   6.999  0.2248 -0.4911  0.0179
 4469SOL    HW130549   4.534   4.950   7.007 -0.7174  0.1058  0.3814
 4469SOL    HW230550   4.544   4.804   6.971  1.1008  0.2877  0.0649
 4470SOL     OW30551   5.068   5.253   1.664 -0.2303  0.6055 -0.5032
 4470SOL    HW130552   5.022   5.197   1.727 -1.6487  1.7084 -0.4965
 4470SOL    HW230553   5.136   5.197   1.628 -1.4662 -1.0904 -0.3631
 4471SOL     OW30554   4.872   3.047   6.211 -0.1947 -0.6552 -0.7253
 4471SOL    HW130555   4.784   3.069   6.179 -0.1963  0.1407 -0.1855
 4471SOL    HW230556   4.856   2.988   6.285 -0.3197  0.1843 -0.0675
 4472SOL     OW30557   3.529   1.232   7.167 -0.3458 -0.4691  0.5609
 4472SOL    HW130558   3.441   1.195   7.177 -1.0538  0.7876 -0.6128
 4472SOL    HW230559   3.514   1.325   7.147  1.2868 -0.0142  1.2291
 4473SOL     OW30560   1.936   1.927   7.645  0.4404 -0.4360 -0.3517
 4473SOL    HW130561   1.890   1.903   7.725 -0.6887 -1.0475 -1.1531
 4473SOL    HW230562   1.996   1.855   7.628  1.7891  0.3987  0.7380
 4474SOL     OW30563   4.148   0.301   0.971 -0.0856 -0.2296 -0.5945
 4474SOL    HW130564   4.181   0.253   0.895  2.7801  1.3284 -0.4788
 4474SOL    HW230565   4.204   0.378   0.977  0.2657 -0.5794  3.4633
 4475SOL     OW30566   1.870   2.587   1.018 -0.0644  0.2537  0.5500
 4475SOL    HW130567   1.856   2.510   0.962  0.5056  0.4499  0.1259
 4475SOL    HW230568   1.954   2.622   0.989 -0.6462  1.4455  0.2587
 4476SOL     OW30569   3.652   2.530   7.018  0.3988  0.3163 -0.5870
 4476SOL    HW130570   3.566   2.549   6.980  0.7678  0.6809 -1.2704
 4476SOL    HW230571   3.675   2.610   7.065  0.2812  0.1510 -0.2512
 4477SOL     OW30572   1.368   5.030   6.760  0.1297 -0.0279 -0.1124
 4477SOL    HW130573   1.343   5.045   6.668  0.1685  1.1500  0.0479
 4477SOL    HW230574   1.423   4.952   6.757 -1.1962 -0.9806 -0.8632
 4478SOL     OW30575   3.443   1.085   1.136  0.0495 -0.4120  0.4542
 4478SOL    HW130576   3.511   1.130   1.186  0.1732 -1.2363  1.0402
 4478SOL    HW230577   3.376   1.061   1.200  0.0821 -1.2464  0.1968
 4479SOL     OW30578   0.502   4.920   7.445  0.5964  0.7006 -0.2795
 4479SOL    HW130579   0.550   4.840   7.423  1.2262  0.5026  1.6420
 4479SOL    HW230580   0.410   4.893   7.448  0.8176  0.0140  0.4828
 4480SOL     OW30581   5.765   6.071   0.705  0.1903 -0.0548  0.3187
 4480SOL    HW130582   5.852   6.043   0.674  0.4405  1.2930 -0.2921
 4480SOL    HW230583   5.720   5.990   0.727  0.9809 -0.9192 -1.0699
 4481SOL     OW30584   1.732   0.790   6.211  0.0455 -0.0048 -0.0972
 4481SOL    HW130585   1.774   0.876   6.217  0.1579  0.0303 -1.1815
 4481SOL    HW230586   1.656   0.803   6.154 -0.0228 -0.5856 -0.1514
 4482SOL     OW30587   2.790   1.808   5.454 -0.0526  0.5462  0.2863
 4482SOL    HW130588   2.816   1.896   5.482  2.4193  0.0930 -0.4203
 4482SOL    HW230589   2.812   1.752   5.528  0.6315  0.2019 -0.1726
 4483SOL     OW30590   1.347   1.015   7.171  0.2153  0.5715 -0.5780
 4483SOL    HW130591   1.430   1.049   7.138  0.3648 -0.1752 -0.9866
 4483SOL    HW230592   1.324   1.075   7.242  0.6037  1.3635 -1.0998
 4484SOL     OW30593   3.134   0.803   0.504 -0.2798  0.2110  0.4803
 4484SOL    HW130594   3.210   0.759   0.465  0.3930  0.2338  1.7402
 4484SOL    HW230595   3.072   0.732   0.520 -0.4358  0.1571 -0.3154
 4485SOL     OW30596   0.131   1.296   7.503 -0.0632  0.1364 -0.5523
 4485SOL    HW130597   0.074   1.265   7.433 -0.9448  1.9639 -0.7179
 4485SOL    HW230598   0.072   1.337   7.566  0.8784  0.1161  0.3789
 4486SOL     OW30599   1.273   3.783   6.493  0.1480 -0.2317 -0.4921
 4486SOL    HW130600   1.190   3.788   6.540 -0.4015  1.0673 -1.5176
 4486SOL    HW230601   1.330   3.845   6.538  0.0024  0.1252 -0.7874
 4487SOL     OW30602   5.626   3.580   2.140 -0.2483 -0.3138 -0.1383
 4487SOL    HW130603   5.606   3.499   2.187 -0.2969  0.0836  0.5369
 4487SOL    HW230604   5.556   3.589   2.076  0.4121 -1.4402 -1.0608
 4488SOL     OW30605   3.042   4.430   0.260 -0.2623  0.1676  0.0399
 4488SOL    HW130606   3.051   4.515   0.217 -0.6210  0.4960  0.5991
 4488SOL    HW230607   2.948   4.410   0.255 -0.0850 -0.5541 -0.7445
 4489SOL     OW30608   1.479   6.032   0.866  0.6600 -0.1718  0.1028
 4489SOL    HW130609   1.431   6.031   0.948  1.8269  0.1317  0.8096
 4489SOL    HW230610   1.565   5.996   0.888  1.9516  2.4035 -0.3492
 4490SOL     OW30611   1.503   1.385   5.811  0.3419  0.3928 -0.1496
 4490SOL    HW130612   1.415   1.420   5.795  0.2405  2.2185  3.4088
 4490SOL    HW230613   1.540   1.373   5.724 -2.4631  2.1538 -1.7399
 4491SOL     OW30614   2.615   4.028   5.045 -0.0940 -0.4347  0.1049
 4491SOL    HW130615   2.667   4.030   5.126 -0.0150  0.1271  0.0432
 4491SOL    HW230616   2.607   4.120   5.020 -2.4410 -0.3589  0.9394
 4492SOL     OW30617   5.915   1.000   1.909  0.3691  0.2550  0.0376
 4492SOL    HW130618   5.907   1.093   1.888 -3.0852  0.0907  0.0395
 4492SOL    HW230619   5.929   0.998   2.004  1.0591  0.7481 -0.0437
 4493SOL     OW30620   4.934   4.303   5.485 -0.2163  0.5447 -0.3349
 4493SOL    HW130621   4.888   4.332   5.563 -0.8390  1.2607 -0.9540
 4493SOL    HW230622   4.877   4.328   5.412 -0.1090 -0.9586 -0.9842
 4494SOL     OW30623   1.240   5.454   6.533 -0.2837 -0.3291 -0.2206
 4494SOL    HW130624   1.154   5.418   6.511 -0.8456  0.7495  0.1575
 4494SOL    HW230625   1.275   5.483   6.449 -0.2130 -0.9046 -0.3984
 4495SOL     OW30626   4.753   3.123   5.814 -0.2144 -1.1074  0.3276
 4495SOL    HW130627   4.813   3.072   5.868  3.4748 -0.0597 -2.3469
 4495SOL    HW230628   4.734   3.066   5.739  1.0765  0.0938 -0.9622
 4496SOL     OW30629   4.958   2.731   1.155  0.2154  0.0156  0.1561
 4496SOL    HW130630   5.052   2.713   1.161  0.0964 -0.1780  2.1505
 4496SOL    HW230631   4.918   2.645   1.147  0.1684  0.0396  0.1342
 4497SOL     OW30632   2.335   0.596   5.942 -0.2202  0.1130 -0.0199
 4497SOL    HW130633   2.387   0.641   5.875 -1.8443 -0.0544 -1.4800
 4497SOL    HW230634   2.317   0.509   5.904  0.4567 -0.7357  1.5030
 4498SOL     OW30635   5.559   0.664   6.939 -0.1666  0.5022  0.4529
 4498SOL    HW130636   5.495   0.639   7.006 -0.9634 -1.3491 -0.9139
 4498SOL    HW230637   5.569   0.585   6.885  1.8386  1.3532 -0.5253
 4499SOL     OW30638   4.164   4.764   5.913  0.0770  0.4126 -0.1170
 4499SOL    HW130639   4.174   4.846   5.865 -0.4285 -0.5240 -1.9262
 4499SOL    HW230640   4.247   4.752   5.957  0.4645  1.4809 -0.5217
 4500SOL     OW30641   2.880   3.047   6.718  0.1301 -0.7018  0.1717
 4500SOL    HW130642   2.950   3.112   6.727 -0.2029 -0.4326  0.8754
 4500SOL    HW230643   2.905   2.995   6.642  0.0553  0.6929 -0.8467
 4501SOL     OW30644   2.866   4.231   1.162 -0.1146 -0.5678  0.3830
 4501SOL    HW130645   2.888   4.315   1.121  0.7331 -0.4237  1.0781
 4501SOL    HW230646   2.923   4.168   1.119 -0.2178 -0.6551  0.3747
 4502SOL     OW30647   5.521   3.035   6.710  0.3510  0.3476 -0.4488
 4502SOL    HW130648   5.487   3.122   6.728 -0.6286 -0.0009 -0.5548
 4502SOL    HW230649   5.596   3.049   6.652 -0.0806  1.0818 -0.8281
 4503SOL     OW30650   5.170   4.729   0.278  0.2504 -0.1244  0.3684
 4503SOL    HW130651   5.169   4.756   0.187 -0.8296  0.3541  0.4984
 4503SOL    HW230652   5.078   4.707   0.297  0.8813 -3.0495  0.5232
 4504SOL     OW30653   1.969   1.033   0.066 -0.0310 -0.2510 -0.0794
 4504SOL    HW130654   1.961   0.971  -0.006  2.3495  0.4413 -1.0172
 4504SOL    HW230655   2.029   1.101   0.034  1.0124  0.1604  2.4832
 4505SOL     OW30656   2.876   0.549   1.429 -0.1521  0.3006  0.1699
 4505SOL    HW130657   2.883   0.601   1.509  0.4978 -0.1122  0.3873
 4505SOL    HW230658   2.902   0.609   1.359  2.4100 -0.1994  0.5992
 4506SOL     OW30659   3.427   1.318   0.226  0.3091 -0.4338 -0.2713
 4506SOL    HW130660   3.445   1.236   0.271  1.0816 -0.4919 -0.6723
 4506SOL    HW230661   3.383   1.372   0.292 -1.1069 -1.4959 -0.2887
 4507SOL     OW30662   2.861   2.878   1.010  0.3183  0.1973  0.0283
 4507SOL    HW130663   2.889   2.830   0.932 -2.0327  0.3121 -0.9681
 4507SOL    HW230664   2.906   2.834   1.082 -1.6207 -3.5516 -0.7948
 4508SOL     OW30665   3.822   5.644   7.381 -0.4666 -0.0436  0.1053
 4508SOL    HW130666   3.785   5.649   7.293  0.8348  0.4290 -0.4481
 4508SOL    HW230667   3.816   5.734   7.415 -0.4852 -0.1154  0.2931
 4509SOL     OW30668   2.436   4.976   1.668 -0.1779 -0.4371 -0.9517
 4509SOL    HW130669   2.480   5.019   1.595 -0.8611  1.8259 -0.1037
 4509SOL    HW230670   2.361   4.932   1.628  0.6307 -1.0290 -1.8676
 4510SOL     OW30671   0.374   4.360   0.339 -0.3308 -0.7605 -0.3711
 4510SOL    HW130672   0.466   4.377   0.319  0.0060 -0.3327  1.3604
 4510SOL    HW230673   0.377   4.305   0.417 -1.5317  0.3208  0.4809
 4511SOL     OW30674   3.432   3.548   0.314  0.2462  0.1604  0.2401
 4511SOL    HW130675   3.506   3.575   0.259  0.3579 -0.5406  0.0373
 4511SOL    HW230676   3.355   3.579   0.266  0.4325  1.8542  0.9890
 4512SOL     OW30677   3.645   4.666   7.524 -0.0171  0.2567  0.7440
 4512SOL    HW130678   3.568   4.719   7.504 -0.7717 -0.4446  1.6642
 4512SOL    HW230679   3.711   4.729   7.552  0.4811  1.0699 -2.0039
 4513SOL     OW30680   5.031   6.170   7.196  0.3675  0.1729 -0.1651
 4513SOL    HW130681   4.955   6.147   7.249 -0.3988  0.0281 -1.2802
 4513SOL    HW230682   5.037   6.100   7.131  1.9021 -0.2029  0.3363
 4514SOL     OW30683   2.201   5.110   6.600 -0.3326 -0.1615 -0.3671
 4514SOL    HW130684   2.193   5.197   6.640 -0.0812 -0.6140  0.7183
 4514SOL    HW230685   2.113   5.074   6.603 -0.9495  0.8892 -2.9247
 4515SOL     OW30686   4.640   6.427   7.723  0.5957 -0.5345 -0.0115
 4515SOL    HW130687   4.547   6.410   7.739 -0.0624  1.8017 -0.9619
 4515SOL    HW230688   4.643   6.466   7.635  2.4550 -0.3932  0.0724
 4516SOL     OW30689   5.440   0.010   7.084 -0.3296  0.4184  0.5612
 4516SOL    HW130690   5.433   0.055   7.169  0.6528  0.8467  0.4239
 4516SOL    HW230691   5.366  -0.051   7.084 -0.3559  0.4151  1.7260
 4517SOL     OW30692   0.802   3.132   1.644  0.9375  0.5159 -0.6067
 4517SOL    HW130693   0.760   3.104   1.563 -0.5825  0.7637  0.0655
 4517SOL    HW230694   0.798   3.054   1.700 -1.3637  1.3487  0.5029
 4518SOL     OW30695   3.206   3.150   6.949 -0.0958  0.0204 -0.1436
 4518SOL    HW130696   3.182   3.125   7.038  2.2722 -0.0858  0.5314
 4518SOL    HW230697   3.125   3.187   6.912 -1.4817 -1.1175  1.5656
 4519SOL     OW30698   2.955   0.903   2.005  0.0472 -0.3480  0.4867
 4519SOL    HW130699   2.922   0.957   2.077 -0.2322  1.5085 -0.9599
 4519SOL    HW230700   3.036   0.946   1.979 -0.9829  0.3530 -1.7342
 4520SOL     OW30701   1.590   2.959   6.899  0.0787  0.4738  0.2279
 4520SOL    HW130702   1.667   3.001   6.860  1.1844 -2.1773 -0.6953
 4520SOL    HW230703   1.522   2.967   6.833 -0.8537  3.6319  1.4036
 4521SOL     OW30704   3.419   5.298   5.251  0.1578 -0.3548  0.2217
 4521SOL    HW130705   3.416   5.313   5.157  1.1795  0.2804  0.2845
 4521SOL    HW230706   3.470   5.217   5.261 -0.8488 -1.0252  0.1945
 4522SOL     OW30707   5.954   4.024   0.194  0.1816  0.1155 -0.4597
 4522SOL    HW130708   5.905   3.966   0.136 -1.4437  0.4499  0.5059
 4522SOL    HW230709   6.041   3.985   0.200  0.1863 -0.2926 -2.5515
 4523SOL     OW30710   1.240   5.696   5.455  0.2141  0.1094  0.3208
 4523SOL    HW130711   1.181   5.706   5.380  0.4729  0.0172  0.1047
 4523SOL    HW230712   1.314   5.753   5.435 -0.5371  1.5129  1.3545
 4524SOL     OW30713   0.992   6.439   1.121 -0.6855 -0.7880 -0.3984
 4524SOL    HW130714   1.025   6.475   1.203  0.2468  0.4364 -1.2698
 4524SOL    HW230715   1.026   6.350   1.118 -1.3951 -1.1261  0.8954
 4525SOL     OW30716   1.079   1.072   0.517 -0.0243  0.4911 -0.7210
 4525SOL    HW130717   1.045   1.139   0.459  0.8352  2.7179  1.2165
 4525SOL    HW230718   1.081   1.113   0.603  1.4658 -1.6933  0.3801
 4526SOL     OW30719   3.387   3.318   5.609 -0.5128  0.0238  0.0658
 4526SOL    HW130720   3.395   3.366   5.527  0.3807 -0.8898 -0.4023
 4526SOL    HW230721   3.420   3.378   5.676 -1.4189  0.8443 -0.1977
 4527SOL     OW30722   4.290   4.283   1.389  0.1571 -0.4579  0.2045
 4527SOL    HW130723   4.196   4.265   1.393  0.1609 -0.3147  1.6128
 4527SOL    HW230724   4.308   4.332   1.470  0.9618  1.8391 -1.2756
 4528SOL     OW30725   2.875   3.145   7.665  0.4947 -0.2360 -0.2092
 4528SOL    HW130726   2.847   3.111   7.580 -0.2168 -2.2697  0.7938
 4528SOL    HW230727   2.863   3.073   7.726  0.8035  1.2259  1.6902
 4529SOL     OW30728   5.459   2.987   0.843  0.0998  0.2769 -0.1449
 4529SOL    HW130729   5.494   2.981   0.754 -2.8742 -1.4876 -1.3728
 4529SOL    HW230730   5.437   3.079   0.854  0.8244  0.5817 -1.1044
 4530SOL     OW30731   0.440   0.317   6.675 -0.1120 -0.0624  0.4634
 4530SOL    HW130732   0.476   0.404   6.688 -0.4041 -0.3438  3.9580
 4530SOL    HW230733   0.410   0.289   6.761 -2.9739 -2.3759 -1.0672
 4531SOL     OW30734   5.049   0.410   6.704  0.4133  0.1364  0.6986
 4531SOL    HW130735   4.995   0.470   6.756 -0.7415 -0.2042 -0.0776
 4531SOL    HW230736   5.074   0.460   6.627  0.0368 -0.1356  0.3928
 4532SOL     OW30737   0.260   0.576   5.715  0.0179  0.8544  0.3079
 4532SOL    HW130738   0.328   0.538   5.661  1.0379  1.0987  1.3849
 4532SOL    HW230739   0.184   0.584   5.657  0.5444 -0.4793 -0.5969
 4533SOL     OW30740   4.432   1.478   1.877 -0.1597  0.0165  0.0122
 4533SOL    HW130741   4.340   1.506   1.872  0.3290  1.7018 -0.1934
 4533SOL    HW230742   4.467   1.497   1.790 -0.2915 -3.3644 -0.9067
 4534SOL     OW30743   1.684   2.411   2.036  0.0739 -0.2823  0.0141
 4534SOL    HW130744   1.702   2.326   1.997 -0.5513 -0.3267 -0.1954
 4534SOL    HW230745   1.599   2.400   2.078  0.1028  0.1710  0.1946
 4535SOL     OW30746   4.866   0.247   7.055 -0.3998 -0.1719 -0.1415
 4535SOL    HW130747   4.773   0.266   7.068 -0.7757 -0.9923 -1.4514
 4535SOL    HW230748   4.893   0.309   6.986  0.0255  0.0547  0.2272
 4536SOL     OW30749   4.619   4.697   0.278  0.0925 -0.3968 -0.0129
 4536SOL    HW130750   4.656   4.766   0.334  2.4605 -0.2212 -1.6682
 4536SOL    HW230751   4.564   4.745   0.216  1.0802 -0.0324 -0.6403
 4537SOL     OW30752   2.464   4.498   0.994 -0.0817  0.0372  0.2502
 4537SOL    HW130753   2.440   4.441   1.067 -0.7148  1.2913  1.0681
 4537SOL    HW230754   2.480   4.583   1.035  0.5262  0.5272 -0.9677
 4538SOL     OW30755   0.829   3.461   0.587  0.2051 -0.1717  0.0732
 4538SOL    HW130756   0.868   3.385   0.544 -0.9348 -1.4896  1.2610
 4538SOL    HW230757   0.890   3.485   0.656 -1.5432 -3.1872  2.9479
 4539SOL     OW30758   1.090   5.670   5.964 -0.8708  0.0865  0.4591
 4539SOL    HW130759   1.133   5.648   5.881 -0.4801 -3.4894  1.4266
 4539SOL    HW230760   1.163   5.683   6.025 -1.1686  2.3101  0.4252
 4540SOL     OW30761   4.110   3.285   6.993  0.0038  0.6577 -0.7680
 4540SOL    HW130762   4.110   3.334   7.075  0.3691  0.8347 -0.8711
 4540SOL    HW230763   4.137   3.349   6.927  0.4721  0.3234 -0.9065
 4541SOL     OW30764   4.778   6.286   6.542 -0.9012 -0.4047  0.2671
 4541SOL    HW130765   4.821   6.201   6.555 -0.0390 -0.3018 -1.4886
 4541SOL    HW230766   4.687   6.264   6.522 -0.5017 -1.0326 -1.0301
 4542SOL     OW30767   2.259   1.077   1.333  0.0616  0.4171 -0.4054
 4542SOL    HW130768   2.241   0.999   1.282 -0.2459 -0.0778  0.4287
 4542SOL    HW230769   2.218   1.149   1.284 -1.6462 -0.2701 -0.0447
 4543SOL     OW30770   0.729   6.185   1.826 -0.3799  0.0884  0.1767
 4543SOL    HW130771   0.658   6.139   1.872  0.4572 -1.6567 -0.1642
 4543SOL    HW230772   0.806   6.169   1.880  0.2811 -0.5253 -0.9123
 4544SOL     OW30773   4.382   4.564   0.080  0.3536  0.3419  0.0671
 4544SOL    HW130774   4.455   4.621   0.054  0.2382  0.5047  0.0989
 4544SOL    HW230775   4.377   4.498   0.011  0.7317  0.1461  0.2243
 4545SOL     OW30776   2.956   2.713   2.500  0.1385  0.7042  0.4518
 4545SOL    HW130777   3.015   2.745   2.432 -0.1906  0.5055  0.0640
 4545SOL    HW230778   2.876   2.688   2.453 -0.4087  1.3332  1.0126
 4546SOL     OW30779   5.957   6.393   7.463  0.3399 -0.0508  0.4751
 4546SOL    HW130780   5.908   6.386   7.381  1.4491 -0.2642 -0.1807
 4546SOL    HW230781   6.029   6.452   7.443 -0.1918  1.0630  1.7178
 4547SOL     OW30782   4.508   5.896   1.325 -0.2660 -0.1263 -0.3186
 4547SOL    HW130783   4.421   5.870   1.293 -0.2819 -1.1865  0.5037
 4547SOL    HW230784   4.493   5.978   1.371 -0.6645  0.1675 -0.9567
 4548SOL     OW30785   1.029   3.374   5.246  0.5342  0.4446 -0.4421
 4548SOL    HW130786   1.101   3.435   5.263  0.7020  0.0202  0.3808
 4548SOL    HW230787   0.980   3.371   5.327 -0.8625  1.2915 -1.2244
 4549SOL     OW30788   6.377   2.626   1.474  0.5803 -0.1711  0.0403
 4549SOL    HW130789   6.472   2.627   1.490  0.9694 -0.9504 -1.9158
 4549SOL    HW230790   6.365   2.683   1.399 -0.2683 -1.3962 -0.7855
 4550SOL     OW30791   1.280   5.671   6.704  0.0962 -0.0993  0.2406
 4550SOL    HW130792   1.253   5.741   6.644  1.2845  0.0807 -0.1014
 4550SOL    HW230793   1.263   5.590   6.655  0.1287  0.0056  0.0549
 4551SOL     OW30794   0.051   5.862   1.347  0.1104  0.3322  0.3083
 4551SOL    HW130795  -0.043   5.876   1.338 -0.2438 -1.0413  1.3912
 4551SOL    HW230796   0.065   5.858   1.442  1.0750 -0.5174  0.1473
 4552SOL     OW30797   0.640   0.453   1.177  0.1825  0.6106 -0.3786
 4552SOL    HW130798   0.649   0.498   1.093  0.4955 -2.1532 -1.9120
 4552SOL    HW230799   0.551   0.472   1.205 -0.1755  0.9770 -1.6960
 4553SOL     OW30800   0.202   6.247   6.605  0.0889 -0.0738 -0.1272
 4553SOL    HW130801   0.214   6.225   6.513  1.3449  0.0183  0.0005
 4553SOL    HW230802   0.272   6.309   6.625 -0.9827  0.9650  0.5563
 4554SOL     OW30803   0.926   4.963   0.479  0.2608 -0.0190 -0.4208
 4554SOL    HW130804   0.848   5.005   0.515 -0.0531 -0.3901 -0.6606
 4554SOL    HW230805   0.928   4.992   0.388 -0.4003 -1.1311 -0.8105
 4555SOL     OW30806   2.012   6.324   1.861  0.0809  0.4754  0.0133
 4555SOL    HW130807   2.071   6.249   1.851  1.3600  1.3047  0.9013
 4555SOL    HW230808   1.938   6.290   1.911 -0.7284 -0.8289 -1.9580
 4556SOL     OW30809   0.758   2.827   6.483 -0.4379  0.3300  0.2080
 4556SOL    HW130810   0.840   2.799   6.523 -0.2654  0.5755  0.0259
 4556SOL    HW230811   0.757   2.922   6.493  1.6205  1.0308 -4.0179
 4557SOL     OW30812   5.942   0.452   0.991  0.1962 -0.8271  0.3445
 4557SOL    HW130813   5.985   0.379   1.036 -0.6913 -1.0448  0.8705
 4557SOL    HW230814   5.897   0.411   0.917 -1.4729 -1.0670  1.4373
 4558SOL     OW30815   0.921   1.658   0.996  0.3273  0.3644  0.3606
 4558SOL    HW130816   0.928   1.584   1.055 -0.1529  0.8882  1.0972
 4558SOL    HW230817   1.010   1.693   0.991  0.4980 -0.0796  0.2373
 4559SOL     OW30818   5.316   4.306   7.041  0.2836  0.1205  0.1512
 4559SOL    HW130819   5.369   4.226   7.041 -1.2584 -0.9652 -1.3551
 4559SOL    HW230820   5.313   4.331   7.133 -0.0106 -2.1508  0.8400
 4560SOL     OW30821   4.843   0.664   7.213  0.6042  0.3426  0.7583
 4560SOL    HW130822   4.934   0.689   7.229  0.7694 -1.0271  2.2273
 4560SOL    HW230823   4.805   0.655   7.300 -1.3037  2.0131  0.1818
 4561SOL     OW30824   3.327   2.809   7.613  0.6557  0.1276  0.4473
 4561SOL    HW130825   3.421   2.806   7.596  0.6884  0.0889  0.6326
 4561SOL    HW230826   3.292   2.730   7.570  0.6871  0.2208  0.2514
 4562SOL     OW30827   2.120   1.701   2.057 -0.1927  0.4283 -0.4373
 4562SOL    HW130828   2.143   1.765   1.990  1.4419  1.0154  0.5926
 4562SOL    HW230829   2.160   1.619   2.027  1.9928  1.0655  0.5357
 4563SOL     OW30830   5.121   1.237   1.246 -0.1526  0.1912 -0.4972
 4563SOL    HW130831   5.057   1.215   1.314  1.3893  0.1295  1.0017
 4563SOL    HW230832   5.165   1.154   1.228 -1.5116 -0.1170 -2.6981
 4564SOL     OW30833   5.208   3.131   6.011 -0.2254  0.2513  0.3515
 4564SOL    HW130834   5.302   3.116   6.027 -0.7405 -0.4053  3.3399
 4564SOL    HW230835   5.196   3.225   6.023 -0.2035  0.0816  1.9912
 4565SOL     OW30836   5.566   2.729   6.292  0.7006  0.0615 -0.0912
 4565SOL    HW130837   5.491   2.708   6.237  0.7429  1.8370 -0.8762
 4565SOL    HW230838   5.593   2.644   6.328 -2.0639 -0.5349  0.7925
 4566SOL     OW30839   1.640   4.242   1.192  0.5087 -0.0902  0.1028
 4566SOL    HW130840   1.631   4.333   1.221  0.6160  0.8749 -2.5306
 4566SOL    HW230841   1.706   4.246   1.122 -0.1612 -2.0241 -0.7082
 4567SOL     OW30842   0.369   3.753   1.609  0.0434  0.0173  0.0148
 4567SOL    HW130843   0.337   3.682   1.553 -1.5859  0.4055  0.3745
 4567SOL    HW230844   0.451   3.721   1.645 -0.2334 -1.3368 -0.4977
 4568SOL     OW30845   2.434   1.184   6.279  0.4576 -0.2334  0.4862
 4568SOL    HW130846   2.424   1.092   6.257  0.8379  0.1098 -1.3455
 4568SOL    HW230847   2.506   1.214   6.223  2.6457  0.4411  3.4404
 4569SOL     OW30848   3.329   5.315   6.471  0.1085 -0.8836 -0.4451
 4569SOL    HW130849   3.301   5.224   6.460  0.6760 -1.4134  1.9874
 4569SOL    HW230850   3.247   5.363   6.484 -0.0989 -1.9159  3.2830
 4570SOL     OW30851   0.432   0.293   6.233 -0.2639 -0.3507 -1.0434
 4570SOL    HW130852   0.466   0.294   6.323  1.4951  1.8784 -1.6503
 4570SOL    HW230853   0.418   0.201   6.214  1.6525 -1.0769  0.6977
 4571SOL     OW30854   4.241   2.668   0.793  0.4398 -0.1165 -0.1828
 4571SOL    HW130855   4.157   2.623   0.804  0.5997 -0.4668 -0.3639
 4571SOL    HW230856   4.258   2.708   0.879  0.6792 -1.0798  0.2310
 4572SOL     OW30857   0.060   0.588   0.563 -0.5061 -0.2022 -0.2316
 4572SOL    HW130858   0.039   0.656   0.627 -2.5911 -0.1232 -0.9037
 4572SOL    HW230859   0.106   0.634   0.493 -0.5813  0.2212 -0.0074
 4573SOL     OW30860   5.034   4.106   7.246  0.1749 -0.0327 -0.3455
 4573SOL    HW130861   5.040   4.201   7.231 -0.2516  0.1385  0.5191
 4573SOL    HW230862   5.125   4.078   7.254  0.3646  0.1029 -1.6967
 4574SOL     OW30863   0.053   3.275   7.397 -0.3538  0.0319 -0.3903
 4574SOL    HW130864   0.138   3.252   7.360 -0.1881 -0.4040  0.2373
 4574SOL    HW230865  -0.005   3.282   7.321  0.5157  1.6665 -0.9639
 4575SOL     OW30866   5.390   1.905   7.616 -0.5536 -0.6650 -0.2827
 4575SOL    HW130867   5.445   1.837   7.654 -0.5681 -0.3804  0.2493
 4575SOL    HW230868   5.379   1.969   7.686  2.2688  1.6404 -1.7193
 4576SOL     OW30869   3.324   3.292   0.380  0.2322  0.2894 -0.3398
 4576SOL    HW130870   3.366   3.376   0.358  1.2476  0.0650  0.6392
 4576SOL    HW230871   3.235   3.300   0.345  0.5008  1.5308 -0.8084
 4577SOL     OW30872   2.054   5.360   2.183  0.3588  0.6397 -0.0120
 4577SOL    HW130873   2.094   5.370   2.096  3.2450  1.3000  1.2823
 4577SOL    HW230874   2.081   5.438   2.231  0.1644 -0.4466  1.9725
 4578SOL     OW30875   3.650   5.094   6.552  0.7397 -0.0425 -0.1815
 4578SOL    HW130876   3.701   5.069   6.475 -1.7325 -0.3572 -1.8629
 4578SOL    HW230877   3.574   5.035   6.549 -1.0253  2.0766  0.6338
 4579SOL     OW30878   2.197   4.302   0.180 -0.5383  0.5124 -0.1141
 4579SOL    HW130879   2.288   4.326   0.160 -0.9768  2.0700 -0.3971
 4579SOL    HW230880   2.146   4.379   0.155 -1.6982  0.5688  2.1368
 4580SOL     OW30881   4.564   1.997   1.061 -0.0270 -0.1565  0.1294
 4580SOL    HW130882   4.639   2.035   1.107 -0.7020  0.8468  0.4246
 4580SOL    HW230883   4.539   2.063   0.996 -1.0246 -0.2092  0.4457
 4581SOL     OW30884   0.970   2.426   7.701 -0.3634  0.4737  0.3044
 4581SOL    HW130885   1.024   2.488   7.651 -2.0950  2.1215  0.3430
 4581SOL    HW230886   0.981   2.343   7.657 -0.6284  1.5523 -1.9263
 4582SOL     OW30887   2.947   1.547   0.522  0.2220  0.4882  0.8996
 4582SOL    HW130888   2.900   1.536   0.605 -1.2600 -0.0993  0.0287
 4582SOL    HW230889   3.035   1.516   0.540  0.1450  1.0598  2.4412
 4583SOL     OW30890   3.636   0.799   1.349 -0.3348 -0.4048 -0.1245
 4583SOL    HW130891   3.666   0.874   1.298 -0.8054 -0.8300 -1.0726
 4583SOL    HW230892   3.620   0.833   1.437  0.2429  0.4146 -0.3318
 4584SOL     OW30893   1.735   2.038   2.101  0.3882  0.0387  0.1695
 4584SOL    HW130894   1.742   2.089   2.020  0.5039 -1.1196 -0.5715
 4584SOL    HW230895   1.641   2.036   2.120  0.3799  0.4966  0.1975
 4585SOL     OW30896   1.689   3.842   6.558  0.2180  0.5024  0.4716
 4585SOL    HW130897   1.705   3.748   6.553  1.5763  0.6241  1.9141
 4585SOL    HW230898   1.768   3.883   6.524 -0.5663  1.1636 -0.6492
 4586SOL     OW30899   1.378   2.329   0.430  0.4187  0.0794  0.8348
 4586SOL    HW130900   1.469   2.302   0.436  0.5715  0.5887  0.8089
 4586SOL    HW230901   1.347   2.289   0.349  0.8487  0.5691  0.4193
 4587SOL     OW30902   5.819   0.372   0.435  0.4064  0.0759  0.6284
 4587SOL    HW130903   5.818   0.276   0.429  1.3776  0.1045 -0.2231
 4587SOL    HW230904   5.766   0.391   0.512  1.5181 -1.2313  1.7842
 4588SOL     OW30905   6.465   1.124   7.062  0.1952  0.5160  0.3798
 4588SOL    HW130906   6.417   1.163   6.988 -0.8241 -0.2555  0.6116
 4588SOL    HW230907   6.450   1.030   7.053 -0.0674  0.4220  1.6419
 4589SOL     OW30908   5.681   4.212   1.164  0.7837 -0.1097  0.0234
 4589SOL    HW130909   5.666   4.133   1.112 -0.4862  1.8199 -2.8058
 4589SOL    HW230910   5.619   4.205   1.237 -1.6994 -0.3741 -1.9511
 4590SOL     OW30911   0.884   5.970   7.768 -0.3610 -0.4973  0.3222
 4590SOL    HW130912   0.813   5.939   7.712 -0.1752 -0.1470 -0.1126
 4590SOL    HW230913   0.906   5.894   7.822 -0.0603 -1.0713 -0.5742
 4591SOL     OW30914   3.723   5.471   5.479 -0.2368  0.0470  0.4705
 4591SOL    HW130915   3.796   5.496   5.424  0.3940 -1.2181  0.6920
 4591SOL    HW230916   3.645   5.500   5.431  0.3942  1.8128  0.4543
 4592SOL     OW30917   2.183   6.145   1.071  0.0194 -0.1362  0.4674
 4592SOL    HW130918   2.244   6.072   1.081 -0.7794 -0.6501  1.8536
 4592SOL    HW230919   2.130   6.143   1.150 -2.4020 -0.2683 -1.0602
 4593SOL     OW30920   0.246   3.941   5.900  0.1891  0.2468 -0.0116
 4593SOL    HW130921   0.208   3.854   5.911  0.8486 -0.1343 -0.5875
 4593SOL    HW230922   0.187   3.986   5.839  0.7607 -0.4203 -1.0855
 4594SOL     OW30923   4.579   3.961   5.940 -0.3438 -0.0766  0.0878
 4594SOL    HW130924   4.555   3.870   5.958 -2.4991  0.5188  0.5312
 4594SOL    HW230925   4.609   3.961   5.849  0.6798 -1.3778  0.3994
 4595SOL     OW30926   4.204   3.272   0.701 -0.1617  0.7322  0.7467
 4595SOL    HW130927   4.197   3.355   0.748 -1.5678  0.9781  0.1638
 4595SOL    HW230928   4.132   3.275   0.637  0.7348 -0.2524 -0.3504
 4596SOL     OW30929   5.815   3.548   7.616 -0.2421 -0.4149  0.1665
 4596SOL    HW130930   5.761   3.587   7.684  1.0806  2.2054 -0.1575
 4596SOL    HW230931   5.885   3.503   7.664  1.0417  1.9449  0.6558
 4597SOL     OW30932   3.104   3.645   1.057 -0.0417 -0.0283  0.1767
 4597SOL    HW130933   3.057   3.575   1.102 -0.4831  0.6288  0.7412
 4597SOL    HW230934   3.039   3.684   0.998 -0.2803  0.9921  1.0815
 4598SOL     OW30935   1.140   2.977   1.916 -0.7401  0.6728 -0.2339
 4598SOL    HW130936   1.181   3.064   1.924  1.2410 -0.1523 -0.8823
 4598SOL    HW230937   1.060   2.984   1.968  0.3677  2.2811  1.3972
 4599SOL     OW30938   4.895   3.192   1.058  0.0724  0.3977 -0.3776
 4599SOL    HW130939   4.954   3.118   1.045  0.3986  0.6010 -0.0769
 4599SOL    HW230940   4.939   3.246   1.123 -0.7878  0.1872  0.3923
 4600SOL     OW30941   4.069   1.368   1.418 -0.0085 -0.1417  0.1974
 4600SOL    HW130942   4.151   1.409   1.446 -0.0354 -0.7759  1.2333
 4600SOL    HW230943   4.003   1.403   1.478 -0.8475  1.7108 -1.6991
 4601SOL     OW30944   3.385   2.202   6.936 -0.5060  0.3492 -0.5959
 4601SOL    HW130945   3.465   2.185   6.986 -1.5998  1.8654  1.8826
 4601SOL    HW230946   3.321   2.141   6.972 -1.0907  0.8738 -0.7211
 4602SOL     OW30947   0.608   5.489   1.016  0.1705  0.2087  0.1850
 4602SOL    HW130948   0.579   5.556   0.954  0.4354  0.2105  0.0614
 4602SOL    HW230949   0.570   5.407   0.983  0.1793  0.2346  0.1099
 4603SOL     OW30950   2.291   2.277   0.542  0.6136  0.0146  0.0965
 4603SOL    HW130951   2.382   2.248   0.533  0.2911 -0.4683 -2.9226
 4603SOL    HW230952   2.240   2.197   0.541  0.0407  0.3485 -1.7846
 4604SOL     OW30953   6.175   4.448   0.432 -0.1348 -0.0447 -0.0174
 4604SOL    HW130954   6.251   4.423   0.379  0.3004  0.1305  0.5169
 4604SOL    HW230955   6.136   4.365   0.459 -1.6443 -0.2167 -2.3542
 4605SOL     OW30956   3.001   3.354   0.019 -0.1078 -0.1782 -0.1733
 4605SOL    HW130957   2.971   3.277  -0.029  0.5061 -2.3127  2.6117
 4605SOL    HW230958   2.921   3.400   0.044 -0.5573 -0.7052 -0.6199
 4606SOL     OW30959   5.573   4.713   7.418 -0.6522 -0.5387  0.5779
 4606SOL    HW130960   5.519   4.785   7.385 -0.9229 -1.4089 -0.9938
 4606SOL    HW230961   5.613   4.747   7.498  1.5859  2.4384 -1.5985
 4607SOL     OW30962   3.512   3.067   7.411 -0.3583  0.3864  0.6096
 4607SOL    HW130963   3.436   3.124   7.414 -0.1286  0.8094 -0.9140
 4607SOL    HW230964   3.550   3.082   7.325  1.2146 -0.1325  1.1801
 4608SOL     OW30965   3.383   5.041   1.332 -0.3057 -0.3309  0.7698
 4608SOL    HW130966   3.424   5.023   1.416 -0.3645 -1.5102  0.5509
 4608SOL    HW230967   3.443   5.005   1.266  1.1450  2.9550  0.0602
 4609SOL     OW30968   2.774   4.107   6.580  0.0716 -0.0803  0.4780
 4609SOL    HW130969   2.777   4.020   6.540  0.2277  0.2175 -0.1673
 4609SOL    HW230970   2.745   4.165   6.510 -0.6430  0.3026  1.0701
 4610SOL     OW30971   2.086   5.316   1.311  0.0882 -0.0784  0.4009
 4610SOL    HW130972   2.118   5.374   1.241 -0.5122 -0.4014 -0.1558
 4610SOL    HW230973   2.052   5.376   1.377  0.5819  0.2313  0.3846
 4611SOL     OW30974   4.795   3.005   0.241 -0.2322 -0.2486  0.0978
 4611SOL    HW130975   4.844   2.970   0.315  2.4704 -1.3828 -2.0633
 4611SOL    HW230976   4.707   2.968   0.252  0.8882 -2.9064  1.1452
 4612SOL     OW30977   3.588   3.150   0.474  0.0633 -0.0172 -0.4390
 4612SOL    HW130978   3.540   3.069   0.454  0.4005 -0.2640 -0.2650
 4612SOL    HW230979   3.533   3.220   0.438 -1.3106 -0.1428  1.2512
 4613SOL     OW30980   4.672   2.550   1.363  0.0549 -0.5805 -0.4201
 4613SOL    HW130981   4.717   2.478   1.406 -2.0048 -3.1454 -2.2490
 4613SOL    HW230982   4.588   2.557   1.409 -0.6130 -0.7864 -1.5777
 4614SOL     OW30983   0.336   0.056   2.205 -0.2012 -0.6015 -0.2029
 4614SOL    HW130984   0.270   0.084   2.268  0.9761  4.7134 -0.8627
 4614SOL    HW230985   0.396   0.130   2.198  1.7204 -2.2003 -4.9700
 4615SOL     OW30986   4.365   2.249   0.053 -0.1400  0.6072 -0.0958
 4615SOL    HW130987   4.315   2.179   0.095 -1.0845  1.3465  0.0540
 4615SOL    HW230988   4.298   2.302   0.009  0.5585  1.4248 -0.1804
 4616SOL     OW30989   2.917   0.788   6.388 -0.2959 -0.1709  0.0798
 4616SOL    HW130990   2.898   0.770   6.480  2.3114  0.6767  0.8645
 4616SOL    HW230991   2.881   0.875   6.371 -0.4470 -0.1711  0.4125
 4617SOL     OW30992   3.425   4.125   6.912 -0.1166 -0.2648  0.5282
 4617SOL    HW130993   3.333   4.100   6.904 -0.1390 -0.0453  0.0467
 4617SOL    HW230994   3.464   4.057   6.966 -0.4401 -0.6623  0.2674
 4618SOL     OW30995   4.671   1.612   1.387  0.4142 -0.6812  0.1428
 4618SOL    HW130996   4.602   1.675   1.365 -0.7979 -1.1359  2.3771
 4618SOL    HW230997   4.649   1.582   1.475  2.3036 -2.4600  0.0785
 4619SOL     OW30998   3.924   5.415   5.694 -0.1822  0.0503 -0.4558
 4619SOL    HW130999   3.879   5.470   5.629  2.1695  0.3505 -1.9513
 4619SOL    HW231000   4.016   5.441   5.687  0.3370 -0.8323  2.1451
 4620SOL     OW31001   4.158   2.517   7.279  0.2207 -0.4893  0.2260
 4620SOL    HW131002   4.189   2.454   7.215  1.7279 -0.5654  0.9770
 4620SOL    HW231003   4.163   2.601   7.234  0.6216 -0.6218  0.0113
 4621SOL     OW31004   6.086   3.780   5.467 -0.1217 -0.1341 -0.2010
 4621SOL    HW131005   6.076   3.701   5.520 -1.4613 -0.0512 -0.2945
 4621SOL    HW231006   6.143   3.754   5.395 -0.1191 -0.8737  0.0568
 4622SOL     OW31007   5.217   3.528   7.566 -0.2103 -0.2655 -0.1071
 4622SOL    HW131008   5.215   3.433   7.574  1.3085 -0.2916  0.2791
 4622SOL    HW231009   5.227   3.559   7.656 -2.1634  0.3637 -0.0511
 4623SOL     OW31010   0.345   0.938   6.567 -0.0560  1.1999 -0.2399
 4623SOL    HW131011   0.259   0.944   6.608 -0.0074  1.2602 -0.1475
 4623SOL    HW231012   0.354   0.846   6.542  0.1970  1.0255  0.4837
 4624SOL     OW31013   0.642   1.209   0.014 -0.2778  0.1049  0.4317
 4624SOL    HW131014   0.581   1.149   0.057 -0.4597 -0.2648 -0.3257
 4624SOL    HW231015   0.657   1.278   0.078  1.1587 -1.5206  1.9587
 4625SOL     OW31016   3.241   5.367   7.757  0.2029  0.4335  0.7790
 4625SOL    HW131017   3.309   5.329   7.701  1.0759  1.1820  1.2976
 4625SOL    HW231018   3.189   5.421   7.698 -0.6248 -0.9543  0.1705
 4626SOL     OW31019   4.171   4.545   5.707 -0.1386 -0.4960  0.1627
 4626SOL    HW131020   4.260   4.579   5.693 -0.7883  1.0211 -0.4009
 4626SOL    HW231021   4.129   4.610   5.763 -1.3976 -0.3633 -0.8988
 4627SOL     OW31022   5.002   4.496   6.778 -0.3477 -0.3215  0.3349
 4627SOL    HW131023   5.018   4.530   6.690  0.8171 -1.1509  0.1966
 4627SOL    HW231024   4.956   4.567   6.823  0.2621  0.6479 -0.5202
 4628SOL     OW31025   5.105   3.053   1.566  0.5307  0.0942 -0.0894
 4628SOL    HW131026   5.170   3.024   1.629  0.2392 -1.4560 -0.4680
 4628SOL    HW231027   5.148   3.123   1.517  1.4047  0.0371  0.5821
 4629SOL     OW31028   2.136   5.661   0.262  0.1559 -0.0569 -0.3614
 4629SOL    HW131029   2.107   5.725   0.198 -0.4906 -1.5193 -1.5974
 4629SOL    HW231030   2.219   5.696   0.296  0.0918  1.1427 -1.3775
 4630SOL     OW31031   1.876   3.137   2.110  0.5569 -0.0302  0.7557
 4630SOL    HW131032   1.805   3.077   2.133  0.9027 -0.1926  1.4068
 4630SOL    HW231033   1.840   3.190   2.038  0.2224 -0.9574  0.2265
 4631SOL     OW31034   4.491   6.118   6.848 -0.1271 -0.0173 -0.2557
 4631SOL    HW131035   4.402   6.123   6.812 -0.3623 -1.7228  0.0323
 4631SOL    HW231036   4.525   6.034   6.817  1.5863  0.8209 -0.7695
 4632SOL     OW31037   3.786   3.667   7.228 -0.0403  0.0876 -0.0323
 4632SOL    HW131038   3.846   3.592   7.229 -2.4650 -2.0146 -1.2519
 4632SOL    HW231039   3.761   3.677   7.136 -0.3513  1.9732  0.2134
 4633SOL     OW31040   4.143   2.630   1.997 -0.3855  0.2993 -0.2585
 4633SOL    HW131041   4.189   2.549   1.974  0.7587  0.5236  1.1382
 4633SOL    HW231042   4.213   2.694   2.007 -0.8526  0.4385  2.8331
 4634SOL     OW31043   4.848   3.652   7.696  0.0308 -0.9263  0.3152
 4634SOL    HW131044   4.886   3.639   7.609 -1.4701  1.3068 -0.7774
 4634SOL    HW231045   4.757   3.624   7.687 -0.3139 -0.0469  0.9400
 4635SOL     OW31046   0.879   2.864   1.442  0.7642 -0.2671 -0.2904
 4635SOL    HW131047   0.956   2.831   1.396  0.1831 -2.2383  0.0255
 4635SOL    HW231048   0.909   2.877   1.532  0.9345 -0.2220 -0.3539
 4636SOL     OW31049   2.199   2.520   5.858 -0.1693 -0.4580  0.2290
 4636SOL    HW131050   2.250   2.549   5.934 -0.7708 -0.4661  0.6403
 4636SOL    HW231051   2.192   2.598   5.803  0.2057 -0.4332  0.2103
 4637SOL     OW31052   2.026   0.472   1.366 -0.0153 -0.7916  0.2297
 4637SOL    HW131053   2.059   0.405   1.306  0.7387  0.0492 -0.3240
 4637SOL    HW231054   1.953   0.430   1.411 -0.4373 -1.5469 -1.0938
 4638SOL     OW31055   4.971   4.693   7.142  0.4127 -0.5653  0.0242
 4638SOL    HW131056   5.032   4.740   7.084  1.0804 -2.3382 -0.7929
 4638SOL    HW231057   5.010   4.606   7.151 -0.1461 -0.6340  2.4603
 4639SOL     OW31058   4.261   3.176   1.500  0.5544 -0.3696 -0.1357
 4639SOL    HW131059   4.235   3.201   1.411 -0.2299  0.9443  0.4293
 4639SOL    HW231060   4.263   3.259   1.548  0.3135 -1.1264  1.2348
 4640SOL     OW31061   2.068   1.694   7.640  0.0509  0.3037  0.2586
 4640SOL    HW131062   2.061   1.631   7.711  1.6892  0.1328  0.3075
 4640SOL    HW231063   2.158   1.684   7.608  0.1059  2.0694 -0.2420
 4641SOL     OW31064   4.857   2.305   0.443  0.3215 -0.3183  0.0480
 4641SOL    HW131065   4.777   2.280   0.395 -2.2532  1.0136  3.2307
 4641SOL    HW231066   4.908   2.355   0.379 -2.7775  1.1846 -1.4803
 4642SOL     OW31067   3.288   4.139   1.413  0.8728 -0.3267  0.0723
 4642SOL    HW131068   3.281   4.152   1.318 -0.1106  0.8034  0.2706
 4642SOL    HW231069   3.258   4.049   1.427 -3.3226  0.7934 -0.3249
 4643SOL     OW31070   1.708   4.993   0.737  0.3429 -0.1484  0.6022
 4643SOL    HW131071   1.686   4.922   0.797 -0.8023 -0.0973  0.2840
 4643SOL    HW231072   1.729   5.067   0.794  0.1334 -0.3497  0.9470
 4644SOL     OW31073   1.489   3.123   6.436  0.3506  0.2010 -0.1123
 4644SOL    HW131074   1.485   3.030   6.412  0.2685  0.2727 -0.3854
 4644SOL    HW231075   1.418   3.163   6.386 -0.3301  0.2295  0.8539
 4645SOL     OW31076   0.259   0.592   1.722 -0.2188  0.3353 -0.1605
 4645SOL    HW131077   0.312   0.636   1.788 -1.8904  1.4820  0.4928
 4645SOL    HW231078   0.318   0.528   1.682  0.8508 -0.4281  2.4419
 4646SOL     OW31079   5.359   4.515   7.502  0.5401  0.1985  0.4814
 4646SOL    HW131080   5.397   4.603   7.495  0.3718  0.2524  0.2118
 4646SOL    HW231081   5.427   4.463   7.545  1.0783  0.2048 -0.3338
 4647SOL     OW31082   2.240   6.139   6.728 -0.2983  0.1698  0.0491
 4647SOL    HW131083   2.200   6.216   6.687  0.8064 -0.0967 -1.6155
 4647SOL    HW231084   2.332   6.163   6.739  0.0686 -0.9248 -0.5446
 4648SOL     OW31085   3.672   4.165   1.008 -0.2914 -0.4576  0.0699
 4648SOL    HW131086   3.651   4.250   0.969 -0.2721 -1.0249 -1.2509
 4648SOL    HW231087   3.738   4.185   1.075  0.3129  0.4833 -0.7718
 4649SOL     OW31088   3.987   1.387   0.751  0.0708  0.0570 -0.3014
 4649SOL    HW131089   4.024   1.409   0.837 -0.1069 -1.3427  0.1553
 4649SOL    HW231090   4.002   1.466   0.698 -0.3376  1.1742  1.1689
 4650SOL     OW31091   3.466   6.104   0.551  0.2829 -0.1075  0.3037
 4650SOL    HW131092   3.464   6.195   0.581 -0.7655 -0.4503  1.3373
 4650SOL    HW231093   3.464   6.110   0.455  0.1556  0.9538  0.3649
 4651SOL     OW31094   5.066   2.133   1.645  0.7094 -0.0416 -0.4903
 4651SOL    HW131095   5.119   2.055   1.658 -0.1009 -0.9809 -2.3770
 4651SOL    HW231096   4.978   2.099   1.626  0.0819  1.3732 -0.2311
 4652SOL     OW31097   4.467   0.379   2.303 -0.4927  0.3967 -0.0734
 4652SOL    HW131098   4.500   0.458   2.261  0.0033  0.7147  0.8758
 4652SOL    HW231099   4.390   0.354   2.252  0.1021  0.7421 -1.1719
 4653SOL     OW31100   2.462   2.736   7.173  0.3429  0.0676  0.1339
 4653SOL    HW131101   2.541   2.717   7.225  0.3112  0.1830  0.2234
 4653SOL    HW231102   2.392   2.741   7.238 -0.2865 -2.9567 -0.1757
 4654SOL     OW31103   1.066   1.137   0.089  0.2414 -0.2027  0.4051
 4654SOL    HW131104   1.005   1.085   0.141 -0.9354  0.9204  0.1997
 4654SOL    HW231105   1.051   1.227   0.118 -0.8857  0.5428 -2.2625
 4655SOL     OW31106   5.677   1.668   0.400 -0.3248  0.0357 -0.2500
 4655SOL    HW131107   5.765   1.685   0.431  0.0022 -1.4670 -0.2386
 4655SOL    HW231108   5.622   1.734   0.441  1.0791  2.4103 -1.9754
 4656SOL     OW31109   3.267   5.445   5.828 -0.0039  0.7843  0.2777
 4656SOL    HW131110   3.233   5.440   5.739 -0.7073 -1.4197  0.6052
 4656SOL    HW231111   3.201   5.401   5.881  1.5138 -0.1147  1.5073
 4657SOL     OW31112   3.516   2.207   2.250 -0.0367  0.6111  0.0077
 4657SOL    HW131113   3.512   2.138   2.184 -1.3924  1.1054 -0.4601
 4657SOL    HW231114   3.526   2.161   2.333 -0.5352 -0.1304 -0.3349
 4658SOL     OW31115   1.545   1.218   6.545 -0.2567  0.1248 -0.0082
 4658SOL    HW131116   1.476   1.193   6.483  1.0959 -0.2273 -1.4242
 4658SOL    HW231117   1.528   1.164   6.622 -0.4527 -1.3756 -1.0656
 4659SOL     OW31118   5.676   3.919   0.539  0.3323 -0.4070  0.3999
 4659SOL    HW131119   5.648   3.883   0.455 -0.2995 -2.4371  1.4224
 4659SOL    HW231120   5.649   4.010   0.535  1.0100 -0.2204 -1.8810
 4660SOL     OW31121   3.522   6.230   7.665  0.3394  0.1853  0.0224
 4660SOL    HW131122   3.492   6.188   7.584 -0.9303 -0.1113  0.6199
 4660SOL    HW231123   3.444   6.235   7.720  0.7473  2.0998  0.5189
 4661SOL     OW31124   4.254   3.926   5.928 -1.1302  0.1838 -0.7015
 4661SOL    HW131125   4.318   3.863   5.895  0.4789 -0.3269  2.8764
 4661SOL    HW231126   4.272   4.007   5.880  2.5254  0.1191  0.2842
 4662SOL     OW31127   5.352   2.280   7.587 -0.4931  0.0380  0.2436
 4662SOL    HW131128   5.443   2.265   7.559 -0.8520  0.3717 -1.1762
 4662SOL    HW231129   5.339   2.218   7.659  0.3381 -1.2325 -0.6419
 4663SOL     OW31130   1.812   2.135   6.389  0.2873 -0.8848 -0.4698
 4663SOL    HW131131   1.850   2.096   6.310 -0.0064 -0.9209 -0.5940
 4663SOL    HW231132   1.718   2.119   6.381 -0.0411  1.1391 -1.2414
 4664SOL     OW31133   5.788   5.613   5.361  0.0821  1.1114 -0.3920
 4664SOL    HW131134   5.728   5.682   5.390 -2.1934 -1.3932  1.4128
 4664SOL    HW231135   5.757   5.589   5.274  0.5788  2.0177 -0.8259
 4665SOL     OW31136   4.390   0.014   0.068 -0.4569 -0.6016  0.3231
 4665SOL    HW131137   4.376   0.061   0.150 -2.7645  1.1168 -0.9196
 4665SOL    HW231138   4.342  -0.069   0.080 -0.0766 -0.7351  0.9835
 4666SOL     OW31139   4.488   1.326   1.244 -0.0204 -0.0766 -0.0794
 4666SOL    HW131140   4.527   1.261   1.302  0.6936  0.1522 -0.2936
 4666SOL    HW231141   4.562   1.373   1.207 -0.5254  1.0358  0.2725
 4667SOL     OW31142   4.292   5.413   6.183  0.1054  0.5045  0.3079
 4667SOL    HW131143   4.290   5.339   6.124  1.7399  1.2269 -0.7335
 4667SOL    HW231144   4.381   5.414   6.217 -0.1822  1.4001  1.0879
 4668SOL     OW31145   1.463   2.002   2.121  0.7322  0.0748 -0.9229
 4668SOL    HW131146   1.421   2.000   2.035  0.4304 -3.9333 -0.8528
 4668SOL    HW231147   1.391   1.989   2.183  1.3162 -0.3735 -0.3286
 4669SOL     OW31148   0.891   3.924   6.223  0.8137  0.0980  0.2537
 4669SOL    HW131149   0.986   3.917   6.233  0.7727 -0.0322  0.5626
 4669SOL    HW231150   0.872   3.879   6.140  1.1191  0.9166 -0.2757
 4670SOL     OW31151   2.902   4.132   0.512 -0.1873  0.0041 -0.1762
 4670SOL    HW131152   2.937   4.220   0.498  1.3842 -0.5256  0.2429
 4670SOL    HW231153   2.968   4.074   0.474 -0.9583 -1.0180  0.0101
 4671SOL     OW31154   1.092   5.446   6.986  0.0027  0.3421 -0.0475
 4671SOL    HW131155   1.151   5.516   6.959  0.2861  0.3850  0.6478
 4671SOL    HW231156   1.142   5.366   6.972  0.5597  0.4194  1.2796
 4672SOL     OW31157   1.485   2.063   6.457  0.7091  0.1403 -0.2508
 4672SOL    HW131158   1.410   2.004   6.471  0.4126  0.5682 -0.0156
 4672SOL    HW231159   1.505   2.097   6.544  1.6001 -0.4649 -0.2064
 4673SOL     OW31160   2.125   4.559   7.443  0.5920  0.4487  1.1677
 4673SOL    HW131161   2.085   4.628   7.391  2.0733  0.4583 -0.0384
 4673SOL    HW231162   2.052   4.501   7.466 -0.4025  1.4803  0.7177
 4674SOL     OW31163   5.969   2.021   5.733  0.3056 -0.2321  0.1077
 4674SOL    HW131164   5.937   1.962   5.802  3.0311 -1.2873  0.5896
 4674SOL    HW231165   5.971   2.107   5.775 -0.7591 -0.3375  0.4103
 4675SOL     OW31166   6.077   3.986   0.676  0.5156  0.4406 -0.0965
 4675SOL    HW131167   6.018   3.964   0.749  0.4196  0.6495 -0.1121
 4675SOL    HW231168   6.160   4.006   0.718  0.4659  0.5403 -0.0445
 4676SOL     OW31169   0.876   3.781   1.496 -0.4460  0.5927 -0.0889
 4676SOL    HW131170   0.824   3.749   1.570 -2.3373  1.1577 -1.1170
 4676SOL    HW231171   0.923   3.857   1.532 -0.9757  0.5854  0.6414
 4677SOL     OW31172   3.007   1.613   6.055  0.2174 -0.5939 -0.0508
 4677SOL    HW131173   3.031   1.526   6.023  1.4905 -0.5324  0.6596
 4677SOL    HW231174   2.976   1.659   5.977  0.1297 -1.4732 -0.5529
 4678SOL     OW31175   4.777   2.210   6.241 -0.1110 -0.4657 -0.1054
 4678SOL    HW131176   4.792   2.165   6.324 -0.0046  1.7906  1.1794
 4678SOL    HW231177   4.829   2.161   6.177  0.0925 -2.0382  1.1868
 4679SOL     OW31178   1.156   3.619   7.595  0.2328  0.2387  0.4979
 4679SOL    HW131179   1.163   3.627   7.500  1.1225 -0.6519  0.4770
 4679SOL    HW231180   1.063   3.607   7.612 -0.2314  2.5005 -0.0716
 4680SOL     OW31181   4.187   2.020   6.181 -0.0698  0.4689  1.0153
 4680SOL    HW131182   4.198   1.929   6.156  0.6705  0.7733  0.1910
 4680SOL    HW231183   4.275   2.058   6.174 -0.4714  1.3821  0.7864
 4681SOL     OW31184   5.540   3.900   0.068 -0.1370  0.5218  0.7450
 4681SOL    HW131185   5.595   3.890  -0.010  0.7354  0.9987  1.2817
 4681SOL    HW231186   5.480   3.971   0.047 -1.3590 -0.7494 -0.2806
 4682SOL     OW31187   5.290   3.583   0.922  0.2721  0.3780  0.4290
 4682SOL    HW131188   5.232   3.571   0.846 -0.0646  0.7151  0.6258
 4682SOL    HW231189   5.272   3.508   0.978  0.6162  0.0598  0.1137
 4683SOL     OW31190   1.460   2.008   0.466 -0.1234 -0.6376 -0.0888
 4683SOL    HW131191   1.391   2.001   0.531 -0.8736 -0.6384 -0.8677
 4683SOL    HW231192   1.508   2.087   0.491 -0.7058 -0.3609  0.1834
 4684SOL     OW31193   1.735   4.171   6.246  0.0964  0.7142  0.0305
 4684SOL    HW131194   1.680   4.094   6.231  0.3501  0.6569 -0.6391
 4684SOL    HW231195   1.682   4.227   6.303 -0.7792  0.7869 -0.8374
 4685SOL     OW31196   2.162   2.839   6.121  0.0394  0.5518  0.7664
 4685SOL    HW131197   2.080   2.793   6.104  0.8778 -1.0005  0.7314
 4685SOL    HW231198   2.181   2.885   6.039 -0.3001  0.1159  0.4409
 4686SOL     OW31199   4.313   2.036   5.309 -0.2890  0.2368  0.3506
 4686SOL    HW131200   4.228   2.077   5.321 -0.4102  0.0605  0.0971
 4686SOL    HW231201   4.358   2.091   5.245 -0.7514 -0.4522 -0.5998
 4687SOL     OW31202   3.020   0.897   0.254 -0.1611 -0.3240 -0.1992
 4687SOL    HW131203   3.043   0.881   0.346  0.1783  1.7971  0.1268
 4687SOL    HW231204   3.098   0.870   0.205  0.2092 -0.1440  0.2746
 4688SOL     OW31205   3.647   1.433   0.027  0.4620 -0.2823  0.4658
 4688SOL    HW131206   3.563   1.420   0.070 -1.0884  1.0477 -1.9314
 4688SOL    HW231207   3.708   1.453   0.098 -1.8280  1.3247  2.1075
 4689SOL     OW31208   0.440   2.300   6.929  0.1396  0.3618 -0.1505
 4689SOL    HW131209   0.458   2.337   7.015 -1.6441 -1.0127  0.8738
 4689SOL    HW231210   0.434   2.376   6.871  1.6478  1.2887  0.8577
 4690SOL     OW31211   2.421   1.070   2.256 -0.0125 -0.1356 -0.2291
 4690SOL    HW131212   2.435   1.154   2.212 -0.9663 -0.7826 -1.8571
 4690SOL    HW231213   2.329   1.072   2.282 -0.2272 -0.9407 -0.8982
 4691SOL     OW31214   3.367   0.132   0.205  0.4713 -0.0085  0.2715
 4691SOL    HW131215   3.453   0.125   0.247  0.4585 -0.3190  0.2535
 4691SOL    HW231216   3.336   0.041   0.201  0.2293  0.0820  0.0981
 4692SOL     OW31217   0.203   0.663   1.402  0.2106 -0.0015 -0.1637
 4692SOL    HW131218   0.215   0.728   1.471 -1.5736 -0.5294  0.7000
 4692SOL    HW231219   0.202   0.714   1.321 -0.4560  0.9782  0.4391
 4693SOL     OW31220   2.571   4.049   7.523  0.1121 -0.4033  0.5309
 4693SOL    HW131221   2.491   4.046   7.470  0.8035  2.5124 -0.8920
 4693SOL    HW231222   2.549   4.108   7.595  0.6235 -0.5759  0.8288
 4694SOL     OW31223   5.479   3.990   1.148  0.2909 -0.4313 -0.4214
 4694SOL    HW131224   5.517   3.987   1.236  1.0519 -1.5413 -0.7629
 4694SOL    HW231225   5.423   4.068   1.148  1.8570  0.7407  0.3838
 4695SOL     OW31226   2.749   5.123   6.969 -0.8336 -0.2421  0.0535
 4695SOL    HW131227   2.737   5.188   6.900 -1.6752 -0.1798  0.2415
 4695SOL    HW231228   2.682   5.057   6.952 -0.0133 -1.0469 -0.1122
 4696SOL     OW31229   0.719   4.682   1.732  0.5513 -0.1809 -0.3377
 4696SOL    HW131230   0.694   4.629   1.807 -0.2333 -0.9376 -1.1132
 4696SOL    HW231231   0.724   4.771   1.766  2.6345 -0.8054  1.1650
 4697SOL     OW31232   2.181   2.356   5.495 -0.1902  0.0834 -0.1489
 4697SOL    HW131233   2.211   2.308   5.417  1.5303  1.9126 -0.7141
 4697SOL    HW231234   2.240   2.327   5.565 -0.8899 -0.5838  0.1780
 4698SOL     OW31235   2.639   2.368   0.025  0.2077 -0.2723 -0.1282
 4698SOL    HW131236   2.732   2.385   0.012 -0.0642  1.2543 -0.2073
 4698SOL    HW231237   2.628   2.365   0.120 -0.2598  3.6244  0.1064
 4699SOL     OW31238   0.835   2.002   2.267 -0.3856 -0.1650 -0.4312
 4699SOL    HW131239   0.890   1.928   2.241 -0.6583 -0.0455 -1.3528
 4699SOL    HW231240   0.865   2.074   2.213 -1.8382 -0.2457 -1.3732
 4700SOL     OW31241   3.012   6.457   1.974 -0.3193  0.3156 -0.0065
 4700SOL    HW131242   2.971   6.445   1.889  2.0037  0.6045 -1.2420
 4700SOL    HW231243   3.040   6.549   1.975  0.2874  0.1356  0.7805
 4701SOL     OW31244   5.030   5.780   0.069 -0.4355  0.6883 -0.0109
 4701SOL    HW131245   5.083   5.722   0.015  0.0369  1.3948 -0.3101
 4701SOL    HW231246   4.940   5.751   0.054 -0.1332 -0.8641  0.9051
 4702SOL     OW31247   5.003   5.910   6.460 -0.0623 -0.5648  0.2069
 4702SOL    HW131248   4.933   5.939   6.402 -1.4106 -1.5519  1.2616
 4702SOL    HW231249   5.075   5.971   6.444 -0.7481 -0.1908 -1.7200
 4703SOL     OW31250   4.429   4.517   6.468  0.2633  0.6795 -0.2859
 4703SOL    HW131251   4.422   4.539   6.561 -0.9540  0.3613 -0.2845
 4703SOL    HW231252   4.441   4.422   6.467  0.3399  0.6909 -0.4523
 4704SOL     OW31253   0.002   4.057   6.556  0.2494  0.1668  0.3829
 4704SOL    HW131254   0.062   4.088   6.488 -0.4370 -1.1566 -0.8858
 4704SOL    HW231255   0.057   4.047   6.633  1.3517  0.3977 -0.3449
 4705SOL     OW31256   4.955   2.929   7.524  0.2596  0.0471  0.3154
 4705SOL    HW131257   4.976   3.009   7.476 -0.6396 -1.2249 -2.3820
 4705SOL    HW231258   5.039   2.891   7.546  0.6925  1.3144  0.9870
 4706SOL     OW31259   6.220   4.091   0.071 -0.0410 -0.0910  0.5698
 4706SOL    HW131260   6.191   4.028   0.137  1.2373  0.0745  1.3322
 4706SOL    HW231261   6.215   4.176   0.114  0.0316  0.1099  0.1864
 4707SOL     OW31262   0.457   4.981   7.082  0.3029 -0.5978  0.5739
 4707SOL    HW131263   0.506   5.013   7.005  1.7470 -0.2572  1.5821
 4707SOL    HW231264   0.504   5.019   7.157 -1.1957 -0.7447  1.6270
 4708SOL     OW31265   2.703   2.657   1.350 -0.0957  0.1872  0.6535
 4708SOL    HW131266   2.797   2.659   1.364 -0.0515  1.8052  0.2884
 4708SOL    HW231267   2.667   2.620   1.431  0.9493 -2.7262 -0.0853
 4709SOL     OW31268   1.015   3.147   7.078  0.1324 -0.7457 -0.6246
 4709SOL    HW131269   1.059   3.118   7.158  0.9766  0.3381 -0.6770
 4709SOL    HW231270   1.003   3.241   7.091 -0.2187 -0.6590 -1.5469
 4710SOL     OW31271   3.545   1.985   5.858  0.1684 -0.1365  0.4280
 4710SOL    HW131272   3.485   2.027   5.921  2.6149  1.3391  1.9865
 4710SOL    HW231273   3.554   2.049   5.788 -1.1515 -0.9961 -0.5601
 4711SOL     OW31274   4.866   0.742   1.096  0.5497 -0.0712 -0.3817
 4711SOL    HW131275   4.870   0.813   1.032 -2.4086  1.0085  0.4533
 4711SOL    HW231276   4.895   0.782   1.178 -1.7814  0.5178  0.2456
 4712SOL     OW31277   3.380   1.710   5.925 -0.6557  0.3936 -0.1908
 4712SOL    HW131278   3.322   1.733   5.853  1.1590  1.4163 -1.4069
 4712SOL    HW231279   3.373   1.783   5.986 -1.7399 -0.1899  0.4064
 4713SOL     OW31280   4.818   3.310   0.562  0.4347  0.0340  0.1343
 4713SOL    HW131281   4.778   3.229   0.591 -0.1721 -0.5077 -2.0125
 4713SOL    HW231282   4.899   3.283   0.520  1.4907  0.8210  1.5789
 4714SOL     OW31283   1.851   0.976   1.320  0.0400 -0.0209 -0.0460
 4714SOL    HW131284   1.787   1.013   1.260 -0.4717  0.4315  0.7544
 4714SOL    HW231285   1.859   0.884   1.293  0.9013  0.5004 -1.6958
 4715SOL     OW31286   5.376   0.555   1.768 -0.1161 -0.2745 -0.4668
 4715SOL    HW131287   5.304   0.516   1.817 -0.1948 -0.6161 -0.8446
 4715SOL    HW231288   5.335   0.623   1.714  0.0659  0.5668  0.4263
 4716SOL     OW31289   4.438   2.258   7.545  0.1480  0.2786 -0.2912
 4716SOL    HW131290   4.496   2.321   7.503  0.2904  0.8351  0.6994
 4716SOL    HW231291   4.463   2.261   7.638  0.4365 -1.5284 -0.2556
 4717SOL     OW31292   5.859   2.905   7.342  0.5529 -0.0659 -0.5610
 4717SOL    HW131293   5.881   2.854   7.264  1.1528 -0.9460  0.1731
 4717SOL    HW231294   5.766   2.886   7.358  0.7195 -0.7697 -0.4087
 4718SOL     OW31295   2.525   0.292   0.182  0.2737  0.2533  0.3839
 4718SOL    HW131296   2.438   0.253   0.190  0.3106  0.2348  0.7209
 4718SOL    HW231297   2.514   0.364   0.120 -0.2547  1.0137  1.3132
 4719SOL     OW31298   1.384   5.000   0.331 -0.2693 -0.2546 -0.2102
 4719SOL    HW131299   1.374   4.912   0.369  0.0728  0.4613  1.6793
 4719SOL    HW231300   1.424   4.986   0.246 -0.3412 -1.9464  0.0091
 4720SOL     OW31301   2.092   6.468   0.951 -0.0248 -0.2787 -0.5050
 4720SOL    HW131302   2.119   6.560   0.947  0.5115 -0.2832  1.6494
 4720SOL    HW231303   2.012   6.464   0.899  0.0369  1.3688 -0.7823
 4721SOL     OW31304   2.375   0.152   5.653 -0.0622  0.4468 -0.0538
 4721SOL    HW131305   2.342   0.235   5.687 -0.6748 -0.1625  0.8587
 4721SOL    HW231306   2.298   0.098   5.641  0.4992 -0.9344  1.9414
 4722SOL     OW31307   1.625   3.970   0.833  0.2259  0.1325 -0.1372
 4722SOL    HW131308   1.637   4.042   0.771  0.3349 -0.9495 -1.4259
 4722SOL    HW231309   1.544   3.991   0.880 -0.6658  0.2826 -1.6785
 4723SOL     OW31310   4.177   2.741   0.523  0.1866  0.0314  0.0170
 4723SOL    HW131311   4.176   2.716   0.616 -1.5930  1.5413  0.4657
 4723SOL    HW231312   4.246   2.686   0.485  0.3241 -1.3229  2.0175
 4724SOL     OW31313   2.998   2.911   0.466 -0.1400  0.0156  0.0387
 4724SOL    HW131314   3.093   2.900   0.476  0.1049  0.3547 -1.6032
 4724SOL    HW231315   2.977   2.989   0.517  0.5663  0.2562 -0.0260
 4725SOL     OW31316   6.224   5.089   1.750 -0.6956  0.0096 -0.6425
 4725SOL    HW131317   6.133   5.097   1.780 -0.6983  0.7818 -0.8306
 4725SOL    HW231318   6.223   5.016   1.689 -0.5815 -2.0455  1.6510
 4726SOL     OW31319   6.282   2.243   6.693  0.1111  0.0990 -0.4245
 4726SOL    HW131320   6.286   2.147   6.697 -1.9585  0.0111  2.5411
 4726SOL    HW231321   6.353   2.272   6.750  0.3169  0.3623 -0.8058
 4727SOL     OW31322   0.296   4.684   7.154 -0.5358 -0.1867  0.1155
 4727SOL    HW131323   0.342   4.758   7.195  0.9222 -0.9112 -0.1624
 4727SOL    HW231324   0.224   4.725   7.107  0.5372  1.1419 -0.4568
 4728SOL     OW31325   0.660   1.810   6.574 -0.1033  0.5584  0.2364
 4728SOL    HW131326   0.707   1.846   6.649  1.7916  0.0020 -0.6180
 4728SOL    HW231327   0.568   1.827   6.592  0.2796  0.2040  2.8055
 4729SOL     OW31328   2.218   6.129   5.553 -0.0049 -0.3519 -0.2020
 4729SOL    HW131329   2.270   6.083   5.487  1.4014 -0.4589  0.9364
 4729SOL    HW231330   2.261   6.108   5.636 -0.3680  1.5996  0.5240
 4730SOL     OW31331   5.277   1.374   6.530 -0.1678 -0.0421  0.1567
 4730SOL    HW131332   5.357   1.392   6.481 -0.0862 -1.0064 -0.0841
 4730SOL    HW231333   5.266   1.451   6.586  1.2242 -0.1204  0.5826
 4731SOL     OW31334   0.871   0.130   1.430  0.3951 -0.3435  0.0635
 4731SOL    HW131335   0.856   0.194   1.359  0.5328 -0.3906 -0.0098
 4731SOL    HW231336   0.961   0.099   1.415 -0.5946 -2.6761 -1.6174
 4732SOL     OW31337   4.825   5.951   6.689 -0.5440 -0.7115  0.3129
 4732SOL    HW131338   4.887   5.933   6.618  0.6046  2.0899  0.5064
 4732SOL    HW231339   4.739   5.947   6.647 -0.0188 -0.9751 -0.7860
 4733SOL     OW31340   3.094   1.833   0.892  0.4472  0.1742  0.0963
 4733SOL    HW131341   3.151   1.759   0.870  0.9066  0.7737 -0.7940
 4733SOL    HW231342   3.087   1.883   0.811 -0.2201  0.8719  0.5702
 4734SOL     OW31343   2.209   6.225   7.357  0.6294 -0.2020 -0.0563
 4734SOL    HW131344   2.129   6.196   7.314  0.5960 -1.3161  0.7250
 4734SOL    HW231345   2.207   6.183   7.443  1.8072  0.1548  0.1663
 4735SOL     OW31346   0.177   5.773   0.431  0.0345  0.2255  0.1120
 4735SOL    HW131347   0.136   5.810   0.509  0.1846 -0.0743  0.3345
 4735SOL    HW231348   0.197   5.683   0.454 -0.1017  0.0749 -0.3450
 4736SOL     OW31349   0.428   4.551   1.214 -0.3289  0.2184 -0.4470
 4736SOL    HW131350   0.412   4.540   1.120 -0.4426 -1.1814 -0.2885
 4736SOL    HW231351   0.439   4.462   1.247 -1.1344  0.6237  1.0174
 4737SOL     OW31352   1.413   3.601   0.109 -0.6188  0.1878  0.4056
 4737SOL    HW131353   1.382   3.574   0.196 -0.6646 -0.1887  0.2748
 4737SOL    HW231354   1.507   3.582   0.111 -0.9299 -1.5739 -0.2643
 4738SOL     OW31355   1.093   4.656   5.874  0.1162  0.8279 -0.2310
 4738SOL    HW131356   1.163   4.661   5.938  0.6885  2.0626 -0.9062
 4738SOL    HW231357   1.125   4.595   5.807 -1.3082 -2.0662  1.5417
 4739SOL     OW31358   1.624   5.046   1.129 -0.2242 -0.4932 -0.5775
 4739SOL    HW131359   1.656   5.123   1.177 -0.2107 -0.6384 -0.3534
 4739SOL    HW231360   1.530   5.060   1.120 -0.5254 -1.2804  1.0018
 4740SOL     OW31361   4.175   5.725   0.421  0.0451  0.1834  0.8011
 4740SOL    HW131362   4.188   5.803   0.475  0.5355  0.4815  0.2719
 4740SOL    HW231363   4.211   5.653   0.473 -0.9651  0.2048  1.5503
 4741SOL     OW31364   5.943   0.090   5.944  0.1702 -0.3797  0.6474
 4741SOL    HW131365   5.961   0.010   5.992 -0.3887 -0.2607  1.0746
 4741SOL    HW231366   6.004   0.154   5.980  1.0990 -0.7830 -0.1876
 4742SOL     OW31367   0.598   2.294   1.919 -0.1712 -0.3574  0.5066
 4742SOL    HW131368   0.627   2.382   1.940  0.0999 -0.2056 -0.4638
 4742SOL    HW231369   0.514   2.285   1.965 -0.7498  0.8100 -0.2590
 4743SOL     OW31370   6.126   5.850   0.583 -0.0281  0.2201 -0.0238
 4743SOL    HW131371   6.126   5.778   0.519  2.4479 -1.3742  1.5946
 4743SOL    HW231372   6.171   5.922   0.539 -1.2660  0.3362 -1.1653
 4744SOL     OW31373   4.226   5.023   6.585 -0.1060  0.0353  0.4078
 4744SOL    HW131374   4.192   5.078   6.514 -2.5915 -1.1580  0.5748
 4744SOL    HW231375   4.186   5.059   6.664  0.4560 -0.3283  0.8653
 4745SOL     OW31376   3.472   3.808   0.688 -0.4144  0.1850  0.1696
 4745SOL    HW131377   3.412   3.864   0.639  1.0534  1.5591 -0.1337
 4745SOL    HW231378   3.544   3.866   0.711  1.7264 -1.8207 -1.1244
 4746SOL     OW31379   1.861   3.153   0.846  0.6300 -0.1758 -0.3190
 4746SOL    HW131380   1.950   3.133   0.816  0.6087  1.5133 -1.6149
 4746SOL    HW231381   1.820   3.198   0.772 -0.7608  0.5550  0.8553
 4747SOL     OW31382   0.027   6.440   7.474 -0.1706 -0.3529 -0.0402
 4747SOL    HW131383   0.079   6.443   7.554 -0.5643 -0.6050  0.2229
 4747SOL    HW231384   0.053   6.358   7.432 -0.6370 -0.6627  0.2781
 4748SOL     OW31385   3.582   3.677   6.390 -0.4365  0.2385 -0.2940
 4748SOL    HW131386   3.616   3.758   6.430 -0.7583 -0.1187  0.7379
 4748SOL    HW231387   3.623   3.607   6.439  0.4342 -0.2633 -1.6898
 4749SOL     OW31388   3.493   1.141   1.869 -0.4992 -0.1014 -0.0744
 4749SOL    HW131389   3.461   1.051   1.865 -1.1977  0.0752  1.0776
 4749SOL    HW231390   3.583   1.136   1.835 -0.0311 -1.5002  1.2586
 4750SOL     OW31391   6.000   2.340   6.219  0.2079 -0.3733 -0.0322
 4750SOL    HW131392   5.937   2.285   6.172 -0.4386  0.1039  0.2504
 4750SOL    HW231393   6.056   2.376   6.150  1.6920 -2.6018 -0.1015
 4751SOL     OW31394   0.063   0.189   7.702  0.3985 -0.4366 -0.2703
 4751SOL    HW131395   0.052   0.177   7.796  2.0585 -0.1579  0.0003
 4751SOL    HW231396  -0.026   0.191   7.667 -0.2348 -3.3086  0.9118
 4752SOL     OW31397   0.895   3.818   5.112  0.4719 -0.2752 -0.4705
 4752SOL    HW131398   0.870   3.868   5.190 -0.7043 -0.8764 -0.4395
 4752SOL    HW231399   0.985   3.791   5.128  1.0057  1.4680 -0.3113
 4753SOL     OW31400   4.225   2.506   1.434  0.9016 -0.2882  0.1371
 4753SOL    HW131401   4.278   2.427   1.426  0.2169 -0.6901 -0.6340
 4753SOL    HW231402   4.199   2.527   1.344  0.8070  0.6283  0.3652
 4754SOL     OW31403   5.956   3.197   6.264 -0.1557 -0.3790  0.3536
 4754SOL    HW131404   5.892   3.156   6.206  0.9567 -1.3525 -0.2191
 4754SOL    HW231405   6.037   3.199   6.213  0.4164  0.3313  1.2570
 4755SOL     OW31406   0.772   2.582   2.336  0.4424 -0.3998 -0.3585
 4755SOL    HW131407   0.768   2.615   2.426 -0.0204  0.9002 -0.8421
 4755SOL    HW231408   0.864   2.558   2.324  0.7152  0.3857  0.1263
 4756SOL     OW31409   2.949   5.890   6.311  0.0090 -1.1171  0.0791
 4756SOL    HW131410   2.936   5.951   6.238  0.7101 -1.5961 -0.4606
 4756SOL    HW231411   2.999   5.940   6.376 -2.1558 -0.0921  1.0598
 4757SOL     OW31412   5.642   5.428   1.462 -0.7216  0.3669 -0.1744
 4757SOL    HW131413   5.616   5.484   1.535 -0.8171 -0.5543  0.5089
 4757SOL    HW231414   5.582   5.354   1.466 -0.0423 -0.2104 -0.5368
 4758SOL     OW31415   0.723   6.321   7.171  0.0365  0.3790 -0.4447
 4758SOL    HW131416   0.801   6.361   7.209  0.0162  0.6145 -0.6546
 4758SOL    HW231417   0.716   6.236   7.216  0.9913 -0.0927 -1.1438
 4759SOL     OW31418   2.899   3.857   7.045 -0.1790 -0.1668 -0.5798
 4759SOL    HW131419   2.948   3.939   7.035  0.0068 -0.0080  1.2020
 4759SOL    HW231420   2.831   3.878   7.109 -1.2383 -0.9631 -1.4125
 4760SOL     OW31421   2.546   4.921   6.964  0.0982 -0.0013 -0.5271
 4760SOL    HW131422   2.486   4.873   7.022 -0.3746  0.5971 -0.5157
 4760SOL    HW231423   2.512   4.905   6.876  0.6593 -0.6871 -0.6282
 4761SOL     OW31424   4.565   4.006   0.694 -0.0893 -0.4223  0.7358
 4761SOL    HW131425   4.616   3.937   0.737 -0.7015 -0.9299  0.6513
 4761SOL    HW231426   4.612   4.023   0.613 -0.5423 -1.5306  0.2255
 4762SOL     OW31427   0.907   1.950   6.165  0.3982 -0.0735  0.4137
 4762SOL    HW131428   0.876   1.946   6.075  0.0313  0.1856  0.5256
 4762SOL    HW231429   0.999   1.922   6.161  0.2606 -0.4600  0.0220
 4763SOL     OW31430   3.768   2.198   2.504  0.4408  0.3186  0.0923
 4763SOL    HW131431   3.715   2.125   2.471  0.7510 -0.3891  1.1232
 4763SOL    HW231432   3.858   2.174   2.484  0.4110  2.2650 -3.1597
 4764SOL     OW31433   4.733   3.269   0.154  0.3784 -0.2146  0.2681
 4764SOL    HW131434   4.810   3.310   0.194  2.8734 -1.1808 -3.1291
 4764SOL    HW231435   4.732   3.180   0.188  0.0973  0.0835  1.0749
 4765SOL     OW31436   3.140   1.741   6.537  0.2668 -0.0440 -0.4127
 4765SOL    HW131437   3.213   1.751   6.476  0.8061 -2.8126 -0.3809
 4765SOL    HW231438   3.069   1.708   6.483  0.1844 -0.7780  0.1291
 4766SOL     OW31439   2.564   3.196   7.528 -0.2335 -0.0456  0.6369
 4766SOL    HW131440   2.605   3.117   7.493 -1.5740 -1.4211  2.0256
 4766SOL    HW231441   2.598   3.267   7.473  0.0326 -1.7145 -1.4817
 4767SOL     OW31442   0.080   2.493   5.599  0.0319 -0.0657 -0.6821
 4767SOL    HW131443   0.066   2.423   5.663 -2.4222  2.0058  1.3124
 4767SOL    HW231444   0.013   2.479   5.532 -0.2920  0.2074 -0.4189
 4768SOL     OW31445   2.852   4.378   2.321  0.0358 -0.5141  0.5519
 4768SOL    HW131446   2.786   4.331   2.269  0.1114  0.2777 -0.2752
 4768SOL    HW231447   2.935   4.356   2.279 -0.0097  1.1187 -0.4653
 4769SOL     OW31448   1.683   3.322   6.466 -0.3480 -0.2677  0.0003
 4769SOL    HW131449   1.603   3.292   6.422 -0.8168  0.2927  0.4540
 4769SOL    HW231450   1.662   3.318   6.559 -0.2949  1.0694  0.0920
 4770SOL     OW31451   2.041   3.647   1.435  0.7432 -0.6243 -0.0031
 4770SOL    HW131452   2.014   3.717   1.375  1.3412  0.6069  1.0996
 4770SOL    HW231453   1.960   3.600   1.455  0.1319  0.4134  0.0395
 4771SOL     OW31454   5.442   3.735   1.710  0.2705  0.2023 -0.1593
 4771SOL    HW131455   5.535   3.756   1.715  0.5518 -0.5354 -1.6410
 4771SOL    HW231456   5.435   3.673   1.637 -1.5168  1.1316 -0.8567
 4772SOL     OW31457   0.039   2.673   7.364  0.1178  0.3776  0.0705
 4772SOL    HW131458  -0.042   2.722   7.354 -0.6191 -0.9626 -0.9858
 4772SOL    HW231459   0.010   2.583   7.381  1.2996 -0.5178 -2.2062
 4773SOL     OW31460   0.876   4.099   7.101  0.2229 -0.3770  0.1786
 4773SOL    HW131461   0.889   4.123   7.009 -1.1128 -0.3231 -0.0153
 4773SOL    HW231462   0.781   4.104   7.114  0.3363 -1.0188  1.3917
 4774SOL     OW31463   6.356   4.884   6.744  0.2758  0.5473  0.1053
 4774SOL    HW131464   6.319   4.910   6.828  0.2262  0.2448  0.1785
 4774SOL    HW231465   6.324   4.794   6.730  0.2794  0.5956 -0.2374
 4775SOL     OW31466   2.573   3.070   0.695  0.0507  0.7062 -0.4107
 4775SOL    HW131467   2.501   3.023   0.652  0.6446  0.1815 -0.8485
 4775SOL    HW231468   2.548   3.074   0.787  0.2065 -0.9192 -0.2717
 4776SOL     OW31469   2.314   4.014   1.485 -0.1105 -0.1305 -0.2739
 4776SOL    HW131470   2.254   4.079   1.523  0.2813 -0.2132  0.5025
 4776SOL    HW231471   2.388   4.066   1.454  0.2954 -0.2183  0.5311
 4777SOL     OW31472   2.401   0.986   5.478  0.4707 -0.6782 -0.0873
 4777SOL    HW131473   2.420   0.893   5.487 -1.1960 -1.1106 -0.6946
 4777SOL    HW231474   2.369   1.012   5.564  0.8876 -0.6664  0.0679
 4778SOL     OW31475   6.119   3.910   7.635 -0.3101  0.2769  0.6266
 4778SOL    HW131476   6.165   3.989   7.663  0.4935 -0.0150  0.1654
 4778SOL    HW231477   6.188   3.852   7.603 -1.0423 -0.0132 -0.4745
 4779SOL     OW31478   6.258   1.349   1.404  0.5283  0.6141  0.0118
 4779SOL    HW131479   6.241   1.434   1.364 -1.3019 -0.2978 -1.3296
 4779SOL    HW231480   6.339   1.361   1.453  2.8987  1.9086 -3.7911
 4780SOL     OW31481   1.703   1.484   0.944  0.2427  0.4648 -0.3620
 4780SOL    HW131482   1.645   1.414   0.974 -0.4344  1.1684  0.0228
 4780SOL    HW231483   1.783   1.440   0.916  0.7539 -0.2915  2.0543
 4781SOL     OW31484   4.697   2.932   0.899  0.2178  0.0837  0.3965
 4781SOL    HW131485   4.638   3.007   0.909  0.4252  0.4104 -0.7410
 4781SOL    HW231486   4.673   2.873   0.971  1.6971  2.3024  2.8982
 4782SOL     OW31487   3.085   4.240   1.557 -0.4258 -0.2687  0.1669
 4782SOL    HW131488   3.172   4.227   1.518 -0.6671  0.6369 -0.7236
 4782SOL    HW231489   3.070   4.161   1.608  1.0857 -0.2840  0.6604
 4783SOL     OW31490   0.031   1.547   0.748  0.4922  0.4062 -0.0081
 4783SOL    HW131491   0.081   1.582   0.822 -0.1910  0.9263  0.2200
 4783SOL    HW231492   0.096   1.506   0.692  0.8306 -2.2118  2.0779
 4784SOL     OW31493   2.390   5.292   2.223 -0.1789 -1.2570 -0.0937
 4784SOL    HW131494   2.334   5.299   2.146  1.2144 -0.2450 -1.0814
 4784SOL    HW231495   2.364   5.366   2.279  1.0580  0.0782 -1.2089
 4785SOL     OW31496   3.075   5.384   6.466 -0.2557 -0.0556 -0.2106
 4785SOL    HW131497   3.094   5.416   6.378 -0.6590  1.0480  0.0961
 4785SOL    HW231498   2.994   5.427   6.491  1.7609  2.7888  2.2029
 4786SOL     OW31499   2.153   5.853   7.588 -0.1053 -0.1163 -0.5759
 4786SOL    HW131500   2.180   5.845   7.496 -1.6266  0.1686 -1.0751
 4786SOL    HW231501   2.126   5.765   7.612 -0.3735 -0.0484 -0.6264
 4787SOL     OW31502   3.331   5.752   1.342 -0.3593  0.0408 -0.4200
 4787SOL    HW131503   3.286   5.836   1.343 -0.9328 -0.2233 -1.6937
 4787SOL    HW231504   3.286   5.700   1.409  0.6066  1.0121  1.0469
 4788SOL     OW31505   3.979   4.692   1.660 -0.2140 -0.3760 -0.0542
 4788SOL    HW131506   4.070   4.674   1.684  0.3710  1.8430 -0.3968
 4788SOL    HW231507   3.939   4.723   1.741 -0.2366  0.0803 -0.2355
 4789SOL     OW31508   5.161   3.824   1.340  0.2345 -0.7283 -0.0969
 4789SOL    HW131509   5.102   3.800   1.411  1.9276 -0.4493  1.4757
 4789SOL    HW231510   5.191   3.912   1.363  1.8404 -1.1661 -0.4243
 4790SOL     OW31511   4.294   4.498   7.143  0.3876 -0.2620 -0.0489
 4790SOL    HW131512   4.227   4.524   7.206  0.2585  1.6975 -0.9205
 4790SOL    HW231513   4.370   4.474   7.196 -0.9779 -2.6533  0.9643
 4791SOL     OW31514   2.913   4.691   6.641  0.4466 -0.1775  0.4780
 4791SOL    HW131515   2.825   4.711   6.674  0.6352  0.5958  0.5420
 4791SOL    HW231516   2.924   4.597   6.658 -0.1851 -0.1868  0.8960
 4792SOL     OW31517   2.528   5.250   1.738 -0.4780  0.5135  0.4824
 4792SOL    HW131518   2.461   5.182   1.726 -1.0407  0.8856  1.3767
 4792SOL    HW231519   2.517   5.278   1.829  0.3400  1.1792  0.3879
 4793SOL     OW31520   4.675   5.459   6.540  0.2032 -0.2096  0.1439
 4793SOL    HW131521   4.661   5.508   6.458 -0.0001 -0.3265  0.1075
 4793SOL    HW231522   4.702   5.526   6.603 -1.3184  0.1615  0.4336
 4794SOL     OW31523   5.283   6.467   0.052 -0.1492 -0.5624  0.1989
 4794SOL    HW131524   5.231   6.524   0.109  2.8046  1.5072  1.0668
 4794SOL    HW231525   5.225   6.447  -0.021 -1.5408  3.4197 -0.0297
 4795SOL     OW31526   3.527   6.058   0.920 -0.3018  0.1751  0.2103
 4795SOL    HW131527   3.549   6.045   1.013 -0.6456  1.2180  0.4518
 4795SOL    HW231528   3.553   6.149   0.902 -1.4997  0.4271 -0.3361
 4796SOL     OW31529   4.701   2.120   5.330  0.8277 -0.0164  0.4532
 4796SOL    HW131530   4.643   2.110   5.405  1.7646  0.4238  1.2658
 4796SOL    HW231531   4.724   2.031   5.305 -2.8326 -0.4559 -2.0981
 4797SOL     OW31532   5.280   2.169   1.417  0.2562  0.6653  0.4115
 4797SOL    HW131533   5.199   2.208   1.383  0.6648  2.5553  1.4787
 4797SOL    HW231534   5.254   2.131   1.501  0.0592 -0.5966 -0.2023
 4798SOL     OW31535   5.936   4.722   7.546  0.2009  0.9693  0.0004
 4798SOL    HW131536   5.865   4.668   7.581  0.2517  0.3433 -0.8240
 4798SOL    HW231537   5.923   4.808   7.584 -1.5176  1.0985 -0.7957
 4799SOL     OW31538   3.269   4.585   7.026 -0.3113 -0.6274 -0.1921
 4799SOL    HW131539   3.348   4.532   7.012  2.5302  2.4517  2.5545
 4799SOL    HW231540   3.249   4.574   7.119  1.1841  3.6897  0.8712
 4800SOL     OW31541   3.446   1.499   6.594  0.1426  0.4466 -0.3373
 4800SOL    HW131542   3.452   1.423   6.535  1.6406 -0.5711  1.0598
 4800SOL    HW231543   3.490   1.569   6.546  0.6033 -0.1356 -0.7856
 4801SOL     OW31544   2.695   4.210   6.167 -0.1038  0.8692  0.6432
 4801SOL    HW131545   2.742   4.185   6.087 -0.3385  1.4270  0.3245
 4801SOL    HW231546   2.665   4.299   6.150 -1.6466  0.3702  0.6631
 4802SOL     OW31547   2.903   2.034   5.565 -0.0478  0.0808 -0.8562
 4802SOL    HW131548   2.919   2.023   5.659 -0.9418 -0.6368 -0.7754
 4802SOL    HW231549   2.964   2.103   5.539 -0.2933  0.8196  0.4031
 4803SOL     OW31550   2.272   0.874   0.132  0.0166 -0.3097  0.3688
 4803SOL    HW131551   2.244   0.964   0.113  0.6217 -0.0243  0.8216
 4803SOL    HW231552   2.193   0.832   0.167 -0.1009  0.2304  0.7698
 4804SOL     OW31553   0.150   1.163   0.999 -0.0855 -0.9297  0.0474
 4804SOL    HW131554   0.150   1.083   1.051 -1.0411  0.0146  1.5694
 4804SOL    HW231555   0.058   1.186   0.990  0.1326 -0.4268 -1.0955
 4805SOL     OW31556   1.662   5.955   1.588  0.0734  0.6057 -0.1825
 4805SOL    HW131557   1.598   5.979   1.656 -1.4020  0.2730 -1.3874
 4805SOL    HW231558   1.710   5.881   1.625 -0.3897  0.7110  0.6617
 4806SOL     OW31559   2.039   2.088   7.246 -0.2426  0.1997 -0.0448
 4806SOL    HW131560   2.127   2.080   7.282  0.1699 -0.2534 -1.1224
 4806SOL    HW231561   2.012   2.178   7.267  0.5987  0.4421  0.0202
 4807SOL     OW31562   0.214   2.190   6.688  0.3896  0.3312 -0.1109
 4807SOL    HW131563   0.152   2.137   6.739  2.4491 -1.5423  0.6314
 4807SOL    HW231564   0.216   2.274   6.733 -1.2132  0.2717  0.1377
 4808SOL     OW31565   5.762   0.055   6.537  0.0309  0.0948 -0.2604
 4808SOL    HW131566   5.702  -0.011   6.503 -1.2988  1.6052 -1.0130
 4808SOL    HW231567   5.794   0.100   6.459  0.3148  0.8225  0.2680
 4809SOL     OW31568   4.993   3.816   1.548  0.5847  0.4657 -0.2640
 4809SOL    HW131569   4.990   3.730   1.591 -2.8587  0.6434  0.0687
 4809SOL    HW231570   5.011   3.877   1.619  0.1243  0.2690  0.0296
 4810SOL     OW31571   1.350   4.676   6.954  0.6007  0.0152 -0.5957
 4810SOL    HW131572   1.289   4.715   6.892  0.7000  0.1923 -0.5846
 4810SOL    HW231573   1.344   4.733   7.031  1.7221  0.7985 -1.0539
 4811SOL     OW31574   1.356   4.021   0.613  0.4260 -0.3963  0.1083
 4811SOL    HW131575   1.275   3.977   0.638 -1.8834  3.6429  0.5831
 4811SOL    HW231576   1.370   3.995   0.522  0.0762 -3.0426  0.7172
 4812SOL     OW31577   3.927   3.653   1.402 -0.2429  0.3744 -0.3070
 4812SOL    HW131578   4.001   3.711   1.422 -0.6837  0.8218  0.0680
 4812SOL    HW231579   3.968   3.571   1.374  0.4345 -0.0398  1.7078
 4813SOL     OW31580   3.130   5.150   6.212 -0.3471 -0.2924 -0.1984
 4813SOL    HW131581   3.079   5.227   6.187 -0.2926 -0.4833 -0.9303
 4813SOL    HW231582   3.193   5.140   6.141  1.5892  0.6878  1.2727
 4814SOL     OW31583   1.981   2.333   7.348  0.2064 -0.3049 -0.2929
 4814SOL    HW131584   1.994   2.386   7.269  1.4227 -0.3546 -0.1464
 4814SOL    HW231585   2.035   2.376   7.414  0.9453 -1.5170 -0.0770
 4815SOL     OW31586   3.868   6.029   0.568 -0.0958 -0.2025 -0.5417
 4815SOL    HW131587   3.856   6.025   0.663 -0.1320  1.9588 -0.4095
 4815SOL    HW231588   3.790   5.987   0.532 -1.0995  0.7953  0.3963
 4816SOL     OW31589   2.438   0.333   6.125  0.1225  0.1515 -0.1849
 4816SOL    HW131590   2.367   0.305   6.068  0.3385 -1.6647  0.3741
 4816SOL    HW231591   2.400   0.332   6.213  0.6937 -0.4056  0.0677
 4817SOL     OW31592   1.703   4.328   0.127  0.4881  0.2747 -0.0006
 4817SOL    HW131593   1.693   4.354   0.219  0.5377  3.2707 -0.7657
 4817SOL    HW231594   1.765   4.390   0.091  1.7365 -1.8457 -1.7439
 4818SOL     OW31595   4.932   2.420   6.395 -0.2666 -0.1689 -0.3592
 4818SOL    HW131596   4.885   2.352   6.347  2.0610 -0.3440 -2.6293
 4818SOL    HW231597   5.016   2.380   6.419  0.5547  1.4011 -0.4082
 4819SOL     OW31598   2.183   0.759   2.303 -0.4144 -0.5630  0.1345
 4819SOL    HW131599   2.123   0.724   2.238  0.7717 -0.8021 -0.8742
 4819SOL    HW231600   2.156   0.850   2.315 -1.5148 -0.9077  0.3710
 4820SOL     OW31601   6.463   0.913   6.884  0.6838 -0.0418 -0.1866
 4820SOL    HW131602   6.403   0.838   6.883 -1.8960  1.8844 -0.4816
 4820SOL    HW231603   6.457   0.950   6.795  0.2059  1.7140  0.5312
 4821SOL     OW31604   0.779   1.249   1.576  0.4000 -0.5230 -0.4103
 4821SOL    HW131605   0.850   1.250   1.640 -0.3963  0.4842  0.5173
 4821SOL    HW231606   0.750   1.158   1.573 -0.8742 -0.3168  2.2814
 4822SOL     OW31607   4.553   3.557   0.722  0.1044  0.2760  0.5475
 4822SOL    HW131608   4.617   3.572   0.652 -0.6508  0.3949 -0.1343
 4822SOL    HW231609   4.536   3.463   0.720 -0.5236  0.3900  0.0093
 4823SOL     OW31610   2.163   4.531   6.600  0.0186 -0.3024  0.4968
 4823SOL    HW131611   2.151   4.447   6.555  2.4133 -0.4655 -0.0046
 4823SOL    HW231612   2.095   4.588   6.563 -0.6024 -1.5653 -0.3860
 4824SOL     OW31613   0.378   2.189   0.861 -0.0484  0.1952 -0.3174
 4824SOL    HW131614   0.432   2.121   0.901  0.3892  0.0769 -1.0856
 4824SOL    HW231615   0.404   2.189   0.769 -1.0028  0.4848 -0.5977
 4825SOL     OW31616   4.008   1.714   0.934  0.1551  0.3226 -0.4216
 4825SOL    HW131617   4.028   1.628   0.970  0.5111 -0.2968 -2.0018
 4825SOL    HW231618   3.918   1.707   0.902 -0.2089  0.9071  0.4448
 4826SOL     OW31619   5.517   2.044   6.691 -0.0802 -0.0806  0.3565
 4826SOL    HW131620   5.589   2.107   6.699  1.2111 -1.5281  0.5535
 4826SOL    HW231621   5.476   2.044   6.778  1.7350 -1.5573  1.2953
 4827SOL     OW31622   5.886   5.279   5.151  0.2701  0.4417 -0.1912
 4827SOL    HW131623   5.861   5.342   5.220 -0.8848 -0.2649  0.0626
 4827SOL    HW231624   5.842   5.198   5.176 -0.2608  0.1920 -1.8143
 4828SOL     OW31625   3.842   0.260   7.180  0.0830  0.0748 -0.2792
 4828SOL    HW131626   3.785   0.200   7.228  0.3388  0.4630  0.5135
 4828SOL    HW231627   3.799   0.270   7.095 -0.8875  0.1390  0.2077
 4829SOL     OW31628   5.625   3.217   1.621 -0.3157  0.5997 -0.4007
 4829SOL    HW131629   5.678   3.152   1.667 -0.3485  1.3149  0.6971
 4829SOL    HW231630   5.547   3.229   1.676 -0.0744  1.9093 -0.2956
 4830SOL     OW31631   0.776   3.369   1.425  0.1887 -0.0260 -0.2524
 4830SOL    HW131632   0.759   3.275   1.427 -1.0060  0.1397 -1.2603
 4830SOL    HW231633   0.843   3.380   1.358 -1.7716  0.0760 -2.3110
 4831SOL     OW31634   1.121   1.559   1.619  0.0795 -0.1833  0.4080
 4831SOL    HW131635   1.178   1.632   1.642 -0.5541  0.0031  1.4555
 4831SOL    HW231636   1.049   1.600   1.571 -1.4034  0.2755  2.8305
 4832SOL     OW31637   4.028   5.748   1.319  0.3087 -0.0616 -0.0191
 4832SOL    HW131638   3.943   5.746   1.276 -0.6718 -0.5304  1.8566
 4832SOL    HW231639   4.008   5.746   1.412  2.4279 -2.2983  0.4730
 4833SOL     OW31640   3.111   1.418   0.986  0.4357 -0.3551 -0.1699
 4833SOL    HW131641   3.045   1.400   1.054  0.1803 -0.5780 -0.4713
 4833SOL    HW231642   3.174   1.346   0.995  0.7541 -0.0247  0.2583
 4834SOL     OW31643   2.377   0.889   7.260 -0.0681 -0.0096  0.2566
 4834SOL    HW131644   2.438   0.946   7.308  0.2080  0.0444 -0.1499
 4834SOL    HW231645   2.411   0.889   7.170 -0.3165 -0.4724  0.1612
 4835SOL     OW31646   4.194   2.099   0.937 -0.2587  0.3188  0.1615
 4835SOL    HW131647   4.267   2.112   0.876 -0.6702  0.4304 -0.3181
 4835SOL    HW231648   4.216   2.154   1.012 -0.4090  1.2833 -0.4798
 4836SOL     OW31649   5.479   6.013   1.289 -0.2306 -0.3793  0.0808
 4836SOL    HW131650   5.524   5.950   1.345  0.6758  1.5758  1.6535
 4836SOL    HW231651   5.465   6.090   1.344  0.9298  1.7692 -2.3760
 4837SOL     OW31652   1.351   1.277   1.936  0.0562  0.0269 -0.0528
 4837SOL    HW131653   1.353   1.181   1.944 -0.0079  0.0884  0.7733
 4837SOL    HW231654   1.373   1.309   2.023 -2.6382  0.7417  0.4515
 4838SOL     OW31655   0.748   0.891   0.405  0.2241 -0.4149 -0.6009
 4838SOL    HW131656   0.689   0.871   0.477 -0.2277  3.2665  0.2458
 4838SOL    HW231657   0.697   0.874   0.326 -1.7361  1.7213  0.1044
 4839SOL     OW31658   1.813   0.056   6.268 -0.0472 -0.2969 -0.3965
 4839SOL    HW131659   1.752  -0.007   6.306 -1.2334  0.5802 -0.7843
 4839SOL    HW231660   1.899   0.020   6.288 -0.6289 -0.6185  1.8095
 4840SOL     OW31661   0.502   0.014   7.202  0.2963  0.1715  0.3183
 4840SOL    HW131662   0.452  -0.025   7.274 -0.7117  0.1879 -0.3557
 4840SOL    HW231663   0.590  -0.023   7.211 -0.2030 -0.9564  0.6863
 4841SOL     OW31664   2.453   2.903   0.902 -0.9546 -0.3237  0.5831
 4841SOL    HW131665   2.464   2.859   0.987 -0.9468  1.0395  1.3194
 4841SOL    HW231666   2.500   2.847   0.840  0.2482 -0.6360  1.7223
 4842SOL     OW31667   2.134   6.336   6.989 -0.1909  0.9405 -0.0464
 4842SOL    HW131668   2.084   6.300   7.062  0.1515 -0.0638 -0.2912
 4842SOL    HW231669   2.085   6.311   6.911  0.6232  0.0099 -0.2836
 4843SOL     OW31670   5.909   3.087   6.749 -0.4580 -0.7696  0.0880
 4843SOL    HW131671   5.842   3.099   6.682  0.0042 -0.0165 -0.2572
 4843SOL    HW231672   5.962   3.014   6.717 -0.6294 -0.8342 -0.0496
 4844SOL     OW31673   1.166   0.247   5.657 -0.2748 -0.0358 -0.2413
 4844SOL    HW131674   1.256   0.220   5.639 -0.7016 -2.2578  0.6341
 4844SOL    HW231675   1.132   0.275   5.572  0.6087 -1.2157 -1.0154
 4845SOL     OW31676   3.621   5.802   7.719  0.2910  0.5863  0.5079
 4845SOL    HW131677   3.660   5.877   7.674  0.0763  0.6376  0.4049
 4845SOL    HW231678   3.689   5.772   7.780  0.7429  0.2584 -0.1407
 4846SOL     OW31679   3.096   4.501   2.033 -0.2183  0.2663  0.0959
 4846SOL    HW131680   3.133   4.570   2.088  0.8974 -0.1646 -0.1046
 4846SOL    HW231681   3.094   4.424   2.089 -0.6805  0.2482  0.0590
 4847SOL     OW31682   1.095   1.077   1.016  0.1958  0.1457  0.1514
 4847SOL    HW131683   1.088   0.998   0.963  2.6330  0.6246 -1.0135
 4847SOL    HW231684   1.060   1.052   1.101  1.0245 -2.2253 -0.1458
 4848SOL     OW31685   4.104   5.906   0.866  0.3650  0.2598 -0.2912
 4848SOL    HW131686   4.064   5.819   0.874  0.1214  0.5232  1.8685
 4848SOL    HW231687   4.033   5.967   0.888  0.9510  0.9377 -0.2410
 4849SOL     OW31688   1.342   1.556   0.632  0.0641  0.6207 -0.4481
 4849SOL    HW131689   1.337   1.496   0.707  0.7581  0.6016 -0.4085
 4849SOL    HW231690   1.434   1.579   0.626  0.0019  0.7006 -1.2430
 4850SOL     OW31691   4.655   4.690   7.490 -0.7574  0.0329 -0.0099
 4850SOL    HW131692   4.679   4.599   7.508 -0.7203  0.0081 -0.1797
 4850SOL    HW231693   4.670   4.700   7.396  0.7277  0.6623  0.2701
 4851SOL     OW31694   1.908   3.516   5.535 -0.0594 -0.1165 -0.0376
 4851SOL    HW131695   1.893   3.481   5.623  0.3900 -0.3653 -0.0552
 4851SOL    HW231696   1.997   3.486   5.512 -0.1159  0.0702 -0.5145
 4852SOL     OW31697   3.458   3.540   1.145  0.0970  0.2989  0.0428
 4852SOL    HW131698   3.386   3.593   1.181  0.1430  1.4644 -1.4637
 4852SOL    HW231699   3.529   3.550   1.208 -0.3023  1.0393  0.3897
 4853SOL     OW31700   6.222   0.874   0.496 -0.4726 -0.4280  0.6806
 4853SOL    HW131701   6.175   0.916   0.568  0.3930 -0.1447  1.0913
 4853SOL    HW231702   6.289   0.938   0.470 -1.4534 -0.0415 -1.1273
 4854SOL     OW31703   6.342   1.693   6.736  0.0218  0.0967  0.1792
 4854SOL    HW131704   6.350   1.625   6.803 -0.7622  1.0107  1.2531
 4854SOL    HW231705   6.430   1.705   6.703  0.2979 -0.9079  0.5007
 4855SOL     OW31706   5.276   5.498   5.851 -0.3167  0.4226  0.2192
 4855SOL    HW131707   5.300   5.582   5.810 -1.4213  0.2778 -0.7640
 4855SOL    HW231708   5.358   5.449   5.854 -0.3292  0.0263 -2.8553
 4856SOL     OW31709   1.362   5.535   0.898  0.3533 -0.7429  0.3888
 4856SOL    HW131710   1.294   5.476   0.931 -0.2096 -0.1544  0.2883
 4856SOL    HW231711   1.328   5.567   0.815  0.4569  0.0659  0.6472
 4857SOL     OW31712   5.458   6.023   5.500  0.1367  0.2471 -0.4194
 4857SOL    HW131713   5.397   5.980   5.440  0.4325 -1.1825  0.2503
 4857SOL    HW231714   5.442   5.980   5.584  1.2875  0.6461  0.0155
 4858SOL     OW31715   0.195   3.319   0.434  1.0623 -0.2176  0.4647
 4858SOL    HW131716   0.212   3.379   0.361  0.4834  1.1335  1.4017
 4858SOL    HW231717   0.186   3.233   0.393 -2.9190  0.9637 -1.5782
 4859SOL     OW31718   3.905   4.661   5.941 -0.5861  0.8543  0.0738
 4859SOL    HW131719   3.934   4.589   5.997 -1.4710  0.7091  0.3675
 4859SOL    HW231720   3.985   4.706   5.915 -0.0140 -0.2533 -0.1312
 4860SOL     OW31721   4.111   3.434   6.752  0.5694  0.1665 -0.0895
 4860SOL    HW131722   4.098   3.343   6.724  1.4514  0.1886 -0.6140
 4860SOL    HW231723   4.110   3.485   6.671  0.6801  0.5483  0.1459
 4861SOL     OW31724   4.356   6.337   0.389  0.2292  0.5250  0.3940
 4861SOL    HW131725   4.271   6.362   0.354  0.0569  1.1249  1.2032
 4861SOL    HW231726   4.338   6.307   0.478  0.8941  1.0332  0.7145
 4862SOL     OW31727   4.509   5.930   6.146  0.0429  0.3509  0.1620
 4862SOL    HW131728   4.449   6.003   6.129 -1.1019 -0.9387 -1.8326
 4862SOL    HW231729   4.484   5.898   6.233 -0.9024  1.0147  0.1548
 4863SOL     OW31730   2.847   4.458   0.949 -0.5779 -0.3945  0.0565
 4863SOL    HW131731   2.843   4.546   0.913 -0.0169 -0.5567 -0.4188
 4863SOL    HW231732   2.814   4.402   0.879  0.7455 -0.7358 -0.3218
 4864SOL     OW31733   6.427   4.869   0.463 -0.3490  0.8573  0.2138
 4864SOL    HW131734   6.434   4.796   0.402 -1.1479  1.3310 -0.4527
 4864SOL    HW231735   6.333   4.886   0.471 -0.1987  1.4968  0.7379
 4865SOL     OW31736   0.440   1.045   0.219  0.7078 -0.7447  0.1294
 4865SOL    HW131737   0.376   1.056   0.149 -1.1039  0.4583  1.8533
 4865SOL    HW231738   0.483   0.961   0.200 -1.8210 -1.9168 -0.7943
 4866SOL     OW31739   1.482   0.972   5.116  0.1791  0.5684 -0.5149
 4866SOL    HW131740   1.478   0.877   5.104  1.7871  0.3688  0.2482
 4866SOL    HW231741   1.430   0.989   5.194 -0.2434  0.3383 -0.7433
 4867SOL     OW31742   1.669   3.589   1.562 -0.2535  0.3044 -0.7134
 4867SOL    HW131743   1.649   3.649   1.490 -1.9446 -1.6838 -2.0402
 4867SOL    HW231744   1.584   3.551   1.585  0.7336 -1.5888  0.0184
 4868SOL     OW31745   3.324   3.302   0.037  0.4980 -0.0352  0.0253
 4868SOL    HW131746   3.283   3.239   0.096 -2.1000  0.0596 -1.5323
 4868SOL    HW231747   3.390   3.251  -0.011 -0.0895 -1.0560  0.2850
 4869SOL     OW31748   2.548   5.192   0.449 -0.4915  0.7815  0.1223
 4869SOL    HW131749   2.605   5.269   0.452 -0.8251  1.0877 -0.9141
 4869SOL    HW231750   2.462   5.227   0.426 -0.3416 -0.0243 -1.8823
 4870SOL     OW31751   1.923   0.713   0.126 -0.1786 -0.1726  0.1242
 4870SOL    HW131752   1.916   0.622   0.097 -1.1516 -0.7929  2.1420
 4870SOL    HW231753   1.852   0.759   0.081  1.8620  0.2776 -2.9536
 4871SOL     OW31754   5.505   4.901   0.554  0.0770 -0.3380  0.4276
 4871SOL    HW131755   5.541   4.939   0.634  0.9393 -0.0344 -0.0939
 4871SOL    HW231756   5.410   4.906   0.565  0.1440  2.0766  0.3474
 4872SOL     OW31757   5.964   0.503   6.215 -1.0175  0.0427  0.5340
 4872SOL    HW131758   6.051   0.533   6.241 -0.2319 -0.8032 -1.0311
 4872SOL    HW231759   5.912   0.584   6.209 -0.1730  0.6199  0.8569
 4873SOL     OW31760   6.426   2.372   1.614 -0.0150  0.4220 -0.5236
 4873SOL    HW131761   6.354   2.344   1.671 -0.2315 -0.8802 -1.4064
 4873SOL    HW231762   6.396   2.455   1.577 -0.7006  0.3141 -0.2397
 4874SOL     OW31763   3.937   3.462   7.280 -0.1032  0.1176  0.2501
 4874SOL    HW131764   4.030   3.444   7.292  0.1982  1.3515 -0.0844
 4874SOL    HW231765   3.905   3.389   7.227  0.6493 -0.3713  0.4582
 4875SOL     OW31766   3.369   2.447   2.045  0.2733  0.0938 -0.0419
 4875SOL    HW131767   3.338   2.508   2.112  0.4476  0.7913 -0.5799
 4875SOL    HW231768   3.336   2.484   1.963 -0.2016 -0.9194 -0.3165
 4876SOL     OW31769   2.445   1.616   6.907 -0.6699 -0.0658 -0.1754
 4876SOL    HW131770   2.498   1.620   6.986  1.2286 -0.9131 -1.3314
 4876SOL    HW231771   2.410   1.526   6.906 -0.7941 -0.0172 -0.2324
 4877SOL     OW31772   5.118   1.305   5.696  0.3393 -0.1022 -0.3016
 4877SOL    HW131773   5.125   1.276   5.787 -1.2642  0.6367  0.0866
 4877SOL    HW231774   5.058   1.242   5.655  1.0510 -0.4309 -0.8606
 4878SOL     OW31775   4.458   6.044   0.528 -0.0867  0.2201 -0.2810
 4878SOL    HW131776   4.486   6.071   0.441  1.1069 -1.4081 -0.4676
 4878SOL    HW231777   4.510   6.098   0.588  1.2137 -0.6031 -0.6254
 4879SOL     OW31778   2.976   0.515   6.259 -0.4620 -0.3138  0.0069
 4879SOL    HW131779   2.976   0.602   6.297  0.5536 -0.9309  1.4847
 4879SOL    HW231780   3.068   0.493   6.247 -0.7190 -0.8046 -1.3223
 4880SOL     OW31781   3.524   0.744   0.534  0.3433  0.4651 -0.0627
 4880SOL    HW131782   3.516   0.811   0.602  1.0682  1.3708 -0.8439
 4880SOL    HW231783   3.609   0.704   0.550  1.1228  1.5961 -1.2121
 4881SOL     OW31784   3.263   2.179   2.057  0.0761 -0.0981 -0.0669
 4881SOL    HW131785   3.324   2.252   2.068  1.3071 -1.1640  0.3776
 4881SOL    HW231786   3.315   2.101   2.073 -1.2979 -1.0793 -0.1751
 4882SOL     OW31787   5.651   1.703   0.121 -0.0380  0.0052 -0.0542
 4882SOL    HW131788   5.635   1.798   0.116 -2.8694 -0.3046  1.1874
 4882SOL    HW231789   5.659   1.685   0.215  1.0703 -0.9457 -0.3100
 4883SOL     OW31790   0.135   6.299   7.705  0.1019 -0.3640 -0.0987
 4883SOL    HW131791   0.088   6.223   7.669 -0.1981 -0.4355  0.4388
 4883SOL    HW231792   0.069   6.345   7.757  0.4614 -0.0985  0.1218
 4884SOL     OW31793   2.680   0.989   2.118  0.0359 -0.2612 -0.0430
 4884SOL    HW131794   2.606   1.018   2.171 -0.0481  0.2246 -0.4162
 4884SOL    HW231795   2.756   0.994   2.177  0.1836  1.5807 -0.3172
 4885SOL     OW31796   3.317   4.015   5.933  0.5592 -1.0424 -0.0689
 4885SOL    HW131797   3.346   3.929   5.964  1.1905 -0.4654  1.0068
 4885SOL    HW231798   3.355   4.077   5.995 -2.7028 -0.1748  1.3209
 4886SOL     OW31799   1.677   4.161   6.982 -0.0316  0.3399  0.2215
 4886SOL    HW131800   1.715   4.073   6.978 -3.0391 -1.0301 -2.5719
 4886SOL    HW231801   1.598   4.151   7.035 -1.0143  1.0176 -1.0512
 4887SOL     OW31802   5.597   5.593   1.241 -0.5081  0.5075 -0.1022
 4887SOL    HW131803   5.692   5.603   1.231 -0.5772  0.3955 -0.9016
 4887SOL    HW231804   5.588   5.526   1.309 -0.0354  2.0207  1.5480
 4888SOL     OW31805   4.006   4.913   6.182  0.3914  0.2361 -0.2756
 4888SOL    HW131806   4.028   4.843   6.120  0.4459 -0.4063  0.4500
 4888SOL    HW231807   4.086   4.964   6.191  1.3559 -1.4386  1.5145
 4889SOL     OW31808   4.752   4.275   0.598 -0.0445 -0.2829 -0.4776
 4889SOL    HW131809   4.691   4.332   0.646 -0.1111  0.4498 -1.3941
 4889SOL    HW231810   4.819   4.335   0.566 -0.1344 -0.7158 -1.4969
 4890SOL     OW31811   0.410   0.057   1.492  0.6131 -0.2331 -0.6665
 4890SOL    HW131812   0.485   0.013   1.531  1.0245 -0.7059 -1.9441
 4890SOL    HW231813   0.448   0.119   1.430 -0.0019  1.0481  0.2072
 4891SOL     OW31814   2.647   4.310   6.430 -0.2680  0.2369  0.3581
 4891SOL    HW131815   2.660   4.281   6.340  0.1621  0.7847  0.2410
 4891SOL    HW231816   2.552   4.326   6.436 -0.4110 -0.5082  0.2272
 4892SOL     OW31817   1.816   3.983   0.220 -0.1232 -0.0107  0.5518
 4892SOL    HW131818   1.893   4.014   0.172  0.4060 -0.8580  0.8171
 4892SOL    HW231819   1.765   3.934   0.155  0.5476 -1.0818  0.8064
 4893SOL     OW31820   2.342   5.364   0.471  0.3396 -0.3175  0.2799
 4893SOL    HW131821   2.281   5.405   0.533  0.5943  0.4784  0.0164
 4893SOL    HW231822   2.417   5.423   0.470  2.4179 -2.6530  2.7565
 4894SOL     OW31823   0.494   2.019   7.206 -0.0133 -0.2112 -0.3127
 4894SOL    HW131824   0.537   2.082   7.264 -0.5512  0.1915 -0.3424
 4894SOL    HW231825   0.491   1.938   7.257  0.9055 -0.2891 -0.3698
 4895SOL     OW31826   4.688   1.300   5.711 -0.3483 -0.2888 -0.1703
 4895SOL    HW131827   4.679   1.362   5.784  1.1543  0.4931 -0.6129
 4895SOL    HW231828   4.598   1.274   5.691 -0.7734 -1.2037  2.5222
 4896SOL     OW31829   3.958   0.471   0.253 -0.0629  0.3601  0.2527
 4896SOL    HW131830   3.967   0.444   0.345 -1.9220 -0.5445  0.2092
 4896SOL    HW231831   3.968   0.566   0.255  0.6535  0.2830  1.2754
 4897SOL     OW31832   5.275   2.793   1.317  0.4362  0.4868 -0.4115
 4897SOL    HW131833   5.360   2.814   1.279 -0.0149 -1.1371 -2.4780
 4897SOL    HW231834   5.289   2.712   1.366  0.3606  0.9818  0.4545
 4898SOL     OW31835   5.750   0.255   2.126 -0.2472  0.3886 -0.2064
 4898SOL    HW131836   5.829   0.226   2.082 -0.1048 -0.2233  0.4319
 4898SOL    HW231837   5.716   0.327   2.072  1.1212  1.1423 -0.1041
 4899SOL     OW31838   0.826   0.530   7.128  0.2147 -0.1266  0.1828
 4899SOL    HW131839   0.824   0.602   7.065  0.1276  0.3607  0.7392
 4899SOL    HW231840   0.773   0.461   7.087 -0.2890  0.3822 -0.0428
 4900SOL     OW31841   4.659   0.031   1.500  0.0944  0.3365 -0.0550
 4900SOL    HW131842   4.580  -0.021   1.512 -0.6030  1.6607  1.4328
 4900SOL    HW231843   4.662   0.049   1.406 -2.4872  1.8779  0.0632
 4901SOL     OW31844   0.397   1.937   1.402 -0.0941  0.4083 -0.0690
 4901SOL    HW131845   0.366   2.005   1.461 -0.7869 -0.1283  0.1935
 4901SOL    HW231846   0.483   1.968   1.373 -0.7012  1.7638 -0.5447
 4902SOL     OW31847   2.522   5.300   5.889 -0.6874  0.3304  0.2913
 4902SOL    HW131848   2.483   5.374   5.843 -1.9992 -0.9656 -0.7942
 4902SOL    HW231849   2.588   5.266   5.829 -2.3503 -1.3210 -0.6913
 4903SOL     OW31850   2.889   0.297   1.267  0.1978 -0.0279  0.5121
 4903SOL    HW131851   2.846   0.353   1.331  0.0851  0.0133  0.4002
 4903SOL    HW231852   2.965   0.262   1.314  0.7882  0.9287  0.2988
 4904SOL     OW31853   3.875   4.369   0.164  0.8384  0.5981  0.3296
 4904SOL    HW131854   3.824   4.304   0.117 -2.5622  1.3108  2.6278
 4904SOL    HW231855   3.930   4.410   0.097 -1.1383 -0.7111 -2.2736
 4905SOL     OW31856   4.410   2.672   0.332 -0.4464 -0.2996 -0.1284
 4905SOL    HW131857   4.500   2.643   0.344 -0.5409 -0.6329 -0.2163
 4905SOL    HW231858   4.417   2.757   0.288 -0.1893 -0.5027 -0.4799
 4906SOL     OW31859   3.018   6.452   1.165 -0.6220 -0.1706 -0.1864
 4906SOL    HW131860   3.023   6.441   1.070 -1.0750 -0.8502 -0.1378
 4906SOL    HW231861   3.100   6.415   1.198  0.6194  2.1406 -0.4551
 4907SOL     OW31862   2.846   2.196   0.266 -0.2956  0.1697  0.0993
 4907SOL    HW131863   2.872   2.144   0.190  0.7723  0.1612  0.4574
 4907SOL    HW231864   2.921   2.253   0.283 -0.5961  0.3059  1.0232
 4908SOL     OW31865   0.340   4.814   6.849  0.2189 -0.1805  0.0570
 4908SOL    HW131866   0.284   4.736   6.853  2.9014 -2.1654  2.0320
 4908SOL    HW231867   0.309   4.869   6.922 -1.6663  0.7298 -1.3302
 4909SOL     OW31868   0.961   0.003   7.351 -0.4256 -0.0940  0.2421
 4909SOL    HW131869   1.018   0.075   7.375 -0.6246  0.1387  0.0278
 4909SOL    HW231870   1.018  -0.073   7.345 -0.0724  0.2102 -0.3482
 4910SOL     OW31871   1.812   2.150   1.417  0.0817 -0.4562  0.6588
 4910SOL    HW131872   1.864   2.178   1.342 -1.9075 -2.2899 -1.5383
 4910SOL    HW231873   1.871   2.091   1.466  1.8603  1.8050  1.4524
 4911SOL     OW31874   1.765   3.569   7.506 -0.0921  0.0095 -0.4082
 4911SOL    HW131875   1.705   3.500   7.533 -0.0003 -0.3820 -1.1810
 4911SOL    HW231876   1.806   3.536   7.426 -0.6198  1.2835 -1.2397
 4912SOL     OW31877   0.174   3.833   6.328 -0.3302 -0.5499  0.0442
 4912SOL    HW131878   0.141   3.744   6.343  1.7913 -1.6389 -1.2682
 4912SOL    HW231879   0.220   3.856   6.409 -3.2485  0.6057  1.5195
 4913SOL     OW31880   1.810   0.336   1.468 -0.1873  0.0653  0.0454
 4913SOL    HW131881   1.763   0.395   1.526  1.4261  3.3107 -1.7197
 4913SOL    HW231882   1.757   0.334   1.388  0.4960  0.3273 -0.4237
 4914SOL     OW31883   3.383   4.611   2.129  0.7223  0.3233 -0.1691
 4914SOL    HW131884   3.443   4.684   2.144 -0.2073  1.8956 -3.2102
 4914SOL    HW231885   3.296   4.648   2.144  0.2955 -1.8087  3.7731
 4915SOL     OW31886   3.144   5.106   5.804  0.4100 -0.0048  0.3672
 4915SOL    HW131887   3.182   5.032   5.757  0.3503  0.1150  0.1291
 4915SOL    HW231888   3.201   5.118   5.880 -0.1550 -0.9459  0.9640
 4916SOL     OW31889   5.075   0.227   0.204 -0.1852  1.0470  0.1188
 4916SOL    HW131890   4.994   0.250   0.158  0.5955  0.6311 -1.5795
 4916SOL    HW231891   5.122   0.310   0.215 -0.0638  1.0753 -0.5342
 4917SOL     OW31892   1.652   0.551   7.094 -0.1634 -0.0977  0.4375
 4917SOL    HW131893   1.703   0.475   7.124  0.5620  0.3032  0.2382
 4917SOL    HW231894   1.695   0.626   7.134 -0.1306  0.3125 -0.3600
 4918SOL     OW31895   2.860   1.209   0.803 -0.4853  0.3586 -0.1137
 4918SOL    HW131896   2.831   1.194   0.893  0.0545  0.0153  0.0102
 4918SOL    HW231897   2.791   1.172   0.749 -0.3724 -0.2871  0.1769
 4919SOL     OW31898   5.703   4.696   7.662 -0.7009  0.1101 -0.1078
 4919SOL    HW131899   5.697   4.601   7.664  1.0039 -0.1821 -2.9660
 4919SOL    HW231900   5.658   4.725   7.742 -0.9491 -3.0632  1.0455
 4920SOL     OW31901   5.792   0.697   1.041 -0.9386  0.1135 -0.2232
 4920SOL    HW131902   5.810   0.604   1.035 -0.2735  0.0481  2.1261
 4920SOL    HW231903   5.843   0.736   0.970 -0.5317 -1.1933 -0.6746
 4921SOL     OW31904   1.231   2.195   7.265 -0.3779  0.1652 -0.1971
 4921SOL    HW131905   1.232   2.238   7.180  1.4190  0.5067 -0.0310
 4921SOL    HW231906   1.310   2.141   7.266 -0.0313  0.6519  1.4941
 4922SOL     OW31907   3.237   0.783   0.095 -0.4978 -0.3066  0.0288
 4922SOL    HW131908   3.267   0.753   0.010  0.0539  0.5033 -0.0669
 4922SOL    HW231909   3.301   0.748   0.157  0.0679  0.5308 -0.0691
 4923SOL     OW31910   0.086   3.904   7.392  0.6281  0.4895  0.1293
 4923SOL    HW131911   0.037   3.985   7.377  1.1642  0.6510 -0.8021
 4923SOL    HW231912   0.143   3.925   7.467  0.6360  0.9132  0.0108
 4924SOL     OW31913   2.791   3.447   6.875  0.5413 -0.3918 -0.4967
 4924SOL    HW131914   2.734   3.407   6.810  1.0882  0.9259 -1.8536
 4924SOL    HW231915   2.794   3.540   6.850  1.9308 -0.1261  0.5399
 4925SOL     OW31916   1.714   0.660   2.060  0.3789 -0.2437 -0.3474
 4925SOL    HW131917   1.809   0.653   2.054  0.2962 -0.9997 -0.8320
 4925SOL    HW231918   1.686   0.578   2.100 -0.0845 -0.0747 -0.3166
 4926SOL     OW31919   5.094   3.857   7.040 -0.1014  0.4222 -0.2623
 4926SOL    HW131920   5.138   3.783   7.083  0.0261  1.7212  1.9612
 4926SOL    HW231921   5.001   3.839   7.052 -0.0692  0.6741  0.4020
 4927SOL     OW31922   1.447   1.129   0.526  0.7420 -0.1240 -0.8033
 4927SOL    HW131923   1.391   1.199   0.558  1.1056 -0.5674  0.9034
 4927SOL    HW231924   1.410   1.106   0.441 -0.6415  0.7265 -0.4640
 4928SOL     OW31925   6.089   3.916   6.711  0.7825  0.2545 -0.2106
 4928SOL    HW131926   6.165   3.872   6.674  0.7744  0.1837 -0.1441
 4928SOL    HW231927   6.121   3.955   6.793  0.7669  0.2940 -0.2229
 4929SOL     OW31928   2.446   6.468   5.873 -0.2638 -0.8397 -0.1099
 4929SOL    HW131929   2.402   6.482   5.958 -1.3539 -0.9546 -0.6308
 4929SOL    HW231930   2.423   6.545   5.821 -0.0176 -1.0084 -0.4708
 4930SOL     OW31931   3.272   3.978   7.255 -0.0786  0.0567 -0.0357
 4930SOL    HW131932   3.247   3.890   7.229  2.2030 -0.8146  0.4696
 4930SOL    HW231933   3.192   4.029   7.248 -0.9789 -1.5308 -2.4841
 4931SOL     OW31934   2.104   0.049   1.364 -0.8894  0.3608 -0.3953
 4931SOL    HW131935   2.072  -0.021   1.421 -1.5465  0.2917 -0.8399
 4931SOL    HW231936   2.196   0.060   1.389 -0.6976 -0.8503 -0.5209
 4932SOL     OW31937   2.271   3.825   7.542 -0.3836 -0.3665  0.3781
 4932SOL    HW131938   2.357   3.785   7.526  1.0274  3.0325 -1.6506
 4932SOL    HW231939   2.283   3.878   7.620  0.2217  1.9505 -1.1889
 4933SOL     OW31940   0.331   6.386   1.840 -0.7445 -0.2650  0.0211
 4933SOL    HW131941   0.414   6.425   1.815 -0.6374  0.2387  1.1223
 4933SOL    HW231942   0.350   6.335   1.918 -1.3205 -0.7626 -0.1548
 4934SOL     OW31943   2.206   6.118   7.589 -0.0197 -1.0529 -0.1092
 4934SOL    HW131944   2.298   6.104   7.611 -0.0014 -0.7607  0.0023
 4934SOL    HW231945   2.161   6.039   7.621  0.2517 -1.3873 -0.5500
 4935SOL     OW31946   3.548   0.537   0.764 -0.3012 -0.2659  0.0617
 4935SOL    HW131947   3.498   0.471   0.716 -0.9193  0.8695 -0.9143
 4935SOL    HW231948   3.485   0.578   0.822 -0.0178 -0.2208  0.3404
 4936SOL     OW31949   1.015   4.409   1.166 -0.0864 -0.2514 -0.5504
 4936SOL    HW131950   0.983   4.499   1.179  1.2870  0.4034 -1.3785
 4936SOL    HW231951   0.998   4.392   1.073 -1.1916 -1.2366 -0.1918
 4937SOL     OW31952   1.965   5.194   7.182 -0.4499 -0.3352 -0.2135
 4937SOL    HW131953   2.056   5.212   7.159 -0.3356 -1.8278 -1.0601
 4937SOL    HW231954   1.925   5.280   7.193  1.1192  0.3461  0.4534
 4938SOL     OW31955   3.734   6.046   7.704 -0.4549  0.2844 -0.0665
 4938SOL    HW131956   3.676   6.120   7.719  0.1009  0.8559 -0.6878
 4938SOL    HW231957   3.806   6.058   7.767  0.5760  1.3020 -1.3705
 4939SOL     OW31958   1.364   3.208   5.431 -0.0624  0.5277 -0.2155
 4939SOL    HW131959   1.356   3.304   5.431 -0.0266  0.5413 -1.1137
 4939SOL    HW231960   1.285   3.177   5.387 -0.3341  0.1157  0.5624
 4940SOL     OW31961   1.840   0.507   0.718  0.2658  0.4840  0.3507
 4940SOL    HW131962   1.812   0.579   0.775  0.5569  1.8276 -1.1244
 4940SOL    HW231963   1.935   0.505   0.728  0.2383  0.1602  0.5491
 4941SOL     OW31964   1.708   0.119   0.111  0.1376 -0.1383 -0.1252
 4941SOL    HW131965   1.671   0.187   0.054 -0.0061 -0.5759 -0.5551
 4941SOL    HW231966   1.632   0.078   0.152  0.1720 -0.6232 -0.5354
 4942SOL     OW31967   3.629   4.418   5.425 -0.1215  0.2172 -0.8277
 4942SOL    HW131968   3.583   4.353   5.478  3.1309 -0.1321  1.9312
 4942SOL    HW231969   3.560   4.471   5.387 -2.8085 -1.7646  0.8796
 4943SOL     OW31970   3.102   5.445   0.945 -0.2830  0.1173  0.1090
 4943SOL    HW131971   3.091   5.420   1.037 -1.8217  0.6196  0.0856
 4943SOL    HW231972   3.041   5.517   0.932  0.8282  0.9042 -1.0035
 4944SOL     OW31973   4.439   3.236   2.150 -0.8542  0.2009 -0.0386
 4944SOL    HW131974   4.387   3.160   2.125 -0.8935  0.1272  0.2746
 4944SOL    HW231975   4.413   3.304   2.088  0.2160 -0.4454 -1.2562
 4945SOL     OW31976   4.491   5.204   6.417 -0.2579  0.4597  0.2264
 4945SOL    HW131977   4.559   5.253   6.464 -0.8789  0.2048  1.4180
 4945SOL    HW231978   4.487   5.119   6.460  1.9226 -1.4038 -2.8074
 4946SOL     OW31979   3.992   1.861   0.379 -0.7061  0.1884 -0.3170
 4946SOL    HW131980   3.983   1.937   0.321  0.8637  0.8450  0.2352
 4946SOL    HW231981   3.925   1.873   0.446 -1.0044  0.6545 -0.6977
 4947SOL     OW31982   0.599   5.288   1.296  0.0835 -0.2863 -0.2054
 4947SOL    HW131983   0.685   5.330   1.290  0.0384 -0.0455  0.6164
 4947SOL    HW231984   0.555   5.311   1.214  0.5136  0.2623 -0.2878
 4948SOL     OW31985   0.209   1.557   2.459  0.5694  0.3655 -0.9408
 4948SOL    HW131986   0.276   1.522   2.517 -1.1866 -0.1178  0.9199
 4948SOL    HW231987   0.167   1.626   2.510 -3.2797 -2.2967 -0.1064
 4949SOL     OW31988   4.014   5.575   6.941  0.4304  0.6744  0.2533
 4949SOL    HW131989   4.070   5.537   6.873  0.2937  0.4347  0.2717
 4949SOL    HW231990   3.970   5.648   6.898 -0.8733 -0.4524 -0.3992
 4950SOL     OW31991   5.064   1.400   1.729 -0.0715  0.8325  0.0107
 4950SOL    HW131992   5.056   1.381   1.636 -2.6644  0.1158  0.3124
 4950SOL    HW231993   5.097   1.490   1.733 -0.6881  1.1592 -1.6098
 4951SOL     OW31994   1.410   4.454   6.750 -0.0321 -0.0601  0.5597
 4951SOL    HW131995   1.359   4.434   6.829 -0.2115 -0.5223  0.3333
 4951SOL    HW231996   1.474   4.383   6.744  0.9275  0.7381  1.0699
 4952SOL     OW31997   5.215   1.420   5.320  0.5405  0.0740  0.1652
 4952SOL    HW131998   5.121   1.426   5.301  0.5197 -2.2918 -0.8418
 4952SOL    HW231999   5.224   1.456   5.408 -1.2088  0.9102  0.0505
 4953SOL     OW32000   3.696   1.082   7.019  0.4154  0.4485  0.2537
 4953SOL    HW132001   3.646   1.149   7.067  0.2529  0.4278  0.1131
 4953SOL    HW232002   3.743   1.035   7.087 -0.4850 -0.1439  0.4855
 4954SOL     OW32003   3.330   5.823   6.484 -0.4688  0.5316 -0.7127
 4954SOL    HW132004   3.278   5.903   6.474 -0.1883  0.8655  0.3209
 4954SOL    HW232005   3.380   5.837   6.565  0.7409 -0.0525 -1.3297
 4955SOL     OW32006   5.737   2.332   6.418  0.2853  0.4206  0.4281
 4955SOL    HW132007   5.814   2.375   6.382 -0.5779  0.6932 -1.1630
 4955SOL    HW232008   5.701   2.281   6.345 -0.6536 -0.2467  1.3245
 4956SOL     OW32009   2.061   1.799   6.361 -0.1085 -0.5412  0.3087
 4956SOL    HW132010   2.051   1.734   6.431 -1.1745  0.3545  1.0242
 4956SOL    HW232011   1.972   1.809   6.326 -0.3796  1.8809  1.4924
 4957SOL     OW32012   4.862   4.523   6.006  0.4019 -0.2897 -0.5612
 4957SOL    HW132013   4.801   4.575   5.954 -0.2343 -1.2305 -0.7664
 4957SOL    HW232014   4.940   4.515   5.950  0.4153  0.2181 -0.6252
 4958SOL     OW32015   1.842   6.208   2.038 -0.0803  0.2014 -0.2915
 4958SOL    HW132016   1.878   6.224   2.124 -1.0359 -1.5120  0.4814
 4958SOL    HW232017   1.752   6.179   2.054 -1.0183  1.9136 -1.9926
 4959SOL     OW32018   4.715   1.625   7.632 -0.0027 -0.5977  0.6902
 4959SOL    HW132019   4.626   1.646   7.606  1.1143  1.8008 -1.5365
 4959SOL    HW232020   4.743   1.699   7.685  1.1999 -0.5510  0.0134
 4960SOL     OW32021   6.246   4.209   7.130 -0.1392 -0.5301  0.5519
 4960SOL    HW132022   6.212   4.292   7.096 -0.5432 -0.3736  1.3154
 4960SOL    HW232023   6.336   4.230   7.157  0.6324 -0.9492 -1.4865
 4961SOL     OW32024   5.624   3.301   1.932 -0.0582 -0.0774  0.1264
 4961SOL    HW132025   5.602   3.324   2.022  0.8907  2.7296 -0.2653
 4961SOL    HW232026   5.720   3.301   1.929  0.1137  4.2158 -1.6701
 4962SOL     OW32027   5.600   4.195   6.802 -0.1107  0.2038 -0.1935
 4962SOL    HW132028   5.611   4.183   6.896 -1.0244  0.6246 -0.0150
 4962SOL    HW232029   5.546   4.121   6.775 -1.8509  1.3186  0.0677
 4963SOL     OW32030   3.134   3.539   7.336 -0.1799 -0.0159 -0.1586
 4963SOL    HW132031   3.120   3.448   7.311 -1.2073  0.1451 -0.2062
 4963SOL    HW232032   3.133   3.538   7.432 -0.5030 -0.0169 -0.1601
 4964SOL     OW32033   3.893   4.662   0.887 -0.1361  0.1588  0.1462
 4964SOL    HW132034   3.867   4.740   0.838 -1.3175 -0.8813 -0.9450
 4964SOL    HW232035   3.965   4.692   0.944 -0.9141  2.1373  0.1498
 4965SOL     OW32036   2.707   2.982   0.080  0.2117 -0.6116  0.3720
 4965SOL    HW132037   2.729   2.933   0.001 -0.2040 -0.7161  0.3163
 4965SOL    HW232038   2.620   3.019   0.062 -0.7124 -2.1339  1.4492
 4966SOL     OW32039   2.907   4.732   1.336  0.0187  0.2673 -0.2057
 4966SOL    HW132040   2.948   4.652   1.371 -2.3976 -0.2289  1.8034
 4966SOL    HW232041   2.815   4.708   1.323 -0.6369  2.5176 -0.1808
 4967SOL     OW32042   0.429   2.219   0.058 -0.5377  0.1161 -0.3099
 4967SOL    HW132043   0.419   2.233   0.152 -0.1954 -0.2149 -0.2245
 4967SOL    HW232044   0.461   2.303   0.025  2.6043 -0.7170  0.3699
 4968SOL     OW32045   4.168   5.937   6.171  0.1125 -0.4655  0.3838
 4968SOL    HW132046   4.162   5.875   6.098  1.8911 -0.6133  0.3110
 4968SOL    HW232047   4.128   6.017   6.138 -2.2817 -1.5351  0.4998
 4969SOL     OW32048   5.617   0.718   0.765  0.3412 -0.3893  0.0343
 4969SOL    HW132049   5.549   0.706   0.698  1.0020 -0.1054 -0.7099
 4969SOL    HW232050   5.574   0.769   0.834  0.5997  2.5703 -1.8316
 4970SOL     OW32051   4.773   6.468   5.777  0.7456 -0.0330  0.5228
 4970SOL    HW132052   4.736   6.394   5.824  0.8889 -1.3195 -1.2822
 4970SOL    HW232053   4.842   6.431   5.723  1.6412  1.6171  0.4632
 4971SOL     OW32054   3.246   3.632   1.295 -0.4744  0.2056  0.1168
 4971SOL    HW132055   3.207   3.560   1.346  0.5524 -1.1120 -0.8798
 4971SOL    HW232056   3.188   3.642   1.220  0.2591 -0.7438 -0.5995
 4972SOL     OW32057   2.401   3.111   7.155  0.2074  0.4475 -0.1605
 4972SOL    HW132058   2.465   3.051   7.119  0.3145 -1.8987  3.4320
 4972SOL    HW232059   2.317   3.065   7.146 -0.5154  1.9412 -1.6237
 4973SOL     OW32060   4.699   0.258   5.769 -0.2032  0.0034  0.2470
 4973SOL    HW132061   4.695   0.273   5.674 -2.0124 -1.6041 -0.0106
 4973SOL    HW232062   4.707   0.163   5.778 -1.3524  0.0045  1.6877
 4974SOL     OW32063   4.682   3.120   7.262  0.5368  0.1939  0.1052
 4974SOL    HW132064   4.613   3.101   7.326  0.3710  0.6033  0.0522
 4974SOL    HW232065   4.762   3.085   7.301 -0.2350 -3.7601 -1.4673
 4975SOL     OW32066   1.646   2.128   7.532 -0.0870 -0.2182  0.2700
 4975SOL    HW132067   1.673   2.183   7.458  0.6856 -0.5864  0.2650
 4975SOL    HW232068   1.626   2.190   7.602  1.7693  0.0623  0.5938
 4976SOL     OW32069   4.860   1.006   5.844 -0.3363  0.9074 -0.3261
 4976SOL    HW132070   4.939   0.959   5.868 -0.7134  0.7807  0.7114
 4976SOL    HW232071   4.845   0.982   5.752 -0.0103 -0.2486 -0.0925
 4977SOL     OW32072   3.157   5.047   6.722 -0.6718 -0.0297 -0.0810
 4977SOL    HW132073   3.221   5.049   6.651 -0.5669  0.1639  0.0167
 4977SOL    HW232074   3.206   5.011   6.797 -0.7479 -0.1196 -0.0744
 4978SOL     OW32075   4.739   1.860   6.437 -0.1550  0.1176  0.2117
 4978SOL    HW132076   4.758   1.949   6.467 -1.4818 -0.2146  2.1571
 4978SOL    HW232077   4.647   1.863   6.412  0.4550 -0.0814 -2.3299
 4979SOL     OW32078   3.682   5.482   6.808  0.1458 -0.1980 -0.3548
 4979SOL    HW132079   3.610   5.440   6.761  0.1783  1.0399 -1.6070
 4979SOL    HW232080   3.757   5.425   6.794 -0.6642 -1.8405  1.5040
 4980SOL     OW32081   3.145   1.116   0.035  0.0545 -0.8132 -0.0871
 4980SOL    HW132082   3.216   1.053   0.047 -0.1210 -0.8575  0.7392
 4980SOL    HW232083   3.183   1.201   0.058  0.2332 -0.6322 -1.0058
 4981SOL     OW32084   6.373   2.158   7.496 -0.7450 -0.0563 -0.5247
 4981SOL    HW132085   6.440   2.187   7.435  1.3097 -0.6239  1.3105
 4981SOL    HW232086   6.357   2.067   7.473  1.0335 -0.6849  0.5432
 4982SOL     OW32087   2.937   4.970   7.417  0.3275 -0.2118 -0.0705
 4982SOL    HW132088   2.851   4.928   7.408 -0.5117  0.9338  1.9493
 4982SOL    HW232089   2.924   5.059   7.386  0.3346  0.4227  1.6562
 4983SOL     OW32090   2.812   4.891   0.900 -0.0147 -0.2002  0.6774
 4983SOL    HW132091   2.740   4.838   0.866  0.4698  0.6410 -1.9189
 4983SOL    HW232092   2.887   4.832   0.900  0.6534  0.4201 -2.7273
 4984SOL     OW32093   4.839   2.162   7.319 -0.0765 -0.2176 -0.5023
 4984SOL    HW132094   4.913   2.186   7.264  0.0843 -1.0292 -0.6482
 4984SOL    HW232095   4.828   2.237   7.378 -1.1923  1.3741 -2.5650
 4985SOL     OW32096   0.739   2.062   1.952 -0.1935  0.0340 -0.4897
 4985SOL    HW132097   0.687   2.142   1.948 -0.8181 -0.4122 -1.4268
 4985SOL    HW232098   0.810   2.084   2.012 -2.0589  0.2924  1.7657
 4986SOL     OW32099   6.358   5.680   7.268  0.1820  0.4115  0.3316
 4986SOL    HW132100   6.443   5.724   7.260 -0.3460  1.5084  0.5608
 4986SOL    HW232101   6.347   5.635   7.184  1.5385 -0.7898  0.7637
 4987SOL     OW32102   5.838   3.916   6.092 -0.3593  0.0338 -0.2875
 4987SOL    HW132103   5.817   3.844   6.152  0.1914 -0.5158 -0.7388
 4987SOL    HW232104   5.902   3.969   6.140 -0.8845  0.3156  0.1073
 4988SOL     OW32105   3.793   5.899   7.421 -0.3272 -0.0755  0.5834
 4988SOL    HW132106   3.727   5.963   7.393  0.8216  0.4396 -1.0790
 4988SOL    HW232107   3.867   5.952   7.449  0.6741 -0.6189 -0.9111
 4989SOL     OW32108   3.835   4.560   6.519 -0.3002  0.0481  0.3128
 4989SOL    HW132109   3.907   4.547   6.581  0.1217  2.0966  0.3109
 4989SOL    HW232110   3.786   4.633   6.555 -0.6879  0.5622 -1.1958
 4990SOL     OW32111   5.877   4.246   7.680 -0.8236  0.0586 -0.3818
 4990SOL    HW132112   5.903   4.279   7.594 -1.0400 -2.1657 -1.3923
 4990SOL    HW232113   5.950   4.189   7.707 -1.2815 -0.2054  0.3388
 4991SOL     OW32114   5.832   1.040   6.482  0.2263 -0.3648 -0.3263
 4991SOL    HW132115   5.738   1.030   6.468  0.3639 -1.4655 -0.5014
 4991SOL    HW232116   5.873   1.006   6.403  0.7695  0.7029 -0.5300
 4992SOL     OW32117   6.321   3.017   6.951 -0.5724 -0.0149 -0.2329
 4992SOL    HW132118   6.281   2.936   6.982  0.7760 -0.4557  0.4267
 4992SOL    HW232119   6.310   3.014   6.856  1.6763 -2.2726 -0.5337
 4993SOL     OW32120   0.749   0.959   7.532 -0.9426 -0.6644  0.1407
 4993SOL    HW132121   0.711   1.045   7.516 -0.2483 -0.4521 -0.4522
 4993SOL    HW232122   0.745   0.914   7.447  1.2876 -0.1418 -0.3111
 4994SOL     OW32123   4.506   5.854   6.638 -0.5212 -0.0168  0.2900
 4994SOL    HW132124   4.427   5.846   6.691 -0.6059 -0.5796  0.0793
 4994SOL    HW232125   4.559   5.778   6.661 -0.9482 -0.7588 -1.0778
 4995SOL     OW32126   5.606   3.593   0.028 -0.2311 -0.0997 -0.5615
 4995SOL    HW132127   5.535   3.561   0.084 -3.4708 -0.3153 -4.3334
 4995SOL    HW232128   5.581   3.683   0.007  0.9355  0.0216 -1.5129
 4996SOL     OW32129   3.939   5.341   7.207  0.0881  0.9349 -0.0375
 4996SOL    HW132130   3.926   5.300   7.293 -2.6924 -0.3542 -0.9771
 4996SOL    HW232131   4.000   5.282   7.162 -0.1120  0.4642  0.2991
 4997SOL     OW32132   3.998   4.962   5.584 -0.4073 -0.1652  0.2865
 4997SOL    HW132133   3.974   4.938   5.674 -1.1634  0.0098  0.1300
 4997SOL    HW232134   4.064   5.031   5.595  0.1664 -0.7623  0.7104
 4998SOL     OW32135   1.882   0.476   0.016  0.3367 -0.1293 -0.0287
 4998SOL    HW132136   1.843   0.502  -0.068  0.1849 -0.7852 -0.1658
 4998SOL    HW232137   1.921   0.390  -0.002 -1.9825 -1.5317  1.2330
 4999SOL     OW32138   1.749   0.811   7.153 -0.0096 -0.1828 -0.5228
 4999SOL    HW132139   1.693   0.887   7.166  0.6837  0.5423 -1.5618
 4999SOL    HW232140   1.833   0.836   7.190  0.4768 -0.0836 -1.6632
 5000SOL     OW32141   6.083   5.479   7.673 -0.5355  0.3190 -0.5400
 5000SOL    HW132142   6.080   5.570   7.644 -2.9539  0.4367 -0.1396
 5000SOL    HW232143   6.035   5.431   7.606 -1.7970 -0.1624  0.6543
 5001SOL     OW32144   6.115   1.895   1.269 -0.2297 -0.0376 -0.2869
 5001SOL    HW132145   6.024   1.912   1.293 -0.3293  0.6289 -1.1058
 5001SOL    HW232146   6.127   1.938   1.184  0.6532 -0.7025 -0.5250
 5002SOL     OW32147   4.713   6.116   1.004 -0.0907  0.3025 -0.0402
 5002SOL    HW132148   4.697   6.168   1.083  0.4000 -1.5628  1.3472
 5002SOL    HW232149   4.676   6.030   1.024  0.0434 -0.2232 -1.8678
 5003SOL     OW32150   4.352   2.415   6.151  0.3033  0.1649  0.1352
 5003SOL    HW132151   4.311   2.414   6.064 -0.4560  0.9870  0.4655
 5003SOL    HW232152   4.339   2.505   6.182  0.8872 -0.0272  0.9528
 5004SOL     OW32153   5.833   1.005   0.437 -0.3241  0.1429  0.5812
 5004SOL    HW132154   5.747   1.046   0.440 -0.7412 -0.7316  2.6817
 5004SOL    HW232155   5.828   0.934   0.501  2.3569  0.9048  1.7748
 5005SOL     OW32156   1.968   2.364   0.559 -0.0325 -0.0347 -0.5047
 5005SOL    HW132157   1.891   2.420   0.553  0.3256  0.7687  1.4910
 5005SOL    HW232158   2.041   2.426   0.569  0.1582 -0.6679  4.0976
 5006SOL     OW32159   6.005   5.251   7.005 -0.3159 -0.3593  0.5554
 5006SOL    HW132160   5.960   5.329   7.038  0.8568  0.4518  0.3028
 5006SOL    HW232161   6.092   5.255   7.045  0.2631 -0.7360 -0.6075
 5007SOL     OW32162   0.860   4.197   7.348  0.0094  0.5445 -0.5991
 5007SOL    HW132163   0.875   4.165   7.260 -1.5544 -1.2316 -0.2743
 5007SOL    HW232164   0.779   4.247   7.342 -2.0974 -2.4683  0.3562
 5008SOL     OW32165   0.040   0.274   0.902 -0.4674 -0.4597  0.1153
 5008SOL    HW132166   0.031   0.299   0.810  0.6125 -0.3592  0.0183
 5008SOL    HW232167   0.071   0.183   0.899  0.5904 -0.1230  0.3357
 5009SOL     OW32168   0.469   0.180   7.003  0.1745  0.1223  0.9147
 5009SOL    HW132169   0.475   0.120   7.078 -2.9257 -1.1643  0.2836
 5009SOL    HW232170   0.552   0.167   6.955  1.4214 -0.3816  3.0778
 5010SOL     OW32171   5.407   0.833   2.160  0.7086 -0.2752 -0.2940
 5010SOL    HW132172   5.463   0.760   2.135 -0.5735 -1.6474  0.6678
 5010SOL    HW232173   5.355   0.800   2.233  0.3805  1.7450  0.4600
 5011SOL     OW32174   0.171   5.678   6.477 -0.0359  0.0549 -0.6471
 5011SOL    HW132175   0.223   5.741   6.526  0.9860  0.1857 -1.8349
 5011SOL    HW232176   0.184   5.595   6.523  1.1221  0.1245 -0.8237
 5012SOL     OW32177   5.832   0.733   6.237 -0.2231 -0.1879  0.0925
 5012SOL    HW132178   5.908   0.791   6.240 -1.3447  1.3037  1.1897
 5012SOL    HW232179   5.756   0.791   6.240 -1.4102 -1.6759  0.9212
 5013SOL     OW32180   1.939   0.857   1.817 -0.0877 -0.1821  0.3767
 5013SOL    HW132181   1.931   0.892   1.905 -1.3851 -1.8771  0.9917
 5013SOL    HW232182   1.885   0.778   1.818  1.4655 -1.3455 -1.3501
 5014SOL     OW32183   0.437   3.562   6.903 -0.3689  0.1146 -0.5567
 5014SOL    HW132184   0.372   3.556   6.834  0.4743 -1.1363 -1.2793
 5014SOL    HW232185   0.410   3.497   6.968 -0.7737  0.8017 -0.0146
 5015SOL     OW32186   0.535   4.331   7.749  0.2848 -0.6094  0.7152
 5015SOL    HW132187   0.502   4.408   7.702  1.4126  1.6144  3.3018
 5015SOL    HW232188   0.520   4.258   7.689 -0.3891  1.6631 -2.0925
 5016SOL     OW32189   0.754   2.750   6.960  0.1838 -0.1241 -0.7438
 5016SOL    HW132190   0.689   2.751   7.031 -1.9663  0.8298 -2.6017
 5016SOL    HW232191   0.719   2.810   6.894  2.3323 -0.5871 -2.4306
 5017SOL     OW32192   6.385   2.882   0.882 -0.2162 -0.2617 -0.5235
 5017SOL    HW132193   6.436   2.932   0.945  0.2100  0.8981 -1.7422
 5017SOL    HW232194   6.341   2.947   0.829  2.0500 -0.9685 -3.5766
 5018SOL     OW32195   3.196   1.749   0.287  0.3474 -0.5010  0.1592
 5018SOL    HW132196   3.108   1.712   0.278 -0.2769  0.6329  1.2522
 5018SOL    HW232197   3.188   1.814   0.357  1.5378  1.2410 -1.2267
 5019SOL     OW32198   4.477   1.367   6.239  0.4248 -0.5302  0.4797
 5019SOL    HW132199   4.440   1.366   6.150  2.5621  0.1351 -0.4676
 5019SOL    HW232200   4.417   1.312   6.290 -0.9432 -0.8065 -1.3195
 5020SOL     OW32201   4.997   5.042   7.253  0.0678 -0.0309  0.1951
 5020SOL    HW132202   4.933   4.982   7.214 -0.4341 -0.5221  1.6919
 5020SOL    HW232203   5.003   5.014   7.345 -0.7510  2.6435  1.1551
 5021SOL     OW32204   0.240   1.106   1.456  0.1997  0.1540  0.4903
 5021SOL    HW132205   0.164   1.165   1.460  1.1003  1.2878  2.6352
 5021SOL    HW232206   0.203   1.019   1.474 -1.0040  0.1557 -1.7050
 5022SOL     OW32207   5.691   0.143   0.542 -0.1407 -0.0100 -0.5767
 5022SOL    HW132208   5.632   0.218   0.541 -1.8332 -1.2741 -0.2899
 5022SOL    HW232209   5.634   0.068   0.558  1.6872 -1.1924  0.8208
 5023SOL     OW32210   0.515   0.169   5.915  0.1880  0.3466  0.2718
 5023SOL    HW132211   0.548   0.157   6.004  0.6899  1.5036  0.2596
 5023SOL    HW232212   0.421   0.153   5.922  0.1428  0.9339  1.1139
 5024SOL     OW32213   4.406   2.110   7.153  0.0637 -0.3240  0.1426
 5024SOL    HW132214   4.358   2.032   7.125 -0.3991  0.2509 -0.7089
 5024SOL    HW232215   4.498   2.089   7.137  0.2366 -1.7111  2.4526
 5025SOL     OW32216   0.164   0.881   6.181 -0.3113  0.3680  0.2213
 5025SOL    HW132217   0.190   0.969   6.211  2.4081 -0.2767  0.0153
 5025SOL    HW232218   0.151   0.891   6.087  0.5794  0.4572  0.0995
 5026SOL     OW32219   3.213   5.270   5.412  0.7697 -0.2642  0.2516
 5026SOL    HW132220   3.293   5.296   5.367  1.0223  0.0431  0.8681
 5026SOL    HW232221   3.213   5.175   5.407  1.6663 -0.3174  1.0818
 5027SOL     OW32222   3.507   6.407   6.876 -0.2648  0.0413 -0.5894
 5027SOL    HW132223   3.431   6.392   6.820 -0.8821 -3.2470  0.9068
 5027SOL    HW232224   3.469   6.433   6.960  0.4217  0.7601 -0.4970
 5028SOL     OW32225   5.397   4.486   6.554  0.4802 -0.2732  0.0611
 5028SOL    HW132226   5.388   4.450   6.642 -0.5387  0.2056  0.1694
 5028SOL    HW232227   5.474   4.542   6.558 -0.0490  0.4251  0.9002
 5029SOL     OW32228   4.002   0.993   0.905 -0.0858 -0.0324 -0.2843
 5029SOL    HW132229   3.925   0.940   0.883 -0.4816  0.4913 -0.1710
 5029SOL    HW232230   4.070   0.929   0.927 -0.8187 -0.4859  0.7156
 5030SOL     OW32231   0.077   1.621   0.205 -0.4050  0.5301 -0.1100
 5030SOL    HW132232   0.078   1.695   0.145  0.2142 -0.7218 -1.7133
 5030SOL    HW232233  -0.014   1.590   0.205 -1.0177  2.1538  1.7504
 5031SOL     OW32234   0.865   0.956   6.444  0.1137 -0.2457  0.0359
 5031SOL    HW132235   0.833   0.914   6.364  0.7334 -1.5494  0.4403
 5031SOL    HW232236   0.802   1.027   6.460 -0.2491 -0.2020 -1.3715
 5032SOL     OW32237   4.559   3.874   7.320 -0.1046 -0.4561  0.8143
 5032SOL    HW132238   4.567   3.886   7.415 -1.5588 -1.2579  1.0762
 5032SOL    HW232239   4.644   3.900   7.285 -0.1157  1.6419  2.1437
 5033SOL     OW32240   1.060   6.023   5.930 -0.0666 -0.1287  0.2979
 5033SOL    HW132241   0.991   6.088   5.929 -0.3358 -0.4130 -0.0212
 5033SOL    HW232242   1.014   5.939   5.930  0.2689 -0.3218 -0.2229
 5034SOL     OW32243   1.665   1.365   6.815  0.3908 -0.2059 -0.3087
 5034SOL    HW132244   1.707   1.287   6.852 -1.6373 -0.7548  1.0283
 5034SOL    HW232245   1.571   1.345   6.819 -0.2173  2.4508  0.4380
 5035SOL     OW32246   4.012   1.634   2.475 -0.2525  0.1569  0.1325
 5035SOL    HW132247   4.068   1.613   2.549  0.2196  0.1900 -0.2086
 5035SOL    HW232248   3.936   1.576   2.484  0.4489 -0.8198 -0.1159
 5036SOL     OW32249   5.312   3.741   5.551 -0.3444 -0.2833  0.4111
 5036SOL    HW132250   5.312   3.748   5.646  0.4885 -3.4283  0.7668
 5036SOL    HW232251   5.398   3.775   5.525 -0.0070 -0.6783  0.9729
 5037SOL     OW32252   5.157   4.892   1.492  0.4434  0.5746  0.6897
 5037SOL    HW132253   5.145   4.848   1.575 -0.4654 -0.7523 -0.1124
 5037SOL    HW232254   5.201   4.975   1.514  0.8166 -0.0494  2.3809
 5038SOL     OW32255   1.545   4.582   0.391  0.5501  0.5020 -0.1242
 5038SOL    HW132256   1.594   4.638   0.451 -0.8203  0.7935  0.7712
 5038SOL    HW232257   1.547   4.629   0.307  0.7185  1.1226  0.2206
 5039SOL     OW32258   0.645   4.061   6.231 -0.0605  0.2687  0.2088
 5039SOL    HW132259   0.626   3.993   6.166 -2.0682 -0.0760  1.0484
 5039SOL    HW232260   0.740   4.064   6.237  0.1410 -0.3015 -2.0712
 5040SOL     OW32261   0.182   3.718   7.615 -0.0698  0.6187 -0.3468
 5040SOL    HW132262   0.248   3.728   7.683 -1.5186  2.4910  0.8592
 5040SOL    HW232263   0.232   3.697   7.536  1.7361 -0.4478  0.9978
 5041SOL     OW32264   1.202   0.776   7.219  1.0085 -0.0694  0.2138
 5041SOL    HW132265   1.258   0.854   7.214 -0.3623  0.8771 -1.5150
 5041SOL    HW232266   1.150   0.789   7.298  2.2304 -0.2917  1.0848
 5042SOL     OW32267   0.241   5.716   6.220  0.3492 -0.2387  0.1235
 5042SOL    HW132268   0.177   5.744   6.154  1.6342 -2.3542 -2.2168
 5042SOL    HW232269   0.191   5.710   6.301 -1.8388  0.4633 -1.0833
 5043SOL     OW32270   1.313   5.677   0.534 -0.2127  0.3669  0.0512
 5043SOL    HW132271   1.246   5.649   0.597 -0.4162  0.5394 -0.0870
 5043SOL    HW232272   1.394   5.680   0.585 -0.2338 -0.2295  0.1247
 5044SOL     OW32273   2.942   0.705   6.944  0.4504 -0.4119 -0.1940
 5044SOL    HW132274   3.026   0.740   6.914 -0.8357  0.2201 -3.4235
 5044SOL    HW232275   2.964   0.624   6.990  2.8008 -0.3152 -1.0412
 5045SOL     OW32276   0.474   4.047   0.485 -0.5332  0.3335 -0.1772
 5045SOL    HW132277   0.522   4.063   0.404 -1.1769 -1.4492 -0.9673
 5045SOL    HW232278   0.540   4.011   0.544 -0.7285 -1.7137 -1.1188
 5046SOL     OW32279   5.565   0.363   0.851  0.0422 -0.1236 -0.0644
 5046SOL    HW132280   5.537   0.309   0.777  1.3548  1.0281 -1.4541
 5046SOL    HW232281   5.642   0.410   0.819  0.8298  0.2025  2.1353
 5047SOL     OW32282   0.238   0.864   6.991  0.6881 -0.3028  0.4687
 5047SOL    HW132283   0.264   0.802   6.923 -0.7465 -0.0924 -0.3260
 5047SOL    HW232284   0.144   0.877   6.975  0.8983  1.8486  0.7906
 5048SOL     OW32285   5.394   4.698   6.804 -0.3221  0.0045 -0.0690
 5048SOL    HW132286   5.438   4.615   6.822  0.8515  0.8597  1.2274
 5048SOL    HW232287   5.428   4.726   6.719 -0.0217 -0.3956 -0.0801
 5049SOL     OW32288   0.056   4.971   7.243  0.0375  0.2790 -0.0328
 5049SOL    HW132289   0.063   5.065   7.226  0.5049  0.4152  0.8958
 5049SOL    HW232290  -0.002   4.965   7.319 -1.9053 -0.3208 -1.4635
 5050SOL     OW32291   5.409   5.283   0.932 -0.3723  0.1431 -0.0139
 5050SOL    HW132292   5.328   5.328   0.909 -1.2360 -1.3158  0.0199
 5050SOL    HW232293   5.472   5.312   0.866 -1.1318  0.7098 -0.5082
 5051SOL     OW32294   1.572   0.735   5.789 -0.2165  0.3621 -0.3704
 5051SOL    HW132295   1.604   0.647   5.770  3.2065  1.6213 -1.1951
 5051SOL    HW232296   1.524   0.760   5.710  0.1674 -0.1754 -0.7829
 5052SOL     OW32297   5.805   6.391   7.229  0.3068  0.0465  0.2644
 5052SOL    HW132298   5.782   6.466   7.174  0.7065 -1.2046 -1.6993
 5052SOL    HW232299   5.731   6.331   7.219  0.6280 -0.4285  0.7128
 5053SOL     OW32300   0.636   4.083   6.802  0.3670 -0.3170 -0.2580
 5053SOL    HW132301   0.599   4.020   6.863 -2.3377  0.4633 -0.9625
 5053SOL    HW232302   0.642   4.036   6.719  3.0685 -1.0616  0.2662
 5054SOL     OW32303   0.582   0.797   0.601 -0.3268 -0.6343 -0.8973
 5054SOL    HW132304   0.528   0.873   0.624 -0.1014 -0.7585  0.0529
 5054SOL    HW232305   0.524   0.722   0.613 -0.2570 -0.6890 -0.9010
 5055SOL     OW32306   5.486   3.636   6.742  0.1757 -0.0498 -0.0936
 5055SOL    HW132307   5.479   3.700   6.671  1.6096 -0.0878 -0.2990
 5055SOL    HW232308   5.515   3.686   6.818 -0.5037 -0.1586  0.2444
 5056SOL     OW32309   6.198   5.185   0.589  0.1791  0.6618 -0.8073
 5056SOL    HW132310   6.187   5.111   0.529 -1.6115  0.4284 -0.2620
 5056SOL    HW232311   6.292   5.195   0.597  0.5152 -1.8042 -0.6490
 5057SOL     OW32312   2.868   1.608   5.642 -0.0234 -0.4426 -0.7917
 5057SOL    HW132313   2.950   1.574   5.679 -0.7687  0.2825  1.6604
 5057SOL    HW232314   2.805   1.538   5.655 -0.7892  0.5852  1.3114
 5058SOL     OW32315   3.277   6.297   6.468  0.4694  0.6133  0.3607
 5058SOL    HW132316   3.280   6.268   6.559  0.1688 -0.0789  0.1564
 5058SOL    HW232317   3.369   6.308   6.443  0.6540 -1.0849  0.1700
 5059SOL     OW32318   5.097   1.651   0.936  0.0279 -0.0495  0.9055
 5059SOL    HW132319   5.123   1.562   0.911  1.8671  0.1568  1.8869
 5059SOL    HW232320   5.004   1.645   0.955 -0.6691 -1.0324 -2.1641
 5060SOL     OW32321   3.203   2.585   2.555 -0.6202 -0.1282  0.1822
 5060SOL    HW132322   3.127   2.638   2.579 -2.4680 -2.7306  0.4501
 5060SOL    HW232323   3.254   2.576   2.636  0.1267  1.6951 -0.0198
 5061SOL     OW32324   3.010   3.384   1.909  0.5511 -0.1026  0.2328
 5061SOL    HW132325   2.935   3.442   1.896 -0.6333 -1.4805  0.6086
 5061SOL    HW232326   3.056   3.421   1.985 -0.3676  0.1734  0.6698
 5062SOL     OW32327   4.391   3.483   1.336 -0.0862  0.1813  0.2597
 5062SOL    HW132328   4.461   3.519   1.281  0.1787  1.7017  1.5103
 5062SOL    HW232329   4.311   3.524   1.302 -0.3372 -1.1905 -0.8664
 5063SOL     OW32330   0.955   5.031   0.218  0.2165  0.3543 -0.0932
 5063SOL    HW132331   1.016   5.023   0.144  0.2897  1.3144 -0.1401
 5063SOL    HW232332   0.868   5.036   0.178  0.2592  0.9137 -0.1201
 5064SOL     OW32333   5.491   4.325   0.969 -0.0606  0.2972 -0.2032
 5064SOL    HW132334   5.554   4.396   0.964 -1.4615  1.5517 -0.8794
 5064SOL    HW232335   5.487   4.301   1.062  0.3833  1.1524  0.0390
 5065SOL     OW32336   1.859   1.373   0.095  0.1634  0.0650 -0.4738
 5065SOL    HW132337   1.938   1.365   0.149 -0.1012  1.1342  0.1188
 5065SOL    HW232338   1.867   1.459   0.054  0.7432 -1.0376 -2.8392
 5066SOL     OW32339   5.773   5.451   0.119 -0.3131 -0.4655  0.2117
 5066SOL    HW132340   5.698   5.400   0.149 -0.4876  0.4154  1.3527
 5066SOL    HW232341   5.762   5.537   0.160  0.0194  0.4759 -1.5737
 5067SOL     OW32342   5.046   3.731   0.407  0.3343  0.7279 -0.1639
 5067SOL    HW132343   5.053   3.752   0.314 -1.8379 -0.5160 -0.6918
 5067SOL    HW232344   5.076   3.641   0.414 -0.2294  0.5622  0.1924
 5068SOL     OW32345   5.755   1.211   0.761  0.1326  0.0290  0.4513
 5068SOL    HW132346   5.812   1.287   0.764  1.1104 -0.7268  2.1837
 5068SOL    HW232347   5.733   1.201   0.668  1.0999  1.5761  0.0259
 5069SOL     OW32348   3.242   0.959   0.695 -0.4699 -0.4737 -0.5500
 5069SOL    HW132349   3.218   0.915   0.613  1.0291  1.1196 -1.8992
 5069SOL    HW232350   3.209   1.048   0.685  0.7748  0.0739  0.0541
 5070SOL     OW32351   2.413   6.303   1.182 -0.0546  0.0206 -0.3076
 5070SOL    HW132352   2.443   6.319   1.093  0.0990 -0.1327 -0.2835
 5070SOL    HW232353   2.322   6.278   1.173  0.6144 -2.5173 -0.6517
 5071SOL     OW32354   5.868   0.473   6.962 -0.2431 -0.0111 -0.0655
 5071SOL    HW132355   5.857   0.531   7.037 -1.8563  1.3844 -1.2818
 5071SOL    HW232356   5.780   0.463   6.926  0.3231 -1.5266 -1.1341
 5072SOL     OW32357   1.325   1.359   0.370  0.2093  0.1861 -0.4385
 5072SOL    HW132358   1.327   1.430   0.435  0.7710 -0.2584  0.0379
 5072SOL    HW232359   1.372   1.395   0.295  0.8928  0.1672 -0.0302
 5073SOL     OW32360   2.639   5.793   0.228  0.5480 -0.5263 -0.1882
 5073SOL    HW132361   2.701   5.803   0.156  0.1839  0.4049 -0.3878
 5073SOL    HW232362   2.620   5.883   0.256  1.2716 -0.8934  1.5962
 5074SOL     OW32363   0.475   0.160   0.434  0.4157  0.2720  0.1660
 5074SOL    HW132364   0.524   0.103   0.494 -3.3986 -1.3190  2.1480
 5074SOL    HW232365   0.414   0.101   0.390 -1.7353  2.3618  0.1285
 5075SOL     OW32366   0.325   3.136   1.696  0.0545 -0.3509 -0.2070
 5075SOL    HW132367   0.387   3.190   1.745  0.9944  0.0963 -1.8111
 5075SOL    HW232368   0.252   3.124   1.756  0.3778  1.6203  0.6893
 5076SOL     OW32369   3.567   2.632   2.520 -0.1366 -0.0767 -0.5475
 5076SOL    HW132370   3.651   2.587   2.520 -0.1547 -0.1116 -1.2479
 5076SOL    HW232371   3.521   2.597   2.444 -0.1218  1.1954 -1.1492
 5077SOL     OW32372   5.827   5.952   6.979  0.3679 -0.2551  0.2034
 5077SOL    HW132373   5.786   5.875   6.939  0.7242  0.3022 -1.3305
 5077SOL    HW232374   5.869   5.997   6.905 -1.0839  2.2201  0.7672
 5078SOL     OW32375   1.174   6.102   7.020 -0.3539  0.4211  0.0154
 5078SOL    HW132376   1.133   6.072   6.939  1.0039  0.3272 -0.6503
 5078SOL    HW232377   1.220   6.182   6.996  1.6055 -0.5736  0.2195
 5079SOL     OW32378   1.785   5.213   0.899 -0.5469 -0.0757 -0.1944
 5079SOL    HW132379   1.865   5.195   0.948 -1.1428 -1.6624  0.2609
 5079SOL    HW232380   1.723   5.244   0.966 -0.4646  0.7158 -0.4718
 5080SOL     OW32381   1.752   0.836   0.620  0.1659 -0.1497 -0.0415
 5080SOL    HW132382   1.747   0.805   0.529 -1.8541 -0.9773  0.3007
 5080SOL    HW232383   1.698   0.915   0.621  1.9959  1.1596 -0.0054
 5081SOL     OW32384   2.353   5.769   0.409 -0.7609  0.2990 -0.6101
 5081SOL    HW132385   2.404   5.702   0.455  0.7221  2.3160  0.8653
 5081SOL    HW232386   2.306   5.815   0.478 -2.4506  0.2785 -1.6848
 5082SOL     OW32387   1.475   4.592   1.014 -0.3381 -0.1643  0.3055
 5082SOL    HW132388   1.501   4.565   1.102  0.2461 -1.3032 -0.1957
 5082SOL    HW232389   1.454   4.510   0.969 -1.9371  0.4959 -0.2261
 5083SOL     OW32390   1.126   6.427   6.434  0.7240  0.2546 -0.0961
 5083SOL    HW132391   1.088   6.502   6.480  1.8225  0.3685  0.6782
 5083SOL    HW232392   1.051   6.375   6.406 -0.0021  0.1719  1.8832
 5084SOL     OW32393   5.929   6.044   6.720  0.2731  0.5960  0.2289
 5084SOL    HW132394   5.954   6.088   6.801  0.6350  0.4696  0.1857
 5084SOL    HW232395   5.927   6.114   6.655 -1.2170  0.9272  0.5847
 5085SOL     OW32396   5.484   0.312   6.548 -0.3929 -0.6350 -0.8112
 5085SOL    HW132397   5.501   0.220   6.530  0.4474 -0.5287 -0.6108
 5085SOL    HW232398   5.432   0.311   6.629  1.8037 -0.8848  0.7101
 5086SOL     OW32399   1.789   4.625   6.171 -0.2507 -0.6261  0.2950
 5086SOL    HW132400   1.777   4.536   6.137  0.2224 -0.8825  0.7721
 5086SOL    HW232401   1.762   4.619   6.263 -0.4512 -0.2140  0.2648
 5087SOL     OW32402   4.537   2.609   1.114 -0.2278 -0.7786  0.5917
 5087SOL    HW132403   4.567   2.599   1.023 -1.4018  2.2134 -0.2249
 5087SOL    HW232404   4.594   2.676   1.151 -1.2525 -0.2637  1.2930
 5088SOL     OW32405   0.139   2.852   1.676 -0.1302  0.1806  0.1072
 5088SOL    HW132406   0.049   2.821   1.691 -0.0540 -0.3623 -0.5212
 5088SOL    HW232407   0.150   2.924   1.738 -0.4364 -0.8287  1.3867
 5089SOL     OW32408   6.209   5.041   6.568  0.3028  0.0866 -0.2962
 5089SOL    HW132409   6.168   5.107   6.623  0.6001  0.8395 -0.9595
 5089SOL    HW232410   6.266   4.991   6.628 -0.0961  0.2823  0.2469
 5090SOL     OW32411   6.259   5.907   1.432 -0.9923  0.4199 -0.1297
 5090SOL    HW132412   6.251   6.002   1.443 -0.0951  0.5079 -0.1610
 5090SOL    HW232413   6.242   5.871   1.519  0.8415  0.7670  0.4071
 5091SOL     OW32414   1.937   6.323   1.129  0.0421  0.4771 -0.1209
 5091SOL    HW132415   1.992   6.362   1.061 -1.1812 -0.5672 -1.7838
 5091SOL    HW232416   1.904   6.397   1.179  0.6370  1.3119 -0.9381
 5092SOL     OW32417   0.197   3.800   1.815  0.2906 -0.1152  0.1804
 5092SOL    HW132418   0.239   3.791   1.730  0.3858  1.0008  0.0946
 5092SOL    HW232419   0.263   3.773   1.878 -0.0091 -1.6206 -0.1145
 5093SOL     OW32420   0.458   4.255   5.502  0.1198  0.3377 -0.3499
 5093SOL    HW132421   0.525   4.301   5.452 -0.2257  0.6776 -0.4977
 5093SOL    HW232422   0.431   4.317   5.570 -0.5838  0.4879 -0.7539
 5094SOL     OW32423   2.702   1.054   7.195 -0.0020  0.7754 -0.3182
 5094SOL    HW132424   2.795   1.061   7.176  0.0403 -0.3732 -0.6082
 5094SOL    HW232425   2.696   0.992   7.268 -0.5980 -0.3319 -1.2541
 5095SOL     OW32426   2.258   0.253   5.944  0.7374 -0.6709  0.2943
 5095SOL    HW132427   2.267   0.287   5.855  1.2466 -1.2673  0.1124
 5095SOL    HW232428   2.207   0.173   5.934 -0.0557 -0.2219  0.6655
 5096SOL     OW32429   2.172   3.134   5.171 -0.2175 -0.0982  0.0491
 5096SOL    HW132430   2.218   3.161   5.250 -0.0780  1.7758 -0.6074
 5096SOL    HW232431   2.079   3.151   5.191 -0.0934  1.3694 -0.5106
 5097SOL     OW32432   0.714   0.512   7.396  0.0133  0.1779  0.3609
 5097SOL    HW132433   0.758   0.535   7.314 -1.6241 -0.1247 -0.6329
 5097SOL    HW232434   0.623   0.496   7.372 -0.2545 -1.1668  2.0350
 5098SOL     OW32435   4.838   2.581   0.625 -0.8666  0.6225  0.2534
 5098SOL    HW132436   4.898   2.617   0.690  0.1595  1.3801 -1.0531
 5098SOL    HW232437   4.895   2.546   0.556 -1.9095  1.2700 -0.9841
 5099SOL     OW32438   5.775   5.679   6.803 -0.2243 -0.0217 -0.1810
 5099SOL    HW132439   5.699   5.643   6.849  0.4121 -0.0742  0.8634
 5099SOL    HW232440   5.739   5.726   6.728 -1.3261  0.4914  0.6554
 5100SOL     OW32441   5.978   5.504   6.792  0.1752  0.0389 -0.4839
 5100SOL    HW132442   6.037   5.540   6.858  0.2614  1.4153 -1.2747
 5100SOL    HW232443   5.897   5.553   6.803 -0.6141 -1.3459  0.1202
 5101SOL     OW32444   1.360   5.068   1.156  0.7468  0.4123  0.3621
 5101SOL    HW132445   1.320   4.981   1.156  1.7839 -0.0788 -0.0590
 5101SOL    HW232446   1.354   5.097   1.247  1.1323 -0.4458  0.6685
 5102SOL     OW32447   2.350   0.165   7.273 -0.1685  0.4735  0.3602
 5102SOL    HW132448   2.320   0.196   7.187 -1.5946 -1.0915  0.2455
 5102SOL    HW232449   2.363   0.245   7.324 -0.0085  1.4031 -1.0721
 5103SOL     OW32450   3.473   5.371   1.783 -0.5143  0.3879  0.4413
 5103SOL    HW132451   3.530   5.295   1.785  0.0811  0.7447 -1.0496
 5103SOL    HW232452   3.528   5.441   1.748 -2.0430  0.5363 -1.9231
 5104SOL     OW32453   6.087   5.082   0.244 -0.1658  0.0930  0.8065
 5104SOL    HW132454   6.076   5.168   0.203  0.0306 -0.6018 -0.7838
 5104SOL    HW232455   5.998   5.057   0.271 -0.4696  0.1958 -0.0426
 5105SOL     OW32456   5.276   4.986   6.307  0.0204 -0.0677  0.7639
 5105SOL    HW132457   5.207   4.962   6.244  0.0496 -1.2055  1.1386
 5105SOL    HW232458   5.278   5.082   6.304 -0.6793 -0.0571 -0.2140
 5106SOL     OW32459   0.139   2.228   0.544 -0.0655  0.0351 -0.2087
 5106SOL    HW132460   0.075   2.297   0.529 -2.0123 -1.4824  0.6370
 5106SOL    HW232461   0.127   2.204   0.636  0.1141 -1.7786 -0.6089
 5107SOL     OW32462   0.713   1.838   7.093  0.2458  0.1133 -0.2688
 5107SOL    HW132463   0.644   1.895   7.059 -0.0546 -0.0771  0.0268
 5107SOL    HW232464   0.794   1.886   7.074  0.0101  0.5241 -0.2488
 5108SOL     OW32465   1.335   1.749   6.430  0.1242  0.4384 -0.2371
 5108SOL    HW132466   1.256   1.803   6.417 -1.0546 -0.7413  1.5323
 5108SOL    HW232467   1.307   1.661   6.407  0.4100 -0.2603  1.9003
 5109SOL     OW32468   4.113   1.553   6.540  0.6297  0.7821 -0.6710
 5109SOL    HW132469   4.139   1.580   6.452 -0.5873  0.2551 -1.2175
 5109SOL    HW232470   4.191   1.510   6.576  0.8539  0.1506 -1.8487
 5110SOL     OW32471   4.918   0.764   6.149  0.7838 -0.1504 -0.0568
 5110SOL    HW132472   4.938   0.858   6.149 -1.3265  0.3449 -0.5135
 5110SOL    HW232473   4.839   0.757   6.202 -0.5152 -1.3268 -2.0602
 5111SOL     OW32474   3.869   1.665   1.549 -0.1923  0.2217 -0.3106
 5111SOL    HW132475   3.939   1.652   1.613  2.1996  0.6542 -2.6662
 5111SOL    HW232476   3.823   1.581   1.547  0.0693 -0.0057  1.4791
 5112SOL     OW32477   0.842   5.647   6.149  0.3190  0.3169  0.1688
 5112SOL    HW132478   0.911   5.604   6.098 -1.6699 -1.8493 -0.8841
 5112SOL    HW232479   0.765   5.645   6.092 -0.6522  2.7694  1.2398
 5113SOL     OW32480   2.619   4.180   1.669 -0.3554 -0.4106 -0.1352
 5113SOL    HW132481   2.675   4.250   1.633 -1.4526  0.2083 -0.6896
 5113SOL    HW232482   2.631   4.187   1.764  0.3604 -0.1588 -0.2396
 5114SOL     OW32483   2.803   3.725   6.826 -0.0579  0.6144 -0.0897
 5114SOL    HW132484   2.822   3.777   6.904  1.3947 -0.3325  0.2188
 5114SOL    HW232485   2.875   3.743   6.766  1.6535 -2.5505  0.8355
 5115SOL     OW32486   5.759   5.309   6.021 -0.3403  0.2539 -0.0364
 5115SOL    HW132487   5.685   5.325   5.962 -0.9500 -0.1189  0.6183
 5115SOL    HW232488   5.819   5.382   6.004  0.6719 -1.0659 -2.8718
 5116SOL     OW32489   2.845   1.805   2.547  0.7234 -0.2884 -0.1348
 5116SOL    HW132490   2.828   1.874   2.483  0.6114  0.6671  0.8842
 5116SOL    HW232491   2.782   1.737   2.526 -0.0369  0.4732 -0.3919
 5117SOL     OW32492   2.385   3.601   0.357  0.3822 -0.1510  0.1269
 5117SOL    HW132493   2.464   3.651   0.378  0.9665 -0.8079 -0.4624
 5117SOL    HW232494   2.328   3.613   0.433 -0.0802  2.5365 -0.5246
 5118SOL     OW32495   3.621   3.421   7.417 -0.5242  0.0631 -0.3104
 5118SOL    HW132496   3.671   3.459   7.344  0.0134 -0.5145 -0.2513
 5118SOL    HW232497   3.673   3.346   7.445 -1.6804 -0.8813 -0.5982
 5119SOL     OW32498   5.245   3.779   7.450 -0.4394  0.3399 -0.3683
 5119SOL    HW132499   5.228   3.837   7.524 -0.7705  0.6889 -0.7177
 5119SOL    HW232500   5.242   3.691   7.487 -1.7934  0.4453 -0.1880
 5120SOL     OW32501   4.438   2.314   1.411 -0.8487  0.9519 -0.3287
 5120SOL    HW132502   4.512   2.287   1.356 -0.9045  0.8268 -0.3419
 5120SOL    HW232503   4.478   2.342   1.494 -0.6583  2.1859 -0.8058
 5121SOL     OW32504   4.012   4.474   6.111 -0.0490 -0.2057 -0.2373
 5121SOL    HW132505   3.982   4.383   6.106  0.8831 -0.4350 -2.9427
 5121SOL    HW232506   4.060   4.478   6.194 -0.3484 -2.0963  0.0801
 5122SOL     OW32507   2.251   1.984   6.277 -0.5408  0.5999 -0.5143
 5122SOL    HW132508   2.186   1.920   6.305  1.7852 -0.8261  2.2230
 5122SOL    HW232509   2.252   2.049   6.348  0.3768  1.0592 -0.9299
 5123SOL     OW32510   0.905   0.890   1.825 -0.0580  0.4606 -0.1558
 5123SOL    HW132511   0.870   0.977   1.847  1.1735  1.1080 -0.6950
 5123SOL    HW232512   0.998   0.896   1.843  0.0248 -0.8122 -0.0748
 5124SOL     OW32513   3.304   2.051   1.445  0.4254 -0.4006  0.2480
 5124SOL    HW132514   3.216   2.086   1.428 -0.4595 -2.4242  0.2717
 5124SOL    HW232515   3.360   2.128   1.453 -1.3132  0.9504  0.0555
 5125SOL     OW32516   3.051   5.301   1.535 -0.5381  0.0179 -0.4919
 5125SOL    HW132517   3.029   5.209   1.523  0.6325 -0.6470  1.8477
 5125SOL    HW232518   3.141   5.308   1.504  0.0125 -0.0866  1.0154
 5126SOL     OW32519   0.402   1.800   7.370 -0.2173  0.3040 -0.4350
 5126SOL    HW132520   0.377   1.709   7.391  0.3955  0.3968  0.7524
 5126SOL    HW232521   0.457   1.827   7.443  1.3245  0.9541 -1.7827
 5127SOL     OW32522   2.529   5.563   0.517  0.2413  0.1158  0.0172
 5127SOL    HW132523   2.531   5.554   0.612  0.9423 -1.0905 -0.0993
 5127SOL    HW232524   2.617   5.592   0.494  0.1967 -0.0022 -0.2983
 5128SOL     OW32525   1.824   6.085   1.202 -0.0067 -0.0076 -0.2604
 5128SOL    HW132526   1.772   6.106   1.280  1.1206  0.6586  0.3286
 5128SOL    HW232527   1.860   6.168   1.174  0.9880 -0.5043 -0.4866
 5129SOL     OW32528   6.103   2.498   1.332 -0.7664  0.5781  0.2994
 5129SOL    HW132529   6.181   2.538   1.371 -0.1389  0.5539 -0.8687
 5129SOL    HW232530   6.116   2.404   1.343 -0.3313  0.5462 -0.3944
 5130SOL     OW32531   3.558   4.666   1.798 -0.0301  0.3704 -0.6868
 5130SOL    HW132532   3.618   4.740   1.794 -1.8509  2.1584  1.6536
 5130SOL    HW232533   3.587   4.615   1.873  0.0114 -0.1775 -1.0660
 5131SOL     OW32534   5.472   4.064   5.344 -0.8036 -0.7080  0.1265
 5131SOL    HW132535   5.414   3.988   5.343 -1.1042 -0.4905 -1.7799
 5131SOL    HW232536   5.421   4.132   5.387 -1.5220 -0.8558 -0.4744
 5132SOL     OW32537   2.472   4.998   0.819 -0.6084 -0.0322  0.4932
 5132SOL    HW132538   2.492   4.939   0.892  0.0349 -1.0281 -0.4472
 5132SOL    HW232539   2.411   4.949   0.765 -1.6560  0.9946  0.7173
 5133SOL     OW32540   5.340   3.134   2.578 -0.1229  0.2243  0.1778
 5133SOL    HW132541   5.393   3.141   2.498  0.5386  0.9071  0.6656
 5133SOL    HW232542   5.258   3.093   2.548 -0.6890  2.2290 -1.2381
 5134SOL     OW32543   0.570   3.876   1.839 -0.7789  0.0051  0.2386
 5134SOL    HW132544   0.579   3.970   1.858  0.1237  0.0598 -0.3893
 5134SOL    HW232545   0.503   3.846   1.900 -1.1868  1.0881  0.3573
 5135SOL     OW32546   3.633   5.481   7.535  0.2905 -0.0439  0.1002
 5135SOL    HW132547   3.712   5.519   7.496  1.1578 -1.9949 -0.1755
 5135SOL    HW232548   3.660   5.455   7.623 -0.6657  1.1506  0.7701
 5136SOL     OW32549   4.423   3.229   0.216  0.2753 -0.2667 -0.3626
 5136SOL    HW132550   4.436   3.271   0.301  1.4210 -1.0056 -0.1544
 5136SOL    HW232551   4.473   3.283   0.155 -0.4047  0.1633 -0.5451
 5137SOL     OW32552   0.220   4.157   1.074  0.1972 -0.2538 -0.0375
 5137SOL    HW132553   0.175   4.241   1.087 -0.2541 -0.3173 -1.1024
 5137SOL    HW232554   0.300   4.165   1.126 -0.7354  0.0922  1.4206
 5138SOL     OW32555   0.563   3.475   6.609  0.1209 -0.3485  0.2878
 5138SOL    HW132556   0.583   3.547   6.669  1.0016 -0.2487 -0.1059
 5138SOL    HW232557   0.477   3.497   6.574  0.1968  0.2981  0.4876
 5139SOL     OW32558   4.296   1.453   0.126  0.4153 -0.4329 -0.8455
 5139SOL    HW132559   4.221   1.489   0.078 -0.3716  0.4515  0.9708
 5139SOL    HW232560   4.258   1.416   0.206  1.7376 -1.5305 -0.6912
 5140SOL     OW32561   4.881   4.278   6.867  0.0223  0.4574 -0.4092
 5140SOL    HW132562   4.958   4.226   6.886 -0.3952  0.2977  0.9972
 5140SOL    HW232563   4.914   4.368   6.858  0.2544  0.6023  1.4816
 5141SOL     OW32564   5.506   1.816   7.139  0.3459 -0.0387  0.0603
 5141SOL    HW132565   5.448   1.859   7.202 -1.2252 -1.5997 -0.2490
 5141SOL    HW232566   5.447   1.771   7.079  1.7894  0.9273 -2.2458
 5142SOL     OW32567   4.986   1.328   0.137 -0.4193 -0.4229 -0.1458
 5142SOL    HW132568   4.924   1.385   0.182 -2.3131 -1.3317 -1.4481
 5142SOL    HW232569   5.022   1.272   0.205 -1.4552 -0.2224  0.5882
 5143SOL     OW32570   4.033   1.546   7.182 -0.3810  0.4864  0.1324
 5143SOL    HW132571   3.940   1.558   7.162 -0.2449 -0.1645 -0.9419
 5143SOL    HW232572   4.035   1.465   7.235 -0.6493  1.7642  2.2191
 5144SOL     OW32573   3.262   3.401   6.100 -0.0574  0.5392  0.3416
 5144SOL    HW132574   3.245   3.474   6.041  0.1594  1.0369  0.8892
 5144SOL    HW232575   3.357   3.388   6.096 -0.4034 -3.0072 -3.6413
 5145SOL     OW32576   1.181   4.633   5.462  0.1701  0.4689  0.4604
 5145SOL    HW132577   1.232   4.714   5.471  0.6267  0.0627  1.6495
 5145SOL    HW232578   1.183   4.593   5.549  0.2191 -0.9883 -0.1819
 5146SOL     OW32579   0.206   6.029   0.946  0.1305  0.3242  0.4635
 5146SOL    HW132580   0.296   6.015   0.975  0.2885  1.8789  0.8047
 5146SOL    HW232581   0.172   5.941   0.930  1.7078 -0.2937  0.3179
 5147SOL     OW32582   0.528   2.403   0.430  0.7402  0.0554  0.0192
 5147SOL    HW132583   0.582   2.411   0.352  0.2400 -1.3153 -0.4930
 5147SOL    HW232584   0.461   2.340   0.406 -0.6230  1.1090  0.9059
 5148SOL     OW32585   6.051   0.867   6.238  0.1157 -0.2358  0.4800
 5148SOL    HW132586   6.052   0.959   6.263 -1.6727  0.0091 -0.1990
 5148SOL    HW232587   6.144   0.842   6.234  0.6860  1.8111 -0.3149
 5149SOL     OW32588   5.181   2.330   6.323  0.2607 -0.4083  0.1101
 5149SOL    HW132589   5.173   2.396   6.254 -0.0702  0.0438  0.5692
 5149SOL    HW232590   5.248   2.270   6.291  1.5316  0.8759  0.2656
 5150SOL     OW32591   0.314   4.291   0.832 -0.1213 -0.1704  0.1496
 5150SOL    HW132592   0.277   4.234   0.899 -0.5413 -0.2759 -0.1694
 5150SOL    HW232593   0.261   4.274   0.754  0.1865  0.1544 -0.1329
 5151SOL     OW32594   3.940   4.973   5.852  0.3777  0.5546 -0.2545
 5151SOL    HW132595   3.922   5.067   5.859  0.2600  0.6176 -1.2864
 5151SOL    HW232596   3.883   4.933   5.917 -2.3477  0.8974 -2.2815
 5152SOL     OW32597   6.056   3.535   0.420  0.1597 -0.4192  0.1009
 5152SOL    HW132598   6.059   3.472   0.492 -2.6614 -2.3202 -1.2614
 5152SOL    HW232599   6.008   3.610   0.455 -0.5599 -1.0236  0.4278
 5153SOL     OW32600   0.536   0.750   5.980 -0.3252  0.1951 -0.1678
 5153SOL    HW132601   0.599   0.820   5.960 -2.2294  2.2629  0.6093
 5153SOL    HW232602   0.451   0.794   5.982 -1.5834 -2.0979  0.8051
 5154SOL     OW32603   0.949   3.239   1.875  0.1256  0.1173  0.0166
 5154SOL    HW132604   0.949   3.221   1.781  2.0010 -1.7401  0.3086
 5154SOL    HW232605   0.878   3.185   1.910 -0.1131  0.2731 -0.2187
 5155SOL     OW32606   4.083   6.275   1.490  0.0812 -0.0055 -0.2840
 5155SOL    HW132607   4.026   6.339   1.447  0.7189  0.8565  0.1372
 5155SOL    HW232608   4.122   6.322   1.563  2.3192 -0.1752 -1.2900
 5156SOL     OW32609   0.343   1.477   7.388  0.1300  0.1664 -0.3551
 5156SOL    HW132610   0.312   1.399   7.434 -2.2560  1.1158 -0.1936
 5156SOL    HW232611   0.285   1.485   7.312  0.1087  1.9133 -0.2092
 5157SOL     OW32612   2.392   1.967   2.122 -0.0375 -0.5075 -0.2035
 5157SOL    HW132613   2.398   1.881   2.080  2.2608 -1.7923  2.5090
 5157SOL    HW232614   2.473   1.977   2.171 -0.2567  3.2185 -0.2759
 5158SOL     OW32615   3.226   1.486   1.290  0.2741 -0.6120 -0.0594
 5158SOL    HW132616   3.302   1.508   1.237  1.9537 -2.2528  1.5012
 5158SOL    HW232617   3.200   1.569   1.330 -0.5691  0.5106 -2.7021
 5159SOL     OW32618   2.314   1.585   1.186 -0.2480 -0.0047  0.6532
 5159SOL    HW132619   2.275   1.522   1.247  0.0076 -0.0537  0.7684
 5159SOL    HW232620   2.380   1.535   1.138  0.7424  0.4205  1.5200
 5160SOL     OW32621   3.191   1.462   0.593 -0.5783  0.0722  0.6386
 5160SOL    HW132622   3.174   1.374   0.626 -0.0207 -0.3673 -0.1986
 5160SOL    HW232623   3.218   1.449   0.502  0.1091  1.0625  0.6789
 5161SOL     OW32624   4.387   4.142   6.968 -0.0338 -0.0256 -0.0120
 5161SOL    HW132625   4.453   4.167   7.033 -0.0985  0.7802 -0.2402
 5161SOL    HW232626   4.423   4.064   6.926  0.5763  0.1547  0.1590
 5162SOL     OW32627   4.781   4.530   5.412 -0.5618  0.1853  0.1758
 5162SOL    HW132628   4.734   4.552   5.493  0.1732  1.5326  0.2557
 5162SOL    HW232629   4.791   4.613   5.366 -1.5516 -0.6472 -1.6653
 5163SOL     OW32630   0.292   1.131   6.130  0.0765 -0.2464  0.3181
 5163SOL    HW132631   0.369   1.186   6.138 -0.1468  0.1661 -0.2626
 5163SOL    HW232632   0.296   1.097   6.040 -0.8882  0.5208 -0.0441
 5164SOL     OW32633   5.958   3.081   1.031 -0.4287  0.2163 -0.2303
 5164SOL    HW132634   5.929   2.992   1.007  0.6538  0.2413 -1.7912
 5164SOL    HW232635   5.923   3.095   1.119 -0.9357 -1.6166 -0.1001
 5165SOL     OW32636   4.179   1.540   1.828  0.3579  0.6948  1.0057
 5165SOL    HW132637   4.094   1.559   1.868 -0.0623  0.1091  0.4045
 5165SOL    HW232638   4.182   1.596   1.751  0.5637  0.7894  1.0823
 5166SOL     OW32639   4.109   0.798   1.285 -1.0920 -0.0377  0.4005
 5166SOL    HW132640   4.061   0.800   1.368 -1.3294 -2.6178  0.4046
 5166SOL    HW232641   4.179   0.735   1.300 -1.1873 -0.6238 -1.3872
 5167SOL     OW32642   1.473   5.389   7.464 -0.0207  0.2637 -0.5818
 5167SOL    HW132643   1.451   5.400   7.372 -0.4215  1.3507 -0.3693
 5167SOL    HW232644   1.394   5.413   7.511  0.2419 -0.0961  0.0599
 5168SOL     OW32645   2.346   2.529   0.604 -0.1506 -0.4239 -0.1592
 5168SOL    HW132646   2.319   2.442   0.578  1.2054 -1.4663  1.6486
 5168SOL    HW232647   2.417   2.514   0.666 -0.4694  1.9519  0.8836
 5169SOL     OW32648   5.482   3.488   0.306 -0.2343  0.3075 -0.4009
 5169SOL    HW132649   5.466   3.582   0.303  0.5431  0.4336 -1.9409
 5169SOL    HW232650   5.532   3.474   0.386  2.1512  1.6867 -1.5355
 5170SOL     OW32651   5.501   6.188   0.751 -0.4073 -0.1246 -0.0636
 5170SOL    HW132652   5.517   6.282   0.745  0.3012  0.0631  3.1492
 5170SOL    HW232653   5.587   6.148   0.736 -0.2741 -0.1127  0.6378
 5171SOL     OW32654   5.590   5.495   6.840  0.0757  0.1997  0.4125
 5171SOL    HW132655   5.623   5.464   6.756 -2.9834 -0.3817 -0.7084
 5171SOL    HW232656   5.604   5.423   6.901  0.9585  0.0543  0.0456
 5172SOL     OW32657   2.945   3.446   1.149 -0.1269  0.1302 -0.4102
 5172SOL    HW132658   2.985   3.361   1.168  0.6138  0.8304  1.4116
 5172SOL    HW232659   2.853   3.434   1.172 -0.3727 -0.6177 -1.7042
 5173SOL     OW32660   1.659   6.016   5.989 -0.7181 -0.2790  0.0874
 5173SOL    HW132661   1.609   5.934   5.994 -0.4602 -0.5457 -1.1731
 5173SOL    HW232662   1.654   6.041   5.896 -0.4075  0.8929  0.3712
 5174SOL     OW32663   1.217   2.034   5.658  0.1418  0.1811 -0.4215
 5174SOL    HW132664   1.149   2.086   5.700  0.7709  0.8501 -0.1986
 5174SOL    HW232665   1.174   1.951   5.635 -0.6611  0.4810 -0.0375
 5175SOL     OW32666   2.406   0.046   6.133 -0.1697  0.0293 -1.0546
 5175SOL    HW132667   2.327   0.047   6.189  0.7148 -2.0093  0.3403
 5175SOL    HW232668   2.473   0.090   6.186  0.8646 -2.5282 -0.0903
 5176SOL     OW32669   1.888   6.430   5.265 -0.9763  0.2611  0.8927
 5176SOL    HW132670   1.965   6.399   5.312 -1.6514 -0.4496  1.5542
 5176SOL    HW232671   1.887   6.378   5.184 -0.0591  1.1800  0.2644
 5177SOL     OW32672   5.172   6.037   7.002 -0.1615 -0.0234 -0.0020
 5177SOL    HW132673   5.192   5.947   6.979  0.3398 -0.0581  0.5518
 5177SOL    HW232674   5.098   6.061   6.945  1.0373 -0.0990 -1.6621
 5178SOL     OW32675   0.617   4.144   7.104  0.2126  0.1991 -0.6145
 5178SOL    HW132676   0.551   4.083   7.071  0.1051 -0.5521  0.8873
 5178SOL    HW232677   0.568   4.225   7.122 -0.3538 -0.3870  0.5895
 5179SOL     OW32678   1.697   0.381   0.520  0.1902  0.2001 -0.4815
 5179SOL    HW132679   1.741   0.426   0.592  0.9237 -0.0758 -0.7470
 5179SOL    HW232680   1.742   0.412   0.441  1.1574 -1.4813 -0.6232
 5180SOL     OW32681   2.978   2.959   6.276 -0.7150  0.3114 -0.0283
 5180SOL    HW132682   2.886   2.949   6.253 -0.2339 -0.4923 -1.7510
 5180SOL    HW232683   2.997   3.052   6.261 -0.7703  0.0872 -1.6563
 5181SOL     OW32684   2.038   5.365   0.613  0.2036  0.2266 -0.3171
 5181SOL    HW132685   2.004   5.276   0.616  0.0853  0.2710 -0.3381
 5181SOL    HW232686   2.040   5.387   0.520  2.2967 -0.5482 -0.5119
 5182SOL     OW32687   2.220   0.845   1.209  0.3410  0.5162 -0.2703
 5182SOL    HW132688   2.255   0.757   1.211  0.6477  0.6488  0.1838
 5182SOL    HW232689   2.126   0.833   1.193  0.1105  0.0334  1.2996
 5183SOL     OW32690   6.213   6.092   1.149 -0.0107 -0.5766  0.5910
 5183SOL    HW132691   6.256   6.032   1.210  1.9970 -1.2870 -1.3889
 5183SOL    HW232692   6.268   6.170   1.150 -0.3796 -0.3097  0.2635
 5184SOL     OW32693   5.726   3.835   7.366  0.5629 -0.2270 -0.6573
 5184SOL    HW132694   5.639   3.807   7.338  0.0952  0.7621 -0.2382
 5184SOL    HW232695   5.786   3.779   7.316 -0.2946 -0.5264 -1.3836
 5185SOL     OW32696   2.882   4.985   5.811  0.3476 -0.6534  0.4316
 5185SOL    HW132697   2.971   5.012   5.787 -0.0172  0.2955  0.0947
 5185SOL    HW232698   2.830   5.003   5.733 -0.3239 -0.2396  0.9604
 5186SOL     OW32699   0.782   2.877   1.743  0.1601  0.1548  0.0442
 5186SOL    HW132700   0.815   2.893   1.832  0.0394  0.4691  0.0324
 5186SOL    HW232701   0.724   2.801   1.753 -1.4303  1.4003  0.6069
 5187SOL     OW32702   6.223   1.858   0.441  0.3327  0.5859 -0.1024
 5187SOL    HW132703   6.227   1.876   0.535  2.1470  0.0950 -0.0629
 5187SOL    HW232704   6.238   1.764   0.434  3.1821  1.0073 -1.0004
 5188SOL     OW32705   1.518   6.012   1.813  0.0814 -0.1707 -0.1400
 5188SOL    HW132706   1.502   5.936   1.869  0.9625  0.3940  0.9170
 5188SOL    HW232707   1.437   6.063   1.817  1.3851  2.0556  4.1814
 5189SOL     OW32708   2.697   1.815   6.989  0.2075 -0.9583  0.3343
 5189SOL    HW132709   2.697   1.781   6.900 -1.0182 -1.0466  0.3508
 5189SOL    HW232710   2.740   1.900   6.983  0.4445 -1.1171 -0.2811
 5190SOL     OW32711   4.421   2.127   6.837  0.6843  0.2176 -0.0240
 5190SOL    HW132712   4.412   2.132   6.742  0.9312  1.2687 -0.0002
 5190SOL    HW232713   4.332   2.139   6.870  0.6449  0.1667 -0.1119
 5191SOL     OW32714   5.781   3.809   6.708 -0.1071  0.4987  0.4255
 5191SOL    HW132715   5.865   3.832   6.667 -0.4120  1.9443  0.5454
 5191SOL    HW232716   5.726   3.779   6.636  0.3536  0.0457  0.2634
 5192SOL     OW32717   0.218   6.128   7.387 -0.7291 -0.1509 -0.5067
 5192SOL    HW132718   0.129   6.140   7.356 -2.0784 -0.3524  2.8671
 5192SOL    HW232719   0.212   6.056   7.451  1.1160  1.8368  2.1356
 5193SOL     OW32720   3.045   2.360   2.065  0.6620 -0.1309 -0.6836
 5193SOL    HW132721   3.097   2.280   2.060 -0.1796 -0.7188 -0.4901
 5193SOL    HW232722   2.955   2.328   2.075  0.2020  0.8405 -1.5363
 5194SOL     OW32723   4.389   0.985   7.557  0.1754  0.7739  0.3836
 5194SOL    HW132724   4.391   1.008   7.650 -2.2783  0.7530  0.5136
 5194SOL    HW232725   4.374   1.069   7.512  1.4944  0.8055 -0.0340
 5195SOL     OW32726   3.622   3.730   6.991  0.0534  0.6176 -0.3012
 5195SOL    HW132727   3.579   3.812   7.017 -0.2868  0.0348  1.0914
 5195SOL    HW232728   3.550   3.668   6.980  0.1671  0.8610 -2.9315
 5196SOL     OW32729   2.296   6.425   2.357 -0.1338 -0.5795 -0.1371
 5196SOL    HW132730   2.328   6.390   2.274  0.1915 -1.5510  0.3742
 5196SOL    HW232731   2.288   6.519   2.342 -4.5111 -1.0965 -2.7277
 5197SOL     OW32732   0.257   5.801   1.710 -0.1716 -0.0566  0.2055
 5197SOL    HW132733   0.209   5.883   1.699  0.5228  0.3546  0.1624
 5197SOL    HW232734   0.234   5.771   1.798 -0.6733  0.0162  0.1018
 5198SOL     OW32735   3.741   5.446   5.143  0.2165 -0.3111 -0.1084
 5198SOL    HW132736   3.670   5.509   5.146  0.9791  0.6050 -0.5956
 5198SOL    HW232737   3.735   5.406   5.056 -0.9096 -1.7100  0.5812
 5199SOL     OW32738   5.761   2.151   1.541 -0.1788 -0.5038  0.1723
 5199SOL    HW132739   5.841   2.179   1.586  0.4426 -1.7112 -0.1407
 5199SOL    HW232740   5.696   2.217   1.565  0.9800  0.6702  0.1854
 5200SOL     OW32741   0.033   0.608   6.417 -0.1544  0.0746 -0.1005
 5200SOL    HW132742   0.035   0.692   6.464  0.0616 -0.2119  0.4185
 5200SOL    HW232743   0.119   0.570   6.433  0.4292  0.5567 -1.8583
 5201SOL     OW32744   4.922   2.018   1.189  0.4359  0.2002  1.0435
 5201SOL    HW132745   4.931   2.016   1.093 -0.7276  1.2477  0.8868
 5201SOL    HW232746   4.968   1.940   1.219 -0.3515 -0.8851 -0.4711
 5202SOL     OW32747   2.079   0.183   0.152 -0.2601  1.0484 -0.1164
 5202SOL    HW132748   2.010   0.198   0.217 -1.8785  0.7319 -1.6719
 5202SOL    HW232749   2.040   0.123   0.089  1.2504  1.3178 -1.3730
 5203SOL     OW32750   3.421   3.473   1.690 -1.3077 -0.4986  0.1342
 5203SOL    HW132751   3.437   3.557   1.647  1.8238 -1.5083 -0.9430
 5203SOL    HW232752   3.389   3.416   1.620 -0.7599 -0.9197  0.2221
 5204SOL     OW32753   4.378   0.154   0.332  0.2534 -0.4697 -0.4808
 5204SOL    HW132754   4.360   0.068   0.369  0.9522 -0.4167  0.0053
 5204SOL    HW232755   4.474   0.159   0.327  0.2878  0.7727  0.7208
 5205SOL     OW32756   4.198   3.870   6.199  0.0684 -0.1782 -0.0262
 5205SOL    HW132757   4.205   3.886   6.105  2.6550  1.3620  0.3216
 5205SOL    HW232758   4.110   3.899   6.222 -1.9386 -3.6663 -2.3793
 5206SOL     OW32759   6.168   4.194   7.513  0.0689  0.1940 -0.4681
 5206SOL    HW132760   6.239   4.132   7.499  0.1428 -0.0370  0.7842
 5206SOL    HW232761   6.091   4.152   7.474 -0.3896 -1.8228  2.2808
 5207SOL     OW32762   1.280   5.994   0.644 -0.0159  0.0717 -0.3327
 5207SOL    HW132763   1.247   5.958   0.727  1.1069  1.3305  0.7156
 5207SOL    HW232764   1.228   6.073   0.630  0.9724  0.8315  0.1448
 5208SOL     OW32765   5.235   4.728   7.745  0.0805 -0.4382 -0.1488
 5208SOL    HW132766   5.210   4.819   7.762  0.0509 -0.5489  0.4085
 5208SOL    HW232767   5.171   4.697   7.680 -0.8880 -0.5380  0.8173
 5209SOL     OW32768   3.631   4.595   5.851 -0.0829 -0.0282  0.0653
 5209SOL    HW132769   3.612   4.622   5.761  1.2334 -0.6252 -0.4157
 5209SOL    HW232770   3.713   4.639   5.872  1.9847 -3.1968 -0.6362
 5210SOL     OW32771   2.540   6.129   6.306  0.2963  0.1497 -0.0531
 5210SOL    HW132772   2.525   6.220   6.330 -0.3103  0.4092 -1.3421
 5210SOL    HW232773   2.578   6.089   6.385  2.3062  1.9408 -0.0330
 5211SOL     OW32774   5.406   2.496   0.423 -0.5300  0.6404 -0.2367
 5211SOL    HW132775   5.458   2.555   0.368  2.6308 -1.2483  0.4272
 5211SOL    HW232776   5.401   2.540   0.508  0.6298  0.6082 -0.1319
 5212SOL     OW32777   0.851   1.399   6.635 -0.5032 -0.0245 -0.4073
 5212SOL    HW132778   0.822   1.308   6.641 -0.7950  0.1016  0.1545
 5212SOL    HW232779   0.816   1.430   6.551 -0.6326 -0.3464 -0.4733
 5213SOL     OW32780   1.080   4.362   7.435  0.2773  0.1975 -0.3427
 5213SOL    HW132781   0.991   4.393   7.455 -0.3238 -1.0231 -1.0418
 5213SOL    HW232782   1.085   4.366   7.339  1.4403  1.4409 -0.2663
 5214SOL     OW32783   3.679   4.256   5.203 -0.2860  0.5039  0.0615
 5214SOL    HW132784   3.737   4.301   5.142 -0.3353  1.9540  1.0166
 5214SOL    HW232785   3.673   4.316   5.278 -1.4388 -0.5171  0.8198
 5215SOL     OW32786   0.585   1.578   6.250 -0.5722 -0.2178 -0.5757
 5215SOL    HW132787   0.518   1.622   6.197  0.6046  0.7586 -1.2870
 5215SOL    HW232788   0.535   1.514   6.302 -2.1945  1.1285 -0.3709
 5216SOL     OW32789   5.647   1.374   7.038  0.1146 -0.2848 -0.5902
 5216SOL    HW132790   5.613   1.309   6.976 -1.0152  1.7647 -2.2770
 5216SOL    HW232791   5.586   1.372   7.111  0.4752 -1.5559 -0.3057
 5217SOL     OW32792   5.307   1.149   6.270 -0.3775 -0.6294 -0.0780
 5217SOL    HW132793   5.218   1.176   6.247  0.1109  3.9642  2.1963
 5217SOL    HW232794   5.357   1.159   6.189 -1.1500  1.5394 -0.3712
 5218SOL     OW32795   1.993   3.674   6.309 -0.5809 -0.5382 -0.4673
 5218SOL    HW132796   2.042   3.594   6.291 -0.9427 -0.9066  0.1392
 5218SOL    HW232797   1.960   3.662   6.398  0.0286  0.6371 -0.0698
 5219SOL     OW32798   5.582   3.495   6.482 -0.4375  0.5090  0.6963
 5219SOL    HW132799   5.650   3.443   6.438 -1.5603 -0.2532 -0.2102
 5219SOL    HW232800   5.551   3.439   6.553 -1.0056  0.3148  0.3001
 5220SOL     OW32801   0.014   0.503   0.246  0.2655 -0.2545 -0.5814
 5220SOL    HW132802  -0.064   0.559   0.253 -0.3050 -1.0740 -0.2198
 5220SOL    HW232803   0.075   0.554   0.192 -0.5191  0.4025 -0.8729
 5221SOL     OW32804   2.884   3.151   0.614  0.3262 -0.1754  0.1340
 5221SOL    HW132805   2.953   3.158   0.681  0.3277 -0.7726  0.1930
 5221SOL    HW232806   2.810   3.112   0.660  0.3588 -0.6821 -0.2365
 5222SOL     OW32807   0.581   3.630   0.760 -0.2347  0.3009 -0.2985
 5222SOL    HW132808   0.528   3.618   0.839  1.9485 -2.3008  0.9349
 5222SOL    HW232809   0.669   3.646   0.793  0.6343 -0.2409 -2.2302
 5223SOL     OW32810   3.976   5.720   1.645 -0.1621  0.2260  0.1475
 5223SOL    HW132811   3.927   5.692   1.722  0.7119 -1.3658  0.1649
 5223SOL    HW232812   4.067   5.726   1.674  0.0597  0.4480 -0.5558
 5224SOL     OW32813   0.725   2.245   7.553  0.2340 -0.0655  0.2935
 5224SOL    HW132814   0.722   2.160   7.596 -0.2563 -1.1238 -1.7017
 5224SOL    HW232815   0.789   2.234   7.482  0.3056  1.2972  0.1153
 5225SOL     OW32816   3.550   2.434   7.685 -0.2721  0.5464 -0.3818
 5225SOL    HW132817   3.597   2.365   7.639 -1.1226 -1.4010  1.5196
 5225SOL    HW232818   3.615   2.504   7.696  1.0512 -0.5384 -1.0488
 5226SOL     OW32819   5.230   5.528   6.466  0.3762 -0.0481 -0.3452
 5226SOL    HW132820   5.149   5.571   6.436 -0.3179 -0.4295  0.9077
 5226SOL    HW232821   5.283   5.600   6.500  0.4678  0.1693 -0.9243
 5227SOL     OW32822   1.023   4.778   7.596 -0.1958 -0.4393 -0.1258
 5227SOL    HW132823   1.103   4.789   7.648  0.0220 -1.4744 -0.2184
 5227SOL    HW232824   1.039   4.829   7.517 -0.4127  0.9208  0.6627
 5228SOL     OW32825   1.947   5.041   1.500 -0.0690 -0.7633 -0.1419
 5228SOL    HW132826   1.907   5.127   1.506  1.1221 -0.1651 -0.3872
 5228SOL    HW232827   1.878   4.984   1.466 -0.6234  0.2798 -0.8031
 5229SOL     OW32828   1.671   5.415   0.719 -0.1609  0.0872  0.0223
 5229SOL    HW132829   1.584   5.385   0.692  1.1814 -1.7584 -2.7123
 5229SOL    HW232830   1.697   5.353   0.787  0.1605 -1.3533 -1.3400
 5230SOL     OW32831   2.630   1.550   1.160 -0.3158 -0.0364  0.1952
 5230SOL    HW132832   2.590   1.628   1.124 -1.7997 -0.3243  1.1230
 5230SOL    HW232833   2.687   1.516   1.090  0.1452  1.6960 -0.3005
 5231SOL     OW32834   3.162   4.698   0.445  0.3834 -0.0711  0.0768
 5231SOL    HW132835   3.077   4.655   0.457  0.9275 -1.1367  0.2268
 5231SOL    HW232836   3.142   4.777   0.395 -0.9920  0.7761  1.8429
 5232SOL     OW32837   1.532   1.277   5.422 -0.1017  0.0831  0.0382
 5232SOL    HW132838   1.469   1.248   5.488 -0.7257 -1.7631 -1.2873
 5232SOL    HW232839   1.595   1.330   5.470 -0.5045 -1.2269  2.1122
 5233SOL     OW32840   3.457   5.667   0.196  0.2863  0.5095  0.0483
 5233SOL    HW132841   3.436   5.696   0.107  0.7796  0.5700 -0.0519
 5233SOL    HW232842   3.536   5.615   0.186 -0.0470 -0.0709  0.3616
 5234SOL     OW32843   0.326   4.165   0.036 -0.2041  0.1661  0.1027
 5234SOL    HW132844   0.378   4.239   0.066 -1.9723  1.0621  1.1618
 5234SOL    HW232845   0.297   4.190  -0.052  2.5799 -1.1782 -1.3377
 5235SOL     OW32846   4.874   1.300   6.938  0.3266 -0.2697 -0.4696
 5235SOL    HW132847   4.871   1.289   7.033 -0.4288  0.2461 -0.4204
 5235SOL    HW232848   4.906   1.216   6.905 -0.4535 -0.8365  0.1735
 5236SOL     OW32849   6.303   3.537   6.778  0.4120 -0.3894  0.0623
 5236SOL    HW132850   6.369   3.601   6.752  0.2003 -0.0259  0.4089
 5236SOL    HW232851   6.336   3.453   6.744  0.9732 -0.1889  0.1040
 5237SOL     OW32852   2.317   1.562   7.733 -0.0991 -0.2935 -0.2465
 5237SOL    HW132853   2.367   1.588   7.655 -0.0263  0.1442 -0.0535
 5237SOL    HW232854   2.328   1.467   7.737  1.8145 -0.0892  0.5270
 5238SOL     OW32855   4.762   3.479   1.880  0.5250  0.1305  0.2999
 5238SOL    HW132856   4.741   3.469   1.973  2.1541  0.3877  0.7169
 5238SOL    HW232857   4.734   3.568   1.859 -0.5038 -0.1679  0.3392
 5239SOL     OW32858   1.777   0.526   0.279 -0.0975  0.1494 -0.3381
 5239SOL    HW132859   1.785   0.502   0.187  1.2467 -1.6768  0.2198
 5239SOL    HW232860   1.862   0.507   0.317 -1.0333 -0.4210  1.5749
 5240SOL     OW32861   0.877   4.045   0.469 -0.5841  0.0499  0.1510
 5240SOL    HW132862   0.798   4.017   0.515 -1.4523 -0.5437 -1.6116
 5240SOL    HW232863   0.846   4.115   0.411  0.4816  0.7664  0.4154
 5241SOL     OW32864   0.931   5.108   7.276  0.5076 -0.1750 -0.0989
 5241SOL    HW132865   0.919   5.105   7.371  1.5652 -0.0672  0.0476
 5241SOL    HW232866   0.959   5.197   7.257  0.2143 -0.1673 -0.5310
 5242SOL     OW32867   0.251   4.852   7.431 -0.8040  0.1966 -0.0623
 5242SOL    HW132868   0.178   4.793   7.453 -1.9219  2.2986  2.5105
 5242SOL    HW232869   0.211   4.921   7.378 -0.0430 -0.0843 -1.0187
 5243SOL     OW32870   3.734   3.183   7.564 -0.2400 -0.0125  0.2825
 5243SOL    HW132871   3.743   3.094   7.529 -0.3818 -0.0097  0.2404
 5243SOL    HW232872   3.725   3.171   7.658  2.0719  0.0642  0.5885
 5244SOL     OW32873   4.259   3.076   6.107  0.1015  0.0903  0.3619
 5244SOL    HW132874   4.265   2.986   6.074  1.6103 -0.4896  2.0723
 5244SOL    HW232875   4.270   3.131   6.029 -1.2228 -1.1636 -0.7795
 5245SOL     OW32876   6.071   0.951   0.734  0.4480  0.5034 -0.7825
 5245SOL    HW132877   6.121   0.937   0.815  0.4834  1.2632 -0.6654
 5245SOL    HW232878   5.980   0.949   0.762  0.4653  0.9782 -0.6826
 5246SOL     OW32879   4.203   4.425   2.120  0.0308 -0.1522  0.4324
 5246SOL    HW132880   4.190   4.368   2.044  3.0489 -0.1373 -0.1942
 5246SOL    HW232881   4.254   4.498   2.087  0.9442  0.1341  2.3375
 5247SOL     OW32882   1.762   4.790   0.291  0.0468  0.6649  0.0306
 5247SOL    HW132883   1.730   4.872   0.255  0.8286  0.9535 -0.0166
 5247SOL    HW232884   1.856   4.803   0.304  0.4424 -0.6378 -1.1823
 5248SOL     OW32885   1.556   5.662   7.587  0.3422 -0.2985  0.5147
 5248SOL    HW132886   1.600   5.717   7.652 -0.8959  2.9751 -1.1477
 5248SOL    HW232887   1.623   5.601   7.557  2.7780  2.1364  0.5916
 5249SOL     OW32888   2.395   0.065   1.393  0.1270  0.2293  0.3128
 5249SOL    HW132889   2.489   0.085   1.392  0.4740 -1.2391  0.6188
 5249SOL    HW232890   2.382   0.008   1.316 -0.8866  1.8524 -0.7771
 5250SOL     OW32891   2.552   2.110   7.331 -0.2575  0.1386 -0.2504
 5250SOL    HW132892   2.628   2.125   7.275 -0.8763  1.6113 -0.7703
 5250SOL    HW232893   2.570   2.160   7.411  0.8274 -2.3247  1.1392
 5251SOL     OW32894   1.242   3.684   7.343  0.0930  0.6251 -0.6016
 5251SOL    HW132895   1.330   3.681   7.380 -0.3500  0.0443  0.4559
 5251SOL    HW232896   1.243   3.619   7.273 -0.4322 -2.0442  1.6775
 5252SOL     OW32897   4.865   4.736   0.545  0.2151  0.0725 -0.5524
 5252SOL    HW132898   4.809   4.726   0.623 -0.9597  1.2718 -1.2046
 5252SOL    HW232899   4.891   4.828   0.545 -0.8742  0.4326 -2.2296
 5253SOL     OW32900   1.007   6.149   1.946  0.0959 -0.6698  0.4567
 5253SOL    HW132901   0.999   6.076   1.884 -0.1026 -0.4674  0.2447
 5253SOL    HW232902   1.079   6.202   1.911 -0.8606  0.1413 -0.3128
 5254SOL     OW32903   2.020   6.147   0.545  0.2738  0.0789 -0.3483
 5254SOL    HW132904   1.938   6.187   0.516 -0.0063 -0.9542 -1.0220
 5254SOL    HW232905   2.016   6.152   0.640 -0.8692 -0.5114 -0.3462
 5255SOL     OW32906   1.088   1.669   1.254  0.6109 -0.6206  0.5307
 5255SOL    HW132907   1.102   1.735   1.186  0.5005 -0.5676  0.5584
 5255SOL    HW232908   1.035   1.714   1.320 -1.3623 -1.3601 -0.4642
 5256SOL     OW32909   4.721   0.997   6.788  0.0964  0.2052  0.1782
 5256SOL    HW132910   4.648   1.059   6.780 -0.8972 -0.9052  0.3397
 5256SOL    HW232911   4.709   0.957   6.874 -0.8053 -2.0115 -0.8982
 5257SOL     OW32912   2.873   5.466   6.975 -0.1834 -0.2816  0.1217
 5257SOL    HW132913   2.809   5.400   7.001 -0.6876  0.3668  0.5417
 5257SOL    HW232914   2.947   5.415   6.941  0.8528 -1.2365  3.4658
 5258SOL     OW32915   3.914   2.242   0.038  0.0572  0.1084 -0.2253
 5258SOL    HW132916   3.991   2.285   0.001 -0.6413  0.3951 -1.3999
 5258SOL    HW232917   3.860   2.220  -0.038 -1.0549 -0.0304  0.5798
 5259SOL     OW32918   5.787   0.578   0.236  0.0380 -0.3367  0.0900
 5259SOL    HW132919   5.777   0.554   0.328 -0.7345 -1.4652 -0.2610
 5259SOL    HW232920   5.791   0.494   0.190 -0.1692  0.2164 -0.9582
 5260SOL     OW32921   3.363   6.099   6.098  0.7076 -0.2804  0.3095
 5260SOL    HW132922   3.410   6.158   6.040 -0.1405 -0.3859 -0.5075
 5260SOL    HW232923   3.310   6.156   6.154  1.1016 -0.2056  0.6123
 5261SOL     OW32924   2.694   0.956   2.447  0.3411  0.2793 -1.0778
 5261SOL    HW132925   2.660   1.017   2.512  0.5838 -0.5176 -0.1830
 5261SOL    HW232926   2.616   0.909   2.416  0.2093  0.7470 -1.4594
 5262SOL     OW32927   1.394   5.493   5.835 -0.0523 -0.0561  0.0271
 5262SOL    HW132928   1.336   5.563   5.804  0.3508 -0.7516 -2.4469
 5262SOL    HW232929   1.479   5.535   5.845 -0.2700  0.2585  0.6530
 5263SOL     OW32930   4.323   5.751   0.960  0.5976 -0.0290  0.0934
 5263SOL    HW132931   4.256   5.689   0.990  0.8274 -0.6504 -0.6365
 5263SOL    HW232932   4.273   5.822   0.919  0.2809  0.8146  1.8481
 5264SOL     OW32933   6.186   3.281   0.573 -1.0336 -0.0209 -0.6524
 5264SOL    HW132934   6.099   3.307   0.602 -0.7527  0.5967 -0.3250
 5264SOL    HW232935   6.189   3.303   0.480 -1.3463 -0.3811 -0.7491
 5265SOL     OW32936   5.123   6.412   7.596 -0.7587 -0.2155 -0.4182
 5265SOL    HW132937   5.090   6.343   7.538 -0.3836  0.4672 -1.4820
 5265SOL    HW232938   5.046   6.467   7.612 -0.7659 -0.1522 -0.6558
 5266SOL     OW32939   0.998   0.615   7.743 -0.3092  0.3290 -0.4850
 5266SOL    HW132940   1.083   0.647   7.773 -0.9400  1.1030  0.5725
 5266SOL    HW232941   0.937   0.686   7.763 -1.4095 -0.6998 -0.0189
 5267SOL     OW32942   3.866   0.116   0.063  0.2221 -0.0743 -0.0560
 5267SOL    HW132943   3.953   0.125   0.025  0.2491 -2.9380 -0.9051
 5267SOL    HW232944   3.813   0.076  -0.006 -1.8248  1.5819  0.4367
 5268SOL     OW32945   1.880   2.291   5.964  0.3146  0.2982 -0.0296
 5268SOL    HW132946   1.947   2.286   6.032  0.0584 -0.1032  0.2025
 5268SOL    HW232947   1.871   2.200   5.933 -2.1790 -0.2712  1.9789
 5269SOL     OW32948   1.915   1.634   0.099 -0.4470 -0.5216  0.2561
 5269SOL    HW132949   1.891   1.653   0.190  1.4792  1.5140  0.4422
 5269SOL    HW232950   1.867   1.699   0.048 -1.1157 -1.3223 -0.1585
 5270SOL     OW32951   4.796   2.391   5.429  0.4433 -0.4703  0.5934
 5270SOL    HW132952   4.855   2.375   5.503 -0.2284 -0.7901  1.0801
 5270SOL    HW232953   4.774   2.303   5.397 -1.0205 -0.4449  1.4510
 5271SOL     OW32954   4.460   4.137   1.064  0.1187 -0.4288  0.2609
 5271SOL    HW132955   4.475   4.156   0.971  0.2102 -0.1626  0.3288
 5271SOL    HW232956   4.371   4.101   1.067 -0.9953  2.0703  0.3809
 5272SOL     OW32957   6.165   5.653   1.036 -0.5108 -0.2262  0.0612
 5272SOL    HW132958   6.196   5.648   1.126  0.4571 -1.1009 -0.3033
 5272SOL    HW232959   6.159   5.747   1.018 -0.5674 -0.0474  0.9748
 5273SOL     OW32960   3.171   5.588   1.472 -0.2090  0.3767  0.4648
 5273SOL    HW132961   3.079   5.566   1.456 -0.2643  0.3527  0.7996
 5273SOL    HW232962   3.182   5.576   1.567 -0.0702  1.1400  0.5498
 5274SOL     OW32963   6.288   0.922   7.546 -0.0281 -0.4402  0.1679
 5274SOL    HW132964   6.277   0.971   7.627 -1.3347 -2.1971  1.0918
 5274SOL    HW232965   6.228   0.964   7.484 -1.0912 -0.8174  0.9299
 5275SOL     OW32966   4.066   0.679   6.215  0.1980 -0.5969 -0.5389
 5275SOL    HW132967   4.135   0.616   6.234 -0.6014 -0.7149  2.3569
 5275SOL    HW232968   4.084   0.754   6.272 -1.0158  0.1709 -1.1084
 5276SOL     OW32969   4.784   2.925   2.316  0.0139 -0.6985  0.1315
 5276SOL    HW132970   4.867   2.946   2.274 -0.5720  0.5377 -0.4445
 5276SOL    HW232971   4.728   2.894   2.245 -0.6040  0.2513  0.1941
 5277SOL     OW32972   3.100   3.613   1.644 -0.3644  0.2528 -0.4372
 5277SOL    HW132973   3.093   3.551   1.716  0.8773  0.4136 -0.1639
 5277SOL    HW232974   3.028   3.675   1.659 -0.2474  0.1691  0.5548
 5278SOL     OW32975   4.192   3.818   6.989 -0.3899  0.4816  0.3277
 5278SOL    HW132976   4.139   3.890   7.023  1.1600  1.7216  0.1878
 5278SOL    HW232977   4.269   3.816   7.046  0.5357  0.2553 -0.9049
 5279SOL     OW32978   2.051   4.496   1.865  0.4641  0.0445  0.0129
 5279SOL    HW132979   1.967   4.499   1.819  0.4479 -1.8282 -0.1627
 5279SOL    HW232980   2.038   4.431   1.934  0.4891  2.7952  2.7893
 5280SOL     OW32981   2.798   3.089   1.400 -0.7164 -0.3202  0.3309
 5280SOL    HW132982   2.893   3.077   1.407 -0.4263  0.7748 -1.1627
 5280SOL    HW232983   2.762   3.029   1.464  0.8707 -3.3652 -1.3663
 5281SOL     OW32984   6.413   5.080   0.138 -0.5144 -0.3257 -0.2854
 5281SOL    HW132985   6.362   5.075   0.058 -0.6577 -0.6974 -0.1698
 5281SOL    HW232986   6.391   5.000   0.186  0.8693 -0.9574 -0.6537
 5282SOL     OW32987   2.755   4.597   6.364 -0.6240 -0.4712 -0.0870
 5282SOL    HW132988   2.800   4.674   6.332 -1.0969 -0.8581 -1.7747
 5282SOL    HW232989   2.708   4.627   6.442  0.6079  0.4891  0.3083
 5283SOL     OW32990   5.528   4.669   1.726 -0.0368 -0.2411  0.1706
 5283SOL    HW132991   5.492   4.584   1.750  0.2051 -0.1503  0.8880
 5283SOL    HW232992   5.623   4.658   1.733 -0.0049  0.0982  0.3195
 5284SOL     OW32993   3.500   1.094   0.338  0.2269  0.4501  0.0270
 5284SOL    HW132994   3.471   1.003   0.344  2.3183 -0.2616  0.1066
 5284SOL    HW232995   3.507   1.122   0.430 -1.4828  1.1009 -0.0047
 5285SOL     OW32996   5.344   2.119   0.050  0.0447 -0.3628  0.0248
 5285SOL    HW132997   5.331   2.211   0.069 -2.1475 -0.4085 -1.0017
 5285SOL    HW232998   5.286   2.073   0.111 -1.5407 -0.8306 -1.7319
 5286SOL     OW32999   4.847   5.272   1.909  0.2820 -0.5811 -0.4224
 5286SOL    HW133000   4.761   5.230   1.902  0.8662 -2.0971  0.8764
 5286SOL    HW233001   4.841   5.327   1.986  0.8387 -1.6915  0.4410
 5287SOL     OW33002   1.541   5.071   5.104  0.3783 -0.3273  0.0255
 5287SOL    HW133003   1.495   4.997   5.146  0.8842 -0.1049  1.0151
 5287SOL    HW233004   1.633   5.056   5.124  0.5765  0.0971 -0.5538
 5288SOL     OW33005   4.703   2.859   1.187 -0.1111  0.0109 -0.2689
 5288SOL    HW133006   4.770   2.886   1.250 -1.9282  2.1423  0.8530
 5288SOL    HW233007   4.620   2.885   1.226 -1.5982 -1.7592 -2.0087
 5289SOL     OW33008   2.515   0.760   1.381 -0.2503 -0.4965 -0.4166
 5289SOL    HW133009   2.572   0.730   1.310 -0.5671 -0.0859 -0.8578
 5289SOL    HW233010   2.477   0.681   1.418 -0.1329 -0.7102 -0.7564
 5290SOL     OW33011   3.632   2.857   1.483  0.6864 -0.0865  0.3926
 5290SOL    HW133012   3.724   2.859   1.460  0.8676 -1.6301  0.8713
 5290SOL    HW233013   3.613   2.945   1.514  1.2656  1.0823 -2.3274
 5291SOL     OW33014   2.398   6.309   1.837  0.1868  0.2935  0.3108
 5291SOL    HW133015   2.444   6.386   1.804  1.9721 -1.4005 -1.4178
 5291SOL    HW233016   2.464   6.262   1.888 -0.5772 -0.5939  0.5063
 5292SOL     OW33017   6.299   0.417   6.333 -0.2365 -0.6800 -0.7057
 5292SOL    HW133018   6.244   0.457   6.265  1.0537  0.4665 -1.1349
 5292SOL    HW233019   6.358   0.488   6.360 -1.6545 -0.6213  2.7439
 5293SOL     OW33020   1.617   4.981   5.448 -0.2160  0.0485 -0.3997
 5293SOL    HW133021   1.646   5.063   5.488 -0.3826  0.5820 -1.3212
 5293SOL    HW233022   1.694   4.947   5.402  0.0609 -0.7222  0.6083
 5294SOL     OW33023   0.194   5.041   0.033 -0.0989 -0.4485 -0.4107
 5294SOL    HW133024   0.226   4.996   0.111 -0.7026 -0.4015 -0.1268
 5294SOL    HW233025   0.099   5.043   0.044 -0.4081 -2.3588 -2.1720
 5295SOL     OW33026   6.023   5.290   4.923  0.2169  0.2953  0.1513
 5295SOL    HW133027   6.052   5.208   4.963 -0.3409 -0.2165 -0.4583
 5295SOL    HW233028   5.969   5.331   4.990  0.0732 -0.0959  0.2831
 5296SOL     OW33029   1.603   4.068   5.423 -0.0638 -0.0500 -0.0498
 5296SOL    HW133030   1.569   4.125   5.492 -0.0500  2.4937 -2.0022
 5296SOL    HW233031   1.526   4.045   5.371  0.1915 -0.3221 -0.3119
 5297SOL     OW33032   1.878   4.788   5.984 -0.7060 -0.4069 -0.4310
 5297SOL    HW133033   1.854   4.728   6.055 -0.7848  1.1828  0.9433
 5297SOL    HW233034   1.794   4.819   5.950 -0.7428  1.3962  1.1013
 5298SOL     OW33035   4.411   1.554   0.958 -0.2483  0.0827 -0.2306
 5298SOL    HW133036   4.392   1.500   1.034  0.2419 -0.0773 -0.2227
 5298SOL    HW233037   4.350   1.628   0.966 -2.6861 -1.6362 -1.5329
 5299SOL     OW33038   2.852   5.620   0.950 -0.2724  0.3453  0.3281
 5299SOL    HW133039   2.795   5.673   1.006  0.3527  1.3627  0.0369
 5299SOL    HW233040   2.870   5.676   0.874  0.8869 -0.0463  0.2902
 5300SOL     OW33041   6.115   2.544   7.222  0.4443 -0.2145 -0.2496
 5300SOL    HW133042   6.087   2.459   7.255 -0.3522  0.0867 -0.1334
 5300SOL    HW233043   6.100   2.605   7.294 -0.1200  0.2289 -0.7278
 5301SOL     OW33044   5.450   0.241   0.214 -0.1408 -0.0232 -0.0875
 5301SOL    HW133045   5.467   0.253   0.308  2.5288  0.5343 -0.5853
 5301SOL    HW233046   5.507   0.169   0.189  1.9844  2.1782 -1.9782
 5302SOL     OW33047   2.523   0.149   1.721  0.0061  0.4226 -0.0656
 5302SOL    HW133048   2.577   0.088   1.770 -1.3370  0.6191  1.7837
 5302SOL    HW233049   2.565   0.234   1.734 -0.7218  0.5846  1.4147
 5303SOL     OW33050   2.386   6.013   0.275  0.1043  0.2246 -0.0498
 5303SOL    HW133051   2.403   5.929   0.317  0.3112 -0.3037 -1.1718
 5303SOL    HW233052   2.322   6.056   0.333 -1.5080 -1.5038 -0.4564
 5304SOL     OW33053   5.379   1.081   0.684 -0.0538 -0.7399  0.3561
 5304SOL    HW133054   5.328   1.031   0.620 -1.9385 -0.7732  1.7905
 5304SOL    HW233055   5.321   1.088   0.760  1.9012 -0.2750  1.8861
 5305SOL     OW33056   2.275   2.456   1.926  0.4725 -0.2355  0.5120
 5305SOL    HW133057   2.226   2.516   1.869  1.7084  0.5534  0.2387
 5305SOL    HW233058   2.251   2.483   2.015  0.9134  0.6137  0.3904
 5306SOL     OW33059   3.250   6.396   5.915 -0.0090  0.2740  0.3164
 5306SOL    HW133060   3.343   6.375   5.912  0.2412  1.1426  1.4702
 5306SOL    HW233061   3.238   6.460   5.844  0.3441  0.4375  0.3997
 5307SOL     OW33062   6.045   4.693   0.418  0.2168 -0.6075 -0.0696
 5307SOL    HW133063   5.981   4.701   0.347  1.5481  1.3873 -1.1223
 5307SOL    HW233064   6.081   4.605   0.408 -0.5732 -0.8418 -1.0251
 5308SOL     OW33065   5.914   0.851   1.656 -0.4446 -0.4168  0.1376
 5308SOL    HW133066   5.939   0.884   1.742  0.9232 -0.2156 -0.3157
 5308SOL    HW233067   5.905   0.756   1.668 -1.3003 -0.2775  0.7210
 5309SOL     OW33068   0.573   1.998   2.379  0.1748  0.1314 -0.6461
 5309SOL    HW133069   0.576   2.003   2.474 -0.4224 -0.7051 -0.5698
 5309SOL    HW233070   0.664   2.011   2.351  0.2074  1.3095 -0.0319
 5310SOL     OW33071   2.089   5.281   0.339  0.2383  0.3386 -0.0461
 5310SOL    HW133072   2.041   5.329   0.271 -0.4709  0.3246  0.4291
 5310SOL    HW233073   2.171   5.328   0.348  0.0948  0.6890 -0.4989
 5311SOL     OW33074   0.181   1.690   6.415 -0.0184 -0.4312  0.1549
 5311SOL    HW133075   0.235   1.613   6.400  0.7846  0.2604 -0.6950
 5311SOL    HW233076   0.108   1.680   6.354  0.0117 -0.5999  0.1462
 5312SOL     OW33077   3.655   0.319   5.742  0.3863 -0.4939 -0.7366
 5312SOL    HW133078   3.703   0.235   5.740 -1.9242 -2.2134  3.4151
 5312SOL    HW233079   3.564   0.295   5.728 -0.3671  1.2775  0.7530
 5313SOL     OW33080   3.551   3.531   2.274 -0.0123  0.4531 -0.0307
 5313SOL    HW133081   3.491   3.516   2.202  1.8374  0.7257 -1.7314
 5313SOL    HW233082   3.609   3.455   2.273 -0.2027  0.2528  1.4766
 5314SOL     OW33083   5.468   4.420   1.525 -0.5349 -0.1898  0.8005
 5314SOL    HW133084   5.445   4.431   1.617  0.3599 -0.2618  1.0466
 5314SOL    HW233085   5.558   4.452   1.519 -0.9215  0.7640 -0.2598
 5315SOL     OW33086   2.951   1.629   6.974 -0.2503  0.0377  0.0316
 5315SOL    HW133087   3.039   1.605   6.946  0.6149  0.7024  2.0338
 5315SOL    HW233088   2.925   1.699   6.914  0.1077 -0.9096 -1.2692
 5316SOL     OW33089   4.174   0.197   0.723 -0.7549 -0.0534  0.9656
 5316SOL    HW133090   4.085   0.188   0.688 -0.9147  0.0148  1.3458
 5316SOL    HW233091   4.226   0.226   0.648 -1.0998  0.1384  0.7949
 5317SOL     OW33092   0.453   2.640   0.568 -0.0583  0.8751  0.0142
 5317SOL    HW133093   0.469   2.551   0.537 -0.2246  0.6922  0.4428
 5317SOL    HW233094   0.377   2.632   0.626  1.4239  0.8350  2.0616
 5318SOL     OW33095   4.196   6.433   6.805  0.1966 -0.1618  0.1115
 5318SOL    HW133096   4.156   6.372   6.743  0.0383  0.5276 -0.4630
 5318SOL    HW233097   4.266   6.476   6.755 -1.1303  1.7668 -0.1837
 5319SOL     OW33098   0.105   3.062   6.356 -0.1271  0.3138  0.4972
 5319SOL    HW133099   0.020   3.048   6.315 -1.1496  1.6346  2.0715
 5319SOL    HW233100   0.145   2.974   6.359 -0.1272  0.0958 -2.8654
 5320SOL     OW33101   5.988   0.051   1.602  0.5567  0.1199  0.5259
 5320SOL    HW133102   6.017   0.048   1.693 -1.1519  0.8857  1.1233
 5320SOL    HW233103   5.963  -0.039   1.581  0.8030 -0.0254  0.8511
 5321SOL     OW33104   3.580   6.077   7.383 -0.7451 -0.5354  0.3456
 5321SOL    HW133105   3.553   6.093   7.292 -1.2101 -1.7173  0.2615
 5321SOL    HW233106   3.498   6.065   7.431 -0.5333  0.7197  1.0702
 5322SOL     OW33107   0.643   5.090   7.263  0.1195 -0.1194 -0.3992
 5322SOL    HW133108   0.737   5.104   7.261 -0.0487  1.0743 -2.4827
 5322SOL    HW233109   0.632   5.011   7.318  1.9416  1.8093  3.1004
 5323SOL     OW33110   3.618   1.233   1.266 -0.6267  0.1699  0.2628
 5323SOL    HW133111   3.588   1.206   1.353 -1.6440  1.1950  0.2663
 5323SOL    HW233112   3.699   1.185   1.252  0.3170  1.0035  2.3754
 5324SOL     OW33113   4.640   6.273   1.229 -0.2179  0.3888 -0.2093
 5324SOL    HW133114   4.664   6.364   1.211 -1.2371  0.3779 -1.9173
 5324SOL    HW233115   4.567   6.280   1.291  0.0001  0.7223  0.0124
 5325SOL     OW33116   4.063   3.007   6.897 -0.2913  0.4032  0.0005
 5325SOL    HW133117   4.086   3.097   6.919  0.3883  0.2307 -0.0046
 5325SOL    HW233118   3.967   3.009   6.888 -0.7097  0.4228  3.2799
 5326SOL     OW33119   3.890   4.725   7.258  0.6018 -0.5741 -0.0648
 5326SOL    HW133120   3.810   4.777   7.247 -0.4655 -2.2303 -0.6311
 5326SOL    HW233121   3.934   4.764   7.334 -0.2617  0.9656 -0.3196
 5327SOL     OW33122   4.747   1.860   7.764 -0.0551  0.4448 -0.2300
 5327SOL    HW133123   4.763   1.905   7.681 -2.9175  0.4711 -0.8772
 5327SOL    HW233124   4.699   1.924   7.817  0.8004  0.0516  1.0721
 5328SOL     OW33125   5.791   2.311   5.640 -0.2888 -0.3988  0.8505
 5328SOL    HW133126   5.865   2.283   5.692 -0.8966  0.6742  2.3712
 5328SOL    HW233127   5.752   2.230   5.606  2.3698 -0.9257 -1.2248
 5329SOL     OW33128   0.617   0.633   0.965  0.2761 -0.2319 -0.4871
 5329SOL    HW133129   0.585   0.564   0.907 -0.8316  0.3805 -0.6349
 5329SOL    HW233130   0.702   0.657   0.928  0.2240 -0.8327 -1.0202
 5330SOL     OW33131   2.817   3.907   5.860 -0.5733  0.2063 -0.0439
 5330SOL    HW133132   2.892   3.855   5.890 -0.9224 -0.3574 -0.1296
 5330SOL    HW233133   2.826   3.990   5.906  0.1314  0.1660 -0.0899
 5331SOL     OW33134   4.484   4.451   1.572 -0.2918  0.0643 -0.0507
 5331SOL    HW133135   4.542   4.493   1.636 -1.1278  0.5623  0.4001
 5331SOL    HW233136   4.400   4.442   1.618 -0.3325 -1.5058 -0.3566
 5332SOL     OW33137   2.941   6.021   7.339  0.2931  0.2108  0.3571
 5332SOL    HW133138   3.014   5.991   7.284 -1.8856  0.0698 -2.6970
 5332SOL    HW233139   2.941   6.116   7.328 -0.3224  0.1558 -0.1173
 5333SOL     OW33140   3.662   0.105   7.296  0.1898  0.0665 -0.8657
 5333SOL    HW133141   3.660   0.024   7.347  0.9069 -1.3915 -3.0435
 5333SOL    HW233142   3.574   0.141   7.307  0.5318  0.3072  2.0171
 5334SOL     OW33143   3.383   2.773   1.592 -0.0678  0.3634  0.2563
 5334SOL    HW133144   3.469   2.799   1.559  0.9758  0.8326  3.0842
 5334SOL    HW233145   3.321   2.832   1.549  0.9131 -0.1552 -2.0303
 5335SOL     OW33146   5.089   2.534   0.485 -0.1006 -0.2332  0.4167
 5335SOL    HW133147   5.097   2.599   0.415  0.0904  1.7490  2.1753
 5335SOL    HW233148   5.150   2.564   0.553 -1.4507 -1.1356  2.1022
 5336SOL     OW33149   4.774   4.778   0.820 -0.4033  0.1074 -0.2967
 5336SOL    HW133150   4.741   4.791   0.909 -0.1824 -2.7047  0.2968
 5336SOL    HW233151   4.733   4.847   0.768 -0.6171  1.7619  1.9479
 5337SOL     OW33152   1.243   6.082   6.572 -0.0791 -0.2273 -0.4272
 5337SOL    HW133153   1.319   6.130   6.605 -1.3727  1.5443  0.1784
 5337SOL    HW233154   1.219   6.129   6.492 -1.2090 -0.0115  0.0171
 5338SOL     OW33155   5.159   4.792   6.929  0.6259  0.2201  0.2635
 5338SOL    HW133156   5.241   4.761   6.892  1.2253  0.1216  1.6225
 5338SOL    HW233157   5.160   4.887   6.912  0.7027  0.1177 -0.3098
 5339SOL     OW33158   6.431   2.541   6.866  0.4732 -0.1084  0.4680
 5339SOL    HW133159   6.349   2.493   6.866  0.2396  0.2717 -0.3797
 5339SOL    HW233160   6.453   2.552   6.958  0.9104 -2.4687  0.6946
 5340SOL     OW33161   5.627   3.342   7.580 -0.1832 -0.1463  0.4521
 5340SOL    HW133162   5.681   3.421   7.572 -0.3369 -0.1085 -0.2760
 5340SOL    HW233163   5.601   3.321   7.490  0.3301 -1.3721  0.5742
 5341SOL     OW33164   5.120   5.160   0.374  0.9948 -0.3607 -0.4053
 5341SOL    HW133165   5.164   5.205   0.446 -0.6626  0.6934  0.0311
 5341SOL    HW233166   5.189   5.136   0.313  2.1538  1.1519  0.2614
 5342SOL     OW33167   3.528   5.946   6.267 -0.1919 -0.0527  0.5229
 5342SOL    HW133168   3.468   5.989   6.206  0.0565 -0.5602 -0.0871
 5342SOL    HW233169   3.475   5.880   6.311 -0.5363  0.7603  1.3501
 5343SOL     OW33170   3.658   0.940   5.920 -0.0485 -0.3238  0.1479
 5343SOL    HW133171   3.712   0.953   5.842  1.7364 -0.9930  1.2172
 5343SOL    HW233172   3.626   0.850   5.912  1.6033 -1.0275  1.0016
 5344SOL     OW33173   1.666   5.716   5.276 -0.7541 -0.6363 -0.2055
 5344SOL    HW133174   1.707   5.663   5.208 -1.7715 -1.2658 -0.3549
 5344SOL    HW233175   1.735   5.776   5.305  0.6154 -2.3991  0.3551
 5345SOL     OW33176   2.808   0.250   5.731 -0.0037  0.4217 -0.4224
 5345SOL    HW133177   2.776   0.178   5.785 -1.8121  2.7360  1.8918
 5345SOL    HW233178   2.898   0.264   5.760 -0.1013 -0.0585  0.1208
 5346SOL     OW33179   4.512   0.148   6.049 -0.0341 -0.3885  0.1820
 5346SOL    HW133180   4.425   0.109   6.045  0.3346 -1.2249  0.0346
 5346SOL    HW233181   4.570   0.081   6.012  1.2795 -1.7007  4.0546
 5347SOL     OW33182   4.904   4.621   1.581  0.2365  0.1853 -0.4737
 5347SOL    HW133183   4.977   4.593   1.637 -0.6099  1.2426  1.2683
 5347SOL    HW233184   4.828   4.579   1.620 -0.6220  2.3112  0.3143
 5348SOL     OW33185   1.592   3.669   0.986 -0.1427 -0.3137 -0.1123
 5348SOL    HW133186   1.667   3.615   0.963 -1.2453 -1.4064 -1.2774
 5348SOL    HW233187   1.595   3.742   0.924  2.3184  2.0989  2.4995
 5349SOL     OW33188   2.034   6.067   1.678 -0.0424  0.1996 -0.1227
 5349SOL    HW133189   2.110   6.066   1.736 -0.6442  0.8528  0.7193
 5349SOL    HW233190   2.065   6.031   1.595  0.6376 -1.5685  0.8538
 5350SOL     OW33191   0.974   0.913   0.257 -0.0892  0.6434 -0.5296
 5350SOL    HW133192   0.905   0.922   0.323  0.1341  3.2462 -0.5801
 5350SOL    HW233193   0.980   0.818   0.242 -1.7934  0.1633  1.4092
 5351SOL     OW33194   1.670   0.344   1.226 -0.3676 -0.2483 -0.3407
 5351SOL    HW133195   1.579   0.331   1.199  0.2252 -0.4661 -2.3990
 5351SOL    HW233196   1.693   0.431   1.192  0.2517 -0.2731  0.0029
 5352SOL     OW33197   0.165   0.438   7.722  0.1619  0.4032 -0.7056
 5352SOL    HW133198   0.181   0.451   7.628  2.3969  0.5869 -0.3601
 5352SOL    HW233199   0.134   0.348   7.728  0.5601  0.1898 -1.5775
 5353SOL     OW33200   5.686   2.538   6.773  0.1684 -0.1023 -0.7760
 5353SOL    HW133201   5.632   2.490   6.711  0.2065 -1.3031  0.0726
 5353SOL    HW233202   5.643   2.623   6.782 -0.2861 -0.2079 -1.8104
 5354SOL     OW33203   0.865   2.294   0.782  0.0557  0.4395  0.5036
 5354SOL    HW133204   0.773   2.276   0.760  0.5898 -1.7058 -0.1629
 5354SOL    HW233205   0.901   2.335   0.703 -0.1244  0.5206  0.4626
 5355SOL     OW33206   2.422   2.980   5.907  0.3895 -0.3599  0.4176
 5355SOL    HW133207   2.431   3.072   5.933 -0.7712 -0.2525  0.5260
 5355SOL    HW233208   2.425   2.982   5.812  0.7249 -0.2575  0.4287
 5356SOL     OW33209   0.260   0.953   0.016 -0.1468 -0.1973 -0.1163
 5356SOL    HW133210   0.281   0.936  -0.076  0.4119  1.6845 -0.3667
 5356SOL    HW233211   0.235   0.867   0.050 -0.9341 -0.8405 -2.1519
 5357SOL     OW33212   5.856   2.502   1.503 -0.1320  0.3479  0.1886
 5357SOL    HW133213   5.868   2.475   1.594  0.0980 -2.2911 -0.5357
 5357SOL    HW233214   5.932   2.464   1.457 -1.1348  0.1385 -1.3566
 5358SOL     OW33215   4.316   1.304   7.160 -0.0920  0.5799  0.2493
 5358SOL    HW133216   4.225   1.312   7.191 -0.4520 -2.2026  0.1460
 5358SOL    HW233217   4.319   1.359   7.082 -1.1545  2.0986  1.2001
 5359SOL     OW33218   5.325   1.694   6.993  0.3523  0.1151 -0.4259
 5359SOL    HW133219   5.238   1.677   6.958  0.4531 -1.1511 -0.1203
 5359SOL    HW233220   5.383   1.636   6.944  0.6966 -0.6774  0.8581
 5360SOL     OW33221   1.634   2.148   0.737 -0.3462 -0.1674  0.1771
 5360SOL    HW133222   1.605   2.238   0.754 -0.2138 -0.4084  1.8500
 5360SOL    HW233223   1.617   2.102   0.819  1.6733 -1.1405  0.1090
 5361SOL     OW33224   1.681   4.884   1.714 -0.3166  0.2708  0.2921
 5361SOL    HW133225   1.666   4.977   1.729 -1.8081  0.2464 -0.7751
 5361SOL    HW233226   1.627   4.840   1.779  0.1735  0.1425  0.6169
 5362SOL     OW33227   5.082   4.141   6.663 -0.1869 -0.1329  0.1910
 5362SOL    HW133228   5.074   4.149   6.758  1.9091 -2.3675  0.6592
 5362SOL    HW233229   5.004   4.185   6.629 -0.4407  1.7444  2.8537
 5363SOL     OW33230   2.988   3.794   6.617  0.4572 -0.2674 -0.5117
 5363SOL    HW133231   3.071   3.828   6.585  1.0850 -0.6620  0.6333
 5363SOL    HW233232   2.927   3.805   6.544  1.1770  1.2653 -0.9230
 5364SOL     OW33233   1.240   2.182   0.216  0.5488 -0.2923 -0.0540
 5364SOL    HW133234   1.263   2.214   0.128 -0.7055 -1.5300 -0.8914
 5364SOL    HW233235   1.262   2.089   0.213 -0.8086 -0.6504  0.4320
 5365SOL     OW33236   2.328   3.247   1.142 -0.1472 -0.9101 -0.1037
 5365SOL    HW133237   2.375   3.206   1.215  0.6381  0.7887  0.4123
 5365SOL    HW233238   2.397   3.282   1.086 -0.7129  1.6596  0.6768
 5366SOL     OW33239   1.785   1.841   6.606 -0.5316 -0.3735 -0.2471
 5366SOL    HW133240   1.848   1.900   6.566  0.1503 -1.0933 -0.2558
 5366SOL    HW233241   1.827   1.812   6.687 -0.8618 -0.8323 -0.2354
 5367SOL     OW33242   3.660   5.491   0.106 -0.2085  0.0057  0.1425
 5367SOL    HW133243   3.737   5.507   0.160 -0.3964  0.8014  0.1902
 5367SOL    HW233244   3.628   5.405   0.134  0.2744 -0.0355  0.5843
 5368SOL     OW33245   0.154   0.194   7.239 -0.2312  0.2072 -0.3140
 5368SOL    HW133246   0.150   0.117   7.181 -0.8647  0.1701 -0.2270
 5368SOL    HW233247   0.236   0.182   7.287  0.3058  0.2292 -1.1831
 5369SOL     OW33248   4.034   4.158   0.305 -0.0511  0.5390  0.1665
 5369SOL    HW133249   4.005   4.248   0.316 -0.7449  0.2341  0.9219
 5369SOL    HW233250   3.968   4.117   0.249 -0.7330  0.0403  1.2903
 5370SOL     OW33251   3.780   0.683   5.193  0.1741  0.1635  0.2798
 5370SOL    HW133252   3.853   0.637   5.234 -0.6200 -0.7960  0.6680
 5370SOL    HW233253   3.732   0.614   5.147 -0.7169  0.7092  0.3840
 5371SOL     OW33254   4.908   0.986   6.606  0.1096  0.7598 -0.1997
 5371SOL    HW133255   4.856   1.002   6.685  0.4732  1.4072 -0.0784
 5371SOL    HW233256   4.977   1.053   6.610  2.6886 -1.7668  1.1217
 5372SOL     OW33257   2.262   2.656   1.477 -0.5699  0.1959  0.3063
 5372SOL    HW133258   2.235   2.650   1.385 -0.9480 -1.1178  0.4755
 5372SOL    HW233259   2.289   2.567   1.499  4.7325  1.3600 -0.0291
 5373SOL     OW33260   3.814   0.956   7.237  0.1022  0.0748 -0.2274
 5373SOL    HW133261   3.792   1.018   7.307 -1.0212 -1.7435  1.1055
 5373SOL    HW233262   3.841   0.877   7.283  1.4911 -0.4725 -1.8942
 5374SOL     OW33263   2.520   1.828   7.302 -0.2514 -0.8161  0.6928
 5374SOL    HW133264   2.612   1.804   7.319 -0.4538 -1.6239  0.7119
 5374SOL    HW233265   2.525   1.905   7.246  0.4465 -1.4746 -0.1839
 5375SOL     OW33266   2.674   5.002   6.693 -0.0859  0.3556  0.5285
 5375SOL    HW133267   2.756   4.967   6.729 -0.2850 -0.2157  0.4452
 5375SOL    HW233268   2.670   5.092   6.724 -1.0172 -0.5424  3.2379
 5376SOL     OW33269   4.731   6.385   7.190 -0.0225  0.1339 -0.7326
 5376SOL    HW133270   4.720   6.304   7.240 -1.2721  0.3402 -0.6324
 5376SOL    HW233271   4.810   6.371   7.138 -0.6754 -1.5093 -1.3724
 5377SOL     OW33272   1.587   0.985   5.394 -0.1090  0.1370 -0.0929
 5377SOL    HW133273   1.520   1.052   5.380  0.9431  1.1532 -0.5532
 5377SOL    HW233274   1.608   0.953   5.306  1.0637  0.9459 -0.1397
 5378SOL     OW33275   1.993   3.069   6.298  0.1102  0.1978  0.3682
 5378SOL    HW133276   1.976   3.162   6.311  0.0062  0.0359  1.5608
 5378SOL    HW233277   2.059   3.065   6.229  1.3341  1.2492  1.4308
 5379SOL     OW33278   4.894   5.589   0.928 -0.2866 -0.9954  0.6307
 5379SOL    HW133279   4.942   5.507   0.924 -0.3595 -1.1056  1.8279
 5379SOL    HW233280   4.949   5.647   0.981  0.0549 -0.0566 -0.6755
 5380SOL     OW33281   3.431   3.749   5.908  0.3671 -0.0422  0.0523
 5380SOL    HW133282   3.356   3.696   5.933  0.5121  0.7278  2.3245
 5380SOL    HW233283   3.480   3.694   5.846 -0.4565 -1.7849  0.9006
 5381SOL     OW33284   6.360   4.585   1.299 -0.3304 -0.3322 -0.1350
 5381SOL    HW133285   6.354   4.579   1.203 -0.2138  0.8616 -0.2310
 5381SOL    HW233286   6.308   4.511   1.330 -2.4817  0.6925 -1.1002
 5382SOL     OW33287   0.442   1.365   7.105  0.2937  0.0374 -0.5519
 5382SOL    HW133288   0.443   1.292   7.167 -0.8576  2.0928  2.0821
 5382SOL    HW233289   0.349   1.377   7.083  0.3407  1.3127 -0.1336
 5383SOL     OW33290   3.411   0.259   1.221 -0.3418  0.1258  0.3377
 5383SOL    HW133291   3.334   0.212   1.253 -0.5816  1.1946  1.3704
 5383SOL    HW233292   3.377   0.326   1.162 -0.1262  0.0754  0.1505
 5384SOL     OW33293   0.677   1.452   1.400  0.1097 -0.4398 -0.0510
 5384SOL    HW133294   0.603   1.396   1.374 -1.0360  1.5976 -1.4452
 5384SOL    HW233295   0.724   1.400   1.465 -2.1840 -2.0922  0.4356
 5385SOL     OW33296   4.569   6.385   0.584 -0.2805  0.5698  0.3850
 5385SOL    HW133297   4.586   6.423   0.670  0.3541 -1.6602  1.3273
 5385SOL    HW233298   4.639   6.420   0.528  0.3331  0.7090  1.2143
 5386SOL     OW33299   5.089   3.601   7.273 -0.7531  0.0468 -0.1475
 5386SOL    HW133300   5.124   3.688   7.292 -0.8143 -0.0182  0.2720
 5386SOL    HW233301   5.166   3.545   7.270 -0.8999 -0.3547  2.1782
 5387SOL     OW33302   2.229   5.584   6.819  0.3892  0.1907  1.3761
 5387SOL    HW133303   2.304   5.598   6.761 -1.3066 -1.0253 -1.3042
 5387SOL    HW233304   2.193   5.672   6.832  1.1421  0.5541  1.1188
 5388SOL     OW33305   4.989   5.358   6.325 -0.5370  0.3625  0.2918
 5388SOL    HW133306   5.064   5.304   6.348 -1.7601 -1.9725 -0.7975
 5388SOL    HW233307   4.982   5.421   6.397  1.9599  0.1754  0.7893
 5389SOL     OW33308   2.894   0.380   7.406  0.0376  0.0640 -0.4137
 5389SOL    HW133309   2.913   0.287   7.416 -0.4550  0.0025 -0.0266
 5389SOL    HW233310   2.862   0.408   7.491  0.2176  0.6006 -0.5151
 5390SOL     OW33311   3.953   1.239   2.062 -0.1088 -0.4383  0.0367
 5390SOL    HW133312   4.018   1.296   2.102  0.3204  0.3063 -1.6302
 5390SOL    HW233313   3.984   1.151   2.081  1.6462 -0.1050 -1.0508
 5391SOL     OW33314   3.011   4.685   7.061  0.1511  0.5962 -0.3944
 5391SOL    HW133315   3.099   4.666   7.029  0.8178 -0.0420  1.6658
 5391SOL    HW233316   2.957   4.614   7.027  0.8946 -0.2376  0.1138
 5392SOL     OW33317   6.195   3.695   6.489  0.0489 -0.0554 -0.1751
 5392SOL    HW133318   6.246   3.763   6.445  0.0074  1.1760  1.5503
 5392SOL    HW233319   6.233   3.690   6.576 -0.3470 -1.8535 -0.0779
 5393SOL     OW33320   1.096   6.449   0.269  0.0128 -0.6603  0.8210
 5393SOL    HW133321   1.148   6.476   0.345  1.3130  0.3520 -0.3672
 5393SOL    HW233322   1.043   6.525   0.248  0.7842 -0.3849 -0.1842
 5394SOL     OW33323   2.885   5.059   1.235 -0.0529 -0.4769 -0.2971
 5394SOL    HW133324   2.935   4.985   1.201  2.0524  0.5913  0.3260
 5394SOL    HW233325   2.849   5.027   1.318 -0.9402 -1.4318 -1.0189
 5395SOL     OW33326   3.307   1.238   0.956  0.5361 -0.3249  0.0680
 5395SOL    HW133327   3.351   1.171   1.007  0.4249 -1.3359 -1.1175
 5395SOL    HW233328   3.377   1.286   0.912  0.5392 -1.2658 -1.0014
 5396SOL     OW33329   4.644   5.924   0.245 -0.1267 -0.4136 -0.5733
 5396SOL    HW133330   4.606   6.011   0.229  0.5496  0.2902  1.3246
 5396SOL    HW233331   4.727   5.942   0.288 -0.0989 -2.0171  0.1143
 5397SOL     OW33332   3.120   2.388   0.546  0.3745 -0.2094  0.3621
 5397SOL    HW133333   3.072   2.415   0.467 -0.7907 -1.4537  0.6117
 5397SOL    HW233334   3.074   2.310   0.577  3.5798 -2.6014 -0.3652
 5398SOL     OW33335   5.514   4.631   5.626  0.0070  0.4894 -0.1015
 5398SOL    HW133336   5.488   4.718   5.657 -0.4906 -0.4361  2.2433
 5398SOL    HW233337   5.432   4.590   5.599 -0.4451 -0.6793  2.7288
 5399SOL     OW33338   1.454   2.400   0.093  0.2356  0.0287 -0.1472
 5399SOL    HW133339   1.502   2.331   0.138 -0.6302 -0.4833  0.0008
 5399SOL    HW233340   1.395   2.354   0.033 -1.3203  0.5566  0.9069
 5400SOL     OW33341   2.110   0.073   5.646  0.7892  0.0406  0.2089
 5400SOL    HW133342   2.038   0.115   5.600  1.2049  1.7112  0.9840
 5400SOL    HW233343   2.074   0.051   5.732  0.6803 -0.8865 -0.0655
 5401SOL     OW33344   5.705   4.254   0.759  0.2580 -0.3419  0.3632
 5401SOL    HW133345   5.638   4.276   0.824  1.4043  0.3526  1.3465
 5401SOL    HW233346   5.749   4.176   0.796  2.5807  1.4976  1.7824
 5402SOL     OW33347   4.083   0.980   6.895  0.3153  0.0530 -0.8262
 5402SOL    HW133348   4.021   0.910   6.916 -1.0821  1.7322  1.0439
 5402SOL    HW233349   4.082   1.037   6.972  0.0849  3.0326 -2.8694
 5403SOL     OW33350   4.803   1.822   0.724  0.1658  0.2259  0.2646
 5403SOL    HW133351   4.872   1.757   0.714 -0.1818 -0.1729  0.4166
 5403SOL    HW233352   4.818   1.884   0.653 -0.6612 -1.0973 -1.1438
 5404SOL     OW33353   6.062   2.066   0.704  0.1807 -0.2699 -0.3525
 5404SOL    HW133354   6.081   2.103   0.790 -0.8153 -0.6126  0.0248
 5404SOL    HW233355   6.138   2.089   0.651  0.3230  0.8918  0.3198
 5405SOL     OW33356   2.839   0.047   6.118  0.4818  0.0735  0.0558
 5405SOL    HW133357   2.849   0.140   6.140  0.2963  0.1166 -0.0443
 5405SOL    HW233358   2.804   0.047   6.029 -1.7769 -0.0411  0.8750
 5406SOL     OW33359   5.202   1.567   1.305  1.0002  0.6771  0.2581
 5406SOL    HW133360   5.279   1.512   1.296  0.7321 -0.1661  2.3759
 5406SOL    HW233361   5.235   1.649   1.342  0.9537  0.4068  0.9285
 5407SOL     OW33362   4.585   0.385   6.358 -0.3080 -0.2119 -0.2162
 5407SOL    HW133363   4.593   0.298   6.318 -1.6197 -1.0302  1.1522
 5407SOL    HW233364   4.666   0.397   6.408  0.9240  0.4190 -2.2530
 5408SOL     OW33365   5.679   0.700   7.399  1.2741 -0.2594  0.1537
 5408SOL    HW133366   5.621   0.627   7.421  1.4227 -0.7016 -0.8596
 5408SOL    HW233367   5.623   0.761   7.350  1.3486 -0.0763  0.2956
 5409SOL     OW33368   0.085   3.465   6.110  0.1873  0.0759  0.1324
 5409SOL    HW133369   0.111   3.375   6.130  0.0525  0.0701  0.2859
 5409SOL    HW233370   0.081   3.469   6.014 -0.8824 -0.3974  0.1384
 5410SOL     OW33371   2.504   5.718   7.250 -0.5988  0.7879 -0.3286
 5410SOL    HW133372   2.487   5.666   7.171  1.5887 -1.1163  0.3190
 5410SOL    HW233373   2.564   5.787   7.221 -1.8212  1.6712 -0.7904
 5411SOL     OW33374   1.073   1.872   7.752  0.2537  0.0026  0.0144
 5411SOL    HW133375   1.096   1.950   7.803  0.3016 -0.2510  0.3857
 5411SOL    HW233376   1.054   1.805   7.817  0.8912 -0.4962 -0.2922
 5412SOL     OW33377   2.145   5.836   6.827  0.0615  0.8289  0.0915
 5412SOL    HW133378   2.051   5.837   6.847  0.7170  2.1841  4.0519
 5412SOL    HW233379   2.164   5.926   6.799  0.3755  1.0022  0.8255
 5413SOL     OW33380   1.591   1.746   6.396  0.0746  0.4115  0.5457
 5413SOL    HW133381   1.651   1.762   6.469  1.2664  0.6986 -0.4558
 5413SOL    HW233382   1.507   1.781   6.425  0.4389  0.2191  1.8952
 5414SOL     OW33383   6.364   1.210   7.315  0.9465  0.1808  0.0830
 5414SOL    HW133384   6.273   1.234   7.299  0.9537  1.4756  1.6152
 5414SOL    HW233385   6.403   1.202   7.228 -0.2868  1.0293 -0.5821
 5415SOL     OW33386   1.916   4.841   6.459 -0.2458  0.0008 -0.1810
 5415SOL    HW133387   1.960   4.771   6.412 -0.9572 -0.2925 -0.4210
 5415SOL    HW233388   1.981   4.873   6.522  0.0458 -0.9477  0.0119
 5416SOL     OW33389   3.250   0.968   1.624  0.1212 -0.2942 -0.1824
 5416SOL    HW133390   3.306   0.931   1.692 -2.9836 -2.5247  1.4131
 5416SOL    HW233391   3.181   1.014   1.671  0.0946  1.7334 -2.0288
 5417SOL     OW33392   3.491   1.982   1.804  0.0740  0.5768 -0.2522
 5417SOL    HW133393   3.452   1.980   1.892  2.5459  1.1703  0.9469
 5417SOL    HW233394   3.471   2.070   1.771  0.0678  0.7392  0.1772
 5418SOL     OW33395   2.803   0.030   1.517 -0.0079 -0.7197 -0.4097
 5418SOL    HW133396   2.753   0.047   1.437  0.2296  0.1166 -0.3898
 5418SOL    HW233397   2.833   0.116   1.545  2.7626 -1.3162 -1.2510
 5419SOL     OW33398   1.267   2.790   0.621 -0.2219  0.1344 -0.1957
 5419SOL    HW133399   1.186   2.806   0.669 -0.1568  0.5098 -0.2104
 5419SOL    HW233400   1.241   2.790   0.529 -0.2609 -0.0808 -0.1854
 5420SOL     OW33401   6.033   1.994   6.846 -0.8089 -0.4825  0.1236
 5420SOL    HW133402   6.053   2.046   6.924 -0.9661 -0.6517  0.2745
 5420SOL    HW233403   6.114   1.996   6.795 -0.3938 -1.1763  0.7430
 5421SOL     OW33404   6.019   2.928   2.031 -0.9539 -0.4225  0.1956
 5421SOL    HW133405   6.005   2.935   2.126 -1.2140  0.8690  0.0835
 5421SOL    HW233406   5.994   3.014   1.997 -1.1621 -0.9734 -1.0904
 5422SOL     OW33407   5.729   1.375   7.356 -0.4366  0.2891  0.1420
 5422SOL    HW133408   5.780   1.443   7.400 -3.2735  1.5127  1.8514
 5422SOL    HW233409   5.652   1.421   7.323 -1.5197 -1.7766 -0.3862
 5423SOL     OW33410   4.120   0.759   2.352  0.0057  0.1716 -0.2640
 5423SOL    HW133411   4.214   0.743   2.366 -0.5073 -2.7545  0.5975
 5423SOL    HW233412   4.101   0.719   2.267 -0.5841  0.1215 -0.1131
 5424SOL     OW33413   4.738   5.326   7.728 -0.3420 -0.1848  0.1645
 5424SOL    HW133414   4.773   5.244   7.693 -0.5325  0.2590 -1.0933
 5424SOL    HW233415   4.772   5.329   7.818 -0.5078 -1.7362  0.3130
 5425SOL     OW33416   6.365   5.847   0.849 -0.1198  0.3184 -0.5028
 5425SOL    HW133417   6.281   5.867   0.891 -0.4815 -1.4753 -0.2957
 5425SOL    HW233418   6.417   5.805   0.917 -0.9902 -3.3475 -1.8599
 5426SOL     OW33419   6.172   3.190   6.078 -0.3248  0.2746  0.4113
 5426SOL    HW133420   6.222   3.183   5.997 -0.8518  0.0230  0.0989
 5426SOL    HW233421   6.215   3.129   6.138 -0.8457 -0.6940 -0.1716
 5427SOL     OW33422   0.142   1.679   2.207 -0.1133  0.0777  0.0734
 5427SOL    HW133423   0.060   1.631   2.194  1.7033 -2.8321 -1.6883
 5427SOL    HW233424   0.171   1.652   2.294 -0.3933  0.1197  0.1828
 5428SOL     OW33425   6.373   1.393   7.686 -0.5528 -0.4040  0.0728
 5428SOL    HW133426   6.424   1.356   7.757  0.1229  1.3089  0.5185
 5428SOL    HW233427   6.284   1.399   7.721 -0.1748  0.6517  0.8664
 5429SOL     OW33428   6.267   0.638   0.607 -0.0697  0.5925  0.1872
 5429SOL    HW133429   6.354   0.615   0.575 -0.0556  0.2227  0.4768
 5429SOL    HW233430   6.254   0.729   0.581  0.4441  0.6774  0.2320
 5430SOL     OW33431   3.582   0.715   6.289  0.3342 -0.7380 -0.4118
 5430SOL    HW133432   3.597   0.635   6.340  0.6723 -0.4178  0.0000
 5430SOL    HW233433   3.660   0.768   6.306 -0.1171 -0.1131 -0.2852
 5431SOL     OW33434   5.824   3.655   1.939  0.4512 -0.0959 -0.2379
 5431SOL    HW133435   5.862   3.568   1.948  2.7863  0.8400 -0.4222
 5431SOL    HW233436   5.763   3.663   2.012  2.0737 -0.9812  1.2602
 5432SOL     OW33437   1.252   1.639   5.531 -0.2914  1.2734  0.8317
 5432SOL    HW133438   1.159   1.657   5.514 -0.2955  0.3478 -0.2216
 5432SOL    HW233439   1.288   1.615   5.446  0.9593  1.7373  1.2009
 5433SOL     OW33440   6.327   1.261   6.844  0.1762  0.1197  0.3768
 5433SOL    HW133441   6.368   1.338   6.884 -1.0528  1.7570 -1.3122
 5433SOL    HW233442   6.353   1.266   6.752 -3.1207  0.9037 -0.6511
 5434SOL     OW33443   1.485   5.407   6.655  0.3689  0.3565  0.0316
 5434SOL    HW133444   1.557   5.363   6.610  1.2251 -0.6012  2.2237
 5434SOL    HW233445   1.418   5.417   6.587  1.2239 -1.8620 -1.2485
 5435SOL     OW33446   2.164   1.558   0.540 -0.0847 -0.0247  0.2651
 5435SOL    HW133447   2.147   1.467   0.514 -0.5032  0.4587 -1.2411
 5435SOL    HW233448   2.191   1.551   0.632  0.3267 -1.7114  0.0623
 5436SOL     OW33449   2.609   0.873   6.400  0.6579  0.8071 -0.0027
 5436SOL    HW133450   2.595   0.880   6.305  1.4734  2.3650 -0.0325
 5436SOL    HW233451   2.661   0.949   6.422  0.2416  0.6154  1.7689
 5437SOL     OW33452   0.569   1.666   0.146  0.0266  0.8732 -0.3644
 5437SOL    HW133453   0.552   1.610   0.071 -0.7084  0.8355 -0.1829
 5437SOL    HW233454   0.555   1.755   0.113 -2.3211  0.7764  0.1854
 5438SOL     OW33455   2.307   1.165   6.511  0.8442 -0.1555  0.0086
 5438SOL    HW133456   2.343   1.156   6.423  1.4142  0.5888  0.1583
 5438SOL    HW233457   2.299   1.075   6.543  0.2606 -0.4586 -0.9416
 5439SOL     OW33458   1.294   2.344   6.162 -0.3878  0.3709 -0.1714
 5439SOL    HW133459   1.300   2.274   6.097  0.6573  0.4014 -0.1290
 5439SOL    HW233460   1.228   2.404   6.127 -0.9613 -0.4053 -0.4313
 5440SOL     OW33461   1.448   0.499   6.102  0.2673  0.2298  0.1302
 5440SOL    HW133462   1.502   0.449   6.041  1.3818  1.7164 -0.1716
 5440SOL    HW233463   1.462   0.458   6.187  4.1309  2.0876  0.6097
 5441SOL     OW33464   6.142   4.474   7.273 -0.6868  0.3710  0.1132
 5441SOL    HW133465   6.069   4.473   7.336 -0.2957  1.4595  0.6024
 5441SOL    HW233466   6.100   4.489   7.188 -1.1965 -0.8475  0.1242
 5442SOL     OW33467   4.908   2.032   0.885 -0.7084 -0.3930  1.0526
 5442SOL    HW133468   4.840   2.088   0.847 -0.7133 -1.1277 -0.0785
 5442SOL    HW233469   4.913   1.957   0.826  1.1792 -0.3069  1.0257
 5443SOL     OW33470   5.261   4.820   6.553  0.2111  0.1288  0.2432
 5443SOL    HW133471   5.206   4.743   6.562  0.8882 -0.5094 -0.9084
 5443SOL    HW233472   5.221   4.869   6.481 -0.2234  0.8875  0.9755
 5444SOL     OW33473   0.288   2.554   0.759 -0.1486  0.3886  0.4106
 5444SOL    HW133474   0.263   2.464   0.776  0.9911  0.2703  1.6194
 5444SOL    HW233475   0.219   2.607   0.800  1.0188  0.0677  2.9548
 5445SOL     OW33476   4.891   2.030   0.530 -0.2204  0.6172 -0.8607
 5445SOL    HW133477   4.976   2.045   0.488  0.2744  1.3263  0.3673
 5445SOL    HW233478   4.872   2.111   0.577 -1.7093  0.5672 -1.3134
 5446SOL     OW33479   4.996   1.739   6.290 -0.5004 -0.2007  0.0084
 5446SOL    HW133480   5.023   1.818   6.337  0.8537 -1.3433  1.2479
 5446SOL    HW233481   4.901   1.736   6.301 -0.7115  1.7612 -0.9359
 5447SOL     OW33482   1.815   0.023   0.852 -0.5647  0.0839  0.2642
 5447SOL    HW133483   1.833   0.091   0.917  0.9950 -0.4429  0.4383
 5447SOL    HW233484   1.797   0.070   0.771 -0.1777  0.7257  0.5453
 5448SOL     OW33485   1.984   6.348   1.584  0.1038  0.4324 -0.5482
 5448SOL    HW133486   2.009   6.377   1.672 -1.4339  0.4593 -0.0881
 5448SOL    HW233487   1.956   6.257   1.595 -0.8414  0.6679 -0.8357
 5449SOL     OW33488   1.291   3.314   1.099  0.0720 -0.0377  0.2051
 5449SOL    HW133489   1.223   3.275   1.155  0.1955 -2.1944 -1.0175
 5449SOL    HW233490   1.371   3.307   1.150 -0.2174  0.2612  0.7053
 5450SOL     OW33491   3.700   4.604   5.164  0.0579 -0.2706 -0.4177
 5450SOL    HW133492   3.699   4.679   5.222  1.3299 -1.2251  0.9165
 5450SOL    HW233493   3.613   4.565   5.173  0.0522 -0.0812  0.4132
 5451SOL     OW33494   6.145   5.916   0.944  0.0838  0.5066 -0.3270
 5451SOL    HW133495   6.050   5.903   0.944 -0.2036  2.3928 -0.3340
 5451SOL    HW233496   6.160   5.986   1.007  1.8892 -2.0521  2.4325
 5452SOL     OW33497   1.787   2.352   1.595 -0.4095 -0.1152 -0.0085
 5452SOL    HW133498   1.793   2.287   1.525 -1.9655 -0.4719  0.1498
 5452SOL    HW233499   1.861   2.331   1.653 -0.7679 -1.6381 -0.0559
 5453SOL     OW33500   1.037   1.835   6.581  0.1851 -0.3982  0.1301
 5453SOL    HW133501   0.978   1.837   6.656  0.6049 -0.5725  0.4708
 5453SOL    HW233502   1.098   1.907   6.596  0.3899 -0.5554  0.0539
 5454SOL     OW33503   1.606   5.329   6.134  0.0455 -1.0518 -0.1623
 5454SOL    HW133504   1.619   5.261   6.200 -1.6672 -0.4636  0.8458
 5454SOL    HW233505   1.534   5.296   6.079  0.6959 -1.0254 -1.0614
 5455SOL     OW33506   5.590   1.125   7.690 -0.6750  0.0256  0.1974
 5455SOL    HW133507   5.645   1.047   7.703  1.2958  1.6803  2.5958
 5455SOL    HW233508   5.554   1.143   7.777 -1.2425  1.7042 -0.3562
 5456SOL     OW33509   2.233   1.556   6.355 -0.4250  0.4061 -0.2382
 5456SOL    HW133510   2.237   1.484   6.418 -1.3904  1.6479  1.3254
 5456SOL    HW233511   2.149   1.598   6.373 -1.7116 -0.3475 -3.7488
 5457SOL     OW33512   2.917   0.101   7.580 -0.1196  0.2094 -0.0210
 5457SOL    HW133513   2.854   0.062   7.639  0.6809 -0.1775  0.5996
 5457SOL    HW233514   2.931   0.034   7.512 -1.1679  0.7218 -0.7682
 5458SOL     OW33515   5.174   0.016   1.736 -0.4802 -0.2719  0.3183
 5458SOL    HW133516   5.186   0.104   1.772 -0.7642  0.0607 -0.3832
 5458SOL    HW233517   5.097  -0.017   1.782 -0.0350 -0.3865  1.0027
 5459SOL     OW33518   2.106   1.903   1.207  0.0224 -0.1995 -0.2781
 5459SOL    HW133519   2.180   1.964   1.215  0.5495 -0.6480 -1.5734
 5459SOL    HW233520   2.031   1.959   1.185  0.4443  0.0333 -1.1777
 5460SOL     OW33521   4.871   2.951   6.495 -0.1746 -0.0892  0.5312
 5460SOL    HW133522   4.777   2.946   6.479 -0.1951  1.4338 -0.0252
 5460SOL    HW233523   4.900   2.860   6.500 -1.3562 -0.6190 -1.3388
 5461SOL     OW33524   3.589   0.983   1.575  0.5158  0.7855  0.3847
 5461SOL    HW133525   3.543   1.067   1.570  0.9402  1.2001  2.4135
 5461SOL    HW233526   3.547   0.938   1.648 -0.4229 -1.2758 -1.3167
 5462SOL     OW33527   4.425   1.063   6.085  0.7204 -0.2358  0.9830
 5462SOL    HW133528   4.496   1.128   6.082  1.1058 -0.6319  1.2529
 5462SOL    HW233529   4.424   1.025   5.997  0.5739  0.0441  0.8601
 5463SOL     OW33530   0.093   5.268   1.037  0.2363 -0.0237 -0.6761
 5463SOL    HW133531   0.162   5.202   1.044 -0.1136 -0.3951 -0.6404
 5463SOL    HW233532   0.043   5.241   0.959  1.0641  1.1418 -1.6545
 5464SOL     OW33533   1.289   3.811   1.238  0.2553 -0.2022 -0.1371
 5464SOL    HW133534   1.202   3.790   1.271 -0.1938  1.4738 -0.1473
 5464SOL    HW233535   1.333   3.726   1.228 -0.7806 -0.9616  1.4751
 5465SOL     OW33536   4.637   2.348   6.614 -0.0196  0.1615 -0.6200
 5465SOL    HW133537   4.623   2.422   6.555  0.0253 -1.0130 -2.1833
 5465SOL    HW233538   4.565   2.288   6.595  1.9572 -1.9095 -2.2609
 5466SOL     OW33539   1.379   1.051   1.303 -0.2037 -0.1424 -0.6973
 5466SOL    HW133540   1.303   1.110   1.308 -0.2687 -0.2376 -0.5368
 5466SOL    HW233541   1.343   0.967   1.273  0.0750  0.2240 -2.1378
 5467SOL     OW33542   0.394   2.528   0.083 -0.1146 -0.4347  0.3004
 5467SOL    HW133543   0.395   2.620   0.055  2.1203  0.8042  3.8118
 5467SOL    HW233544   0.482   2.496   0.065 -0.0079 -0.9724  1.6889
 5468SOL     OW33545   6.228   6.356   6.097  0.0464  0.2472  0.2501
 5468SOL    HW133546   6.134   6.350   6.110  0.0458 -2.4658 -0.3372
 5468SOL    HW233547   6.266   6.326   6.179  0.3832  0.2083  0.0841
 5469SOL     OW33548   5.746   2.953   1.336  0.4282 -0.0640 -0.0714
 5469SOL    HW133549   5.832   2.922   1.364  0.5576  0.6584  0.3661
 5469SOL    HW233550   5.688   2.879   1.352  0.9312 -0.5025 -0.2069
 5470SOL     OW33551   2.222   3.508   0.139 -0.1503  0.3559  0.2797
 5470SOL    HW133552   2.286   3.560   0.188 -1.2466 -0.2175  2.4442
 5470SOL    HW233553   2.265   3.488   0.057  2.2800  0.3791  1.4661
 5471SOL     OW33554   5.262   5.037   1.831 -0.2619  0.1842  0.3307
 5471SOL    HW133555   5.292   5.103   1.768 -2.4994  0.5609 -0.4155
 5471SOL    HW233556   5.170   5.057   1.845 -0.3084 -1.1361  2.2244
 5472SOL     OW33557   6.159   1.100   1.458  0.7547  0.5009 -0.5178
 5472SOL    HW133558   6.235   1.050   1.487  0.3283 -0.0039 -0.2572
 5472SOL    HW233559   6.185   1.192   1.469  0.0485  0.3947  3.1066
 5473SOL     OW33560   3.617   0.047   0.356  0.5559  0.0224  0.0678
 5473SOL    HW133561   3.673  -0.024   0.325 -0.2039 -0.1474 -0.9682
 5473SOL    HW233562   3.536   0.003   0.382  0.8129  0.2814  1.4159
 5474SOL     OW33563   4.571   0.638   6.612  0.1723  0.3390  0.0062
 5474SOL    HW133564   4.508   0.570   6.636  0.6044 -1.1107 -2.5396
 5474SOL    HW233565   4.519   0.703   6.564  0.3346 -0.0812 -0.7543
 5475SOL     OW33566   3.464   3.487   1.954  0.0650  0.0038  0.1877
 5475SOL    HW133567   3.463   3.393   1.974 -0.2376 -0.2944 -1.1632
 5475SOL    HW233568   3.465   3.492   1.858 -1.5317  1.3858  0.1882
 5476SOL     OW33569   5.058   1.411   0.782 -0.6638 -0.5582  0.0739
 5476SOL    HW133570   5.140   1.388   0.740  0.4748  1.9376  0.7599
 5476SOL    HW233571   5.007   1.455   0.713 -0.2915  0.2958  0.3339
 5477SOL     OW33572   4.358   0.566   0.366  0.2520  0.2883  0.7394
 5477SOL    HW133573   4.449   0.562   0.334 -0.1650 -1.7998 -0.3876
 5477SOL    HW233574   4.305   0.561   0.286 -0.8430 -0.6404  1.5041
 5478SOL     OW33575   6.143   0.437   0.394  0.0266  0.0569  0.4437
 5478SOL    HW133576   6.226   0.476   0.422 -0.4412  0.2703  1.6071
 5478SOL    HW233577   6.095   0.508   0.351 -0.5016  0.5912  1.8610
 5479SOL     OW33578   6.016   5.040   1.130 -0.0070  0.2270  0.1685
 5479SOL    HW133579   6.085   5.103   1.154 -0.4960  1.6953 -2.0252
 5479SOL    HW233580   6.062   4.971   1.084  0.1368  0.7043 -0.4142
 5480SOL     OW33581   4.840   2.666   6.830  0.8998  0.8659 -0.2872
 5480SOL    HW133582   4.818   2.732   6.895 -2.2222 -1.1975  0.9945
 5480SOL    HW233583   4.756   2.637   6.794  1.8866 -3.1436  0.0737
 5481SOL     OW33584   1.401   1.831   7.764 -0.2350 -0.2671  0.2338
 5481SOL    HW133585   1.390   1.854   7.856  1.1765 -0.8122  0.5700
 5481SOL    HW233586   1.384   1.913   7.717  2.7146  1.0844  1.2559
 5482SOL     OW33587   5.899   0.271   1.474  0.3948  0.5316  0.1512
 5482SOL    HW133588   5.815   0.300   1.511  0.2887  0.8390 -0.3215
 5482SOL    HW233589   5.912   0.184   1.510 -0.8422 -0.1204 -0.8969
 5483SOL     OW33590   5.457   6.291   7.687  0.1486 -0.5989  0.0519
 5483SOL    HW133591   5.400   6.327   7.754 -1.1204  0.0261 -1.2965
 5483SOL    HW233592   5.541   6.334   7.700 -0.4114  0.3648  0.5296
 5484SOL     OW33593   0.966   2.524   6.341  0.1305  0.4254 -0.2563
 5484SOL    HW133594   0.896   2.582   6.369  1.3793  1.6262  0.5255
 5484SOL    HW233595   0.983   2.547   6.250 -0.0692  0.5800 -0.2533
 5485SOL     OW33596   4.907   5.013   0.488  0.1774 -0.2471 -0.1164
 5485SOL    HW133597   4.988   5.047   0.450  1.0341 -0.5419  1.3641
 5485SOL    HW233598   4.845   5.012   0.415  1.8655 -1.2747 -1.6161
 5486SOL     OW33599   2.545   3.643   0.087  0.7155 -0.5109  0.2175
 5486SOL    HW133600   2.579   3.716   0.138  1.3083  1.0448 -2.2184
 5486SOL    HW233601   2.550   3.673  -0.004 -5.6125 -0.6609 -0.6453
 5487SOL     OW33602   1.664   0.814   0.076  0.2748 -0.1358 -0.1551
 5487SOL    HW133603   1.696   0.772  -0.004 -0.1688 -0.1217 -0.3410
 5487SOL    HW233604   1.607   0.884   0.045  2.4789  1.8753  0.0871
 5488SOL     OW33605   4.094   0.247   7.089  0.5842  0.0048  0.3184
 5488SOL    HW133606   4.094   0.238   6.993 -1.9242 -1.9244  0.3973
 5488SOL    HW233607   4.001   0.248   7.113  1.1451 -1.0897  2.8454
 5489SOL     OW33608   1.377   5.281   0.260 -0.7525 -0.2018 -0.2347
 5489SOL    HW133609   1.327   5.285   0.341  1.2824 -0.8291  1.1274
 5489SOL    HW233610   1.404   5.190   0.251  0.4808  0.1805 -0.6874
 5490SOL     OW33611   5.240   2.881   7.476  0.1674 -0.3087 -0.4410
 5490SOL    HW133612   5.255   2.793   7.441 -0.2950 -0.9357  0.8611
 5490SOL    HW233613   5.268   2.875   7.568 -1.9796  0.2207  0.3171
 5491SOL     OW33614   3.999   4.831   0.477 -0.0391 -0.0052 -0.1399
 5491SOL    HW133615   4.095   4.832   0.467  0.1370  0.5412  1.3941
 5491SOL    HW233616   3.974   4.741   0.454  1.0259 -0.5919  0.9164
 5492SOL     OW33617   0.826   0.826   7.766 -0.2475 -0.6794  0.4836
 5492SOL    HW133618   0.796   0.877   7.691 -0.9739 -1.3401  0.3048
 5492SOL    HW233619   0.887   0.883   7.812  0.3552 -0.3282 -0.7157
 5493SOL     OW33620   1.288   2.725   5.919 -0.2343  0.0088 -0.9208
 5493SOL    HW133621   1.311   2.654   5.859  0.8103 -1.1557  0.7713
 5493SOL    HW233622   1.347   2.796   5.895  0.9991 -0.8543 -0.5634
 5494SOL     OW33623   5.291   4.139   0.902  0.8745  0.4645 -0.0240
 5494SOL    HW133624   5.362   4.196   0.932  2.1637 -1.4391  0.7808
 5494SOL    HW233625   5.219   4.156   0.963  2.2875 -0.8627  2.1852
 5495SOL     OW33626   4.586   5.188   0.146  0.0300 -0.2084  0.1301
 5495SOL    HW133627   4.553   5.243   0.075 -1.0685 -2.2198 -1.0060
 5495SOL    HW233628   4.556   5.231   0.226  0.3043  1.4911 -0.6466
 5496SOL     OW33629   2.419   1.326   1.461  0.0512  0.2593 -0.2529
 5496SOL    HW133630   2.438   1.359   1.549  0.0402  0.7170 -0.4194
 5496SOL    HW233631   2.400   1.233   1.474  0.0428  0.3252  0.2291
 5497SOL     OW33632   0.805   3.905   5.383 -0.6372 -0.4602  0.4080
 5497SOL    HW133633   0.713   3.922   5.405 -1.6752 -1.5797 -2.5338
 5497SOL    HW233634   0.844   3.875   5.465 -3.1610 -1.0083  1.5116
 5498SOL     OW33635   4.265   3.758   6.582 -0.2517 -0.2266  0.7482
 5498SOL    HW133636   4.197   3.708   6.537 -0.9604 -1.4427  3.0369
 5498SOL    HW233637   4.217   3.826   6.630  0.5195  1.2525 -0.4758
 5499SOL     OW33638   3.210   1.441   6.737  0.0403 -0.3084  0.0237
 5499SOL    HW133639   3.288   1.462   6.685 -1.0010  0.6830 -1.2289
 5499SOL    HW233640   3.141   1.428   6.671 -0.9796 -0.5933  1.1208
 5500SOL     OW33641   3.575   0.292   1.433  0.4973  0.1906  0.1277
 5500SOL    HW133642   3.592   0.386   1.424 -2.6335  0.8618 -0.0344
 5500SOL    HW233643   3.511   0.273   1.364 -0.6303 -1.5334  1.5661
 5501SOL     OW33644   4.786   4.736   5.137 -0.3169  0.1739  0.1959
 5501SOL    HW133645   4.856   4.681   5.101 -0.4062 -0.4383  0.9358
 5501SOL    HW233646   4.822   4.769   5.219 -0.9986 -0.4076  0.7478
 5502SOL     OW33647   2.731   1.470   6.319  0.4055  0.3215  0.2414
 5502SOL    HW133648   2.701   1.383   6.291  1.4986  0.4252 -1.3827
 5502SOL    HW233649   2.651   1.523   6.321 -0.1824 -0.5650  0.6395
 5503SOL     OW33650   4.350   5.281   7.700 -0.1090  0.3052 -0.5900
 5503SOL    HW133651   4.255   5.294   7.707  0.1609  1.6634  1.4067
 5503SOL    HW233652   4.385   5.317   7.781  1.9799 -2.0786 -0.3241
 5504SOL     OW33653   4.519   5.675   7.583 -0.0343 -0.1641  0.0783
 5504SOL    HW133654   4.503   5.717   7.499  0.8951  1.0586  0.4776
 5504SOL    HW233655   4.453   5.606   7.589 -1.1184  0.7465 -0.9424
 5505SOL     OW33656   2.442   1.957   0.192 -0.0127 -0.1496  0.8408
 5505SOL    HW133657   2.375   2.025   0.195  0.3123  0.2469 -0.3718
 5505SOL    HW233658   2.502   1.980   0.263  0.4409  1.2142  0.0402
 5506SOL     OW33659   5.715   4.917   0.095 -0.6356 -0.1932  0.7248
 5506SOL    HW133660   5.715   4.970   0.015 -2.3645 -0.1150  0.7586
 5506SOL    HW233661   5.626   4.883   0.102  0.3169 -2.9379  0.8370
 5507SOL     OW33662   0.583   2.256   6.533 -0.0350  0.0066  0.3442
 5507SOL    HW133663   0.669   2.228   6.500 -0.5310  0.4561 -1.4225
 5507SOL    HW233664   0.530   2.177   6.530  0.2843 -0.2661  1.4155
 5508SOL     OW33665   0.906   3.654   6.478 -0.8480  0.0266  0.3830
 5508SOL    HW133666   0.824   3.687   6.442 -1.3714 -1.2680  0.3142
 5508SOL    HW233667   0.964   3.645   6.403 -1.3034 -0.8678  0.1228
 5509SOL     OW33668   6.097   3.543   0.869 -0.1867  0.6041  0.1986
 5509SOL    HW133669   6.104   3.511   0.959  0.6055  0.4238  0.0747
 5509SOL    HW233670   6.169   3.605   0.860 -0.3225  0.6951 -0.2833
 5510SOL     OW33671   6.417   0.992   0.821  0.4867 -0.5233 -0.6904
 5510SOL    HW133672   6.361   1.027   0.752 -0.0637 -0.8343 -0.4089
 5510SOL    HW233673   6.356   0.964   0.890  0.9478 -1.4989 -0.6668
 5511SOL     OW33674   6.292   5.709   0.008 -0.3487 -0.6194 -0.1057
 5511SOL    HW133675   6.226   5.771   0.039 -0.0065 -0.3410  0.0741
 5511SOL    HW233676   6.242   5.631  -0.015 -0.7013 -0.5481  0.3939
 5512SOL     OW33677   1.391   1.797   1.332  0.5905 -0.0000  0.3644
 5512SOL    HW133678   1.428   1.875   1.373 -0.5125 -0.1874  1.8012
 5512SOL    HW233679   1.304   1.824   1.302  0.9809 -0.1552 -0.9471
 5513SOL     OW33680   5.083   4.920   1.162  0.1467  0.0235 -0.5404
 5513SOL    HW133681   5.018   4.850   1.148  0.5684 -0.2792 -1.0440
 5513SOL    HW233682   5.158   4.894   1.108  0.6676  0.4005 -0.0139
 5514SOL     OW33683   2.426   3.817   2.209  0.0277 -0.0394  0.6414
 5514SOL    HW133684   2.485   3.892   2.207 -0.3918  0.2866  0.4214
 5514SOL    HW233685   2.481   3.745   2.241  0.4572  0.3326  0.7583
 5515SOL     OW33686   2.388   0.431   6.977  0.2099 -0.2988  0.2709
 5515SOL    HW133687   2.302   0.473   6.971 -0.2895 -1.2732  0.3020
 5515SOL    HW233688   2.428   0.471   7.054 -0.8465 -0.8953  1.1677
 5516SOL     OW33689   4.652   4.608   6.333  0.2802 -0.0500 -0.4436
 5516SOL    HW133690   4.571   4.611   6.384  1.0736  0.5404  0.8300
 5516SOL    HW233691   4.666   4.698   6.304  0.2297 -0.2409 -1.0754
 5517SOL     OW33692   4.524   2.551   7.391  0.0236  0.1165  0.4176
 5517SOL    HW133693   4.567   2.636   7.405 -0.4499  0.2535  1.1120
 5517SOL    HW233694   4.512   2.545   7.297  0.7806  0.4641  0.2888
 5518SOL     OW33695   2.933   1.411   1.212  0.3322  0.2993 -0.1183
 5518SOL    HW133696   2.937   1.488   1.269  0.3098 -0.4732  0.9422
 5518SOL    HW233697   2.845   1.376   1.226  0.2424  0.2386 -0.8149
 5519SOL     OW33698   2.969   0.383   6.942  0.5962 -0.3327 -0.0751
 5519SOL    HW133699   3.063   0.396   6.946  0.6499 -0.8672  1.3900
 5519SOL    HW233700   2.957   0.307   6.885  1.0592 -0.2953 -0.2216
 5520SOL     OW33701   5.495   2.965   1.153  0.3155  0.0348 -0.0382
 5520SOL    HW133702   5.563   2.932   1.212  1.2639 -1.2098 -1.7367
 5520SOL    HW233703   5.533   2.954   1.065 -1.1188  1.6339 -0.9010
 5521SOL     OW33704   2.270   3.041   7.659 -0.2172  0.5200  0.0358
 5521SOL    HW133705   2.221   3.032   7.578  0.0666 -0.5370 -0.0338
 5521SOL    HW233706   2.264   2.955   7.700  0.4136  0.7779  0.6924
 5522SOL     OW33707   2.386   5.353   1.004 -0.0429 -0.7219  0.1776
 5522SOL    HW133708   2.328   5.321   0.934  0.2743  1.7167 -1.3236
 5522SOL    HW233709   2.471   5.315   0.983 -0.2822 -1.3009  0.2111
 5523SOL     OW33710   0.014   1.432   5.935  0.1112 -0.1197  0.2692
 5523SOL    HW133711  -0.059   1.405   5.879  0.8324 -0.1566 -0.6808
 5523SOL    HW233712   0.091   1.389   5.897  1.2080  2.6451 -0.9393
 5524SOL     OW33713   5.935   4.696   0.669  0.1279 -1.4251  0.2757
 5524SOL    HW133714   5.885   4.615   0.670  0.4412 -1.6194  0.3063
 5524SOL    HW233715   5.981   4.694   0.585 -0.3649 -0.9714 -0.0108
 5525SOL     OW33716   5.721   1.990   7.081  0.2972  0.4565 -0.5196
 5525SOL    HW133717   5.807   1.951   7.064 -0.6344 -1.4634 -1.1062
 5525SOL    HW233718   5.666   1.916   7.105 -1.3164  1.5875 -0.5962
 5526SOL     OW33719   1.538   3.502   7.210  0.1518 -0.2506  0.5349
 5526SOL    HW133720   1.535   3.567   7.280  0.3308 -0.7789  1.0420
 5526SOL    HW233721   1.497   3.546   7.135 -1.9138 -0.3596  1.5296
 5527SOL     OW33722   5.488   5.688   7.580 -0.1691 -0.8919  0.4266
 5527SOL    HW133723   5.490   5.679   7.675 -1.3072 -0.0600  0.5459
 5527SOL    HW233724   5.412   5.637   7.553 -3.1920  3.0584  0.5551
 5528SOL     OW33725   0.685   0.382   5.794 -0.3025  0.5748  0.0024
 5528SOL    HW133726   0.642   0.454   5.748  1.2543 -0.0038 -2.5717
 5528SOL    HW233727   0.614   0.320   5.814 -1.3055  1.7537  0.2082
 5529SOL     OW33728   0.157   3.910   7.111 -0.2997 -0.3772  0.5454
 5529SOL    HW133729   0.098   3.850   7.066  0.9967 -1.4056  0.1505
 5529SOL    HW233730   0.116   3.925   7.196  0.4264 -3.8475  1.7183
 5530SOL     OW33731   3.375   4.741   7.504  0.1984  0.1599 -0.2173
 5530SOL    HW133732   3.360   4.662   7.451  1.7505  0.0140 -0.4868
 5530SOL    HW233733   3.293   4.790   7.498 -0.7207 -1.3082 -0.2356
 5531SOL     OW33734   2.977   2.840   5.634 -0.1857 -0.3430  0.6374
 5531SOL    HW133735   3.030   2.837   5.554  0.2455  4.0130  0.5360
 5531SOL    HW233736   2.887   2.851   5.602  0.0836  2.3505  0.5925
 5532SOL     OW33737   1.965   3.949   6.505  0.5881  0.1005 -0.2443
 5532SOL    HW133738   2.005   3.936   6.419  1.9252 -1.1601  0.5086
 5532SOL    HW233739   2.015   3.891   6.563 -0.8546  0.2475  1.2145
 5533SOL     OW33740   6.294   5.035   0.945 -0.4146  1.0079  0.5380
 5533SOL    HW133741   6.291   5.030   1.041  1.9454 -1.3202  0.6116
 5533SOL    HW233742   6.267   4.948   0.916 -1.0750  1.6776 -0.9450
 5534SOL     OW33743   0.400   4.250   1.265  0.0568  0.2467 -0.4073
 5534SOL    HW133744   0.455   4.173   1.255 -0.9821 -0.9888  2.5168
 5534SOL    HW233745   0.395   4.265   1.359  0.6768  4.3060 -0.8353
 5535SOL     OW33746   1.180   0.630   6.920 -0.2996  0.6448  0.6510
 5535SOL    HW133747   1.275   0.631   6.917 -0.0484 -2.7428  2.3812
 5535SOL    HW233748   1.157   0.708   6.972  1.7505  0.2210  2.3540
 5536SOL     OW33749   1.208   5.078   6.533 -0.2880  0.0211 -0.1025
 5536SOL    HW133750   1.142   5.022   6.491 -1.6998  1.7478 -0.3150
 5536SOL    HW233751   1.225   5.147   6.468  0.8003  0.3043  0.4623
 5537SOL     OW33752   3.059   3.148   1.355  0.5072  0.4432  0.3053
 5537SOL    HW133753   3.057   3.155   1.259 -1.1910 -0.8051  0.1985
 5537SOL    HW233754   3.076   3.237   1.385 -1.2958  1.3441 -1.1324
 5538SOL     OW33755   4.637   1.133   0.601  0.5726  0.6212 -0.1638
 5538SOL    HW133756   4.587   1.166   0.526 -0.1893 -1.4034 -0.5998
 5538SOL    HW233757   4.728   1.139   0.573  0.3984  1.3560 -0.6132
 5539SOL     OW33758   1.586   5.049   7.320 -0.0603  0.3555 -0.2460
 5539SOL    HW133759   1.617   4.966   7.356  0.9086  0.3041 -1.1701
 5539SOL    HW233760   1.558   5.027   7.231  0.4507  1.0622 -0.5882
 5540SOL     OW33761   2.910   5.748   7.034  0.1773 -0.1509  0.3085
 5540SOL    HW133762   2.907   5.659   7.069  1.6700 -0.6611 -0.7948
 5540SOL    HW233763   2.947   5.739   6.947 -0.2069  1.5020 -0.0610
 5541SOL     OW33764   4.501   1.799   1.277 -0.6024  0.3235  0.2518
 5541SOL    HW133765   4.535   1.871   1.223 -2.7723  1.0669 -0.2177
 5541SOL    HW233766   4.450   1.746   1.216 -1.7436  0.2514  1.2543
 5542SOL     OW33767   5.368   6.268   6.874 -0.4127 -0.5221  0.5790
 5542SOL    HW133768   5.393   6.178   6.895 -1.4966 -0.7532  0.9437
 5542SOL    HW233769   5.308   6.294   6.944 -0.8914  0.1288 -0.0437
 5543SOL     OW33770   3.347   2.117   5.981  0.0791  0.2260  0.1487
 5543SOL    HW133771   3.284   2.060   5.938 -0.5536  0.0491  1.2828
 5543SOL    HW233772   3.301   2.200   5.991 -0.4263 -0.2573  2.0611
 5544SOL     OW33773   0.509   2.615   5.681 -0.2281 -0.4301  0.0087
 5544SOL    HW133774   0.487   2.639   5.771  0.3132 -0.9241  0.2780
 5544SOL    HW233775   0.603   2.634   5.674 -0.2360 -0.5462 -0.4012
 5545SOL     OW33776   1.122   4.011   1.131 -0.4391 -0.0623  0.4399
 5545SOL    HW133777   1.125   3.917   1.112 -0.2459 -0.3709  1.9032
 5545SOL    HW233778   1.191   4.025   1.196  1.3070  1.5850 -1.6248
 5546SOL     OW33779   1.391   3.185   7.709 -0.1462  0.1299 -0.6890
 5546SOL    HW133780   1.479   3.189   7.670  0.4561  0.3740  0.6367
 5546SOL    HW233781   1.351   3.268   7.686  0.2731  0.3495 -0.6479
 5547SOL     OW33782   1.987   4.793   7.385  1.1778 -0.5844 -0.5085
 5547SOL    HW133783   1.920   4.817   7.321  1.2536 -0.2416 -0.4607
 5547SOL    HW233784   2.007   4.875   7.430  0.7329 -0.9223  0.3228
 5548SOL     OW33785   1.851   6.326   6.701 -0.1814 -0.0954  0.1501
 5548SOL    HW133786   1.783   6.290   6.644 -0.4113 -0.4019  0.6155
 5548SOL    HW233787   1.888   6.400   6.651  0.8034 -1.4014 -1.1401
 5549SOL     OW33788   0.149   0.565   2.048 -0.3245  0.4390  0.0728
 5549SOL    HW133789   0.077   0.614   2.008  0.0088  0.5178 -0.4414
 5549SOL    HW233790   0.228   0.612   2.021 -0.0956  0.5804  0.9504
 5550SOL     OW33791   2.642   0.479   6.013 -0.1750 -0.5691  0.3235
 5550SOL    HW133792   2.569   0.425   6.043 -0.8441  0.3874  0.4869
 5550SOL    HW233793   2.610   0.516   5.930 -0.0144  0.0976  0.5494
 5551SOL     OW33794   1.687   0.050   7.213 -0.4969 -0.1942  0.2723
 5551SOL    HW133795   1.727   0.120   7.264  0.9270 -0.0365 -0.9946
 5551SOL    HW233796   1.647   0.094   7.138 -1.3536 -0.5536  0.5040
 5552SOL     OW33797   3.843   4.905   6.870 -0.3947  0.2144  0.3109
 5552SOL    HW133798   3.873   4.838   6.931  0.1315  0.2927  0.1438
 5552SOL    HW233799   3.787   4.962   6.923  0.9358  0.9211  1.0152
 5553SOL     OW33800   5.651   1.652   7.344  0.1018 -0.1115  0.3788
 5553SOL    HW133801   5.664   1.723   7.406 -1.7059  1.2952 -0.7410
 5553SOL    HW233802   5.579   1.681   7.288 -1.1256 -3.0825  0.2111
 5554SOL     OW33803   4.128   4.467   6.362 -0.3341 -0.5712  0.0382
 5554SOL    HW133804   4.131   4.543   6.421  1.0558 -1.2882  0.9537
 5554SOL    HW233805   4.109   4.393   6.418 -2.9177 -0.8108 -1.0323
 5555SOL     OW33806   2.565   1.171   1.282  0.4577  0.1127 -0.2982
 5555SOL    HW133807   2.644   1.168   1.336 -0.4104  0.1151  1.0175
 5555SOL    HW233808   2.517   1.248   1.312  0.4163  0.7037 -1.7914
 5556SOL     OW33809   1.671   2.393   7.694  0.5691 -0.1609 -0.1848
 5556SOL    HW133810   1.597   2.413   7.752  0.2027  0.3451 -0.8117
 5556SOL    HW233811   1.638   2.412   7.606  1.3550 -0.2118 -0.4961
 5557SOL     OW33812   2.501   4.522   6.822  0.4525  0.4683 -0.0019
 5557SOL    HW133813   2.406   4.534   6.825  0.3909 -0.1381  0.5391
 5557SOL    HW233814   2.513   4.428   6.806  0.9623  0.6255 -0.6178
 5558SOL     OW33815   4.914   0.116   7.537 -0.1655  0.2362 -0.2661
 5558SOL    HW133816   4.853   0.051   7.501  0.1836 -1.3264  1.7761
 5558SOL    HW233817   4.959   0.151   7.460 -1.7741 -0.4692 -1.6094
 5559SOL     OW33818   3.209   5.011   5.381  0.7793  0.3732  0.3649
 5559SOL    HW133819   3.270   4.951   5.338 -1.7844 -0.3769 -2.5638
 5559SOL    HW233820   3.145   4.954   5.423 -0.7050  0.9935 -0.9520
 5560SOL     OW33821   0.673   1.718   1.369  0.1660  0.2330  0.0126
 5560SOL    HW133822   0.668   1.622   1.364  0.6395  0.2246 -0.4935
 5560SOL    HW233823   0.585   1.746   1.393  0.4073 -0.4173  1.7962
 5561SOL     OW33824   4.628   4.435   1.039  0.0076  0.4133 -0.0732
 5561SOL    HW133825   4.683   4.491   1.093 -0.0424  0.4944 -0.1058
 5561SOL    HW233826   4.557   4.407   1.097 -0.2774  0.8411 -0.2112
 5562SOL     OW33827   0.644   2.521   6.636  0.5906  0.3658 -0.0568
 5562SOL    HW133828   0.630   2.426   6.636 -0.1528  0.4159 -1.9753
 5562SOL    HW233829   0.739   2.531   6.640  0.6762 -0.4658  0.2166
 5563SOL     OW33830   5.686   5.046   7.614 -0.7937 -0.0104  0.5175
 5563SOL    HW133831   5.729   5.022   7.532  0.7354 -0.8060  1.5092
 5563SOL    HW233832   5.691   5.142   7.617  1.6213 -0.1001  0.9218
 5564SOL     OW33833   2.827   0.786   0.784 -0.3803 -0.2907  0.2913
 5564SOL    HW133834   2.774   0.772   0.863 -2.3300  0.5847 -0.7846
 5564SOL    HW233835   2.803   0.874   0.756  2.2623  0.4498  0.1321
 5565SOL     OW33836   1.996   0.170   7.110  0.0087  0.2490 -0.0036
 5565SOL    HW133837   1.945   0.111   7.055  0.1229  1.1547 -1.1307
 5565SOL    HW233838   2.083   0.170   7.070 -0.0905  1.4569 -0.2703
 5566SOL     OW33839   5.045   3.568   6.958 -0.0709  0.1571  0.1518
 5566SOL    HW133840   4.972   3.603   7.010  0.0081  0.1344  0.2804
 5566SOL    HW233841   5.006   3.500   6.904 -0.1022 -0.0174  0.3939
 5567SOL     OW33842   0.029   0.319   0.621 -0.0270  0.0486  0.2658
 5567SOL    HW133843   0.028   0.412   0.600 -0.8860  0.0232  0.1696
 5567SOL    HW233844  -0.049   0.284   0.579  0.5621 -0.8174 -0.1367
 5568SOL     OW33845   4.104   5.624   1.073  0.1870 -0.2535 -0.1181
 5568SOL    HW133846   4.123   5.533   1.052 -0.6267 -0.8196  1.4020
 5568SOL    HW233847   4.081   5.623   1.166 -2.2267  1.0834 -0.5976
 5569SOL     OW33848   1.779   5.497   7.502 -0.2927 -0.0540 -0.0240
 5569SOL    HW133849   1.838   5.501   7.427  0.8146 -1.1162  0.7487
 5569SOL    HW233850   1.744   5.408   7.500  0.1965 -0.2809  1.0424
 5570SOL     OW33851   1.671   1.312   7.215 -0.4322 -0.3639  0.0927
 5570SOL    HW133852   1.758   1.348   7.235  0.0973 -1.5567 -0.0260
 5570SOL    HW233853   1.639   1.279   7.299 -1.4451  1.4242  0.4602
 5571SOL     OW33854   0.148   2.596   7.106 -0.0935 -0.3108 -0.9844
 5571SOL    HW133855   0.105   2.652   7.171  0.2168 -0.6255 -0.5018
 5571SOL    HW233856   0.238   2.629   7.103 -0.3757  0.3839 -2.0319
 5572SOL     OW33857   5.235   3.265   7.563 -0.5936 -0.4137  0.2058
 5572SOL    HW133858   5.247   3.186   7.510  0.1441 -0.7870  0.9089
 5572SOL    HW233859   5.186   3.235   7.640 -1.6889  0.1319 -0.2432
 5573SOL     OW33860   0.693   0.777   1.709  0.1084  0.2395  0.0902
 5573SOL    HW133861   0.618   0.804   1.761  0.7110  1.9517  0.1293
 5573SOL    HW233862   0.767   0.823   1.748  0.8830  0.0489 -1.0935
 5574SOL     OW33863   2.679   3.413   1.228  0.4025 -0.6384 -0.6096
 5574SOL    HW133864   2.630   3.365   1.161 -1.3558  3.0145 -2.2271
 5574SOL    HW233865   2.616   3.427   1.299  1.8696 -3.3298  1.4234
 5575SOL     OW33866   1.001   3.947   0.026  0.1421 -0.1198 -0.0729
 5575SOL    HW133867   1.083   3.926  -0.018  0.1968 -0.7341  0.3069
 5575SOL    HW233868   0.956   4.006  -0.034  1.4826  1.3870  0.3479
 5576SOL     OW33869   3.714   2.215   7.596  0.1798 -0.4191 -0.0207
 5576SOL    HW133870   3.763   2.198   7.516 -2.9319 -2.2449 -1.7503
 5576SOL    HW233871   3.665   2.134   7.612  0.7848 -0.2388  3.9464
 5577SOL     OW33872   0.572   0.624   6.702  0.2583 -0.5087 -0.0434
 5577SOL    HW133873   0.486   0.666   6.712  0.7635  0.4335  0.6013
 5577SOL    HW233874   0.595   0.637   6.610  0.5454  0.9789  0.2118
 5578SOL     OW33875   3.778   3.163   0.993 -0.7285  0.4536 -0.3239
 5578SOL    HW133876   3.716   3.140   0.924  0.2796 -1.0618 -0.7737
 5578SOL    HW233877   3.758   3.102   1.064 -1.0070  1.2558  0.3089
 5579SOL     OW33878   6.024   5.760   7.623 -0.0872 -0.2649 -0.3692
 5579SOL    HW133879   6.032   5.737   7.530  0.0037  1.1192 -0.7364
 5579SOL    HW233880   6.071   5.844   7.631  0.6685 -0.7954  1.1182
 5580SOL     OW33881   4.491   1.240   0.027  0.3566  0.4708  0.2305
 5580SOL    HW133882   4.413   1.280   0.065 -0.1930 -0.7368  0.4116
 5580SOL    HW233883   4.507   1.291  -0.052  1.4010  2.9075  1.8763
 5581SOL     OW33884   1.533   6.143   6.956  0.2421 -0.5058 -0.3012
 5581SOL    HW133885   1.568   6.184   7.035 -0.5134  0.4555 -0.4424
 5581SOL    HW233886   1.491   6.063   6.986 -0.2650 -0.0193  0.3232
 5582SOL     OW33887   1.807   5.109   7.746 -0.4681 -0.0637 -0.3539
 5582SOL    HW133888   1.739   5.148   7.801 -2.1578 -1.5769 -1.2866
 5582SOL    HW233889   1.793   5.147   7.659  1.4873  1.4707 -0.0643
 5583SOL     OW33890   5.306   4.052   7.761 -0.0918  0.0308 -0.2605
 5583SOL    HW133891   5.285   4.124   7.821  1.4308 -0.0969  0.4587
 5583SOL    HW233892   5.259   3.977   7.797  2.1577 -0.4743  1.8855
 5584SOL     OW33893   0.200   2.189   5.417 -0.1627  0.2175 -0.0836
 5584SOL    HW133894   0.232   2.144   5.496  0.1949  0.2344 -0.2183
 5584SOL    HW233895   0.166   2.272   5.450  2.0670  1.2332 -0.2008
 5585SOL     OW33896   2.732   5.455   7.366 -0.1515 -0.4984 -1.0374
 5585SOL    HW133897   2.674   5.454   7.441  1.1950 -0.0576  0.0605
 5585SOL    HW233898   2.767   5.544   7.364 -1.7148  0.1665 -3.4757
 5586SOL     OW33899   0.667   2.191   1.682 -0.0721 -0.0699 -0.1674
 5586SOL    HW133900   0.645   2.216   1.772  0.8787 -0.4338  0.1710
 5586SOL    HW233901   0.589   2.216   1.631  0.1285  1.9255  0.4234
 5587SOL     OW33902   5.288   2.082   7.185  0.3847 -0.2122  0.2845
 5587SOL    HW133903   5.282   2.017   7.255  1.8990 -0.3648  0.2918
 5587SOL    HW233904   5.293   2.166   7.231  0.2176 -0.2233  0.3234
 5588SOL     OW33905   5.160   3.969   0.683  0.2567  0.4338  0.0299
 5588SOL    HW133906   5.097   3.933   0.746 -0.0599  2.5763  1.0120
 5588SOL    HW233907   5.229   4.007   0.737  0.9547  0.6298 -0.9780
 5589SOL     OW33908   3.329   0.231   6.645  0.4560  0.2921  0.2423
 5589SOL    HW133909   3.298   0.228   6.555  0.8422  1.0560  0.0691
 5589SOL    HW233910   3.424   0.229   6.638  0.5007 -2.2781  0.7764
 5590SOL     OW33911   4.851   0.194   1.561  0.5562 -0.5325 -0.2179
 5590SOL    HW133912   4.787   0.259   1.590  1.1698  0.4544 -1.0346
 5590SOL    HW233913   4.798   0.116   1.543  0.0369 -0.9285  2.5909
 5591SOL     OW33914   5.782   0.162   6.808  0.1465  0.1134  1.1652
 5591SOL    HW133915   5.805   0.112   6.730 -0.7134  1.5457 -0.0466
 5591SOL    HW233916   5.736   0.099   6.864 -0.7106 -0.5219 -0.2121
 5592SOL     OW33917   3.928   5.240   0.354  0.0649 -0.6493 -0.2474
 5592SOL    HW133918   3.956   5.303   0.421  0.4239 -1.2862  0.2238
 5592SOL    HW233919   3.835   5.225   0.373 -0.1127  0.0038 -0.5883
 5593SOL     OW33920   4.665   5.628   6.924  0.1037 -0.2469 -0.1695
 5593SOL    HW133921   4.604   5.565   6.963 -1.1178  0.5360 -0.7515
 5593SOL    HW233922   4.702   5.675   7.000 -1.5124  0.5978  0.1375
 5594SOL     OW33923   1.507   4.183   5.636  0.6234  0.0767  0.3464
 5594SOL    HW133924   1.574   4.181   5.704 -0.1090  0.5843  1.1162
 5594SOL    HW233925   1.428   4.212   5.682 -0.0805 -0.3358 -0.5672
 5595SOL     OW33926   4.908   1.685   7.015  0.2159  0.1095 -0.6547
 5595SOL    HW133927   4.964   1.607   7.016  0.6927  0.4362  0.9432
 5595SOL    HW233928   4.960   1.752   7.059 -1.1417  0.6243  0.2282
 5596SOL     OW33929   6.342   2.292   0.429  0.3907  0.5706  0.3938
 5596SOL    HW133930   6.384   2.236   0.364 -0.6062 -1.3366  1.3230
 5596SOL    HW233931   6.318   2.233   0.501  0.6968  2.4598  2.1376
 5597SOL     OW33932   5.727   4.107   7.072  0.0367  0.4327 -0.3208
 5597SOL    HW133933   5.816   4.142   7.078 -0.2993  1.3395 -0.4469
 5597SOL    HW233934   5.687   4.131   7.155  0.3440 -1.2827  0.3670
 5598SOL     OW33935   3.942   2.699   1.086  0.2430  0.3945 -0.3406
 5598SOL    HW133936   3.915   2.660   1.169 -0.3598  0.6731 -0.3964
 5598SOL    HW233937   4.033   2.724   1.099  0.2088  0.2569  0.1743
 5599SOL     OW33938   3.816   4.147   1.571 -0.5385  0.4754 -0.2451
 5599SOL    HW133939   3.730   4.177   1.541 -0.7295  0.1726 -0.0099
 5599SOL    HW233940   3.802   4.055   1.595 -0.3639  0.6799  0.6621
 5600SOL     OW33941   3.274   3.079   6.347  0.1363  0.2032 -0.4216
 5600SOL    HW133942   3.250   3.128   6.426  0.3371  0.7136 -0.6725
 5600SOL    HW233943   3.221   3.118   6.278  0.1025 -0.1149 -0.5737
 5601SOL     OW33944   1.787   1.275   7.616 -0.3770 -0.0298  0.3464
 5601SOL    HW133945   1.792   1.289   7.711 -0.6596  0.4337  0.2944
 5601SOL    HW233946   1.705   1.317   7.590 -0.5476 -0.5824 -0.0272
 5602SOL     OW33947   3.688   3.130   6.640  0.4320  1.0819 -0.2040
 5602SOL    HW133948   3.714   3.167   6.556 -0.3571  1.7663 -0.1550
 5602SOL    HW233949   3.598   3.160   6.653 -0.2897 -0.9743 -0.2137
 5603SOL     OW33950   4.586   2.607   6.799 -0.3876  0.6150 -0.0534
 5603SOL    HW133951   4.500   2.622   6.837 -1.0357  0.3308 -1.3330
 5603SOL    HW233952   4.582   2.517   6.765  0.8468  0.1578  0.9489
 5604SOL     OW33953   1.935   6.057   6.650 -0.4849  0.2336 -0.8967
 5604SOL    HW133954   1.930   6.148   6.680 -0.1124 -0.0322 -0.0033
 5604SOL    HW233955   1.878   6.009   6.710  0.0201 -0.2595 -0.8047
 5605SOL     OW33956   4.240   0.494   1.737  0.3550  0.1747 -0.0811
 5605SOL    HW133957   4.287   0.552   1.798  0.0407  1.0978 -0.6980
 5605SOL    HW233958   4.164   0.463   1.787  0.8954 -0.2686  0.4827
 5606SOL     OW33959   5.257   5.797   7.360 -0.0440  0.1176 -0.3541
 5606SOL    HW133960   5.301   5.805   7.275 -0.0760  1.3910 -0.2719
 5606SOL    HW233961   5.327   5.809   7.424 -0.0864 -0.4553 -0.1944
 5607SOL     OW33962   3.903   4.199   6.180  0.1995  0.1517 -0.4002
 5607SOL    HW133963   3.868   4.196   6.270 -0.8639  0.9866 -0.7621
 5607SOL    HW233964   3.869   4.120   6.139  0.6670 -0.2209 -0.0909
 5608SOL     OW33965   3.950   3.928   1.146 -0.3644 -0.1562  0.4944
 5608SOL    HW133966   3.903   3.849   1.174 -1.3331  0.1767 -0.1350
 5608SOL    HW233967   3.886   3.998   1.155 -0.2449  0.1877 -1.0933
 5609SOL     OW33968   6.248   4.888   0.014 -0.4416  0.0592  0.2341
 5609SOL    HW133969   6.156   4.869   0.033 -0.2508 -0.0299  1.1068
 5609SOL    HW233970   6.264   4.846  -0.071 -1.1201 -0.1765  0.2136
 5610SOL     OW33971   3.953   5.250   5.232  0.2610  0.0605 -0.0036
 5610SOL    HW133972   4.007   5.317   5.274 -0.5543  0.5376  0.2955
 5610SOL    HW233973   3.867   5.290   5.222  0.0613 -0.5501 -0.8526
 5611SOL     OW33974   4.950   3.442   5.340  0.0360 -0.0873  0.4413
 5611SOL    HW133975   4.976   3.394   5.419  0.8602  0.6741  0.6389
 5611SOL    HW233976   4.860   3.413   5.324 -0.1568 -0.2289  1.6746
 5612SOL     OW33977   6.456   1.643   1.315 -0.9770  0.1110 -0.6151
 5612SOL    HW133978   6.516   1.712   1.344 -1.8381  0.1814  1.1637
 5612SOL    HW233979   6.495   1.562   1.348 -1.7986  0.1539  0.5273
 5613SOL     OW33980   2.028   0.089   2.071 -0.1799 -0.3089 -0.5241
 5613SOL    HW133981   2.015  -0.006   2.074 -1.1141 -0.1598  1.0340
 5613SOL    HW233982   2.123   0.100   2.066  0.0311 -1.3308  0.6581
 5614SOL     OW33983   3.438   1.970   2.088  0.0659  0.3082 -0.5884
 5614SOL    HW133984   3.402   1.897   2.038 -0.4508  0.6490 -0.7139
 5614SOL    HW233985   3.463   1.930   2.172 -1.0417  0.1583 -0.3202
 5615SOL     OW33986   3.344   4.305   2.490 -0.0251 -0.2803  0.1465
 5615SOL    HW133987   3.384   4.334   2.407 -0.5178  0.5071  0.1807
 5615SOL    HW233988   3.412   4.251   2.531  0.4185 -0.2514 -0.5293
 5616SOL     OW33989   6.033   4.231   0.525 -0.0580 -0.1532 -0.2845
 5616SOL    HW133990   6.056   4.139   0.540  0.2023  0.0698  0.7993
 5616SOL    HW233991   5.943   4.229   0.492  0.0453 -0.8070 -0.5309
 5617SOL     OW33992   1.444   2.385   7.100  0.3049 -0.3977  0.3112
 5617SOL    HW133993   1.375   2.399   7.036  0.8812  1.5194  0.0473
 5617SOL    HW233994   1.420   2.441   7.174  1.9721  0.9967 -0.1369
 5618SOL     OW33995   0.343   2.200   0.362  0.0529 -0.3461  0.9416
 5618SOL    HW133996   0.263   2.183   0.412 -0.8760 -1.1255 -0.7341
 5618SOL    HW233997   0.404   2.132   0.390 -0.2996 -0.5139  1.3153
 5619SOL     OW33998   5.268   1.510   5.562 -0.0139  0.2965  0.5865
 5619SOL    HW133999   5.225   1.429   5.587  0.9541 -0.1891  0.7171
 5619SOL    HW234000   5.340   1.519   5.625  2.0825 -0.5991 -1.5294
 5620SOL     OW34001   2.845   2.504   1.873  0.2526  0.0584  0.0850
 5620SOL    HW134002   2.814   2.563   1.942 -0.3739 -1.4397  1.1324
 5620SOL    HW234003   2.902   2.442   1.918 -0.2632 -1.0319 -0.7065
 5621SOL     OW34004   2.899   5.243   7.713  0.2532  0.2825  0.0975
 5621SOL    HW134005   2.812   5.235   7.673 -0.2731  1.5987  0.9408
 5621SOL    HW234006   2.885   5.223   7.805  0.5506  1.8638  0.5139
 5622SOL     OW34007   6.378   2.155   2.240 -0.2019 -0.1754 -0.6379
 5622SOL    HW134008   6.467   2.143   2.272 -0.5425  1.8435  1.2701
 5622SOL    HW234009   6.366   2.249   2.235 -2.6635 -0.3454  0.5136
 5623SOL     OW34010   0.205   1.384   6.680  0.0946  0.0420  0.0298
 5623SOL    HW134011   0.123   1.351   6.644  0.6095 -0.8003 -0.4110
 5623SOL    HW234012   0.263   1.308   6.681  0.5067  0.3511  1.4569
 5624SOL     OW34013   3.074   1.376   7.369 -0.0162  0.4822  0.8127
 5624SOL    HW134014   3.142   1.318   7.337 -1.8547 -0.8440 -0.9521
 5624SOL    HW234015   3.053   1.344   7.457 -0.0907 -0.6982  0.3711
 5625SOL     OW34016   4.400   4.323   7.697 -0.7258 -0.1741  0.2228
 5625SOL    HW134017   4.342   4.283   7.761 -0.4834 -0.4405  0.2805
 5625SOL    HW234018   4.410   4.257   7.629 -0.6574 -0.0512  0.1123
 5626SOL     OW34019   4.398   1.480   6.598  0.3041 -0.2626  0.2354
 5626SOL    HW134020   4.438   1.520   6.675  0.3150  0.1171  0.0330
 5626SOL    HW234021   4.463   1.418   6.566 -1.1059 -3.3358  2.7487
 5627SOL     OW34022   0.961   5.506   5.691  0.4455 -0.0046 -0.3100
 5627SOL    HW134023   0.872   5.534   5.671 -1.1256 -2.1679  2.7572
 5627SOL    HW234024   0.957   5.410   5.690  3.2583 -0.2226 -1.7512
 5628SOL     OW34025   6.055   5.739   5.894 -0.4543  0.5632 -0.0996
 5628SOL    HW134026   6.135   5.696   5.924 -0.6804  0.0754 -0.1940
 5628SOL    HW234027   6.071   5.758   5.802 -1.3371 -1.6929 -0.7882
 5629SOL     OW34028   4.744   3.162   2.435 -0.1027 -0.4916  0.0709
 5629SOL    HW134029   4.740   3.073   2.400 -2.5389  0.1437 -1.5040
 5629SOL    HW234030   4.683   3.161   2.509 -1.1504  0.1325 -0.7503
 5630SOL     OW34031   6.300   3.891   6.331  0.3221 -0.0255 -0.0608
 5630SOL    HW134032   6.363   3.890   6.259 -0.2608  2.2357 -0.6820
 5630SOL    HW234033   6.322   3.969   6.382 -1.8087  0.7253 -0.1857
 5631SOL     OW34034   0.744   0.161   1.681 -0.6768 -0.0375 -0.1683
 5631SOL    HW134035   0.806   0.126   1.746 -2.5832 -0.5765  1.4865
 5631SOL    HW234036   0.793   0.159   1.599  1.5235 -0.3196  1.0381
 5632SOL     OW34037   3.076   0.060   7.320 -0.4197 -0.4066 -0.0078
 5632SOL    HW134038   3.115  -0.019   7.282 -1.7387 -1.6906  1.2110
 5632SOL    HW234039   3.138   0.087   7.387 -0.6355 -1.2772  0.5615
 5633SOL     OW34040   0.606   3.781   1.427 -0.3207 -0.5932  0.5665
 5633SOL    HW134041   0.582   3.693   1.456  0.3470 -0.3566  1.8988
 5633SOL    HW234042   0.702   3.784   1.434 -0.2658 -0.0210 -0.2535
 5634SOL     OW34043   4.818   3.391   1.485 -0.0851 -0.5291  0.1869
 5634SOL    HW134044   4.734   3.362   1.451 -0.8502  2.1282 -0.4047
 5634SOL    HW234045   4.860   3.311   1.517 -2.3039 -2.0925 -0.5885
 5635SOL     OW34046   5.271   0.171   6.230 -0.5493  0.2069  0.1422
 5635SOL    HW134047   5.236   0.145   6.145 -0.3645 -0.8597  0.3832
 5635SOL    HW234048   5.194   0.178   6.287 -0.6774  0.9629 -0.1088
 5636SOL     OW34049   4.824   2.854   7.003 -0.2624  0.1455 -0.0168
 5636SOL    HW134050   4.886   2.879   7.072 -2.7195 -0.2728  2.5135
 5636SOL    HW234051   4.795   2.937   6.966  0.8049  0.3946 -0.3341
 5637SOL     OW34052   4.896   2.364   7.499 -0.4652 -0.1153 -0.0367
 5637SOL    HW134053   4.977   2.331   7.539 -0.7383 -1.0452 -0.2346
 5637SOL    HW234054   4.858   2.421   7.565  2.0542  3.1969 -1.1345
 5638SOL     OW34055   6.121   4.476   5.894  0.4197 -0.4972 -0.0624
 5638SOL    HW134056   6.092   4.555   5.940  0.9913 -0.5847  0.4516
 5638SOL    HW234057   6.095   4.490   5.803  0.4626  0.2564  0.0403
 5639SOL     OW34058   0.090   3.415   1.187  0.1550  0.2796  0.1323
 5639SOL    HW134059   0.132   3.495   1.218  1.7260  0.0888 -1.3986
 5639SOL    HW234060   0.161   3.362   1.150 -0.9854 -1.4279  0.2505
 5640SOL     OW34061   1.368   4.946   1.530  0.7728 -0.6416 -0.0989
 5640SOL    HW134062   1.398   4.976   1.616  0.4288 -1.9157  0.4995
 5640SOL    HW234063   1.337   5.025   1.486  1.7875  0.1755  0.5928
 5641SOL     OW34064   0.087   4.384   7.321  0.6023  0.7659 -0.1364
 5641SOL    HW134065   0.023   4.453   7.303 -1.0280 -0.3422  1.0807
 5641SOL    HW234066   0.091   4.333   7.239  0.1485  1.0240 -0.3207
 5642SOL     OW34067   4.954   6.120   6.861 -0.6398  0.1884 -0.2442
 5642SOL    HW134068   4.889   6.069   6.814 -1.2148 -0.0025  0.7454
 5642SOL    HW234069   5.001   6.167   6.792 -0.8584 -0.7731 -1.0780
 5643SOL     OW34070   0.076   1.583   7.276 -0.0905 -0.1716  0.1029
 5643SOL    HW134071   0.109   1.493   7.273 -0.5381 -0.3207 -1.4439
 5643SOL    HW234072   0.009   1.582   7.343  0.1231 -0.9168  0.3186
 5644SOL     OW34073   0.679   1.394   0.220 -0.7578  0.2221 -1.0346
 5644SOL    HW134074   0.730   1.399   0.302 -0.6153 -0.3360 -1.0857
 5644SOL    HW234075   0.645   1.483   0.208 -1.3105  0.1622 -0.0323
 5645SOL     OW34076   0.162   0.048   6.778 -0.0788  0.1838 -0.2300
 5645SOL    HW134077   0.086  -0.001   6.747  0.3663 -0.2212 -0.7041
 5645SOL    HW234078   0.234   0.018   6.723  0.0543  1.9913 -1.1210
 5646SOL     OW34079   0.969   2.655   0.408 -0.1997 -0.2054 -0.6355
 5646SOL    HW134080   0.988   2.699   0.491  0.3432 -2.2402  0.3661
 5646SOL    HW234081   1.043   2.678   0.352  1.3568 -1.7446  0.6804
 5647SOL     OW34082   4.239   2.864   1.022 -0.3262  0.1517 -0.1219
 5647SOL    HW134083   4.300   2.910   1.079  0.0144 -0.9205  0.4112
 5647SOL    HW234084   4.194   2.933   0.974  1.6803  0.9747 -0.9360
 5648SOL     OW34085   0.338   1.692   5.883  0.9919  0.4198  0.0510
 5648SOL    HW134086   0.391   1.638   5.824  2.7715  0.7194  1.2636
 5648SOL    HW234087   0.348   1.781   5.849  0.9961  0.4339  0.0891
 5649SOL     OW34088   1.370   4.369   1.563  0.0170 -0.4098 -0.0272
 5649SOL    HW134089   1.461   4.341   1.554  0.1925  0.1121  0.1167
 5649SOL    HW234090   1.320   4.288   1.551  0.5181 -0.7871  0.3496
 5650SOL     OW34091   4.181   6.021   7.032 -0.4518  0.5121 -0.0904
 5650SOL    HW134092   4.197   6.115   7.021 -1.0671  0.8444  1.6281
 5650SOL    HW234093   4.138   5.995   6.951 -0.7137  1.8182 -0.3917
 5651SOL     OW34094   4.716   3.567   6.544 -0.2526 -0.0579 -0.1118
 5651SOL    HW134095   4.703   3.472   6.551 -1.4372 -0.0405 -1.6812
 5651SOL    HW234096   4.761   3.579   6.460 -1.0558  0.8488 -0.4201
 5652SOL     OW34097   5.188   6.427   1.326 -0.8046 -0.5437  0.0553
 5652SOL    HW134098   5.184   6.520   1.346 -0.2137 -0.4240 -0.3660
 5652SOL    HW234099   5.253   6.392   1.387  1.4582 -0.0709 -1.9521
 5653SOL     OW34100   2.876   1.981   0.097  0.1417  0.5263 -0.1984
 5653SOL    HW134101   2.857   1.995   0.004  0.0033  0.6113 -0.1577
 5653SOL    HW234102   2.865   1.886   0.109 -0.8974  0.6586 -0.0361
 5654SOL     OW34103   3.065   1.165   6.520  0.1305 -0.1703 -0.0056
 5654SOL    HW134104   2.975   1.181   6.547 -0.1126  0.3473 -1.0873
 5654SOL    HW234105   3.086   1.238   6.462  1.2612 -0.2610  0.2655
 5655SOL     OW34106   0.907   2.241   6.706 -0.0250  0.3826 -0.6827
 5655SOL    HW134107   0.862   2.211   6.785  1.1750 -0.8616 -0.4325
 5655SOL    HW234108   0.858   2.203   6.634  0.7814 -1.2634 -0.4007
 5656MOL     C134109   2.733   3.467   5.575 -0.0108 -0.2248  0.1822
 5656MOL     C234110   2.756   3.505   5.434 -0.0412  0.0652  0.2550
 5656MOL     N134111   2.710   3.701   5.640 -0.5419 -0.0942  0.4874
 5656MOL     N234112   2.684   3.591   5.372  0.0441 -0.1623 -0.1582
 5656MOL     C334113   2.647   3.763   5.535  0.2957  0.0917  0.0876
 5656MOL     C434114   2.578   3.672   5.434  0.2985 -0.2406  0.3829
 5656MOL     H134115   2.505   3.605   5.481 -2.2635  1.0835 -1.4795
 5656MOL     H234116   2.520   3.724   5.356  1.7278  0.9754  0.0898
 5656MOL     C534117   2.707   3.528   5.809  0.2828 -0.4772  0.0341
 5656MOL     C634118   2.705   3.393   5.845 -0.0350 -0.3253  0.5996
 5656MOL     C734119   2.715   3.564   5.674 -0.7311 -0.2119  0.0390
 5656MOL     C834120   2.714   3.296   5.745  0.2892  0.2225  0.0906
 5656MOL     C934121   2.730   3.331   5.610 -0.3856 -0.2983 -0.1311
 5656MOL     H334122   2.696   3.369   5.950 -0.2447 -0.6494  0.5070
 5656MOL     H434123   2.746   3.256   5.534 -1.1053  1.1296 -1.7487
 5656MOL     H534124   2.696   3.614   5.876  0.4373  1.0055 -1.7581
 5656MOL     O134125   2.642   3.884   5.526 -0.4554  0.0764  0.2534
 5656MOL    C1034126   2.880   3.464   5.366 -0.1350  0.7829 -0.3614
 5656MOL    C1134127   2.895   3.444   5.229  0.2484  0.9681 -0.3460
 5656MOL     N334128   2.972   3.414   5.450 -0.0293  0.5600 -0.6109
 5656MOL    C1234129   3.012   3.390   5.174  0.2188  0.3057  0.2324
 5656MOL    C1334130   3.090   3.377   5.398  0.1819  0.3614  0.0049
 5656MOL    C1434131   3.114   3.352   5.263  0.0248 -0.4773  0.1262
 5656MOL     H634132   2.815   3.464   5.159  0.5672  2.0052 -0.4448
 5656MOL     H734133   3.029   3.385   5.067  5.5950  1.4112  0.7270
 5656MOL     H834134   3.164   3.349   5.474 -0.2810 -1.5078 -0.1824
 5656MOL     H934135   3.209   3.319   5.223 -0.0150  0.9634 -1.2494
 5656MOL    H1034136   2.746   3.766   5.710  1.1834  1.5455 -1.7768
 5656MOL    BR134137   2.699   3.110   5.786 -0.2001  0.1711 -0.3087
 5656MOL     EP34138   2.684   2.914   5.829 -0.7180  0.1165 -0.7317
   6.46985   6.46985   7.77004
