title           = production

; Run parameters
integrator      = md            ; leap-frog integrator
nsteps          = 500000        ; 1000 ps ; 1 ns
dt              = 0.002         ; 2 fs
tinit               =  0.0

; Output control
nstcomm             =  5
nstxtcout           =  5000
xtc-precision       =  1000
nstxout             =  0
nstvout             =  0
nstfout             =  0
nstlog              =  0

; Bond parameters
continuation	        = yes		; continuation
constraint_algorithm    = lincs	        ; holonomic constraints 
constraints	        = all-bonds	; all bonds (even heavy atom-H bonds) constrained
lincs_iter	        = 1		; accuracy of LINCS
lincs_order	        = 8		; also related to accuracy; lincs_order value of 8 works better than 4

; Neighborsearching
cutoff-scheme       = Verlet
ns_type		    = grid		; search neighboring grid cells
nstlist		    = 10		; 20 fs, largely irrelevant with Verlet
rcoulomb	    = 1.0		; short-range electrostatic cutoff (in nm)
rvdw		    = 1.0		; short-range van der Waals cutoff (in nm)

; Electrostatics
coulombtype	    = PME	; Particle Mesh Ewald for long-range electrostatics
pme_order	    = 4		; cubic interpolation
fourierspacing	    = 0.16	; grid spacing for FFT

; Temperature coupling is on
tcoupl		= V-rescale	        ; modified Berendsen thermostat
tc-grps		= POPC MOL SOL	        ; two coupling groups - more accurate
tau_t		= 0.1  0.1   0.1         ; time constant, in ps
ref_t		= 303  303   303         ; reference temperature, one for each group, in K

; Pressure coupling is on
pcoupl		        = Berendsen     	    ; Pressure coupling on in NPT
pcoupltype	        = semiisotropic	            ; This can be useful for membrane simulations
tau_p		        = 1.0		            ; time constant, in ps
ref_p		        = 1.0 1.0		    ; reference pressure, in bar
compressibility         = 4.5e-5 4.5e-5 	    ; isothermal compressibility of water, bar^-1

; Periodic boundary conditions
pbc		= xyz		    ; 3-D PBC

; Dispersion correction
DispCorr	= EnerPres	; account for cut-off vdW scheme

; Velocity generation
gen_vel		= no		; assign velocities from Maxwell distribution

; Energy monitoring 
; (ions - when present - should be added to the SOL group in the index file)
energygrps          =  POPC MOL SOL

