POPC bilayer and 5FIBZ with EP hydrated t= 9420.00000 step= 210000
34138
    1PA    C116    1   1.671   5.645   3.672
    1PA    H16R    2   1.699   5.723   3.601
    1PA    H16S    3   1.570   5.675   3.699
    1PA    H16T    4   1.674   5.546   3.626
    1PA    C115    5   1.770   5.644   3.790
    1PA    H15R    6   1.733   5.567   3.859
    1PA    H15S    7   1.874   5.624   3.765
    1PA    C114    8   1.764   5.778   3.864
    1PA    H14R    9   1.811   5.857   3.804
    1PA    H14S   10   1.661   5.811   3.877
    1PA    C113   11   1.841   5.775   3.997
    1PA    H13R   12   1.944   5.745   3.976
    1PA    H13S   13   1.843   5.874   4.043
    1PA    C112   14   1.786   5.686   4.109
    1PA    H12R   15   1.679   5.697   4.127
    1PA    H12S   16   1.801   5.581   4.083
    1PA    C111   17   1.850   5.722   4.244
    1PA    H11R   18   1.960   5.716   4.242
    1PA    H11S   19   1.817   5.820   4.277
    1PA    C110   20   1.807   5.615   4.345
    1PA    H10R   21   1.698   5.609   4.340
    1PA    H10S   22   1.850   5.518   4.318
    1PA     C19   23   1.851   5.657   4.486
    1PA     H9R   24   1.952   5.697   4.476
    1PA     H9S   25   1.795   5.745   4.519
    1PA     C18   26   1.846   5.537   4.581
    1PA     H8R   27   1.740   5.511   4.593
    1PA     H8S   28   1.909   5.452   4.554
    1PA     C17   29   1.903   5.569   4.720
    1PA     H7R   30   2.012   5.563   4.717
    1PA     H7S   31   1.884   5.669   4.760
    1PA     C16   32   1.847   5.465   4.817
    1PA     H6R   33   1.739   5.459   4.802
    1PA     H6S   34   1.885   5.365   4.793
    1PA     C15   35   1.877   5.506   4.962
    1PA     H5R   36   1.982   5.531   4.980
    1PA     H5S   37   1.824   5.600   4.975
    1PA     C14   38   1.821   5.412   5.070
    1PA     H4R   39   1.714   5.421   5.052
    1PA     H4S   40   1.847   5.308   5.050
    1PA     C13   41   1.866   5.445   5.213
    1PA     H3R   42   1.861   5.552   5.235
    1PA     H3S   43   1.803   5.401   5.290
    1PA     C12   44   2.009   5.391   5.217
    1PA     H2R   45   2.022   5.295   5.167
    1PA     H2S   46   2.074   5.466   5.172
    2PC     C11   47   2.048   5.379   5.363
    2PC     O12   48   2.036   5.474   5.437
    2PC     O11   49   2.090   5.256   5.397
    2PC      C1   50   2.100   5.205   5.531
    2PC      HR   51   2.109   5.097   5.516
    2PC      HS   52   2.190   5.250   5.576
    2PC      C2   53   1.970   5.229   5.609
    2PC      HX   54   1.959   5.336   5.633
    2PC      C3   55   1.992   5.149   5.738
    2PC      HA   56   2.039   5.052   5.720
    2PC      HB   57   2.055   5.216   5.797
    2PC     O31   58   1.876   5.133   5.822
    2PC     P31   59   1.876   5.012   5.927
    2PC     O32   60   1.757   5.072   6.016
    2PC     C31   61   1.781   5.114   6.151
    2PC     H1A   62   1.838   5.030   6.190
    2PC     H1B   63   1.845   5.203   6.143
    2PC     C32   64   1.650   5.160   6.218
    2PC     H2A   65   1.603   5.243   6.165
    2PC     H2B   66   1.593   5.068   6.208
    2PC     N31   67   1.671   5.193   6.363
    2PC     C33   68   1.757   5.313   6.387
    2PC     H3A   69   1.853   5.313   6.334
    2PC     H3B   70   1.706   5.401   6.349
    2PC     H3C   71   1.774   5.318   6.495
    2PC     C34   72   1.535   5.222   6.418
    2PC     H4A   73   1.489   5.308   6.370
    2PC     H4B   74   1.478   5.129   6.409
    2PC     H4C   75   1.550   5.243   6.524
    2PC     C35   76   1.722   5.077   6.443
    2PC     H5A   77   1.699   5.094   6.549
    2PC     H5B   78   1.824   5.064   6.408
    2PC     H5C   79   1.663   4.989   6.418
    2PC     O33   80   1.850   4.880   5.866
    2PC     O34   81   2.003   5.029   6.002
    2PC     O21   82   1.868   5.173   5.524
    2PC     C21   83   1.748   5.232   5.535
    2PC     O22   84   1.728   5.338   5.590
    3OL     C12   85   1.654   5.147   5.453
    3OL     H2R   86   1.551   5.166   5.484
    3OL     H2S   87   1.668   5.043   5.485
    3OL     C13   88   1.682   5.155   5.302
    3OL     H3R   89   1.787   5.135   5.279
    3OL     H3S   90   1.669   5.259   5.271
    3OL     C14   91   1.604   5.054   5.217
    3OL     H4R   92   1.496   5.050   5.234
    3OL     H4S   93   1.646   4.959   5.251
    3OL     C15   94   1.647   5.085   5.073
    3OL     H5R   95   1.754   5.073   5.055
    3OL     H5S   96   1.621   5.190   5.057
    3OL     C16   97   1.580   5.002   4.963
    3OL     H6R   98   1.471   5.008   4.974
    3OL     H6S   99   1.616   4.901   4.983
    3OL     C17  100   1.627   5.043   4.822
    3OL     H7R  101   1.736   5.034   4.827
    3OL     H7S  102   1.597   5.145   4.796
    3OL     C18  103   1.569   4.958   4.709
    3OL     H8R  104   1.461   4.954   4.725
    3OL     H8S  105   1.611   4.858   4.718
    3OL     C19  106   1.596   5.018   4.573
    3OL     H9R  107   1.687   4.981   4.525
    3OL    C110  108   1.520   5.106   4.511
    3OL    H10R  109   1.556   5.147   4.416
    3OL    C111  110   1.402   5.177   4.572
    3OL    H11R  111   1.373   5.128   4.665
    3OL    H11S  112   1.319   5.175   4.500
    3OL    C112  113   1.444   5.319   4.612
    3OL    H12R  114   1.454   5.396   4.535
    3OL    H12S  115   1.544   5.304   4.651
    3OL    C113  116   1.368   5.378   4.732
    3OL    H13R  117   1.270   5.401   4.690
    3OL    H13S  118   1.410   5.471   4.770
    3OL    C114  119   1.359   5.292   4.858
    3OL    H14R  120   1.460   5.292   4.898
    3OL    H14S  121   1.311   5.195   4.840
    3OL    C115  122   1.265   5.354   4.963
    3OL    H15R  123   1.170   5.365   4.910
    3OL    H15S  124   1.291   5.455   4.997
    3OL    C116  125   1.245   5.258   5.081
    3OL    H16R  126   1.344   5.240   5.123
    3OL    H16S  127   1.210   5.163   5.039
    3OL    C117  128   1.145   5.290   5.192
    3OL    H17R  129   1.052   5.327   5.148
    3OL    H17S  130   1.188   5.366   5.257
    3OL    C118  131   1.124   5.161   5.273
    3OL    H18R  132   1.089   5.073   5.219
    3OL    H18S  133   1.049   5.188   5.348
    3OL    H18T  134   1.217   5.140   5.326
    1PA    C116  135   1.751   4.147   4.247
    1PA    H16R  136   1.815   4.059   4.238
    1PA    H16S  137   1.748   4.182   4.350
    1PA    H16T  138   1.785   4.231   4.185
    1PA    C115  139   1.607   4.112   4.208
    1PA    H15R  140   1.540   4.195   4.231
    1PA    H15S  141   1.595   4.065   4.110
    1PA    C114  142   1.549   4.004   4.299
    1PA    H14R  143   1.444   3.985   4.274
    1PA    H14S  144   1.611   3.915   4.286
    1PA    C113  145   1.537   4.047   4.446
    1PA    H13R  146   1.631   4.066   4.499
    1PA    H13S  147   1.482   4.142   4.440
    1PA    C112  148   1.466   3.936   4.525
    1PA    H12R  149   1.359   3.932   4.507
    1PA    H12S  150   1.506   3.842   4.486
    1PA    C111  151   1.492   3.934   4.676
    1PA    H11R  152   1.492   4.040   4.702
    1PA    H11S  153   1.402   3.887   4.715
    1PA    C110  154   1.621   3.865   4.724
    1PA    H10R  155   1.629   3.766   4.678
    1PA    H10S  156   1.710   3.914   4.684
    1PA     C19  157   1.647   3.859   4.875
    1PA     H9R  158   1.581   3.778   4.905
    1PA     H9S  159   1.743   3.817   4.906
    1PA     C18  160   1.623   3.994   4.944
    1PA     H8R  161   1.688   4.061   4.887
    1PA     H8S  162   1.520   4.030   4.938
    1PA     C17  163   1.660   4.000   5.094
    1PA     H7R  164   1.765   3.975   5.104
    1PA     H7S  165   1.637   4.093   5.146
    1PA     C16  166   1.586   3.890   5.172
    1PA     H6R  167   1.480   3.906   5.152
    1PA     H6S  168   1.614   3.792   5.135
    1PA     C15  169   1.616   3.896   5.322
    1PA     H5R  170   1.715   3.852   5.337
    1PA     H5S  171   1.622   4.000   5.356
    1PA     C14  172   1.510   3.818   5.401
    1PA     H4R  173   1.419   3.879   5.404
    1PA     H4S  174   1.472   3.722   5.364
    1PA     C13  175   1.567   3.811   5.543
    1PA     H3R  176   1.669   3.772   5.544
    1PA     H3S  177   1.578   3.916   5.572
    1PA     C12  178   1.476   3.742   5.645
    1PA     H2R  179   1.370   3.754   5.624
    1PA     H2S  180   1.499   3.636   5.644
    2PC     C11  181   1.493   3.804   5.782
    2PC     O12  182   1.396   3.837   5.847
    2PC     O11  183   1.619   3.829   5.822
    2PC      C1  184   1.632   3.876   5.958
    2PC      HR  185   1.557   3.948   5.993
    2PC      HS  186   1.632   3.794   6.030
    2PC      C2  187   1.760   3.957   5.978
    2PC      HX  188   1.842   3.897   5.937
    2PC      C3  189   1.778   4.010   6.121
    2PC      HA  190   1.806   3.929   6.187
    2PC      HB  191   1.866   4.074   6.112
    2PC     O31  192   1.660   4.079   6.168
    2PC     P31  193   1.645   4.121   6.322
    2PC     O32  194   1.686   3.992   6.407
    2PC     C31  195   1.584   3.896   6.442
    2PC     H1A  196   1.614   3.826   6.520
    2PC     H1B  197   1.500   3.948   6.489
    2PC     C32  198   1.540   3.813   6.320
    2PC     H2A  199   1.492   3.878   6.247
    2PC     H2B  200   1.633   3.777   6.277
    2PC     N31  201   1.433   3.709   6.338
    2PC     C33  202   1.368   3.699   6.203
    2PC     H3A  203   1.325   3.796   6.177
    2PC     H3B  204   1.446   3.667   6.134
    2PC     H3C  205   1.299   3.613   6.204
    2PC     C34  206   1.501   3.581   6.378
    2PC     H4A  207   1.425   3.504   6.389
    2PC     H4B  208   1.577   3.556   6.304
    2PC     H4C  209   1.542   3.584   6.479
    2PC     C35  210   1.322   3.742   6.433
    2PC     H5A  211   1.357   3.734   6.536
    2PC     H5B  212   1.234   3.686   6.403
    2PC     H5C  213   1.286   3.842   6.406
    2PC     O33  214   1.721   4.239   6.366
    2PC     O34  215   1.505   4.156   6.356
    2PC     O21  216   1.764   4.071   5.891
    2PC     C21  217   1.830   4.072   5.774
    2PC     O22  218   1.915   3.989   5.750
    3OL     C12  219   1.767   4.166   5.674
    3OL     H2R  220   1.670   4.197   5.714
    3OL     H2S  221   1.757   4.113   5.580
    3OL     C13  222   1.853   4.290   5.646
    3OL     H3R  223   1.955   4.265   5.617
    3OL     H3S  224   1.861   4.346   5.740
    3OL     C14  225   1.796   4.392   5.547
    3OL     H4R  226   1.818   4.495   5.576
    3OL     H4S  227   1.689   4.403   5.567
    3OL     C15  228   1.834   4.368   5.400
    3OL     H5R  229   1.811   4.263   5.379
    3OL     H5S  230   1.942   4.382   5.404
    3OL     C16  231   1.761   4.470   5.312
    3OL     H6R  232   1.748   4.566   5.364
    3OL     H6S  233   1.658   4.435   5.302
    3OL     C17  234   1.821   4.495   5.173
    3OL     H7R  235   1.930   4.502   5.174
    3OL     H7S  236   1.779   4.587   5.133
    3OL     C18  237   1.784   4.386   5.071
    3OL     H8R  238   1.774   4.290   5.122
    3OL     H8S  239   1.858   4.382   4.990
    3OL     C19  240   1.647   4.416   5.015
    3OL     H9R  241   1.585   4.476   5.081
    3OL    C110  242   1.597   4.390   4.896
    3OL    H10R  243   1.493   4.411   4.873
    3OL    C111  244   1.675   4.340   4.777
    3OL    H11R  245   1.646   4.235   4.763
    3OL    H11S  246   1.783   4.348   4.796
    3OL    C112  247   1.660   4.412   4.642
    3OL    H12R  248   1.740   4.380   4.575
    3OL    H12S  249   1.691   4.517   4.655
    3OL    C113  250   1.517   4.399   4.589
    3OL    H13R  251   1.454   4.462   4.652
    3OL    H13S  252   1.483   4.295   4.587
    3OL    C114  253   1.524   4.444   4.442
    3OL    H14R  254   1.580   4.364   4.394
    3OL    H14S  255   1.580   4.535   4.420
    3OL    C115  256   1.390   4.449   4.367
    3OL    H15R  257   1.328   4.359   4.376
    3OL    H15S  258   1.414   4.449   4.260
    3OL    C116  259   1.297   4.566   4.401
    3OL    H16R  260   1.346   4.659   4.371
    3OL    H16S  261   1.279   4.577   4.508
    3OL    C117  262   1.160   4.556   4.331
    3OL    H17R  263   1.088   4.611   4.391
    3OL    H17S  264   1.119   4.456   4.349
    3OL    C118  265   1.169   4.609   4.188
    3OL    H18R  266   1.068   4.609   4.145
    3OL    H18S  267   1.239   4.552   4.127
    3OL    H18T  268   1.203   4.712   4.201
    1PA    C116  269   1.015   4.044   4.224
    1PA    H16R  270   1.114   4.039   4.179
    1PA    H16S  271   0.930   4.051   4.155
    1PA    H16T  272   0.994   3.947   4.269
    1PA    C115  273   1.011   4.158   4.326
    1PA    H15R  274   1.045   4.255   4.290
    1PA    H15S  275   0.908   4.171   4.361
    1PA    C114  276   1.107   4.130   4.442
    1PA    H14R  277   1.080   4.036   4.491
    1PA    H14S  278   1.211   4.128   4.409
    1PA    C113  279   1.084   4.236   4.551
    1PA    H13R  280   1.092   4.334   4.504
    1PA    H13S  281   0.985   4.239   4.597
    1PA    C112  282   1.193   4.224   4.659
    1PA    H12R  283   1.203   4.119   4.689
    1PA    H12S  284   1.290   4.259   4.622
    1PA    C111  285   1.159   4.320   4.773
    1PA    H11R  286   1.191   4.418   4.737
    1PA    H11S  287   1.051   4.318   4.786
    1PA    C110  288   1.237   4.287   4.901
    1PA    H10R  289   1.337   4.245   4.885
    1PA    H10S  290   1.247   4.375   4.966
    1PA     C19  291   1.159   4.185   4.984
    1PA     H9R  292   1.067   4.228   5.024
    1PA     H9S  293   1.130   4.099   4.923
    1PA     C18  294   1.229   4.135   5.111
    1PA     H8R  295   1.155   4.077   5.167
    1PA     H8S  296   1.317   4.075   5.087
    1PA     C17  297   1.271   4.258   5.193
    1PA     H7R  298   1.347   4.312   5.135
    1PA     H7S  299   1.184   4.318   5.219
    1PA     C16  300   1.342   4.208   5.320
    1PA     H6R  301   1.276   4.132   5.363
    1PA     H6S  302   1.435   4.160   5.290
    1PA     C15  303   1.370   4.323   5.417
    1PA     H5R  304   1.434   4.393   5.363
    1PA     H5S  305   1.279   4.374   5.449
    1PA     C14  306   1.432   4.277   5.550
    1PA     H4R  307   1.510   4.206   5.524
    1PA     H4S  308   1.481   4.362   5.598
    1PA     C13  309   1.333   4.221   5.654
    1PA     H3R  310   1.275   4.306   5.689
    1PA     H3S  311   1.269   4.144   5.611
    1PA     C12  312   1.413   4.173   5.777
    1PA     H2R  313   1.459   4.078   5.750
    1PA     H2S  314   1.489   4.249   5.796
    2PC     C11  315   1.325   4.150   5.897
    2PC     O12  316   1.355   4.177   6.012
    2PC     O11  317   1.204   4.098   5.872
    2PC      C1  318   1.098   4.103   5.970
    2PC      HR  319   1.007   4.070   5.919
    2PC      HS  320   1.115   4.044   6.060
    2PC      C2  321   1.060   4.245   6.012
    2PC      HX  322   1.146   4.307   6.039
    2PC      C3  323   0.970   4.217   6.134
    2PC      HA  324   1.026   4.166   6.212
    2PC      HB  325   0.926   4.312   6.166
    2PC     O31  326   0.864   4.122   6.107
    2PC     P31  327   0.744   4.115   6.212
    2PC     O32  328   0.663   4.246   6.168
    2PC     C31  329   0.586   4.243   6.046
    2PC     H1A  330   0.636   4.284   5.958
    2PC     H1B  331   0.557   4.140   6.027
    2PC     C32  332   0.453   4.313   6.079
    2PC     H2A  333   0.388   4.311   5.991
    2PC     H2B  334   0.388   4.268   6.154
    2PC     N31  335   0.462   4.461   6.100
    2PC     C33  336   0.323   4.501   6.140
    2PC     H3A  337   0.312   4.466   6.243
    2PC     H3B  338   0.317   4.609   6.149
    2PC     H3C  339   0.251   4.459   6.069
    2PC     C34  340   0.547   4.493   6.219
    2PC     H4A  341   0.535   4.420   6.299
    2PC     H4B  342   0.650   4.494   6.184
    2PC     H4C  343   0.526   4.595   6.250
    2PC     C35  344   0.517   4.526   5.977
    2PC     H5A  345   0.526   4.630   6.006
    2PC     H5B  346   0.436   4.507   5.906
    2PC     H5C  347   0.617   4.490   5.952
    2PC     O33  348   0.675   3.984   6.196
    2PC     O34  349   0.776   4.109   6.356
    2PC     O21  350   0.988   4.299   5.900
    2PC     C21  351   0.970   4.432   5.904
    2PC     O22  352   1.004   4.503   5.997
    3OL     C12  353   0.903   4.492   5.783
    3OL     H2R  354   0.895   4.601   5.786
    3OL     H2S  355   0.801   4.454   5.784
    3OL     C13  356   0.973   4.448   5.653
    3OL     H3R  357   0.994   4.341   5.646
    3OL     H3S  358   1.067   4.502   5.638
    3OL     C14  359   0.877   4.479   5.537
    3OL     H4R  360   0.853   4.582   5.564
    3OL     H4S  361   0.792   4.410   5.543
    3OL     C15  362   0.954   4.471   5.405
    3OL     H5R  363   0.985   4.367   5.388
    3OL     H5S  364   1.038   4.540   5.410
    3OL     C16  365   0.863   4.515   5.290
    3OL     H6R  366   0.836   4.621   5.301
    3OL     H6S  367   0.767   4.463   5.295
    3OL     C17  368   0.932   4.505   5.153
    3OL     H7R  369   0.953   4.402   5.123
    3OL     H7S  370   1.023   4.565   5.165
    3OL     C18  371   0.853   4.577   5.043
    3OL     H8R  372   0.814   4.672   5.079
    3OL     H8S  373   0.759   4.525   5.021
    3OL     C19  374   0.934   4.591   4.916
    3OL     H9R  375   1.035   4.613   4.949
    3OL    C110  376   0.908   4.557   4.791
    3OL    H10R  377   0.980   4.549   4.709
    3OL    C111  378   0.779   4.491   4.749
    3OL    H11R  379   0.759   4.401   4.807
    3OL    H11S  380   0.784   4.458   4.645
    3OL    C112  381   0.661   4.590   4.751
    3OL    H12R  382   0.632   4.616   4.853
    3OL    H12S  383   0.586   4.540   4.690
    3OL    C113  384   0.694   4.721   4.679
    3OL    H13R  385   0.736   4.694   4.582
    3OL    H13S  386   0.772   4.783   4.724
    3OL    C114  387   0.560   4.796   4.669
    3OL    H14R  388   0.512   4.788   4.767
    3OL    H14S  389   0.497   4.744   4.597
    3OL    C115  390   0.572   4.944   4.631
    3OL    H15R  391   0.612   4.955   4.530
    3OL    H15S  392   0.627   5.000   4.706
    3OL    C116  393   0.434   5.010   4.637
    3OL    H16R  394   0.395   4.994   4.738
    3OL    H16S  395   0.363   4.965   4.568
    3OL    C117  396   0.445   5.162   4.618
    3OL    H17R  397   0.507   5.178   4.530
    3OL    H17S  398   0.488   5.209   4.707
    3OL    C118  399   0.304   5.216   4.591
    3OL    H18R  400   0.276   5.193   4.488
    3OL    H18S  401   0.311   5.325   4.591
    3OL    H18T  402   0.240   5.179   4.671
    1PA    C116  403   1.650   4.557   3.885
    1PA    H16R  404   1.669   4.662   3.860
    1PA    H16S  405   1.565   4.557   3.954
    1PA    H16T  406   1.618   4.512   3.791
    1PA    C115  407   1.770   4.482   3.945
    1PA    H15R  408   1.743   4.377   3.960
    1PA    H15S  409   1.833   4.483   3.856
    1PA    C114  410   1.827   4.552   4.069
    1PA    H14R  411   1.872   4.641   4.027
    1PA    H14S  412   1.750   4.571   4.145
    1PA    C113  413   1.952   4.478   4.119
    1PA    H13R  414   1.915   4.376   4.133
    1PA    H13S  415   2.030   4.477   4.042
    1PA    C112  416   2.010   4.534   4.249
    1PA    H12R  417   2.070   4.622   4.225
    1PA    H12S  418   1.931   4.570   4.314
    1PA    C111  419   2.116   4.453   4.326
    1PA    H11R  420   2.090   4.351   4.353
    1PA    H11S  421   2.207   4.452   4.265
    1PA    C110  422   2.169   4.519   4.454
    1PA    H10R  423   2.265   4.478   4.483
    1PA    H10S  424   2.176   4.627   4.437
    1PA     C19  425   2.063   4.499   4.564
    1PA     H9R  426   1.967   4.529   4.522
    1PA     H9S  427   2.075   4.396   4.597
    1PA     C18  428   2.102   4.591   4.680
    1PA     H8R  429   2.210   4.591   4.695
    1PA     H8S  430   2.065   4.691   4.652
    1PA     C17  431   2.044   4.533   4.809
    1PA     H7R  432   1.936   4.532   4.794
    1PA     H7S  433   2.078   4.433   4.836
    1PA     C16  434   2.083   4.630   4.922
    1PA     H6R  435   2.094   4.573   5.014
    1PA     H6S  436   2.184   4.662   4.899
    1PA     C15  437   1.995   4.756   4.924
    1PA     H5R  438   2.006   4.817   4.834
    1PA     H5S  439   1.891   4.725   4.932
    1PA     C14  440   2.033   4.855   5.035
    1PA     H4R  441   2.139   4.884   5.029
    1PA     H4S  442   1.979   4.948   5.015
    1PA     C13  443   1.999   4.806   5.176
    1PA     H3R  444   1.892   4.817   5.194
    1PA     H3S  445   2.041   4.706   5.184
    1PA     C12  446   2.081   4.894   5.272
    1PA     H2R  447   2.188   4.873   5.257
    1PA     H2S  448   2.070   5.000   5.250
    2PC     C11  449   2.062   4.858   5.417
    2PC     O12  450   1.951   4.828   5.456
    2PC     O11  451   2.176   4.847   5.487
    2PC      C1  452   2.171   4.796   5.622
    2PC      HR  453   2.272   4.823   5.655
    2PC      HS  454   2.096   4.853   5.678
    2PC      C2  455   2.144   4.645   5.625
    2PC      HX  456   2.060   4.616   5.563
    2PC      C3  457   2.120   4.607   5.772
    2PC      HA  458   2.044   4.672   5.816
    2PC      HB  459   2.076   4.507   5.779
    2PC     O31  460   2.238   4.643   5.845
    2PC     P31  461   2.233   4.618   6.004
    2PC     O32  462   2.337   4.496   6.014
    2PC     C31  463   2.398   4.474   6.142
    2PC     H1A  464   2.468   4.394   6.116
    2PC     H1B  465   2.450   4.566   6.170
    2PC     C32  466   2.297   4.433   6.250
    2PC     H2A  467   2.218   4.507   6.265
    2PC     H2B  468   2.239   4.345   6.222
    2PC     N31  469   2.356   4.398   6.383
    2PC     C33  470   2.250   4.367   6.484
    2PC     H3A  471   2.214   4.273   6.442
    2PC     H3B  472   2.289   4.347   6.584
    2PC     H3C  473   2.184   4.454   6.476
    2PC     C34  474   2.451   4.282   6.377
    2PC     H4A  475   2.543   4.317   6.330
    2PC     H4B  476   2.478   4.253   6.479
    2PC     H4C  477   2.399   4.198   6.332
    2PC     C35  478   2.437   4.509   6.444
    2PC     H5A  479   2.389   4.605   6.423
    2PC     H5B  480   2.539   4.509   6.406
    2PC     H5C  481   2.442   4.503   6.553
    2PC     O33  482   2.275   4.738   6.080
    2PC     O34  483   2.101   4.586   6.063
    2PC     O21  484   2.267   4.579   5.590
    2PC     C21  485   2.265   4.445   5.581
    2PC     O22  486   2.182   4.368   5.626
    3OL     C12  487   2.382   4.397   5.500
    3OL     H2R  488   2.420   4.306   5.548
    3OL     H2S  489   2.459   4.473   5.509
    3OL     C13  490   2.342   4.381   5.353
    3OL     H3R  491   2.287   4.465   5.310
    3OL     H3S  492   2.289   4.286   5.335
    3OL     C14  493   2.477   4.380   5.281
    3OL     H4R  494   2.542   4.295   5.303
    3OL     H4S  495   2.532   4.474   5.293
    3OL     C15  496   2.456   4.363   5.129
    3OL     H5R  497   2.387   4.439   5.090
    3OL     H5S  498   2.409   4.269   5.100
    3OL     C16  499   2.595   4.371   5.066
    3OL     H6R  500   2.660   4.295   5.109
    3OL     H6S  501   2.652   4.458   5.101
    3OL     C17  502   2.593   4.350   4.914
    3OL     H7R  503   2.513   4.407   4.866
    3OL     H7S  504   2.573   4.243   4.904
    3OL     C18  505   2.726   4.372   4.842
    3OL     H8R  506   2.722   4.358   4.734
    3OL     H8S  507   2.796   4.306   4.894
    3OL     C19  508   2.782   4.510   4.863
    3OL     H9R  509   2.804   4.526   4.968
    3OL    C110  510   2.824   4.601   4.776
    3OL    H10R  511   2.853   4.696   4.819
    3OL    C111  512   2.810   4.588   4.626
    3OL    H11R  513   2.707   4.569   4.595
    3OL    H11S  514   2.870   4.506   4.587
    3OL    C112  515   2.855   4.713   4.549
    3OL    H12R  516   2.960   4.733   4.571
    3OL    H12S  517   2.810   4.805   4.587
    3OL    C113  518   2.821   4.705   4.400
    3OL    H13R  519   2.725   4.654   4.384
    3OL    H13S  520   2.899   4.644   4.353
    3OL    C114  521   2.813   4.837   4.323
    3OL    H14R  522   2.904   4.891   4.350
    3OL    H14S  523   2.728   4.887   4.370
    3OL    C115  524   2.784   4.824   4.173
    3OL    H15R  525   2.697   4.759   4.162
    3OL    H15S  526   2.867   4.786   4.112
    3OL    C116  527   2.767   4.968   4.122
    3OL    H16R  528   2.861   5.010   4.158
    3OL    H16S  529   2.680   5.015   4.168
    3OL    C117  530   2.760   4.973   3.969
    3OL    H17R  531   2.686   4.897   3.944
    3OL    H17S  532   2.852   4.938   3.922
    3OL    C118  533   2.711   5.106   3.909
    3OL    H18R  534   2.604   5.109   3.926
    3OL    H18S  535   2.737   5.117   3.804
    3OL    H18T  536   2.768   5.177   3.969
    1PA    C116  537   2.571   3.549   4.295
    1PA    H16R  538   2.519   3.461   4.257
    1PA    H16S  539   2.593   3.546   4.402
    1PA    H16T  540   2.661   3.564   4.234
    1PA    C115  541   2.476   3.666   4.265
    1PA    H15R  542   2.516   3.767   4.262
    1PA    H15S  543   2.444   3.653   4.161
    1PA    C114  544   2.352   3.646   4.354
    1PA    H14R  545   2.260   3.683   4.309
    1PA    H14S  546   2.333   3.539   4.363
    1PA    C113  547   2.371   3.702   4.495
    1PA    H13R  548   2.467   3.664   4.530
    1PA    H13S  549   2.382   3.810   4.498
    1PA    C112  550   2.260   3.671   4.597
    1PA    H12R  551   2.285   3.733   4.684
    1PA    H12S  552   2.162   3.694   4.555
    1PA    C111  553   2.254   3.525   4.642
    1PA    H11R  554   2.230   3.458   4.559
    1PA    H11S  555   2.348   3.503   4.693
    1PA    C110  556   2.142   3.510   4.746
    1PA    H10R  557   2.051   3.558   4.709
    1PA    H10S  558   2.120   3.403   4.754
    1PA     C19  559   2.177   3.565   4.885
    1PA     H9R  560   2.278   3.530   4.906
    1PA     H9S  561   2.187   3.674   4.888
    1PA     C18  562   2.089   3.525   5.004
    1PA     H8R  563   2.080   3.417   5.013
    1PA     H8S  564   2.148   3.551   5.092
    1PA     C17  565   1.953   3.596   5.003
    1PA     H7R  566   1.966   3.704   4.989
    1PA     H7S  567   1.897   3.559   4.917
    1PA     C16  568   1.878   3.582   5.136
    1PA     H6R  569   1.948   3.602   5.218
    1PA     H6S  570   1.803   3.659   5.153
    1PA     C15  571   1.814   3.444   5.160
    1PA     H5R  572   1.740   3.417   5.084
    1PA     H5S  573   1.896   3.372   5.162
    1PA     C14  574   1.738   3.440   5.293
    1PA     H4R  575   1.801   3.477   5.374
    1PA     H4S  576   1.649   3.504   5.287
    1PA     C13  577   1.684   3.300   5.323
    1PA     H3R  578   1.626   3.265   5.238
    1PA     H3S  579   1.761   3.222   5.324
    1PA     C12  580   1.602   3.286   5.452
    1PA     H2R  581   1.662   3.332   5.530
    1PA     H2S  582   1.506   3.337   5.443
    2PC     C11  583   1.568   3.146   5.498
    2PC     O12  584   1.493   3.071   5.438
    2PC     O11  585   1.630   3.126   5.615
    2PC      C1  586   1.618   3.002   5.688
    2PC      HR  587   1.515   2.990   5.722
    2PC      HS  588   1.631   2.920   5.617
    2PC      C2  589   1.707   3.004   5.813
    2PC      HX  590   1.665   2.932   5.882
    2PC      C3  591   1.734   3.144   5.870
    2PC      HA  592   1.778   3.213   5.797
    2PC      HB  593   1.639   3.194   5.893
    2PC     O31  594   1.817   3.139   5.987
    2PC     P31  595   1.741   3.107   6.125
    2PC     O32  596   1.840   3.169   6.235
    2PC     C31  597   1.792   3.252   6.342
    2PC     H1A  598   1.728   3.333   6.307
    2PC     H1B  599   1.742   3.199   6.423
    2PC     C32  600   1.911   3.334   6.394
    2PC     H2A  601   1.905   3.424   6.333
    2PC     H2B  602   1.895   3.371   6.496
    2PC     N31  603   2.045   3.270   6.411
    2PC     C33  604   2.118   3.276   6.281
    2PC     H3A  605   2.106   3.373   6.232
    2PC     H3B  606   2.222   3.244   6.290
    2PC     H3C  607   2.072   3.201   6.217
    2PC     C34  608   2.134   3.327   6.518
    2PC     H4A  609   2.112   3.273   6.611
    2PC     H4B  610   2.236   3.304   6.487
    2PC     H4C  611   2.110   3.432   6.536
    2PC     C35  612   2.030   3.123   6.437
    2PC     H5A  613   2.132   3.087   6.452
    2PC     H5B  614   1.969   3.075   6.360
    2PC     H5C  615   1.972   3.117   6.529
    2PC     O33  616   1.602   3.157   6.133
    2PC     O34  617   1.726   2.962   6.152
    2PC     O21  618   1.834   2.952   5.768
    2PC     C21  619   1.855   2.820   5.766
    2PC     O22  620   1.778   2.732   5.799
    3OL     C12  621   1.993   2.779   5.718
    3OL     H2R  622   1.981   2.680   5.675
    3OL     H2S  623   2.068   2.770   5.797
    3OL     C13  624   2.067   2.872   5.622
    3OL     H3R  625   2.162   2.832   5.587
    3OL     H3S  626   2.072   2.969   5.673
    3OL     C14  627   1.993   2.898   5.490
    3OL     H4R  628   1.892   2.939   5.497
    3OL     H4S  629   1.982   2.796   5.454
    3OL     C15  630   2.080   2.988   5.400
    3OL     H5R  631   2.179   2.943   5.393
    3OL     H5S  632   2.090   3.087   5.447
    3OL     C16  633   2.017   3.001   5.261
    3OL     H6R  634   1.912   3.030   5.270
    3OL     H6S  635   1.995   2.908   5.209
    3OL     C17  636   2.102   3.094   5.174
    3OL     H7R  637   2.198   3.049   5.148
    3OL     H7S  638   2.134   3.188   5.221
    3OL     C18  639   2.025   3.129   5.046
    3OL     H8R  640   2.089   3.198   4.989
    3OL     H8S  641   1.946   3.197   5.078
    3OL     C19  642   1.975   3.010   4.969
    3OL     H9R  643   1.941   2.930   5.035
    3OL    C110  644   1.971   3.001   4.837
    3OL    H10R  645   1.925   2.914   4.791
    3OL    C111  646   2.014   3.115   4.749
    3OL    H11R  647   2.122   3.105   4.735
    3OL    H11S  648   2.000   3.215   4.792
    3OL    C112  649   1.928   3.106   4.622
    3OL    H12R  650   1.826   3.108   4.660
    3OL    H12S  651   1.943   3.011   4.570
    3OL    C113  652   1.969   3.226   4.534
    3OL    H13R  653   2.076   3.219   4.514
    3OL    H13S  654   1.948   3.312   4.597
    3OL    C114  655   1.903   3.217   4.396
    3OL    H14R  656   1.795   3.197   4.392
    3OL    H14S  657   1.940   3.127   4.346
    3OL    C115  658   1.938   3.340   4.310
    3OL    H15R  659   1.912   3.320   4.206
    3OL    H15S  660   2.045   3.357   4.314
    3OL    C116  661   1.862   3.466   4.355
    3OL    H16R  662   1.875   3.491   4.460
    3OL    H16S  663   1.755   3.455   4.334
    3OL    C117  664   1.922   3.587   4.282
    3OL    H17R  665   1.905   3.580   4.175
    3OL    H17S  666   2.030   3.592   4.300
    3OL    C118  667   1.867   3.720   4.335
    3OL    H18R  668   1.922   3.801   4.286
    3OL    H18S  669   1.891   3.730   4.441
    3OL    H18T  670   1.759   3.722   4.316
    1PA    C116  671   1.205   5.233   4.216
    1PA    H16R  672   1.207   5.266   4.320
    1PA    H16S  673   1.148   5.309   4.162
    1PA    H16T  674   1.308   5.237   4.180
    1PA    C115  675   1.137   5.095   4.217
    1PA    H15R  676   1.142   5.056   4.115
    1PA    H15S  677   1.196   5.025   4.277
    1PA    C114  678   0.991   5.103   4.262
    1PA    H14R  679   0.992   5.150   4.360
    1PA    H14S  680   0.951   5.179   4.195
    1PA    C113  681   0.901   4.978   4.266
    1PA    H13R  682   0.798   5.005   4.288
    1PA    H13S  683   0.901   4.924   4.171
    1PA    C112  684   0.943   4.877   4.373
    1PA    H12R  685   0.871   4.796   4.388
    1PA    H12S  686   1.037   4.835   4.337
    1PA    C111  687   0.956   4.934   4.515
    1PA    H11R  688   1.010   5.029   4.518
    1PA    H11S  689   0.862   4.960   4.564
    1PA    C110  690   1.039   4.835   4.598
    1PA    H10R  691   0.996   4.833   4.699
    1PA    H10S  692   1.027   4.737   4.552
    1PA     C19  693   1.190   4.862   4.600
    1PA     H9R  694   1.239   4.840   4.505
    1PA     H9S  695   1.208   4.965   4.631
    1PA     C18  696   1.245   4.762   4.702
    1PA     H8R  697   1.200   4.664   4.684
    1PA     H8S  698   1.352   4.748   4.683
    1PA     C17  699   1.232   4.798   4.851
    1PA     H7R  700   1.263   4.902   4.853
    1PA     H7S  701   1.127   4.797   4.880
    1PA     C16  702   1.321   4.720   4.949
    1PA     H6R  703   1.300   4.613   4.954
    1PA     H6S  704   1.427   4.736   4.927
    1PA     C15  705   1.300   4.770   5.092
    1PA     H5R  706   1.314   4.878   5.090
    1PA     H5S  707   1.195   4.747   5.114
    1PA     C14  708   1.394   4.705   5.194
    1PA     H4R  709   1.386   4.596   5.194
    1PA     H4S  710   1.500   4.721   5.172
    1PA     C13  711   1.358   4.760   5.333
    1PA     H3R  712   1.363   4.869   5.333
    1PA     H3S  713   1.252   4.743   5.355
    1PA     C12  714   1.453   4.697   5.435
    1PA     H2R  715   1.444   4.589   5.435
    1PA     H2S  716   1.555   4.723   5.404
    2PC     C11  717   1.408   4.737   5.574
    2PC     O12  718   1.320   4.674   5.629
    2PC     O11  719   1.471   4.842   5.628
    2PC      C1  720   1.436   4.868   5.765
    2PC      HR  721   1.327   4.865   5.774
    2PC      HS  722   1.460   4.790   5.837
    2PC      C2  723   1.473   5.011   5.808
    2PC      HX  724   1.571   5.043   5.770
    2PC      C3  725   1.463   5.010   5.961
    2PC      HA  726   1.551   4.959   6.002
    2PC      HB  727   1.474   5.116   5.986
    2PC     O31  728   1.339   4.954   6.009
    2PC     P31  729   1.326   4.892   6.156
    2PC     O32  730   1.434   4.777   6.126
    2PC     C31  731   1.509   4.714   6.231
    2PC     H1A  732   1.568   4.793   6.278
    2PC     H1B  733   1.444   4.682   6.312
    2PC     C32  734   1.588   4.595   6.175
    2PC     H2A  735   1.630   4.624   6.078
    2PC     H2B  736   1.668   4.574   6.246
    2PC     N31  737   1.502   4.475   6.148
    2PC     C33  738   1.594   4.366   6.098
    2PC     H3A  739   1.525   4.287   6.069
    2PC     H3B  740   1.656   4.421   6.027
    2PC     H3C  741   1.644   4.337   6.190
    2PC     C34  742   1.422   4.424   6.263
    2PC     H4A  743   1.394   4.320   6.244
    2PC     H4B  744   1.494   4.412   6.345
    2PC     H4C  745   1.336   4.486   6.288
    2PC     C35  746   1.406   4.504   6.037
    2PC     H5A  747   1.357   4.410   6.013
    2PC     H5B  748   1.467   4.541   5.954
    2PC     H5C  749   1.323   4.568   6.068
    2PC     O33  750   1.373   4.980   6.265
    2PC     O34  751   1.192   4.836   6.183
    2PC     O21  752   1.373   5.097   5.751
    2PC     C21  753   1.398   5.228   5.748
    2PC     O22  754   1.503   5.280   5.780
    3OL     C12  755   1.279   5.303   5.694
    3OL     H2R  756   1.275   5.402   5.739
    3OL     H2S  757   1.186   5.251   5.719
    3OL     C13  758   1.274   5.319   5.541
    3OL     H3R  759   1.175   5.353   5.508
    3OL     H3S  760   1.291   5.220   5.498
    3OL     C14  761   1.389   5.402   5.483
    3OL     H4R  762   1.401   5.374   5.378
    3OL     H4S  763   1.486   5.393   5.533
    3OL     C15  764   1.366   5.553   5.477
    3OL     H5R  765   1.367   5.594   5.579
    3OL     H5S  766   1.265   5.572   5.440
    3OL     C16  767   1.472   5.631   5.397
    3OL     H6R  768   1.569   5.596   5.432
    3OL     H6S  769   1.460   5.737   5.420
    3OL     C17  770   1.447   5.619   5.246
    3OL     H7R  771   1.342   5.644   5.229
    3OL     H7S  772   1.459   5.516   5.214
    3OL     C18  773   1.546   5.705   5.166
    3OL     H8R  774   1.642   5.655   5.178
    3OL     H8S  775   1.557   5.807   5.204
    3OL     C19  776   1.505   5.698   5.021
    3OL     H9R  777   1.521   5.602   4.972
    3OL    C110  778   1.475   5.803   4.947
    3OL    H10R  779   1.469   5.802   4.839
    3OL    C111  780   1.431   5.934   5.008
    3OL    H11R  781   1.383   5.923   5.105
    3OL    H11S  782   1.350   5.965   4.941
    3OL    C112  783   1.534   6.048   5.004
    3OL    H12R  784   1.621   5.992   5.038
    3OL    H12S  785   1.512   6.132   5.071
    3OL    C113  786   1.559   6.113   4.867
    3OL    H13R  787   1.595   6.215   4.885
    3OL    H13S  788   1.463   6.120   4.815
    3OL    C114  789   1.666   6.043   4.783
    3OL    H14R  790   1.641   5.938   4.765
    3OL    H14S  791   1.763   6.039   4.833
    3OL    C115  792   1.706   6.117   4.655
    3OL    H15R  793   1.723   6.219   4.687
    3OL    H15S  794   1.621   6.124   4.586
    3OL    C116  795   1.826   6.056   4.580
    3OL    H16R  796   1.808   5.952   4.551
    3OL    H16S  797   1.917   6.045   4.639
    3OL    C117  798   1.851   6.146   4.459
    3OL    H17R  799   1.758   6.176   4.410
    3OL    H17S  800   1.906   6.090   4.384
    3OL    C118  801   1.922   6.279   4.490
    3OL    H18R  802   2.005   6.264   4.559
    3OL    H18S  803   1.851   6.346   4.539
    3OL    H18T  804   1.969   6.321   4.401
    1PA    C116  805   5.723   3.704   4.074
    1PA    H16R  806   5.684   3.804   4.058
    1PA    H16S  807   5.644   3.628   4.073
    1PA    H16T  808   5.797   3.673   4.000
    1PA    C115  809   5.773   3.703   4.219
    1PA    H15R  810   5.831   3.795   4.232
    1PA    H15S  811   5.686   3.705   4.286
    1PA    C114  812   5.865   3.587   4.257
    1PA    H14R  813   5.951   3.582   4.189
    1PA    H14S  814   5.912   3.597   4.355
    1PA    C113  815   5.784   3.457   4.266
    1PA    H13R  816   5.725   3.456   4.358
    1PA    H13S  817   5.708   3.457   4.187
    1PA    C112  818   5.868   3.329   4.258
    1PA    H12R  819   5.802   3.242   4.247
    1PA    H12S  820   5.916   3.336   4.160
    1PA    C111  821   5.960   3.307   4.379
    1PA    H11R  822   6.023   3.396   4.377
    1PA    H11S  823   5.904   3.309   4.472
    1PA    C110  824   6.043   3.180   4.361
    1PA    H10R  825   5.971   3.098   4.355
    1PA    H10S  826   6.102   3.181   4.269
    1PA     C19  827   6.138   3.160   4.480
    1PA     H9R  828   6.229   3.112   4.443
    1PA     H9S  829   6.169   3.252   4.531
    1PA     C18  830   6.069   3.074   4.586
    1PA     H8R  831   5.986   3.138   4.618
    1PA     H8S  832   6.025   2.986   4.537
    1PA     C17  833   6.171   3.038   4.694
    1PA     H7R  834   6.268   3.004   4.656
    1PA     H7S  835   6.194   3.126   4.755
    1PA     C16  836   6.110   2.931   4.786
    1PA     H6R  837   6.023   2.982   4.827
    1PA     H6S  838   6.082   2.842   4.730
    1PA     C15  839   6.186   2.898   4.916
    1PA     H5R  840   6.105   2.855   4.975
    1PA     H5S  841   6.263   2.827   4.885
    1PA     C14  842   6.252   3.015   4.989
    1PA     H4R  843   6.355   3.020   4.954
    1PA     H4S  844   6.190   3.102   4.963
    1PA     C13  845   6.251   3.003   5.142
    1PA     H3R  846   6.254   3.104   5.184
    1PA     H3S  847   6.155   2.956   5.166
    1PA     C12  848   6.367   2.924   5.204
    1PA     H2R  849   6.363   2.821   5.169
    1PA     H2S  850   6.466   2.966   5.184
    2PC     C11  851   6.340   2.929   5.352
    2PC     O12  852   6.398   3.002   5.430
    2PC     O11  853   6.236   2.854   5.392
    2PC      C1  854   6.201   2.854   5.532
    2PC      HR  855   6.254   2.930   5.589
    2PC      HS  856   6.095   2.882   5.538
    2PC      C2  857   6.228   2.712   5.584
    2PC      HX  858   6.174   2.636   5.527
    2PC      C3  859   6.183   2.680   5.728
    2PC      HA  860   6.090   2.622   5.731
    2PC      HB  861   6.260   2.618   5.772
    2PC     O31  862   6.162   2.808   5.791
    2PC     P31  863   6.145   2.807   5.950
    2PC     O32  864   6.301   2.828   5.984
    2PC     C31  865   6.347   2.948   6.049
    2PC     H1A  866   6.301   3.029   5.991
    2PC     H1B  867   6.316   2.951   6.154
    2PC     C32  868   6.499   2.946   6.034
    2PC     H2A  869   6.541   3.042   6.066
    2PC     H2B  870   6.540   2.869   6.099
    2PC     N31  871   6.554   2.927   5.896
    2PC     C33  872   6.497   3.026   5.799
    2PC     H3A  873   6.390   3.012   5.785
    2PC     H3B  874   6.517   3.124   5.841
    2PC     H3C  875   6.547   3.024   5.701
    2PC     C34  876   6.701   2.956   5.897
    2PC     H4A  877   6.747   2.884   5.965
    2PC     H4B  878   6.753   2.951   5.801
    2PC     H4C  879   6.722   3.053   5.943
    2PC     C35  880   6.547   2.783   5.853
    2PC     H5A  881   6.624   2.767   5.778
    2PC     H5B  882   6.449   2.771   5.807
    2PC     H5C  883   6.554   2.721   5.943
    2PC     O33  884   6.051   2.910   6.000
    2PC     O34  885   6.112   2.677   6.014
    2PC     O21  886   6.371   2.693   5.582
    2PC     C21  887   6.426   2.602   5.500
    2PC     O22  888   6.357   2.515   5.451
    3OL     C12  889   6.573   2.631   5.483
    3OL     H2R  890   6.605   2.609   5.586
    3OL     H2S  891   6.580   2.736   5.452
    3OL     C13  892   6.662   2.545   5.393
    3OL     H3R  893   6.653   2.439   5.420
    3OL     H3S  894   6.766   2.574   5.403
    3OL     C14  895   6.619   2.554   5.246
    3OL     H4R  896   6.511   2.541   5.232
    3OL     H4S  897   6.673   2.476   5.192
    3OL     C15  898   6.645   2.686   5.172
    3OL     H5R  899   6.751   2.708   5.181
    3OL     H5S  900   6.588   2.763   5.225
    3OL     C16  901   6.593   2.674   5.028
    3OL     H6R  902   6.486   2.656   5.034
    3OL     H6S  903   6.650   2.592   4.983
    3OL     C17  904   6.623   2.806   4.955
    3OL     H7R  905   6.583   2.884   5.019
    3OL     H7S  906   6.571   2.813   4.859
    3OL     C18  907   6.775   2.822   4.936
    3OL     H8R  908   6.824   2.737   4.887
    3OL     H8S  909   6.836   2.846   5.023
    3OL     C19  910   6.791   2.938   4.841
    3OL     H9R  911   6.712   3.012   4.845
    3OL    C110  912   6.891   2.943   4.754
    3OL    H10R  913   6.901   3.028   4.687
    3OL    C111  914   6.999   2.842   4.725
    3OL    H11R  915   7.017   2.781   4.814
    3OL    H11S  916   7.096   2.889   4.705
    3OL    C112  917   6.955   2.750   4.611
    3OL    H12R  918   6.929   2.809   4.523
    3OL    H12S  919   6.863   2.696   4.633
    3OL    C113  920   7.065   2.646   4.585
    3OL    H13R  921   7.016   2.558   4.544
    3OL    H13S  922   7.103   2.625   4.685
    3OL    C114  923   7.182   2.693   4.497
    3OL    H14R  924   7.227   2.786   4.532
    3OL    H14S  925   7.149   2.701   4.393
    3OL    C115  926   7.295   2.590   4.492
    3OL    H15R  927   7.246   2.500   4.454
    3OL    H15S  928   7.320   2.581   4.598
    3OL    C116  929   7.413   2.634   4.406
    3OL    H16R  930   7.379   2.692   4.319
    3OL    H16S  931   7.455   2.543   4.362
    3OL    C117  932   7.520   2.709   4.487
    3OL    H17R  933   7.536   2.654   4.580
    3OL    H17S  934   7.478   2.802   4.526
    3OL    C118  935   7.645   2.735   4.403
    3OL    H18R  936   7.634   2.803   4.318
    3OL    H18S  937   7.678   2.645   4.351
    3OL    H18T  938   7.725   2.770   4.469
    1PA    C116  939   2.363   5.044   4.176
    1PA    H16R  940   2.258   5.029   4.152
    1PA    H16S  941   2.432   4.995   4.106
    1PA    H16T  942   2.386   5.150   4.177
    1PA    C115  943   2.407   4.983   4.310
    1PA    H15R  944   2.508   5.016   4.335
    1PA    H15S  945   2.344   5.032   4.385
    1PA    C114  946   2.387   4.831   4.314
    1PA    H14R  947   2.283   4.808   4.292
    1PA    H14S  948   2.436   4.785   4.228
    1PA    C113  949   2.436   4.767   4.445
    1PA    H13R  950   2.427   4.658   4.441
    1PA    H13S  951   2.542   4.788   4.463
    1PA    C112  952   2.369   4.820   4.572
    1PA    H12R  953   2.366   4.929   4.570
    1PA    H12S  954   2.266   4.786   4.584
    1PA    C111  955   2.449   4.774   4.695
    1PA    H11R  956   2.412   4.674   4.720
    1PA    H11S  957   2.554   4.753   4.671
    1PA    C110  958   2.424   4.864   4.817
    1PA    H10R  959   2.470   4.962   4.809
    1PA    H10S  960   2.317   4.881   4.832
    1PA     C19  961   2.491   4.793   4.935
    1PA     H9R  962   2.437   4.703   4.963
    1PA     H9S  963   2.597   4.773   4.914
    1PA     C18  964   2.478   4.879   5.062
    1PA     H8R  965   2.536   4.970   5.046
    1PA     H8S  966   2.374   4.910   5.075
    1PA     C17  967   2.521   4.806   5.190
    1PA     H7R  968   2.468   4.711   5.200
    1PA     H7S  969   2.626   4.778   5.176
    1PA     C16  970   2.523   4.895   5.315
    1PA     H6R  971   2.587   4.980   5.291
    1PA     H6S  972   2.421   4.929   5.336
    1PA     C15  973   2.587   4.817   5.431
    1PA     H5R  974   2.536   4.831   5.527
    1PA     H5S  975   2.571   4.712   5.408
    1PA     C14  976   2.736   4.853   5.445
    1PA     H4R  977   2.783   4.783   5.515
    1PA     H4S  978   2.783   4.836   5.348
    1PA     C13  979   2.770   4.990   5.506
    1PA     H3R  980   2.878   5.003   5.509
    1PA     H3S  981   2.734   5.075   5.447
    1PA     C12  982   2.714   5.013   5.648
    1PA     H2R  983   2.608   5.035   5.637
    1PA     H2S  984   2.726   4.922   5.706
    2PC     C11  985   2.783   5.120   5.729
    2PC     O12  986   2.720   5.221   5.757
    2PC     O11  987   2.912   5.092   5.749
    2PC      C1  988   2.992   5.175   5.836
    2PC      HR  989   2.982   5.272   5.785
    2PC      HS  990   2.944   5.187   5.933
    2PC      C2  991   3.137   5.124   5.837
    2PC      HX  992   3.132   5.017   5.816
    2PC      C3  993   3.194   5.138   5.978
    2PC      HA  994   3.155   5.066   6.051
    2PC      HB  995   3.300   5.114   5.983
    2PC     O31  996   3.174   5.272   6.025
    2PC     P31  997   3.148   5.306   6.180
    2PC     O32  998   3.294   5.341   6.237
    2PC     C31  999   3.399   5.243   6.227
    2PC     H1A 1000   3.368   5.163   6.295
    2PC     H1B 1001   3.415   5.223   6.121
    2PC     C32 1002   3.524   5.309   6.286
    2PC     H2A 1003   3.611   5.249   6.262
    2PC     H2B 1004   3.545   5.403   6.234
    2PC     N31 1005   3.525   5.346   6.431
    2PC     C33 1006   3.487   5.235   6.524
    2PC     H3A 1007   3.532   5.142   6.488
    2PC     H3B 1008   3.520   5.255   6.626
    2PC     H3C 1009   3.378   5.223   6.528
    2PC     C34 1010   3.660   5.395   6.475
    2PC     H4A 1011   3.687   5.470   6.401
    2PC     H4B 1012   3.667   5.424   6.580
    2PC     H4C 1013   3.732   5.314   6.461
    2PC     C35 1014   3.434   5.459   6.466
    2PC     H5A 1015   3.425   5.464   6.575
    2PC     H5B 1016   3.333   5.435   6.434
    2PC     H5C 1017   3.485   5.546   6.425
    2PC     O33 1018   3.057   5.421   6.192
    2PC     O34 1019   3.085   5.203   6.266
    2PC     O21 1020   3.209   5.206   5.743
    2PC     C21 1021   3.265   5.147   5.636
    2PC     O22 1022   3.237   5.035   5.600
    3OL     C12 1023   3.350   5.245   5.558
    3OL     H2R 1024   3.442   5.253   5.616
    3OL     H2S 1025   3.291   5.337   5.559
    3OL     C13 1026   3.375   5.199   5.414
    3OL     H3R 1027   3.283   5.225   5.363
    3OL     H3S 1028   3.386   5.090   5.409
    3OL     C14 1029   3.496   5.275   5.357
    3OL     H4R 1030   3.582   5.280   5.423
    3OL     H4S 1031   3.465   5.379   5.344
    3OL     C15 1032   3.536   5.204   5.227
    3OL     H5R 1033   3.544   5.098   5.251
    3OL     H5S 1034   3.634   5.240   5.192
    3OL     C16 1035   3.429   5.222   5.118
    3OL     H6R 1036   3.419   5.331   5.110
    3OL     H6S 1037   3.331   5.182   5.146
    3OL     C17 1038   3.488   5.177   4.984
    3OL     H7R 1039   3.527   5.076   4.999
    3OL     H7S 1040   3.569   5.247   4.963
    3OL     C18 1041   3.393   5.183   4.864
    3OL     H8R 1042   3.376   5.288   4.837
    3OL     H8S 1043   3.298   5.139   4.895
    3OL     C19 1044   3.460   5.101   4.756
    3OL     H9R 1045   3.535   5.159   4.703
    3OL    C110 1046   3.442   4.972   4.733
    3OL    H10R 1047   3.507   4.907   4.674
    3OL    C111 1048   3.333   4.895   4.803
    3OL    H11R 1049   3.251   4.879   4.732
    3OL    H11S 1050   3.289   4.939   4.892
    3OL    C112 1051   3.378   4.760   4.862
    3OL    H12R 1052   3.390   4.691   4.778
    3OL    H12S 1053   3.302   4.713   4.924
    3OL    C113 1054   3.502   4.769   4.953
    3OL    H13R 1055   3.576   4.846   4.930
    3OL    H13S 1056   3.559   4.677   4.944
    3OL    C114 1057   3.461   4.784   5.100
    3OL    H14R 1058   3.372   4.729   5.131
    3OL    H14S 1059   3.448   4.892   5.110
    3OL    C115 1060   3.576   4.755   5.197
    3OL    H15R 1061   3.661   4.810   5.156
    3OL    H15S 1062   3.604   4.650   5.196
    3OL    C116 1063   3.538   4.799   5.339
    3OL    H16R 1064   3.526   4.908   5.343
    3OL    H16S 1065   3.439   4.761   5.367
    3OL    C117 1066   3.648   4.753   5.435
    3OL    H17R 1067   3.655   4.644   5.436
    3OL    H17S 1068   3.619   4.778   5.537
    3OL    C118 1069   3.788   4.815   5.421
    3OL    H18R 1070   3.835   4.788   5.326
    3OL    H18S 1071   3.789   4.923   5.434
    3OL    H18T 1072   3.853   4.764   5.492
    1PA    C116 1073   1.136   5.780   4.122
    1PA    H16R 1074   1.117   5.882   4.087
    1PA    H16S 1075   1.106   5.711   4.042
    1PA    H16T 1076   1.242   5.777   4.147
    1PA    C115 1077   1.043   5.772   4.244
    1PA    H15R 1078   1.076   5.845   4.317
    1PA    H15S 1079   0.941   5.803   4.218
    1PA    C114 1080   1.039   5.628   4.298
    1PA    H14R 1081   0.991   5.558   4.228
    1PA    H14S 1082   1.143   5.597   4.305
    1PA    C113 1083   0.968   5.605   4.432
    1PA    H13R 1084   0.993   5.679   4.508
    1PA    H13S 1085   0.861   5.615   4.417
    1PA    C112 1086   0.989   5.461   4.480
    1PA    H12R 1087   0.930   5.398   4.412
    1PA    H12S 1088   1.096   5.445   4.468
    1PA    C111 1089   0.938   5.435   4.622
    1PA    H11R 1090   0.987   5.500   4.696
    1PA    H11S 1091   0.830   5.443   4.637
    1PA    C110 1092   0.968   5.291   4.665
    1PA    H10R 1093   0.917   5.224   4.595
    1PA    H10S 1094   1.077   5.283   4.663
    1PA     C19 1095   0.922   5.269   4.810
    1PA     H9R 1096   0.969   5.335   4.883
    1PA     H9S 1097   0.814   5.283   4.812
    1PA     C18 1098   0.972   5.131   4.857
    1PA     H8R 1099   0.958   5.060   4.776
    1PA     H8S 1100   1.080   5.139   4.876
    1PA     C17 1101   0.901   5.094   4.988
    1PA     H7R 1102   0.971   5.030   5.042
    1PA     H7S 1103   0.883   5.176   5.057
    1PA     C16 1104   0.765   5.026   4.968
    1PA     H6R 1105   0.710   5.078   4.889
    1PA     H6S 1106   0.761   4.924   4.931
    1PA     C15 1107   0.677   5.037   5.094
    1PA     H5R 1108   0.682   5.140   5.132
    1PA     H5S 1109   0.572   5.018   5.074
    1PA     C14 1110   0.719   4.945   5.209
    1PA     H4R 1111   0.681   4.847   5.179
    1PA     H4S 1112   0.828   4.940   5.221
    1PA     C13 1113   0.646   4.983   5.338
    1PA     H3R 1114   0.540   5.006   5.323
    1PA     H3S 1115   0.642   4.889   5.395
    1PA     C12 1116   0.721   5.095   5.411
    1PA     H2R 1117   0.827   5.068   5.413
    1PA     H2S 1118   0.701   5.193   5.369
    2PC     C11 1119   0.670   5.117   5.551
    2PC     O12 1120   0.557   5.082   5.582
    2PC     O11 1121   0.748   5.200   5.622
    2PC      C1 1122   0.713   5.249   5.753
    2PC      HR 1123   0.624   5.312   5.763
    2PC      HS 1124   0.699   5.162   5.818
    2PC      C2 1125   0.841   5.323   5.793
    2PC      HX 1126   0.927   5.275   5.747
    2PC      C3 1127   0.864   5.316   5.945
    2PC      HA 1128   0.880   5.210   5.967
    2PC      HB 1129   0.951   5.369   5.985
    2PC     O31 1130   0.751   5.376   6.010
    2PC     P31 1131   0.734   5.368   6.169
    2PC     O32 1132   0.605   5.274   6.177
    2PC     C31 1133   0.556   5.233   6.306
    2PC     H1A 1134   0.630   5.180   6.366
    2PC     H1B 1135   0.517   5.320   6.359
    2PC     C32 1136   0.444   5.132   6.276
    2PC     H2A 1137   0.384   5.111   6.364
    2PC     H2B 1138   0.378   5.174   6.199
    2PC     N31 1139   0.490   5.004   6.215
    2PC     C33 1140   0.594   5.010   6.106
    2PC     H3A 1141   0.616   4.910   6.071
    2PC     H3B 1142   0.543   5.073   6.033
    2PC     H3C 1143   0.688   5.058   6.133
    2PC     C34 1144   0.545   4.915   6.322
    2PC     H4A 1145   0.527   4.811   6.294
    2PC     H4B 1146   0.648   4.937   6.349
    2PC     H4C 1147   0.495   4.927   6.419
    2PC     C35 1148   0.366   4.936   6.166
    2PC     H5A 1149   0.300   4.919   6.251
    2PC     H5B 1150   0.400   4.843   6.119
    2PC     H5C 1151   0.320   5.003   6.093
    2PC     O33 1152   0.842   5.299   6.243
    2PC     O34 1153   0.722   5.507   6.217
    2PC     O21 1154   0.828   5.461   5.755
    2PC     C21 1155   0.931   5.546   5.764
    2PC     O22 1156   1.042   5.509   5.796
    3OL     C12 1157   0.907   5.682   5.702
    3OL     H2R 1158   0.901   5.756   5.783
    3OL     H2S 1159   0.818   5.686   5.640
    3OL     C13 1160   1.012   5.725   5.599
    3OL     H3R 1161   1.011   5.654   5.516
    3OL     H3S 1162   1.117   5.709   5.625
    3OL     C14 1163   0.987   5.865   5.542
    3OL     H4R 1164   1.019   5.942   5.613
    3OL     H4S 1165   0.883   5.871   5.510
    3OL     C15 1166   1.074   5.879   5.417
    3OL     H5R 1167   1.057   5.787   5.360
    3OL     H5S 1168   1.177   5.869   5.452
    3OL     C16 1169   1.054   6.011   5.341
    3OL     H6R 1170   1.097   6.094   5.396
    3OL     H6S 1171   0.948   6.032   5.324
    3OL     C17 1172   1.124   6.013   5.204
    3OL     H7R 1173   1.085   5.926   5.150
    3OL     H7S 1174   1.232   6.002   5.216
    3OL     C18 1175   1.087   6.135   5.120
    3OL     H8R 1176   0.978   6.136   5.112
    3OL     H8S 1177   1.142   6.112   5.029
    3OL     C19 1178   1.137   6.261   5.187
    3OL     H9R 1179   1.098   6.286   5.286
    3OL    C110 1180   1.224   6.346   5.137
    3OL    H10R 1181   1.249   6.433   5.196
    3OL    C111 1182   1.298   6.333   5.006
    3OL    H11R 1183   1.319   6.229   4.979
    3OL    H11S 1184   1.394   6.378   5.031
    3OL    C112 1185   1.235   6.410   4.889
    3OL    H12R 1186   1.236   6.516   4.914
    3OL    H12S 1187   1.127   6.393   4.892
    3OL    C113 1188   1.287   6.378   4.748
    3OL    H13R 1189   1.393   6.351   4.754
    3OL    H13S 1190   1.269   6.463   4.683
    3OL    C114 1191   1.206   6.260   4.692
    3OL    H14R 1192   1.097   6.273   4.696
    3OL    H14S 1193   1.224   6.175   4.758
    3OL    C115 1194   1.243   6.218   4.549
    3OL    H15R 1195   1.201   6.122   4.520
    3OL    H15S 1196   1.352   6.214   4.546
    3OL    C116 1197   1.189   6.316   4.445
    3OL    H16R 1198   1.241   6.412   4.457
    3OL    H16S 1199   1.087   6.335   4.480
    3OL    C117 1200   1.204   6.274   4.298
    3OL    H17R 1201   1.151   6.180   4.286
    3OL    H17S 1202   1.310   6.253   4.282
    3OL    C118 1203   1.156   6.374   4.192
    3OL    H18R 1204   1.047   6.370   4.200
    3OL    H18S 1205   1.185   6.330   4.097
    3OL    H18T 1206   1.195   6.475   4.204
    1PA    C116 1207   0.570   3.628   3.731
    1PA    H16R 1208   0.478   3.676   3.695
    1PA    H16S 1209   0.567   3.519   3.730
    1PA    H16T 1210   0.645   3.660   3.658
    1PA    C115 1211   0.604   3.687   3.868
    1PA    H15R 1212   0.544   3.629   3.939
    1PA    H15S 1213   0.711   3.678   3.884
    1PA    C114 1214   0.571   3.836   3.886
    1PA    H14R 1215   0.618   3.895   3.808
    1PA    H14S 1216   0.465   3.839   3.860
    1PA    C113 1217   0.607   3.903   4.020
    1PA    H13R 1218   0.680   3.840   4.071
    1PA    H13S 1219   0.655   4.000   4.017
    1PA    C112 1220   0.478   3.919   4.101
    1PA    H12R 1221   0.400   3.960   4.036
    1PA    H12S 1222   0.443   3.820   4.129
    1PA    C111 1223   0.503   4.012   4.221
    1PA    H11R 1224   0.532   4.108   4.178
    1PA    H11S 1225   0.409   4.015   4.277
    1PA    C110 1226   0.612   3.963   4.317
    1PA    H10R 1227   0.596   3.857   4.337
    1PA    H10S 1228   0.706   3.980   4.264
    1PA     C19 1229   0.602   4.051   4.442
    1PA     H9R 1230   0.643   4.148   4.412
    1PA     H9S 1231   0.497   4.061   4.469
    1PA     C18 1232   0.676   3.988   4.560
    1PA     H8R 1233   0.650   3.883   4.576
    1PA     H8S 1234   0.782   3.996   4.535
    1PA     C17 1235   0.652   4.063   4.692
    1PA     H7R 1236   0.688   4.164   4.671
    1PA     H7S 1237   0.544   4.053   4.707
    1PA     C16 1238   0.740   4.011   4.806
    1PA     H6R 1239   0.725   3.903   4.818
    1PA     H6S 1240   0.846   4.024   4.786
    1PA     C15 1241   0.693   4.083   4.933
    1PA     H5R 1242   0.689   4.192   4.927
    1PA     H5S 1243   0.589   4.050   4.941
    1PA     C14 1244   0.779   4.042   5.053
    1PA     H4R 1245   0.787   3.933   5.061
    1PA     H4S 1246   0.881   4.080   5.041
    1PA     C13 1247   0.717   4.093   5.184
    1PA     H3R 1248   0.738   4.200   5.179
    1PA     H3S 1249   0.610   4.073   5.185
    1PA     C12 1250   0.788   4.019   5.298
    1PA     H2R 1251   0.784   3.910   5.287
    1PA     H2S 1252   0.894   4.041   5.286
    2PC     C11 1253   0.718   4.064   5.424
    2PC     O12 1254   0.772   4.118   5.518
    2PC     O11 1255   0.585   4.047   5.413
    2PC      C1 1256   0.494   4.055   5.524
    2PC      HR 1257   0.396   4.031   5.482
    2PC      HS 1258   0.522   3.976   5.594
    2PC      C2 1259   0.495   4.195   5.588
    2PC      HX 1260   0.596   4.226   5.615
    2PC      C3 1261   0.406   4.209   5.712
    2PC      HA 1262   0.446   4.151   5.796
    2PC      HB 1263   0.404   4.310   5.755
    2PC     O31 1264   0.275   4.160   5.681
    2PC     P31 1265   0.174   4.164   5.806
    2PC     O32 1266   0.077   4.046   5.759
    2PC     C31 1267  -0.061   4.084   5.744
    2PC     H1A 1268  -0.109   4.093   5.843
    2PC     H1B 1269  -0.072   4.180   5.693
    2PC     C32 1270  -0.145   3.979   5.670
    2PC     H2A 1271  -0.141   3.882   5.720
    2PC     H2B 1272  -0.250   4.009   5.668
    2PC     N31 1273  -0.108   3.955   5.527
    2PC     C33 1274  -0.209   3.857   5.475
    2PC     H3A 1275  -0.313   3.872   5.505
    2PC     H3B 1276  -0.199   3.844   5.367
    2PC     H3C 1277  -0.192   3.760   5.522
    2PC     C34 1278  -0.123   4.083   5.451
    2PC     H4A 1279  -0.222   4.122   5.477
    2PC     H4B 1280  -0.043   4.156   5.447
    2PC     H4C 1281  -0.131   4.047   5.348
    2PC     C35 1282   0.034   3.909   5.511
    2PC     H5A 1283   0.055   3.889   5.406
    2PC     H5B 1284   0.038   3.820   5.573
    2PC     H5C 1285   0.097   3.990   5.548
    2PC     O33 1286   0.239   4.126   5.933
    2PC     O34 1287   0.114   4.299   5.823
    2PC     O21 1288   0.461   4.287   5.482
    2PC     C21 1289   0.456   4.418   5.508
    2PC     O22 1290   0.514   4.472   5.600
    3OL     C12 1291   0.372   4.498   5.411
    3OL     H2R 1292   0.325   4.576   5.471
    3OL     H2S 1293   0.293   4.444   5.358
    3OL     C13 1294   0.476   4.553   5.312
    3OL     H3R 1295   0.523   4.473   5.256
    3OL     H3S 1296   0.554   4.594   5.377
    3OL     C14 1297   0.431   4.665   5.218
    3OL     H4R 1298   0.512   4.713   5.163
    3OL     H4S 1299   0.390   4.749   5.275
    3OL     C15 1300   0.319   4.632   5.118
    3OL     H5R 1301   0.278   4.728   5.086
    3OL     H5S 1302   0.244   4.571   5.168
    3OL     C16 1303   0.362   4.563   4.987
    3OL     H6R 1304   0.444   4.492   5.001
    3OL     H6S 1305   0.402   4.642   4.924
    3OL     C17 1306   0.236   4.517   4.912
    3OL     H7R 1307   0.248   4.529   4.804
    3OL     H7S 1308   0.151   4.582   4.934
    3OL     C18 1309   0.193   4.377   4.958
    3OL     H8R 1310   0.108   4.352   4.895
    3OL     H8S 1311   0.148   4.380   5.058
    3OL     C19 1312   0.304   4.276   4.939
    3OL     H9R 1313   0.354   4.270   4.843
    3OL    C110 1314   0.337   4.179   5.022
    3OL    H10R 1315   0.403   4.103   4.980
    3OL    C111 1316   0.304   4.166   5.169
    3OL    H11R 1317   0.225   4.241   5.179
    3OL    H11S 1318   0.378   4.200   5.241
    3OL    C112 1319   0.247   4.029   5.209
    3OL    H12R 1320   0.209   4.037   5.312
    3OL    H12S 1321   0.326   3.954   5.207
    3OL    C113 1322   0.137   3.985   5.111
    3OL    H13R 1323   0.105   3.886   5.144
    3OL    H13S 1324   0.180   3.969   5.012
    3OL    C114 1325   0.017   4.079   5.094
    3OL    H14R 1326   0.058   4.173   5.056
    3OL    H14S 1327  -0.021   4.104   5.193
    3OL    C115 1328  -0.096   4.032   5.001
    3OL    H15R 1329  -0.047   3.987   4.915
    3OL    H15S 1330  -0.153   4.117   4.964
    3OL    C116 1331  -0.186   3.929   5.071
    3OL    H16R 1332  -0.253   3.984   5.138
    3OL    H16S 1333  -0.132   3.858   5.134
    3OL    C117 1334  -0.280   3.867   4.967
    3OL    H17R 1335  -0.226   3.791   4.910
    3OL    H17S 1336  -0.306   3.947   4.897
    3OL    C118 1337  -0.413   3.810   5.016
    3OL    H18R 1338  -0.472   3.771   4.933
    3OL    H18S 1339  -0.472   3.886   5.068
    3OL    H18T 1340  -0.407   3.727   5.087
    1PA    C116 1341   1.154   3.133   4.736
    1PA    H16R 1342   1.213   3.054   4.689
    1PA    H16S 1343   1.117   3.089   4.828
    1PA    H16T 1344   1.226   3.215   4.748
    1PA    C115 1345   1.033   3.162   4.646
    1PA    H15R 1346   1.074   3.177   4.546
    1PA    H15S 1347   0.964   3.078   4.651
    1PA    C114 1348   0.957   3.285   4.696
    1PA    H14R 1349   0.937   3.273   4.803
    1PA    H14S 1350   1.025   3.371   4.690
    1PA    C113 1351   0.829   3.318   4.617
    1PA    H13R 1352   0.819   3.425   4.635
    1PA    H13S 1353   0.843   3.307   4.509
    1PA    C112 1354   0.706   3.244   4.670
    1PA    H12R 1355   0.614   3.262   4.614
    1PA    H12S 1356   0.724   3.139   4.647
    1PA    C111 1357   0.676   3.249   4.820
    1PA    H11R 1358   0.594   3.178   4.827
    1PA    H11S 1359   0.759   3.205   4.877
    1PA    C110 1360   0.628   3.384   4.875
    1PA    H10R 1361   0.570   3.430   4.795
    1PA    H10S 1362   0.555   3.372   4.955
    1PA     C19 1363   0.739   3.477   4.925
    1PA     H9R 1364   0.830   3.463   4.867
    1PA     H9S 1365   0.718   3.582   4.902
    1PA     C18 1366   0.772   3.447   5.072
    1PA     H8R 1367   0.676   3.444   5.123
    1PA     H8S 1368   0.817   3.349   5.085
    1PA     C17 1369   0.873   3.546   5.134
    1PA     H7R 1370   0.965   3.567   5.079
    1PA     H7S 1371   0.823   3.643   5.121
    1PA     C16 1372   0.893   3.526   5.285
    1PA     H6R 1373   0.795   3.529   5.332
    1PA     H6S 1374   0.932   3.427   5.307
    1PA     C15 1375   0.981   3.636   5.345
    1PA     H5R 1376   1.081   3.638   5.301
    1PA     H5S 1377   0.933   3.733   5.326
    1PA     C14 1378   0.990   3.615   5.496
    1PA     H4R 1379   0.888   3.611   5.537
    1PA     H4S 1380   1.036   3.517   5.508
    1PA     C13 1381   1.083   3.718   5.562
    1PA     H3R 1382   1.106   3.676   5.660
    1PA     H3S 1383   1.177   3.720   5.508
    1PA     C12 1384   1.021   3.856   5.588
    1PA     H2R 1385   1.088   3.931   5.632
    1PA     H2S 1386   1.003   3.896   5.488
    2PC     C11 1387   0.885   3.846   5.653
    2PC     O12 1388   0.783   3.845   5.587
    2PC     O11 1389   0.892   3.871   5.785
    2PC      C1 1390   0.765   3.870   5.854
    2PC      HR 1391   0.770   3.935   5.942
    2PC      HS 1392   0.681   3.902   5.791
    2PC      C2 1393   0.738   3.724   5.892
    2PC      HX 1394   0.674   3.727   5.980
    2PC      C3 1395   0.864   3.640   5.918
    2PC      HA 1396   0.909   3.603   5.826
    2PC      HB 1397   0.932   3.700   5.978
    2PC     O31 1398   0.819   3.533   6.004
    2PC     P31 1399   0.906   3.491   6.132
    2PC     O32 1400   0.838   3.356   6.184
    2PC     C31 1401   0.696   3.374   6.199
    2PC     H1A 1402   0.671   3.477   6.228
    2PC     H1B 1403   0.636   3.346   6.113
    2PC     C32 1404   0.653   3.272   6.305
    2PC     H2A 1405   0.545   3.261   6.316
    2PC     H2B 1406   0.686   3.170   6.285
    2PC     N31 1407   0.701   3.294   6.446
    2PC     C33 1408   0.671   3.431   6.500
    2PC     H3A 1409   0.725   3.435   6.595
    2PC     H3B 1410   0.705   3.504   6.426
    2PC     H3C 1411   0.566   3.446   6.523
    2PC     C34 1412   0.626   3.206   6.540
    2PC     H4A 1413   0.522   3.224   6.510
    2PC     H4B 1414   0.649   3.100   6.523
    2PC     H4C 1415   0.638   3.240   6.643
    2PC     C35 1416   0.845   3.259   6.467
    2PC     H5A 1417   0.866   3.264   6.574
    2PC     H5B 1418   0.911   3.322   6.408
    2PC     H5C 1419   0.862   3.159   6.425
    2PC     O33 1420   1.044   3.451   6.097
    2PC     O34 1421   0.913   3.593   6.240
    2PC     O21 1422   0.672   3.660   5.781
    2PC     C21 1423   0.548   3.691   5.740
    2PC     O22 1424   0.474   3.774   5.788
    3OL     C12 1425   0.507   3.609   5.620
    3OL     H2R 1426   0.400   3.589   5.620
    3OL     H2S 1427   0.536   3.504   5.622
    3OL     C13 1428   0.551   3.676   5.489
    3OL     H3R 1429   0.658   3.662   5.473
    3OL     H3S 1430   0.525   3.781   5.498
    3OL     C14 1431   0.483   3.633   5.358
    3OL     H4R 1432   0.378   3.606   5.365
    3OL     H4S 1433   0.538   3.543   5.328
    3OL     C15 1434   0.493   3.723   5.234
    3OL     H5R 1435   0.596   3.738   5.202
    3OL     H5S 1436   0.447   3.817   5.267
    3OL     C16 1437   0.404   3.683   5.116
    3OL     H6R 1438   0.300   3.704   5.144
    3OL     H6S 1439   0.416   3.575   5.106
    3OL     C17 1440   0.438   3.756   4.985
    3OL     H7R 1441   0.547   3.757   4.976
    3OL     H7S 1442   0.415   3.863   4.990
    3OL     C18 1443   0.371   3.697   4.861
    3OL     H8R 1444   0.264   3.717   4.867
    3OL     H8S 1445   0.384   3.589   4.846
    3OL     C19 1446   0.423   3.759   4.734
    3OL     H9R 1447   0.505   3.698   4.695
    3OL    C110 1448   0.362   3.858   4.670
    3OL    H10R 1449   0.402   3.898   4.578
    3OL    C111 1450   0.256   3.948   4.727
    3OL    H11R 1451   0.283   3.990   4.824
    3OL    H11S 1452   0.165   3.889   4.743
    3OL    C112 1453   0.217   4.062   4.630
    3OL    H12R 1454   0.205   4.017   4.531
    3OL    H12S 1455   0.298   4.135   4.632
    3OL    C113 1456   0.087   4.131   4.672
    3OL    H13R 1457   0.096   4.151   4.779
    3OL    H13S 1458   0.008   4.057   4.662
    3OL    C114 1459   0.059   4.252   4.581
    3OL    H14R 1460   0.032   4.211   4.483
    3OL    H14S 1461   0.138   4.326   4.565
    3OL    C115 1462  -0.058   4.339   4.628
    3OL    H15R 1463  -0.027   4.374   4.726
    3OL    H15S 1464  -0.149   4.281   4.646
    3OL    C116 1465  -0.082   4.458   4.535
    3OL    H16R 1466   0.011   4.506   4.502
    3OL    H16S 1467  -0.131   4.533   4.598
    3OL    C117 1468  -0.169   4.438   4.410
    3OL    H17R 1469  -0.270   4.412   4.444
    3OL    H17S 1470  -0.124   4.352   4.359
    3OL    C118 1471  -0.177   4.562   4.321
    3OL    H18R 1472  -0.269   4.617   4.346
    3OL    H18S 1473  -0.198   4.522   4.222
    3OL    H18T 1474  -0.094   4.632   4.328
    1PA    C116 1475   1.547   1.872   4.623
    1PA    H16R 1476   1.546   1.862   4.515
    1PA    H16S 1477   1.489   1.787   4.660
    1PA    H16T 1478   1.647   1.872   4.665
    1PA    C115 1479   1.476   2.002   4.667
    1PA    H15R 1480   1.520   2.093   4.625
    1PA    H15S 1481   1.374   1.995   4.629
    1PA    C114 1482   1.470   2.012   4.820
    1PA    H14R 1483   1.451   1.911   4.855
    1PA    H14S 1484   1.572   2.025   4.856
    1PA    C113 1485   1.375   2.120   4.875
    1PA    H13R 1486   1.293   2.122   4.804
    1PA    H13S 1487   1.356   2.083   4.976
    1PA    C112 1488   1.445   2.257   4.878
    1PA    H12R 1489   1.527   2.256   4.950
    1PA    H12S 1490   1.479   2.281   4.778
    1PA    C111 1491   1.345   2.366   4.920
    1PA    H11R 1492   1.266   2.375   4.845
    1PA    H11S 1493   1.294   2.343   5.014
    1PA    C110 1494   1.406   2.505   4.941
    1PA    H10R 1495   1.479   2.505   5.023
    1PA    H10S 1496   1.474   2.531   4.859
    1PA     C19 1497   1.302   2.612   4.974
    1PA     H9R 1498   1.216   2.559   5.015
    1PA     H9S 1499   1.341   2.693   5.036
    1PA     C18 1500   1.256   2.674   4.841
    1PA     H8R 1501   1.335   2.731   4.792
    1PA     H8S 1502   1.224   2.591   4.778
    1PA     C17 1503   1.130   2.761   4.853
    1PA     H7R 1504   1.145   2.834   4.933
    1PA     H7S 1505   1.117   2.802   4.752
    1PA     C16 1506   1.007   2.677   4.891
    1PA     H6R 1507   0.982   2.615   4.805
    1PA     H6S 1508   1.029   2.617   4.980
    1PA     C15 1509   0.888   2.773   4.901
    1PA     H5R 1510   0.888   2.840   4.815
    1PA     H5S 1511   0.796   2.716   4.887
    1PA     C14 1512   0.880   2.838   5.040
    1PA     H4R 1513   0.844   2.771   5.119
    1PA     H4S 1514   0.980   2.863   5.076
    1PA     C13 1515   0.792   2.964   5.030
    1PA     H3R 1516   0.851   3.044   5.075
    1PA     H3S 1517   0.778   2.977   4.923
    1PA     C12 1518   0.655   2.946   5.098
    1PA     H2R 1519   0.594   3.026   5.056
    1PA     H2S 1520   0.616   2.857   5.048
    2PC     C11 1521   0.665   2.948   5.248
    2PC     O12 1522   0.689   3.049   5.312
    2PC     O11 1523   0.662   2.822   5.293
    2PC      C1 1524   0.720   2.790   5.420
    2PC      HR 1525   0.682   2.859   5.496
    2PC      HS 1526   0.674   2.695   5.448
    2PC      C2 1527   0.873   2.774   5.412
    2PC      HX 1528   0.892   2.708   5.327
    2PC      C3 1529   0.917   2.719   5.548
    2PC      HA 1530   0.849   2.645   5.591
    2PC      HB 1531   1.012   2.666   5.542
    2PC     O31 1532   0.940   2.828   5.639
    2PC     P31 1533   0.972   2.821   5.796
    2PC     O32 1534   1.101   2.726   5.797
    2PC     C31 1535   1.192   2.749   5.906
    2PC     H1A 1536   1.243   2.845   5.896
    2PC     H1B 1537   1.134   2.757   5.999
    2PC     C32 1538   1.291   2.632   5.915
    2PC     H2A 1539   1.334   2.609   5.818
    2PC     H2B 1540   1.375   2.648   5.982
    2PC     N31 1541   1.239   2.495   5.948
    2PC     C33 1542   1.174   2.501   6.083
    2PC     H3A 1543   1.239   2.564   6.144
    2PC     H3B 1544   1.079   2.554   6.080
    2PC     H3C 1545   1.169   2.396   6.114
    2PC     C34 1546   1.124   2.455   5.861
    2PC     H4A 1547   1.149   2.471   5.756
    2PC     H4B 1548   1.105   2.351   5.885
    2PC     H4C 1549   1.040   2.517   5.894
    2PC     C35 1550   1.355   2.401   5.955
    2PC     H5A 1551   1.410   2.404   5.861
    2PC     H5B 1552   1.312   2.302   5.972
    2PC     H5C 1553   1.411   2.432   6.043
    2PC     O33 1554   1.023   2.954   5.838
    2PC     O34 1555   0.851   2.777   5.869
    2PC     O21 1556   0.941   2.897   5.382
    2PC     C21 1557   1.073   2.897   5.356
    2PC     O22 1558   1.133   2.795   5.333
    3OL     C12 1559   1.139   3.033   5.360
    3OL     H2R 1560   1.244   3.005   5.353
    3OL     H2S 1561   1.127   3.074   5.461
    3OL     C13 1562   1.097   3.119   5.240
    3OL     H3R 1563   0.991   3.147   5.235
    3OL     H3S 1564   1.116   3.052   5.156
    3OL     C14 1565   1.183   3.245   5.226
    3OL     H4R 1566   1.290   3.237   5.246
    3OL     H4S 1567   1.147   3.314   5.303
    3OL     C15 1568   1.162   3.316   5.092
    3OL     H5R 1569   1.054   3.330   5.077
    3OL     H5S 1570   1.188   3.253   5.006
    3OL     C16 1571   1.239   3.448   5.084
    3OL     H6R 1572   1.341   3.432   5.120
    3OL     H6S 1573   1.187   3.520   5.148
    3OL     C17 1574   1.248   3.506   4.942
    3OL     H7R 1575   1.146   3.525   4.908
    3OL     H7S 1576   1.289   3.426   4.880
    3OL     C18 1577   1.337   3.631   4.936
    3OL     H8R 1578   1.364   3.667   4.836
    3OL     H8S 1579   1.433   3.617   4.985
    3OL     C19 1580   1.256   3.740   5.002
    3OL     H9R 1581   1.269   3.743   5.110
    3OL    C110 1582   1.166   3.813   4.938
    3OL    H10R 1583   1.116   3.888   4.999
    3OL    C111 1584   1.134   3.804   4.791
    3OL    H11R 1585   1.204   3.739   4.739
    3OL    H11S 1586   1.144   3.904   4.747
    3OL    C112 1587   0.990   3.754   4.772
    3OL    H12R 1588   0.922   3.808   4.838
    3OL    H12S 1589   0.979   3.647   4.793
    3OL    C113 1590   0.949   3.761   4.624
    3OL    H13R 1591   0.934   3.864   4.593
    3OL    H13S 1592   0.852   3.713   4.612
    3OL    C114 1593   1.050   3.699   4.526
    3OL    H14R 1594   1.085   3.601   4.557
    3OL    H14S 1595   1.135   3.766   4.539
    3OL    C115 1596   0.991   3.694   4.384
    3OL    H15R 1597   1.077   3.680   4.319
    3OL    H15S 1598   0.938   3.788   4.371
    3OL    C116 1599   0.887   3.582   4.373
    3OL    H16R 1600   0.808   3.611   4.443
    3OL    H16S 1601   0.927   3.484   4.400
    3OL    C117 1602   0.828   3.575   4.232
    3OL    H17R 1603   0.818   3.677   4.195
    3OL    H17S 1604   0.730   3.528   4.236
    3OL    C118 1605   0.905   3.492   4.128
    3OL    H18R 1606   0.845   3.468   4.040
    3OL    H18S 1607   0.942   3.402   4.176
    3OL    H18T 1608   0.991   3.551   4.096
    1PA    C116 1609   5.644   0.331   3.758
    1PA    H16R 1610   5.571   0.407   3.732
    1PA    H16S 1611   5.673   0.271   3.671
    1PA    H16T 1612   5.731   0.390   3.788
    1PA    C115 1613   5.595   0.248   3.878
    1PA    H15R 1614   5.544   0.161   3.835
    1PA    H15S 1615   5.684   0.206   3.926
    1PA    C114 1616   5.502   0.330   3.968
    1PA    H14R 1617   5.417   0.362   3.907
    1PA    H14S 1618   5.460   0.262   4.042
    1PA    C113 1619   5.575   0.451   4.027
    1PA    H13R 1620   5.613   0.523   3.954
    1PA    H13S 1621   5.493   0.507   4.074
    1PA    C112 1622   5.676   0.411   4.136
    1PA    H12R 1623   5.745   0.336   4.097
    1PA    H12S 1624   5.746   0.488   4.172
    1PA    C111 1625   5.613   0.364   4.267
    1PA    H11R 1626   5.549   0.445   4.303
    1PA    H11S 1627   5.553   0.273   4.254
    1PA    C110 1628   5.724   0.333   4.369
    1PA    H10R 1629   5.785   0.253   4.327
    1PA    H10S 1630   5.790   0.419   4.386
    1PA     C19 1631   5.667   0.298   4.507
    1PA     H9R 1632   5.587   0.368   4.529
    1PA     H9S 1633   5.625   0.197   4.507
    1PA     C18 1634   5.770   0.312   4.620
    1PA     H8R 1635   5.839   0.228   4.616
    1PA     H8S 1636   5.831   0.402   4.604
    1PA     C17 1637   5.720   0.310   4.765
    1PA     H7R 1638   5.624   0.362   4.774
    1PA     H7S 1639   5.700   0.210   4.804
    1PA     C16 1640   5.837   0.363   4.850
    1PA     H6R 1641   5.924   0.302   4.824
    1PA     H6S 1642   5.866   0.468   4.840
    1PA     C15 1643   5.817   0.335   4.999
    1PA     H5R 1644   5.832   0.230   5.025
    1PA     H5S 1645   5.893   0.394   5.051
    1PA     C14 1646   5.682   0.390   5.049
    1PA     H4R 1647   5.668   0.495   5.023
    1PA     H4S 1648   5.612   0.330   4.990
    1PA     C13 1649   5.672   0.367   5.200
    1PA     H3R 1650   5.722   0.273   5.227
    1PA     H3S 1651   5.737   0.436   5.255
    1PA     C12 1652   5.529   0.365   5.256
    1PA     H2R 1653   5.484   0.464   5.250
    1PA     H2S 1654   5.472   0.290   5.200
    2PC     C11 1655   5.536   0.332   5.403
    2PC     O12 1656   5.567   0.409   5.491
    2PC     O11 1657   5.481   0.213   5.433
    2PC      C1 1658   5.464   0.170   5.569
    2PC      HR 1659   5.512   0.239   5.639
    2PC      HS 1660   5.356   0.169   5.589
    2PC      C2 1661   5.539   0.038   5.586
    2PC      HX 1662   5.510  -0.037   5.512
    2PC      C3 1663   5.545  -0.009   5.732
    2PC      HA 1664   5.445   0.003   5.775
    2PC      HB 1665   5.572  -0.114   5.741
    2PC     O31 1666   5.628   0.080   5.809
    2PC     P31 1667   5.610   0.071   5.967
    2PC     O32 1668   5.645   0.225   5.996
    2PC     C31 1669   5.782   0.261   5.969
    2PC     H1A 1670   5.832   0.228   6.060
    2PC     H1B 1671   5.822   0.199   5.889
    2PC     C32 1672   5.811   0.410   5.947
    2PC     H2A 1673   5.785   0.465   6.038
    2PC     H2B 1674   5.918   0.423   5.933
    2PC     N31 1675   5.748   0.479   5.829
    2PC     C33 1676   5.794   0.621   5.821
    2PC     H3A 1677   5.901   0.618   5.798
    2PC     H3B 1678   5.727   0.669   5.750
    2PC     H3C 1679   5.777   0.674   5.915
    2PC     C34 1680   5.789   0.412   5.702
    2PC     H4A 1681   5.887   0.367   5.719
    2PC     H4B 1682   5.712   0.336   5.684
    2PC     H4C 1683   5.786   0.488   5.623
    2PC     C35 1684   5.598   0.474   5.841
    2PC     H5A 1685   5.542   0.527   5.764
    2PC     H5B 1686   5.559   0.503   5.939
    2PC     H5C 1687   5.562   0.372   5.830
    2PC     O33 1688   5.466   0.065   6.001
    2PC     O34 1689   5.698  -0.026   6.036
    2PC     O21 1690   5.671   0.076   5.541
    2PC     C21 1691   5.755  -0.019   5.498
    2PC     O22 1692   5.718  -0.134   5.485
    3OL     C12 1693   5.893   0.023   5.455
    3OL     H2R 1694   5.897   0.058   5.351
    3OL     H2S 1695   5.957  -0.062   5.478
    3OL     C13 1696   5.945   0.155   5.516
    3OL     H3R 1697   5.955   0.140   5.624
    3OL     H3S 1698   5.871   0.233   5.497
    3OL     C14 1699   6.086   0.189   5.466
    3OL     H4R 1700   6.148   0.102   5.445
    3OL     H4S 1701   6.136   0.249   5.542
    3OL     C15 1702   6.087   0.265   5.333
    3OL     H5R 1703   6.048   0.366   5.350
    3OL     H5S 1704   6.021   0.217   5.260
    3OL     C16 1705   6.227   0.271   5.271
    3OL     H6R 1706   6.276   0.174   5.264
    3OL     H6S 1707   6.295   0.327   5.336
    3OL     C17 1708   6.231   0.341   5.134
    3OL     H7R 1709   6.168   0.430   5.140
    3OL     H7S 1710   6.179   0.281   5.059
    3OL     C18 1711   6.370   0.370   5.076
    3OL     H8R 1712   6.430   0.433   5.143
    3OL     H8S 1713   6.355   0.414   4.978
    3OL     C19 1714   6.447   0.240   5.064
    3OL     H9R 1715   6.430   0.168   5.143
    3OL    C110 1716   6.530   0.218   4.963
    3OL    H10R 1717   6.594   0.131   4.965
    3OL    C111 1718   6.564   0.309   4.847
    3OL    H11R 1719   6.607   0.400   4.889
    3OL    H11S 1720   6.475   0.349   4.798
    3OL    C112 1721   6.664   0.241   4.753
    3OL    H12R 1722   6.625   0.147   4.713
    3OL    H12S 1723   6.755   0.209   4.805
    3OL    C113 1724   6.708   0.337   4.642
    3OL    H13R 1725   6.756   0.420   4.694
    3OL    H13S 1726   6.626   0.370   4.578
    3OL    C114 1727   6.795   0.258   4.542
    3OL    H14R 1728   6.743   0.176   4.492
    3OL    H14S 1729   6.881   0.228   4.603
    3OL    C115 1730   6.853   0.352   4.436
    3OL    H15R 1731   6.939   0.307   4.386
    3OL    H15S 1732   6.900   0.433   4.494
    3OL    C116 1733   6.755   0.414   4.336
    3OL    H16R 1734   6.690   0.490   4.379
    3OL    H16S 1735   6.693   0.335   4.292
    3OL    C117 1736   6.817   0.490   4.218
    3OL    H17R 1737   6.837   0.595   4.237
    3OL    H17S 1738   6.728   0.509   4.158
    3OL    C118 1739   6.925   0.411   4.142
    3OL    H18R 1740   7.021   0.411   4.194
    3OL    H18S 1741   6.931   0.449   4.041
    3OL    H18T 1742   6.886   0.311   4.121
    1PA    C116 1743   1.272   7.197   4.638
    1PA    H16R 1744   1.324   7.222   4.731
    1PA    H16S 1745   1.165   7.191   4.663
    1PA    H16T 1746   1.307   7.272   4.568
    1PA    C115 1747   1.325   7.059   4.596
    1PA    H15R 1748   1.317   7.062   4.487
    1PA    H15S 1749   1.427   7.035   4.627
    1PA    C114 1750   1.228   6.949   4.641
    1PA    H14R 1751   1.127   6.966   4.604
    1PA    H14S 1752   1.270   6.856   4.602
    1PA    C113 1753   1.222   6.930   4.793
    1PA    H13R 1754   1.325   6.903   4.816
    1PA    H13S 1755   1.193   7.021   4.846
    1PA    C112 1756   1.127   6.814   4.824
    1PA    H12R 1757   1.035   6.821   4.765
    1PA    H12S 1758   1.170   6.714   4.813
    1PA    C111 1759   1.090   6.814   4.973
    1PA    H11R 1760   1.185   6.808   5.026
    1PA    H11S 1761   1.049   6.909   5.008
    1PA    C110 1762   0.989   6.706   5.014
    1PA    H10R 1763   0.888   6.703   4.971
    1PA    H10S 1764   1.033   6.608   4.993
    1PA     C19 1765   0.964   6.711   5.165
    1PA     H9R 1766   1.055   6.683   5.220
    1PA     H9S 1767   0.959   6.817   5.188
    1PA     C18 1768   0.844   6.630   5.215
    1PA     H8R 1769   0.757   6.684   5.177
    1PA     H8S 1770   0.847   6.531   5.169
    1PA     C17 1771   0.831   6.617   5.368
    1PA     H7R 1772   0.869   6.710   5.410
    1PA     H7S 1773   0.726   6.607   5.397
    1PA     C16 1774   0.911   6.493   5.409
    1PA     H6R 1775   0.870   6.406   5.357
    1PA     H6S 1776   1.016   6.495   5.379
    1PA     C15 1777   0.902   6.458   5.558
    1PA     H5R 1778   0.943   6.543   5.613
    1PA     H5S 1779   0.798   6.437   5.585
    1PA     C14 1780   0.989   6.336   5.593
    1PA     H4R 1781   0.950   6.250   5.538
    1PA     H4S 1782   1.087   6.361   5.552
    1PA     C13 1783   1.008   6.325   5.745
    1PA     H3R 1784   1.074   6.241   5.767
    1PA     H3S 1785   1.059   6.410   5.791
    1PA     C12 1786   0.879   6.293   5.822
    1PA     H2R 1787   0.813   6.380   5.818
    1PA     H2S 1788   0.828   6.209   5.774
    2PC     C11 1789   0.900   6.249   5.964
    2PC     O12 1790   1.005   6.220   6.019
    2PC     O11 1791   0.782   6.252   6.028
    2PC      C1 1792   0.782   6.192   6.159
    2PC      HR 1793   0.832   6.095   6.161
    2PC      HS 1794   0.845   6.252   6.225
    2PC      C2 1795   0.636   6.189   6.208
    2PC      HX 1796   0.598   6.292   6.206
    2PC      C3 1797   0.618   6.150   6.355
    2PC      HA 1798   0.673   6.216   6.423
    2PC      HB 1799   0.513   6.136   6.382
    2PC     O31 1800   0.673   6.017   6.366
    2PC     P31 1801   0.669   5.937   6.505
    2PC     O32 1802   0.522   5.971   6.558
    2PC     C31 1803   0.450   5.883   6.646
    2PC     H1A 1804   0.467   5.778   6.618
    2PC     H1B 1805   0.486   5.899   6.748
    2PC     C32 1806   0.301   5.919   6.638
    2PC     H2A 1807   0.256   5.879   6.729
    2PC     H2B 1808   0.298   6.028   6.646
    2PC     N31 1809   0.214   5.880   6.522
    2PC     C33 1810   0.090   5.963   6.517
    2PC     H3A 1811   0.063   5.981   6.621
    2PC     H3B 1812   0.108   6.059   6.468
    2PC     H3C 1813   0.011   5.911   6.463
    2PC     C34 1814   0.292   5.889   6.394
    2PC     H4A 1815   0.367   5.810   6.386
    2PC     H4B 1816   0.223   5.871   6.312
    2PC     H4C 1817   0.339   5.987   6.386
    2PC     C35 1818   0.173   5.738   6.544
    2PC     H5A 1819   0.109   5.730   6.632
    2PC     H5B 1820   0.254   5.665   6.544
    2PC     H5C 1821   0.123   5.713   6.451
    2PC     O33 1822   0.692   5.793   6.475
    2PC     O34 1823   0.770   5.980   6.604
    2PC     O21 1824   0.555   6.104   6.125
    2PC     C21 1825   0.497   6.154   6.015
    2PC     O22 1826   0.489   6.275   6.003
    3OL     C12 1827   0.450   6.056   5.910
    3OL     H2R 1828   0.346   6.078   5.885
    3OL     H2S 1829   0.451   5.956   5.955
    3OL     C13 1830   0.533   6.052   5.781
    3OL     H3R 1831   0.636   6.018   5.795
    3OL     H3S 1832   0.521   6.148   5.731
    3OL     C14 1833   0.477   5.944   5.687
    3OL     H4R 1834   0.375   5.974   5.661
    3OL     H4S 1835   0.458   5.853   5.744
    3OL     C15 1836   0.562   5.897   5.568
    3OL     H5R 1837   0.525   5.804   5.523
    3OL     H5S 1838   0.660   5.872   5.610
    3OL     C16 1839   0.571   6.018   5.474
    3OL     H6R 1840   0.619   6.103   5.522
    3OL     H6S 1841   0.466   6.042   5.454
    3OL     C17 1842   0.648   6.000   5.343
    3OL     H7R 1843   0.602   5.924   5.279
    3OL     H7S 1844   0.747   5.961   5.366
    3OL     C18 1845   0.659   6.133   5.265
    3OL     H8R 1846   0.724   6.201   5.320
    3OL     H8S 1847   0.568   6.191   5.274
    3OL     C19 1848   0.714   6.111   5.126
    3OL     H9R 1849   0.774   6.021   5.117
    3OL    C110 1850   0.703   6.195   5.024
    3OL    H10R 1851   0.748   6.167   4.930
    3OL    C111 1852   0.632   6.328   5.033
    3OL    H11R 1853   0.697   6.397   5.086
    3OL    H11S 1854   0.537   6.314   5.085
    3OL    C112 1855   0.609   6.397   4.898
    3OL    H12R 1856   0.552   6.488   4.919
    3OL    H12S 1857   0.547   6.325   4.843
    3OL    C113 1858   0.733   6.434   4.815
    3OL    H13R 1859   0.786   6.341   4.791
    3OL    H13S 1860   0.805   6.493   4.871
    3OL    C114 1861   0.691   6.507   4.687
    3OL    H14R 1862   0.636   6.599   4.710
    3OL    H14S 1863   0.620   6.443   4.635
    3OL    C115 1864   0.815   6.536   4.601
    3OL    H15R 1865   0.847   6.439   4.562
    3OL    H15S 1866   0.892   6.587   4.658
    3OL    C116 1867   0.773   6.623   4.482
    3OL    H16R 1868   0.740   6.723   4.511
    3OL    H16S 1869   0.695   6.570   4.428
    3OL    C117 1870   0.896   6.648   4.393
    3OL    H17R 1871   0.917   6.544   4.366
    3OL    H17S 1872   0.975   6.693   4.454
    3OL    C118 1873   0.872   6.724   4.262
    3OL    H18R 1874   0.964   6.722   4.203
    3OL    H18S 1875   0.846   6.829   4.277
    3OL    H18T 1876   0.791   6.675   4.208
    1PA    C116 1877   3.504   3.301   5.305
    1PA    H16R 1878   3.577   3.372   5.264
    1PA    H16S 1879   3.560   3.222   5.355
    1PA    H16T 1880   3.434   3.354   5.370
    1PA    C115 1881   3.431   3.246   5.181
    1PA    H15R 1882   3.501   3.185   5.124
    1PA    H15S 1883   3.352   3.172   5.195
    1PA    C114 1884   3.381   3.361   5.093
    1PA    H14R 1885   3.448   3.446   5.105
    1PA    H14S 1886   3.398   3.339   4.987
    1PA    C113 1887   3.233   3.397   5.113
    1PA    H13R 1888   3.176   3.304   5.109
    1PA    H13S 1889   3.218   3.434   5.215
    1PA    C112 1890   3.182   3.506   5.017
    1PA    H12R 1891   3.229   3.603   5.033
    1PA    H12S 1892   3.185   3.477   4.912
    1PA    C111 1893   3.033   3.529   5.043
    1PA    H11R 1894   3.019   3.621   4.986
    1PA    H11S 1895   2.987   3.440   4.998
    1PA    C110 1896   2.987   3.553   5.188
    1PA    H10R 1897   2.988   3.456   5.237
    1PA    H10S 1898   3.061   3.620   5.233
    1PA     C19 1899   2.845   3.611   5.197
    1PA     H9R 1900   2.854   3.720   5.190
    1PA     H9S 1901   2.795   3.586   5.103
    1PA     C18 1902   2.782   3.564   5.328
    1PA     H8R 1903   2.676   3.580   5.309
    1PA     H8S 1904   2.785   3.456   5.343
    1PA     C17 1905   2.842   3.644   5.444
    1PA     H7R 1906   2.946   3.620   5.469
    1PA     H7S 1907   2.865   3.748   5.421
    1PA     C16 1908   2.752   3.623   5.566
    1PA     H6R 1909   2.647   3.644   5.541
    1PA     H6S 1910   2.755   3.516   5.589
    1PA     C15 1911   2.802   3.703   5.687
    1PA     H5R 1912   2.909   3.686   5.701
    1PA     H5S 1913   2.784   3.807   5.659
    1PA     C14 1914   2.713   3.681   5.811
    1PA     H4R 1915   2.729   3.758   5.886
    1PA     H4S 1916   2.607   3.681   5.784
    1PA     C13 1917   2.750   3.548   5.879
    1PA     H3R 1918   2.711   3.467   5.817
    1PA     H3S 1919   2.859   3.543   5.888
    1PA     C12 1920   2.689   3.536   6.019
    1PA     H2R 1921   2.716   3.628   6.072
    1PA     H2S 1922   2.581   3.531   6.012
    2PC     C11 1923   2.745   3.429   6.109
    2PC     O12 1924   2.717   3.418   6.226
    2PC     O11 1925   2.823   3.342   6.041
    2PC      C1 1926   2.865   3.216   6.094
    2PC      HR 1927   2.952   3.181   6.038
    2PC      HS 1928   2.892   3.228   6.200
    2PC      C2 1929   2.763   3.107   6.057
    2PC      HX 1930   2.666   3.146   6.090
    2PC      C3 1931   2.803   2.974   6.120
    2PC      HA 1932   2.793   2.993   6.228
    2PC      HB 1933   2.743   2.892   6.079
    2PC     O31 1934   2.940   2.947   6.087
    2PC     P31 1935   3.008   2.825   6.166
    2PC     O32 1936   3.080   2.916   6.277
    2PC     C31 1937   3.169   3.020   6.234
    2PC     H1A 1938   3.255   2.975   6.184
    2PC     H1B 1939   3.120   3.083   6.160
    2PC     C32 1940   3.209   3.102   6.358
    2PC     H2A 1941   3.244   3.194   6.310
    2PC     H2B 1942   3.127   3.129   6.424
    2PC     N31 1943   3.316   3.048   6.448
    2PC     C33 1944   3.250   2.934   6.520
    2PC     H3A 1945   3.308   2.936   6.613
    2PC     H3B 1946   3.146   2.966   6.530
    2PC     H3C 1947   3.266   2.847   6.457
    2PC     C34 1948   3.445   3.002   6.388
    2PC     H4A 1949   3.430   2.931   6.307
    2PC     H4B 1950   3.487   3.098   6.355
    2PC     H4C 1951   3.506   2.951   6.462
    2PC     C35 1952   3.344   3.153   6.551
    2PC     H5A 1953   3.409   3.233   6.515
    2PC     H5B 1954   3.405   3.103   6.626
    2PC     H5C 1955   3.252   3.192   6.594
    2PC     O33 1956   2.892   2.744   6.210
    2PC     O34 1957   3.084   2.735   6.076
    2PC     O21 1958   2.762   3.092   5.913
    2PC     C21 1959   2.683   3.179   5.849
    2PC     O22 1960   2.598   3.247   5.905
    3OL     C12 1961   2.707   3.168   5.701
    3OL     H2R 1962   2.812   3.145   5.686
    3OL     H2S 1963   2.680   3.266   5.660
    3OL     C13 1964   2.610   3.065   5.641
    3OL     H3R 1965   2.509   3.086   5.678
    3OL     H3S 1966   2.636   2.961   5.661
    3OL     C14 1967   2.608   3.088   5.489
    3OL     H4R 1968   2.708   3.071   5.450
    3OL     H4S 1969   2.566   3.186   5.464
    3OL     C15 1970   2.523   2.985   5.413
    3OL     H5R 1971   2.417   2.994   5.437
    3OL     H5S 1972   2.560   2.887   5.443
    3OL     C16 1973   2.545   2.996   5.262
    3OL     H6R 1974   2.584   3.096   5.241
    3OL     H6S 1975   2.443   2.986   5.225
    3OL     C17 1976   2.646   2.891   5.215
    3OL     H7R 1977   2.739   2.892   5.273
    3OL     H7S 1978   2.681   2.918   5.116
    3OL     C18 1979   2.603   2.744   5.200
    3OL     H8R 1980   2.513   2.740   5.138
    3OL     H8S 1981   2.570   2.702   5.296
    3OL     C19 1982   2.713   2.653   5.151
    3OL     H9R 1983   2.796   2.625   5.214
    3OL    C110 1984   2.729   2.604   5.029
    3OL    H10R 1985   2.817   2.542   5.014
    3OL    C111 1986   2.647   2.639   4.907
    3OL    H11R 1987   2.715   2.694   4.842
    3OL    H11S 1988   2.560   2.702   4.926
    3OL    C112 1989   2.597   2.515   4.832
    3OL    H12R 1990   2.678   2.445   4.810
    3OL    H12S 1991   2.552   2.548   4.738
    3OL    C113 1992   2.488   2.441   4.911
    3OL    H13R 1993   2.410   2.517   4.920
    3OL    H13S 1994   2.522   2.414   5.012
    3OL    C114 1995   2.429   2.316   4.845
    3OL    H14R 1996   2.394   2.348   4.747
    3OL    H14S 1997   2.347   2.278   4.907
    3OL    C115 1998   2.544   2.216   4.832
    3OL    H15R 1999   2.606   2.206   4.922
    3OL    H15S 2000   2.617   2.237   4.753
    3OL    C116 2001   2.485   2.077   4.804
    3OL    H16R 2002   2.467   2.052   4.700
    3OL    H16S 2003   2.393   2.069   4.863
    3OL    C117 2004   2.584   1.967   4.847
    3OL    H17R 2005   2.548   1.866   4.825
    3OL    H17S 2006   2.590   1.969   4.956
    3OL    C118 2007   2.717   1.996   4.777
    3OL    H18R 2008   2.767   2.079   4.828
    3OL    H18S 2009   2.703   2.024   4.673
    3OL    H18T 2010   2.785   1.911   4.783
    1PA    C116 2011   3.623   5.943   4.279
    1PA    H16R 2012   3.530   5.891   4.256
    1PA    H16S 2013   3.684   5.876   4.341
    1PA    H16T 2014   3.678   5.959   4.185
    1PA    C115 2015   3.608   6.074   4.357
    1PA    H15R 2016   3.700   6.126   4.382
    1PA    H15S 2017   3.542   6.129   4.290
    1PA    C114 2018   3.523   6.059   4.485
    1PA    H14R 2019   3.436   5.996   4.465
    1PA    H14S 2020   3.582   6.014   4.565
    1PA    C113 2021   3.489   6.193   4.550
    1PA    H13R 2022   3.574   6.252   4.583
    1PA    H13S 2023   3.439   6.266   4.485
    1PA    C112 2024   3.383   6.177   4.660
    1PA    H12R 2025   3.411   6.088   4.717
    1PA    H12S 2026   3.380   6.256   4.735
    1PA    C111 2027   3.240   6.158   4.608
    1PA    H11R 2028   3.218   6.237   4.536
    1PA    H11S 2029   3.234   6.061   4.558
    1PA    C110 2030   3.134   6.164   4.718
    1PA    H10R 2031   3.106   6.267   4.745
    1PA    H10S 2032   3.043   6.114   4.683
    1PA     C19 2033   3.162   6.090   4.850
    1PA     H9R 2034   3.188   5.987   4.824
    1PA     H9S 2035   3.242   6.147   4.897
    1PA     C18 2036   3.036   6.083   4.937
    1PA     H8R 2037   3.021   6.184   4.977
    1PA     H8S 2038   2.950   6.059   4.876
    1PA     C17 2039   3.037   5.990   5.059
    1PA     H7R 2040   3.059   5.886   5.035
    1PA     H7S 2041   3.117   6.015   5.129
    1PA     C16 2042   2.905   5.986   5.137
    1PA     H6R 2043   2.887   6.086   5.179
    1PA     H6S 2044   2.820   5.959   5.074
    1PA     C15 2045   2.917   5.899   5.263
    1PA     H5R 2046   2.943   5.805   5.214
    1PA     H5S 2047   3.001   5.924   5.327
    1PA     C14 2048   2.786   5.885   5.343
    1PA     H4R 2049   2.707   5.852   5.276
    1PA     H4S 2050   2.803   5.802   5.412
    1PA     C13 2051   2.747   6.006   5.429
    1PA     H3R 2052   2.817   6.030   5.509
    1PA     H3S 2053   2.751   6.090   5.359
    1PA     C12 2054   2.601   5.992   5.474
    1PA     H2R 2055   2.570   6.096   5.477
    1PA     H2S 2056   2.540   5.936   5.404
    2PC     C11 2057   2.589   5.939   5.615
    2PC     O12 2058   2.517   5.993   5.697
    2PC     O11 2059   2.654   5.822   5.630
    2PC      C1 2060   2.618   5.742   5.743
    2PC      HR 2061   2.706   5.682   5.767
    2PC      HS 2062   2.597   5.812   5.824
    2PC      C2 2063   2.498   5.652   5.708
    2PC      HX 2064   2.440   5.710   5.638
    2PC      C3 2065   2.422   5.598   5.830
    2PC      HA 2066   2.477   5.523   5.888
    2PC      HB 2067   2.398   5.674   5.904
    2PC     O31 2068   2.298   5.544   5.780
    2PC     P31 2069   2.217   5.455   5.886
    2PC     O32 2070   2.068   5.463   5.828
    2PC     C31 2071   2.016   5.596   5.808
    2PC     H1A 2072   2.016   5.651   5.902
    2PC     H1B 2073   2.080   5.644   5.734
    2PC     C32 2074   1.874   5.590   5.748
    2PC     H2A 2075   1.864   5.683   5.692
    2PC     H2B 2076   1.861   5.503   5.683
    2PC     N31 2077   1.761   5.603   5.846
    2PC     C33 2078   1.768   5.729   5.927
    2PC     H3A 2079   1.858   5.715   5.987
    2PC     H3B 2080   1.788   5.816   5.863
    2PC     H3C 2081   1.679   5.749   5.987
    2PC     C34 2082   1.631   5.580   5.775
    2PC     H4A 2083   1.545   5.583   5.842
    2PC     H4B 2084   1.617   5.654   5.696
    2PC     H4C 2085   1.644   5.483   5.727
    2PC     C35 2086   1.753   5.480   5.931
    2PC     H5A 2087   1.666   5.492   5.997
    2PC     H5B 2088   1.845   5.472   5.990
    2PC     H5C 2089   1.747   5.386   5.877
    2PC     O33 2090   2.275   5.320   5.870
    2PC     O34 2091   2.223   5.493   6.029
    2PC     O21 2092   2.553   5.539   5.637
    2PC     C21 2093   2.490   5.490   5.530
    2PC     O22 2094   2.397   5.544   5.474
    3OL     C12 2095   2.545   5.352   5.503
    3OL     H2R 2096   2.535   5.298   5.597
    3OL     H2S 2097   2.652   5.368   5.484
    3OL     C13 2098   2.467   5.280   5.392
    3OL     H3R 2099   2.362   5.295   5.414
    3OL     H3S 2100   2.489   5.173   5.392
    3OL     C14 2101   2.504   5.342   5.256
    3OL     H4R 2102   2.609   5.338   5.228
    3OL     H4S 2103   2.480   5.449   5.251
    3OL     C15 2104   2.426   5.272   5.145
    3OL     H5R 2105   2.318   5.276   5.162
    3OL     H5S 2106   2.460   5.169   5.137
    3OL     C16 2107   2.452   5.337   5.008
    3OL     H6R 2108   2.561   5.339   4.993
    3OL     H6S 2109   2.424   5.443   5.009
    3OL     C17 2110   2.386   5.264   4.891
    3OL     H7R 2111   2.279   5.274   4.912
    3OL     H7S 2112   2.409   5.158   4.881
    3OL     C18 2113   2.417   5.324   4.753
    3OL     H8R 2114   2.520   5.308   4.720
    3OL     H8S 2115   2.385   5.428   4.755
    3OL     C19 2116   2.330   5.247   4.657
    3OL     H9R 2117   2.323   5.140   4.669
    3OL    C110 2118   2.259   5.308   4.563
    3OL    H10R 2119   2.210   5.244   4.490
    3OL    C111 2120   2.271   5.450   4.512
    3OL    H11R 2121   2.335   5.521   4.565
    3OL    H11S 2122   2.171   5.492   4.507
    3OL    C112 2123   2.307   5.451   4.363
    3OL    H12R 2124   2.269   5.367   4.304
    3OL    H12S 2125   2.414   5.432   4.364
    3OL    C113 2126   2.272   5.585   4.296
    3OL    H13R 2127   2.297   5.660   4.371
    3OL    H13S 2128   2.165   5.575   4.281
    3OL    C114 2129   2.345   5.612   4.163
    3OL    H14R 2130   2.314   5.538   4.089
    3OL    H14S 2131   2.453   5.611   4.177
    3OL    C115 2132   2.305   5.750   4.110
    3OL    H15R 2133   2.354   5.827   4.170
    3OL    H15S 2134   2.198   5.773   4.103
    3OL    C116 2135   2.373   5.769   3.974
    3OL    H16R 2136   2.342   5.688   3.907
    3OL    H16S 2137   2.480   5.757   3.991
    3OL    C117 2138   2.352   5.907   3.910
    3OL    H17R 2139   2.434   5.952   3.853
    3OL    H17S 2140   2.340   5.973   3.996
    3OL    C118 2141   2.231   5.907   3.815
    3OL    H18R 2142   2.139   5.909   3.874
    3OL    H18S 2143   2.225   5.823   3.746
    3OL    H18T 2144   2.252   5.999   3.760
    1PA    C116 2145   3.833   3.798   4.158
    1PA    H16R 2146   3.816   3.731   4.074
    1PA    H16S 2147   3.924   3.858   4.152
    1PA    H16T 2148   3.743   3.860   4.163
    1PA    C115 2149   3.831   3.709   4.283
    1PA    H15R 2150   3.926   3.656   4.291
    1PA    H15S 2151   3.837   3.763   4.378
    1PA    C114 2152   3.710   3.614   4.283
    1PA    H14R 2153   3.627   3.649   4.221
    1PA    H14S 2154   3.737   3.524   4.228
    1PA    C113 2155   3.658   3.590   4.425
    1PA    H13R 2156   3.583   3.511   4.415
    1PA    H13S 2157   3.735   3.551   4.492
    1PA    C112 2158   3.587   3.714   4.483
    1PA    H12R 2159   3.660   3.787   4.518
    1PA    H12S 2160   3.535   3.763   4.400
    1PA    C111 2161   3.484   3.683   4.592
    1PA    H11R 2162   3.428   3.775   4.607
    1PA    H11S 2163   3.416   3.604   4.558
    1PA    C110 2164   3.543   3.639   4.727
    1PA    H10R 2165   3.469   3.590   4.790
    1PA    H10S 2166   3.620   3.563   4.711
    1PA     C19 2167   3.607   3.757   4.801
    1PA     H9R 2168   3.674   3.806   4.730
    1PA     H9S 2169   3.526   3.828   4.817
    1PA     C18 2170   3.680   3.705   4.925
    1PA     H8R 2171   3.606   3.652   4.987
    1PA     H8S 2172   3.753   3.637   4.880
    1PA     C17 2173   3.743   3.826   4.995
    1PA     H7R 2174   3.823   3.869   4.935
    1PA     H7S 2175   3.660   3.891   5.020
    1PA     C16 2176   3.795   3.786   5.134
    1PA     H6R 2177   3.710   3.729   5.172
    1PA     H6S 2178   3.879   3.717   5.130
    1PA     C15 2179   3.847   3.898   5.226
    1PA     H5R 2180   3.908   3.857   5.307
    1PA     H5S 2181   3.907   3.963   5.162
    1PA     C14 2182   3.727   3.966   5.294
    1PA     H4R 2183   3.673   4.011   5.211
    1PA     H4S 2184   3.669   3.886   5.341
    1PA     C13 2185   3.779   4.063   5.401
    1PA     H3R 2186   3.839   4.003   5.470
    1PA     H3S 2187   3.854   4.133   5.363
    1PA     C12 2188   3.666   4.132   5.477
    1PA     H2R 2189   3.619   4.203   5.408
    1PA     H2S 2190   3.589   4.067   5.519
    2PC     C11 2191   3.722   4.215   5.590
    2PC     O12 2192   3.694   4.333   5.597
    2PC     O11 2193   3.803   4.143   5.669
    2PC      C1 2194   3.882   4.215   5.765
    2PC      HR 2195   3.940   4.299   5.724
    2PC      HS 2196   3.811   4.240   5.844
    2PC      C2 2197   3.992   4.126   5.824
    2PC      HX 2198   3.946   4.044   5.879
    2PC      C3 2199   4.084   4.206   5.918
    2PC      HA 2200   4.154   4.264   5.856
    2PC      HB 2201   4.035   4.278   5.984
    2PC     O31 2202   4.160   4.113   5.997
    2PC     P31 2203   4.256   4.174   6.110
    2PC     O32 2204   4.169   4.249   6.222
    2PC     C31 2205   4.225   4.354   6.303
    2PC     H1A 2206   4.305   4.314   6.365
    2PC     H1B 2207   4.259   4.438   6.241
    2PC     C32 2208   4.115   4.419   6.387
    2PC     H2A 2209   4.154   4.511   6.430
    2PC     H2B 2210   4.036   4.456   6.321
    2PC     N31 2211   4.044   4.343   6.495
    2PC     C33 2212   4.145   4.285   6.590
    2PC     H3A 2213   4.214   4.221   6.534
    2PC     H3B 2214   4.202   4.365   6.638
    2PC     H3C 2215   4.096   4.230   6.670
    2PC     C34 2216   3.966   4.442   6.577
    2PC     H4A 2217   3.870   4.464   6.530
    2PC     H4B 2218   3.948   4.400   6.676
    2PC     H4C 2219   4.022   4.534   6.591
    2PC     C35 2220   3.960   4.231   6.442
    2PC     H5A 2221   3.899   4.199   6.527
    2PC     H5B 2222   4.021   4.149   6.404
    2PC     H5C 2223   3.891   4.276   6.370
    2PC     O33 2224   4.340   4.070   6.173
    2PC     O34 2225   4.364   4.260   6.057
    2PC     O21 2226   4.072   4.085   5.712
    2PC     C21 2227   4.122   3.960   5.707
    2PC     O22 2228   4.109   3.872   5.789
    3OL     C12 2229   4.195   3.946   5.576
    3OL     H2R 2230   4.296   3.969   5.610
    3OL     H2S 2231   4.164   4.028   5.511
    3OL     C13 2232   4.180   3.808   5.512
    3OL     H3R 2233   4.073   3.790   5.500
    3OL     H3S 2234   4.222   3.720   5.562
    3OL     C14 2235   4.245   3.801   5.373
    3OL     H4R 2236   4.217   3.707   5.326
    3OL     H4S 2237   4.353   3.798   5.388
    3OL     C15 2238   4.216   3.914   5.273
    3OL     H5R 2239   4.274   4.000   5.308
    3OL     H5S 2240   4.111   3.937   5.290
    3OL     C16 2241   4.260   3.878   5.130
    3OL     H6R 2242   4.215   3.781   5.111
    3OL     H6S 2243   4.369   3.869   5.126
    3OL     C17 2244   4.214   3.983   5.028
    3OL     H7R 2245   4.244   4.085   5.051
    3OL     H7S 2246   4.106   3.993   5.015
    3OL     C18 2247   4.251   3.938   4.886
    3OL     H8R 2248   4.360   3.926   4.877
    3OL     H8S 2249   4.231   4.017   4.813
    3OL     C19 2250   4.186   3.808   4.846
    3OL     H9R 2251   4.215   3.721   4.904
    3OL    C110 2252   4.107   3.791   4.741
    3OL    H10R 2253   4.064   3.691   4.732
    3OL    C111 2254   4.043   3.901   4.661
    3OL    H11R 2255   4.044   3.996   4.716
    3OL    H11S 2256   3.940   3.865   4.654
    3OL    C112 2257   4.114   3.908   4.525
    3OL    H12R 2258   4.125   3.806   4.488
    3OL    H12S 2259   4.216   3.948   4.528
    3OL    C113 2260   4.048   3.993   4.416
    3OL    H13R 2261   3.949   3.950   4.400
    3OL    H13S 2262   4.115   3.991   4.330
    3OL    C114 2263   4.039   4.140   4.460
    3OL    H14R 2264   4.140   4.181   4.470
    3OL    H14S 2265   3.994   4.153   4.559
    3OL    C115 2266   3.958   4.223   4.360
    3OL    H15R 2267   3.937   4.317   4.412
    3OL    H15S 2268   3.863   4.177   4.332
    3OL    C116 2269   4.025   4.261   4.227
    3OL    H16R 2270   4.045   4.174   4.164
    3OL    H16S 2271   4.116   4.312   4.259
    3OL    C117 2272   3.945   4.372   4.157
    3OL    H17R 2273   3.925   4.452   4.229
    3OL    H17S 2274   3.844   4.335   4.137
    3OL    C118 2275   4.015   4.444   4.042
    3OL    H18R 2276   3.961   4.525   3.992
    3OL    H18S 2277   4.047   4.374   3.964
    3OL    H18T 2278   4.104   4.496   4.078
    1PA    C116 2279   5.204   4.302   4.006
    1PA    H16R 2280   5.196   4.355   4.101
    1PA    H16S 2281   5.143   4.211   4.010
    1PA    H16T 2282   5.164   4.365   3.927
    1PA    C115 2283   5.348   4.250   3.987
    1PA    H15R 2284   5.367   4.163   4.049
    1PA    H15S 2285   5.356   4.211   3.885
    1PA    C114 2286   5.449   4.361   4.019
    1PA    H14R 2287   5.420   4.458   3.979
    1PA    H14S 2288   5.444   4.376   4.127
    1PA    C113 2289   5.589   4.320   3.970
    1PA    H13R 2290   5.617   4.222   4.010
    1PA    H13S 2291   5.588   4.308   3.861
    1PA    C112 2292   5.700   4.414   4.019
    1PA    H12R 2293   5.796   4.375   3.985
    1PA    H12S 2294   5.696   4.514   3.975
    1PA    C111 2295   5.706   4.434   4.171
    1PA    H11R 2296   5.627   4.505   4.196
    1PA    H11S 2297   5.672   4.342   4.219
    1PA    C110 2298   5.828   4.501   4.237
    1PA    H10R 2299   5.918   4.439   4.239
    1PA    H10S 2300   5.856   4.586   4.174
    1PA     C19 2301   5.798   4.551   4.378
    1PA     H9R 2302   5.702   4.603   4.374
    1PA     H9S 2303   5.783   4.469   4.449
    1PA     C18 2304   5.907   4.632   4.451
    1PA     H8R 2305   5.998   4.573   4.442
    1PA     H8S 2306   5.914   4.728   4.399
    1PA     C17 2307   5.879   4.650   4.601
    1PA     H7R 2308   5.886   4.555   4.655
    1PA     H7S 2309   5.959   4.704   4.652
    1PA     C16 2310   5.744   4.717   4.632
    1PA     H6R 2311   5.756   4.821   4.600
    1PA     H6S 2312   5.663   4.682   4.569
    1PA     C15 2313   5.710   4.707   4.781
    1PA     H5R 2314   5.791   4.752   4.839
    1PA     H5S 2315   5.623   4.770   4.801
    1PA     C14 2316   5.673   4.563   4.820
    1PA     H4R 2317   5.606   4.513   4.750
    1PA     H4S 2318   5.759   4.497   4.817
    1PA     C13 2319   5.624   4.560   4.965
    1PA     H3R 2320   5.710   4.579   5.029
    1PA     H3S 2321   5.558   4.647   4.974
    1PA     C12 2322   5.553   4.427   4.995
    1PA     H2R 2323   5.466   4.408   4.931
    1PA     H2S 2324   5.617   4.341   4.971
    2PC     C11 2325   5.508   4.419   5.138
    2PC     O12 2326   5.497   4.512   5.215
    2PC     O11 2327   5.495   4.290   5.175
    2PC      C1 2328   5.461   4.269   5.313
    2PC      HR 2329   5.530   4.326   5.376
    2PC      HS 2330   5.359   4.307   5.330
    2PC      C2 2331   5.456   4.121   5.352
    2PC      HX 2332   5.369   4.075   5.305
    2PC      C3 2333   5.438   4.113   5.505
    2PC      HA 2334   5.375   4.193   5.544
    2PC      HB 2335   5.398   4.016   5.536
    2PC     O31 2336   5.561   4.147   5.571
    2PC     P31 2337   5.550   4.180   5.727
    2PC     O32 2338   5.495   4.329   5.708
    2PC     C31 2339   5.418   4.385   5.816
    2PC     H1A 2340   5.355   4.304   5.856
    2PC     H1B 2341   5.478   4.423   5.899
    2PC     C32 2342   5.335   4.502   5.761
    2PC     H2A 2343   5.297   4.472   5.663
    2PC     H2B 2344   5.251   4.527   5.826
    2PC     N31 2345   5.406   4.630   5.732
    2PC     C33 2346   5.522   4.617   5.637
    2PC     H3A 2347   5.487   4.571   5.544
    2PC     H3B 2348   5.560   4.717   5.613
    2PC     H3C 2349   5.605   4.558   5.676
    2PC     C34 2350   5.313   4.733   5.674
    2PC     H4A 2351   5.235   4.752   5.747
    2PC     H4B 2352   5.371   4.818   5.638
    2PC     H4C 2353   5.267   4.689   5.585
    2PC     C35 2354   5.458   4.693   5.857
    2PC     H5A 2355   5.536   4.627   5.894
    2PC     H5B 2356   5.381   4.696   5.935
    2PC     H5C 2357   5.492   4.793   5.830
    2PC     O33 2358   5.449   4.101   5.801
    2PC     O34 2359   5.686   4.175   5.787
    2PC     O21 2360   5.577   4.063   5.300
    2PC     C21 2361   5.578   3.931   5.274
    2PC     O22 2362   5.488   3.855   5.302
    3OL     C12 2363   5.699   3.896   5.191
    3OL     H2R 2364   5.750   3.814   5.242
    3OL     H2S 2365   5.776   3.974   5.199
    3OL     C13 2366   5.665   3.865   5.045
    3OL     H3R 2367   5.589   3.787   5.041
    3OL     H3S 2368   5.749   3.824   4.989
    3OL     C14 2369   5.623   3.997   4.977
    3OL     H4R 2370   5.713   4.059   4.979
    3OL     H4S 2371   5.545   4.052   5.029
    3OL     C15 2372   5.582   3.994   4.829
    3OL     H5R 2373   5.491   3.934   4.818
    3OL     H5S 2374   5.666   3.946   4.779
    3OL     C16 2375   5.582   4.139   4.780
    3OL     H6R 2376   5.679   4.188   4.789
    3OL     H6S 2377   5.515   4.198   4.844
    3OL     C17 2378   5.533   4.143   4.634
    3OL     H7R 2379   5.428   4.112   4.636
    3OL     H7S 2380   5.593   4.077   4.571
    3OL     C18 2381   5.529   4.287   4.581
    3OL     H8R 2382   5.631   4.326   4.579
    3OL     H8S 2383   5.483   4.354   4.654
    3OL     C19 2384   5.452   4.294   4.451
    3OL     H9R 2385   5.444   4.195   4.406
    3OL    C110 2386   5.400   4.404   4.399
    3OL    H10R 2387   5.337   4.410   4.310
    3OL    C111 2388   5.414   4.543   4.454
    3OL    H11R 2389   5.473   4.599   4.381
    3OL    H11S 2390   5.470   4.548   4.547
    3OL    C112 2391   5.272   4.601   4.467
    3OL    H12R 2392   5.201   4.566   4.392
    3OL    H12S 2393   5.282   4.709   4.455
    3OL    C113 2394   5.210   4.575   4.605
    3OL    H13R 2395   5.285   4.619   4.670
    3OL    H13S 2396   5.204   4.470   4.634
    3OL    C114 2397   5.074   4.647   4.598
    3OL    H14R 2398   5.032   4.623   4.500
    3OL    H14S 2399   5.093   4.754   4.602
    3OL    C115 2400   4.974   4.609   4.708
    3OL    H15R 2401   5.011   4.630   4.809
    3OL    H15S 2402   4.963   4.500   4.703
    3OL    C116 2403   4.845   4.689   4.689
    3OL    H16R 2404   4.805   4.681   4.587
    3OL    H16S 2405   4.866   4.796   4.701
    3OL    C117 2406   4.735   4.659   4.791
    3OL    H17R 2407   4.780   4.692   4.885
    3OL    H17S 2408   4.725   4.551   4.792
    3OL    C118 2409   4.606   4.738   4.765
    3OL    H18R 2410   4.522   4.692   4.817
    3OL    H18S 2411   4.573   4.737   4.661
    3OL    H18T 2412   4.611   4.840   4.801
    1PA    C116 2413   5.219   2.060   4.456
    1PA    H16R 2414   5.140   2.008   4.510
    1PA    H16S 2415   5.266   2.003   4.375
    1PA    H16T 2416   5.169   2.148   4.416
    1PA    C115 2417   5.330   2.108   4.551
    1PA    H15R 2418   5.405   2.032   4.573
    1PA    H15S 2419   5.389   2.185   4.502
    1PA    C114 2420   5.271   2.161   4.682
    1PA    H14R 2421   5.195   2.095   4.723
    1PA    H14S 2422   5.348   2.160   4.760
    1PA    C113 2423   5.205   2.298   4.670
    1PA    H13R 2424   5.259   2.355   4.594
    1PA    H13S 2425   5.101   2.294   4.634
    1PA    C112 2426   5.208   2.371   4.805
    1PA    H12R 2427   5.298   2.347   4.863
    1PA    H12S 2428   5.212   2.479   4.788
    1PA    C111 2429   5.081   2.344   4.887
    1PA    H11R 2430   4.992   2.342   4.824
    1PA    H11S 2431   5.086   2.250   4.942
    1PA    C110 2432   5.062   2.466   4.978
    1PA    H10R 2433   5.144   2.475   5.050
    1PA    H10S 2434   5.059   2.562   4.928
    1PA     C19 2435   4.939   2.437   5.065
    1PA     H9R 2436   4.848   2.418   5.008
    1PA     H9S 2437   4.968   2.343   5.112
    1PA     C18 2438   4.918   2.549   5.169
    1PA     H8R 2439   4.991   2.538   5.249
    1PA     H8S 2440   4.932   2.643   5.116
    1PA     C17 2441   4.775   2.541   5.224
    1PA     H7R 2442   4.701   2.547   5.144
    1PA     H7S 2443   4.766   2.445   5.276
    1PA     C16 2444   4.742   2.650   5.326
    1PA     H6R 2445   4.830   2.661   5.390
    1PA     H6S 2446   4.711   2.740   5.272
    1PA     C15 2447   4.632   2.592   5.417
    1PA     H5R 2448   4.621   2.484   5.403
    1PA     H5S 2449   4.661   2.611   5.521
    1PA     C14 2450   4.501   2.657   5.372
    1PA     H4R 2451   4.503   2.764   5.391
    1PA     H4S 2452   4.473   2.634   5.269
    1PA     C13 2453   4.388   2.608   5.465
    1PA     H3R 2454   4.370   2.501   5.460
    1PA     H3S 2455   4.415   2.633   5.568
    1PA     C12 2456   4.250   2.663   5.426
    1PA     H2R 2457   4.253   2.772   5.437
    1PA     H2S 2458   4.220   2.646   5.323
    2PC     C11 2459   4.138   2.608   5.510
    2PC     O12 2460   4.143   2.610   5.631
    2PC     O11 2461   4.039   2.561   5.432
    2PC      C1 2462   3.926   2.501   5.497
    2PC      HR 2463   3.865   2.444   5.426
    2PC      HS 2464   3.965   2.429   5.570
    2PC      C2 2465   3.831   2.606   5.555
    2PC      HX 2466   3.890   2.674   5.618
    2PC      C3 2467   3.729   2.547   5.654
    2PC      HA 2468   3.641   2.506   5.604
    2PC      HB 2469   3.769   2.473   5.724
    2PC     O31 2470   3.682   2.652   5.740
    2PC     P31 2471   3.578   2.622   5.857
    2PC     O32 2472   3.439   2.590   5.784
    2PC     C31 2473   3.322   2.623   5.861
    2PC     H1A 2474   3.330   2.562   5.951
    2PC     H1B 2475   3.326   2.726   5.898
    2PC     C32 2476   3.195   2.586   5.784
    2PC     H2A 2477   3.113   2.620   5.848
    2PC     H2B 2478   3.186   2.626   5.683
    2PC     N31 2479   3.178   2.439   5.762
    2PC     C33 2480   3.056   2.426   5.676
    2PC     H3A 2481   2.985   2.490   5.727
    2PC     H3B 2482   3.081   2.457   5.574
    2PC     H3C 2483   3.019   2.325   5.695
    2PC     C34 2484   3.282   2.357   5.691
    2PC     H4A 2485   3.324   2.415   5.609
    2PC     H4B 2486   3.364   2.341   5.761
    2PC     H4C 2487   3.240   2.264   5.652
    2PC     C35 2488   3.143   2.382   5.896
    2PC     H5A 2489   3.231   2.396   5.959
    2PC     H5B 2490   3.125   2.275   5.884
    2PC     H5C 2491   3.063   2.447   5.930
    2PC     O33 2492   3.646   2.520   5.940
    2PC     O34 2493   3.548   2.738   5.945
    2PC     O21 2494   3.766   2.671   5.444
    2PC     C21 2495   3.813   2.793   5.414
    2PC     O22 2496   3.906   2.846   5.471
    3OL     C12 2497   3.748   2.854   5.292
    3OL     H2R 2498   3.672   2.930   5.309
    3OL     H2S 2499   3.701   2.773   5.236
    3OL     C13 2500   3.859   2.914   5.203
    3OL     H3R 2501   3.922   2.834   5.163
    3OL     H3S 2502   3.916   2.980   5.268
    3OL     C14 2503   3.801   2.985   5.080
    3OL     H4R 2504   3.743   3.072   5.111
    3OL     H4S 2505   3.742   2.915   5.020
    3OL     C15 2506   3.907   3.040   4.984
    3OL     H5R 2507   3.969   2.956   4.952
    3OL     H5S 2508   3.971   3.121   5.018
    3OL     C16 2509   3.842   3.102   4.860
    3OL     H6R 2510   3.819   3.208   4.873
    3OL     H6S 2511   3.754   3.043   4.833
    3OL     C17 2512   3.938   3.090   4.741
    3OL     H7R 2513   3.929   2.987   4.707
    3OL     H7S 2514   4.038   3.112   4.780
    3OL     C18 2515   3.906   3.171   4.614
    3OL     H8R 2516   3.812   3.138   4.569
    3OL     H8S 2517   3.976   3.155   4.532
    3OL     C19 2518   3.884   3.319   4.635
    3OL     H9R 2519   3.785   3.338   4.674
    3OL    C110 2520   3.965   3.417   4.597
    3OL    H10R 2521   3.933   3.521   4.602
    3OL    C111 2522   4.107   3.393   4.552
    3OL    H11R 2523   4.138   3.291   4.572
    3OL    H11S 2524   4.178   3.447   4.616
    3OL    C112 2525   4.120   3.424   4.402
    3OL    H12R 2526   4.066   3.515   4.377
    3OL    H12S 2527   4.059   3.346   4.356
    3OL    C113 2528   4.260   3.439   4.340
    3OL    H13R 2529   4.300   3.538   4.361
    3OL    H13S 2530   4.257   3.442   4.231
    3OL    C114 2531   4.359   3.331   4.385
    3OL    H14R 2532   4.313   3.234   4.370
    3OL    H14S 2533   4.385   3.339   4.491
    3OL    C115 2534   4.495   3.338   4.314
    3OL    H15R 2535   4.545   3.428   4.349
    3OL    H15S 2536   4.483   3.356   4.207
    3OL    C116 2537   4.586   3.214   4.306
    3OL    H16R 2538   4.624   3.186   4.405
    3OL    H16S 2539   4.679   3.235   4.254
    3OL    C117 2540   4.528   3.084   4.248
    3OL    H17R 2541   4.443   3.051   4.309
    3OL    H17S 2542   4.592   2.997   4.239
    3OL    C118 2543   4.466   3.109   4.110
    3OL    H18R 2544   4.525   3.144   4.025
    3OL    H18S 2545   4.370   3.160   4.110
    3OL    H18T 2546   4.448   3.008   4.073
    1PA    C116 2547   6.553   1.163   4.187
    1PA    H16R 2548   6.496   1.190   4.098
    1PA    H16S 2549   6.493   1.092   4.245
    1PA    H16T 2550   6.646   1.116   4.158
    1PA    C115 2551   6.573   1.285   4.279
    1PA    H15R 2552   6.645   1.351   4.230
    1PA    H15S 2553   6.477   1.331   4.302
    1PA    C114 2554   6.633   1.244   4.414
    1PA    H14R 2555   6.561   1.180   4.464
    1PA    H14S 2556   6.722   1.184   4.390
    1PA    C113 2557   6.676   1.364   4.500
    1PA    H13R 2558   6.754   1.418   4.445
    1PA    H13S 2559   6.596   1.436   4.516
    1PA    C112 2560   6.729   1.312   4.634
    1PA    H12R 2561   6.646   1.297   4.702
    1PA    H12S 2562   6.794   1.224   4.625
    1PA    C111 2563   6.817   1.422   4.695
    1PA    H11R 2564   6.899   1.440   4.625
    1PA    H11S 2565   6.767   1.519   4.700
    1PA    C110 2566   6.855   1.396   4.841
    1PA    H10R 2567   6.760   1.385   4.894
    1PA    H10S 2568   6.923   1.311   4.846
    1PA     C19 2569   6.925   1.521   4.897
    1PA     H9R 2570   7.002   1.551   4.825
    1PA     H9S 2571   6.849   1.599   4.903
    1PA     C18 2572   6.982   1.510   5.039
    1PA     H8R 2573   6.994   1.403   5.059
    1PA     H8S 2574   7.080   1.559   5.037
    1PA     C17 2575   6.894   1.567   5.150
    1PA     H7R 2576   6.867   1.671   5.128
    1PA     H7S 2577   6.803   1.508   5.158
    1PA     C16 2578   6.971   1.550   5.281
    1PA     H6R 2579   7.009   1.448   5.292
    1PA     H6S 2580   7.056   1.617   5.268
    1PA     C15 2581   6.881   1.590   5.399
    1PA     H5R 2582   6.947   1.604   5.484
    1PA     H5S 2583   6.836   1.689   5.384
    1PA     C14 2584   6.768   1.487   5.413
    1PA     H4R 2585   6.700   1.504   5.330
    1PA     H4S 2586   6.816   1.389   5.413
    1PA     C13 2587   6.691   1.490   5.545
    1PA     H3R 2588   6.672   1.593   5.578
    1PA     H3S 2589   6.595   1.446   5.518
    1PA     C12 2590   6.768   1.420   5.658
    1PA     H2R 2591   6.772   1.315   5.628
    1PA     H2S 2592   6.874   1.445   5.658
    2PC     C11 2593   6.701   1.440   5.792
    2PC     O12 2594   6.593   1.393   5.819
    2PC     O11 2595   6.769   1.521   5.875
    2PC      C1 2596   6.727   1.549   6.010
    2PC      HR 2597   6.687   1.455   6.049
    2PC      HS 2598   6.816   1.584   6.063
    2PC      C2 2599   6.617   1.653   6.032
    2PC      HX 2600   6.660   1.745   5.992
    2PC      C3 2601   6.587   1.671   6.182
    2PC      HA 2602   6.500   1.616   6.216
    2PC      HB 2603   6.663   1.634   6.251
    2PC     O31 2604   6.560   1.810   6.208
    2PC     P31 2605   6.493   1.848   6.349
    2PC     O32 2606   6.607   1.943   6.409
    2PC     C31 2607   6.719   1.883   6.478
    2PC     H1A 2608   6.692   1.802   6.545
    2PC     H1B 2609   6.780   1.845   6.395
    2PC     C32 2610   6.793   1.997   6.550
    2PC     H2A 2611   6.853   1.960   6.634
    2PC     H2B 2612   6.856   2.057   6.485
    2PC     N31 2613   6.716   2.103   6.623
    2PC     C33 2614   6.651   2.202   6.531
    2PC     H3A 2615   6.729   2.265   6.488
    2PC     H3B 2616   6.583   2.156   6.459
    2PC     H3C 2617   6.605   2.278   6.595
    2PC     C34 2618   6.612   2.050   6.717
    2PC     H4A 2619   6.662   1.991   6.794
    2PC     H4B 2620   6.559   2.134   6.762
    2PC     H4C 2621   6.532   2.010   6.654
    2PC     C35 2622   6.803   2.187   6.711
    2PC     H5A 2623   6.745   2.250   6.779
    2PC     H5B 2624   6.856   2.251   6.640
    2PC     H5C 2625   6.865   2.122   6.773
    2PC     O33 2626   6.366   1.923   6.350
    2PC     O34 2627   6.475   1.721   6.423
    2PC     O21 2628   6.498   1.618   5.960
    2PC     C21 2629   6.478   1.672   5.839
    2PC     O22 2630   6.555   1.752   5.788
    3OL     C12 2631   6.366   1.614   5.757
    3OL     H2R 2632   6.294   1.604   5.838
    3OL     H2S 2633   6.399   1.516   5.722
    3OL     C13 2634   6.323   1.691   5.631
    3OL     H3R 2635   6.408   1.695   5.562
    3OL     H3S 2636   6.304   1.797   5.649
    3OL     C14 2637   6.204   1.632   5.554
    3OL     H4R 2638   6.231   1.533   5.517
    3OL     H4S 2639   6.188   1.700   5.471
    3OL     C15 2640   6.073   1.626   5.634
    3OL     H5R 2641   6.058   1.727   5.673
    3OL     H5S 2642   6.074   1.555   5.717
    3OL     C16 2643   5.965   1.589   5.531
    3OL     H6R 2644   5.984   1.487   5.498
    3OL     H6S 2645   5.952   1.663   5.451
    3OL     C17 2646   5.831   1.595   5.605
    3OL     H7R 2647   5.807   1.697   5.637
    3OL     H7S 2648   5.849   1.543   5.700
    3OL     C18 2649   5.708   1.544   5.528
    3OL     H8R 2650   5.704   1.435   5.537
    3OL     H8S 2651   5.722   1.576   5.425
    3OL     C19 2652   5.587   1.601   5.597
    3OL     H9R 2653   5.588   1.574   5.702
    3OL    C110 2654   5.503   1.684   5.537
    3OL    H10R 2655   5.424   1.733   5.593
    3OL    C111 2656   5.532   1.743   5.401
    3OL    H11R 2657   5.636   1.769   5.378
    3OL    H11S 2658   5.471   1.833   5.393
    3OL    C112 2659   5.478   1.652   5.290
    3OL    H12R 2660   5.372   1.635   5.306
    3OL    H12S 2661   5.527   1.555   5.302
    3OL    C113 2662   5.490   1.716   5.151
    3OL    H13R 2663   5.469   1.823   5.162
    3OL    H13S 2664   5.411   1.673   5.089
    3OL    C114 2665   5.630   1.696   5.092
    3OL    H14R 2666   5.670   1.597   5.116
    3OL    H14S 2667   5.694   1.775   5.130
    3OL    C115 2668   5.603   1.691   4.941
    3OL    H15R 2669   5.533   1.610   4.920
    3OL    H15S 2670   5.697   1.663   4.893
    3OL    C116 2671   5.559   1.820   4.870
    3OL    H16R 2672   5.640   1.885   4.905
    3OL    H16S 2673   5.469   1.861   4.916
    3OL    C117 2674   5.546   1.798   4.719
    3OL    H17R 2675   5.502   1.891   4.684
    3OL    H17S 2676   5.473   1.717   4.709
    3OL    C118 2677   5.685   1.768   4.662
    3OL    H18R 2678   5.738   1.681   4.700
    3OL    H18S 2679   5.751   1.855   4.666
    3OL    H18T 2680   5.668   1.748   4.556
    1PA    C116 2681   2.460   4.295   4.298
    1PA    H16R 2682   2.563   4.328   4.311
    1PA    H16S 2683   2.396   4.379   4.271
    1PA    H16T 2684   2.463   4.212   4.227
    1PA    C115 2685   2.400   4.241   4.429
    1PA    H15R 2686   2.385   4.325   4.497
    1PA    H15S 2687   2.300   4.202   4.406
    1PA    C114 2688   2.485   4.133   4.498
    1PA    H14R 2689   2.494   4.040   4.440
    1PA    H14S 2690   2.584   4.171   4.523
    1PA    C113 2691   2.430   4.096   4.636
    1PA    H13R 2692   2.405   4.181   4.699
    1PA    H13S 2693   2.337   4.039   4.623
    1PA    C112 2694   2.524   4.002   4.712
    1PA    H12R 2695   2.552   3.917   4.650
    1PA    H12S 2696   2.617   4.057   4.730
    1PA    C111 2697   2.471   3.956   4.849
    1PA    H11R 2698   2.446   4.043   4.910
    1PA    H11S 2699   2.376   3.905   4.836
    1PA    C110 2700   2.584   3.880   4.921
    1PA    H10R 2701   2.597   3.781   4.877
    1PA    H10S 2702   2.673   3.943   4.912
    1PA     C19 2703   2.539   3.848   5.064
    1PA     H9R 2704   2.446   3.790   5.066
    1PA     H9S 2705   2.608   3.779   5.114
    1PA     C18 2706   2.525   3.969   5.157
    1PA     H8R 2707   2.610   4.036   5.144
    1PA     H8S 2708   2.447   4.040   5.128
    1PA     C17 2709   2.507   3.924   5.303
    1PA     H7R 2710   2.408   3.881   5.317
    1PA     H7S 2711   2.579   3.843   5.312
    1PA     C16 2712   2.534   4.035   5.406
    1PA     H6R 2713   2.629   4.084   5.387
    1PA     H6S 2714   2.460   4.114   5.390
    1PA     C15 2715   2.531   3.982   5.550
    1PA     H5R 2716   2.594   3.893   5.557
    1PA     H5S 2717   2.583   4.055   5.613
    1PA     C14 2718   2.391   3.959   5.609
    1PA     H4R 2719   2.326   4.043   5.586
    1PA     H4S 2720   2.344   3.875   5.557
    1PA     C13 2721   2.413   3.922   5.756
    1PA     H3R 2722   2.497   3.854   5.771
    1PA     H3S 2723   2.420   4.009   5.821
    1PA     C12 2724   2.290   3.845   5.808
    1PA     H2R 2725   2.200   3.905   5.811
    1PA     H2S 2726   2.270   3.754   5.749
    2PC     C11 2727   2.322   3.778   5.939
    2PC     O12 2728   2.431   3.748   5.983
    2PC     O11 2729   2.209   3.760   6.010
    2PC      C1 2730   2.213   3.692   6.136
    2PC      HR 2731   2.252   3.590   6.125
    2PC      HS 2732   2.274   3.754   6.203
    2PC      C2 2733   2.069   3.698   6.189
    2PC      HX 2734   2.038   3.802   6.184
    2PC      C3 2735   2.064   3.665   6.339
    2PC      HA 2736   2.080   3.558   6.355
    2PC      HB 2737   2.147   3.721   6.382
    2PC     O31 2738   1.932   3.707   6.380
    2PC     P31 2739   1.887   3.667   6.528
    2PC     O32 2740   1.855   3.819   6.569
    2PC     C31 2741   1.964   3.911   6.589
    2PC     H1A 2742   2.020   3.866   6.671
    2PC     H1B 2743   2.016   3.911   6.492
    2PC     C32 2744   1.912   4.051   6.622
    2PC     H2A 2745   1.991   4.125   6.615
    2PC     H2B 2746   1.834   4.081   6.551
    2PC     N31 2747   1.839   4.060   6.753
    2PC     C33 2748   1.710   3.984   6.741
    2PC     H3A 2749   1.656   4.000   6.834
    2PC     H3B 2750   1.663   4.029   6.653
    2PC     H3C 2751   1.729   3.878   6.724
    2PC     C34 2752   1.916   4.014   6.873
    2PC     H4A 2753   1.922   3.906   6.860
    2PC     H4B 2754   2.009   4.068   6.856
    2PC     H4C 2755   1.869   4.052   6.964
    2PC     C35 2756   1.813   4.207   6.774
    2PC     H5A 2757   1.898   4.266   6.808
    2PC     H5B 2758   1.730   4.220   6.843
    2PC     H5C 2759   1.779   4.244   6.677
    2PC     O33 2760   1.775   3.570   6.530
    2PC     O34 2761   1.993   3.604   6.610
    2PC     O21 2762   1.997   3.592   6.124
    2PC     C21 2763   1.864   3.593   6.109
    2PC     O22 2764   1.791   3.685   6.140
    3OL     C12 2765   1.816   3.465   6.044
    3OL     H2R 2766   1.726   3.435   6.096
    3OL     H2S 2767   1.891   3.386   6.051
    3OL     C13 2768   1.793   3.490   5.894
    3OL     H3R 2769   1.723   3.573   5.892
    3OL     H3S 2770   1.754   3.402   5.842
    3OL     C14 2771   1.920   3.540   5.824
    3OL     H4R 2772   1.999   3.468   5.847
    3OL     H4S 2773   1.944   3.638   5.866
    3OL     C15 2774   1.892   3.561   5.674
    3OL     H5R 2775   1.796   3.612   5.666
    3OL     H5S 2776   1.896   3.465   5.622
    3OL     C16 2777   1.999   3.654   5.614
    3OL     H6R 2778   2.090   3.599   5.635
    3OL     H6S 2779   1.994   3.746   5.674
    3OL     C17 2780   1.991   3.676   5.463
    3OL     H7R 2781   1.897   3.726   5.436
    3OL     H7S 2782   1.983   3.578   5.415
    3OL     C18 2783   2.103   3.763   5.406
    3OL     H8R 2784   2.091   3.770   5.297
    3OL     H8S 2785   2.199   3.720   5.436
    3OL     C19 2786   2.083   3.904   5.457
    3OL     H9R 2787   2.058   3.904   5.562
    3OL    C110 2788   2.095   4.020   5.394
    3OL    H10R 2789   2.076   4.109   5.454
    3OL    C111 2790   2.137   4.052   5.253
    3OL    H11R 2791   2.121   3.960   5.196
    3OL    H11S 2792   2.242   4.079   5.243
    3OL    C112 2793   2.049   4.162   5.191
    3OL    H12R 2794   2.058   4.257   5.243
    3OL    H12S 2795   1.945   4.131   5.196
    3OL    C113 2796   2.083   4.188   5.043
    3OL    H13R 2797   2.186   4.223   5.032
    3OL    H13S 2798   2.024   4.269   5.000
    3OL    C114 2799   2.073   4.059   4.961
    3OL    H14R 2800   1.978   4.012   4.985
    3OL    H14S 2801   2.148   3.988   4.999
    3OL    C115 2802   2.090   4.093   4.813
    3OL    H15R 2803   2.193   4.128   4.800
    3OL    H15S 2804   2.019   4.173   4.791
    3OL    C116 2805   2.055   3.971   4.727
    3OL    H16R 2806   1.958   3.927   4.754
    3OL    H16S 2807   2.131   3.895   4.745
    3OL    C117 2808   2.055   4.007   4.577
    3OL    H17R 2809   2.063   3.910   4.527
    3OL    H17S 2810   2.141   4.069   4.551
    3OL    C118 2811   1.926   4.073   4.527
    3OL    H18R 2812   1.835   4.013   4.530
    3OL    H18S 2813   1.933   4.108   4.424
    3OL    H18T 2814   1.918   4.158   4.595
    1PA    C116 2815   2.882   6.894   4.581
    1PA    H16R 2816   2.984   6.887   4.622
    1PA    H16S 2817   2.829   6.966   4.644
    1PA    H16T 2818   2.882   6.927   4.477
    1PA    C115 2819   2.809   6.761   4.601
    1PA    H15R 2820   2.863   6.691   4.537
    1PA    H15S 2821   2.802   6.733   4.706
    1PA    C114 2822   2.666   6.775   4.548
    1PA    H14R 2823   2.615   6.854   4.604
    1PA    H14S 2824   2.681   6.811   4.446
    1PA    C113 2825   2.587   6.643   4.545
    1PA    H13R 2826   2.514   6.651   4.464
    1PA    H13S 2827   2.646   6.558   4.512
    1PA    C112 2828   2.501   6.613   4.669
    1PA    H12R 2829   2.561   6.600   4.759
    1PA    H12S 2830   2.440   6.702   4.685
    1PA    C111 2831   2.416   6.488   4.644
    1PA    H11R 2832   2.350   6.510   4.559
    1PA    H11S 2833   2.478   6.401   4.621
    1PA    C110 2834   2.325   6.459   4.764
    1PA    H10R 2835   2.389   6.425   4.846
    1PA    H10S 2836   2.274   6.548   4.800
    1PA     C19 2837   2.223   6.348   4.737
    1PA     H9R 2838   2.177   6.378   4.643
    1PA     H9S 2839   2.282   6.258   4.714
    1PA     C18 2840   2.121   6.315   4.847
    1PA     H8R 2841   2.109   6.207   4.851
    1PA     H8S 2842   2.154   6.345   4.947
    1PA     C17 2843   1.983   6.380   4.830
    1PA     H7R 2844   1.987   6.487   4.846
    1PA     H7S 2845   1.948   6.365   4.727
    1PA     C16 2846   1.887   6.320   4.934
    1PA     H6R 2847   1.788   6.355   4.902
    1PA     H6S 2848   1.904   6.212   4.933
    1PA     C15 2849   1.909   6.377   5.075
    1PA     H5R 2850   2.009   6.366   5.119
    1PA     H5S 2851   1.890   6.484   5.065
    1PA     C14 2852   1.805   6.323   5.174
    1PA     H4R 2853   1.710   6.355   5.131
    1PA     H4S 2854   1.816   6.215   5.183
    1PA     C13 2855   1.811   6.381   5.316
    1PA     H3R 2856   1.904   6.362   5.369
    1PA     H3S 2857   1.798   6.489   5.330
    1PA     C12 2858   1.696   6.321   5.397
    1PA     H2R 2859   1.604   6.356   5.349
    1PA     H2S 2860   1.695   6.214   5.377
    2PC     C11 2861   1.703   6.356   5.544
    2PC     O12 2862   1.631   6.444   5.588
    2PC     O11 2863   1.789   6.280   5.613
    2PC      C1 2864   1.805   6.275   5.756
    2PC      HR 2865   1.903   6.235   5.784
    2PC      HS 2866   1.782   6.375   5.795
    2PC      C2 2867   1.702   6.177   5.813
    2PC      HX 2868   1.600   6.212   5.793
    2PC      C3 2869   1.721   6.166   5.965
    2PC      HA 2870   1.810   6.106   5.988
    2PC      HB 2871   1.736   6.263   6.012
    2PC     O31 2872   1.601   6.113   6.024
    2PC     P31 2873   1.580   6.126   6.182
    2PC     O32 2874   1.476   6.006   6.197
    2PC     C31 2875   1.393   6.003   6.314
    2PC     H1A 2876   1.447   6.036   6.403
    2PC     H1B 2877   1.313   6.077   6.303
    2PC     C32 2878   1.338   5.864   6.349
    2PC     H2A 2879   1.322   5.851   6.456
    2PC     H2B 2880   1.243   5.852   6.296
    2PC     N31 2881   1.419   5.744   6.310
    2PC     C33 2882   1.560   5.750   6.361
    2PC     H3A 2883   1.607   5.831   6.304
    2PC     H3B 2884   1.553   5.759   6.469
    2PC     H3C 2885   1.623   5.664   6.338
    2PC     C34 2886   1.350   5.624   6.365
    2PC     H4A 2887   1.359   5.617   6.474
    2PC     H4B 2888   1.246   5.629   6.333
    2PC     H4C 2889   1.410   5.538   6.334
    2PC     C35 2890   1.412   5.734   6.161
    2PC     H5A 2891   1.449   5.642   6.116
    2PC     H5B 2892   1.475   5.806   6.108
    2PC     H5C 2893   1.310   5.760   6.131
    2PC     O33 2894   1.699   6.093   6.264
    2PC     O34 2895   1.534   6.256   6.237
    2PC     O21 2896   1.737   6.051   5.755
    2PC     C21 2897   1.676   5.999   5.647
    2PC     O22 2898   1.581   6.054   5.595
    3OL     C12 2899   1.760   5.891   5.584
    3OL     H2R 2900   1.718   5.790   5.594
    3OL     H2S 2901   1.863   5.891   5.623
    3OL     C13 2902   1.773   5.918   5.434
    3OL     H3R 2903   1.808   6.022   5.428
    3OL     H3S 2904   1.674   5.909   5.390
    3OL     C14 2905   1.874   5.825   5.365
    3OL     H4R 2906   1.847   5.720   5.376
    3OL     H4S 2907   1.970   5.832   5.418
    3OL     C15 2908   1.883   5.874   5.220
    3OL     H5R 2909   1.893   5.983   5.218
    3OL     H5S 2910   1.794   5.838   5.169
    3OL     C16 2911   2.013   5.818   5.161
    3OL     H6R 2912   2.023   5.712   5.182
    3OL     H6S 2913   2.092   5.874   5.212
    3OL     C17 2914   2.036   5.863   5.016
    3OL     H7R 2915   2.036   5.972   5.010
    3OL     H7S 2916   1.958   5.817   4.955
    3OL     C18 2917   2.176   5.823   4.967
    3OL     H8R 2918   2.214   5.743   5.031
    3OL     H8S 2919   2.241   5.909   4.986
    3OL     C19 2920   2.182   5.758   4.831
    3OL     H9R 2921   2.134   5.661   4.821
    3OL    C110 2922   2.229   5.816   4.721
    3OL    H10R 2923   2.219   5.767   4.625
    3OL    C111 2924   2.294   5.952   4.722
    3OL    H11R 2925   2.387   5.949   4.780
    3OL    H11S 2926   2.230   6.020   4.779
    3OL    C112 2927   2.332   6.004   4.583
    3OL    H12R 2928   2.389   5.922   4.539
    3OL    H12S 2929   2.401   6.088   4.594
    3OL    C113 2930   2.209   6.047   4.500
    3OL    H13R 2931   2.147   6.123   4.547
    3OL    H13S 2932   2.143   5.960   4.497
    3OL    C114 2933   2.245   6.104   4.363
    3OL    H14R 2934   2.162   6.081   4.296
    3OL    H14S 2935   2.334   6.049   4.331
    3OL    C115 2936   2.261   6.257   4.359
    3OL    H15R 2937   2.279   6.302   4.457
    3OL    H15S 2938   2.168   6.301   4.323
    3OL    C116 2939   2.376   6.287   4.262
    3OL    H16R 2940   2.372   6.241   4.163
    3OL    H16S 2941   2.466   6.241   4.302
    3OL    C117 2942   2.402   6.437   4.246
    3OL    H17R 2943   2.402   6.491   4.341
    3OL    H17S 2944   2.322   6.481   4.186
    3OL    C118 2945   2.533   6.465   4.171
    3OL    H18R 2946   2.547   6.572   4.155
    3OL    H18S 2947   2.520   6.414   4.076
    3OL    H18T 2948   2.615   6.418   4.225
    1PA    C116 2949   6.490   5.293   3.583
    1PA    H16R 2950   6.594   5.293   3.551
    1PA    H16S 2951   6.435   5.345   3.504
    1PA    H16T 2952   6.452   5.191   3.590
    1PA    C115 2953   6.491   5.358   3.722
    1PA    H15R 2954   6.589   5.333   3.764
    1PA    H15S 2955   6.498   5.466   3.708
    1PA    C114 2956   6.377   5.329   3.821
    1PA    H14R 2957   6.348   5.225   3.806
    1PA    H14S 2958   6.404   5.351   3.925
    1PA    C113 2959   6.262   5.425   3.788
    1PA    H13R 2960   6.296   5.528   3.800
    1PA    H13S 2961   6.238   5.407   3.683
    1PA    C112 2962   6.130   5.404   3.864
    1PA    H12R 2963   6.069   5.494   3.854
    1PA    H12S 2964   6.082   5.314   3.826
    1PA    C111 2965   6.149   5.391   4.016
    1PA    H11R 2966   6.050   5.370   4.057
    1PA    H11S 2967   6.206   5.303   4.046
    1PA    C110 2968   6.203   5.513   4.093
    1PA    H10R 2969   6.304   5.531   4.055
    1PA    H10S 2970   6.147   5.606   4.076
    1PA     C19 2971   6.213   5.488   4.244
    1PA     H9R 2972   6.288   5.413   4.269
    1PA     H9S 2973   6.238   5.587   4.284
    1PA     C18 2974   6.086   5.437   4.313
    1PA     H8R 2975   6.007   5.503   4.276
    1PA     H8S 2976   6.061   5.338   4.274
    1PA     C17 2977   6.105   5.422   4.464
    1PA     H7R 2978   6.016   5.370   4.501
    1PA     H7S 2979   6.196   5.370   4.495
    1PA     C16 2980   6.117   5.552   4.544
    1PA     H6R 2981   6.214   5.603   4.536
    1PA     H6S 2982   6.043   5.621   4.503
    1PA     C15 2983   6.085   5.531   4.693
    1PA     H5R 2984   6.071   5.631   4.734
    1PA     H5S 2985   5.990   5.479   4.707
    1PA     C14 2986   6.199   5.462   4.769
    1PA     H4R 2987   6.206   5.360   4.729
    1PA     H4S 2988   6.286   5.525   4.746
    1PA     C13 2989   6.179   5.469   4.921
    1PA     H3R 2990   6.256   5.410   4.972
    1PA     H3S 2991   6.190   5.573   4.950
    1PA     C12 2992   6.048   5.405   4.968
    1PA     H2R 2993   5.963   5.456   4.921
    1PA     H2S 2994   6.042   5.300   4.939
    2PC     C11 2995   6.019   5.413   5.115
    2PC     O12 2996   5.905   5.406   5.159
    2PC     O11 2997   6.126   5.427   5.195
    2PC      C1 2998   6.091   5.439   5.334
    2PC      HR 2999   6.179   5.486   5.378
    2PC      HS 3000   6.001   5.501   5.338
    2PC      C2 3001   6.059   5.305   5.402
    2PC      HX 3002   6.000   5.244   5.333
    2PC      C3 3003   5.993   5.320   5.540
    2PC      HA 3004   6.058   5.383   5.602
    2PC      HB 3005   5.890   5.358   5.537
    2PC     O31 3006   5.992   5.202   5.621
    2PC     P31 3007   5.945   5.215   5.774
    2PC     O32 3008   6.092   5.237   5.832
    2PC     C31 3009   6.105   5.277   5.970
    2PC     H1A 3010   6.017   5.336   5.996
    2PC     H1B 3011   6.107   5.186   6.031
    2PC     C32 3012   6.239   5.350   5.988
    2PC     H2A 3013   6.228   5.391   6.088
    2PC     H2B 3014   6.320   5.280   5.969
    2PC     N31 3015   6.262   5.468   5.898
    2PC     C33 3016   6.332   5.408   5.780
    2PC     H3A 3017   6.375   5.494   5.730
    2PC     H3B 3018   6.401   5.325   5.793
    2PC     H3C 3019   6.258   5.382   5.704
    2PC     C34 3020   6.133   5.538   5.865
    2PC     H4A 3021   6.157   5.614   5.790
    2PC     H4B 3022   6.061   5.469   5.820
    2PC     H4C 3023   6.099   5.592   5.953
    2PC     C35 3024   6.348   5.573   5.961
    2PC     H5A 3025   6.310   5.601   6.059
    2PC     H5B 3026   6.379   5.655   5.896
    2PC     H5C 3027   6.443   5.521   5.980
    2PC     O33 3028   5.860   5.333   5.802
    2PC     O34 3029   5.872   5.090   5.806
    2PC     O21 3030   6.188   5.244   5.423
    2PC     C21 3031   6.221   5.135   5.352
    2PC     O22 3032   6.142   5.050   5.313
    3OL     C12 3033   6.368   5.136   5.318
    3OL     H2R 3034   6.433   5.173   5.397
    3OL     H2S 3035   6.394   5.201   5.235
    3OL     C13 3036   6.410   4.991   5.291
    3OL     H3R 3037   6.349   4.941   5.215
    3OL     H3S 3038   6.400   4.946   5.390
    3OL     C14 3039   6.555   4.987   5.243
    3OL     H4R 3040   6.601   4.888   5.244
    3OL     H4S 3041   6.611   5.050   5.313
    3OL     C15 3042   6.568   5.045   5.101
    3OL     H5R 3043   6.510   5.138   5.100
    3OL     H5S 3044   6.521   4.977   5.030
    3OL     C16 3045   6.713   5.080   5.063
    3OL     H6R 3046   6.731   5.045   4.962
    3OL     H6S 3047   6.774   5.018   5.128
    3OL     C17 3048   6.740   5.229   5.091
    3OL     H7R 3049   6.690   5.244   5.187
    3OL     H7S 3050   6.686   5.294   5.021
    3OL     C18 3051   6.887   5.271   5.098
    3OL     H8R 3052   6.944   5.258   5.006
    3OL     H8S 3053   6.940   5.199   5.161
    3OL     C19 3054   6.902   5.413   5.147
    3OL     H9R 3055   6.871   5.418   5.251
    3OL    C110 3056   6.953   5.521   5.090
    3OL    H10R 3057   6.948   5.614   5.147
    3OL    C111 3058   6.995   5.539   4.947
    3OL    H11R 3059   6.936   5.484   4.873
    3OL    H11S 3060   7.100   5.512   4.931
    3OL    C112 3061   6.970   5.687   4.916
    3OL    H12R 3062   7.062   5.740   4.942
    3OL    H12S 3063   6.889   5.722   4.980
    3OL    C113 3064   6.937   5.705   4.768
    3OL    H13R 3065   6.849   5.645   4.744
    3OL    H13S 3066   7.022   5.661   4.714
    3OL    C114 3067   6.918   5.850   4.723
    3OL    H14R 3068   6.827   5.886   4.772
    3OL    H14S 3069   6.891   5.850   4.617
    3OL    C115 3070   7.033   5.950   4.747
    3OL    H15R 3071   7.056   5.943   4.853
    3OL    H15S 3072   6.992   6.049   4.727
    3OL    C116 3073   7.158   5.934   4.659
    3OL    H16R 3074   7.125   5.930   4.555
    3OL    H16S 3075   7.201   5.840   4.695
    3OL    C117 3076   7.253   6.054   4.668
    3OL    H17R 3077   7.296   6.058   4.769
    3OL    H17S 3078   7.196   6.145   4.647
    3OL    C118 3079   7.364   6.041   4.563
    3OL    H18R 3080   7.461   6.032   4.612
    3OL    H18S 3081   7.375   6.135   4.510
    3OL    H18T 3082   7.344   5.963   4.489
    1PA    C116 3083   6.624   5.223   4.093
    1PA    H16R 3084   6.672   5.318   4.069
    1PA    H16S 3085   6.566   5.198   4.004
    1PA    H16T 3086   6.689   5.135   4.099
    1PA    C115 3087   6.551   5.241   4.227
    1PA    H15R 3088   6.619   5.281   4.302
    1PA    H15S 3089   6.477   5.319   4.207
    1PA    C114 3090   6.485   5.112   4.280
    1PA    H14R 3091   6.422   5.061   4.207
    1PA    H14S 3092   6.563   5.044   4.313
    1PA    C113 3093   6.400   5.155   4.400
    1PA    H13R 3094   6.443   5.226   4.472
    1PA    H13S 3095   6.318   5.215   4.359
    1PA    C112 3096   6.331   5.037   4.470
    1PA    H12R 3097   6.258   5.081   4.539
    1PA    H12S 3098   6.284   4.985   4.386
    1PA    C111 3099   6.429   4.943   4.541
    1PA    H11R 3100   6.486   4.887   4.467
    1PA    H11S 3101   6.505   4.997   4.598
    1PA    C110 3102   6.356   4.835   4.623
    1PA    H10R 3103   6.263   4.802   4.576
    1PA    H10S 3104   6.424   4.750   4.625
    1PA     C19 3105   6.336   4.885   4.767
    1PA     H9R 3106   6.422   4.949   4.787
    1PA     H9S 3107   6.245   4.944   4.781
    1PA     C18 3108   6.347   4.774   4.872
    1PA     H8R 3109   6.436   4.714   4.851
    1PA     H8S 3110   6.363   4.819   4.970
    1PA     C17 3111   6.218   4.691   4.873
    1PA     H7R 3112   6.142   4.746   4.928
    1PA     H7S 3113   6.178   4.683   4.771
    1PA     C16 3114   6.241   4.561   4.951
    1PA     H6R 3115   6.305   4.496   4.892
    1PA     H6S 3116   6.279   4.582   5.051
    1PA     C15 3117   6.111   4.480   4.955
    1PA     H5R 3118   6.029   4.550   4.976
    1PA     H5S 3119   6.093   4.447   4.853
    1PA     C14 3120   6.127   4.364   5.055
    1PA     H4R 3121   6.225   4.317   5.044
    1PA     H4S 3122   6.133   4.407   5.155
    1PA     C13 3123   6.002   4.276   5.039
    1PA     H3R 3124   5.970   4.272   4.935
    1PA     H3S 3125   6.042   4.180   5.073
    1PA     C12 3126   5.890   4.317   5.136
    1PA     H2R 3127   5.869   4.423   5.122
    1PA     H2S 3128   5.799   4.259   5.121
    2PC     C11 3129   5.927   4.305   5.282
    2PC     O12 3130   6.034   4.270   5.326
    2PC     O11 3131   5.812   4.327   5.348
    2PC      C1 3132   5.815   4.329   5.492
    2PC      HR 3133   5.709   4.317   5.517
    2PC      HS 3134   5.861   4.237   5.527
    2PC      C2 3135   5.882   4.453   5.551
    2PC      HX 3136   5.987   4.449   5.519
    2PC      C3 3137   5.858   4.450   5.702
    2PC      HA 3138   5.750   4.442   5.719
    2PC      HB 3139   5.901   4.363   5.751
    2PC     O31 3140   5.898   4.571   5.769
    2PC     P31 3141   5.866   4.589   5.925
    2PC     O32 3142   5.991   4.513   5.990
    2PC     C31 3143   6.009   4.520   6.133
    2PC     H1A 3144   6.054   4.619   6.148
    2PC     H1B 3145   5.914   4.510   6.185
    2PC     C32 3146   6.099   4.403   6.174
    2PC     H2A 3147   6.051   4.307   6.152
    2PC     H2B 3148   6.194   4.407   6.121
    2PC     N31 3149   6.145   4.397   6.317
    2PC     C33 3150   6.222   4.268   6.328
    2PC     H3A 3151   6.281   4.268   6.419
    2PC     H3B 3152   6.148   4.188   6.331
    2PC     H3C 3153   6.294   4.256   6.247
    2PC     C34 3154   6.228   4.514   6.358
    2PC     H4A 3155   6.322   4.514   6.304
    2PC     H4B 3156   6.170   4.603   6.330
    2PC     H4C 3157   6.245   4.507   6.466
    2PC     C35 3158   6.031   4.389   6.414
    2PC     H5A 3159   6.076   4.366   6.511
    2PC     H5B 3160   5.958   4.313   6.386
    2PC     H5C 3161   5.990   4.489   6.431
    2PC     O33 3162   5.842   4.728   5.970
    2PC     O34 3163   5.735   4.533   5.965
    2PC     O21 3164   5.814   4.570   5.503
    2PC     C21 3165   5.836   4.626   5.382
    2PC     O22 3166   5.931   4.597   5.312
    3OL     C12 3167   5.742   4.741   5.355
    3OL     H2R 3168   5.711   4.779   5.452
    3OL     H2S 3169   5.648   4.703   5.315
    3OL     C13 3170   5.799   4.851   5.264
    3OL     H3R 3171   5.817   4.812   5.164
    3OL     H3S 3172   5.896   4.893   5.293
    3OL     C14 3173   5.698   4.965   5.246
    3OL     H4R 3174   5.668   4.995   5.347
    3OL     H4S 3175   5.609   4.924   5.200
    3OL     C15 3176   5.741   5.092   5.171
    3OL     H5R 3177   5.834   5.130   5.213
    3OL     H5S 3178   5.678   5.174   5.208
    3OL     C16 3179   5.753   5.088   5.018
    3OL     H6R 3180   5.739   5.189   4.981
    3OL     H6S 3181   5.663   5.037   4.982
    3OL     C17 3182   5.880   5.021   4.964
    3OL     H7R 3183   5.871   4.917   4.996
    3OL     H7S 3184   5.968   5.069   5.008
    3OL     C18 3185   5.893   5.028   4.811
    3OL     H8R 3186   5.813   4.962   4.776
    3OL     H8S 3187   5.988   4.982   4.785
    3OL     C19 3188   5.876   5.167   4.756
    3OL     H9R 3189   5.954   5.239   4.781
    3OL    C110 3190   5.769   5.206   4.687
    3OL    H10R 3191   5.764   5.312   4.664
    3OL    C111 3192   5.664   5.115   4.629
    3OL    H11R 3193   5.699   5.012   4.622
    3OL    H11S 3194   5.634   5.149   4.529
    3OL    C112 3195   5.533   5.099   4.707
    3OL    H12R 3196   5.474   5.191   4.704
    3OL    H12S 3197   5.570   5.077   4.807
    3OL    C113 3198   5.458   4.969   4.674
    3OL    H13R 3199   5.522   4.881   4.678
    3OL    H13S 3200   5.424   4.978   4.570
    3OL    C114 3201   5.340   4.953   4.770
    3OL    H14R 3202   5.377   4.964   4.872
    3OL    H14S 3203   5.301   4.853   4.746
    3OL    C115 3204   5.227   5.054   4.747
    3OL    H15R 3205   5.187   5.048   4.645
    3OL    H15S 3206   5.253   5.160   4.759
    3OL    C116 3207   5.110   5.039   4.845
    3OL    H16R 3208   5.149   5.076   4.940
    3OL    H16S 3209   5.079   4.934   4.854
    3OL    C117 3210   4.993   5.133   4.813
    3OL    H17R 3211   4.967   5.118   4.708
    3OL    H17S 3212   5.024   5.237   4.822
    3OL    C118 3213   4.875   5.110   4.908
    3OL    H18R 3214   4.820   5.019   4.885
    3OL    H18S 3215   4.810   5.198   4.914
    3OL    H18T 3216   4.914   5.094   5.009
    1PA    C116 3217   1.127   0.993   3.914
    1PA    H16R 3218   1.176   1.006   4.011
    1PA    H16S 3219   1.164   0.896   3.879
    1PA    H16T 3220   1.022   0.999   3.942
    1PA    C115 3221   1.153   1.099   3.807
    1PA    H15R 3222   1.260   1.099   3.782
    1PA    H15S 3223   1.100   1.058   3.721
    1PA    C114 3224   1.107   1.239   3.850
    1PA    H14R 3225   1.050   1.285   3.769
    1PA    H14S 3226   1.029   1.219   3.924
    1PA    C113 3227   1.223   1.324   3.902
    1PA    H13R 3228   1.277   1.258   3.970
    1PA    H13S 3229   1.279   1.343   3.810
    1PA    C112 3230   1.175   1.462   3.950
    1PA    H12R 3231   1.259   1.532   3.950
    1PA    H12S 3232   1.096   1.514   3.895
    1PA    C111 3233   1.111   1.449   4.089
    1PA    H11R 3234   1.002   1.442   4.089
    1PA    H11S 3235   1.140   1.352   4.132
    1PA    C110 3236   1.156   1.571   4.169
    1PA    H10R 3237   1.265   1.573   4.178
    1PA    H10S 3238   1.119   1.659   4.115
    1PA     C19 3239   1.094   1.569   4.309
    1PA     H9R 3240   0.985   1.566   4.303
    1PA     H9S 3241   1.127   1.476   4.356
    1PA     C18 3242   1.137   1.693   4.390
    1PA     H8R 3243   1.245   1.706   4.381
    1PA     H8S 3244   1.077   1.776   4.350
    1PA     C17 3245   1.111   1.669   4.539
    1PA     H7R 3246   1.007   1.647   4.564
    1PA     H7S 3247   1.156   1.574   4.569
    1PA     C16 3248   1.153   1.797   4.613
    1PA     H6R 3249   1.261   1.807   4.608
    1PA     H6S 3250   1.104   1.886   4.573
    1PA     C15 3251   1.130   1.788   4.765
    1PA     H5R 3252   1.147   1.889   4.802
    1PA     H5S 3253   1.028   1.753   4.781
    1PA     C14 3254   1.216   1.682   4.834
    1PA     H4R 3255   1.199   1.584   4.787
    1PA     H4S 3256   1.319   1.706   4.808
    1PA     C13 3257   1.215   1.679   4.987
    1PA     H3R 3258   1.302   1.630   5.033
    1PA     H3S 3259   1.210   1.782   5.023
    1PA     C12 3260   1.082   1.623   5.039
    1PA     H2R 3261   1.009   1.680   4.982
    1PA     H2S 3262   1.074   1.522   5.000
    2PC     C11 3263   1.067   1.619   5.189
    2PC     O12 3264   1.161   1.591   5.261
    2PC     O11 3265   0.946   1.658   5.233
    2PC      C1 3266   0.920   1.684   5.372
    2PC      HR 3267   0.817   1.719   5.381
    2PC      HS 3268   0.939   1.589   5.423
    2PC      C2 3269   1.008   1.797   5.426
    2PC      HX 3270   1.114   1.778   5.412
    2PC      C3 3271   0.975   1.812   5.576
    2PC      HA 3272   0.875   1.856   5.579
    2PC      HB 3273   0.972   1.712   5.620
    2PC     O31 3274   1.065   1.904   5.641
    2PC     P31 3275   1.044   1.941   5.795
    2PC     O32 3276   1.112   1.812   5.860
    2PC     C31 3277   1.105   1.798   6.003
    2PC     H1A 3278   1.120   1.894   6.053
    2PC     H1B 3279   1.002   1.773   6.031
    2PC     C32 3280   1.211   1.696   6.047
    2PC     H2A 3281   1.191   1.596   6.008
    2PC     H2B 3282   1.310   1.726   6.011
    2PC     N31 3283   1.239   1.688   6.194
    2PC     C33 3284   1.354   1.594   6.214
    2PC     H3A 3285   1.442   1.641   6.171
    2PC     H3B 3286   1.356   1.573   6.321
    2PC     H3C 3287   1.344   1.498   6.164
    2PC     C34 3288   1.268   1.818   6.263
    2PC     H4A 3289   1.372   1.840   6.240
    2PC     H4B 3290   1.202   1.901   6.236
    2PC     H4C 3291   1.256   1.790   6.368
    2PC     C35 3292   1.115   1.628   6.254
    2PC     H5A 3293   1.044   1.709   6.272
    2PC     H5B 3294   1.150   1.586   6.348
    2PC     H5C 3295   1.069   1.561   6.181
    2PC     O33 3296   1.108   2.072   5.820
    2PC     O34 3297   0.898   1.942   5.822
    2PC     O21 3298   0.972   1.921   5.361
    2PC     C21 3299   1.061   2.005   5.305
    2PC     O22 3300   1.177   1.976   5.284
    3OL     C12 3301   0.993   2.124   5.243
    3OL     H2R 3302   1.013   2.203   5.315
    3OL     H2S 3303   0.885   2.103   5.243
    3OL     C13 3304   1.040   2.162   5.102
    3OL     H3R 3305   1.017   2.084   5.028
    3OL     H3S 3306   1.145   2.191   5.093
    3OL     C14 3307   0.951   2.283   5.071
    3OL     H4R 3308   0.980   2.369   5.130
    3OL     H4S 3309   0.845   2.256   5.078
    3OL     C15 3310   0.969   2.324   4.924
    3OL     H5R 3311   1.074   2.346   4.904
    3OL     H5S 3312   0.903   2.409   4.905
    3OL     C16 3313   0.920   2.221   4.821
    3OL     H6R 3314   0.813   2.200   4.834
    3OL     H6S 3315   0.962   2.121   4.831
    3OL     C17 3316   0.934   2.269   4.676
    3OL     H7R 3317   1.038   2.258   4.648
    3OL     H7S 3318   0.896   2.371   4.669
    3OL     C18 3319   0.867   2.169   4.581
    3OL     H8R 3320   0.760   2.156   4.601
    3OL     H8S 3321   0.924   2.077   4.595
    3OL     C19 3322   0.899   2.215   4.441
    3OL     H9R 3323   1.003   2.247   4.433
    3OL    C110 3324   0.814   2.214   4.339
    3OL    H10R 3325   0.843   2.245   4.239
    3OL    C111 3326   0.673   2.161   4.342
    3OL    H11R 3327   0.667   2.079   4.414
    3OL    H11S 3328   0.653   2.122   4.242
    3OL    C112 3329   0.561   2.261   4.375
    3OL    H12R 3330   0.595   2.290   4.474
    3OL    H12S 3331   0.468   2.203   4.379
    3OL    C113 3332   0.545   2.386   4.287
    3OL    H13R 3333   0.564   2.365   4.182
    3OL    H13S 3334   0.630   2.453   4.301
    3OL    C114 3335   0.407   2.448   4.315
    3OL    H14R 3336   0.398   2.550   4.279
    3OL    H14S 3337   0.394   2.458   4.423
    3OL    C115 3338   0.300   2.356   4.255
    3OL    H15R 3339   0.209   2.355   4.317
    3OL    H15S 3340   0.338   2.253   4.252
    3OL    C116 3341   0.271   2.407   4.113
    3OL    H16R 3342   0.357   2.398   4.046
    3OL    H16S 3343   0.224   2.505   4.117
    3OL    C117 3344   0.170   2.318   4.040
    3OL    H17R 3345   0.081   2.291   4.098
    3OL    H17S 3346   0.226   2.224   4.031
    3OL    C118 3347   0.138   2.395   3.911
    3OL    H18R 3348   0.224   2.440   3.862
    3OL    H18S 3349   0.070   2.475   3.941
    3OL    H18T 3350   0.092   2.327   3.839
    1PA    C116 3351   0.359   1.480   3.888
    1PA    H16R 3352   0.396   1.536   3.974
    1PA    H16S 3353   0.260   1.448   3.919
    1PA    H16T 3354   0.338   1.550   3.807
    1PA    C115 3355   0.445   1.360   3.846
    1PA    H15R 3356   0.403   1.307   3.759
    1PA    H15S 3357   0.538   1.403   3.807
    1PA    C114 3358   0.476   1.262   3.960
    1PA    H14R 3359   0.382   1.212   3.985
    1PA    H14S 3360   0.551   1.187   3.932
    1PA    C113 3361   0.528   1.340   4.081
    1PA    H13R 3362   0.626   1.384   4.061
    1PA    H13S 3363   0.457   1.416   4.113
    1PA    C112 3364   0.564   1.251   4.201
    1PA    H12R 3365   0.472   1.198   4.227
    1PA    H12S 3366   0.640   1.178   4.171
    1PA    C111 3367   0.620   1.341   4.311
    1PA    H11R 3368   0.712   1.389   4.275
    1PA    H11S 3369   0.547   1.417   4.340
    1PA    C110 3370   0.632   1.263   4.443
    1PA    H10R 3371   0.534   1.240   4.485
    1PA    H10S 3372   0.678   1.165   4.431
    1PA     C19 3373   0.709   1.337   4.553
    1PA     H9R 3374   0.815   1.352   4.531
    1PA     H9S 3375   0.655   1.432   4.568
    1PA     C18 3376   0.713   1.255   4.682
    1PA     H8R 3377   0.610   1.231   4.706
    1PA     H8S 3378   0.771   1.165   4.660
    1PA     C17 3379   0.780   1.331   4.798
    1PA     H7R 3380   0.884   1.351   4.770
    1PA     H7S 3381   0.736   1.429   4.815
    1PA     C16 3382   0.767   1.261   4.934
    1PA     H6R 3383   0.666   1.224   4.954
    1PA     H6S 3384   0.824   1.172   4.907
    1PA     C15 3385   0.830   1.334   5.053
    1PA     H5R 3386   0.920   1.377   5.010
    1PA     H5S 3387   0.771   1.414   5.098
    1PA     C14 3388   0.855   1.232   5.165
    1PA     H4R 3389   0.767   1.170   5.181
    1PA     H4S 3390   0.932   1.158   5.139
    1PA     C13 3391   0.911   1.299   5.291
    1PA     H3R 3392   0.998   1.356   5.259
    1PA     H3S 3393   0.838   1.370   5.331
    1PA     C12 3394   0.958   1.197   5.396
    1PA     H2R 3395   0.866   1.145   5.422
    1PA     H2S 3396   1.036   1.130   5.358
    2PC     C11 3397   1.015   1.266   5.518
    2PC     O12 3398   1.027   1.386   5.531
    2PC     O11 3399   1.027   1.188   5.626
    2PC      C1 3400   1.088   1.245   5.743
    2PC      HR 3401   1.052   1.345   5.767
    2PC      HS 3402   1.065   1.183   5.831
    2PC      C2 3403   1.241   1.240   5.734
    2PC      HX 3404   1.267   1.135   5.748
    2PC      C3 3405   1.315   1.329   5.834
    2PC      HA 3406   1.288   1.433   5.815
    2PC      HB 3407   1.276   1.307   5.933
    2PC     O31 3408   1.457   1.312   5.817
    2PC     P31 3409   1.549   1.388   5.924
    2PC     O32 3410   1.502   1.538   5.893
    2PC     C31 3411   1.506   1.581   5.756
    2PC     H1A 3412   1.612   1.596   5.738
    2PC     H1B 3413   1.460   1.514   5.682
    2PC     C32 3414   1.438   1.718   5.735
    2PC     H2A 3415   1.331   1.708   5.753
    2PC     H2B 3416   1.498   1.785   5.796
    2PC     N31 3417   1.444   1.778   5.597
    2PC     C33 3418   1.583   1.794   5.544
    2PC     H3A 3419   1.638   1.878   5.588
    2PC     H3B 3420   1.645   1.707   5.568
    2PC     H3C 3421   1.581   1.807   5.436
    2PC     C34 3422   1.368   1.687   5.505
    2PC     H4A 3423   1.261   1.695   5.525
    2PC     H4B 3424   1.385   1.716   5.402
    2PC     H4C 3425   1.409   1.587   5.501
    2PC     C35 3426   1.373   1.910   5.600
    2PC     H5A 3427   1.317   1.926   5.507
    2PC     H5B 3428   1.444   1.987   5.631
    2PC     H5C 3429   1.302   1.895   5.681
    2PC     O33 3430   1.543   1.344   6.065
    2PC     O34 3431   1.691   1.387   5.880
    2PC     O21 3432   1.270   1.286   5.601
    2PC     C21 3433   1.384   1.243   5.545
    2PC     O22 3434   1.458   1.158   5.591
    3OL     C12 3435   1.414   1.313   5.415
    3OL     H2R 3436   1.519   1.301   5.391
    3OL     H2S 3437   1.392   1.419   5.431
    3OL     C13 3438   1.333   1.243   5.304
    3OL     H3R 3439   1.231   1.278   5.322
    3OL     H3S 3440   1.341   1.135   5.322
    3OL     C14 3441   1.377   1.286   5.164
    3OL     H4R 3442   1.470   1.230   5.152
    3OL     H4S 3443   1.399   1.392   5.177
    3OL     C15 3444   1.272   1.257   5.055
    3OL     H5R 3445   1.188   1.319   5.089
    3OL     H5S 3446   1.233   1.155   5.058
    3OL     C16 3447   1.320   1.307   4.918
    3OL     H6R 3448   1.416   1.258   4.900
    3OL     H6S 3449   1.332   1.416   4.923
    3OL     C17 3450   1.217   1.279   4.809
    3OL     H7R 3451   1.120   1.325   4.829
    3OL     H7S 3452   1.216   1.170   4.809
    3OL     C18 3453   1.259   1.338   4.673
    3OL     H8R 3454   1.290   1.442   4.677
    3OL     H8S 3455   1.163   1.329   4.621
    3OL     C19 3456   1.363   1.250   4.608
    3OL     H9R 3457   1.343   1.146   4.632
    3OL    C110 3458   1.475   1.287   4.549
    3OL    H10R 3459   1.544   1.209   4.517
    3OL    C111 3460   1.507   1.422   4.488
    3OL    H11R 3461   1.606   1.456   4.518
    3OL    H11S 3462   1.438   1.501   4.518
    3OL    C112 3463   1.515   1.404   4.336
    3OL    H12R 3464   1.413   1.383   4.305
    3OL    H12S 3465   1.576   1.316   4.317
    3OL    C113 3466   1.571   1.522   4.255
    3OL    H13R 3467   1.678   1.523   4.279
    3OL    H13S 3468   1.512   1.613   4.271
    3OL    C114 3469   1.565   1.501   4.103
    3OL    H14R 3470   1.461   1.469   4.090
    3OL    H14S 3471   1.636   1.423   4.075
    3OL    C115 3472   1.605   1.625   4.022
    3OL    H15R 3473   1.705   1.659   4.049
    3OL    H15S 3474   1.545   1.714   4.039
    3OL    C116 3475   1.599   1.589   3.873
    3OL    H16R 3476   1.499   1.560   3.838
    3OL    H16S 3477   1.666   1.510   3.840
    3OL    C117 3478   1.653   1.710   3.794
    3OL    H17R 3479   1.758   1.722   3.824
    3OL    H17S 3480   1.596   1.797   3.824
    3OL    C118 3481   1.640   1.685   3.643
    3OL    H18R 3482   1.679   1.588   3.612
    3OL    H18S 3483   1.683   1.767   3.586
    3OL    H18T 3484   1.532   1.695   3.631
    1PA    C116 3485   1.630   6.075   4.204
    1PA    H16R 3486   1.721   6.025   4.239
    1PA    H16S 3487   1.652   6.143   4.122
    1PA    H16T 3488   1.583   6.127   4.288
    1PA    C115 3489   1.544   5.955   4.163
    1PA    H15R 3490   1.448   5.986   4.121
    1PA    H15S 3491   1.602   5.902   4.087
    1PA    C114 3492   1.517   5.860   4.280
    1PA    H14R 3493   1.478   5.761   4.254
    1PA    H14S 3494   1.613   5.842   4.329
    1PA    C113 3495   1.417   5.910   4.384
    1PA    H13R 3496   1.449   6.003   4.431
    1PA    H13S 3497   1.330   5.945   4.328
    1PA    C112 3498   1.381   5.806   4.491
    1PA    H12R 3499   1.360   5.712   4.439
    1PA    H12S 3500   1.476   5.790   4.542
    1PA    C111 3501   1.263   5.852   4.578
    1PA    H11R 3502   1.277   5.949   4.626
    1PA    H11S 3503   1.172   5.878   4.522
    1PA    C110 3504   1.232   5.746   4.684
    1PA    H10R 3505   1.212   5.649   4.639
    1PA    H10S 3506   1.315   5.722   4.751
    1PA     C19 3507   1.112   5.785   4.772
    1PA     H9R 3508   1.111   5.882   4.822
    1PA     H9S 3509   1.023   5.772   4.711
    1PA     C18 3510   1.103   5.686   4.889
    1PA     H8R 3511   1.111   5.580   4.865
    1PA     H8S 3512   1.185   5.710   4.957
    1PA     C17 3513   0.977   5.705   4.976
    1PA     H7R 3514   0.970   5.810   5.006
    1PA     H7S 3515   0.892   5.667   4.919
    1PA     C16 3516   0.985   5.626   5.107
    1PA     H6R 3517   0.986   5.520   5.082
    1PA     H6S 3518   1.075   5.643   5.167
    1PA     C15 3519   0.863   5.656   5.196
    1PA     H5R 3520   0.874   5.752   5.247
    1PA     H5S 3521   0.776   5.650   5.131
    1PA     C14 3522   0.835   5.545   5.298
    1PA     H4R 3523   0.826   5.452   5.242
    1PA     H4S 3524   0.924   5.537   5.361
    1PA     C13 3525   0.707   5.585   5.371
    1PA     H3R 3526   0.713   5.676   5.431
    1PA     H3S 3527   0.628   5.602   5.297
    1PA     C12 3528   0.667   5.466   5.460
    1PA     H2R 3529   0.640   5.385   5.392
    1PA     H2S 3530   0.756   5.426   5.510
    2PC     C11 3531   0.568   5.511   5.564
    2PC     O12 3532   0.587   5.598   5.647
    2PC     O11 3533   0.458   5.436   5.549
    2PC      C1 3534   0.350   5.459   5.643
    2PC      HR 3535   0.382   5.452   5.747
    2PC      HS 3536   0.318   5.563   5.636
    2PC      C2 3537   0.235   5.368   5.597
    2PC      HX 3538   0.160   5.372   5.676
    2PC      C3 3539   0.278   5.222   5.581
    2PC      HA 3540   0.327   5.206   5.484
    2PC      HB 3541   0.353   5.202   5.659
    2PC     O31 3542   0.170   5.127   5.587
    2PC     P31 3543   0.131   5.057   5.726
    2PC     O32 3544  -0.012   4.994   5.692
    2PC     C31 3545  -0.133   5.071   5.686
    2PC     H1A 3546  -0.166   5.101   5.786
    2PC     H1B 3547  -0.124   5.163   5.628
    2PC     C32 3548  -0.232   4.973   5.621
    2PC     H2A 3549  -0.320   5.035   5.601
    2PC     H2B 3550  -0.184   4.937   5.529
    2PC     N31 3551  -0.276   4.847   5.689
    2PC     C33 3552  -0.390   4.783   5.616
    2PC     H3A 3553  -0.414   4.690   5.668
    2PC     H3B 3554  -0.481   4.843   5.619
    2PC     H3C 3555  -0.352   4.772   5.514
    2PC     C34 3556  -0.171   4.740   5.699
    2PC     H4A 3557  -0.088   4.804   5.732
    2PC     H4B 3558  -0.212   4.671   5.772
    2PC     H4C 3559  -0.161   4.701   5.598
    2PC     C35 3560  -0.334   4.881   5.822
    2PC     H5A 3561  -0.399   4.800   5.855
    2PC     H5B 3562  -0.394   4.972   5.815
    2PC     H5C 3563  -0.253   4.893   5.895
    2PC     O33 3564   0.227   4.949   5.760
    2PC     O34 3565   0.112   5.158   5.832
    2PC     O21 3566   0.182   5.399   5.466
    2PC     C21 3567   0.114   5.513   5.448
    2PC     O22 3568   0.105   5.606   5.526
    3OL     C12 3569   0.066   5.522   5.306
    3OL     H2R 3570  -0.033   5.476   5.299
    3OL     H2S 3571   0.132   5.462   5.243
    3OL     C13 3572   0.052   5.663   5.248
    3OL     H3R 3573  -0.016   5.727   5.305
    3OL     H3S 3574   0.009   5.648   5.149
    3OL     C14 3575   0.187   5.736   5.234
    3OL     H4R 3576   0.246   5.677   5.163
    3OL     H4S 3577   0.237   5.731   5.331
    3OL     C15 3578   0.165   5.878   5.181
    3OL     H5R 3579   0.108   5.911   5.268
    3OL     H5S 3580   0.099   5.876   5.094
    3OL     C16 3581   0.297   5.953   5.162
    3OL     H6R 3582   0.366   5.911   5.088
    3OL     H6S 3583   0.359   5.949   5.252
    3OL     C17 3584   0.275   6.102   5.130
    3OL     H7R 3585   0.375   6.139   5.110
    3OL     H7S 3586   0.227   6.153   5.214
    3OL     C18 3587   0.198   6.117   4.998
    3OL     H8R 3588   0.098   6.074   5.009
    3OL     H8S 3589   0.249   6.063   4.918
    3OL     C19 3590   0.174   6.263   4.968
    3OL     H9R 3591   0.183   6.333   5.051
    3OL    C110 3592   0.171   6.319   4.848
    3OL    H10R 3593   0.162   6.427   4.837
    3OL    C111 3594   0.180   6.248   4.716
    3OL    H11R 3595   0.088   6.264   4.659
    3OL    H11S 3596   0.194   6.140   4.726
    3OL    C112 3597   0.306   6.302   4.647
    3OL    H12R 3598   0.387   6.279   4.717
    3OL    H12S 3599   0.292   6.410   4.646
    3OL    C113 3600   0.340   6.236   4.512
    3OL    H13R 3601   0.259   6.246   4.439
    3OL    H13S 3602   0.349   6.127   4.514
    3OL    C114 3603   0.474   6.291   4.462
    3OL    H14R 3604   0.548   6.265   4.538
    3OL    H14S 3605   0.462   6.399   4.451
    3OL    C115 3606   0.533   6.233   4.334
    3OL    H15R 3607   0.459   6.263   4.259
    3OL    H15S 3608   0.535   6.125   4.351
    3OL    C116 3609   0.671   6.296   4.313
    3OL    H16R 3610   0.732   6.274   4.401
    3OL    H16S 3611   0.654   6.402   4.298
    3OL    C117 3612   0.746   6.240   4.191
    3OL    H17R 3613   0.824   6.310   4.162
    3OL    H17S 3614   0.686   6.212   4.104
    3OL    C118 3615   0.831   6.118   4.230
    3OL    H18R 3616   0.900   6.145   4.310
    3OL    H18S 3617   0.892   6.083   4.146
    3OL    H18T 3618   0.766   6.044   4.277
    1PA    C116 3619   1.413   2.467   4.473
    1PA    H16R 3620   1.444   2.567   4.503
    1PA    H16S 3621   1.398   2.421   4.571
    1PA    H16T 3622   1.312   2.477   4.432
    1PA    C115 3623   1.513   2.400   4.378
    1PA    H15R 3624   1.488   2.295   4.361
    1PA    H15S 3625   1.517   2.456   4.285
    1PA    C114 3626   1.658   2.415   4.426
    1PA    H14R 3627   1.724   2.355   4.363
    1PA    H14S 3628   1.693   2.518   4.413
    1PA    C113 3629   1.685   2.365   4.568
    1PA    H13R 3630   1.600   2.322   4.622
    1PA    H13S 3631   1.767   2.295   4.557
    1PA    C112 3632   1.733   2.481   4.657
    1PA    H12R 3633   1.820   2.535   4.619
    1PA    H12S 3634   1.655   2.557   4.668
    1PA    C111 3635   1.774   2.425   4.794
    1PA    H11R 3636   1.767   2.508   4.864
    1PA    H11S 3637   1.709   2.343   4.825
    1PA    C110 3638   1.917   2.376   4.817
    1PA    H10R 3639   1.927   2.289   4.751
    1PA    H10S 3640   1.983   2.452   4.774
    1PA     C19 3641   1.969   2.339   4.956
    1PA     H9R 3642   1.890   2.299   5.020
    1PA     H9S 3643   2.050   2.266   4.955
    1PA     C18 3644   2.024   2.462   5.030
    1PA     H8R 3645   2.110   2.489   4.968
    1PA     H8S 3646   1.955   2.546   5.038
    1PA     C17 3647   2.076   2.422   5.169
    1PA     H7R 3648   1.996   2.387   5.235
    1PA     H7S 3649   2.151   2.345   5.154
    1PA     C16 3650   2.151   2.534   5.243
    1PA     H6R 3651   2.248   2.532   5.192
    1PA     H6S 3652   2.105   2.631   5.223
    1PA     C15 3653   2.177   2.502   5.391
    1PA     H5R 3654   2.081   2.516   5.440
    1PA     H5S 3655   2.205   2.396   5.393
    1PA     C14 3656   2.285   2.603   5.433
    1PA     H4R 3657   2.382   2.576   5.391
    1PA     H4S 3658   2.248   2.702   5.407
    1PA     C13 3659   2.306   2.605   5.586
    1PA     H3R 3660   2.208   2.616   5.634
    1PA     H3S 3661   2.349   2.513   5.627
    1PA     C12 3662   2.404   2.712   5.633
    1PA     H2R 3663   2.498   2.694   5.580
    1PA     H2S 3664   2.363   2.811   5.611
    2PC     C11 3665   2.416   2.709   5.784
    2PC     O12 3666   2.509   2.647   5.831
    2PC     O11 3667   2.314   2.770   5.845
    2PC      C1 3668   2.311   2.775   5.989
    2PC      HR 3669   2.206   2.773   6.021
    2PC      HS 3670   2.360   2.685   6.028
    2PC      C2 3671   2.385   2.900   6.038
    2PC      HX 3672   2.487   2.893   5.999
    2PC      C3 3673   2.382   2.925   6.189
    2PC      HA 3674   2.281   2.918   6.229
    2PC      HB 3675   2.438   2.850   6.246
    2PC     O31 3676   2.436   3.055   6.219
    2PC     P31 3677   2.447   3.109   6.369
    2PC     O32 3678   2.596   3.075   6.418
    2PC     C31 3679   2.609   2.957   6.499
    2PC     H1A 3680   2.530   2.956   6.575
    2PC     H1B 3681   2.596   2.864   6.442
    2PC     C32 3682   2.744   2.954   6.572
    2PC     H2A 3683   2.825   2.985   6.507
    2PC     H2B 3684   2.742   3.026   6.654
    2PC     N31 3685   2.788   2.825   6.635
    2PC     C33 3686   2.835   2.720   6.540
    2PC     H3A 3687   2.901   2.757   6.461
    2PC     H3B 3688   2.878   2.640   6.600
    2PC     H3C 3689   2.741   2.689   6.493
    2PC     C34 3690   2.909   2.865   6.715
    2PC     H4A 3691   2.886   2.937   6.795
    2PC     H4B 3692   2.963   2.776   6.745
    2PC     H4C 3693   2.974   2.919   6.647
    2PC     C35 3694   2.687   2.771   6.731
    2PC     H5A 3695   2.667   2.847   6.806
    2PC     H5B 3696   2.740   2.688   6.779
    2PC     H5C 3697   2.597   2.742   6.676
    2PC     O33 3698   2.422   3.255   6.373
    2PC     O34 3699   2.345   3.047   6.457
    2PC     O21 3700   2.332   3.016   5.970
    2PC     C21 3701   2.203   3.051   5.985
    2PC     O22 3702   2.126   2.995   6.060
    3OL     C12 3703   2.167   3.173   5.903
    3OL     H2R 3704   2.139   3.252   5.973
    3OL     H2S 3705   2.075   3.147   5.850
    3OL     C13 3706   2.272   3.218   5.801
    3OL     H3R 3707   2.259   3.158   5.710
    3OL     H3S 3708   2.375   3.193   5.828
    3OL     C14 3709   2.267   3.369   5.771
    3OL     H4R 3710   2.308   3.425   5.855
    3OL     H4S 3711   2.160   3.390   5.758
    3OL     C15 3712   2.353   3.425   5.658
    3OL     H5R 3713   2.458   3.413   5.686
    3OL     H5S 3714   2.332   3.530   5.635
    3OL     C16 3715   2.324   3.357   5.523
    3OL     H6R 3716   2.220   3.373   5.493
    3OL     H6S 3717   2.341   3.249   5.523
    3OL     C17 3718   2.399   3.420   5.405
    3OL     H7R 3719   2.502   3.388   5.424
    3OL     H7S 3720   2.389   3.529   5.411
    3OL     C18 3721   2.345   3.389   5.265
    3OL     H8R 3722   2.236   3.400   5.267
    3OL     H8S 3723   2.368   3.290   5.225
    3OL     C19 3724   2.395   3.497   5.173
    3OL     H9R 3725   2.340   3.590   5.176
    3OL    C110 3726   2.497   3.489   5.088
    3OL    H10R 3727   2.520   3.578   5.030
    3OL    C111 3728   2.575   3.365   5.055
    3OL    H11R 3729   2.621   3.319   5.143
    3OL    H11S 3730   2.660   3.396   4.995
    3OL    C112 3731   2.491   3.268   4.971
    3OL    H12R 3732   2.450   3.326   4.887
    3OL    H12S 3733   2.411   3.222   5.030
    3OL    C113 3734   2.588   3.166   4.911
    3OL    H13R 3735   2.653   3.112   4.981
    3OL    H13S 3736   2.669   3.224   4.868
    3OL    C114 3737   2.519   3.067   4.816
    3OL    H14R 3738   2.597   3.018   4.758
    3OL    H14S 3739   2.452   3.120   4.748
    3OL    C115 3740   2.431   2.963   4.887
    3OL    H15R 3741   2.361   3.015   4.953
    3OL    H15S 3742   2.493   2.891   4.941
    3OL    C116 3743   2.353   2.886   4.780
    3OL    H16R 3744   2.425   2.829   4.722
    3OL    H16S 3745   2.299   2.952   4.712
    3OL    C117 3746   2.262   2.783   4.849
    3OL    H17R 3747   2.187   2.826   4.916
    3OL    H17S 3748   2.330   2.731   4.917
    3OL    C118 3749   2.198   2.692   4.743
    3OL    H18R 3750   2.213   2.585   4.759
    3OL    H18S 3751   2.236   2.717   4.644
    3OL    H18T 3752   2.093   2.719   4.730
    1PA    C116 3753   3.620   2.944   4.257
    1PA    H16R 3754   3.632   2.841   4.223
    1PA    H16S 3755   3.685   3.020   4.212
    1PA    H16T 3756   3.513   2.963   4.246
    1PA    C115 3757   3.655   2.946   4.406
    1PA    H15R 3758   3.756   2.919   4.440
    1PA    H15S 3759   3.646   3.047   4.445
    1PA    C114 3760   3.562   2.846   4.477
    1PA    H14R 3761   3.458   2.870   4.458
    1PA    H14S 3762   3.567   2.743   4.441
    1PA    C113 3763   3.593   2.846   4.628
    1PA    H13R 3764   3.688   2.793   4.638
    1PA    H13S 3765   3.600   2.950   4.661
    1PA    C112 3766   3.490   2.762   4.704
    1PA    H12R 3767   3.393   2.811   4.696
    1PA    H12S 3768   3.482   2.664   4.656
    1PA    C111 3769   3.525   2.748   4.852
    1PA    H11R 3770   3.624   2.702   4.861
    1PA    H11S 3771   3.536   2.840   4.910
    1PA    C110 3772   3.415   2.667   4.922
    1PA    H10R 3773   3.325   2.727   4.931
    1PA    H10S 3774   3.393   2.571   4.873
    1PA     C19 3775   3.452   2.637   5.068
    1PA     H9R 3776   3.538   2.570   5.067
    1PA     H9S 3777   3.480   2.732   5.116
    1PA     C18 3778   3.332   2.571   5.138
    1PA     H8R 3779   3.255   2.648   5.134
    1PA     H8S 3780   3.303   2.485   5.078
    1PA     C17 3781   3.371   2.546   5.285
    1PA     H7R 3782   3.341   2.443   5.304
    1PA     H7S 3783   3.480   2.552   5.293
    1PA     C16 3784   3.309   2.645   5.386
    1PA     H6R 3785   3.204   2.654   5.360
    1PA     H6S 3786   3.324   2.593   5.481
    1PA     C15 3787   3.385   2.778   5.386
    1PA     H5R 3788   3.487   2.746   5.407
    1PA     H5S 3789   3.382   2.823   5.286
    1PA     C14 3790   3.322   2.861   5.499
    1PA     H4R 3791   3.222   2.880   5.460
    1PA     H4S 3792   3.305   2.798   5.586
    1PA     C13 3793   3.395   2.994   5.523
    1PA     H3R 3794   3.422   3.045   5.430
    1PA     H3S 3795   3.320   3.061   5.565
    1PA     C12 3796   3.519   2.985   5.614
    1PA     H2R 3797   3.483   2.955   5.712
    1PA     H2S 3798   3.597   2.920   5.574
    2PC     C11 3799   3.567   3.128   5.622
    2PC     O12 3800   3.678   3.157   5.584
    2PC     O11 3801   3.482   3.214   5.681
    2PC      C1 3802   3.521   3.351   5.661
    2PC      HR 3803   3.620   3.370   5.702
    2PC      HS 3804   3.531   3.383   5.557
    2PC      C2 3805   3.408   3.435   5.724
    2PC      HX 3806   3.395   3.535   5.683
    2PC      C3 3807   3.429   3.446   5.875
    2PC      HA 3808   3.512   3.516   5.888
    2PC      HB 3809   3.339   3.494   5.914
    2PC     O31 3810   3.451   3.315   5.930
    2PC     P31 3811   3.490   3.316   6.086
    2PC     O32 3812   3.546   3.166   6.098
    2PC     C31 3813   3.681   3.142   6.056
    2PC     H1A 3814   3.702   3.177   5.954
    2PC     H1B 3815   3.738   3.194   6.133
    2PC     C32 3816   3.706   2.991   6.065
    2PC     H2A 3817   3.728   2.971   6.170
    2PC     H2B 3818   3.624   2.929   6.026
    2PC     N31 3819   3.826   2.935   5.995
    2PC     C33 3820   3.953   3.010   6.022
    2PC     H3A 3821   3.937   3.117   6.010
    2PC     H3B 3822   3.982   2.992   6.126
    2PC     H3C 3823   4.017   2.965   5.946
    2PC     C34 3824   3.843   2.793   6.040
    2PC     H4A 3825   3.884   2.806   6.140
    2PC     H4B 3826   3.740   2.759   6.050
    2PC     H4C 3827   3.917   2.749   5.974
    2PC     C35 3828   3.799   2.924   5.848
    2PC     H5A 3829   3.888   2.888   5.796
    2PC     H5B 3830   3.782   3.027   5.815
    2PC     H5C 3831   3.709   2.865   5.831
    2PC     O33 3832   3.591   3.422   6.109
    2PC     O34 3833   3.374   3.337   6.175
    2PC     O21 3834   3.282   3.368   5.703
    2PC     C21 3835   3.223   3.385   5.584
    2PC     O22 3836   3.263   3.470   5.506
    3OL     C12 3837   3.103   3.295   5.566
    3OL     H2R 3838   3.005   3.343   5.568
    3OL     H2S 3839   3.094   3.216   5.640
    3OL     C13 3840   3.111   3.228   5.429
    3OL     H3R 3841   3.199   3.163   5.427
    3OL     H3S 3842   3.125   3.309   5.357
    3OL     C14 3843   2.979   3.158   5.394
    3OL     H4R 3844   2.888   3.217   5.411
    3OL     H4S 3845   2.970   3.073   5.462
    3OL     C15 3846   2.980   3.110   5.248
    3OL     H5R 3847   3.009   3.195   5.186
    3OL     H5S 3848   2.879   3.091   5.210
    3OL     C16 3849   3.059   2.981   5.223
    3OL     H6R 3850   3.015   2.895   5.276
    3OL     H6S 3851   3.157   2.997   5.267
    3OL     C17 3852   3.057   2.932   5.077
    3OL     H7R 3853   2.960   2.917   5.030
    3OL     H7S 3854   3.104   2.834   5.073
    3OL     C18 3855   3.132   3.028   4.984
    3OL     H8R 3856   3.116   3.132   5.013
    3OL     H8S 3857   3.102   3.010   4.881
    3OL     C19 3858   3.281   3.002   4.990
    3OL     H9R 3859   3.309   2.958   5.085
    3OL    C110 3860   3.364   3.046   4.897
    3OL    H10R 3861   3.469   3.025   4.911
    3OL    C111 3862   3.317   3.102   4.764
    3OL    H11R 3863   3.214   3.139   4.772
    3OL    H11S 3864   3.318   3.019   4.694
    3OL    C112 3865   3.415   3.207   4.711
    3OL    H12R 3866   3.515   3.165   4.710
    3OL    H12S 3867   3.412   3.297   4.772
    3OL    C113 3868   3.375   3.262   4.573
    3OL    H13R 3869   3.459   3.323   4.539
    3OL    H13S 3870   3.284   3.323   4.577
    3OL    C114 3871   3.352   3.163   4.458
    3OL    H14R 3872   3.277   3.090   4.490
    3OL    H14S 3873   3.450   3.124   4.428
    3OL    C115 3874   3.279   3.231   4.342
    3OL    H15R 3875   3.318   3.331   4.320
    3OL    H15S 3876   3.182   3.260   4.381
    3OL    C116 3877   3.272   3.133   4.224
    3OL    H16R 3878   3.200   3.058   4.257
    3OL    H16S 3879   3.378   3.110   4.211
    3OL    C117 3880   3.232   3.194   4.088
    3OL    H17R 3881   3.131   3.229   4.109
    3OL    H17S 3882   3.219   3.111   4.018
    3OL    C118 3883   3.333   3.293   4.029
    3OL    H18R 3884   3.300   3.346   3.939
    3OL    H18S 3885   3.423   3.235   4.003
    3OL    H18T 3886   3.352   3.374   4.099
    1PA    C116 3887   1.525  -0.002   4.167
    1PA    H16R 3888   1.491  -0.103   4.188
    1PA    H16S 3889   1.632  -0.007   4.182
    1PA    H16T 3890   1.506   0.026   4.063
    1PA    C115 3891   1.485   0.104   4.271
    1PA    H15R 3892   1.511   0.205   4.239
    1PA    H15S 3893   1.376   0.107   4.280
    1PA    C114 3894   1.548   0.066   4.406
    1PA    H14R 3895   1.505  -0.028   4.442
    1PA    H14S 3896   1.650   0.035   4.385
    1PA    C113 3897   1.533   0.169   4.519
    1PA    H13R 3898   1.591   0.259   4.497
    1PA    H13S 3899   1.427   0.190   4.533
    1PA    C112 3900   1.582   0.122   4.656
    1PA    H12R 3901   1.571   0.015   4.678
    1PA    H12S 3902   1.690   0.138   4.657
    1PA    C111 3903   1.524   0.198   4.776
    1PA    H11R 3904   1.557   0.301   4.772
    1PA    H11S 3905   1.416   0.182   4.771
    1PA    C110 3906   1.587   0.141   4.904
    1PA    H10R 3907   1.565   0.036   4.926
    1PA    H10S 3908   1.692   0.166   4.894
    1PA     C19 3909   1.520   0.215   5.021
    1PA     H9R 3910   1.541   0.322   5.021
    1PA     H9S 3911   1.411   0.210   5.013
    1PA     C18 3912   1.576   0.151   5.149
    1PA     H8R 3913   1.548   0.045   5.152
    1PA     H8S 3914   1.684   0.163   5.145
    1PA     C17 3915   1.537   0.229   5.275
    1PA     H7R 3916   1.597   0.203   5.363
    1PA     H7S 3917   1.556   0.335   5.258
    1PA     C16 3918   1.390   0.213   5.316
    1PA     H6R 3919   1.323   0.256   5.241
    1PA     H6S 3920   1.352   0.110   5.319
    1PA     C15 3921   1.365   0.283   5.450
    1PA     H5R 3922   1.432   0.229   5.518
    1PA     H5S 3923   1.411   0.382   5.445
    1PA     C14 3924   1.219   0.289   5.495
    1PA     H4R 3925   1.146   0.332   5.426
    1PA     H4S 3926   1.177   0.189   5.503
    1PA     C13 3927   1.214   0.362   5.630
    1PA     H3R 3928   1.259   0.295   5.703
    1PA     H3S 3929   1.259   0.461   5.618
    1PA     C12 3930   1.070   0.376   5.682
    1PA     H2R 3931   1.025   0.471   5.652
    1PA     H2S 3932   1.011   0.288   5.654
    2PC     C11 3933   1.054   0.395   5.830
    2PC     O12 3934   1.128   0.468   5.894
    2PC     O11 3935   0.948   0.329   5.877
    2PC      C1 3936   0.896   0.336   6.011
    2PC      HR 3937   0.824   0.254   6.002
    2PC      HS 3938   0.972   0.312   6.085
    2PC      C2 3939   0.834   0.475   6.038
    2PC      HX 3940   0.906   0.556   6.025
    2PC      C3 3941   0.766   0.475   6.176
    2PC      HA 3942   0.667   0.430   6.183
    2PC      HB 3943   0.837   0.429   6.245
    2PC     O31 3944   0.747   0.615   6.204
    2PC     P31 3945   0.667   0.651   6.339
    2PC     O32 3946   0.668   0.810   6.324
    2PC     C31 3947   0.793   0.879   6.304
    2PC     H1A 3948   0.859   0.833   6.378
    2PC     H1B 3949   0.834   0.865   6.203
    2PC     C32 3950   0.778   1.028   6.334
    2PC     H2A 3951   0.768   1.051   6.441
    2PC     H2B 3952   0.878   1.064   6.308
    2PC     N31 3953   0.680   1.106   6.252
    2PC     C33 3954   0.693   1.254   6.269
    2PC     H3A 3955   0.605   1.300   6.225
    2PC     H3B 3956   0.680   1.265   6.377
    2PC     H3C 3957   0.791   1.283   6.230
    2PC     C34 3958   0.705   1.073   6.108
    2PC     H4A 3959   0.630   1.121   6.044
    2PC     H4B 3960   0.805   1.108   6.085
    2PC     H4C 3961   0.695   0.964   6.109
    2PC     C35 3962   0.540   1.065   6.285
    2PC     H5A 3963   0.522   0.962   6.252
    2PC     H5B 3964   0.476   1.120   6.216
    2PC     H5C 3965   0.513   1.086   6.389
    2PC     O33 3966   0.528   0.600   6.341
    2PC     O34 3967   0.734   0.617   6.466
    2PC     O21 3968   0.738   0.499   5.934
    2PC     C21 3969   0.623   0.434   5.912
    2PC     O22 3970   0.577   0.347   5.983
    3OL     C12 3971   0.568   0.470   5.777
    3OL     H2R 3972   0.542   0.576   5.771
    3OL     H2S 3973   0.479   0.409   5.755
    3OL     C13 3974   0.658   0.429   5.659
    3OL     H3R 3975   0.670   0.320   5.659
    3OL     H3S 3976   0.755   0.476   5.676
    3OL     C14 3977   0.597   0.488   5.531
    3OL     H4R 3978   0.490   0.470   5.518
    3OL     H4S 3979   0.627   0.428   5.445
    3OL     C15 3980   0.636   0.632   5.495
    3OL     H5R 3981   0.713   0.651   5.571
    3OL     H5S 3982   0.546   0.693   5.510
    3OL     C16 3983   0.690   0.651   5.353
    3OL     H6R 3984   0.611   0.637   5.278
    3OL     H6S 3985   0.779   0.591   5.335
    3OL     C17 3986   0.746   0.792   5.332
    3OL     H7R 3987   0.831   0.803   5.401
    3OL     H7S 3988   0.669   0.862   5.364
    3OL     C18 3989   0.785   0.831   5.189
    3OL     H8R 3990   0.821   0.934   5.190
    3OL     H8S 3991   0.693   0.841   5.132
    3OL     C19 3992   0.880   0.728   5.132
    3OL     H9R 3993   0.849   0.624   5.133
    3OL    C110 3994   1.000   0.758   5.084
    3OL    H10R 3995   1.064   0.672   5.064
    3OL    C111 3996   1.067   0.892   5.080
    3OL    H11R 3997   1.175   0.878   5.070
    3OL    H11S 3998   1.055   0.951   5.171
    3OL    C112 3999   1.013   0.968   4.957
    3OL    H12R 4000   1.038   1.075   4.953
    3OL    H12S 4001   0.904   0.965   4.956
    3OL    C113 4002   1.065   0.926   4.819
    3OL    H13R 4003   1.062   0.817   4.813
    3OL    H13S 4004   1.169   0.955   4.811
    3OL    C114 4005   0.985   1.003   4.713
    3OL    H14R 4006   0.975   1.109   4.735
    3OL    H14S 4007   0.885   0.960   4.705
    3OL    C115 4008   1.055   0.992   4.577
    3OL    H15R 4009   1.061   0.887   4.548
    3OL    H15S 4010   1.158   1.028   4.589
    3OL    C116 4011   0.977   1.065   4.466
    3OL    H16R 4012   0.953   1.168   4.496
    3OL    H16S 4013   0.885   1.013   4.440
    3OL    C117 4014   1.069   1.058   4.343
    3OL    H17R 4015   1.085   0.955   4.310
    3OL    H17S 4016   1.169   1.096   4.360
    3OL    C118 4017   0.997   1.135   4.232
    3OL    H18R 4018   1.063   1.127   4.145
    3OL    H18S 4019   1.006   1.243   4.252
    3OL    H18T 4020   0.892   1.108   4.222
    1PA    C116 4021   3.149   4.687   3.876
    1PA    H16R 4022   3.246   4.657   3.835
    1PA    H16S 4023   3.116   4.778   3.825
    1PA    H16T 4024   3.066   4.616   3.869
    1PA    C115 4025   3.165   4.726   4.024
    1PA    H15R 4026   3.252   4.791   4.022
    1PA    H15S 4027   3.071   4.777   4.047
    1PA    C114 4028   3.185   4.604   4.115
    1PA    H14R 4029   3.091   4.550   4.124
    1PA    H14S 4030   3.257   4.536   4.069
    1PA    C113 4031   3.236   4.635   4.257
    1PA    H13R 4032   3.338   4.674   4.245
    1PA    H13S 4033   3.179   4.719   4.296
    1PA    C112 4034   3.232   4.516   4.353
    1PA    H12R 4035   3.133   4.476   4.331
    1PA    H12S 4036   3.309   4.442   4.332
    1PA    C111 4037   3.241   4.553   4.502
    1PA    H11R 4038   3.333   4.606   4.526
    1PA    H11S 4039   3.170   4.635   4.519
    1PA    C110 4040   3.225   4.426   4.586
    1PA    H10R 4041   3.140   4.375   4.541
    1PA    H10S 4042   3.316   4.368   4.567
    1PA     C19 4043   3.218   4.454   4.737
    1PA     H9R 4044   3.313   4.486   4.779
    1PA     H9S 4045   3.148   4.535   4.757
    1PA     C18 4046   3.171   4.325   4.806
    1PA     H8R 4047   3.075   4.299   4.762
    1PA     H8S 4048   3.237   4.239   4.788
    1PA     C17 4049   3.144   4.338   4.956
    1PA     H7R 4050   3.102   4.436   4.980
    1PA     H7S 4051   3.077   4.263   4.998
    1PA     C16 4052   3.280   4.327   5.026
    1PA     H6R 4053   3.333   4.234   5.007
    1PA     H6S 4054   3.341   4.412   4.993
    1PA     C15 4055   3.274   4.344   5.178
    1PA     H5R 4056   3.229   4.442   5.196
    1PA     H5S 4057   3.212   4.266   5.223
    1PA     C14 4058   3.408   4.347   5.252
    1PA     H4R 4059   3.450   4.246   5.244
    1PA     H4S 4060   3.467   4.425   5.205
    1PA     C13 4061   3.396   4.394   5.398
    1PA     H3R 4062   3.489   4.409   5.453
    1PA     H3S 4063   3.350   4.492   5.407
    1PA     C12 4064   3.319   4.283   5.472
    1PA     H2R 4065   3.210   4.294   5.469
    1PA     H2S 4066   3.349   4.183   5.440
    2PC     C11 4067   3.356   4.302   5.617
    2PC     O12 4068   3.354   4.409   5.674
    2PC     O11 4069   3.397   4.192   5.683
    2PC      C1 4070   3.443   4.199   5.819
    2PC      HR 4071   3.524   4.272   5.822
    2PC      HS 4072   3.364   4.245   5.878
    2PC      C2 4073   3.473   4.061   5.879
    2PC      HX 4074   3.391   3.990   5.862
    2PC      C3 4075   3.500   4.069   6.030
    2PC      HA 4076   3.417   4.121   6.078
    2PC      HB 4077   3.514   3.968   6.070
    2PC     O31 4078   3.624   4.134   6.065
    2PC     P31 4079   3.647   4.164   6.221
    2PC     O32 4080   3.787   4.089   6.236
    2PC     C31 4081   3.797   3.951   6.196
    2PC     H1A 4082   3.735   3.894   6.265
    2PC     H1B 4083   3.754   3.929   6.098
    2PC     C32 4084   3.944   3.906   6.197
    2PC     H2A 4085   4.006   3.970   6.133
    2PC     H2B 4086   3.995   3.931   6.290
    2PC     N31 4087   3.979   3.764   6.164
    2PC     C33 4088   4.128   3.750   6.173
    2PC     H3A 4089   4.166   3.780   6.271
    2PC     H3B 4090   4.162   3.650   6.148
    2PC     H3C 4091   4.189   3.816   6.110
    2PC     C34 4092   3.913   3.663   6.252
    2PC     H4A 4093   3.983   3.579   6.252
    2PC     H4B 4094   3.906   3.694   6.356
    2PC     H4C 4095   3.816   3.633   6.212
    2PC     C35 4096   3.940   3.728   6.024
    2PC     H5A 4097   3.974   3.808   5.959
    2PC     H5B 4098   3.833   3.713   6.006
    2PC     H5C 4099   3.987   3.633   6.001
    2PC     O33 4100   3.645   4.311   6.244
    2PC     O34 4101   3.540   4.096   6.298
    2PC     O21 4102   3.585   4.002   5.810
    2PC     C21 4103   3.611   3.871   5.819
    2PC     O22 4104   3.553   3.786   5.884
    3OL     C12 4105   3.733   3.837   5.737
    3OL     H2R 4106   3.820   3.864   5.799
    3OL     H2S 4107   3.731   3.893   5.644
    3OL     C13 4108   3.724   3.691   5.692
    3OL     H3R 4109   3.627   3.663   5.651
    3OL     H3S 4110   3.756   3.625   5.773
    3OL     C14 4111   3.811   3.674   5.566
    3OL     H4R 4112   3.908   3.718   5.586
    3OL     H4S 4113   3.772   3.737   5.485
    3OL     C15 4114   3.824   3.528   5.520
    3OL     H5R 4115   3.726   3.490   5.491
    3OL     H5S 4116   3.844   3.468   5.609
    3OL     C16 4117   3.924   3.503   5.406
    3OL     H6R 4118   4.024   3.536   5.433
    3OL     H6S 4119   3.905   3.570   5.322
    3OL     C17 4120   3.945   3.357   5.362
    3OL     H7R 4121   3.850   3.307   5.344
    3OL     H7S 4122   3.979   3.312   5.455
    3OL     C18 4123   4.050   3.329   5.254
    3OL     H8R 4124   4.055   3.220   5.247
    3OL     H8S 4125   4.150   3.369   5.272
    3OL     C19 4126   3.998   3.380   5.121
    3OL     H9R 4127   3.895   3.414   5.116
    3OL    C110 4128   4.075   3.393   5.015
    3OL    H10R 4129   4.037   3.442   4.926
    3OL    C111 4130   4.222   3.358   5.007
    3OL    H11R 4131   4.268   3.316   5.096
    3OL    H11S 4132   4.274   3.450   4.978
    3OL    C112 4133   4.232   3.258   4.891
    3OL    H12R 4134   4.174   3.294   4.806
    3OL    H12S 4135   4.175   3.169   4.918
    3OL    C113 4136   4.373   3.212   4.851
    3OL    H13R 4137   4.372   3.125   4.784
    3OL    H13S 4138   4.428   3.191   4.943
    3OL    C114 4139   4.453   3.320   4.777
    3OL    H14R 4140   4.479   3.405   4.839
    3OL    H14S 4141   4.393   3.353   4.692
    3OL    C115 4142   4.574   3.274   4.694
    3OL    H15R 4143   4.629   3.353   4.642
    3OL    H15S 4144   4.550   3.205   4.614
    3OL    C116 4145   4.670   3.199   4.788
    3OL    H16R 4146   4.620   3.123   4.848
    3OL    H16S 4147   4.715   3.268   4.859
    3OL    C117 4148   4.786   3.142   4.705
    3OL    H17R 4149   4.870   3.132   4.774
    3OL    H17S 4150   4.809   3.219   4.631
    3OL    C118 4151   4.755   3.011   4.632
    3OL    H18R 4152   4.679   2.953   4.685
    3OL    H18S 4153   4.848   2.963   4.602
    3OL    H18T 4154   4.695   3.031   4.543
    1PA    C116 4155   5.417   0.823   3.985
    1PA    H16R 4156   5.332   0.888   3.962
    1PA    H16S 4157   5.388   0.726   3.944
    1PA    H16T 4158   5.505   0.868   3.938
    1PA    C115 4159   5.427   0.815   4.138
    1PA    H15R 4160   5.335   0.764   4.166
    1PA    H15S 4161   5.523   0.768   4.159
    1PA    C114 4162   5.416   0.955   4.200
    1PA    H14R 4163   5.515   1.000   4.185
    1PA    H14S 4164   5.344   1.018   4.148
    1PA    C113 4165   5.380   0.963   4.349
    1PA    H13R 4166   5.388   1.065   4.387
    1PA    H13S 4167   5.276   0.943   4.374
    1PA    C112 4168   5.482   0.884   4.431
    1PA    H12R 4169   5.458   0.777   4.431
    1PA    H12S 4170   5.585   0.902   4.398
    1PA    C111 4171   5.466   0.925   4.578
    1PA    H11R 4172   5.458   1.034   4.575
    1PA    H11S 4173   5.368   0.898   4.619
    1PA    C110 4174   5.584   0.888   4.668
    1PA    H10R 4175   5.599   0.780   4.663
    1PA    H10S 4176   5.674   0.936   4.628
    1PA     C19 4177   5.546   0.932   4.810
    1PA     H9R 4178   5.539   1.040   4.821
    1PA     H9S 4179   5.447   0.893   4.830
    1PA     C18 4180   5.646   0.876   4.913
    1PA     H8R 4181   5.651   0.768   4.899
    1PA     H8S 4182   5.745   0.912   4.886
    1PA     C17 4183   5.607   0.915   5.056
    1PA     H7R 4184   5.648   1.015   5.075
    1PA     H7S 4185   5.498   0.912   5.058
    1PA     C16 4186   5.675   0.810   5.145
    1PA     H6R 4187   5.646   0.712   5.108
    1PA     H6S 4188   5.784   0.815   5.142
    1PA     C15 4189   5.625   0.836   5.288
    1PA     H5R 4190   5.690   0.918   5.320
    1PA     H5S 4191   5.520   0.865   5.282
    1PA     C14 4192   5.648   0.719   5.385
    1PA     H4R 4193   5.635   0.616   5.352
    1PA     H4S 4194   5.747   0.733   5.429
    1PA     C13 4195   5.554   0.746   5.503
    1PA     H3R 4196   5.584   0.688   5.590
    1PA     H3S 4197   5.542   0.852   5.527
    1PA     C12 4198   5.412   0.706   5.461
    1PA     H2R 4199   5.352   0.797   5.452
    1PA     H2S 4200   5.416   0.653   5.366
    2PC     C11 4201   5.343   0.619   5.562
    2PC     O12 4202   5.353   0.631   5.682
    2PC     O11 4203   5.256   0.530   5.510
    2PC      C1 4204   5.199   0.428   5.594
    2PC      HR 4205   5.276   0.360   5.633
    2PC      HS 4206   5.155   0.474   5.683
    2PC      C2 4207   5.094   0.350   5.515
    2PC      HX 4208   5.019   0.412   5.465
    2PC      C3 4209   5.014   0.259   5.610
    2PC      HA 4210   4.957   0.329   5.671
    2PC      HB 4211   4.944   0.189   5.562
    2PC     O31 4212   5.099   0.199   5.709
    2PC     P31 4213   5.029   0.095   5.808
    2PC     O32 4214   5.001  -0.038   5.722
    2PC     C31 4215   5.121  -0.093   5.664
    2PC     H1A 4216   5.156  -0.023   5.587
    2PC     H1B 4217   5.194  -0.103   5.745
    2PC     C32 4218   5.091  -0.235   5.615
    2PC     H2A 4219   5.040  -0.234   5.518
    2PC     H2B 4220   5.192  -0.268   5.593
    2PC     N31 4221   5.024  -0.339   5.699
    2PC     C33 4222   5.046  -0.460   5.614
    2PC     H3A 4223   4.980  -0.538   5.651
    2PC     H3B 4224   5.038  -0.438   5.507
    2PC     H3C 4225   5.147  -0.493   5.638
    2PC     C34 4226   5.091  -0.354   5.832
    2PC     H4A 4227   5.070  -0.269   5.897
    2PC     H4B 4228   5.049  -0.443   5.880
    2PC     H4C 4229   5.199  -0.368   5.820
    2PC     C35 4230   4.875  -0.316   5.703
    2PC     H5A 4231   4.848  -0.307   5.598
    2PC     H5B 4232   4.861  -0.230   5.769
    2PC     H5C 4233   4.825  -0.403   5.745
    2PC     O33 4234   5.104   0.065   5.933
    2PC     O34 4235   4.918   0.178   5.860
    2PC     O21 4236   5.161   0.264   5.422
    2PC     C21 4237   5.096   0.184   5.335
    2PC     O22 4238   4.978   0.155   5.334
    3OL     C12 4239   5.192   0.124   5.236
    3OL     H2R 4240   5.273   0.194   5.212
    3OL     H2S 4241   5.142   0.098   5.143
    3OL     C13 4242   5.253  -0.007   5.289
    3OL     H3R 4243   5.172  -0.080   5.299
    3OL     H3S 4244   5.294  -0.008   5.389
    3OL     C14 4245   5.341  -0.071   5.181
    3OL     H4R 4246   5.305  -0.036   5.083
    3OL     H4S 4247   5.341  -0.180   5.183
    3OL     C15 4248   5.489  -0.032   5.192
    3OL     H5R 4249   5.532  -0.056   5.290
    3OL     H5S 4250   5.481   0.076   5.181
    3OL     C16 4251   5.575  -0.085   5.077
    3OL     H6R 4252   5.534  -0.023   4.997
    3OL     H6S 4253   5.556  -0.190   5.051
    3OL     C17 4254   5.722  -0.049   5.103
    3OL     H7R 4255   5.756  -0.108   5.189
    3OL     H7S 4256   5.735   0.055   5.133
    3OL     C18 4257   5.819  -0.081   4.989
    3OL     H8R 4258   5.919  -0.048   5.018
    3OL     H8S 4259   5.802  -0.016   4.903
    3OL     C19 4260   5.821  -0.227   4.949
    3OL     H9R 4261   5.818  -0.287   5.039
    3OL    C110 4262   5.831  -0.281   4.828
    3OL    H10R 4263   5.823  -0.385   4.797
    3OL    C111 4264   5.865  -0.197   4.708
    3OL    H11R 4265   5.887  -0.094   4.736
    3OL    H11S 4266   5.780  -0.193   4.639
    3OL    C112 4267   5.988  -0.242   4.627
    3OL    H12R 4268   6.078  -0.247   4.689
    3OL    H12S 4269   6.006  -0.163   4.554
    3OL    C113 4270   5.964  -0.378   4.560
    3OL    H13R 4271   5.878  -0.382   4.492
    3OL    H13S 4272   5.937  -0.459   4.627
    3OL    C114 4273   6.083  -0.429   4.477
    3OL    H14R 4274   6.042  -0.491   4.396
    3OL    H14S 4275   6.150  -0.492   4.535
    3OL    C115 4276   6.159  -0.317   4.405
    3OL    H15R 4277   6.231  -0.264   4.468
    3OL    H15S 4278   6.092  -0.240   4.367
    3OL    C116 4279   6.229  -0.373   4.280
    3OL    H16R 4280   6.274  -0.294   4.220
    3OL    H16S 4281   6.167  -0.422   4.205
    3OL    C117 4282   6.347  -0.469   4.302
    3OL    H17R 4283   6.393  -0.489   4.205
    3OL    H17S 4284   6.308  -0.563   4.341
    3OL    C118 4285   6.441  -0.406   4.405
    3OL    H18R 4286   6.529  -0.469   4.416
    3OL    H18S 4287   6.403  -0.403   4.508
    3OL    H18T 4288   6.466  -0.304   4.375
    1PA    C116 4289   3.061   6.163   3.857
    1PA    H16R 4290   3.082   6.259   3.810
    1PA    H16S 4291   2.988   6.105   3.801
    1PA    H16T 4292   3.157   6.110   3.857
    1PA    C115 4293   3.015   6.194   4.000
    1PA    H15R 4294   2.915   6.238   4.006
    1PA    H15S 4295   3.015   6.099   4.054
    1PA    C114 4296   3.125   6.275   4.070
    1PA    H14R 4297   3.212   6.210   4.056
    1PA    H14S 4298   3.137   6.372   4.021
    1PA    C113 4299   3.104   6.318   4.216
    1PA    H13R 4300   3.111   6.225   4.272
    1PA    H13S 4301   3.184   6.382   4.255
    1PA    C112 4302   2.973   6.390   4.252
    1PA    H12R 4303   2.963   6.481   4.192
    1PA    H12S 4304   2.894   6.322   4.218
    1PA    C111 4305   2.949   6.428   4.399
    1PA    H11R 4306   3.039   6.452   4.456
    1PA    H11S 4307   2.895   6.523   4.402
    1PA    C110 4308   2.870   6.317   4.469
    1PA    H10R 4309   2.771   6.305   4.424
    1PA    H10S 4310   2.925   6.222   4.465
    1PA     C19 4311   2.843   6.357   4.615
    1PA     H9R 4312   2.933   6.379   4.673
    1PA     H9S 4313   2.795   6.455   4.607
    1PA     C18 4314   2.763   6.260   4.701
    1PA     H8R 4315   2.675   6.227   4.645
    1PA     H8S 4316   2.823   6.174   4.729
    1PA     C17 4317   2.712   6.324   4.831
    1PA     H7R 4318   2.793   6.329   4.903
    1PA     H7S 4319   2.672   6.421   4.800
    1PA     C16 4320   2.605   6.226   4.882
    1PA     H6R 4321   2.518   6.233   4.817
    1PA     H6S 4322   2.641   6.123   4.880
    1PA     C15 4323   2.562   6.254   5.027
    1PA     H5R 4324   2.640   6.221   5.096
    1PA     H5S 4325   2.544   6.360   5.044
    1PA     C14 4326   2.426   6.193   5.065
    1PA     H4R 4327   2.347   6.256   5.025
    1PA     H4S 4328   2.424   6.089   5.031
    1PA     C13 4329   2.400   6.185   5.216
    1PA     H3R 4330   2.476   6.117   5.254
    1PA     H3S 4331   2.416   6.286   5.256
    1PA     C12 4332   2.263   6.121   5.242
    1PA     H2R 4333   2.189   6.184   5.192
    1PA     H2S 4334   2.264   6.024   5.192
    2PC     C11 4335   2.231   6.095   5.387
    2PC     O12 4336   2.255   5.991   5.444
    2PC     O11 4337   2.172   6.208   5.430
    2PC      C1 4338   2.126   6.220   5.566
    2PC      HR 4339   2.061   6.307   5.578
    2PC      HS 4340   2.073   6.128   5.589
    2PC      C2 4341   2.245   6.244   5.661
    2PC      HX 4342   2.306   6.154   5.667
    2PC      C3 4343   2.198   6.278   5.803
    2PC      HA 4344   2.173   6.181   5.847
    2PC      HB 4345   2.274   6.327   5.865
    2PC     O31 4346   2.093   6.377   5.799
    2PC     P31 4347   2.049   6.441   5.939
    2PC     O32 4348   2.036   6.304   6.021
    2PC     C31 4349   1.980   6.307   6.154
    2PC     H1A 4350   2.029   6.393   6.199
    2PC     H1B 4351   1.875   6.337   6.144
    2PC     C32 4352   1.990   6.175   6.231
    2PC     H2A 4353   1.915   6.182   6.311
    2PC     H2B 4354   1.968   6.095   6.160
    2PC     N31 4355   2.119   6.153   6.303
    2PC     C33 4356   2.249   6.178   6.233
    2PC     H3A 4357   2.324   6.172   6.312
    2PC     H3B 4358   2.269   6.096   6.164
    2PC     H3C 4359   2.252   6.280   6.195
    2PC     C34 4360   2.116   6.238   6.427
    2PC     H4A 4361   2.209   6.223   6.481
    2PC     H4B 4362   2.087   6.339   6.399
    2PC     H4C 4363   2.038   6.188   6.485
    2PC     C35 4364   2.125   6.012   6.353
    2PC     H5A 4365   2.187   6.008   6.442
    2PC     H5B 4366   2.169   5.946   6.277
    2PC     H5C 4367   2.026   5.976   6.381
    2PC     O33 4368   2.146   6.539   5.993
    2PC     O34 4369   1.922   6.516   5.955
    2PC     O21 4370   2.317   6.355   5.605
    2PC     C21 4371   2.442   6.378   5.648
    2PC     O22 4372   2.505   6.328   5.739
    3OL     C12 4373   2.509   6.474   5.553
    3OL     H2R 4374   2.546   6.560   5.610
    3OL     H2S 4375   2.437   6.523   5.487
    3OL     C13 4376   2.615   6.408   5.464
    3OL     H3R 4377   2.572   6.338   5.392
    3OL     H3S 4378   2.697   6.360   5.518
    3OL     C14 4379   2.691   6.507   5.374
    3OL     H4R 4380   2.734   6.583   5.439
    3OL     H4S 4381   2.614   6.554   5.314
    3OL     C15 4382   2.810   6.449   5.296
    3OL     H5R 4383   2.772   6.369   5.232
    3OL     H5S 4384   2.882   6.406   5.367
    3OL     C16 4385   2.866   6.559   5.205
    3OL     H6R 4386   2.876   6.649   5.267
    3OL     H6S 4387   2.786   6.590   5.137
    3OL     C17 4388   2.995   6.512   5.138
    3OL     H7R 4389   2.972   6.423   5.079
    3OL     H7S 4390   3.057   6.467   5.216
    3OL     C18 4391   3.078   6.616   5.062
    3OL     H8R 4392   3.175   6.580   5.028
    3OL     H8S 4393   3.096   6.695   5.135
    3OL     C19 4394   2.998   6.659   4.941
    3OL     H9R 4395   2.982   6.589   4.859
    3OL    C110 4396   2.938   6.777   4.930
    3OL    H10R 4397   2.886   6.807   4.840
    3OL    C111 4398   2.967   6.888   5.028
    3OL    H11R 4399   3.070   6.883   5.063
    3OL    H11S 4400   2.891   6.874   5.105
    3OL    C112 4401   2.923   7.021   4.964
    3OL    H12R 4402   2.900   7.088   5.048
    3OL    H12S 4403   2.830   7.007   4.910
    3OL    C113 4404   3.040   7.073   4.879
    3OL    H13R 4405   2.992   7.122   4.793
    3OL    H13S 4406   3.099   6.990   4.842
    3OL    C114 4407   3.123   7.180   4.951
    3OL    H14R 4408   3.153   7.142   5.049
    3OL    H14S 4409   3.060   7.268   4.963
    3OL    C115 4410   3.258   7.203   4.881
    3OL    H15R 4411   3.241   7.222   4.774
    3OL    H15S 4412   3.310   7.107   4.884
    3OL    C116 4413   3.347   7.310   4.944
    3OL    H16R 4414   3.374   7.275   5.043
    3OL    H16S 4415   3.301   7.407   4.964
    3OL    C117 4416   3.482   7.341   4.876
    3OL    H17R 4417   3.541   7.252   4.851
    3OL    H17S 4418   3.548   7.386   4.950
    3OL    C118 4419   3.473   7.447   4.765
    3OL    H18R 4420   3.389   7.428   4.698
    3OL    H18S 4421   3.568   7.460   4.714
    3OL    H18T 4422   3.466   7.549   4.805
    1PA    C116 4423   4.769   5.284   4.472
    1PA    H16R 4424   4.717   5.345   4.398
    1PA    H16S 4425   4.786   5.198   4.407
    1PA    H16T 4426   4.865   5.334   4.491
    1PA    C115 4427   4.684   5.250   4.595
    1PA    H15R 4428   4.595   5.203   4.553
    1PA    H15S 4429   4.743   5.185   4.660
    1PA    C114 4430   4.662   5.372   4.686
    1PA    H14R 4431   4.758   5.409   4.721
    1PA    H14S 4432   4.613   5.454   4.633
    1PA    C113 4433   4.573   5.340   4.807
    1PA    H13R 4434   4.623   5.288   4.889
    1PA    H13S 4435   4.539   5.437   4.842
    1PA    C112 4436   4.440   5.275   4.764
    1PA    H12R 4437   4.353   5.322   4.810
    1PA    H12S 4438   4.415   5.295   4.659
    1PA    C111 4439   4.430   5.124   4.791
    1PA    H11R 4440   4.519   5.068   4.763
    1PA    H11S 4441   4.419   5.119   4.900
    1PA    C110 4442   4.318   5.061   4.708
    1PA    H10R 4443   4.228   5.122   4.715
    1PA    H10S 4444   4.349   5.064   4.604
    1PA     C19 4445   4.292   4.916   4.752
    1PA     H9R 4446   4.217   4.862   4.693
    1PA     H9S 4447   4.387   4.863   4.742
    1PA     C18 4448   4.241   4.901   4.896
    1PA     H8R 4449   4.222   4.794   4.909
    1PA     H8S 4450   4.315   4.932   4.970
    1PA     C17 4451   4.105   4.965   4.924
    1PA     H7R 4452   4.119   5.073   4.917
    1PA     H7S 4453   4.037   4.927   4.847
    1PA     C16 4454   4.053   4.934   5.065
    1PA     H6R 4455   4.044   4.825   5.072
    1PA     H6S 4456   4.117   4.970   5.145
    1PA     C15 4457   3.906   4.976   5.078
    1PA     H5R 4458   3.847   4.930   4.998
    1PA     H5S 4459   3.863   4.919   5.161
    1PA     C14 4460   3.891   5.127   5.100
    1PA     H4R 4461   3.969   5.179   5.045
    1PA     H4S 4462   3.793   5.145   5.057
    1PA     C13 4463   3.882   5.152   5.252
    1PA     H3R 4464   3.787   5.109   5.286
    1PA     H3S 4465   3.958   5.093   5.304
    1PA     C12 4466   3.886   5.303   5.277
    1PA     H2R 4467   3.964   5.357   5.223
    1PA     H2S 4468   3.790   5.347   5.253
    2PC     C11 4469   3.905   5.325   5.425
    2PC     O12 4470   3.937   5.237   5.503
    2PC     O11 4471   3.873   5.449   5.466
    2PC      C1 4472   3.872   5.490   5.604
    2PC      HR 4473   3.815   5.582   5.620
    2PC      HS 4474   3.817   5.407   5.650
    2PC      C2 4475   4.016   5.497   5.658
    2PC      HX 4476   4.061   5.403   5.627
    2PC      C3 4477   4.018   5.504   5.811
    2PC      HA 4478   3.954   5.427   5.856
    2PC      HB 4479   4.120   5.483   5.844
    2PC     O31 4480   3.973   5.633   5.857
    2PC     P31 4481   3.986   5.675   6.011
    2PC     O32 4482   3.900   5.809   5.991
    2PC     C31 4483   3.758   5.823   6.014
    2PC     H1A 4484   3.708   5.764   5.937
    2PC     H1B 4485   3.737   5.769   6.107
    2PC     C32 4486   3.722   5.972   6.008
    2PC     H2A 4487   3.732   6.017   5.910
    2PC     H2B 4488   3.615   5.989   6.017
    2PC     N31 4489   3.788   6.066   6.105
    2PC     C33 4490   3.933   6.081   6.072
    2PC     H3A 4491   3.994   6.144   6.138
    2PC     H3B 4492   3.974   5.981   6.064
    2PC     H3C 4493   3.930   6.137   5.978
    2PC     C34 4494   3.706   6.191   6.119
    2PC     H4A 4495   3.600   6.176   6.102
    2PC     H4B 4496   3.734   6.250   6.207
    2PC     H4C 4497   3.742   6.261   6.042
    2PC     C35 4498   3.774   6.009   6.243
    2PC     H5A 4499   3.677   5.960   6.248
    2PC     H5B 4500   3.783   6.090   6.316
    2PC     H5C 4501   3.852   5.933   6.254
    2PC     O33 4502   3.942   5.567   6.102
    2PC     O34 4503   4.118   5.711   6.066
    2PC     O21 4504   4.076   5.609   5.591
    2PC     C21 4505   4.210   5.602   5.577
    2PC     O22 4506   4.274   5.513   5.629
    3OL     C12 4507   4.267   5.715   5.494
    3OL     H2R 4508   4.250   5.813   5.538
    3OL     H2S 4509   4.198   5.730   5.410
    3OL     C13 4510   4.411   5.698   5.445
    3OL     H3R 4511   4.420   5.633   5.358
    3OL     H3S 4512   4.479   5.646   5.512
    3OL     C14 4513   4.475   5.833   5.407
    3OL     H4R 4514   4.580   5.812   5.384
    3OL     H4S 4515   4.479   5.900   5.493
    3OL     C15 4516   4.398   5.900   5.292
    3OL     H5R 4517   4.314   5.951   5.340
    3OL     H5S 4518   4.364   5.833   5.213
    3OL     C16 4519   4.480   6.013   5.228
    3OL     H6R 4520   4.574   5.974   5.186
    3OL     H6S 4521   4.512   6.087   5.301
    3OL     C17 4522   4.400   6.087   5.120
    3OL     H7R 4523   4.338   6.017   5.063
    3OL     H7S 4524   4.470   6.129   5.048
    3OL     C18 4525   4.314   6.199   5.181
    3OL     H8R 4526   4.386   6.269   5.224
    3OL     H8S 4527   4.260   6.161   5.268
    3OL     C19 4528   4.221   6.262   5.080
    3OL     H9R 4529   4.169   6.186   5.023
    3OL    C110 4530   4.200   6.388   5.047
    3OL    H10R 4531   4.121   6.421   4.980
    3OL    C111 4532   4.271   6.507   5.107
    3OL    H11R 4533   4.355   6.487   5.174
    3OL    H11S 4534   4.200   6.570   5.160
    3OL    C112 4535   4.327   6.599   4.998
    3OL    H12R 4536   4.370   6.694   5.031
    3OL    H12S 4537   4.236   6.627   4.944
    3OL    C113 4538   4.420   6.532   4.896
    3OL    H13R 4539   4.451   6.607   4.823
    3OL    H13S 4540   4.367   6.458   4.835
    3OL    C114 4541   4.545   6.470   4.959
    3OL    H14R 4542   4.513   6.398   5.035
    3OL    H14S 4543   4.604   6.541   5.016
    3OL    C115 4544   4.640   6.416   4.850
    3OL    H15R 4545   4.653   6.489   4.770
    3OL    H15S 4546   4.581   6.337   4.801
    3OL    C116 4547   4.775   6.366   4.902
    3OL    H16R 4548   4.806   6.432   4.983
    3OL    H16S 4549   4.847   6.377   4.821
    3OL    C117 4550   4.765   6.220   4.949
    3OL    H17R 4551   4.738   6.153   4.867
    3OL    H17S 4552   4.684   6.212   5.023
    3OL    C118 4553   4.897   6.171   5.010
    3OL    H18R 4554   4.929   6.243   5.085
    3OL    H18S 4555   4.981   6.153   4.943
    3OL    H18T 4556   4.875   6.087   5.075
    1PA    C116 4557   5.530   5.270   4.251
    1PA    H16R 4558   5.609   5.229   4.186
    1PA    H16S 4559   5.436   5.281   4.196
    1PA    H16T 4560   5.519   5.198   4.332
    1PA    C115 4561   5.575   5.408   4.299
    1PA    H15R 4562   5.557   5.483   4.222
    1PA    H15S 4563   5.516   5.430   4.389
    1PA    C114 4564   5.722   5.420   4.340
    1PA    H14R 4565   5.743   5.361   4.429
    1PA    H14S 4566   5.788   5.394   4.257
    1PA    C113 4567   5.755   5.564   4.382
    1PA    H13R 4568   5.863   5.566   4.401
    1PA    H13S 4569   5.747   5.635   4.299
    1PA    C112 4570   5.670   5.608   4.502
    1PA    H12R 4571   5.572   5.634   4.462
    1PA    H12S 4572   5.657   5.533   4.580
    1PA    C111 4573   5.728   5.735   4.565
    1PA    H11R 4574   5.829   5.725   4.605
    1PA    H11S 4575   5.746   5.808   4.486
    1PA    C110 4576   5.632   5.792   4.670
    1PA    H10R 4577   5.641   5.900   4.662
    1PA    H10S 4578   5.530   5.766   4.640
    1PA     C19 4579   5.663   5.736   4.810
    1PA     H9R 4580   5.771   5.744   4.820
    1PA     H9S 4581   5.630   5.802   4.890
    1PA     C18 4582   5.611   5.594   4.836
    1PA     H8R 4583   5.507   5.604   4.804
    1PA     H8S 4584   5.663   5.523   4.771
    1PA     C17 4585   5.628   5.544   4.980
    1PA     H7R 4586   5.735   5.542   5.001
    1PA     H7S 4587   5.580   5.625   5.034
    1PA     C16 4588   5.559   5.410   5.011
    1PA     H6R 4589   5.598   5.337   4.940
    1PA     H6S 4590   5.603   5.375   5.104
    1PA     C15 4591   5.407   5.403   4.992
    1PA     H5R 4592   5.357   5.471   5.062
    1PA     H5S 4593   5.380   5.433   4.891
    1PA     C14 4594   5.352   5.261   5.017
    1PA     H4R 4595   5.247   5.264   4.989
    1PA     H4S 4596   5.410   5.188   4.961
    1PA     C13 4597   5.352   5.220   5.165
    1PA     H3R 4598   5.457   5.225   5.194
    1PA     H3S 4599   5.294   5.282   5.234
    1PA     C12 4600   5.296   5.079   5.187
    1PA     H2R 4601   5.189   5.075   5.164
    1PA     H2S 4602   5.361   5.023   5.120
    2PC     C11 4603   5.315   5.051   5.334
    2PC     O12 4604   5.407   4.986   5.380
    2PC     O11 4605   5.217   5.105   5.408
    2PC      C1 4606   5.217   5.084   5.550
    2PC      HR 4607   5.215   4.977   5.573
    2PC      HS 4608   5.311   5.121   5.592
    2PC      C2 4609   5.097   5.161   5.608
    2PC      HX 4610   5.104   5.264   5.572
    2PC      C3 4611   5.094   5.159   5.761
    2PC      HA 4612   5.176   5.218   5.803
    2PC      HB 4613   5.007   5.212   5.800
    2PC     O31 4614   5.101   5.027   5.817
    2PC     P31 4615   5.080   5.000   5.974
    2PC     O32 4616   5.211   5.070   6.034
    2PC     C31 4617   5.342   5.012   6.017
    2PC     H1A 4618   5.350   4.915   6.067
    2PC     H1B 4619   5.367   4.999   5.911
    2PC     C32 4620   5.448   5.108   6.072
    2PC     H2A 4621   5.546   5.076   6.035
    2PC     H2B 4622   5.437   5.204   6.021
    2PC     N31 4623   5.461   5.132   6.219
    2PC     C33 4624   5.439   4.999   6.284
    2PC     H3A 4625   5.417   5.027   6.387
    2PC     H3B 4626   5.346   4.964   6.240
    2PC     H3C 4627   5.528   4.937   6.278
    2PC     C34 4628   5.597   5.187   6.252
    2PC     H4A 4629   5.607   5.188   6.361
    2PC     H4B 4630   5.672   5.113   6.226
    2PC     H4C 4631   5.606   5.288   6.212
    2PC     C35 4632   5.361   5.234   6.266
    2PC     H5A 4633   5.379   5.327   6.213
    2PC     H5B 4634   5.391   5.249   6.370
    2PC     H5C 4635   5.257   5.202   6.255
    2PC     O33 4636   4.962   5.066   6.033
    2PC     O34 4637   5.072   4.857   6.012
    2PC     O21 4638   4.979   5.100   5.552
    2PC     C21 4639   4.856   5.147   5.580
    2PC     O22 4640   4.827   5.258   5.618
    3OL     C12 4641   4.747   5.051   5.540
    3OL     H2R 4642   4.655   5.107   5.522
    3OL     H2S 4643   4.736   4.978   5.621
    3OL     C13 4644   4.775   4.986   5.404
    3OL     H3R 4645   4.853   4.910   5.414
    3OL     H3S 4646   4.812   5.066   5.340
    3OL     C14 4647   4.651   4.921   5.342
    3OL     H4R 4648   4.569   4.994   5.342
    3OL     H4S 4649   4.629   4.830   5.398
    3OL     C15 4650   4.675   4.887   5.195
    3OL     H5R 4651   4.763   4.823   5.189
    3OL     H5S 4652   4.698   4.976   5.136
    3OL     C16 4653   4.556   4.821   5.125
    3OL     H6R 4654   4.569   4.821   5.016
    3OL     H6S 4655   4.465   4.880   5.142
    3OL     C17 4656   4.539   4.673   5.162
    3OL     H7R 4657   4.544   4.664   5.271
    3OL     H7S 4658   4.618   4.612   5.118
    3OL     C18 4659   4.407   4.617   5.108
    3OL     H8R 4660   4.424   4.633   5.001
    3OL     H8S 4661   4.317   4.661   5.152
    3OL     C19 4662   4.404   4.468   5.130
    3OL     H9R 4663   4.481   4.426   5.195
    3OL    C110 4664   4.304   4.390   5.092
    3OL    H10R 4665   4.301   4.282   5.102
    3OL    C111 4666   4.191   4.442   5.007
    3OL    H11R 4667   4.157   4.540   5.040
    3OL    H11S 4668   4.105   4.375   5.009
    3OL    C112 4669   4.236   4.458   4.861
    3OL    H12R 4670   4.319   4.389   4.842
    3OL    H12S 4671   4.287   4.553   4.845
    3OL    C113 4672   4.123   4.450   4.757
    3OL    H13R 4673   4.064   4.360   4.770
    3OL    H13S 4674   4.154   4.453   4.652
    3OL    C114 4675   4.017   4.559   4.782
    3OL    H14R 4676   4.065   4.656   4.791
    3OL    H14S 4677   3.967   4.539   4.876
    3OL    C115 4678   3.909   4.562   4.673
    3OL    H15R 4679   3.846   4.473   4.682
    3OL    H15S 4680   3.956   4.559   4.575
    3OL    C116 4681   3.818   4.684   4.692
    3OL    H16R 4682   3.879   4.775   4.698
    3OL    H16S 4683   3.762   4.680   4.785
    3OL    C117 4684   3.718   4.701   4.577
    3OL    H17R 4685   3.773   4.693   4.483
    3OL    H17S 4686   3.660   4.794   4.582
    3OL    C118 4687   3.624   4.580   4.576
    3OL    H18R 4688   3.576   4.568   4.674
    3OL    H18S 4689   3.671   4.483   4.557
    3OL    H18T 4690   3.547   4.588   4.500
    1PA    C116 4691   0.619   1.619   3.455
    1PA    H16R 4692   0.635   1.667   3.358
    1PA    H16S 4693   0.511   1.603   3.464
    1PA    H16T 4694   0.677   1.527   3.450
    1PA    C115 4695   0.673   1.711   3.565
    1PA    H15R 4696   0.769   1.755   3.535
    1PA    H15S 4697   0.606   1.796   3.581
    1PA    C114 4698   0.683   1.638   3.700
    1PA    H14R 4699   0.581   1.612   3.728
    1PA    H14S 4700   0.734   1.542   3.687
    1PA    C113 4701   0.737   1.726   3.813
    1PA    H13R 4702   0.846   1.730   3.811
    1PA    H13S 4703   0.699   1.828   3.801
    1PA    C112 4704   0.698   1.659   3.945
    1PA    H12R 4705   0.591   1.637   3.952
    1PA    H12S 4706   0.757   1.568   3.960
    1PA    C111 4707   0.733   1.749   4.064
    1PA    H11R 4708   0.835   1.788   4.065
    1PA    H11S 4709   0.671   1.838   4.056
    1PA    C110 4710   0.709   1.681   4.200
    1PA    H10R 4711   0.611   1.640   4.222
    1PA    H10S 4712   0.776   1.595   4.203
    1PA     C19 4713   0.750   1.772   4.317
    1PA     H9R 4714   0.851   1.812   4.305
    1PA     H9S 4715   0.694   1.863   4.296
    1PA     C18 4716   0.738   1.714   4.458
    1PA     H8R 4717   0.633   1.688   4.478
    1PA     H8S 4718   0.805   1.631   4.480
    1PA     C17 4719   0.753   1.825   4.563
    1PA     H7R 4720   0.852   1.870   4.572
    1PA     H7S 4721   0.676   1.901   4.546
    1PA     C16 4722   0.724   1.768   4.703
    1PA     H6R 4723   0.625   1.723   4.705
    1PA     H6S 4724   0.780   1.676   4.724
    1PA     C15 4725   0.730   1.883   4.804
    1PA     H5R 4726   0.836   1.908   4.818
    1PA     H5S 4727   0.681   1.965   4.751
    1PA     C14 4728   0.663   1.851   4.938
    1PA     H4R 4729   0.557   1.825   4.925
    1PA     H4S 4730   0.704   1.760   4.982
    1PA     C13 4731   0.674   1.967   5.037
    1PA     H3R 4732   0.776   2.002   5.053
    1PA     H3S 4733   0.616   2.054   5.004
    1PA     C12 4734   0.624   1.909   5.170
    1PA     H2R 4735   0.527   1.859   5.163
    1PA     H2S 4736   0.699   1.835   5.198
    2PC     C11 4737   0.610   2.016   5.275
    2PC     O12 4738   0.594   2.135   5.261
    2PC     O11 4739   0.624   1.960   5.397
    2PC      C1 4740   0.598   2.028   5.521
    2PC      HR 4741   0.611   1.953   5.600
    2PC      HS 4742   0.675   2.104   5.533
    2PC      C2 4743   0.461   2.095   5.537
    2PC      HX 4744   0.463   2.179   5.467
    2PC      C3 4745   0.446   2.164   5.673
    2PC      HA 4746   0.543   2.212   5.689
    2PC      HB 4747   0.363   2.235   5.671
    2PC     O31 4748   0.433   2.072   5.782
    2PC     P31 4749   0.456   2.127   5.931
    2PC     O32 4750   0.304   2.152   5.973
    2PC     C31 4751   0.268   2.111   6.106
    2PC     H1A 4752   0.280   2.002   6.098
    2PC     H1B 4753   0.346   2.142   6.175
    2PC     C32 4754   0.119   2.138   6.132
    2PC     H2A 4755   0.092   2.070   6.213
    2PC     H2B 4756   0.105   2.241   6.166
    2PC     N31 4757   0.018   2.128   6.022
    2PC     C33 4758   0.027   2.255   5.943
    2PC     H3A 4759  -0.063   2.254   5.883
    2PC     H3B 4760   0.019   2.338   6.013
    2PC     H3C 4761   0.123   2.248   5.890
    2PC     C34 4762   0.043   2.008   5.935
    2PC     H4A 4763   0.127   2.028   5.869
    2PC     H4B 4764   0.056   1.917   5.994
    2PC     H4C 4765  -0.052   1.983   5.888
    2PC     C35 4766  -0.120   2.128   6.081
    2PC     H5A 4767  -0.116   2.058   6.165
    2PC     H5B 4768  -0.181   2.094   5.997
    2PC     H5C 4769  -0.141   2.230   6.114
    2PC     O33 4770   0.523   2.033   6.023
    2PC     O34 4771   0.533   2.252   5.954
    2PC     O21 4772   0.358   1.996   5.520
    2PC     C21 4773   0.234   2.042   5.495
    2PC     O22 4774   0.204   2.156   5.467
    3OL     C12 4775   0.138   1.925   5.496
    3OL     H2R 4776   0.100   1.923   5.598
    3OL     H2S 4777   0.185   1.827   5.486
    3OL     C13 4778   0.026   1.954   5.395
    3OL     H3R 4779   0.008   2.062   5.386
    3OL     H3S 4780  -0.063   1.906   5.434
    3OL     C14 4781   0.052   1.896   5.255
    3OL     H4R 4782  -0.046   1.889   5.208
    3OL     H4S 4783   0.080   1.793   5.277
    3OL     C15 4784   0.151   1.971   5.164
    3OL     H5R 4785   0.248   1.975   5.213
    3OL     H5S 4786   0.113   2.073   5.161
    3OL     C16 4787   0.172   1.899   5.030
    3OL     H6R 4788   0.084   1.891   4.966
    3OL     H6S 4789   0.198   1.796   5.052
    3OL     C17 4790   0.279   1.964   4.940
    3OL     H7R 4791   0.377   1.962   4.987
    3OL     H7S 4792   0.263   2.070   4.921
    3OL     C18 4793   0.297   1.888   4.807
    3OL     H8R 4794   0.194   1.860   4.783
    3OL     H8S 4795   0.354   1.795   4.809
    3OL     C19 4796   0.367   1.970   4.702
    3OL     H9R 4797   0.400   2.070   4.728
    3OL    C110 4798   0.359   1.943   4.573
    3OL    H10R 4799   0.373   2.017   4.494
    3OL    C111 4800   0.312   1.809   4.523
    3OL    H11R 4801   0.273   1.740   4.599
    3OL    H11S 4802   0.394   1.768   4.464
    3OL    C112 4803   0.193   1.839   4.430
    3OL    H12R 4804   0.116   1.893   4.484
    3OL    H12S 4805   0.160   1.749   4.378
    3OL    C113 4806   0.235   1.922   4.308
    3OL    H13R 4807   0.284   2.019   4.322
    3OL    H13S 4808   0.149   1.948   4.245
    3OL    C114 4809   0.339   1.850   4.221
    3OL    H14R 4810   0.321   1.742   4.210
    3OL    H14S 4811   0.439   1.854   4.265
    3OL    C115 4812   0.354   1.902   4.078
    3OL    H15R 4813   0.258   1.934   4.037
    3OL    H15S 4814   0.388   1.815   4.022
    3OL    C116 4815   0.445   2.025   4.063
    3OL    H16R 4816   0.543   2.015   4.110
    3OL    H16S 4817   0.392   2.113   4.101
    3OL    C117 4818   0.482   2.039   3.915
    3OL    H17R 4819   0.394   2.058   3.853
    3OL    H17S 4820   0.518   1.946   3.869
    3OL    C118 4821   0.574   2.160   3.891
    3OL    H18R 4822   0.657   2.167   3.961
    3OL    H18S 4823   0.517   2.253   3.897
    3OL    H18T 4824   0.620   2.159   3.792
    1PA    C116 4825   3.309   3.999   4.056
    1PA    H16R 4826   3.356   3.919   4.113
    1PA    H16S 4827   3.300   3.972   3.951
    1PA    H16T 4828   3.207   4.018   4.089
    1PA    C115 4829   3.391   4.129   4.062
    1PA    H15R 4830   3.494   4.119   4.028
    1PA    H15S 4831   3.339   4.199   3.996
    1PA    C114 4832   3.391   4.187   4.204
    1PA    H14R 4833   3.393   4.296   4.198
    1PA    H14S 4834   3.295   4.169   4.252
    1PA    C113 4835   3.500   4.133   4.297
    1PA    H13R 4836   3.508   4.024   4.299
    1PA    H13S 4837   3.596   4.172   4.263
    1PA    C112 4838   3.484   4.176   4.443
    1PA    H12R 4839   3.470   4.283   4.459
    1PA    H12S 4840   3.387   4.132   4.469
    1PA    C111 4841   3.593   4.134   4.542
    1PA    H11R 4842   3.601   4.025   4.539
    1PA    H11S 4843   3.692   4.171   4.515
    1PA    C110 4844   3.580   4.181   4.688
    1PA    H10R 4845   3.536   4.280   4.690
    1PA    H10S 4846   3.512   4.111   4.736
    1PA     C19 4847   3.712   4.188   4.766
    1PA     H9R 4848   3.757   4.089   4.754
    1PA     H9S 4849   3.766   4.274   4.726
    1PA     C18 4850   3.681   4.218   4.913
    1PA     H8R 4851   3.634   4.316   4.915
    1PA     H8S 4852   3.624   4.134   4.953
    1PA     C17 4853   3.814   4.214   4.990
    1PA     H7R 4854   3.843   4.109   4.997
    1PA     H7S 4855   3.892   4.274   4.944
    1PA     C16 4856   3.809   4.267   5.134
    1PA     H6R 4857   3.720   4.229   5.184
    1PA     H6S 4858   3.896   4.224   5.184
    1PA     C15 4859   3.809   4.420   5.136
    1PA     H5R 4860   3.887   4.468   5.076
    1PA     H5S 4861   3.715   4.454   5.094
    1PA     C14 4862   3.821   4.474   5.280
    1PA     H4R 4863   3.800   4.581   5.276
    1PA     H4S 4864   3.746   4.426   5.344
    1PA     C13 4865   3.965   4.450   5.325
    1PA     H3R 4866   3.995   4.345   5.320
    1PA     H3S 4867   4.028   4.516   5.265
    1PA     C12 4868   3.976   4.486   5.474
    1PA     H2R 4869   3.918   4.578   5.482
    1PA     H2S 4870   3.917   4.430   5.547
    2PC     C11 4871   4.123   4.491   5.509
    2PC     O12 4872   4.201   4.404   5.478
    2PC     O11 4873   4.157   4.610   5.560
    2PC      C1 4874   4.294   4.638   5.595
    2PC      HR 4875   4.336   4.563   5.662
    2PC      HS 4876   4.352   4.622   5.504
    2PC      C2 4877   4.303   4.776   5.660
    2PC      HX 4878   4.405   4.793   5.697
    2PC      C3 4879   4.208   4.803   5.777
    2PC      HA 4880   4.114   4.826   5.727
    2PC      HB 4881   4.189   4.716   5.840
    2PC     O31 4882   4.253   4.907   5.866
    2PC     P31 4883   4.170   4.924   6.002
    2PC     O32 4884   4.283   4.895   6.112
    2PC     C31 4885   4.303   4.762   6.162
    2PC     H1A 4886   4.215   4.727   6.215
    2PC     H1B 4887   4.317   4.693   6.078
    2PC     C32 4888   4.431   4.745   6.246
    2PC     H2A 4889   4.418   4.798   6.340
    2PC     H2B 4890   4.453   4.640   6.266
    2PC     N31 4891   4.560   4.797   6.191
    2PC     C33 4892   4.581   4.756   6.048
    2PC     H3A 4893   4.494   4.766   5.984
    2PC     H3B 4894   4.666   4.815   6.011
    2PC     H3C 4895   4.618   4.654   6.054
    2PC     C34 4896   4.574   4.946   6.188
    2PC     H4A 4897   4.564   4.978   6.292
    2PC     H4B 4898   4.671   4.982   6.152
    2PC     H4C 4899   4.492   4.985   6.127
    2PC     C35 4900   4.682   4.744   6.260
    2PC     H5A 4901   4.770   4.778   6.205
    2PC     H5B 4902   4.677   4.637   6.275
    2PC     H5C 4903   4.689   4.791   6.358
    2PC     O33 4904   4.105   5.052   6.040
    2PC     O34 4905   4.051   4.836   6.013
    2PC     O21 4906   4.281   4.878   5.560
    2PC     C21 4907   4.342   4.996   5.576
    2PC     O22 4908   4.429   5.017   5.659
    3OL     C12 4909   4.276   5.095   5.484
    3OL     H2R 4910   4.180   5.114   5.532
    3OL     H2S 4911   4.254   5.054   5.385
    3OL     C13 4912   4.370   5.216   5.473
    3OL     H3R 4913   4.469   5.185   5.439
    3OL     H3S 4914   4.376   5.251   5.576
    3OL     C14 4915   4.322   5.326   5.376
    3OL     H4R 4916   4.386   5.412   5.397
    3OL     H4S 4917   4.227   5.368   5.409
    3OL     C15 4918   4.318   5.282   5.229
    3OL     H5R 4919   4.238   5.207   5.228
    3OL     H5S 4920   4.407   5.227   5.197
    3OL     C16 4921   4.277   5.390   5.128
    3OL     H6R 4922   4.184   5.439   5.156
    3OL     H6S 4923   4.265   5.327   5.039
    3OL     C17 4924   4.382   5.498   5.096
    3OL     H7R 4925   4.472   5.450   5.058
    3OL     H7S 4926   4.413   5.550   5.186
    3OL     C18 4927   4.343   5.588   4.978
    3OL     H8R 4928   4.303   5.529   4.896
    3OL     H8S 4929   4.427   5.646   4.937
    3OL     C19 4930   4.243   5.695   5.014
    3OL     H9R 4931   4.199   5.694   5.114
    3OL    C110 4932   4.191   5.791   4.940
    3OL    H10R 4933   4.126   5.866   4.987
    3OL    C111 4934   4.226   5.816   4.796
    3OL    H11R 4935   4.150   5.804   4.719
    3OL    H11S 4936   4.303   5.745   4.766
    3OL    C112 4937   4.294   5.952   4.773
    3OL    H12R 4938   4.389   5.938   4.825
    3OL    H12S 4939   4.236   6.031   4.823
    3OL    C113 4940   4.332   5.983   4.628
    3OL    H13R 4941   4.245   5.986   4.563
    3OL    H13S 4942   4.396   5.903   4.590
    3OL    C114 4943   4.403   6.120   4.632
    3OL    H14R 4944   4.467   6.110   4.719
    3OL    H14S 4945   4.326   6.189   4.666
    3OL    C115 4946   4.471   6.153   4.498
    3OL    H15R 4947   4.422   6.096   4.419
    3OL    H15S 4948   4.574   6.118   4.509
    3OL    C116 4949   4.478   6.304   4.471
    3OL    H16R 4950   4.530   6.363   4.547
    3OL    H16S 4951   4.373   6.337   4.472
    3OL    C117 4952   4.543   6.333   4.336
    3OL    H17R 4953   4.468   6.299   4.264
    3OL    H17S 4954   4.635   6.275   4.323
    3OL    C118 4955   4.579   6.481   4.313
    3OL    H18R 4956   4.487   6.539   4.319
    3OL    H18S 4957   4.629   6.494   4.217
    3OL    H18T 4958   4.639   6.520   4.395
    1PA    C116 4959   0.347   0.794   3.951
    1PA    H16R 4960   0.371   0.728   3.868
    1PA    H16S 4961   0.321   0.894   3.914
    1PA    H16T 4962   0.259   0.755   4.003
    1PA    C115 4963   0.459   0.809   4.055
    1PA    H15R 4964   0.497   0.711   4.082
    1PA    H15S 4965   0.543   0.854   4.002
    1PA    C114 4966   0.415   0.891   4.177
    1PA    H14R 4967   0.431   0.996   4.150
    1PA    H14S 4968   0.307   0.882   4.190
    1PA    C113 4969   0.493   0.861   4.306
    1PA    H13R 4970   0.497   0.755   4.332
    1PA    H13S 4971   0.594   0.896   4.285
    1PA    C112 4972   0.426   0.935   4.423
    1PA    H12R 4973   0.453   1.041   4.420
    1PA    H12S 4974   0.317   0.937   4.423
    1PA    C111 4975   0.490   0.886   4.553
    1PA    H11R 4976   0.469   0.779   4.554
    1PA    H11S 4977   0.599   0.888   4.547
    1PA    C110 4978   0.443   0.965   4.676
    1PA    H10R 4979   0.481   1.068   4.677
    1PA    H10S 4980   0.335   0.975   4.687
    1PA     C19 4981   0.501   0.896   4.800
    1PA     H9R 4982   0.465   0.796   4.822
    1PA     H9S 4983   0.607   0.883   4.774
    1PA     C18 4984   0.491   0.982   4.927
    1PA     H8R 4985   0.578   0.953   4.986
    1PA     H8S 4986   0.502   1.087   4.901
    1PA     C17 4987   0.350   0.973   4.986
    1PA     H7R 4988   0.275   0.987   4.908
    1PA     H7S 4989   0.331   0.870   5.018
    1PA     C16 4990   0.335   1.072   5.102
    1PA     H6R 4991   0.348   1.173   5.062
    1PA     H6S 4992   0.235   1.068   5.147
    1PA     C15 4993   0.435   1.040   5.215
    1PA     H5R 4994   0.419   0.941   5.258
    1PA     H5S 4995   0.541   1.032   5.190
    1PA     C14 4996   0.427   1.146   5.326
    1PA     H4R 4997   0.434   1.242   5.275
    1PA     H4S 4998   0.329   1.128   5.371
    1PA     C13 4999   0.527   1.132   5.441
    1PA     H3R 5000   0.628   1.128   5.401
    1PA     H3S 5001   0.527   1.223   5.502
    1PA     C12 5002   0.503   1.010   5.531
    1PA     H2R 5003   0.403   1.008   5.575
    1PA     H2S 5004   0.521   0.922   5.469
    2PC     C11 5005   0.601   1.025   5.645
    2PC     O12 5006   0.600   1.120   5.721
    2PC     O11 5007   0.701   0.937   5.652
    2PC      C1 5008   0.812   0.971   5.738
    2PC      HR 5009   0.853   1.069   5.713
    2PC      HS 5010   0.769   0.981   5.838
    2PC      C2 5011   0.915   0.858   5.735
    2PC      HX 5012   0.873   0.766   5.694
    2PC      C3 5013   0.987   0.847   5.870
    2PC      HA 5014   0.929   0.787   5.941
    2PC      HB 5015   1.088   0.808   5.855
    2PC     O31 5016   1.008   0.982   5.917
    2PC     P31 5017   1.096   0.998   6.050
    2PC     O32 5018   1.245   1.011   5.993
    2PC     C31 5019   1.362   0.991   6.074
    2PC     H1A 5020   1.358   1.036   6.174
    2PC     H1B 5021   1.370   0.884   6.093
    2PC     C32 5022   1.486   1.036   5.995
    2PC     H2A 5023   1.448   1.125   5.945
    2PC     H2B 5024   1.565   1.069   6.063
    2PC     N31 5025   1.542   0.946   5.889
    2PC     C33 5026   1.592   0.820   5.953
    2PC     H3A 5027   1.676   0.841   6.019
    2PC     H3B 5028   1.515   0.761   6.002
    2PC     H3C 5029   1.629   0.768   5.864
    2PC     C34 5030   1.437   0.908   5.788
    2PC     H4A 5031   1.498   0.847   5.721
    2PC     H4B 5032   1.344   0.868   5.828
    2PC     H4C 5033   1.405   0.997   5.735
    2PC     C35 5034   1.650   1.018   5.815
    2PC     H5A 5035   1.720   1.052   5.891
    2PC     H5B 5036   1.619   1.105   5.756
    2PC     H5C 5037   1.708   0.949   5.754
    2PC     O33 5038   1.049   1.106   6.139
    2PC     O34 5039   1.086   0.878   6.136
    2PC     O21 5040   1.011   0.897   5.635
    2PC     C21 5041   1.084   0.805   5.571
    2PC     O22 5042   1.060   0.687   5.581
    3OL     C12 5043   1.200   0.861   5.491
    3OL     H2R 5044   1.253   0.913   5.571
    3OL     H2S 5045   1.166   0.931   5.415
    3OL     C13 5046   1.286   0.761   5.412
    3OL     H3R 5047   1.221   0.701   5.348
    3OL     H3S 5048   1.333   0.689   5.479
    3OL     C14 5049   1.396   0.831   5.331
    3OL     H4R 5050   1.438   0.909   5.395
    3OL     H4S 5051   1.338   0.888   5.258
    3OL     C15 5052   1.494   0.732   5.266
    3OL     H5R 5053   1.442   0.659   5.203
    3OL     H5S 5054   1.529   0.676   5.353
    3OL     C16 5055   1.613   0.798   5.195
    3OL     H6R 5056   1.675   0.718   5.156
    3OL     H6S 5057   1.669   0.855   5.270
    3OL     C17 5058   1.567   0.898   5.088
    3OL     H7R 5059   1.653   0.948   5.044
    3OL     H7S 5060   1.500   0.970   5.135
    3OL     C18 5061   1.502   0.814   4.976
    3OL     H8R 5062   1.409   0.779   5.020
    3OL     H8S 5063   1.556   0.721   4.957
    3OL     C19 5064   1.471   0.909   4.864
    3OL     H9R 5065   1.381   0.969   4.864
    3OL    C110 5066   1.558   0.918   4.764
    3OL    H10R 5067   1.528   0.984   4.683
    3OL    C111 5068   1.693   0.853   4.747
    3OL    H11R 5069   1.718   0.788   4.832
    3OL    H11S 5070   1.768   0.931   4.731
    3OL    C112 5071   1.707   0.763   4.624
    3OL    H12R 5072   1.690   0.830   4.540
    3OL    H12S 5073   1.619   0.698   4.620
    3OL    C113 5074   1.838   0.683   4.616
    3OL    H13R 5075   1.832   0.591   4.674
    3OL    H13S 5076   1.923   0.748   4.637
    3OL    C114 5077   1.864   0.635   4.473
    3OL    H14R 5078   1.956   0.577   4.477
    3OL    H14S 5079   1.870   0.718   4.402
    3OL    C115 5080   1.768   0.526   4.425
    3OL    H15R 5081   1.674   0.579   4.410
    3OL    H15S 5082   1.757   0.454   4.507
    3OL    C116 5083   1.794   0.453   4.293
    3OL    H16R 5084   1.711   0.384   4.275
    3OL    H16S 5085   1.895   0.411   4.289
    3OL    C117 5086   1.777   0.545   4.171
    3OL    H17R 5087   1.686   0.605   4.184
    3OL    H17S 5088   1.764   0.477   4.086
    3OL    C118 5089   1.891   0.644   4.143
    3OL    H18R 5090   1.929   0.650   4.041
    3OL    H18S 5091   1.971   0.623   4.215
    3OL    H18T 5092   1.856   0.744   4.169
    1PA    C116 5093   5.371   3.902   4.281
    1PA    H16R 5094   5.434   3.936   4.363
    1PA    H16S 5095   5.316   3.991   4.250
    1PA    H16T 5096   5.434   3.866   4.199
    1PA    C115 5097   5.284   3.790   4.339
    1PA    H15R 5098   5.201   3.830   4.398
    1PA    H15S 5099   5.246   3.740   4.250
    1PA    C114 5100   5.371   3.691   4.419
    1PA    H14R 5101   5.303   3.609   4.441
    1PA    H14S 5102   5.461   3.660   4.365
    1PA    C113 5103   5.402   3.749   4.557
    1PA    H13R 5104   5.444   3.850   4.556
    1PA    H13S 5105   5.306   3.757   4.608
    1PA    C112 5106   5.482   3.650   4.643
    1PA    H12R 5107   5.471   3.691   4.744
    1PA    H12S 5108   5.443   3.549   4.637
    1PA    C111 5109   5.632   3.643   4.614
    1PA    H11R 5110   5.654   3.604   4.515
    1PA    H11S 5111   5.675   3.742   4.595
    1PA    C110 5112   5.723   3.569   4.714
    1PA    H10R 5113   5.726   3.626   4.806
    1PA    H10S 5114   5.680   3.470   4.732
    1PA     C19 5115   5.866   3.555   4.661
    1PA     H9R 5116   5.859   3.505   4.565
    1PA     H9S 5117   5.904   3.653   4.631
    1PA     C18 5118   5.953   3.476   4.761
    1PA     H8R 5119   5.946   3.522   4.859
    1PA     H8S 5120   5.909   3.378   4.783
    1PA     C17 5121   6.101   3.469   4.722
    1PA     H7R 5122   6.124   3.434   4.621
    1PA     H7S 5123   6.132   3.574   4.717
    1PA     C16 5124   6.189   3.392   4.822
    1PA     H6R 5125   6.126   3.308   4.854
    1PA     H6S 5126   6.276   3.358   4.765
    1PA     C15 5127   6.230   3.490   4.933
    1PA     H5R 5128   6.303   3.560   4.891
    1PA     H5S 5129   6.144   3.550   4.961
    1PA     C14 5130   6.277   3.401   5.049
    1PA     H4R 5131   6.199   3.334   5.086
    1PA     H4S 5132   6.350   3.334   5.003
    1PA     C13 5133   6.329   3.490   5.163
    1PA     H3R 5134   6.429   3.521   5.132
    1PA     H3S 5135   6.267   3.580   5.175
    1PA     C12 5136   6.349   3.410   5.292
    1PA     H2R 5137   6.256   3.389   5.345
    1PA     H2S 5138   6.407   3.319   5.278
    2PC     C11 5139   6.436   3.482   5.392
    2PC     O12 5140   6.472   3.598   5.393
    2PC     O11 5141   6.483   3.390   5.478
    2PC      C1 5142   6.578   3.442   5.573
    2PC      HR 5143   6.675   3.454   5.525
    2PC      HS 5144   6.541   3.537   5.612
    2PC      C2 5145   6.595   3.336   5.683
    2PC      HX 5146   6.496   3.327   5.728
    2PC      C3 5147   6.709   3.377   5.777
    2PC      HA 5148   6.795   3.408   5.717
    2PC      HB 5149   6.672   3.463   5.833
    2PC     O31 5150   6.729   3.273   5.875
    2PC     P31 5151   6.823   3.315   5.998
    2PC     O32 5152   6.946   3.357   5.904
    2PC     C31 5153   7.042   3.258   5.865
    2PC     H1A 5154   7.088   3.211   5.952
    2PC     H1B 5155   6.992   3.178   5.810
    2PC     C32 5156   7.149   3.313   5.769
    2PC     H2A 5157   7.110   3.350   5.675
    2PC     H2B 5158   7.185   3.404   5.817
    2PC     N31 5159   7.274   3.233   5.748
    2PC     C33 5160   7.343   3.221   5.880
    2PC     H3A 5161   7.286   3.159   5.950
    2PC     H3B 5162   7.442   3.180   5.862
    2PC     H3C 5163   7.349   3.319   5.927
    2PC     C34 5164   7.250   3.092   5.703
    2PC     H4A 5165   7.347   3.052   5.675
    2PC     H4B 5166   7.202   3.029   5.778
    2PC     H4C 5167   7.174   3.094   5.624
    2PC     C35 5168   7.359   3.316   5.656
    2PC     H5A 5169   7.365   3.414   5.704
    2PC     H5B 5170   7.316   3.322   5.556
    2PC     H5C 5171   7.459   3.275   5.643
    2PC     O33 5172   6.794   3.429   6.088
    2PC     O34 5173   6.848   3.197   6.083
    2PC     O21 5174   6.630   3.211   5.620
    2PC     C21 5175   6.742   3.189   5.550
    2PC     O22 5176   6.838   3.263   5.541
    3OL     C12 5177   6.733   3.057   5.477
    3OL     H2R 5178   6.629   3.023   5.474
    3OL     H2S 5179   6.789   2.973   5.518
    3OL     C13 5180   6.778   3.079   5.332
    3OL     H3R 5181   6.770   2.984   5.278
    3OL     H3S 5182   6.882   3.112   5.333
    3OL     C14 5183   6.687   3.174   5.255
    3OL     H4R 5184   6.657   3.266   5.306
    3OL     H4S 5185   6.589   3.130   5.234
    3OL     C15 5186   6.754   3.220   5.124
    3OL     H5R 5187   6.807   3.136   5.078
    3OL     H5S 5188   6.821   3.304   5.140
    3OL     C16 5189   6.653   3.287   5.031
    3OL     H6R 5190   6.600   3.366   5.084
    3OL     H6S 5191   6.580   3.212   5.000
    3OL     C17 5192   6.709   3.339   4.898
    3OL     H7R 5193   6.744   3.258   4.834
    3OL     H7S 5194   6.791   3.404   4.928
    3OL     C18 5195   6.603   3.408   4.809
    3OL     H8R 5196   6.571   3.497   4.864
    3OL     H8S 5197   6.528   3.331   4.792
    3OL     C19 5198   6.660   3.459   4.679
    3OL     H9R 5199   6.755   3.417   4.648
    3OL    C110 5200   6.612   3.562   4.612
    3OL    H10R 5201   6.671   3.596   4.527
    3OL    C111 5202   6.488   3.643   4.636
    3OL    H11R 5203   6.503   3.702   4.727
    3OL    H11S 5204   6.408   3.573   4.662
    3OL    C112 5205   6.446   3.727   4.515
    3OL    H12R 5206   6.444   3.668   4.423
    3OL    H12S 5207   6.528   3.798   4.506
    3OL    C113 5208   6.305   3.785   4.535
    3OL    H13R 5209   6.291   3.828   4.634
    3OL    H13S 5210   6.228   3.709   4.527
    3OL    C114 5211   6.287   3.894   4.428
    3OL    H14R 5212   6.305   3.848   4.330
    3OL    H14S 5213   6.366   3.966   4.451
    3OL    C115 5214   6.147   3.956   4.441
    3OL    H15R 5215   6.131   3.978   4.546
    3OL    H15S 5216   6.074   3.883   4.408
    3OL    C116 5217   6.151   4.085   4.357
    3OL    H16R 5218   6.183   4.058   4.256
    3OL    H16S 5219   6.224   4.152   4.404
    3OL    C117 5220   6.017   4.159   4.355
    3OL    H17R 5221   6.028   4.268   4.354
    3OL    H17S 5222   5.961   4.128   4.443
    3OL    C118 5223   5.941   4.119   4.228
    3OL    H18R 5224   5.991   4.168   4.144
    3OL    H18S 5225   5.837   4.150   4.245
    3OL    H18T 5226   5.937   4.012   4.208
    1PA    C116 5227   3.679  -1.391   4.356
    1PA    H16R 5228   3.750  -1.422   4.278
    1PA    H16S 5229   3.597  -1.341   4.304
    1PA    H16T 5230   3.632  -1.480   4.400
    1PA    C115 5231   3.758  -1.308   4.457
    1PA    H15R 5232   3.834  -1.262   4.394
    1PA    H15S 5233   3.696  -1.227   4.497
    1PA    C114 5234   3.835  -1.390   4.561
    1PA    H14R 5235   3.774  -1.456   4.623
    1PA    H14S 5236   3.900  -1.459   4.506
    1PA    C113 5237   3.921  -1.306   4.656
    1PA    H13R 5238   3.985  -1.381   4.702
    1PA    H13S 5239   3.985  -1.238   4.599
    1PA    C112 5240   3.829  -1.235   4.757
    1PA    H12R 5241   3.743  -1.189   4.708
    1PA    H12S 5242   3.796  -1.306   4.833
    1PA    C111 5243   3.906  -1.117   4.817
    1PA    H11R 5244   3.997  -1.147   4.869
    1PA    H11S 5245   3.931  -1.040   4.744
    1PA    C110 5246   3.823  -1.044   4.923
    1PA    H10R 5247   3.730  -1.001   4.884
    1PA    H10S 5248   3.807  -1.114   5.005
    1PA     C19 5249   3.911  -0.934   4.984
    1PA     H9R 5250   3.992  -0.983   5.041
    1PA     H9S 5251   3.944  -0.866   4.906
    1PA     C18 5252   3.826  -0.857   5.085
    1PA     H8R 5253   3.750  -0.792   5.040
    1PA     H8S 5254   3.759  -0.929   5.132
    1PA     C17 5255   3.912  -0.787   5.191
    1PA     H7R 5256   3.981  -0.852   5.245
    1PA     H7S 5257   3.975  -0.717   5.135
    1PA     C16 5258   3.822  -0.718   5.294
    1PA     H6R 5259   3.744  -0.662   5.243
    1PA     H6S 5260   3.774  -0.791   5.361
    1PA     C15 5261   3.905  -0.630   5.389
    1PA     H5R 5262   3.995  -0.679   5.428
    1PA     H5S 5263   3.941  -0.551   5.323
    1PA     C14 5264   3.839  -0.564   5.510
    1PA     H4R 5265   3.771  -0.490   5.467
    1PA     H4S 5266   3.775  -0.638   5.559
    1PA     C13 5267   3.926  -0.505   5.622
    1PA     H3R 5268   3.854  -0.484   5.701
    1PA     H3S 5269   4.000  -0.579   5.654
    1PA     C12 5270   3.994  -0.374   5.579
    1PA     H2R 5271   4.064  -0.390   5.497
    1PA     H2S 5272   3.913  -0.309   5.545
    2PC     C11 5273   4.079  -0.310   5.686
    2PC     O12 5274   4.166  -0.361   5.753
    2PC     O11 5275   4.058  -0.178   5.697
    2PC      C1 5276   4.129  -0.100   5.796
    2PC      HR 5277   4.092   0.001   5.810
    2PC      HS 5278   4.128  -0.154   5.891
    2PC      C2 5279   4.273  -0.080   5.747
    2PC      HX 5280   4.318  -0.173   5.712
    2PC      C3 5281   4.365  -0.043   5.864
    2PC      HA 5282   4.368  -0.138   5.919
    2PC      HB 5283   4.465  -0.019   5.827
    2PC     O31 5284   4.319   0.072   5.937
    2PC     P31 5285   4.420   0.126   6.049
    2PC     O32 5286   4.395   0.284   6.053
    2PC     C31 5287   4.485   0.357   5.967
    2PC     H1A 5288   4.589   0.347   5.999
    2PC     H1B 5289   4.476   0.316   5.867
    2PC     C32 5290   4.448   0.506   5.975
    2PC     H2A 5291   4.509   0.560   5.903
    2PC     H2B 5292   4.346   0.523   5.939
    2PC     N31 5293   4.448   0.579   6.106
    2PC     C33 5294   4.591   0.584   6.152
    2PC     H3A 5295   4.635   0.486   6.133
    2PC     H3B 5296   4.639   0.658   6.089
    2PC     H3C 5297   4.598   0.610   6.258
    2PC     C34 5298   4.408   0.721   6.082
    2PC     H4A 5299   4.439   0.785   6.165
    2PC     H4B 5300   4.464   0.770   6.002
    2PC     H4C 5301   4.300   0.732   6.077
    2PC     C35 5302   4.363   0.522   6.216
    2PC     H5A 5303   4.257   0.518   6.190
    2PC     H5B 5304   4.371   0.592   6.300
    2PC     H5C 5305   4.409   0.430   6.251
    2PC     O33 5306   4.383   0.076   6.183
    2PC     O34 5307   4.561   0.082   6.030
    2PC     O21 5308   4.270   0.026   5.650
    2PC     C21 5309   4.376   0.037   5.569
    2PC     O22 5310   4.471  -0.038   5.563
    3OL     C12 5311   4.367   0.169   5.496
    3OL     H2R 5312   4.332   0.243   5.568
    3OL     H2S 5313   4.285   0.168   5.424
    3OL     C13 5314   4.496   0.202   5.420
    3OL     H3R 5315   4.517   0.133   5.338
    3OL     H3S 5316   4.584   0.188   5.483
    3OL     C14 5317   4.495   0.345   5.366
    3OL     H4R 5318   4.466   0.417   5.444
    3OL     H4S 5319   4.409   0.349   5.298
    3OL     C15 5320   4.626   0.384   5.297
    3OL     H5R 5321   4.656   0.307   5.226
    3OL     H5S 5322   4.704   0.383   5.374
    3OL     C16 5323   4.611   0.523   5.233
    3OL     H6R 5324   4.558   0.596   5.295
    3OL     H6S 5325   4.544   0.519   5.148
    3OL     C17 5326   4.740   0.582   5.174
    3OL     H7R 5327   4.801   0.516   5.112
    3OL     H7S 5328   4.802   0.603   5.262
    3OL     C18 5329   4.732   0.718   5.103
    3OL     H8R 5330   4.815   0.782   5.136
    3OL     H8S 5331   4.652   0.768   5.159
    3OL     C19 5332   4.714   0.720   4.954
    3OL     H9R 5333   4.646   0.644   4.916
    3OL    C110 5334   4.773   0.802   4.868
    3OL    H10R 5335   4.755   0.785   4.762
    3OL    C111 5336   4.852   0.924   4.910
    3OL    H11R 5337   4.834   0.940   5.017
    3OL    H11S 5338   4.791   1.004   4.869
    3OL    C112 5339   4.997   0.921   4.862
    3OL    H12R 5340   5.046   0.835   4.908
    3OL    H12S 5341   5.044   1.015   4.891
    3OL    C113 5342   5.004   0.908   4.709
    3OL    H13R 5343   4.949   0.820   4.676
    3OL    H13S 5344   5.112   0.896   4.696
    3OL    C114 5345   4.953   1.033   4.635
    3OL    H14R 5346   5.022   1.117   4.627
    3OL    H14S 5347   4.856   1.063   4.673
    3OL    C115 5348   4.932   0.993   4.488
    3OL    H15R 5349   4.871   0.903   4.484
    3OL    H15S 5350   5.028   0.953   4.453
    3OL    C116 5351   4.862   1.106   4.411
    3OL    H16R 5352   4.791   1.169   4.464
    3OL    H16S 5353   4.805   1.054   4.333
    3OL    C117 5354   4.962   1.196   4.336
    3OL    H17R 5355   5.014   1.137   4.261
    3OL    H17S 5356   5.018   1.249   4.413
    3OL    C118 5357   4.887   1.305   4.258
    3OL    H18R 5358   4.815   1.259   4.190
    3OL    H18S 5359   4.962   1.362   4.203
    3OL    H18T 5360   4.828   1.370   4.324
    1PA    C116 5361   4.855   3.417   3.753
    1PA    H16R 5362   4.903   3.335   3.806
    1PA    H16S 5363   4.890   3.428   3.651
    1PA    H16T 5364   4.750   3.388   3.743
    1PA    C115 5365   4.869   3.543   3.840
    1PA    H15R 5366   4.838   3.521   3.943
    1PA    H15S 5367   4.977   3.561   3.842
    1PA    C114 5368   4.781   3.660   3.795
    1PA    H14R 5369   4.817   3.683   3.694
    1PA    H14S 5370   4.677   3.629   3.783
    1PA    C113 5371   4.796   3.784   3.885
    1PA    H13R 5372   4.901   3.800   3.908
    1PA    H13S 5373   4.757   3.871   3.832
    1PA    C112 5374   4.712   3.766   4.013
    1PA    H12R 5375   4.610   3.731   3.995
    1PA    H12S 5376   4.754   3.698   4.088
    1PA    C111 5377   4.696   3.905   4.074
    1PA    H11R 5378   4.792   3.934   4.118
    1PA    H11S 5379   4.670   3.979   3.997
    1PA    C110 5380   4.589   3.907   4.184
    1PA    H10R 5381   4.594   4.002   4.238
    1PA    H10S 5382   4.493   3.905   4.133
    1PA     C19 5383   4.592   3.801   4.294
    1PA     H9R 5384   4.608   3.708   4.240
    1PA     H9S 5385   4.684   3.810   4.353
    1PA     C18 5386   4.458   3.801   4.368
    1PA     H8R 5387   4.435   3.904   4.396
    1PA     H8S 5388   4.376   3.782   4.299
    1PA     C17 5389   4.456   3.712   4.493
    1PA     H7R 5390   4.351   3.699   4.519
    1PA     H7S 5391   4.501   3.622   4.450
    1PA     C16 5392   4.543   3.761   4.609
    1PA     H6R 5393   4.644   3.774   4.569
    1PA     H6S 5394   4.520   3.864   4.639
    1PA     C15 5395   4.550   3.664   4.728
    1PA     H5R 5396   4.451   3.630   4.760
    1PA     H5S 5397   4.601   3.574   4.696
    1PA     C14 5398   4.616   3.741   4.844
    1PA     H4R 5399   4.694   3.800   4.795
    1PA     H4S 5400   4.549   3.815   4.887
    1PA     C13 5401   4.673   3.647   4.951
    1PA     H3R 5402   4.720   3.560   4.906
    1PA     H3S 5403   4.750   3.698   5.011
    1PA     C12 5404   4.559   3.593   5.038
    1PA     H2R 5405   4.513   3.676   5.093
    1PA     H2S 5406   4.481   3.551   4.973
    2PC     C11 5407   4.606   3.482   5.128
    2PC     O12 5408   4.725   3.469   5.148
    2PC     O11 5409   4.507   3.407   5.180
    2PC      C1 5410   4.550   3.296   5.260
    2PC      HR 5411   4.611   3.230   5.197
    2PC      HS 5412   4.616   3.330   5.341
    2PC      C2 5413   4.428   3.221   5.315
    2PC      HX 5414   4.341   3.287   5.321
    2PC      C3 5415   4.462   3.152   5.447
    2PC      HA 5416   4.487   3.229   5.520
    2PC      HB 5417   4.385   3.084   5.483
    2PC     O31 5418   4.580   3.070   5.437
    2PC     P31 5419   4.666   3.022   5.564
    2PC     O32 5420   4.562   2.954   5.665
    2PC     C31 5421   4.612   2.873   5.773
    2PC     H1A 5422   4.666   2.790   5.728
    2PC     H1B 5423   4.682   2.923   5.840
    2PC     C32 5424   4.486   2.839   5.853
    2PC     H2A 5425   4.420   2.779   5.790
    2PC     H2B 5426   4.512   2.772   5.935
    2PC     N31 5427   4.408   2.955   5.906
    2PC     C33 5428   4.496   3.068   5.949
    2PC     H3A 5429   4.551   3.107   5.863
    2PC     H3B 5430   4.445   3.153   5.995
    2PC     H3C 5431   4.557   3.019   6.025
    2PC     C34 5432   4.311   3.010   5.806
    2PC     H4A 5433   4.374   3.068   5.738
    2PC     H4B 5434   4.256   2.929   5.758
    2PC     H4C 5435   4.242   3.078   5.856
    2PC     C35 5436   4.337   2.901   6.027
    2PC     H5A 5437   4.394   2.888   6.119
    2PC     H5B 5438   4.289   2.806   6.001
    2PC     H5C 5439   4.251   2.960   6.057
    2PC     O33 5440   4.772   2.922   5.541
    2PC     O34 5441   4.726   3.139   5.632
    2PC     O21 5442   4.396   3.125   5.213
    2PC     C21 5443   4.305   3.027   5.226
    2PC     O22 5444   4.214   3.031   5.307
    3OL     C12 5445   4.307   2.915   5.125
    3OL     H2R 5446   4.243   2.953   5.045
    3OL     H2S 5447   4.264   2.823   5.165
    3OL     C13 5448   4.448   2.889   5.070
    3OL     H3R 5449   4.511   2.862   5.155
    3OL     H3S 5450   4.481   2.988   5.041
    3OL     C14 5451   4.450   2.787   4.955
    3OL     H4R 5452   4.389   2.812   4.868
    3OL     H4S 5453   4.398   2.695   4.984
    3OL     C15 5454   4.597   2.765   4.914
    3OL     H5R 5455   4.646   2.717   4.999
    3OL     H5S 5456   4.639   2.860   4.880
    3OL     C16 5457   4.606   2.663   4.801
    3OL     H6R 5458   4.545   2.699   4.717
    3OL     H6S 5459   4.556   2.571   4.833
    3OL     C17 5460   4.751   2.639   4.756
    3OL     H7R 5461   4.796   2.580   4.835
    3OL     H7S 5462   4.803   2.733   4.733
    3OL     C18 5463   4.759   2.538   4.641
    3OL     H8R 5464   4.660   2.522   4.598
    3OL     H8S 5465   4.785   2.441   4.683
    3OL     C19 5466   4.862   2.582   4.539
    3OL     H9R 5467   4.965   2.573   4.573
    3OL    C110 5468   4.829   2.631   4.420
    3OL    H10R 5469   4.910   2.656   4.352
    3OL    C111 5470   4.692   2.675   4.377
    3OL    H11R 5471   4.681   2.783   4.369
    3OL    H11S 5472   4.620   2.643   4.452
    3OL    C112 5473   4.650   2.602   4.248
    3OL    H12R 5474   4.656   2.494   4.255
    3OL    H12S 5475   4.722   2.635   4.173
    3OL    C113 5476   4.503   2.640   4.223
    3OL    H13R 5477   4.462   2.608   4.127
    3OL    H13S 5478   4.499   2.749   4.215
    3OL    C114 5479   4.401   2.592   4.326
    3OL    H14R 5480   4.300   2.622   4.296
    3OL    H14S 5481   4.419   2.647   4.419
    3OL    C115 5482   4.417   2.441   4.351
    3OL    H15R 5483   4.350   2.406   4.430
    3OL    H15S 5484   4.519   2.411   4.376
    3OL    C116 5485   4.375   2.371   4.221
    3OL    H16R 5486   4.449   2.386   4.143
    3OL    H16S 5487   4.279   2.420   4.203
    3OL    C117 5488   4.346   2.221   4.241
    3OL    H17R 5489   4.292   2.205   4.335
    3OL    H17S 5490   4.444   2.177   4.257
    3OL    C118 5491   4.285   2.152   4.119
    3OL    H18R 5492   4.354   2.165   4.035
    3OL    H18S 5493   4.186   2.188   4.090
    3OL    H18T 5494   4.282   2.046   4.144
    1PA    C116 5495   1.486   3.299   4.093
    1PA    H16R 5496   1.552   3.278   4.178
    1PA    H16S 5497   1.546   3.278   4.005
    1PA    H16T 5498   1.403   3.229   4.084
    1PA    C115 5499   1.438   3.445   4.088
    1PA    H15R 5500   1.523   3.513   4.082
    1PA    H15S 5501   1.386   3.451   3.992
    1PA    C114 5502   1.344   3.469   4.207
    1PA    H14R 5503   1.300   3.569   4.196
    1PA    H14S 5504   1.262   3.397   4.216
    1PA    C113 5505   1.417   3.468   4.341
    1PA    H13R 5506   1.458   3.368   4.356
    1PA    H13S 5507   1.496   3.544   4.332
    1PA    C112 5508   1.341   3.516   4.466
    1PA    H12R 5509   1.288   3.608   4.442
    1PA    H12S 5510   1.259   3.449   4.493
    1PA    C111 5511   1.446   3.556   4.571
    1PA    H11R 5512   1.524   3.626   4.540
    1PA    H11S 5513   1.397   3.614   4.649
    1PA    C110 5514   1.510   3.424   4.617
    1PA    H10R 5515   1.436   3.345   4.635
    1PA    H10S 5516   1.575   3.392   4.536
    1PA     C19 5517   1.588   3.456   4.745
    1PA     H9R 5518   1.657   3.539   4.728
    1PA     H9S 5519   1.517   3.487   4.822
    1PA     C18 5520   1.655   3.326   4.791
    1PA     H8R 5521   1.692   3.257   4.715
    1PA     H8S 5522   1.738   3.333   4.862
    1PA     C17 5523   1.556   3.249   4.879
    1PA     H7R 5524   1.526   3.309   4.966
    1PA     H7S 5525   1.462   3.232   4.826
    1PA     C16 5526   1.637   3.125   4.920
    1PA     H6R 5527   1.674   3.079   4.828
    1PA     H6S 5528   1.718   3.160   4.983
    1PA     C15 5529   1.552   3.021   4.995
    1PA     H5R 5530   1.483   3.068   5.065
    1PA     H5S 5531   1.487   2.961   4.930
    1PA     C14 5532   1.648   2.928   5.070
    1PA     H4R 5533   1.727   2.894   5.003
    1PA     H4S 5534   1.717   2.976   5.139
    1PA     C13 5535   1.595   2.803   5.142
    1PA     H3R 5536   1.515   2.826   5.213
    1PA     H3S 5537   1.559   2.728   5.071
    1PA     C12 5538   1.706   2.727   5.215
    1PA     H2R 5539   1.770   2.687   5.136
    1PA     H2S 5540   1.762   2.803   5.269
    2PC     C11 5541   1.657   2.617   5.305
    2PC     O12 5542   1.541   2.585   5.294
    2PC     O11 5543   1.749   2.560   5.385
    2PC      C1 5544   1.713   2.467   5.489
    2PC      HR 5545   1.807   2.449   5.542
    2PC      HS 5546   1.640   2.519   5.550
    2PC      C2 5547   1.661   2.335   5.429
    2PC      HX 5548   1.582   2.374   5.365
    2PC      C3 5549   1.596   2.255   5.543
    2PC      HA 5550   1.505   2.300   5.584
    2PC      HB 5551   1.562   2.157   5.509
    2PC     O31 5552   1.683   2.237   5.656
    2PC     P31 5553   1.649   2.135   5.774
    2PC     O32 5554   1.731   2.226   5.877
    2PC     C31 5555   1.866   2.182   5.900
    2PC     H1A 5556   1.888   2.076   5.913
    2PC     H1B 5557   1.920   2.207   5.808
    2PC     C32 5558   1.936   2.261   6.011
    2PC     H2A 5559   1.890   2.231   6.106
    2PC     H2B 5560   2.041   2.230   6.011
    2PC     N31 5561   1.954   2.409   5.998
    2PC     C33 5562   1.820   2.477   5.991
    2PC     H3A 5563   1.834   2.585   5.989
    2PC     H3B 5564   1.765   2.442   5.904
    2PC     H3C 5565   1.755   2.435   6.069
    2PC     C34 5566   2.032   2.459   6.115
    2PC     H4A 5567   2.065   2.563   6.111
    2PC     H4B 5568   1.969   2.442   6.202
    2PC     H4C 5569   2.118   2.392   6.112
    2PC     C35 5570   2.035   2.443   5.877
    2PC     H5A 5571   2.062   2.549   5.883
    2PC     H5B 5572   1.980   2.422   5.785
    2PC     H5C 5573   2.124   2.380   5.879
    2PC     O33 5574   1.505   2.110   5.798
    2PC     O34 5575   1.716   2.010   5.731
    2PC     O21 5576   1.771   2.269   5.365
    2PC     C21 5577   1.745   2.166   5.283
    2PC     O22 5578   1.635   2.138   5.240
    3OL     C12 5579   1.862   2.073   5.260
    3OL     H2R 5580   1.880   2.022   5.355
    3OL     H2S 5581   1.952   2.131   5.240
    3OL     C13 5582   1.838   1.963   5.155
    3OL     H3R 5583   1.734   1.930   5.147
    3OL     H3S 5584   1.904   1.882   5.184
    3OL     C14 5585   1.874   2.021   5.017
    3OL     H4R 5586   1.979   2.052   5.022
    3OL     H4S 5587   1.798   2.092   4.985
    3OL     C15 5588   1.890   1.908   4.914
    3OL     H5R 5589   1.798   1.849   4.912
    3OL     H5S 5590   1.966   1.839   4.953
    3OL     C16 5591   1.931   1.953   4.773
    3OL     H6R 5592   1.852   2.015   4.731
    3OL     H6S 5593   1.925   1.858   4.720
    3OL     C17 5594   2.073   2.008   4.752
    3OL     H7R 5595   2.145   1.927   4.768
    3OL     H7S 5596   2.086   2.091   4.821
    3OL     C18 5597   2.085   2.065   4.610
    3OL     H8R 5598   1.997   2.121   4.578
    3OL     H8S 5599   2.098   1.988   4.534
    3OL     C19 5600   2.209   2.149   4.591
    3OL     H9R 5601   2.300   2.094   4.613
    3OL    C110 5602   2.215   2.271   4.540
    3OL    H10R 5603   2.311   2.317   4.518
    3OL    C111 5604   2.098   2.364   4.518
    3OL    H11R 5605   2.129   2.451   4.576
    3OL    H11S 5606   2.003   2.329   4.559
    3OL    C112 5607   2.082   2.396   4.368
    3OL    H12R 5608   2.181   2.426   4.334
    3OL    H12S 5609   2.023   2.486   4.351
    3OL    C113 5610   2.038   2.268   4.297
    3OL    H13R 5611   1.939   2.229   4.324
    3OL    H13S 5612   2.103   2.186   4.327
    3OL    C114 5613   2.045   2.282   4.145
    3OL    H14R 5614   1.966   2.349   4.111
    3OL    H14S 5615   2.029   2.181   4.107
    3OL    C115 5616   2.180   2.319   4.080
    3OL    H15R 5617   2.256   2.256   4.127
    3OL    H15S 5618   2.204   2.422   4.107
    3OL    C116 5619   2.177   2.295   3.928
    3OL    H16R 5620   2.085   2.339   3.890
    3OL    H16S 5621   2.184   2.189   3.902
    3OL    C117 5622   2.298   2.363   3.862
    3OL    H17R 5623   2.315   2.313   3.767
    3OL    H17S 5624   2.390   2.351   3.919
    3OL    C118 5625   2.281   2.514   3.841
    3OL    H18R 5626   2.220   2.536   3.753
    3OL    H18S 5627   2.381   2.559   3.838
    3OL    H18T 5628   2.228   2.550   3.929
    1PA    C116 5629   2.648   2.256   4.426
    1PA    H16R 5630   2.604   2.342   4.476
    1PA    H16S 5631   2.699   2.298   4.339
    1PA    H16T 5632   2.712   2.215   4.504
    1PA    C115 5633   2.546   2.152   4.375
    1PA    H15R 5634   2.466   2.156   4.448
    1PA    H15S 5635   2.501   2.194   4.285
    1PA    C114 5636   2.598   2.014   4.334
    1PA    H14R 5637   2.648   2.027   4.238
    1PA    H14S 5638   2.682   1.983   4.398
    1PA    C113 5639   2.491   1.905   4.318
    1PA    H13R 5640   2.397   1.936   4.271
    1PA    H13S 5641   2.529   1.826   4.253
    1PA    C112 5642   2.458   1.844   4.455
    1PA    H12R 5643   2.550   1.799   4.494
    1PA    H12S 5644   2.423   1.920   4.526
    1PA    C111 5645   2.364   1.723   4.442
    1PA    H11R 5646   2.270   1.735   4.387
    1PA    H11S 5647   2.409   1.640   4.387
    1PA    C110 5648   2.319   1.676   4.581
    1PA    H10R 5649   2.402   1.650   4.647
    1PA    H10S 5650   2.263   1.759   4.624
    1PA     C19 5651   2.236   1.547   4.583
    1PA     H9R 5652   2.302   1.467   4.547
    1PA     H9S 5653   2.210   1.520   4.686
    1PA     C18 5654   2.114   1.555   4.491
    1PA     H8R 5655   2.069   1.650   4.521
    1PA     H8S 5656   2.151   1.565   4.389
    1PA     C17 5657   2.008   1.446   4.514
    1PA     H7R 5658   1.936   1.463   4.433
    1PA     H7S 5659   2.052   1.350   4.486
    1PA     C16 5660   1.938   1.442   4.650
    1PA     H6R 5661   2.020   1.433   4.721
    1PA     H6S 5662   1.883   1.537   4.658
    1PA     C15 5663   1.844   1.321   4.651
    1PA     H5R 5664   1.787   1.304   4.560
    1PA     H5S 5665   1.903   1.229   4.663
    1PA     C14 5666   1.747   1.321   4.770
    1PA     H4R 5667   1.702   1.421   4.769
    1PA     H4S 5668   1.669   1.248   4.745
    1PA     C13 5669   1.825   1.298   4.900
    1PA     H3R 5670   1.883   1.205   4.896
    1PA     H3S 5671   1.897   1.380   4.908
    1PA     C12 5672   1.736   1.279   5.023
    1PA     H2R 5673   1.668   1.364   5.026
    1PA     H2S 5674   1.682   1.186   5.001
    2PC     C11 5675   1.827   1.281   5.143
    2PC     O12 5676   1.858   1.385   5.199
    2PC     O11 5677   1.859   1.162   5.196
    2PC      C1 5678   1.939   1.148   5.315
    2PC      HR 5679   2.036   1.198   5.305
    2PC      HS 5680   1.888   1.189   5.402
    2PC      C2 5681   1.977   0.999   5.325
    2PC      HX 5682   1.881   0.949   5.308
    2PC      C3 5683   2.028   0.946   5.459
    2PC      HA 5684   1.960   0.973   5.541
    2PC      HB 5685   2.028   0.836   5.456
    2PC     O31 5686   2.163   0.992   5.474
    2PC     P31 5687   2.258   0.914   5.578
    2PC     O32 5688   2.202   0.955   5.722
    2PC     C31 5689   2.270   1.057   5.797
    2PC     H1A 5690   2.253   1.045   5.905
    2PC     H1B 5691   2.376   1.039   5.780
    2PC     C32 5692   2.204   1.188   5.751
    2PC     H2A 5693   2.267   1.276   5.762
    2PC     H2B 5694   2.172   1.173   5.648
    2PC     N31 5695   2.076   1.224   5.820
    2PC     C33 5696   1.963   1.136   5.776
    2PC     H3A 5697   1.953   1.141   5.667
    2PC     H3B 5698   1.975   1.033   5.809
    2PC     H3C 5699   1.873   1.175   5.824
    2PC     C34 5700   2.091   1.209   5.968
    2PC     H4A 5701   2.005   1.265   6.004
    2PC     H4B 5702   2.079   1.107   6.005
    2PC     H4C 5703   2.189   1.238   6.007
    2PC     C35 5704   2.048   1.370   5.797
    2PC     H5A 5705   2.063   1.400   5.693
    2PC     H5B 5706   2.104   1.436   5.865
    2PC     H5C 5707   1.940   1.377   5.809
    2PC     O33 5708   2.247   0.768   5.559
    2PC     O34 5709   2.398   0.951   5.549
    2PC     O21 5710   2.058   0.975   5.209
    2PC     C21 5711   2.078   0.848   5.169
    2PC     O22 5712   2.038   0.748   5.223
    3OL     C12 5713   2.155   0.833   5.040
    3OL     H2R 5714   2.162   0.730   5.004
    3OL     H2S 5715   2.257   0.872   5.051
    3OL     C13 5716   2.098   0.926   4.932
    3OL     H3R 5717   2.129   1.030   4.941
    3OL     H3S 5718   1.990   0.935   4.946
    3OL     C14 5719   2.145   0.872   4.796
    3OL     H4R 5720   2.107   0.770   4.786
    3OL     H4S 5721   2.253   0.879   4.781
    3OL     C15 5722   2.080   0.952   4.682
    3OL     H5R 5723   1.982   0.989   4.710
    3OL     H5S 5724   2.071   0.890   4.592
    3OL     C16 5725   2.168   1.072   4.645
    3OL     H6R 5726   2.220   1.109   4.734
    3OL     H6S 5727   2.108   1.149   4.596
    3OL     C17 5728   2.271   1.033   4.539
    3OL     H7R 5729   2.215   1.041   4.445
    3OL     H7S 5730   2.303   0.929   4.549
    3OL     C18 5731   2.384   1.136   4.530
    3OL     H8R 5732   2.445   1.110   4.617
    3OL     H8S 5733   2.357   1.240   4.548
    3OL     C19 5734   2.475   1.114   4.411
    3OL     H9R 5735   2.532   1.022   4.401
    3OL    C110 5736   2.472   1.195   4.306
    3OL    H10R 5737   2.537   1.165   4.225
    3OL    C111 5738   2.391   1.322   4.307
    3OL    H11R 5739   2.402   1.376   4.401
    3OL    H11S 5740   2.285   1.310   4.284
    3OL    C112 5741   2.435   1.423   4.199
    3OL    H12R 5742   2.529   1.465   4.235
    3OL    H12S 5743   2.360   1.502   4.187
    3OL    C113 5744   2.452   1.361   4.060
    3OL    H13R 5745   2.356   1.310   4.047
    3OL    H13S 5746   2.527   1.282   4.066
    3OL    C114 5747   2.473   1.459   3.944
    3OL    H14R 5748   2.564   1.518   3.955
    3OL    H14S 5749   2.397   1.536   3.928
    3OL    C115 5750   2.495   1.368   3.822
    3OL    H15R 5751   2.397   1.323   3.807
    3OL    H15S 5752   2.582   1.303   3.835
    3OL    C116 5753   2.534   1.448   3.697
    3OL    H16R 5754   2.633   1.494   3.702
    3OL    H16S 5755   2.460   1.528   3.697
    3OL    C117 5756   2.516   1.369   3.567
    3OL    H17R 5757   2.417   1.323   3.565
    3OL    H17S 5758   2.588   1.290   3.547
    3OL    C118 5759   2.522   1.450   3.437
    3OL    H18R 5760   2.623   1.476   3.406
    3OL    H18S 5761   2.448   1.528   3.455
    3OL    H18T 5762   2.481   1.388   3.356
    1PA    C116 5763   6.066   6.891   3.856
    1PA    H16R 5764   6.026   6.790   3.839
    1PA    H16S 5765   6.167   6.904   3.817
    1PA    H16T 5766   5.996   6.960   3.809
    1PA    C115 5767   6.068   6.920   4.007
    1PA    H15R 5768   6.120   7.016   4.018
    1PA    H15S 5769   5.963   6.933   4.034
    1PA    C114 5770   6.140   6.817   4.095
    1PA    H14R 5771   6.107   6.714   4.082
    1PA    H14S 5772   6.247   6.824   4.076
    1PA    C113 5773   6.113   6.848   4.243
    1PA    H13R 5774   6.162   6.943   4.266
    1PA    H13S 5775   6.007   6.849   4.269
    1PA    C112 5776   6.177   6.746   4.340
    1PA    H12R 5777   6.146   6.646   4.309
    1PA    H12S 5778   6.285   6.763   4.343
    1PA    C111 5779   6.130   6.767   4.484
    1PA    H11R 5780   6.114   6.873   4.508
    1PA    H11S 5781   6.028   6.729   4.485
    1PA    C110 5782   6.212   6.699   4.595
    1PA    H10R 5783   6.315   6.734   4.582
    1PA    H10S 5784   6.160   6.727   4.686
    1PA     C19 5785   6.197   6.546   4.585
    1PA     H9R 5786   6.091   6.527   4.573
    1PA     H9S 5787   6.245   6.518   4.491
    1PA     C18 5788   6.266   6.459   4.691
    1PA     H8R 5789   6.273   6.363   4.639
    1PA     H8S 5790   6.370   6.489   4.702
    1PA     C17 5791   6.197   6.442   4.827
    1PA     H7R 5792   6.209   6.539   4.877
    1PA     H7S 5793   6.091   6.420   4.809
    1PA     C16 5794   6.263   6.343   4.924
    1PA     H6R 5795   6.272   6.245   4.875
    1PA     H6S 5796   6.364   6.382   4.936
    1PA     C15 5797   6.186   6.333   5.056
    1PA     H5R 5798   6.157   6.432   5.091
    1PA     H5S 5799   6.094   6.274   5.050
    1PA     C14 5800   6.272   6.264   5.163
    1PA     H4R 5801   6.320   6.175   5.122
    1PA     H4S 5802   6.357   6.322   5.201
    1PA     C13 5803   6.187   6.226   5.286
    1PA     H3R 5804   6.152   6.319   5.331
    1PA     H3S 5805   6.111   6.155   5.254
    1PA     C12 5806   6.278   6.158   5.390
    1PA     H2R 5807   6.301   6.056   5.358
    1PA     H2S 5808   6.372   6.212   5.404
    2PC     C11 5809   6.209   6.132   5.522
    2PC     O12 5810   6.150   6.224   5.575
    2PC     O11 5811   6.219   6.009   5.573
    2PC      C1 5812   6.149   5.983   5.697
    2PC      HR 5813   6.180   5.886   5.736
    2PC      HS 5814   6.174   6.063   5.766
    2PC      C2 5815   5.998   5.986   5.667
    2PC      HX 5816   5.959   6.087   5.650
    2PC      C3 5817   5.923   5.939   5.793
    2PC      HA 5818   5.906   6.025   5.857
    2PC      HB 5819   5.834   5.881   5.765
    2PC     O31 5820   6.008   5.857   5.876
    2PC     P31 5821   5.963   5.807   6.021
    2PC     O32 5822   5.847   5.908   6.066
    2PC     C31 5823   5.809   5.908   6.204
    2PC     H1A 5824   5.779   5.804   6.214
    2PC     H1B 5825   5.893   5.940   6.266
    2PC     C32 5826   5.691   6.003   6.229
    2PC     H2A 5827   5.662   5.978   6.331
    2PC     H2B 5828   5.734   6.103   6.216
    2PC     N31 5829   5.563   5.987   6.153
    2PC     C33 5830   5.509   5.847   6.153
    2PC     H3A 5831   5.586   5.790   6.101
    2PC     H3B 5832   5.499   5.817   6.257
    2PC     H3C 5833   5.418   5.845   6.093
    2PC     C34 5834   5.463   6.077   6.221
    2PC     H4A 5835   5.467   6.072   6.330
    2PC     H4B 5836   5.497   6.173   6.182
    2PC     H4C 5837   5.363   6.053   6.185
    2PC     C35 5838   5.575   6.040   6.013
    2PC     H5A 5839   5.667   6.099   6.012
    2PC     H5B 5840   5.492   6.096   5.969
    2PC     H5C 5841   5.590   5.950   5.953
    2PC     O33 5842   5.916   5.667   6.017
    2PC     O34 5843   6.080   5.786   6.111
    2PC     O21 5844   5.972   5.900   5.555
    2PC     C21 5845   5.936   5.953   5.437
    2PC     O22 5846   5.911   6.069   5.412
    3OL     C12 5847   5.934   5.840   5.337
    3OL     H2R 5848   5.840   5.786   5.349
    3OL     H2S 5849   6.004   5.760   5.359
    3OL     C13 5850   5.953   5.894   5.194
    3OL     H3R 5851   6.048   5.947   5.199
    3OL     H3S 5852   5.868   5.959   5.171
    3OL     C14 5853   5.966   5.776   5.097
    3OL     H4R 5854   5.864   5.740   5.083
    3OL     H4S 5855   6.026   5.692   5.134
    3OL     C15 5856   6.026   5.817   4.962
    3OL     H5R 5857   5.970   5.906   4.931
    3OL     H5S 5858   6.013   5.738   4.887
    3OL     C16 5859   6.177   5.845   4.969
    3OL     H6R 5860   6.228   5.763   5.020
    3OL     H6S 5861   6.186   5.935   5.031
    3OL     C17 5862   6.233   5.868   4.828
    3OL     H7R 5863   6.172   5.949   4.787
    3OL     H7S 5864   6.224   5.780   4.765
    3OL     C18 5865   6.380   5.912   4.822
    3OL     H8R 5866   6.399   5.989   4.898
    3OL     H8S 5867   6.400   5.952   4.722
    3OL     C19 5868   6.468   5.795   4.856
    3OL     H9R 5869   6.470   5.768   4.962
    3OL    C110 5870   6.550   5.729   4.776
    3OL    H10R 5871   6.609   5.645   4.811
    3OL    C111 5872   6.542   5.734   4.625
    3OL    H11R 5873   6.629   5.787   4.587
    3OL    H11S 5874   6.457   5.796   4.596
    3OL    C112 5875   6.559   5.593   4.567
    3OL    H12R 5876   6.476   5.528   4.596
    3OL    H12S 5877   6.654   5.549   4.599
    3OL    C113 5878   6.558   5.588   4.414
    3OL    H13R 5879   6.464   5.618   4.368
    3OL    H13S 5880   6.569   5.482   4.389
    3OL    C114 5881   6.667   5.670   4.342
    3OL    H14R 5882   6.647   5.777   4.349
    3OL    H14S 5883   6.659   5.657   4.234
    3OL    C115 5884   6.813   5.647   4.384
    3OL    H15R 5885   6.815   5.658   4.493
    3OL    H15S 5886   6.865   5.736   4.347
    3OL    C116 5887   6.876   5.516   4.334
    3OL    H16R 5888   6.914   5.536   4.234
    3OL    H16S 5889   6.804   5.434   4.336
    3OL    C117 5890   6.996   5.474   4.420
    3OL    H17R 5891   6.949   5.444   4.514
    3OL    H17S 5892   7.067   5.556   4.432
    3OL    C118 5893   7.068   5.351   4.363
    3OL    H18R 5894   7.123   5.366   4.270
    3OL    H18S 5895   7.007   5.261   4.352
    3OL    H18T 5896   7.148   5.329   4.435
    1PA    C116 5897   2.759   1.609   4.649
    1PA    H16R 5898   2.697   1.686   4.696
    1PA    H16S 5899   2.756   1.615   4.540
    1PA    H16T 5900   2.861   1.636   4.676
    1PA    C115 5901   2.709   1.467   4.678
    1PA    H15R 5902   2.618   1.462   4.619
    1PA    H15S 5903   2.780   1.405   4.622
    1PA    C114 5904   2.707   1.433   4.828
    1PA    H14R 5905   2.813   1.437   4.851
    1PA    H14S 5906   2.662   1.505   4.897
    1PA    C113 5907   2.644   1.299   4.866
    1PA    H13R 5908   2.628   1.240   4.775
    1PA    H13S 5909   2.706   1.236   4.930
    1PA    C112 5910   2.514   1.314   4.946
    1PA    H12R 5911   2.492   1.222   5.001
    1PA    H12S 5912   2.537   1.384   5.026
    1PA    C111 5913   2.392   1.359   4.863
    1PA    H11R 5914   2.414   1.464   4.840
    1PA    H11S 5915   2.394   1.312   4.765
    1PA    C110 5916   2.261   1.336   4.940
    1PA    H10R 5917   2.180   1.345   4.868
    1PA    H10S 5918   2.259   1.232   4.972
    1PA     C19 5919   2.248   1.430   5.061
    1PA     H9R 5920   2.151   1.401   5.101
    1PA     H9S 5921   2.320   1.398   5.136
    1PA     C18 5922   2.254   1.581   5.032
    1PA     H8R 5923   2.354   1.613   5.001
    1PA     H8S 5924   2.180   1.604   4.954
    1PA     C17 5925   2.221   1.660   5.159
    1PA     H7R 5926   2.117   1.635   5.183
    1PA     H7S 5927   2.280   1.623   5.243
    1PA     C16 5928   2.250   1.810   5.146
    1PA     H6R 5929   2.347   1.832   5.101
    1PA     H6S 5930   2.178   1.844   5.072
    1PA     C15 5931   2.230   1.902   5.268
    1PA     H5R 5932   2.123   1.903   5.291
    1PA     H5S 5933   2.287   1.869   5.355
    1PA     C14 5934   2.270   2.047   5.239
    1PA     H4R 5935   2.227   2.078   5.144
    1PA     H4S 5936   2.233   2.106   5.323
    1PA     C13 5937   2.423   2.064   5.231
    1PA     H3R 5938   2.470   2.019   5.319
    1PA     H3S 5939   2.454   2.011   5.141
    1PA     C12 5940   2.458   2.213   5.217
    1PA     H2R 5941   2.554   2.217   5.165
    1PA     H2S 5942   2.378   2.260   5.160
    2PC     C11 5943   2.471   2.284   5.349
    2PC     O12 5944   2.415   2.249   5.451
    2PC     O11 5945   2.579   2.363   5.341
    2PC      C1 5946   2.635   2.421   5.460
    2PC      HR 5947   2.705   2.502   5.436
    2PC      HS 5948   2.559   2.470   5.523
    2PC      C2 5949   2.700   2.312   5.546
    2PC      HX 5950   2.635   2.225   5.537
    2PC      C3 5951   2.717   2.339   5.696
    2PC      HA 5952   2.770   2.433   5.710
    2PC      HB 5953   2.616   2.351   5.738
    2PC     O31 5954   2.789   2.228   5.752
    2PC     P31 5955   2.800   2.224   5.912
    2PC     O32 5956   2.655   2.164   5.944
    2PC     C31 5957   2.595   2.163   6.075
    2PC     H1A 5958   2.663   2.218   6.140
    2PC     H1B 5959   2.507   2.229   6.080
    2PC     C32 5960   2.574   2.017   6.116
    2PC     H2A 5961   2.663   1.954   6.109
    2PC     H2B 5962   2.533   2.008   6.217
    2PC     N31 5963   2.469   1.936   6.046
    2PC     C33 5964   2.477   1.791   6.086
    2PC     H3A 5965   2.396   1.738   6.035
    2PC     H3B 5966   2.573   1.753   6.051
    2PC     H3C 5967   2.467   1.798   6.194
    2PC     C34 5968   2.331   1.982   6.084
    2PC     H4A 5969   2.310   2.081   6.043
    2PC     H4B 5970   2.253   1.912   6.053
    2PC     H4C 5971   2.337   1.989   6.193
    2PC     C35 5972   2.476   1.933   5.896
    2PC     H5A 5973   2.461   2.031   5.852
    2PC     H5B 5974   2.411   1.851   5.865
    2PC     H5C 5975   2.580   1.909   5.871
    2PC     O33 5976   2.904   2.126   5.949
    2PC     O34 5977   2.807   2.354   5.982
    2PC     O21 5978   2.827   2.289   5.481
    2PC     C21 5979   2.868   2.165   5.449
    2PC     O22 5980   2.808   2.063   5.477
    3OL     C12 5981   3.003   2.161   5.381
    3OL     H2R 5982   3.008   2.081   5.307
    3OL     H2S 5983   3.081   2.154   5.458
    3OL     C13 5984   3.044   2.293   5.315
    3OL     H3R 5985   3.146   2.291   5.277
    3OL     H3S 5986   3.032   2.379   5.382
    3OL     C14 5987   2.961   2.317   5.188
    3OL     H4R 5988   2.972   2.418   5.149
    3OL     H4S 5989   2.855   2.302   5.207
    3OL     C15 5990   2.998   2.228   5.068
    3OL     H5R 5991   2.909   2.205   5.009
    3OL     H5S 5992   3.040   2.135   5.107
    3OL     C16 5993   3.107   2.291   4.981
    3OL     H6R 5994   3.186   2.316   5.052
    3OL     H6S 5995   3.071   2.382   4.932
    3OL     C17 5996   3.154   2.192   4.873
    3OL     H7R 5997   3.104   2.095   4.884
    3OL     H7S 5998   3.263   2.183   4.872
    3OL     C18 5999   3.121   2.245   4.733
    3OL     H8R 6000   3.014   2.260   4.720
    3OL     H8S 6001   3.157   2.181   4.652
    3OL     C19 6002   3.215   2.359   4.702
    3OL     H9R 6003   3.315   2.364   4.746
    3OL    C110 6004   3.182   2.465   4.630
    3OL    H10R 6005   3.252   2.545   4.605
    3OL    C111 6006   3.056   2.481   4.550
    3OL    H11R 6007   3.007   2.384   4.538
    3OL    H11S 6008   3.066   2.519   4.448
    3OL    C112 6009   2.956   2.581   4.611
    3OL    H12R 6010   2.904   2.519   4.684
    3OL    H12S 6011   2.891   2.614   4.530
    3OL    C113 6012   3.025   2.704   4.672
    3OL    H13R 6013   3.095   2.665   4.747
    3OL    H13S 6014   2.960   2.770   4.730
    3OL    C114 6015   3.104   2.780   4.565
    3OL    H14R 6016   3.151   2.706   4.502
    3OL    H14S 6017   3.181   2.851   4.597
    3OL    C115 6018   3.013   2.865   4.475
    3OL    H15R 6019   2.922   2.810   4.450
    3OL    H15S 6020   3.058   2.886   4.378
    3OL    C116 6021   2.972   3.000   4.535
    3OL    H16R 6022   3.057   3.059   4.569
    3OL    H16S 6023   2.906   2.982   4.620
    3OL    C117 6024   2.894   3.084   4.432
    3OL    H17R 6025   2.803   3.040   4.389
    3OL    H17S 6026   2.959   3.102   4.346
    3OL    C118 6027   2.859   3.223   4.486
    3OL    H18R 6028   2.953   3.278   4.495
    3OL    H18S 6029   2.804   3.227   4.579
    3OL    H18T 6030   2.791   3.260   4.408
    1PA    C116 6031   2.977   4.248   4.094
    1PA    H16R 6032   3.038   4.157   4.086
    1PA    H16S 6033   3.038   4.331   4.128
    1PA    H16T 6034   2.941   4.265   3.992
    1PA    C115 6035   2.854   4.223   4.183
    1PA    H15R 6036   2.790   4.308   4.159
    1PA    H15S 6037   2.798   4.134   4.153
    1PA    C114 6038   2.880   4.222   4.335
    1PA    H14R 6039   2.896   4.323   4.374
    1PA    H14S 6040   2.787   4.197   4.387
    1PA    C113 6041   3.000   4.136   4.374
    1PA    H13R 6042   3.089   4.167   4.319
    1PA    H13S 6043   3.019   4.153   4.481
    1PA    C112 6044   2.978   3.985   4.364
    1PA    H12R 6045   2.954   3.970   4.258
    1PA    H12S 6046   3.076   3.936   4.365
    1PA    C111 6047   2.881   3.916   4.461
    1PA    H11R 6048   2.784   3.952   4.426
    1PA    H11S 6049   2.879   3.807   4.458
    1PA    C110 6050   2.898   3.960   4.607
    1PA    H10R 6051   2.889   4.068   4.619
    1PA    H10S 6052   2.821   3.902   4.659
    1PA     C19 6053   3.034   3.915   4.661
    1PA     H9R 6054   3.048   3.808   4.651
    1PA     H9S 6055   3.118   3.958   4.605
    1PA     C18 6056   3.044   3.950   4.811
    1PA     H8R 6057   3.022   4.057   4.809
    1PA     H8S 6058   2.964   3.897   4.864
    1PA     C17 6059   3.187   3.926   4.859
    1PA     H7R 6060   3.224   3.826   4.833
    1PA     H7S 6061   3.249   3.987   4.794
    1PA     C16 6062   3.225   3.937   5.007
    1PA     H6R 6063   3.203   4.038   5.044
    1PA     H6S 6064   3.170   3.869   5.072
    1PA     C15 6065   3.373   3.902   5.029
    1PA     H5R 6066   3.388   3.808   4.975
    1PA     H5S 6067   3.432   3.979   4.980
    1PA     C14 6068   3.415   3.881   5.175
    1PA     H4R 6069   3.523   3.897   5.184
    1PA     H4S 6070   3.366   3.951   5.242
    1PA     C13 6071   3.385   3.737   5.218
    1PA     H3R 6072   3.277   3.728   5.233
    1PA     H3S 6073   3.425   3.661   5.151
    1PA     C12 6074   3.454   3.712   5.353
    1PA     H2R 6075   3.440   3.604   5.363
    1PA     H2S 6076   3.563   3.717   5.357
    2PC     C11 6077   3.386   3.783   5.467
    2PC     O12 6078   3.442   3.841   5.558
    2PC     O11 6079   3.256   3.756   5.484
    2PC      C1 6080   3.190   3.791   5.607
    2PC      HR 6081   3.098   3.736   5.625
    2PC      HS 6082   3.260   3.765   5.687
    2PC      C2 6083   3.146   3.938   5.614
    2PC      HX 6084   3.236   3.996   5.593
    2PC      C3 6085   3.103   3.964   5.759
    2PC      HA 6086   3.011   3.908   5.778
    2PC      HB 6087   3.179   3.919   5.823
    2PC     O31 6088   3.078   4.105   5.777
    2PC     P31 6089   3.079   4.135   5.934
    2PC     O32 6090   3.100   4.293   5.955
    2PC     C31 6091   2.993   4.380   5.915
    2PC     H1A 6092   2.994   4.387   5.806
    2PC     H1B 6093   2.901   4.337   5.956
    2PC     C32 6094   3.006   4.516   5.985
    2PC     H2A 6095   2.909   4.566   5.990
    2PC     H2B 6096   3.037   4.506   6.089
    2PC     N31 6097   3.104   4.616   5.930
    2PC     C33 6098   3.237   4.551   5.910
    2PC     H3A 6099   3.285   4.542   6.008
    2PC     H3B 6100   3.228   4.460   5.850
    2PC     H3C 6101   3.291   4.628   5.854
    2PC     C34 6102   3.070   4.661   5.791
    2PC     H4A 6103   3.129   4.751   5.770
    2PC     H4B 6104   3.099   4.582   5.721
    2PC     H4C 6105   2.963   4.682   5.786
    2PC     C35 6106   3.107   4.735   6.022
    2PC     H5A 6107   3.164   4.699   6.107
    2PC     H5B 6108   3.006   4.758   6.055
    2PC     H5C 6109   3.157   4.812   5.963
    2PC     O33 6110   2.951   4.085   5.990
    2PC     O34 6111   3.192   4.070   6.004
    2PC     O21 6112   3.027   3.958   5.535
    2PC     C21 6113   3.045   3.990   5.406
    2PC     O22 6114   3.154   4.005   5.354
    3OL     C12 6115   2.915   4.022   5.337
    3OL     H2R 6116   2.827   3.980   5.386
    3OL     H2S 6117   2.913   3.982   5.236
    3OL     C13 6118   2.903   4.175   5.335
    3OL     H3R 6119   2.815   4.194   5.273
    3OL     H3S 6120   2.986   4.218   5.278
    3OL     C14 6121   2.897   4.235   5.476
    3OL     H4R 6122   2.983   4.212   5.539
    3OL     H4S 6123   2.805   4.184   5.506
    3OL     C15 6124   2.879   4.387   5.487
    3OL     H5R 6125   2.877   4.417   5.592
    3OL     H5S 6126   2.784   4.414   5.440
    3OL     C16 6127   2.986   4.465   5.409
    3OL     H6R 6128   2.992   4.425   5.308
    3OL     H6S 6129   3.080   4.461   5.465
    3OL     C17 6130   2.974   4.617   5.392
    3OL     H7R 6131   2.972   4.656   5.494
    3OL     H7S 6132   2.880   4.642   5.342
    3OL     C18 6133   3.093   4.683   5.321
    3OL     H8R 6134   3.191   4.642   5.343
    3OL     H8S 6135   3.097   4.784   5.365
    3OL     C19 6136   3.072   4.691   5.172
    3OL     H9R 6137   3.082   4.592   5.127
    3OL    C110 6138   3.045   4.796   5.096
    3OL    H10R 6139   3.013   4.788   4.993
    3OL    C111 6140   3.015   4.937   5.140
    3OL    H11R 6141   3.097   5.005   5.120
    3OL    H11S 6142   3.000   4.933   5.248
    3OL    C112 6143   2.883   4.989   5.081
    3OL    H12R 6144   2.860   5.082   5.134
    3OL    H12S 6145   2.815   4.912   5.119
    3OL    C113 6146   2.870   4.996   4.928
    3OL    H13R 6147   2.774   5.031   4.890
    3OL    H13S 6148   2.884   4.894   4.892
    3OL    C114 6149   2.971   5.096   4.871
    3OL    H14R 6150   3.073   5.062   4.891
    3OL    H14S 6151   2.941   5.187   4.923
    3OL    C115 6152   2.957   5.106   4.719
    3OL    H15R 6153   2.954   5.006   4.674
    3OL    H15S 6154   3.036   5.168   4.678
    3OL    C116 6155   2.831   5.177   4.667
    3OL    H16R 6156   2.804   5.257   4.736
    3OL    H16S 6157   2.754   5.099   4.667
    3OL    C117 6158   2.842   5.218   4.519
    3OL    H17R 6159   2.847   5.123   4.465
    3OL    H17S 6160   2.930   5.280   4.501
    3OL    C118 6161   2.716   5.292   4.471
    3OL    H18R 6162   2.631   5.226   4.488
    3OL    H18S 6163   2.721   5.307   4.363
    3OL    H18T 6164   2.693   5.387   4.518
    1PA    C116 6165   4.899   1.749   4.498
    1PA    H16R 6166   4.826   1.826   4.472
    1PA    H16S 6167   4.948   1.767   4.594
    1PA    H16T 6168   4.838   1.660   4.515
    1PA    C115 6169   5.004   1.730   4.388
    1PA    H15R 6170   4.952   1.729   4.292
    1PA    H15S 6171   5.072   1.815   4.385
    1PA    C114 6172   5.094   1.607   4.405
    1PA    H14R 6173   5.029   1.521   4.418
    1PA    H14S 6174   5.151   1.596   4.313
    1PA    C113 6175   5.179   1.615   4.533
    1PA    H13R 6176   5.233   1.710   4.535
    1PA    H13S 6177   5.116   1.622   4.622
    1PA    C112 6178   5.281   1.502   4.549
    1PA    H12R 6179   5.305   1.465   4.449
    1PA    H12S 6180   5.370   1.547   4.594
    1PA    C111 6181   5.217   1.398   4.642
    1PA    H11R 6182   5.185   1.457   4.729
    1PA    H11S 6183   5.128   1.355   4.596
    1PA    C110 6184   5.308   1.278   4.671
    1PA    H10R 6185   5.283   1.202   4.596
    1PA    H10S 6186   5.411   1.310   4.654
    1PA     C19 6187   5.282   1.215   4.809
    1PA     H9R 6188   5.178   1.233   4.839
    1PA     H9S 6189   5.299   1.107   4.799
    1PA     C18 6190   5.362   1.279   4.922
    1PA     H8R 6191   5.467   1.269   4.891
    1PA     H8S 6192   5.340   1.384   4.938
    1PA     C17 6193   5.338   1.206   5.055
    1PA     H7R 6194   5.230   1.200   5.075
    1PA     H7S 6195   5.376   1.104   5.042
    1PA     C16 6196   5.403   1.262   5.182
    1PA     H6R 6197   5.511   1.272   5.169
    1PA     H6S 6198   5.365   1.363   5.198
    1PA     C15 6199   5.381   1.176   5.307
    1PA     H5R 6200   5.273   1.168   5.322
    1PA     H5S 6201   5.407   1.072   5.286
    1PA     C14 6202   5.458   1.231   5.428
    1PA     H4R 6203   5.567   1.239   5.421
    1PA     H4S 6204   5.427   1.331   5.459
    1PA     C13 6205   5.430   1.158   5.560
    1PA     H3R 6206   5.470   1.059   5.538
    1PA     H3S 6207   5.489   1.203   5.640
    1PA     C12 6208   5.280   1.146   5.590
    1PA     H2R 6209   5.245   1.250   5.594
    1PA     H2S 6210   5.231   1.088   5.511
    2PC     C11 6211   5.262   1.073   5.720
    2PC     O12 6212   5.175   1.102   5.799
    2PC     O11 6213   5.354   0.981   5.755
    2PC      C1 6214   5.384   0.958   5.894
    2PC      HR 6215   5.417   1.056   5.929
    2PC      HS 6216   5.298   0.941   5.959
    2PC      C2 6217   5.490   0.848   5.906
    2PC      HX 6218   5.447   0.756   5.864
    2PC      C3 6219   5.518   0.823   6.055
    2PC      HA 6220   5.579   0.896   6.107
    2PC      HB 6221   5.434   0.824   6.125
    2PC     O31 6222   5.581   0.694   6.068
    2PC     P31 6223   5.633   0.647   6.212
    2PC     O32 6224   5.587   0.494   6.212
    2PC     C31 6225   5.454   0.461   6.255
    2PC     H1A 6226   5.427   0.508   6.350
    2PC     H1B 6227   5.382   0.497   6.181
    2PC     C32 6228   5.456   0.308   6.266
    2PC     H2A 6229   5.358   0.274   6.299
    2PC     H2B 6230   5.489   0.268   6.170
    2PC     N31 6231   5.528   0.243   6.380
    2PC     C33 6232   5.469   0.109   6.412
    2PC     H3A 6233   5.461   0.048   6.322
    2PC     H3B 6234   5.545   0.065   6.477
    2PC     H3C 6235   5.368   0.121   6.451
    2PC     C34 6236   5.668   0.220   6.331
    2PC     H4A 6237   5.718   0.317   6.324
    2PC     H4B 6238   5.724   0.154   6.397
    2PC     H4C 6239   5.662   0.169   6.235
    2PC     C35 6240   5.526   0.321   6.508
    2PC     H5A 6241   5.597   0.278   6.580
    2PC     H5B 6242   5.426   0.332   6.548
    2PC     H5C 6243   5.567   0.419   6.484
    2PC     O33 6244   5.781   0.661   6.214
    2PC     O34 6245   5.587   0.719   6.333
    2PC     O21 6246   5.607   0.887   5.833
    2PC     C21 6247   5.677   0.998   5.865
    2PC     O22 6248   5.649   1.078   5.952
    3OL     C12 6249   5.787   1.016   5.764
    3OL     H2R 6250   5.765   0.969   5.668
    3OL     H2S 6251   5.878   0.968   5.801
    3OL     C13 6252   5.806   1.165   5.733
    3OL     H3R 6253   5.858   1.204   5.822
    3OL     H3S 6254   5.715   1.216   5.700
    3OL     C14 6255   5.909   1.175   5.620
    3OL     H4R 6256   6.004   1.127   5.644
    3OL     H4S 6257   5.929   1.283   5.619
    3OL     C15 6258   5.851   1.126   5.486
    3OL     H5R 6259   5.753   1.172   5.471
    3OL     H5S 6260   5.839   1.018   5.486
    3OL     C16 6261   5.954   1.166   5.379
    3OL     H6R 6262   6.044   1.104   5.377
    3OL     H6S 6263   5.980   1.268   5.408
    3OL     C17 6264   5.893   1.152   5.239
    3OL     H7R 6265   5.818   1.073   5.243
    3OL     H7S 6266   5.964   1.126   5.160
    3OL     C18 6267   5.838   1.291   5.201
    3OL     H8R 6268   5.777   1.328   5.284
    3OL     H8S 6269   5.775   1.282   5.113
    3OL     C19 6270   5.954   1.383   5.173
    3OL     H9R 6271   5.988   1.443   5.257
    3OL    C110 6272   6.009   1.409   5.055
    3OL    H10R 6273   6.075   1.493   5.041
    3OL    C111 6274   5.980   1.340   4.924
    3OL    H11R 6275   5.931   1.243   4.932
    3OL    H11S 6276   6.073   1.322   4.869
    3OL    C112 6277   5.889   1.417   4.827
    3OL    H12R 6278   5.946   1.505   4.798
    3OL    H12S 6279   5.797   1.458   4.870
    3OL    C113 6280   5.856   1.333   4.702
    3OL    H13R 6281   5.801   1.246   4.737
    3OL    H13S 6282   5.941   1.293   4.647
    3OL    C114 6283   5.766   1.409   4.604
    3OL    H14R 6284   5.811   1.506   4.582
    3OL    H14S 6285   5.668   1.433   4.646
    3OL    C115 6286   5.743   1.334   4.472
    3OL    H15R 6287   5.704   1.233   4.490
    3OL    H15S 6288   5.832   1.322   4.411
    3OL    C116 6289   5.650   1.422   4.387
    3OL    H16R 6290   5.708   1.502   4.341
    3OL    H16S 6291   5.565   1.458   4.445
    3OL    C117 6292   5.582   1.328   4.286
    3OL    H17R 6293   5.517   1.266   4.347
    3OL    H17S 6294   5.658   1.261   4.246
    3OL    C118 6295   5.503   1.396   4.173
    3OL    H18R 6296   5.454   1.322   4.109
    3OL    H18S 6297   5.555   1.478   4.124
    3OL    H18T 6298   5.409   1.428   4.217
    1PA    C116 6299   0.981   0.668   4.370
    1PA    H16R 6300   0.941   0.662   4.269
    1PA    H16S 6301   1.047   0.585   4.395
    1PA    H16T 6302   1.051   0.751   4.359
    1PA    C115 6303   0.874   0.686   4.479
    1PA    H15R 6304   0.924   0.709   4.573
    1PA    H15S 6305   0.815   0.777   4.463
    1PA    C114 6306   0.785   0.562   4.484
    1PA    H14R 6307   0.731   0.549   4.390
    1PA    H14S 6308   0.840   0.470   4.503
    1PA    C113 6309   0.688   0.571   4.603
    1PA    H13R 6310   0.637   0.668   4.601
    1PA    H13S 6311   0.612   0.495   4.587
    1PA    C112 6312   0.749   0.553   4.743
    1PA    H12R 6313   0.800   0.457   4.754
    1PA    H12S 6314   0.826   0.626   4.769
    1PA    C111 6315   0.644   0.548   4.855
    1PA    H11R 6316   0.690   0.596   4.942
    1PA    H11S 6317   0.558   0.611   4.830
    1PA    C110 6318   0.617   0.403   4.897
    1PA    H10R 6319   0.581   0.348   4.810
    1PA    H10S 6320   0.715   0.365   4.926
    1PA     C19 6321   0.524   0.402   5.019
    1PA     H9R 6322   0.580   0.453   5.097
    1PA     H9S 6323   0.438   0.460   4.985
    1PA     C18 6324   0.485   0.264   5.075
    1PA     H8R 6325   0.434   0.218   4.991
    1PA     H8S 6326   0.573   0.204   5.100
    1PA     C17 6327   0.385   0.260   5.191
    1PA     H7R 6328   0.430   0.295   5.284
    1PA     H7S 6329   0.297   0.322   5.171
    1PA     C16 6330   0.322   0.127   5.237
    1PA     H6R 6331   0.233   0.154   5.294
    1PA     H6S 6332   0.293   0.071   5.148
    1PA     C15 6333   0.418   0.042   5.321
    1PA     H5R 6334   0.375  -0.058   5.330
    1PA     H5S 6335   0.516   0.033   5.274
    1PA     C14 6336   0.436   0.086   5.467
    1PA     H4R 6337   0.499   0.173   5.482
    1PA     H4S 6338   0.333   0.104   5.499
    1PA     C13 6339   0.500  -0.015   5.563
    1PA     H3R 6340   0.445  -0.109   5.554
    1PA     H3S 6341   0.606  -0.027   5.539
    1PA     C12 6342   0.502   0.029   5.710
    1PA     H2R 6343   0.585  -0.027   5.754
    1PA     H2S 6344   0.519   0.137   5.716
    2PC     C11 6345   0.370  -0.006   5.774
    2PC     O12 6346   0.289  -0.085   5.729
    2PC     O11 6347   0.343   0.068   5.883
    2PC      C1 6348   0.221   0.049   5.957
    2PC      HR 6349   0.138   0.052   5.886
    2PC      HS 6350   0.226  -0.045   6.013
    2PC      C2 6351   0.215   0.166   6.055
    2PC      HX 6352   0.311   0.175   6.107
    2PC      C3 6353   0.117   0.137   6.169
    2PC      HA 6354   0.039   0.214   6.179
    2PC      HB 6355   0.075   0.037   6.162
    2PC     O31 6356   0.178   0.133   6.300
    2PC     P31 6357   0.099   0.155   6.437
    2PC     O32 6358   0.217   0.244   6.500
    2PC     C31 6359   0.264   0.223   6.634
    2PC     H1A 6360   0.182   0.245   6.703
    2PC     H1B 6361   0.311   0.128   6.661
    2PC     C32 6362   0.371   0.329   6.660
    2PC     H2A 6363   0.407   0.311   6.762
    2PC     H2B 6364   0.454   0.315   6.591
    2PC     N31 6365   0.336   0.474   6.654
    2PC     C33 6366   0.228   0.504   6.754
    2PC     H3A 6367   0.268   0.490   6.855
    2PC     H3B 6368   0.202   0.610   6.746
    2PC     H3C 6369   0.142   0.444   6.728
    2PC     C34 6370   0.458   0.557   6.682
    2PC     H4A 6371   0.537   0.523   6.615
    2PC     H4B 6372   0.442   0.663   6.664
    2PC     H4C 6373   0.489   0.536   6.784
    2PC     C35 6374   0.283   0.515   6.520
    2PC     H5A 6375   0.351   0.470   6.448
    2PC     H5B 6376   0.286   0.624   6.523
    2PC     H5C 6377   0.180   0.481   6.506
    2PC     O33 6378  -0.026   0.233   6.422
    2PC     O34 6379   0.070   0.030   6.511
    2PC     O21 6380   0.185   0.296   5.999
    2PC     C21 6381   0.071   0.332   5.940
    2PC     O22 6382  -0.028   0.262   5.942
    3OL     C12 6383   0.092   0.465   5.872
    3OL     H2R 6384   0.196   0.472   5.842
    3OL     H2S 6385   0.065   0.548   5.938
    3OL     C13 6386   0.010   0.483   5.743
    3OL     H3R 6387   0.012   0.589   5.717
    3OL     H3S 6388  -0.095   0.459   5.761
    3OL     C14 6389   0.056   0.396   5.626
    3OL     H4R 6390  -0.033   0.369   5.568
    3OL     H4S 6391   0.095   0.301   5.662
    3OL     C15 6392   0.154   0.459   5.526
    3OL     H5R 6393   0.192   0.381   5.459
    3OL     H5S 6394   0.238   0.500   5.582
    3OL     C16 6395   0.085   0.571   5.447
    3OL     H6R 6396   0.050   0.650   5.513
    3OL     H6S 6397  -0.012   0.539   5.409
    3OL     C17 6398   0.180   0.620   5.336
    3OL     H7R 6399   0.175   0.531   5.273
    3OL     H7S 6400   0.282   0.631   5.371
    3OL     C18 6401   0.138   0.748   5.261
    3OL     H8R 6402   0.222   0.762   5.193
    3OL     H8S 6403   0.148   0.826   5.338
    3OL     C19 6404   0.001   0.745   5.199
    3OL     H9R 6405  -0.075   0.744   5.277
    3OL    C110 6406  -0.027   0.752   5.070
    3OL    H10R 6407  -0.126   0.748   5.025
    3OL    C111 6408   0.083   0.734   4.968
    3OL    H11R 6409   0.149   0.665   5.020
    3OL    H11S 6410   0.133   0.825   4.933
    3OL    C112 6411   0.026   0.679   4.836
    3OL    H12R 6412  -0.062   0.733   4.801
    3OL    H12S 6413  -0.014   0.578   4.851
    3OL    C113 6414   0.131   0.678   4.725
    3OL    H13R 6415   0.107   0.585   4.674
    3OL    H13S 6416   0.230   0.654   4.765
    3OL    C114 6417   0.136   0.808   4.642
    3OL    H14R 6418   0.235   0.810   4.597
    3OL    H14S 6419   0.124   0.898   4.701
    3OL    C115 6420   0.035   0.819   4.527
    3OL    H15R 6421   0.036   0.917   4.480
    3OL    H15S 6422  -0.062   0.806   4.575
    3OL    C116 6423   0.048   0.714   4.415
    3OL    H16R 6424   0.060   0.613   4.454
    3OL    H16S 6425   0.140   0.736   4.361
    3OL    C117 6426  -0.072   0.711   4.320
    3OL    H17R 6427  -0.082   0.814   4.286
    3OL    H17S 6428  -0.163   0.676   4.370
    3OL    C118 6429  -0.046   0.621   4.198
    3OL    H18R 6430  -0.134   0.619   4.134
    3OL    H18S 6431  -0.025   0.527   4.249
    3OL    H18T 6432   0.036   0.664   4.140
    1PA    C116 6433   4.184  -0.580   3.986
    1PA    H16R 6434   4.114  -0.663   3.981
    1PA    H16S 6435   4.270  -0.627   4.034
    1PA    H16T 6436   4.224  -0.540   3.892
    1PA    C115 6437   4.120  -0.459   4.057
    1PA    H15R 6438   4.197  -0.397   4.103
    1PA    H15S 6439   4.057  -0.401   3.990
    1PA    C114 6440   4.040  -0.517   4.174
    1PA    H14R 6441   3.952  -0.578   4.149
    1PA    H14S 6442   4.101  -0.593   4.223
    1PA    C113 6443   3.991  -0.406   4.267
    1PA    H13R 6444   3.963  -0.316   4.212
    1PA    H13S 6445   3.905  -0.440   4.326
    1PA    C112 6446   4.094  -0.368   4.375
    1PA    H12R 6447   4.128  -0.466   4.411
    1PA    H12S 6448   4.178  -0.321   4.324
    1PA    C111 6449   4.044  -0.276   4.488
    1PA    H11R 6450   4.133  -0.228   4.527
    1PA    H11S 6451   3.972  -0.202   4.451
    1PA    C110 6452   3.990  -0.350   4.611
    1PA    H10R 6453   3.912  -0.418   4.576
    1PA    H10S 6454   4.062  -0.418   4.658
    1PA     C19 6455   3.939  -0.250   4.716
    1PA     H9R 6456   4.030  -0.192   4.734
    1PA     H9S 6457   3.876  -0.172   4.673
    1PA     C18 6458   3.895  -0.315   4.847
    1PA     H8R 6459   3.801  -0.367   4.827
    1PA     H8S 6460   3.974  -0.379   4.886
    1PA     C17 6461   3.847  -0.213   4.952
    1PA     H7R 6462   3.915  -0.130   4.974
    1PA     H7S 6463   3.755  -0.162   4.921
    1PA     C16 6464   3.835  -0.295   5.080
    1PA     H6R 6465   3.760  -0.371   5.058
    1PA     H6S 6466   3.926  -0.350   5.105
    1PA     C15 6467   3.793  -0.219   5.207
    1PA     H5R 6468   3.701  -0.165   5.184
    1PA     H5S 6469   3.765  -0.291   5.284
    1PA     C14 6470   3.904  -0.124   5.255
    1PA     H4R 6471   3.996  -0.182   5.268
    1PA     H4S 6472   3.920  -0.038   5.190
    1PA     C13 6473   3.859  -0.065   5.390
    1PA     H3R 6474   3.785   0.013   5.370
    1PA     H3S 6475   3.820  -0.134   5.466
    1PA     C12 6476   3.978   0.000   5.461
    1PA     H2R 6477   4.056  -0.068   5.495
    1PA     H2S 6478   4.018   0.085   5.406
    2PC     C11 6479   3.926   0.066   5.586
    2PC     O12 6480   3.825   0.031   5.642
    2PC     O11 6481   4.004   0.169   5.622
    2PC      C1 6482   3.977   0.243   5.743
    2PC      HR 6483   3.889   0.304   5.719
    2PC      HS 6484   3.968   0.175   5.828
    2PC      C2 6485   4.090   0.343   5.773
    2PC      HX 6486   4.190   0.303   5.760
    2PC      C3 6487   4.074   0.386   5.919
    2PC      HA 6488   4.105   0.299   5.979
    2PC      HB 6489   4.145   0.464   5.946
    2PC     O31 6490   3.936   0.416   5.945
    2PC     P31 6491   3.915   0.485   6.088
    2PC     O32 6492   3.812   0.382   6.156
    2PC     C31 6493   3.670   0.400   6.166
    2PC     H1A 6494   3.649   0.464   6.252
    2PC     H1B 6495   3.652   0.455   6.073
    2PC     C32 6496   3.610   0.261   6.192
    2PC     H2A 6497   3.667   0.203   6.265
    2PC     H2B 6498   3.509   0.265   6.234
    2PC     N31 6499   3.576   0.178   6.072
    2PC     C33 6500   3.540   0.041   6.119
    2PC     H3A 6501   3.445   0.040   6.173
    2PC     H3B 6502   3.526  -0.025   6.033
    2PC     H3C 6503   3.626   0.012   6.179
    2PC     C34 6504   3.458   0.238   6.000
    2PC     H4A 6505   3.377   0.230   6.073
    2PC     H4B 6506   3.471   0.344   5.979
    2PC     H4C 6507   3.440   0.187   5.905
    2PC     C35 6508   3.690   0.172   5.975
    2PC     H5A 6509   3.713   0.275   5.946
    2PC     H5B 6510   3.672   0.108   5.889
    2PC     H5C 6511   3.774   0.138   6.036
    2PC     O33 6512   4.032   0.489   6.178
    2PC     O34 6513   3.869   0.625   6.093
    2PC     O21 6514   4.061   0.456   5.688
    2PC     C21 6515   4.153   0.554   5.693
    2PC     O22 6516   4.266   0.544   5.736
    3OL     C12 6517   4.106   0.681   5.627
    3OL     H2R 6518   4.177   0.758   5.657
    3OL     H2S 6519   4.008   0.703   5.670
    3OL     C13 6520   4.087   0.679   5.474
    3OL     H3R 6521   4.064   0.777   5.433
    3OL     H3S 6522   3.997   0.620   5.455
    3OL     C14 6523   4.208   0.617   5.402
    3OL     H4R 6524   4.203   0.508   5.415
    3OL     H4S 6525   4.304   0.655   5.438
    3OL     C15 6526   4.211   0.633   5.250
    3OL     H5R 6527   4.301   0.592   5.204
    3OL     H5S 6528   4.218   0.739   5.222
    3OL     C16 6529   4.091   0.580   5.170
    3OL     H6R 6530   3.994   0.627   5.189
    3OL     H6S 6531   4.087   0.472   5.181
    3OL     C17 6532   4.114   0.605   5.020
    3OL     H7R 6533   4.137   0.708   4.991
    3OL     H7S 6534   4.029   0.566   4.964
    3OL     C18 6535   4.236   0.526   4.972
    3OL     H8R 6536   4.238   0.428   5.020
    3OL     H8S 6537   4.329   0.580   4.992
    3OL     C19 6538   4.231   0.483   4.828
    3OL     H9R 6539   4.135   0.452   4.788
    3OL    C110 6540   4.335   0.454   4.750
    3OL    H10R 6541   4.313   0.415   4.651
    3OL    C111 6542   4.473   0.510   4.774
    3OL    H11R 6543   4.534   0.441   4.832
    3OL    H11S 6544   4.459   0.597   4.839
    3OL    C112 6545   4.549   0.555   4.649
    3OL    H12R 6546   4.578   0.659   4.664
    3OL    H12S 6547   4.487   0.544   4.559
    3OL    C113 6548   4.680   0.477   4.635
    3OL    H13R 6549   4.753   0.499   4.713
    3OL    H13S 6550   4.733   0.505   4.544
    3OL    C114 6551   4.660   0.325   4.644
    3OL    H14R 6552   4.593   0.300   4.562
    3OL    H14S 6553   4.610   0.297   4.737
    3OL    C115 6554   4.798   0.258   4.632
    3OL    H15R 6555   4.858   0.297   4.549
    3OL    H15S 6556   4.780   0.153   4.609
    3OL    C116 6557   4.877   0.257   4.763
    3OL    H16R 6558   4.817   0.218   4.846
    3OL    H16S 6559   4.903   0.359   4.794
    3OL    C117 6560   5.000   0.169   4.736
    3OL    H17R 6561   5.062   0.212   4.657
    3OL    H17S 6562   4.968   0.070   4.702
    3OL    C118 6563   5.097   0.159   4.854
    3OL    H18R 6564   5.096   0.243   4.924
    3OL    H18S 6565   5.200   0.147   4.820
    3OL    H18T 6566   5.073   0.062   4.898
    1PA    C116 6567   4.886   3.496   4.258
    1PA    H16R 6568   4.885   3.534   4.156
    1PA    H16S 6569   4.802   3.428   4.274
    1PA    H16T 6570   4.980   3.440   4.253
    1PA    C115 6571   4.902   3.605   4.365
    1PA    H15R 6572   4.979   3.681   4.350
    1PA    H15S 6573   4.808   3.658   4.381
    1PA    C114 6574   4.938   3.539   4.499
    1PA    H14R 6575   4.876   3.451   4.517
    1PA    H14S 6576   5.040   3.501   4.493
    1PA    C113 6577   4.937   3.640   4.614
    1PA    H13R 6578   5.008   3.720   4.594
    1PA    H13S 6579   4.837   3.684   4.611
    1PA    C112 6580   4.985   3.574   4.744
    1PA    H12R 6581   4.899   3.550   4.806
    1PA    H12S 6582   5.045   3.484   4.728
    1PA    C111 6583   5.082   3.657   4.830
    1PA    H11R 6584   5.080   3.611   4.930
    1PA    H11S 6585   5.183   3.658   4.791
    1PA    C110 6586   5.029   3.800   4.847
    1PA    H10R 6587   5.026   3.853   4.751
    1PA    H10S 6588   4.934   3.798   4.899
    1PA     C19 6589   5.123   3.882   4.937
    1PA     H9R 6590   5.160   3.829   5.025
    1PA     H9S 6591   5.214   3.904   4.881
    1PA     C18 6592   5.064   4.018   4.974
    1PA     H8R 6593   5.053   4.079   4.884
    1PA     H8S 6594   4.968   4.016   5.027
    1PA     C17 6595   5.159   4.097   5.066
    1PA     H7R 6596   5.132   4.064   5.167
    1PA     H7S 6597   5.259   4.057   5.051
    1PA     C16 6598   5.159   4.247   5.035
    1PA     H6R 6599   5.257   4.280   4.999
    1PA     H6S 6600   5.094   4.257   4.948
    1PA     C15 6601   5.096   4.342   5.137
    1PA     H5R 6602   4.997   4.308   5.169
    1PA     H5S 6603   5.157   4.329   5.227
    1PA     C14 6604   5.089   4.486   5.086
    1PA     H4R 6605   5.180   4.523   5.039
    1PA     H4S 6606   5.018   4.485   5.003
    1PA     C13 6607   5.044   4.596   5.184
    1PA     H3R 6608   5.016   4.690   5.136
    1PA     H3S 6609   4.952   4.560   5.230
    1PA     C12 6610   5.158   4.625   5.282
    1PA     H2R 6611   5.255   4.617   5.233
    1PA     H2S 6612   5.140   4.726   5.318
    2PC     C11 6613   5.161   4.542   5.408
    2PC     O12 6614   5.262   4.492   5.453
    2PC     O11 6615   5.045   4.547   5.476
    2PC      C1 6616   5.031   4.448   5.579
    2PC      HR 6617   5.065   4.348   5.550
    2PC      HS 6618   5.077   4.482   5.672
    2PC      C2 6619   4.882   4.424   5.611
    2PC      HX 6620   4.837   4.523   5.627
    2PC      C3 6621   4.873   4.360   5.750
    2PC      HA 6622   4.894   4.444   5.817
    2PC      HB 6623   4.774   4.318   5.769
    2PC     O31 6624   4.976   4.263   5.776
    2PC     P31 6625   4.967   4.189   5.917
    2PC     O32 6626   4.841   4.096   5.883
    2PC     C31 6627   4.855   3.955   5.908
    2PC     H1A 6628   4.939   3.907   5.858
    2PC     H1B 6629   4.861   3.940   6.016
    2PC     C32 6630   4.719   3.902   5.861
    2PC     H2A 6631   4.695   3.805   5.904
    2PC     H2B 6632   4.648   3.981   5.888
    2PC     N31 6633   4.692   3.885   5.715
    2PC     C33 6634   4.555   3.828   5.691
    2PC     H3A 6635   4.483   3.881   5.754
    2PC     H3B 6636   4.531   3.844   5.586
    2PC     H3C 6637   4.556   3.720   5.708
    2PC     C34 6638   4.704   4.012   5.638
    2PC     H4A 6639   4.660   4.010   5.538
    2PC     H4B 6640   4.658   4.091   5.698
    2PC     H4C 6641   4.808   4.045   5.639
    2PC     C35 6642   4.786   3.775   5.675
    2PC     H5A 6643   4.778   3.765   5.567
    2PC     H5B 6644   4.756   3.688   5.734
    2PC     H5C 6645   4.888   3.813   5.687
    2PC     O33 6646   5.095   4.123   5.950
    2PC     O34 6647   4.928   4.280   6.028
    2PC     O21 6648   4.822   4.350   5.503
    2PC     C21 6649   4.688   4.350   5.489
    2PC     O22 6650   4.607   4.397   5.566
    3OL     C12 6651   4.639   4.278   5.367
    3OL     H2R 6652   4.530   4.285   5.370
    3OL     H2S 6653   4.667   4.173   5.384
    3OL     C13 6654   4.703   4.335   5.240
    3OL     H3R 6655   4.808   4.347   5.265
    3OL     H3S 6656   4.652   4.430   5.223
    3OL     C14 6657   4.679   4.238   5.123
    3OL     H4R 6658   4.577   4.230   5.085
    3OL     H4S 6659   4.706   4.139   5.160
    3OL     C15 6660   4.761   4.293   5.005
    3OL     H5R 6661   4.866   4.304   5.033
    3OL     H5S 6662   4.726   4.393   4.980
    3OL     C16 6663   4.744   4.206   4.880
    3OL     H6R 6664   4.748   4.100   4.905
    3OL     H6S 6665   4.830   4.230   4.818
    3OL     C17 6666   4.609   4.232   4.812
    3OL     H7R 6667   4.591   4.339   4.798
    3OL     H7S 6668   4.523   4.196   4.868
    3OL     C18 6669   4.603   4.168   4.673
    3OL     H8R 6670   4.634   4.063   4.676
    3OL     H8S 6671   4.683   4.212   4.614
    3OL     C19 6672   4.465   4.168   4.611
    3OL     H9R 6673   4.384   4.110   4.655
    3OL    C110 6674   4.432   4.222   4.495
    3OL    H10R 6675   4.328   4.222   4.461
    3OL    C111 6676   4.517   4.291   4.392
    3OL    H11R 6677   4.528   4.225   4.306
    3OL    H11S 6678   4.623   4.297   4.419
    3OL    C112 6679   4.459   4.427   4.349
    3OL    H12R 6680   4.366   4.402   4.299
    3OL    H12S 6681   4.528   4.479   4.281
    3OL    C113 6682   4.436   4.519   4.470
    3OL    H13R 6683   4.530   4.543   4.520
    3OL    H13S 6684   4.370   4.476   4.546
    3OL    C114 6685   4.356   4.645   4.436
    3OL    H14R 6686   4.410   4.693   4.354
    3OL    H14S 6687   4.360   4.715   4.519
    3OL    C115 6688   4.213   4.604   4.397
    3OL    H15R 6689   4.166   4.542   4.474
    3OL    H15S 6690   4.197   4.543   4.308
    3OL    C116 6691   4.120   4.726   4.387
    3OL    H16R 6692   4.139   4.782   4.480
    3OL    H16S 6693   4.015   4.697   4.385
    3OL    C117 6694   4.145   4.818   4.267
    3OL    H17R 6695   4.141   4.768   4.170
    3OL    H17S 6696   4.242   4.867   4.277
    3OL    C118 6697   4.042   4.932   4.259
    3OL    H18R 6698   4.042   4.984   4.356
    3OL    H18S 6699   3.944   4.886   4.248
    3OL    H18T 6700   4.047   5.003   4.176
    1PA    C116 6701   2.531   5.816   4.988
    1PA    H16R 6702   2.558   5.779   5.087
    1PA    H16S 6703   2.439   5.762   4.964
    1PA    H16T 6704   2.523   5.925   4.987
    1PA    C115 6705   2.643   5.764   4.897
    1PA    H15R 6706   2.706   5.853   4.894
    1PA    H15S 6707   2.690   5.678   4.945
    1PA    C114 6708   2.597   5.749   4.751
    1PA    H14R 6709   2.508   5.686   4.745
    1PA    H14S 6710   2.565   5.848   4.720
    1PA    C113 6711   2.702   5.680   4.662
    1PA    H13R 6712   2.717   5.579   4.702
    1PA    H13S 6713   2.667   5.675   4.559
    1PA    C112 6714   2.835   5.755   4.655
    1PA    H12R 6715   2.825   5.849   4.600
    1PA    H12S 6716   2.876   5.770   4.755
    1PA    C111 6717   2.948   5.688   4.576
    1PA    H11R 6718   2.913   5.668   4.475
    1PA    H11S 6719   3.027   5.764   4.579
    1PA    C110 6720   3.000   5.558   4.639
    1PA    H10R 6721   2.925   5.479   4.644
    1PA    H10S 6722   3.078   5.521   4.572
    1PA     C19 6723   3.047   5.571   4.785
    1PA     H9R 6724   3.119   5.653   4.791
    1PA     H9S 6725   2.963   5.611   4.841
    1PA     C18 6726   3.107   5.440   4.837
    1PA     H8R 6727   3.034   5.361   4.819
    1PA     H8S 6728   3.189   5.423   4.766
    1PA     C17 6729   3.148   5.457   4.984
    1PA     H7R 6730   3.205   5.372   5.023
    1PA     H7S 6731   3.205   5.550   4.993
    1PA     C16 6732   3.028   5.456   5.079
    1PA     H6R 6733   2.960   5.538   5.054
    1PA     H6S 6734   2.969   5.366   5.058
    1PA     C15 6735   3.070   5.462   5.226
    1PA     H5R 6736   3.110   5.369   5.267
    1PA     H5S 6737   3.145   5.542   5.230
    1PA     C14 6738   2.958   5.498   5.324
    1PA     H4R 6739   2.914   5.587   5.279
    1PA     H4S 6740   2.882   5.421   5.339
    1PA     C13 6741   3.015   5.533   5.462
    1PA     H3R 6742   3.096   5.462   5.481
    1PA     H3S 6743   3.071   5.626   5.451
    1PA     C12 6744   2.919   5.526   5.582
    1PA     H2R 6745   2.843   5.600   5.558
    1PA     H2S 6746   2.883   5.423   5.586
    2PC     C11 6747   2.980   5.580   5.709
    2PC     O12 6748   2.943   5.680   5.766
    2PC     O11 6749   3.091   5.512   5.744
    2PC      C1 6750   3.169   5.573   5.849
    2PC      HR 6751   3.166   5.681   5.838
    2PC      HS 6752   3.129   5.555   5.949
    2PC      C2 6753   3.315   5.526   5.844
    2PC      HX 6754   3.312   5.421   5.813
    2PC      C3 6755   3.402   5.554   5.967
    2PC      HA 6756   3.375   5.482   6.044
    2PC      HB 6757   3.509   5.548   5.946
    2PC     O31 6758   3.381   5.682   6.029
    2PC     P31 6759   3.444   5.713   6.173
    2PC     O32 6760   3.325   5.658   6.265
    2PC     C31 6761   3.191   5.712   6.276
    2PC     H1A 6762   3.158   5.738   6.175
    2PC     H1B 6763   3.125   5.633   6.312
    2PC     C32 6764   3.205   5.831   6.371
    2PC     H2A 6765   3.288   5.811   6.439
    2PC     H2B 6766   3.240   5.913   6.309
    2PC     N31 6767   3.085   5.887   6.442
    2PC     C33 6768   3.051   5.816   6.569
    2PC     H3A 6769   3.040   5.712   6.538
    2PC     H3B 6770   3.134   5.828   6.639
    2PC     H3C 6771   2.960   5.853   6.616
    2PC     C34 6772   3.111   6.031   6.472
    2PC     H4A 6773   3.199   6.034   6.537
    2PC     H4B 6774   3.142   6.082   6.380
    2PC     H4C 6775   3.025   6.086   6.511
    2PC     C35 6776   2.959   5.880   6.361
    2PC     H5A 6777   2.926   5.776   6.348
    2PC     H5B 6778   2.982   5.933   6.269
    2PC     H5C 6779   2.888   5.943   6.414
    2PC     O33 6780   3.576   5.649   6.193
    2PC     O34 6781   3.468   5.856   6.203
    2PC     O21 6782   3.370   5.603   5.735
    2PC     C21 6783   3.481   5.558   5.674
    2PC     O22 6784   3.546   5.461   5.707
    3OL     C12 6785   3.526   5.650   5.563
    3OL     H2R 6786   3.597   5.600   5.497
    3OL     H2S 6787   3.573   5.738   5.608
    3OL     C13 6788   3.403   5.683   5.477
    3OL     H3R 6789   3.349   5.762   5.529
    3OL     H3S 6790   3.338   5.597   5.460
    3OL     C14 6791   3.447   5.739   5.341
    3OL     H4R 6792   3.519   5.665   5.307
    3OL     H4S 6793   3.503   5.832   5.351
    3OL     C15 6794   3.332   5.754   5.241
    3OL     H5R 6795   3.243   5.792   5.293
    3OL     H5S 6796   3.299   5.661   5.194
    3OL     C16 6797   3.370   5.845   5.123
    3OL     H6R 6798   3.382   5.947   5.160
    3OL     H6S 6799   3.286   5.846   5.053
    3OL     C17 6800   3.490   5.796   5.040
    3OL     H7R 6801   3.477   5.688   5.034
    3OL     H7S 6802   3.583   5.816   5.094
    3OL     C18 6803   3.495   5.860   4.900
    3OL     H8R 6804   3.505   5.968   4.909
    3OL     H8S 6805   3.401   5.831   4.853
    3OL     C19 6806   3.608   5.800   4.820
    3OL     H9R 6807   3.700   5.820   4.874
    3OL    C110 6808   3.613   5.735   4.705
    3OL    H10R 6809   3.704   5.698   4.657
    3OL    C111 6810   3.500   5.695   4.614
    3OL    H11R 6811   3.495   5.757   4.525
    3OL    H11S 6812   3.400   5.710   4.655
    3OL    C112 6813   3.507   5.543   4.597
    3OL    H12R 6814   3.496   5.494   4.695
    3OL    H12S 6815   3.597   5.501   4.552
    3OL    C113 6816   3.388   5.500   4.510
    3OL    H13R 6817   3.396   5.529   4.405
    3OL    H13S 6818   3.298   5.548   4.549
    3OL    C114 6819   3.371   5.350   4.536
    3OL    H14R 6820   3.355   5.334   4.643
    3OL    H14S 6821   3.465   5.303   4.508
    3OL    C115 6822   3.260   5.297   4.444
    3OL    H15R 6823   3.282   5.322   4.340
    3OL    H15S 6824   3.163   5.339   4.471
    3OL    C116 6825   3.253   5.144   4.435
    3OL    H16R 6826   3.248   5.099   4.535
    3OL    H16S 6827   3.351   5.110   4.402
    3OL    C117 6828   3.138   5.087   4.351
    3OL    H17R 6829   3.045   5.104   4.407
    3OL    H17S 6830   3.139   4.979   4.337
    3OL    C118 6831   3.129   5.159   4.216
    3OL    H18R 6832   3.092   5.261   4.233
    3OL    H18S 6833   3.063   5.100   4.152
    3OL    H18T 6834   3.229   5.161   4.173
    1PA    C116 6835   3.023   1.144   4.477
    1PA    H16R 6836   2.965   1.135   4.385
    1PA    H16S 6837   3.129   1.140   4.453
    1PA    H16T 6838   2.998   1.247   4.502
    1PA    C115 6839   2.997   1.046   4.592
    1PA    H15R 6840   3.032   0.948   4.560
    1PA    H15S 6841   3.053   1.073   4.682
    1PA    C114 6842   2.849   1.042   4.632
    1PA    H14R 6843   2.831   1.141   4.675
    1PA    H14S 6844   2.779   1.032   4.548
    1PA    C113 6845   2.821   0.935   4.738
    1PA    H13R 6846   2.876   0.844   4.714
    1PA    H13S 6847   2.880   0.973   4.821
    1PA    C112 6848   2.669   0.912   4.751
    1PA    H12R 6849   2.607   1.002   4.751
    1PA    H12S 6850   2.644   0.862   4.658
    1PA    C111 6851   2.651   0.816   4.870
    1PA    H11R 6852   2.707   0.725   4.847
    1PA    H11S 6853   2.699   0.859   4.958
    1PA    C110 6854   2.503   0.786   4.895
    1PA    H10R 6855   2.458   0.882   4.919
    1PA    H10S 6856   2.453   0.749   4.805
    1PA     C19 6857   2.494   0.681   5.007
    1PA     H9R 6858   2.579   0.680   5.075
    1PA     H9S 6859   2.412   0.695   5.077
    1PA     C18 6860   2.481   0.536   4.958
    1PA     H8R 6861   2.385   0.511   4.913
    1PA     H8S 6862   2.556   0.513   4.882
    1PA     C17 6863   2.492   0.437   5.075
    1PA     H7R 6864   2.584   0.452   5.131
    1PA     H7S 6865   2.412   0.446   5.150
    1PA     C16 6866   2.492   0.291   5.026
    1PA     H6R 6867   2.526   0.286   4.923
    1PA     H6S 6868   2.561   0.242   5.095
    1PA     C15 6869   2.359   0.216   5.046
    1PA     H5R 6870   2.279   0.275   5.002
    1PA     H5S 6871   2.354   0.118   4.998
    1PA     C14 6872   2.340   0.190   5.196
    1PA     H4R 6873   2.424   0.134   5.238
    1PA     H4S 6874   2.359   0.284   5.249
    1PA     C13 6875   2.195   0.140   5.213
    1PA     H3R 6876   2.136   0.232   5.216
    1PA     H3S 6877   2.160   0.081   5.129
    1PA     C12 6878   2.165   0.060   5.341
    1PA     H2R 6879   2.079  -0.005   5.325
    1PA     H2S 6880   2.245  -0.006   5.375
    2PC     C11 6881   2.131   0.151   5.457
    2PC     O12 6882   2.217   0.196   5.530
    2PC     O11 6883   2.000   0.153   5.482
    2PC      C1 6884   1.940   0.181   5.610
    2PC      HR 6885   1.832   0.170   5.597
    2PC      HS 6886   1.974   0.110   5.685
    2PC      C2 6887   1.966   0.323   5.663
    2PC      HX 6888   2.071   0.330   5.691
    2PC      C3 6889   1.891   0.353   5.794
    2PC      HA 6890   1.783   0.359   5.778
    2PC      HB 6891   1.894   0.269   5.863
    2PC     O31 6892   1.939   0.474   5.856
    2PC     P31 6893   1.924   0.512   6.011
    2PC     O32 6894   1.765   0.516   6.025
    2PC     C31 6895   1.690   0.458   6.133
    2PC     H1A 6896   1.742   0.366   6.162
    2PC     H1B 6897   1.705   0.512   6.227
    2PC     C32 6898   1.544   0.442   6.088
    2PC     H2A 6899   1.495   0.537   6.071
    2PC     H2B 6900   1.539   0.382   5.996
    2PC     N31 6901   1.457   0.371   6.187
    2PC     C33 6902   1.332   0.343   6.110
    2PC     H3A 6903   1.361   0.278   6.027
    2PC     H3B 6904   1.253   0.301   6.173
    2PC     H3C 6905   1.310   0.443   6.074
    2PC     C34 6906   1.510   0.239   6.233
    2PC     H4A 6907   1.537   0.181   6.145
    2PC     H4B 6908   1.597   0.246   6.298
    2PC     H4C 6909   1.433   0.184   6.289
    2PC     C35 6910   1.425   0.470   6.295
    2PC     H5A 6911   1.407   0.568   6.250
    2PC     H5B 6912   1.509   0.480   6.364
    2PC     H5C 6913   1.334   0.432   6.342
    2PC     O33 6914   2.006   0.431   6.104
    2PC     O34 6915   1.982   0.644   6.045
    2PC     O21 6916   1.941   0.421   5.561
    2PC     C21 6917   1.820   0.423   5.503
    2PC     O22 6918   1.716   0.379   5.549
    3OL     C12 6919   1.830   0.485   5.367
    3OL     H2R 6920   1.874   0.585   5.376
    3OL     H2S 6921   1.728   0.503   5.331
    3OL     C13 6922   1.907   0.398   5.266
    3OL     H3R 6923   1.844   0.310   5.250
    3OL     H3S 6924   2.007   0.375   5.303
    3OL     C14 6925   1.906   0.463   5.127
    3OL     H4R 6926   1.957   0.559   5.125
    3OL     H4S 6927   1.803   0.491   5.102
    3OL     C15 6928   1.971   0.373   5.022
    3OL     H5R 6929   1.931   0.272   5.033
    3OL     H5S 6930   2.076   0.375   5.053
    3OL     C16 6931   1.967   0.427   4.878
    3OL     H6R 6932   2.007   0.528   4.864
    3OL     H6S 6933   1.862   0.439   4.852
    3OL     C17 6934   2.039   0.324   4.791
    3OL     H7R 6935   1.978   0.235   4.776
    3OL     H7S 6936   2.135   0.296   4.835
    3OL     C18 6937   2.064   0.379   4.650
    3OL     H8R 6938   2.124   0.471   4.652
    3OL     H8S 6939   1.968   0.397   4.601
    3OL     C19 6940   2.137   0.280   4.562
    3OL     H9R 6941   2.122   0.175   4.586
    3OL    C110 6942   2.210   0.315   4.458
    3OL    H10R 6943   2.242   0.230   4.399
    3OL    C111 6944   2.242   0.452   4.402
    3OL    H11R 6945   2.194   0.532   4.459
    3OL    H11S 6946   2.189   0.460   4.307
    3OL    C112 6947   2.392   0.474   4.375
    3OL    H12R 6948   2.414   0.432   4.277
    3OL    H12S 6949   2.453   0.417   4.444
    3OL    C113 6950   2.421   0.624   4.357
    3OL    H13R 6951   2.359   0.677   4.429
    3OL    H13S 6952   2.384   0.668   4.265
    3OL    C114 6953   2.574   0.644   4.360
    3OL    H14R 6954   2.611   0.592   4.272
    3OL    H14S 6955   2.619   0.600   4.449
    3OL    C115 6956   2.607   0.793   4.355
    3OL    H15R 6957   2.565   0.850   4.438
    3OL    H15S 6958   2.561   0.838   4.266
    3OL    C116 6959   2.758   0.820   4.355
    3OL    H16R 6960   2.800   0.782   4.449
    3OL    H16S 6961   2.772   0.925   4.379
    3OL    C117 6962   2.840   0.763   4.238
    3OL    H17R 6963   2.798   0.788   4.140
    3OL    H17S 6964   2.841   0.655   4.251
    3OL    C118 6965   2.986   0.810   4.241
    3OL    H18R 6966   2.989   0.919   4.232
    3OL    H18S 6967   3.048   0.783   4.156
    3OL    H18T 6968   3.029   0.772   4.334
    1PA    C116 6969   4.644   1.338   3.986
    1PA    H16R 6970   4.634   1.236   4.024
    1PA    H16S 6971   4.750   1.363   3.990
    1PA    H16T 6972   4.622   1.338   3.879
    1PA    C115 6973   4.554   1.450   4.040
    1PA    H15R 6974   4.551   1.455   4.149
    1PA    H15S 6975   4.595   1.545   4.007
    1PA    C114 6976   4.413   1.424   3.987
    1PA    H14R 6977   4.407   1.455   3.882
    1PA    H14S 6978   4.389   1.319   4.002
    1PA    C113 6979   4.307   1.511   4.057
    1PA    H13R 6980   4.344   1.613   4.068
    1PA    H13S 6981   4.212   1.525   4.005
    1PA    C112 6982   4.274   1.443   4.191
    1PA    H12R 6983   4.240   1.340   4.176
    1PA    H12S 6984   4.364   1.437   4.252
    1PA    C111 6985   4.172   1.529   4.267
    1PA    H11R 6986   4.219   1.620   4.303
    1PA    H11S 6987   4.097   1.560   4.194
    1PA    C110 6988   4.122   1.446   4.386
    1PA    H10R 6989   4.059   1.360   4.362
    1PA    H10S 6990   4.217   1.407   4.426
    1PA     C19 6991   4.059   1.537   4.492
    1PA     H9R 6992   4.120   1.622   4.524
    1PA     H9S 6993   3.980   1.587   4.436
    1PA     C18 6994   3.998   1.453   4.605
    1PA     H8R 6995   3.916   1.503   4.656
    1PA     H8S 6996   3.955   1.358   4.572
    1PA     C17 6997   4.109   1.435   4.709
    1PA     H7R 6998   4.204   1.399   4.669
    1PA     H7S 6999   4.130   1.532   4.756
    1PA     C16 7000   4.091   1.339   4.827
    1PA     H6R 7001   4.009   1.373   4.891
    1PA     H6S 7002   4.057   1.243   4.788
    1PA     C15 7003   4.223   1.324   4.905
    1PA     H5R 7004   4.298   1.278   4.841
    1PA     H5S 7005   4.273   1.417   4.932
    1PA     C14 7006   4.211   1.236   5.030
    1PA     H4R 7007   4.216   1.129   5.009
    1PA     H4S 7008   4.303   1.251   5.087
    1PA     C13 7009   4.089   1.267   5.117
    1PA     H3R 7010   4.065   1.374   5.110
    1PA     H3S 7011   4.015   1.202   5.071
    1PA     C12 7012   4.113   1.224   5.262
    1PA     H2R 7013   4.146   1.120   5.267
    1PA     H2S 7014   4.201   1.276   5.299
    2PC     C11 7015   3.986   1.253   5.339
    2PC     O12 7016   3.883   1.303   5.297
    2PC     O11 7017   3.999   1.218   5.467
    2PC      C1 7018   3.889   1.229   5.559
    2PC      HR 7019   3.798   1.244   5.500
    2PC      HS 7020   3.879   1.140   5.622
    2PC      C2 7021   3.907   1.351   5.651
    2PC      HX 7022   4.001   1.342   5.706
    2PC      C3 7023   3.790   1.377   5.746
    2PC      HA 7024   3.702   1.391   5.684
    2PC      HB 7025   3.777   1.284   5.802
    2PC     O31 7026   3.807   1.487   5.838
    2PC     P31 7027   3.683   1.512   5.935
    2PC     O32 7028   3.577   1.583   5.837
    2PC     C31 7029   3.496   1.696   5.874
    2PC     H1A 7030   3.425   1.713   5.793
    2PC     H1B 7031   3.443   1.687   5.969
    2PC     C32 7032   3.588   1.818   5.887
    2PC     H2A 7033   3.645   1.787   5.975
    2PC     H2B 7034   3.661   1.831   5.807
    2PC     N31 7035   3.531   1.954   5.914
    2PC     C33 7036   3.442   1.962   6.034
    2PC     H3A 7037   3.411   2.066   6.040
    2PC     H3B 7038   3.353   1.898   6.035
    2PC     H3C 7039   3.503   1.934   6.121
    2PC     C34 7040   3.649   2.042   5.939
    2PC     H4A 7041   3.604   2.136   5.973
    2PC     H4B 7042   3.714   1.995   6.014
    2PC     H4C 7043   3.707   2.048   5.847
    2PC     C35 7044   3.444   1.995   5.800
    2PC     H5A 7045   3.348   1.943   5.804
    2PC     H5B 7046   3.491   1.986   5.702
    2PC     H5C 7047   3.421   2.100   5.822
    2PC     O33 7048   3.636   1.380   5.982
    2PC     O34 7049   3.722   1.608   6.040
    2PC     O21 7050   3.926   1.473   5.578
    2PC     C21 7051   4.042   1.495   5.514
    2PC     O22 7052   4.148   1.437   5.525
    3OL     C12 7053   4.023   1.608   5.416
    3OL     H2R 7054   3.949   1.679   5.453
    3OL     H2S 7055   3.974   1.570   5.326
    3OL     C13 7056   4.154   1.671   5.366
    3OL     H3R 7057   4.223   1.601   5.317
    3OL     H3S 7058   4.208   1.716   5.449
    3OL     C14 7059   4.138   1.786   5.267
    3OL     H4R 7060   4.074   1.754   5.184
    3OL     H4S 7061   4.235   1.818   5.228
    3OL     C15 7062   4.063   1.905   5.328
    3OL     H5R 7063   4.133   1.953   5.397
    3OL     H5S 7064   3.974   1.877   5.384
    3OL     C16 7065   4.032   2.006   5.216
    3OL     H6R 7066   3.987   1.950   5.134
    3OL     H6S 7067   4.125   2.042   5.171
    3OL     C17 7068   3.938   2.113   5.272
    3OL     H7R 7069   3.989   2.160   5.357
    3OL     H7S 7070   3.844   2.069   5.306
    3OL     C18 7071   3.903   2.212   5.159
    3OL     H8R 7072   3.852   2.158   5.079
    3OL     H8S 7073   3.995   2.250   5.114
    3OL     C19 7074   3.823   2.326   5.215
    3OL     H9R 7075   3.738   2.306   5.280
    3OL    C110 7076   3.842   2.454   5.187
    3OL    H10R 7077   3.769   2.523   5.229
    3OL    C111 7078   3.951   2.515   5.104
    3OL    H11R 7079   4.043   2.456   5.105
    3OL    H11S 7080   3.966   2.617   5.140
    3OL    C112 7081   3.906   2.527   4.958
    3OL    H12R 7082   3.798   2.542   4.947
    3OL    H12S 7083   3.912   2.426   4.917
    3OL    C113 7084   3.987   2.621   4.868
    3OL    H13R 7085   4.090   2.629   4.902
    3OL    H13S 7086   3.941   2.720   4.878
    3OL    C114 7087   3.971   2.577   4.721
    3OL    H14R 7088   3.866   2.573   4.692
    3OL    H14S 7089   3.992   2.470   4.718
    3OL    C115 7090   4.068   2.649   4.627
    3OL    H15R 7091   4.169   2.626   4.661
    3OL    H15S 7092   4.046   2.756   4.631
    3OL    C116 7093   4.054   2.598   4.482
    3OL    H16R 7094   4.123   2.513   4.477
    3OL    H16S 7095   4.097   2.671   4.414
    3OL    C117 7096   3.913   2.572   4.428
    3OL    H17R 7097   3.859   2.667   4.422
    3OL    H17S 7098   3.853   2.499   4.482
    3OL    C118 7099   3.924   2.513   4.287
    3OL    H18R 7100   3.991   2.427   4.293
    3OL    H18S 7101   3.979   2.582   4.223
    3OL    H18T 7102   3.825   2.481   4.251
    1PA    C116 7103   3.163   0.406   4.371
    1PA    H16R 7104   3.133   0.486   4.439
    1PA    H16S 7105   3.070   0.394   4.315
    1PA    H16T 7106   3.235   0.432   4.294
    1PA    C115 7107   3.189   0.275   4.446
    1PA    H15R 7108   3.101   0.234   4.497
    1PA    H15S 7109   3.223   0.199   4.376
    1PA    C114 7110   3.285   0.298   4.564
    1PA    H14R 7111   3.373   0.359   4.541
    1PA    H14S 7112   3.223   0.359   4.630
    1PA    C113 7113   3.314   0.168   4.640
    1PA    H13R 7114   3.226   0.103   4.634
    1PA    H13S 7115   3.386   0.110   4.583
    1PA    C112 7116   3.378   0.201   4.776
    1PA    H12R 7117   3.478   0.244   4.783
    1PA    H12S 7118   3.310   0.262   4.837
    1PA    C111 7119   3.392   0.070   4.855
    1PA    H11R 7120   3.300   0.017   4.878
    1PA    H11S 7121   3.458   0.006   4.796
    1PA    C110 7122   3.461   0.102   4.988
    1PA    H10R 7123   3.561   0.145   4.974
    1PA    H10S 7124   3.396   0.169   5.044
    1PA     C19 7125   3.486  -0.025   5.070
    1PA     H9R 7126   3.555  -0.097   5.026
    1PA     H9S 7127   3.540   0.014   5.156
    1PA     C18 7128   3.359  -0.093   5.123
    1PA     H8R 7129   3.295  -0.027   5.180
    1PA     H8S 7130   3.307  -0.138   5.038
    1PA     C17 7131   3.389  -0.218   5.208
    1PA     H7R 7132   3.296  -0.274   5.200
    1PA     H7S 7133   3.474  -0.270   5.162
    1PA     C16 7134   3.407  -0.173   5.354
    1PA     H6R 7135   3.502  -0.128   5.384
    1PA     H6S 7136   3.337  -0.099   5.393
    1PA     C15 7137   3.398  -0.303   5.435
    1PA     H5R 7138   3.464  -0.373   5.384
    1PA     H5S 7139   3.433  -0.285   5.537
    1PA     C14 7140   3.255  -0.360   5.443
    1PA     H4R 7141   3.204  -0.349   5.347
    1PA     H4S 7142   3.267  -0.463   5.477
    1PA     C13 7143   3.182  -0.279   5.551
    1PA     H3R 7144   3.215  -0.320   5.647
    1PA     H3S 7145   3.202  -0.172   5.546
    1PA     C12 7146   3.034  -0.319   5.548
    1PA     H2R 7147   2.990  -0.287   5.453
    1PA     H2S 7148   3.033  -0.429   5.547
    2PC     C11 7149   2.951  -0.266   5.661
    2PC     O12 7150   2.915  -0.332   5.757
    2PC     O11 7151   2.913  -0.138   5.644
    2PC      C1 7152   2.830  -0.085   5.749
    2PC      HR 7153   2.803   0.017   5.723
    2PC      HS 7154   2.751  -0.159   5.762
    2PC      C2 7155   2.904  -0.072   5.883
    2PC      HX 7156   2.950  -0.165   5.918
    2PC      C3 7157   2.801  -0.026   5.988
    2PC      HA 7158   2.754   0.062   5.945
    2PC      HB 7159   2.734  -0.103   6.028
    2PC     O31 7160   2.886   0.024   6.093
    2PC     P31 7161   2.820   0.103   6.216
    2PC     O32 7162   2.720   0.198   6.135
    2PC     C31 7163   2.593   0.219   6.199
    2PC     H1A 7164   2.548   0.119   6.199
    2PC     H1B 7165   2.603   0.260   6.300
    2PC     C32 7166   2.514   0.323   6.118
    2PC     H2A 7167   2.521   0.296   6.013
    2PC     H2B 7168   2.408   0.320   6.144
    2PC     N31 7169   2.551   0.468   6.125
    2PC     C33 7170   2.446   0.533   6.040
    2PC     H3A 7171   2.461   0.640   6.035
    2PC     H3B 7172   2.468   0.507   5.936
    2PC     H3C 7173   2.346   0.504   6.072
    2PC     C34 7174   2.544   0.531   6.261
    2PC     H4A 7175   2.625   0.493   6.324
    2PC     H4B 7176   2.558   0.639   6.256
    2PC     H4C 7177   2.451   0.495   6.306
    2PC     C35 7178   2.681   0.500   6.057
    2PC     H5A 7179   2.761   0.433   6.091
    2PC     H5B 7180   2.695   0.608   6.066
    2PC     H5C 7181   2.658   0.472   5.954
    2PC     O33 7182   2.753  -0.001   6.296
    2PC     O34 7183   2.899   0.171   6.321
    2PC     O21 7184   2.999   0.031   5.851
    2PC     C21 7185   3.122  -0.004   5.811
    2PC     O22 7186   3.163  -0.117   5.825
    3OL     C12 7187   3.201   0.107   5.746
    3OL     H2R 7188   3.307   0.086   5.755
    3OL     H2S 7189   3.185   0.199   5.804
    3OL     C13 7190   3.155   0.136   5.603
    3OL     H3R 7191   3.046   0.137   5.604
    3OL     H3S 7192   3.189   0.054   5.539
    3OL     C14 7193   3.202   0.269   5.542
    3OL     H4R 7194   3.310   0.275   5.523
    3OL     H4S 7195   3.173   0.352   5.607
    3OL     C15 7196   3.128   0.288   5.409
    3OL     H5R 7197   3.021   0.278   5.428
    3OL     H5S 7198   3.153   0.202   5.346
    3OL     C16 7199   3.160   0.423   5.344
    3OL     H6R 7200   3.154   0.503   5.418
    3OL     H6S 7201   3.087   0.454   5.269
    3OL     C17 7202   3.298   0.412   5.276
    3OL     H7R 7203   3.281   0.347   5.190
    3OL     H7S 7204   3.375   0.366   5.339
    3OL     C18 7205   3.348   0.549   5.230
    3OL     H8R 7206   3.359   0.605   5.323
    3OL     H8S 7207   3.277   0.581   5.154
    3OL     C19 7208   3.482   0.539   5.161
    3OL     H9R 7209   3.494   0.469   5.079
    3OL    C110 7210   3.587   0.617   5.182
    3OL    H10R 7211   3.678   0.620   5.123
    3OL    C111 7212   3.588   0.739   5.270
    3OL    H11R 7213   3.548   0.718   5.370
    3OL    H11S 7214   3.519   0.814   5.232
    3OL    C112 7215   3.719   0.820   5.274
    3OL    H12R 7216   3.763   0.832   5.175
    3OL    H12S 7217   3.795   0.771   5.335
    3OL    C113 7218   3.706   0.958   5.339
    3OL    H13R 7219   3.808   0.998   5.338
    3OL    H13S 7220   3.670   0.949   5.441
    3OL    C114 7221   3.620   1.058   5.259
    3OL    H14R 7222   3.620   1.150   5.318
    3OL    H14S 7223   3.518   1.026   5.238
    3OL    C115 7224   3.694   1.093   5.130
    3OL    H15R 7225   3.720   1.008   5.066
    3OL    H15S 7226   3.784   1.145   5.163
    3OL    C116 7227   3.624   1.201   5.046
    3OL    H16R 7228   3.618   1.290   5.107
    3OL    H16S 7229   3.530   1.158   5.010
    3OL    C117 7230   3.715   1.236   4.927
    3OL    H17R 7231   3.767   1.149   4.886
    3OL    H17S 7232   3.796   1.292   4.975
    3OL    C118 7233   3.654   1.323   4.816
    3OL    H18R 7234   3.741   1.364   4.765
    3OL    H18S 7235   3.599   1.410   4.852
    3OL    H18T 7236   3.609   1.272   4.731
    1PA    C116 7237   3.147   2.791   4.024
    1PA    H16R 7238   3.215   2.802   3.940
    1PA    H16S 7239   3.085   2.877   4.049
    1PA    H16T 7240   3.086   2.701   4.009
    1PA    C115 7241   3.229   2.759   4.150
    1PA    H15R 7242   3.283   2.844   4.193
    1PA    H15S 7243   3.155   2.736   4.227
    1PA    C114 7244   3.328   2.644   4.130
    1PA    H14R 7245   3.275   2.570   4.070
    1PA    H14S 7246   3.419   2.669   4.075
    1PA    C113 7247   3.379   2.582   4.261
    1PA    H13R 7248   3.439   2.651   4.320
    1PA    H13S 7249   3.298   2.542   4.321
    1PA    C112 7250   3.466   2.458   4.235
    1PA    H12R 7251   3.414   2.397   4.162
    1PA    H12S 7252   3.562   2.490   4.193
    1PA    C111 7253   3.488   2.386   4.369
    1PA    H11R 7254   3.525   2.472   4.427
    1PA    H11S 7255   3.393   2.346   4.405
    1PA    C110 7256   3.586   2.269   4.365
    1PA    H10R 7257   3.546   2.200   4.290
    1PA    H10S 7258   3.685   2.305   4.335
    1PA     C19 7259   3.590   2.178   4.489
    1PA     H9R 7260   3.499   2.118   4.490
    1PA     H9S 7261   3.678   2.114   4.496
    1PA     C18 7262   3.588   2.255   4.622
    1PA     H8R 7263   3.678   2.316   4.631
    1PA     H8S 7264   3.507   2.327   4.625
    1PA     C17 7265   3.585   2.158   4.741
    1PA     H7R 7266   3.514   2.075   4.740
    1PA     H7S 7267   3.687   2.121   4.756
    1PA     C16 7268   3.552   2.227   4.874
    1PA     H6R 7269   3.637   2.293   4.897
    1PA     H6S 7270   3.468   2.295   4.858
    1PA     C15 7271   3.530   2.138   4.997
    1PA     H5R 7272   3.453   2.063   4.974
    1PA     H5S 7273   3.618   2.076   5.013
    1PA     C14 7274   3.493   2.233   5.111
    1PA     H4R 7275   3.564   2.316   5.118
    1PA     H4S 7276   3.397   2.284   5.099
    1PA     C13 7277   3.500   2.164   5.248
    1PA     H3R 7278   3.595   2.113   5.259
    1PA     H3S 7279   3.489   2.236   5.330
    1PA     C12 7280   3.386   2.062   5.263
    1PA     H2R 7281   3.297   2.117   5.233
    1PA     H2S 7282   3.395   1.978   5.195
    2PC     C11 7283   3.353   2.017   5.403
    2PC     O12 7284   3.385   2.084   5.500
    2PC     O11 7285   3.284   1.902   5.404
    2PC      C1 7286   3.220   1.884   5.532
    2PC      HR 7287   3.300   1.895   5.606
    2PC      HS 7288   3.141   1.958   5.547
    2PC      C2 7289   3.174   1.738   5.542
    2PC      HX 7290   3.112   1.715   5.454
    2PC      C3 7291   3.086   1.712   5.665
    2PC      HA 7292   3.004   1.783   5.680
    2PC      HB 7293   3.055   1.607   5.660
    2PC     O31 7294   3.171   1.713   5.782
    2PC     P31 7295   3.108   1.678   5.925
    2PC     O32 7296   3.219   1.606   6.015
    2PC     C31 7297   3.255   1.473   5.973
    2PC     H1A 7298   3.166   1.418   5.945
    2PC     H1B 7299   3.323   1.474   5.888
    2PC     C32 7300   3.341   1.404   6.081
    2PC     H2A 7301   3.365   1.304   6.046
    2PC     H2B 7302   3.428   1.467   6.098
    2PC     N31 7303   3.290   1.378   6.219
    2PC     C33 7304   3.174   1.283   6.217
    2PC     H3A 7305   3.082   1.312   6.166
    2PC     H3B 7306   3.205   1.196   6.159
    2PC     H3C 7307   3.145   1.255   6.319
    2PC     C34 7308   3.401   1.307   6.290
    2PC     H4A 7309   3.477   1.380   6.319
    2PC     H4B 7310   3.365   1.258   6.380
    2PC     H4C 7311   3.464   1.241   6.230
    2PC     C35 7312   3.251   1.505   6.290
    2PC     H5A 7313   3.187   1.554   6.216
    2PC     H5B 7314   3.342   1.562   6.305
    2PC     H5C 7315   3.202   1.484   6.385
    2PC     O33 7316   3.075   1.793   6.013
    2PC     O34 7317   2.984   1.600   5.905
    2PC     O21 7318   3.284   1.647   5.553
    2PC     C21 7319   3.273   1.523   5.505
    2PC     O22 7320   3.175   1.482   5.447
    3OL     C12 7321   3.390   1.432   5.533
    3OL     H2R 7322   3.336   1.339   5.550
    3OL     H2S 7323   3.432   1.464   5.628
    3OL     C13 7324   3.493   1.432   5.419
    3OL     H3R 7325   3.451   1.425   5.318
    3OL     H3S 7326   3.543   1.335   5.418
    3OL     C14 7327   3.593   1.546   5.438
    3OL     H4R 7328   3.690   1.508   5.403
    3OL     H4S 7329   3.605   1.570   5.544
    3OL     C15 7330   3.554   1.673   5.360
    3OL     H5R 7331   3.636   1.742   5.380
    3OL     H5S 7332   3.458   1.709   5.398
    3OL     C16 7333   3.535   1.658   5.209
    3OL     H6R 7334   3.525   1.758   5.166
    3OL     H6S 7335   3.444   1.600   5.191
    3OL     C17 7336   3.646   1.573   5.145
    3OL     H7R 7337   3.621   1.527   5.049
    3OL     H7S 7338   3.675   1.484   5.201
    3OL     C18 7339   3.774   1.654   5.123
    3OL     H8R 7340   3.824   1.665   5.220
    3OL     H8S 7341   3.745   1.753   5.085
    3OL     C19 7342   3.864   1.588   5.021
    3OL     H9R 7343   3.875   1.480   5.027
    3OL    C110 7344   3.915   1.649   4.916
    3OL    H10R 7345   3.976   1.591   4.847
    3OL    C111 7346   3.918   1.796   4.883
    3OL    H11R 7347   4.016   1.840   4.905
    3OL    H11S 7348   3.842   1.856   4.935
    3OL    C112 7349   3.880   1.820   4.736
    3OL    H12R 7350   3.959   1.778   4.673
    3OL    H12S 7351   3.868   1.928   4.721
    3OL    C113 7352   3.746   1.754   4.699
    3OL    H13R 7353   3.660   1.807   4.740
    3OL    H13S 7354   3.748   1.651   4.736
    3OL    C114 7355   3.725   1.761   4.547
    3OL    H14R 7356   3.814   1.722   4.497
    3OL    H14S 7357   3.712   1.864   4.514
    3OL    C115 7358   3.596   1.688   4.507
    3OL    H15R 7359   3.599   1.591   4.557
    3OL    H15S 7360   3.609   1.669   4.401
    3OL    C116 7361   3.456   1.747   4.531
    3OL    H16R 7362   3.442   1.769   4.637
    3OL    H16S 7363   3.387   1.667   4.504
    3OL    C117 7364   3.435   1.868   4.438
    3OL    H17R 7365   3.515   1.932   4.475
    3OL    H17S 7366   3.342   1.915   4.471
    3OL    C118 7367   3.431   1.836   4.288
    3OL    H18R 7368   3.512   1.771   4.255
    3OL    H18S 7369   3.443   1.927   4.228
    3OL    H18T 7370   3.343   1.783   4.251
    1PA    C116 7371   6.015   6.455   4.093
    1PA    H16R 7372   5.963   6.521   4.022
    1PA    H16S 7373   6.020   6.351   4.062
    1PA    H16T 7374   6.117   6.492   4.103
    1PA    C115 7375   5.965   6.454   4.238
    1PA    H15R 7376   6.044   6.406   4.296
    1PA    H15S 7377   5.940   6.555   4.273
    1PA    C114 7378   5.836   6.374   4.255
    1PA    H14R 7379   5.846   6.280   4.201
    1PA    H14S 7380   5.842   6.347   4.361
    1PA    C113 7381   5.709   6.446   4.207
    1PA    H13R 7382   5.697   6.534   4.270
    1PA    H13S 7383   5.716   6.474   4.102
    1PA    C112 7384   5.589   6.351   4.225
    1PA    H12R 7385   5.515   6.385   4.152
    1PA    H12S 7386   5.612   6.245   4.220
    1PA    C111 7387   5.532   6.373   4.366
    1PA    H11R 7388   5.611   6.359   4.439
    1PA    H11S 7389   5.512   6.480   4.372
    1PA    C110 7390   5.411   6.290   4.409
    1PA    H10R 7391   5.334   6.313   4.334
    1PA    H10S 7392   5.435   6.183   4.406
    1PA     C19 7393   5.361   6.334   4.547
    1PA     H9R 7394   5.337   6.440   4.546
    1PA     H9S 7395   5.262   6.289   4.562
    1PA     C18 7396   5.448   6.305   4.670
    1PA     H8R 7397   5.541   6.358   4.650
    1PA     H8S 7398   5.398   6.349   4.756
    1PA     C17 7399   5.476   6.155   4.690
    1PA     H7R 7400   5.488   6.115   4.589
    1PA     H7S 7401   5.563   6.144   4.753
    1PA     C16 7402   5.357   6.074   4.745
    1PA     H6R 7403   5.257   6.115   4.733
    1PA     H6S 7404   5.354   5.977   4.697
    1PA     C15 7405   5.388   6.057   4.895
    1PA     H5R 7406   5.491   6.022   4.902
    1PA     H5S 7407   5.379   6.151   4.950
    1PA     C14 7408   5.293   5.947   4.942
    1PA     H4R 7409   5.187   5.975   4.934
    1PA     H4S 7410   5.313   5.863   4.875
    1PA     C13 7411   5.336   5.911   5.085
    1PA     H3R 7412   5.433   5.864   5.068
    1PA     H3S 7413   5.354   5.987   5.161
    1PA     C12 7414   5.243   5.808   5.150
    1PA     H2R 7415   5.147   5.856   5.170
    1PA     H2S 7416   5.228   5.728   5.077
    2PC     C11 7417   5.305   5.767   5.281
    2PC     O12 7418   5.335   5.845   5.368
    2PC     O11 7419   5.336   5.636   5.282
    2PC      C1 7420   5.401   5.563   5.387
    2PC      HR 7421   5.427   5.461   5.356
    2PC      HS 7422   5.498   5.603   5.419
    2PC      C2 7423   5.305   5.545   5.506
    2PC      HX 7424   5.277   5.643   5.545
    2PC      C3 7425   5.357   5.459   5.621
    2PC      HA 7426   5.353   5.358   5.580
    2PC      HB 7427   5.462   5.485   5.637
    2PC     O31 7428   5.271   5.468   5.736
    2PC     P31 7429   5.342   5.443   5.877
    2PC     O32 7430   5.225   5.386   5.971
    2PC     C31 7431   5.098   5.449   5.997
    2PC     H1A 7432   5.114   5.549   6.039
    2PC     H1B 7433   5.046   5.454   5.901
    2PC     C32 7434   5.016   5.363   6.094
    2PC     H2A 7435   5.034   5.259   6.066
    2PC     H2B 7436   5.054   5.379   6.195
    2PC     N31 7437   4.869   5.379   6.120
    2PC     C33 7438   4.836   5.519   6.164
    2PC     H3A 7439   4.877   5.583   6.086
    2PC     H3B 7440   4.729   5.541   6.168
    2PC     H3C 7441   4.883   5.538   6.261
    2PC     C34 7442   4.803   5.341   5.991
    2PC     H4A 7443   4.840   5.243   5.961
    2PC     H4B 7444   4.695   5.351   6.003
    2PC     H4C 7445   4.844   5.412   5.920
    2PC     C35 7446   4.823   5.283   6.226
    2PC     H5A 7447   4.881   5.311   6.315
    2PC     H5B 7448   4.841   5.181   6.193
    2PC     H5C 7449   4.717   5.298   6.245
    2PC     O33 7450   5.465   5.362   5.868
    2PC     O34 7451   5.408   5.566   5.928
    2PC     O21 7452   5.187   5.476   5.459
    2PC     C21 7453   5.089   5.540   5.394
    2PC     O22 7454   5.074   5.661   5.397
    3OL     C12 7455   5.002   5.445   5.316
    3OL     H2R 7456   4.896   5.466   5.331
    3OL     H2S 7457   5.019   5.341   5.344
    3OL     C13 7458   5.032   5.471   5.167
    3OL     H3R 7459   4.982   5.386   5.120
    3OL     H3S 7460   5.140   5.478   5.156
    3OL     C14 7461   4.971   5.601   5.113
    3OL     H4R 7462   5.013   5.611   5.013
    3OL     H4S 7463   5.008   5.685   5.171
    3OL     C15 7464   4.818   5.608   5.121
    3OL     H5R 7465   4.796   5.611   5.228
    3OL     H5S 7466   4.783   5.507   5.096
    3OL     C16 7467   4.762   5.726   5.040
    3OL     H6R 7468   4.812   5.818   5.070
    3OL     H6S 7469   4.657   5.747   5.063
    3OL     C17 7470   4.795   5.711   4.891
    3OL     H7R 7471   4.778   5.613   4.846
    3OL     H7S 7472   4.899   5.739   4.874
    3OL     C18 7473   4.724   5.825   4.816
    3OL     H8R 7474   4.773   5.920   4.838
    3OL     H8S 7475   4.619   5.841   4.841
    3OL     C19 7476   4.735   5.798   4.668
    3OL     H9R 7477   4.648   5.746   4.629
    3OL    C110 7478   4.844   5.818   4.596
    3OL    H10R 7479   4.852   5.797   4.490
    3OL    C111 7480   4.959   5.905   4.639
    3OL    H11R 7481   5.028   5.850   4.705
    3OL    H11S 7482   4.930   5.987   4.705
    3OL    C112 7483   5.038   5.960   4.520
    3OL    H12R 7484   5.070   5.878   4.456
    3OL    H12S 7485   5.135   5.994   4.560
    3OL    C113 7486   4.959   6.075   4.456
    3OL    H13R 7487   4.926   6.146   4.532
    3OL    H13S 7488   4.881   6.018   4.404
    3OL    C114 7489   5.047   6.131   4.344
    3OL    H14R 7490   5.094   6.049   4.288
    3OL    H14S 7491   5.129   6.193   4.381
    3OL    C115 7492   4.962   6.218   4.251
    3OL    H15R 7493   4.865   6.171   4.232
    3OL    H15S 7494   5.024   6.224   4.161
    3OL    C116 7495   4.935   6.360   4.304
    3OL    H16R 7496   4.886   6.343   4.401
    3OL    H16S 7497   4.863   6.416   4.245
    3OL    C117 7498   5.061   6.444   4.328
    3OL    H17R 7499   5.126   6.388   4.397
    3OL    H17S 7500   5.028   6.532   4.384
    3OL    C118 7501   5.138   6.475   4.199
    3OL    H18R 7502   5.074   6.517   4.120
    3OL    H18S 7503   5.183   6.384   4.158
    3OL    H18T 7504   5.206   6.558   4.215
    1PA    C116 7505   7.068   2.529   5.020
    1PA    H16R 7506   7.170   2.492   5.009
    1PA    H16S 7507   7.068   2.616   5.087
    1PA    H16T 7508   7.044   2.569   4.922
    1PA    C115 7509   6.990   2.409   5.075
    1PA    H15R 7510   7.061   2.343   5.125
    1PA    H15S 7511   6.911   2.452   5.137
    1PA    C114 7512   6.933   2.328   4.958
    1PA    H14R 7513   7.008   2.286   4.890
    1PA    H14S 7514   6.885   2.239   4.999
    1PA    C113 7515   6.823   2.396   4.876
    1PA    H13R 7516   6.732   2.407   4.935
    1PA    H13S 7517   6.850   2.500   4.853
    1PA    C112 7518   6.773   2.320   4.752
    1PA    H12R 7519   6.852   2.309   4.678
    1PA    H12S 7520   6.759   2.217   4.783
    1PA    C111 7521   6.652   2.379   4.678
    1PA    H11R 7522   6.617   2.468   4.730
    1PA    H11S 7523   6.682   2.395   4.574
    1PA    C110 7524   6.538   2.276   4.686
    1PA    H10R 7525   6.459   2.308   4.617
    1PA    H10S 7526   6.570   2.180   4.646
    1PA     C19 7527   6.483   2.264   4.829
    1PA     H9R 7528   6.556   2.232   4.903
    1PA     H9S 7529   6.472   2.365   4.871
    1PA     C18 7530   6.348   2.191   4.840
    1PA     H8R 7531   6.272   2.238   4.778
    1PA     H8S 7532   6.359   2.088   4.806
    1PA     C17 7533   6.301   2.181   4.986
    1PA     H7R 7534   6.272   2.077   5.004
    1PA     H7S 7535   6.377   2.199   5.061
    1PA     C16 7536   6.181   2.271   5.019
    1PA     H6R 7537   6.202   2.372   4.984
    1PA     H6S 7538   6.093   2.236   4.964
    1PA     C15 7539   6.159   2.271   5.171
    1PA     H5R 7540   6.169   2.168   5.205
    1PA     H5S 7541   6.249   2.311   5.219
    1PA     C14 7542   6.040   2.360   5.210
    1PA     H4R 7543   5.952   2.349   5.147
    1PA     H4S 7544   6.017   2.335   5.314
    1PA     C13 7545   6.079   2.508   5.221
    1PA     H3R 7546   6.156   2.519   5.297
    1PA     H3S 7547   6.119   2.538   5.124
    1PA     C12 7548   5.960   2.600   5.253
    1PA     H2R 7549   5.998   2.699   5.225
    1PA     H2S 7550   5.872   2.574   5.195
    2PC     C11 7551   5.913   2.585   5.395
    2PC     O12 7552   5.947   2.656   5.488
    2PC     O11 7553   5.806   2.504   5.403
    2PC      C1 7554   5.710   2.503   5.511
    2PC      HR 7555   5.665   2.404   5.526
    2PC      HS 7556   5.765   2.524   5.603
    2PC      C2 7557   5.607   2.615   5.494
    2PC      HX 7558   5.653   2.713   5.509
    2PC      C3 7559   5.494   2.604   5.598
    2PC      HA 7560   5.427   2.525   5.562
    2PC      HB 7561   5.529   2.579   5.699
    2PC     O31 7562   5.426   2.730   5.607
    2PC     P31 7563   5.309   2.764   5.712
    2PC     O32 7564   5.339   2.921   5.712
    2PC     C31 7565   5.266   3.011   5.626
    2PC     H1A 7566   5.257   2.963   5.529
    2PC     H1B 7567   5.164   3.018   5.665
    2PC     C32 7568   5.356   3.136   5.632
    2PC     H2A 7569   5.296   3.218   5.592
    2PC     H2B 7570   5.378   3.170   5.733
    2PC     N31 7571   5.485   3.143   5.556
    2PC     C33 7572   5.582   3.048   5.618
    2PC     H3A 7573   5.680   3.065   5.575
    2PC     H3B 7574   5.590   3.058   5.727
    2PC     H3C 7575   5.543   2.949   5.593
    2PC     C34 7576   5.466   3.111   5.411
    2PC     H4A 7577   5.566   3.093   5.372
    2PC     H4B 7578   5.409   3.019   5.399
    2PC     H4C 7579   5.419   3.192   5.354
    2PC     C35 7580   5.538   3.283   5.573
    2PC     H5A 7581   5.462   3.353   5.538
    2PC     H5B 7582   5.634   3.287   5.522
    2PC     H5C 7583   5.546   3.283   5.682
    2PC     O33 7584   5.176   2.721   5.663
    2PC     O34 7585   5.337   2.693   5.839
    2PC     O21 7586   5.535   2.606   5.370
    2PC     C21 7587   5.477   2.717   5.321
    2PC     O22 7588   5.497   2.830   5.362
    3OL     C12 7589   5.394   2.685   5.200
    3OL     H2R 7590   5.365   2.776   5.148
    3OL     H2S 7591   5.305   2.630   5.232
    3OL     C13 7592   5.471   2.591   5.106
    3OL     H3R 7593   5.408   2.537   5.036
    3OL     H3S 7594   5.502   2.511   5.173
    3OL     C14 7595   5.594   2.664   5.050
    3OL     H4R 7596   5.658   2.721   5.119
    3OL     H4S 7597   5.563   2.740   4.978
    3OL     C15 7598   5.679   2.564   4.971
    3OL     H5R 7599   5.619   2.518   4.893
    3OL     H5S 7600   5.713   2.478   5.029
    3OL     C16 7601   5.797   2.617   4.889
    3OL     H6R 7602   5.873   2.659   4.957
    3OL     H6S 7603   5.753   2.693   4.824
    3OL     C17 7604   5.871   2.509   4.808
    3OL     H7R 7605   5.798   2.473   4.736
    3OL     H7S 7606   5.917   2.436   4.876
    3OL     C18 7607   5.986   2.577   4.732
    3OL     H8R 7608   6.035   2.645   4.801
    3OL     H8S 7609   5.932   2.630   4.653
    3OL     C19 7610   6.085   2.476   4.680
    3OL     H9R 7611   6.057   2.373   4.701
    3OL    C110 7612   6.196   2.503   4.613
    3OL    H10R 7613   6.253   2.419   4.575
    3OL    C111 7614   6.241   2.636   4.559
    3OL    H11R 7615   6.343   2.647   4.596
    3OL    H11S 7616   6.181   2.717   4.601
    3OL    C112 7617   6.231   2.641   4.406
    3OL    H12R 7618   6.130   2.604   4.386
    3OL    H12S 7619   6.315   2.584   4.366
    3OL    C113 7620   6.237   2.783   4.350
    3OL    H13R 7621   6.327   2.824   4.397
    3OL    H13S 7622   6.153   2.845   4.380
    3OL    C114 7623   6.249   2.781   4.197
    3OL    H14R 7624   6.333   2.716   4.171
    3OL    H14S 7625   6.278   2.882   4.169
    3OL    C115 7626   6.117   2.747   4.126
    3OL    H15R 7627   6.052   2.824   4.170
    3OL    H15S 7628   6.083   2.653   4.169
    3OL    C116 7629   6.118   2.766   3.974
    3OL    H16R 7630   6.194   2.712   3.918
    3OL    H16S 7631   6.141   2.872   3.956
    3OL    C117 7632   5.990   2.729   3.898
    3OL    H17R 7633   5.980   2.792   3.809
    3OL    H17S 7634   5.905   2.747   3.963
    3OL    C118 7635   5.983   2.580   3.860
    3OL    H18R 7636   6.013   2.513   3.941
    3OL    H18S 7637   6.048   2.565   3.773
    3OL    H18T 7638   5.880   2.552   3.838
    1PA    C116 7639   6.521   1.703   4.063
    1PA    H16R 7640   6.461   1.793   4.046
    1PA    H16S 7641   6.581   1.690   3.973
    1PA    H16T 7642   6.578   1.711   4.156
    1PA    C115 7643   6.434   1.577   4.074
    1PA    H15R 7644   6.372   1.584   3.985
    1PA    H15S 7645   6.477   1.477   4.061
    1PA    C114 7646   6.344   1.567   4.198
    1PA    H14R 7647   6.416   1.566   4.281
    1PA    H14S 7648   6.295   1.663   4.211
    1PA    C113 7649   6.233   1.462   4.188
    1PA    H13R 7650   6.171   1.468   4.098
    1PA    H13S 7651   6.265   1.359   4.170
    1PA    C112 7652   6.137   1.468   4.308
    1PA    H12R 7653   6.101   1.571   4.310
    1PA    H12S 7654   6.046   1.409   4.291
    1PA    C111 7655   6.187   1.448   4.452
    1PA    H11R 7656   6.290   1.484   4.449
    1PA    H11S 7657   6.129   1.506   4.524
    1PA    C110 7658   6.193   1.297   4.478
    1PA    H10R 7659   6.089   1.265   4.473
    1PA    H10S 7660   6.243   1.243   4.397
    1PA     C19 7661   6.257   1.281   4.616
    1PA     H9R 7662   6.359   1.320   4.613
    1PA     H9S 7663   6.199   1.337   4.691
    1PA     C18 7664   6.254   1.134   4.660
    1PA     H8R 7665   6.152   1.103   4.686
    1PA     H8S 7666   6.283   1.077   4.571
    1PA     C17 7667   6.347   1.114   4.780
    1PA     H7R 7668   6.355   1.007   4.797
    1PA     H7S 7669   6.444   1.163   4.766
    1PA     C16 7670   6.277   1.176   4.902
    1PA     H6R 7671   6.275   1.285   4.903
    1PA     H6S 7672   6.175   1.136   4.904
    1PA     C15 7673   6.356   1.131   5.025
    1PA     H5R 7674   6.354   1.024   5.043
    1PA     H5S 7675   6.461   1.157   5.007
    1PA     C14 7676   6.294   1.189   5.153
    1PA     H4R 7677   6.259   1.292   5.144
    1PA     H4S 7678   6.201   1.140   5.179
    1PA     C13 7679   6.391   1.190   5.272
    1PA     H3R 7680   6.494   1.219   5.250
    1PA     H3S 7681   6.343   1.257   5.343
    1PA     C12 7682   6.397   1.055   5.345
    1PA     H2R 7683   6.296   1.014   5.352
    1PA     H2S 7684   6.461   0.985   5.291
    2PC     C11 7685   6.459   1.079   5.481
    2PC     O12 7686   6.579   1.091   5.494
    2PC     O11 7687   6.361   1.097   5.571
    2PC      C1 7688   6.385   1.125   5.710
    2PC      HR 7689   6.458   1.204   5.724
    2PC      HS 7690   6.292   1.152   5.760
    2PC      C2 7691   6.431   0.997   5.781
    2PC      HX 7692   6.397   1.009   5.884
    2PC      C3 7693   6.578   0.952   5.769
    2PC      HA 7694   6.578   0.897   5.674
    2PC      HB 7695   6.660   1.023   5.754
    2PC     O31 7696   6.608   0.851   5.867
    2PC     P31 7697   6.607   0.881   6.024
    2PC     O32 7698   6.453   0.895   6.068
    2PC     C31 7699   6.376   0.774   6.068
    2PC     H1A 7700   6.351   0.753   5.963
    2PC     H1B 7701   6.441   0.689   6.090
    2PC     C32 7702   6.253   0.787   6.159
    2PC     H2A 7703   6.186   0.861   6.115
    2PC     H2B 7704   6.206   0.689   6.170
    2PC     N31 7705   6.280   0.832   6.300
    2PC     C33 7706   6.304   0.980   6.308
    2PC     H3A 7707   6.249   1.024   6.224
    2PC     H3B 7708   6.278   1.012   6.409
    2PC     H3C 7709   6.410   0.998   6.288
    2PC     C34 7710   6.164   0.796   6.387
    2PC     H4A 7711   6.082   0.860   6.353
    2PC     H4B 7712   6.154   0.688   6.377
    2PC     H4C 7713   6.192   0.823   6.489
    2PC     C35 7714   6.392   0.755   6.363
    2PC     H5A 7715   6.481   0.786   6.308
    2PC     H5B 7716   6.376   0.649   6.342
    2PC     H5C 7717   6.395   0.771   6.471
    2PC     O33 7718   6.672   0.778   6.107
    2PC     O34 7719   6.692   0.997   6.059
    2PC     O21 7720   6.352   0.888   5.732
    2PC     C21 7721   6.221   0.872   5.756
    2PC     O22 7722   6.161   0.940   5.837
    3OL     C12 7723   6.158   0.769   5.666
    3OL     H2R 7724   6.056   0.749   5.700
    3OL     H2S 7725   6.214   0.676   5.657
    3OL     C13 7726   6.153   0.824   5.523
    3OL     H3R 7727   6.254   0.860   5.502
    3OL     H3S 7728   6.092   0.914   5.509
    3OL     C14 7729   6.108   0.722   5.417
    3OL     H4R 7730   6.007   0.686   5.438
    3OL     H4S 7731   6.175   0.637   5.404
    3OL     C15 7732   6.103   0.796   5.283
    3OL     H5R 7733   6.201   0.838   5.259
    3OL     H5S 7734   6.032   0.878   5.297
    3OL     C16 7735   6.059   0.713   5.161
    3OL     H6R 7736   5.963   0.667   5.185
    3OL     H6S 7737   6.124   0.626   5.149
    3OL     C17 7738   6.055   0.796   5.032
    3OL     H7R 7739   6.155   0.840   5.029
    3OL     H7S 7740   5.987   0.880   5.043
    3OL     C18 7741   6.024   0.720   4.902
    3OL     H8R 7742   5.932   0.662   4.906
    3OL     H8S 7743   6.100   0.642   4.899
    3OL     C19 7744   6.047   0.815   4.787
    3OL     H9R 7745   6.117   0.895   4.809
    3OL    C110 7746   6.001   0.800   4.663
    3OL    H10R 7747   6.019   0.877   4.588
    3OL    C111 7748   5.913   0.685   4.622
    3OL    H11R 7749   5.811   0.723   4.628
    3OL    H11S 7750   5.912   0.607   4.699
    3OL    C112 7751   5.946   0.630   4.483
    3OL    H12R 7752   5.914   0.525   4.481
    3OL    H12S 7753   6.054   0.620   4.469
    3OL    C113 7754   5.873   0.704   4.370
    3OL    H13R 7755   5.764   0.696   4.377
    3OL    H13S 7756   5.898   0.661   4.273
    3OL    C114 7757   5.892   0.855   4.357
    3OL    H14R 7758   5.999   0.877   4.364
    3OL    H14S 7759   5.841   0.906   4.439
    3OL    C115 7760   5.840   0.901   4.220
    3OL    H15R 7761   5.732   0.883   4.220
    3OL    H15S 7762   5.875   0.844   4.134
    3OL    C116 7763   5.869   1.050   4.196
    3OL    H16R 7764   5.818   1.109   4.273
    3OL    H16S 7765   5.821   1.069   4.100
    3OL    C117 7766   6.013   1.102   4.198
    3OL    H17R 7767   6.044   1.098   4.302
    3OL    H17S 7768   6.007   1.203   4.156
    3OL    C118 7769   6.119   1.027   4.116
    3OL    H18R 7770   6.208   1.088   4.128
    3OL    H18S 7771   6.091   1.029   4.010
    3OL    H18T 7772   6.127   0.921   4.143
    1PA    C116 7773   5.008   2.966   4.177
    1PA    H16R 7774   4.930   3.028   4.134
    1PA    H16S 7775   4.970   2.864   4.177
    1PA    H16T 7776   5.093   2.983   4.110
    1PA    C115 7777   5.038   3.001   4.324
    1PA    H15R 7778   4.947   2.973   4.377
    1PA    H15S 7779   5.125   2.944   4.357
    1PA    C114 7780   5.052   3.152   4.348
    1PA    H14R 7781   4.974   3.198   4.287
    1PA    H14S 7782   5.032   3.179   4.452
    1PA    C113 7783   5.186   3.214   4.309
    1PA    H13R 7784   5.235   3.159   4.227
    1PA    H13S 7785   5.165   3.317   4.279
    1PA    C112 7786   5.292   3.212   4.420
    1PA    H12R 7787   5.247   3.244   4.514
    1PA    H12S 7788   5.317   3.108   4.439
    1PA    C111 7789   5.420   3.292   4.391
    1PA    H11R 7790   5.471   3.255   4.302
    1PA    H11S 7791   5.389   3.396   4.378
    1PA    C110 7792   5.520   3.283   4.507
    1PA    H10R 7793   5.593   3.364   4.518
    1PA    H10S 7794   5.462   3.292   4.599
    1PA     C19 7795   5.597   3.150   4.507
    1PA     H9R 7796   5.527   3.068   4.526
    1PA     H9S 7797   5.654   3.145   4.413
    1PA     C18 7798   5.701   3.134   4.619
    1PA     H8R 7799   5.756   3.044   4.592
    1PA     H8S 7800   5.773   3.215   4.622
    1PA     C17 7801   5.649   3.115   4.762
    1PA     H7R 7802   5.593   3.204   4.791
    1PA     H7S 7803   5.570   3.041   4.774
    1PA     C16 7804   5.764   3.093   4.862
    1PA     H6R 7805   5.833   3.026   4.812
    1PA     H6S 7806   5.821   3.184   4.883
    1PA     C15 7807   5.708   3.049   4.998
    1PA     H5R 7808   5.637   3.123   5.037
    1PA     H5S 7809   5.660   2.953   4.980
    1PA     C14 7810   5.820   3.024   5.100
    1PA     H4R 7811   5.881   2.941   5.062
    1PA     H4S 7812   5.883   3.112   5.115
    1PA     C13 7813   5.776   3.008   5.246
    1PA     H3R 7814   5.722   3.097   5.279
    1PA     H3S 7815   5.714   2.918   5.255
    1PA     C12 7816   5.897   2.993   5.339
    1PA     H2R 7817   5.858   2.958   5.435
    1PA     H2S 7818   5.962   2.918   5.295
    2PC     C11 7819   5.951   3.129   5.375
    2PC     O12 7820   6.054   3.175   5.331
    2PC     O11 7821   5.876   3.182   5.473
    2PC      C1 7822   5.894   3.319   5.511
    2PC      HR 7823   5.807   3.341   5.573
    2PC      HS 7824   5.984   3.347   5.566
    2PC      C2 7825   5.880   3.408   5.387
    2PC      HX 7826   5.959   3.383   5.316
    2PC      C3 7827   5.899   3.555   5.426
    2PC      HA 7828   6.006   3.570   5.442
    2PC      HB 7829   5.878   3.618   5.339
    2PC     O31 7830   5.829   3.602   5.543
    2PC     P31 7831   5.875   3.744   5.602
    2PC     O32 7832   5.766   3.724   5.717
    2PC     C31 7833   5.652   3.810   5.704
    2PC     H1A 7834   5.691   3.913   5.704
    2PC     H1B 7835   5.600   3.788   5.610
    2PC     C32 7836   5.561   3.779   5.824
    2PC     H2A 7837   5.469   3.837   5.819
    2PC     H2B 7838   5.531   3.675   5.812
    2PC     N31 7839   5.620   3.790   5.961
    2PC     C33 7840   5.710   3.673   5.987
    2PC     H3A 7841   5.795   3.689   5.920
    2PC     H3B 7842   5.750   3.665   6.088
    2PC     H3C 7843   5.653   3.585   5.959
    2PC     C34 7844   5.692   3.921   5.973
    2PC     H4A 7845   5.704   3.952   6.077
    2PC     H4B 7846   5.792   3.913   5.930
    2PC     H4C 7847   5.634   3.997   5.922
    2PC     C35 7848   5.509   3.782   6.062
    2PC     H5A 7849   5.558   3.783   6.160
    2PC     H5B 7850   5.457   3.686   6.058
    2PC     H5C 7851   5.442   3.865   6.040
    2PC     O33 7852   6.011   3.744   5.662
    2PC     O34 7853   5.858   3.861   5.513
    2PC     O21 7854   5.746   3.390   5.336
    2PC     C21 7855   5.719   3.423   5.209
    2PC     O22 7856   5.802   3.464   5.129
    3OL     C12 7857   5.576   3.396   5.172
    3OL     H2R 7858   5.508   3.434   5.249
    3OL     H2S 7859   5.567   3.287   5.172
    3OL     C13 7860   5.546   3.453   5.033
    3OL     H3R 7861   5.606   3.399   4.959
    3OL     H3S 7862   5.573   3.559   5.028
    3OL     C14 7863   5.400   3.434   4.990
    3OL     H4R 7864   5.386   3.498   4.903
    3OL     H4S 7865   5.340   3.483   5.067
    3OL     C15 7866   5.379   3.286   4.955
    3OL     H5R 7867   5.436   3.229   5.028
    3OL     H5S 7868   5.422   3.269   4.856
    3OL     C16 7869   5.231   3.247   4.953
    3OL     H6R 7870   5.160   3.299   4.889
    3OL     H6S 7871   5.198   3.263   5.056
    3OL     C17 7872   5.219   3.096   4.928
    3OL     H7R 7873   5.130   3.066   4.984
    3OL     H7S 7874   5.306   3.042   4.966
    3OL     C18 7875   5.193   3.072   4.779
    3OL     H8R 7876   5.275   3.106   4.716
    3OL     H8S 7877   5.105   3.130   4.748
    3OL     C19 7878   5.145   2.930   4.767
    3OL     H9R 7879   5.042   2.921   4.800
    3OL    C110 7880   5.215   2.824   4.729
    3OL    H10R 7881   5.164   2.728   4.722
    3OL    C111 7882   5.358   2.834   4.681
    3OL    H11R 7883   5.428   2.880   4.751
    3OL    H11S 7884   5.348   2.897   4.593
    3OL    C112 7885   5.405   2.695   4.637
    3OL    H12R 7886   5.325   2.654   4.575
    3OL    H12S 7887   5.426   2.635   4.726
    3OL    C113 7888   5.530   2.688   4.547
    3OL    H13R 7889   5.535   2.580   4.534
    3OL    H13S 7890   5.619   2.709   4.606
    3OL    C114 7891   5.514   2.761   4.413
    3OL    H14R 7892   5.510   2.868   4.436
    3OL    H14S 7893   5.421   2.736   4.361
    3OL    C115 7894   5.630   2.736   4.316
    3OL    H15R 7895   5.633   2.628   4.300
    3OL    H15S 7896   5.729   2.759   4.356
    3OL    C116 7897   5.597   2.807   4.184
    3OL    H16R 7898   5.501   2.859   4.181
    3OL    H16S 7899   5.581   2.733   4.106
    3OL    C117 7900   5.691   2.917   4.133
    3OL    H17R 7901   5.795   2.884   4.131
    3OL    H17S 7902   5.678   2.998   4.205
    3OL    C118 7903   5.640   2.958   3.994
    3OL    H18R 7904   5.532   2.957   3.981
    3OL    H18S 7905   5.689   2.903   3.913
    3OL    H18T 7906   5.674   3.062   3.985
    1PA    C116 7907   3.853   1.039   4.247
    1PA    H16R 7908   3.785   0.970   4.196
    1PA    H16S 7909   3.956   1.021   4.215
    1PA    H16T 7910   3.818   1.138   4.216
    1PA    C115 7911   3.842   1.038   4.400
    1PA    H15R 7912   3.916   1.107   4.440
    1PA    H15S 7913   3.745   1.077   4.432
    1PA    C114 7914   3.867   0.898   4.456
    1PA    H14R 7915   3.796   0.825   4.417
    1PA    H14S 7916   3.967   0.864   4.429
    1PA    C113 7917   3.844   0.888   4.608
    1PA    H13R 7918   3.740   0.920   4.623
    1PA    H13S 7919   3.841   0.784   4.640
    1PA    C112 7920   3.950   0.951   4.699
    1PA    H12R 7921   3.977   1.050   4.661
    1PA    H12S 7922   3.918   0.960   4.802
    1PA    C111 7923   4.087   0.884   4.683
    1PA    H11R 7924   4.082   0.775   4.691
    1PA    H11S 7925   4.120   0.906   4.581
    1PA    C110 7926   4.180   0.936   4.793
    1PA    H10R 7927   4.202   1.041   4.773
    1PA    H10S 7928   4.124   0.920   4.885
    1PA     C19 7929   4.312   0.857   4.790
    1PA     H9R 7930   4.290   0.756   4.827
    1PA     H9S 7931   4.353   0.833   4.692
    1PA     C18 7932   4.427   0.920   4.869
    1PA     H8R 7933   4.523   0.872   4.849
    1PA     H8S 7934   4.448   1.021   4.834
    1PA     C17 7935   4.401   0.921   5.020
    1PA     H7R 7936   4.297   0.948   5.039
    1PA     H7S 7937   4.408   0.815   5.045
    1PA     C16 7938   4.503   1.001   5.103
    1PA     H6R 7939   4.608   0.976   5.087
    1PA     H6S 7940   4.489   1.107   5.080
    1PA     C15 7941   4.477   0.989   5.254
    1PA     H5R 7942   4.369   1.000   5.267
    1PA     H5S 7943   4.504   0.889   5.286
    1PA     C14 7944   4.554   1.099   5.328
    1PA     H4R 7945   4.662   1.085   5.319
    1PA     H4S 7946   4.543   1.199   5.287
    1PA     C13 7947   4.524   1.106   5.479
    1PA     H3R 7948   4.557   1.011   5.522
    1PA     H3S 7949   4.584   1.185   5.525
    1PA     C12 7950   4.375   1.121   5.509
    1PA     H2R 7951   4.330   1.204   5.453
    1PA     H2S 7952   4.318   1.035   5.473
    2PC     C11 7953   4.352   1.127   5.658
    2PC     O12 7954   4.255   1.074   5.710
    2PC     O11 7955   4.432   1.215   5.720
    2PC      C1 7956   4.432   1.237   5.862
    2PC      HR 7957   4.500   1.321   5.878
    2PC      HS 7958   4.330   1.263   5.892
    2PC      C2 7959   4.483   1.113   5.937
    2PC      HX 7960   4.446   1.018   5.896
    2PC      C3 7961   4.454   1.120   6.087
    2PC      HA 7962   4.346   1.113   6.102
    2PC      HB 7963   4.512   1.043   6.138
    2PC     O31 7964   4.484   1.250   6.141
    2PC     P31 7965   4.497   1.283   6.298
    2PC     O32 7966   4.652   1.321   6.304
    2PC     C31 7967   4.748   1.216   6.323
    2PC     H1A 7968   4.742   1.182   6.427
    2PC     H1B 7969   4.738   1.135   6.251
    2PC     C32 7970   4.894   1.261   6.308
    2PC     H2A 7971   4.962   1.179   6.333
    2PC     H2B 7972   4.905   1.302   6.208
    2PC     N31 7973   4.940   1.364   6.407
    2PC     C33 7974   5.076   1.414   6.369
    2PC     H3A 7975   5.083   1.407   6.260
    2PC     H3B 7976   5.085   1.515   6.408
    2PC     H3C 7977   5.145   1.341   6.412
    2PC     C34 7978   4.859   1.490   6.401
    2PC     H4A 7979   4.897   1.565   6.471
    2PC     H4B 7980   4.850   1.517   6.296
    2PC     H4C 7981   4.759   1.475   6.441
    2PC     C35 7982   4.951   1.298   6.541
    2PC     H5A 7983   4.916   1.361   6.623
    2PC     H5B 7984   5.057   1.274   6.555
    2PC     H5C 7985   4.899   1.203   6.535
    2PC     O33 7986   4.411   1.399   6.328
    2PC     O34 7987   4.458   1.167   6.381
    2PC     O21 7988   4.624   1.110   5.911
    2PC     C21 7989   4.686   0.992   5.932
    2PC     O22 7990   4.636   0.897   5.987
    3OL     C12 7991   4.832   0.987   5.891
    3OL     H2R 7992   4.885   1.007   5.984
    3OL     H2S 7993   4.859   1.074   5.832
    3OL     C13 7994   4.877   0.849   5.841
    3OL     H3R 7995   4.835   0.779   5.914
    3OL     H3S 7996   4.986   0.856   5.842
    3OL     C14 7997   4.833   0.813   5.699
    3OL     H4R 7998   4.726   0.831   5.691
    3OL     H4S 7999   4.854   0.707   5.685
    3OL     C15 8000   4.916   0.885   5.591
    3OL     H5R 8001   5.021   0.855   5.593
    3OL     H5S 8002   4.932   0.992   5.603
    3OL     C16 8003   4.861   0.858   5.451
    3OL     H6R 8004   4.767   0.913   5.439
    3OL     H6S 8005   4.860   0.750   5.437
    3OL     C17 8006   4.956   0.920   5.347
    3OL     H7R 8007   4.975   1.023   5.376
    3OL     H7S 8008   4.909   0.923   5.248
    3OL     C18 8009   5.084   0.840   5.322
    3OL     H8R 8010   5.049   0.738   5.302
    3OL     H8S 8011   5.152   0.850   5.407
    3OL     C19 8012   5.166   0.892   5.207
    3OL     H9R 8013   5.145   0.993   5.173
    3OL    C110 8014   5.234   0.815   5.123
    3OL    H10R 8015   5.285   0.864   5.041
    3OL    C111 8016   5.261   0.667   5.130
    3OL    H11R 8017   5.239   0.623   5.228
    3OL    H11S 8018   5.368   0.650   5.130
    3OL    C112 8019   5.196   0.598   5.009
    3OL    H12R 8020   5.087   0.606   5.014
    3OL    H12S 8021   5.220   0.492   5.018
    3OL    C113 8022   5.264   0.641   4.879
    3OL    H13R 8023   5.372   0.636   4.890
    3OL    H13S 8024   5.240   0.745   4.855
    3OL    C114 8025   5.219   0.546   4.767
    3OL    H14R 8026   5.110   0.549   4.756
    3OL    H14S 8027   5.249   0.446   4.797
    3OL    C115 8028   5.280   0.581   4.630
    3OL    H15R 8029   5.388   0.577   4.618
    3OL    H15S 8030   5.257   0.687   4.614
    3OL    C116 8031   5.212   0.507   4.513
    3OL    H16R 8032   5.107   0.535   4.509
    3OL    H16S 8033   5.224   0.399   4.508
    3OL    C117 8034   5.269   0.564   4.382
    3OL    H17R 8035   5.377   0.548   4.386
    3OL    H17S 8036   5.245   0.670   4.391
    3OL    C118 8037   5.215   0.494   4.257
    3OL    H18R 8038   5.295   0.446   4.200
    3OL    H18S 8039   5.164   0.564   4.190
    3OL    H18T 8040   5.140   0.417   4.276
    1PA    C116 8041   4.228  -0.037   3.957
    1PA    H16R 8042   4.166  -0.058   3.869
    1PA    H16S 8043   4.264  -0.134   3.992
    1PA    H16T 8044   4.311   0.032   3.942
    1PA    C115 8045   4.136   0.014   4.069
    1PA    H15R 8046   4.087   0.106   4.035
    1PA    H15S 8047   4.062  -0.065   4.080
    1PA    C114 8048   4.213   0.051   4.197
    1PA    H14R 8049   4.270  -0.033   4.236
    1PA    H14S 8050   4.279   0.136   4.176
    1PA    C113 8051   4.112   0.095   4.304
    1PA    H13R 8052   4.055   0.184   4.274
    1PA    H13S 8053   4.041   0.015   4.322
    1PA    C112 8054   4.178   0.120   4.441
    1PA    H12R 8055   4.271   0.065   4.454
    1PA    H12S 8056   4.206   0.225   4.457
    1PA    C111 8057   4.085   0.090   4.559
    1PA    H11R 8058   4.063  -0.016   4.566
    1PA    H11S 8059   4.144   0.106   4.650
    1PA    C110 8060   3.960   0.179   4.573
    1PA    H10R 8061   4.006   0.278   4.571
    1PA    H10S 8062   3.901   0.167   4.482
    1PA     C19 8063   3.875   0.160   4.699
    1PA     H9R 8064   3.769   0.182   4.685
    1PA     H9S 8065   3.879   0.055   4.730
    1PA     C18 8066   3.926   0.248   4.814
    1PA     H8R 8067   4.028   0.231   4.851
    1PA     H8S 8068   3.923   0.355   4.792
    1PA     C17 8069   3.838   0.222   4.937
    1PA     H7R 8070   3.734   0.247   4.916
    1PA     H7S 8071   3.851   0.115   4.954
    1PA     C16 8072   3.878   0.303   5.062
    1PA     H6R 8073   3.982   0.269   5.065
    1PA     H6S 8074   3.874   0.411   5.041
    1PA     C15 8075   3.801   0.266   5.189
    1PA     H5R 8076   3.698   0.290   5.165
    1PA     H5S 8077   3.809   0.160   5.214
    1PA     C14 8078   3.837   0.352   5.311
    1PA     H4R 8079   3.921   0.308   5.365
    1PA     H4S 8080   3.863   0.451   5.275
    1PA     C13 8081   3.719   0.370   5.408
    1PA     H3R 8082   3.628   0.403   5.358
    1PA     H3S 8083   3.696   0.272   5.450
    1PA     C12 8084   3.743   0.476   5.516
    1PA     H2R 8085   3.834   0.453   5.572
    1PA     H2S 8086   3.763   0.574   5.471
    2PC     C11 8087   3.626   0.480   5.612
    2PC     O12 8088   3.605   0.394   5.696
    2PC     O11 8089   3.546   0.585   5.589
    2PC      C1 8090   3.450   0.617   5.691
    2PC      HR 8091   3.367   0.547   5.684
    2PC      HS 8092   3.501   0.605   5.787
    2PC      C2 8093   3.398   0.761   5.673
    2PC      HX 8094   3.478   0.827   5.637
    2PC      C3 8095   3.324   0.819   5.794
    2PC      HA 8096   3.400   0.817   5.872
    2PC      HB 8097   3.274   0.915   5.781
    2PC     O31 8098   3.221   0.727   5.836
    2PC     P31 8099   3.132   0.770   5.962
    2PC     O32 8100   3.013   0.847   5.887
    2PC     C31 8101   2.885   0.848   5.953
    2PC     H1A 8102   2.861   0.742   5.966
    2PC     H1B 8103   2.894   0.899   6.049
    2PC     C32 8104   2.781   0.919   5.865
    2PC     H2A 8105   2.680   0.903   5.904
    2PC     H2B 8106   2.821   1.019   5.849
    2PC     N31 8107   2.762   0.868   5.725
    2PC     C33 8108   2.643   0.936   5.665
    2PC     H3A 8109   2.553   0.896   5.713
    2PC     H3B 8110   2.661   1.043   5.678
    2PC     H3C 8111   2.646   0.920   5.558
    2PC     C34 8112   2.877   0.906   5.636
    2PC     H4A 8113   2.857   0.857   5.541
    2PC     H4B 8114   2.865   1.012   5.614
    2PC     H4C 8115   2.972   0.884   5.685
    2PC     C35 8116   2.733   0.721   5.716
    2PC     H5A 8117   2.806   0.682   5.786
    2PC     H5B 8118   2.751   0.678   5.617
    2PC     H5C 8119   2.628   0.711   5.743
    2PC     O33 8120   3.096   0.643   6.028
    2PC     O34 8121   3.202   0.864   6.053
    2PC     O21 8122   3.310   0.758   5.559
    2PC     C21 8123   3.274   0.874   5.501
    2PC     O22 8124   3.298   0.981   5.554
    3OL     C12 8125   3.196   0.870   5.372
    3OL     H2R 8126   3.098   0.829   5.400
    3OL     H2S 8127   3.255   0.805   5.307
    3OL     C13 8128   3.177   1.011   5.315
    3OL     H3R 8129   3.274   1.043   5.278
    3OL     H3S 8130   3.138   1.078   5.393
    3OL     C14 8131   3.082   1.014   5.195
    3OL     H4R 8132   2.983   0.978   5.224
    3OL     H4S 8133   3.122   0.942   5.123
    3OL     C15 8134   3.066   1.148   5.121
    3OL     H5R 8135   3.010   1.229   5.169
    3OL     H5S 8136   3.016   1.122   5.028
    3OL     C16 8137   3.202   1.206   5.081
    3OL     H6R 8138   3.255   1.132   5.021
    3OL     H6S 8139   3.268   1.238   5.162
    3OL     C17 8140   3.183   1.319   4.979
    3OL     H7R 8141   3.129   1.401   5.028
    3OL     H7S 8142   3.123   1.288   4.893
    3OL     C18 8143   3.316   1.360   4.916
    3OL     H8R 8144   3.370   1.274   4.876
    3OL     H8S 8145   3.385   1.403   4.989
    3OL     C19 8146   3.283   1.448   4.798
    3OL     H9R 8147   3.248   1.390   4.713
    3OL    C110 8148   3.301   1.579   4.790
    3OL    H10R 8149   3.277   1.629   4.696
    3OL    C111 8150   3.356   1.666   4.900
    3OL    H11R 8151   3.462   1.678   4.880
    3OL    H11S 8152   3.349   1.629   5.003
    3OL    C112 8153   3.276   1.797   4.900
    3OL    H12R 8154   3.261   1.829   4.797
    3OL    H12S 8155   3.335   1.876   4.948
    3OL    C113 8156   3.135   1.792   4.959
    3OL    H13R 8157   3.086   1.702   4.922
    3OL    H13S 8158   3.080   1.879   4.921
    3OL    C114 8159   3.129   1.801   5.113
    3OL    H14R 8160   3.180   1.893   5.140
    3OL    H14S 8161   3.188   1.719   5.155
    3OL    C115 8162   2.990   1.813   5.176
    3OL    H15R 8163   2.932   1.891   5.127
    3OL    H15S 8164   2.994   1.842   5.282
    3OL    C116 8165   2.917   1.680   5.154
    3OL    H16R 8166   2.983   1.604   5.196
    3OL    H16S 8167   2.905   1.663   5.047
    3OL    C117 8168   2.774   1.668   5.210
    3OL    H17R 8169   2.768   1.685   5.317
    3OL    H17S 8170   2.734   1.569   5.186
    3OL    C118 8171   2.689   1.770   5.134
    3OL    H18R 8172   2.583   1.772   5.161
    3OL    H18S 8173   2.702   1.733   5.032
    3OL    H18T 8174   2.720   1.875   5.141
    1PA    C116 8175   6.336   2.078   4.181
    1PA    H16R 8176   6.327   2.016   4.271
    1PA    H16S 8177   6.433   2.059   4.134
    1PA    H16T 8178   6.267   2.046   4.102
    1PA    C115 8179   6.312   2.226   4.214
    1PA    H15R 8180   6.365   2.261   4.303
    1PA    H15S 8181   6.350   2.295   4.138
    1PA    C114 8182   6.163   2.254   4.232
    1PA    H14R 8183   6.131   2.358   4.221
    1PA    H14S 8184   6.108   2.201   4.153
    1PA    C113 8185   6.123   2.199   4.370
    1PA    H13R 8186   6.129   2.091   4.352
    1PA    H13S 8187   6.193   2.228   4.448
    1PA    C112 8188   5.977   2.232   4.403
    1PA    H12R 8189   5.968   2.340   4.392
    1PA    H12S 8190   5.916   2.192   4.322
    1PA    C111 8191   5.926   2.169   4.534
    1PA    H11R 8192   5.918   2.062   4.513
    1PA    H11S 8193   5.998   2.189   4.613
    1PA    C110 8194   5.793   2.223   4.590
    1PA    H10R 8195   5.789   2.329   4.568
    1PA    H10S 8196   5.710   2.172   4.540
    1PA     C19 8197   5.781   2.183   4.738
    1PA     H9R 8198   5.769   2.075   4.732
    1PA     H9S 8199   5.877   2.211   4.782
    1PA     C18 8200   5.660   2.229   4.820
    1PA     H8R 8201   5.646   2.337   4.812
    1PA     H8S 8202   5.570   2.172   4.794
    1PA     C17 8203   5.692   2.192   4.965
    1PA     H7R 8204   5.717   2.086   4.969
    1PA     H7S 8205   5.784   2.239   5.004
    1PA     C16 8206   5.568   2.228   5.048
    1PA     H6R 8207   5.534   2.331   5.041
    1PA     H6S 8208   5.483   2.169   5.012
    1PA     C15 8209   5.594   2.179   5.191
    1PA     H5R 8210   5.618   2.073   5.193
    1PA     H5S 8211   5.670   2.234   5.248
    1PA     C14 8212   5.458   2.193   5.260
    1PA     H4R 8213   5.419   2.293   5.240
    1PA     H4S 8214   5.394   2.111   5.226
    1PA     C13 8215   5.479   2.188   5.412
    1PA     H3R 8216   5.516   2.088   5.437
    1PA     H3S 8217   5.556   2.259   5.441
    1PA     C12 8218   5.351   2.212   5.494
    1PA     H2R 8219   5.321   2.314   5.470
    1PA     H2S 8220   5.263   2.156   5.460
    2PC     C11 8221   5.383   2.196   5.640
    2PC     O12 8222   5.339   2.109   5.713
    2PC     O11 8223   5.471   2.289   5.681
    2PC      C1 8224   5.548   2.296   5.802
    2PC      HR 8225   5.605   2.388   5.815
    2PC      HS 8226   5.486   2.274   5.890
    2PC      C2 8227   5.642   2.174   5.796
    2PC      HX 8228   5.580   2.084   5.790
    2PC      C3 8229   5.739   2.166   5.914
    2PC      HA 8230   5.689   2.190   6.008
    2PC      HB 8231   5.784   2.066   5.920
    2PC     O31 8232   5.831   2.277   5.914
    2PC     P31 8233   5.961   2.277   6.007
    2PC     O32 8234   5.927   2.405   6.097
    2PC     C31 8235   5.994   2.435   6.220
    2PC     H1A 8236   5.978   2.359   6.298
    2PC     H1B 8237   6.100   2.447   6.199
    2PC     C32 8238   5.949   2.575   6.263
    2PC     H2A 8239   5.960   2.646   6.182
    2PC     H2B 8240   5.844   2.570   6.291
    2PC     N31 8241   6.016   2.639   6.381
    2PC     C33 8242   6.142   2.705   6.335
    2PC     H3A 8243   6.204   2.730   6.421
    2PC     H3B 8244   6.200   2.638   6.271
    2PC     H3C 8245   6.121   2.797   6.280
    2PC     C34 8246   5.918   2.738   6.437
    2PC     H4A 8247   5.953   2.776   6.533
    2PC     H4B 8248   5.916   2.825   6.371
    2PC     H4C 8249   5.815   2.701   6.434
    2PC     C35 8250   6.038   2.531   6.482
    2PC     H5A 8251   6.109   2.461   6.437
    2PC     H5B 8252   5.943   2.491   6.516
    2PC     H5C 8253   6.091   2.578   6.565
    2PC     O33 8254   5.979   2.166   6.104
    2PC     O34 8255   6.088   2.278   5.929
    2PC     O21 8256   5.718   2.200   5.677
    2PC     C21 8257   5.742   2.091   5.603
    2PC     O22 8258   5.696   1.980   5.619
    3OL     C12 8259   5.832   2.119   5.485
    3OL     H2R 8260   5.880   2.217   5.493
    3OL     H2S 8261   5.763   2.129   5.400
    3OL     C13 8262   5.946   2.016   5.492
    3OL     H3R 8263   5.919   1.915   5.525
    3OL     H3S 8264   6.013   2.038   5.575
    3OL     C14 8265   6.026   1.999   5.362
    3OL     H4R 8266   6.132   1.980   5.379
    3OL     H4S 8267   6.027   2.097   5.313
    3OL     C15 8268   5.957   1.903   5.265
    3OL     H5R 8269   5.851   1.926   5.252
    3OL     H5S 8270   5.963   1.805   5.313
    3OL     C16 8271   6.028   1.906   5.129
    3OL     H6R 8272   6.121   1.851   5.144
    3OL     H6S 8273   6.045   2.011   5.103
    3OL     C17 8274   5.936   1.831   5.031
    3OL     H7R 8275   5.851   1.897   5.012
    3OL     H7S 8276   5.906   1.736   5.075
    3OL     C18 8277   6.012   1.800   4.901
    3OL     H8R 8278   5.956   1.731   4.837
    3OL     H8S 8279   6.110   1.760   4.924
    3OL     C19 8280   6.029   1.927   4.821
    3OL     H9R 8281   6.010   2.021   4.872
    3OL    C110 8282   6.087   1.932   4.702
    3OL    H10R 8283   6.117   2.031   4.667
    3OL    C111 8284   6.134   1.813   4.623
    3OL    H11R 8285   6.069   1.809   4.535
    3OL    H11S 8286   6.112   1.721   4.675
    3OL    C112 8287   6.280   1.815   4.574
    3OL    H12R 8288   6.309   1.914   4.537
    3OL    H12S 8289   6.282   1.743   4.491
    3OL    C113 8290   6.357   1.780   4.702
    3OL    H13R 8291   6.306   1.820   4.789
    3OL    H13S 8292   6.459   1.816   4.711
    3OL    C114 8293   6.379   1.629   4.721
    3OL    H14R 8294   6.423   1.595   4.627
    3OL    H14S 8295   6.283   1.579   4.732
    3OL    C115 8296   6.465   1.599   4.845
    3OL    H15R 8297   6.556   1.657   4.858
    3OL    H15S 8298   6.497   1.495   4.834
    3OL    C116 8299   6.382   1.610   4.974
    3OL    H16R 8300   6.279   1.575   4.968
    3OL    H16S 8301   6.364   1.713   5.005
    3OL    C117 8302   6.451   1.534   5.089
    3OL    H17R 8303   6.547   1.582   5.109
    3OL    H17S 8304   6.471   1.430   5.063
    3OL    C118 8305   6.368   1.537   5.218
    3OL    H18R 8306   6.282   1.471   5.204
    3OL    H18S 8307   6.330   1.637   5.238
    3OL    H18T 8308   6.422   1.496   5.303
    1PA    C116 8309   3.758   1.850   4.080
    1PA    H16R 8310   3.710   1.946   4.065
    1PA    H16S 8311   3.691   1.792   4.145
    1PA    H16T 8312   3.772   1.794   3.987
    1PA    C115 8313   3.895   1.861   4.149
    1PA    H15R 8314   3.939   1.762   4.166
    1PA    H15S 8315   3.959   1.916   4.080
    1PA    C114 8316   3.892   1.957   4.269
    1PA    H14R 8317   3.853   2.056   4.244
    1PA    H14S 8318   3.814   1.919   4.335
    1PA    C113 8319   4.026   1.953   4.345
    1PA    H13R 8320   4.060   1.853   4.372
    1PA    H13S 8321   4.105   1.980   4.275
    1PA    C112 8322   4.016   2.056   4.458
    1PA    H12R 8323   3.988   2.153   4.418
    1PA    H12S 8324   3.941   2.026   4.532
    1PA    C111 8325   4.152   2.063   4.529
    1PA    H11R 8326   4.164   1.971   4.587
    1PA    H11S 8327   4.225   2.050   4.448
    1PA    C110 8328   4.157   2.185   4.621
    1PA    H10R 8329   4.100   2.268   4.579
    1PA    H10S 8330   4.093   2.155   4.705
    1PA     C19 8331   4.296   2.225   4.671
    1PA     H9R 8332   4.335   2.144   4.734
    1PA     H9S 8333   4.357   2.232   4.580
    1PA     C18 8334   4.300   2.352   4.757
    1PA     H8R 8335   4.403   2.377   4.780
    1PA     H8S 8336   4.253   2.442   4.715
    1PA     C17 8337   4.241   2.340   4.898
    1PA     H7R 8338   4.230   2.442   4.934
    1PA     H7S 8339   4.141   2.296   4.895
    1PA     C16 8340   4.318   2.255   5.000
    1PA     H6R 8341   4.267   2.266   5.096
    1PA     H6S 8342   4.321   2.150   4.972
    1PA     C15 8343   4.462   2.301   5.028
    1PA     H5R 8344   4.517   2.277   4.937
    1PA     H5S 8345   4.469   2.402   5.068
    1PA     C14 8346   4.527   2.203   5.127
    1PA     H4R 8347   4.519   2.101   5.090
    1PA     H4S 8348   4.632   2.235   5.123
    1PA     C13 8349   4.471   2.209   5.270
    1PA     H3R 8350   4.469   2.314   5.300
    1PA     H3S 8351   4.367   2.176   5.275
    1PA     C12 8352   4.564   2.134   5.367
    1PA     H2R 8353   4.564   2.029   5.337
    1PA     H2S 8354   4.667   2.169   5.371
    2PC     C11 8355   4.506   2.147   5.506
    2PC     O12 8356   4.404   2.207   5.533
    2PC     O11 8357   4.577   2.084   5.601
    2PC      C1 8358   4.528   2.064   5.735
    2PC      HR 8359   4.610   2.032   5.799
    2PC      HS 8360   4.483   2.156   5.774
    2PC      C2 8361   4.423   1.952   5.724
    2PC      HX 8362   4.347   1.966   5.647
    2PC      C3 8363   4.341   1.936   5.853
    2PC      HA 8364   4.412   1.897   5.926
    2PC      HB 8365   4.300   2.029   5.891
    2PC     O31 8366   4.235   1.845   5.819
    2PC     P31 8367   4.131   1.792   5.928
    2PC     O32 8368   4.143   1.635   5.900
    2PC     C31 8369   4.262   1.560   5.930
    2PC     H1A 8370   4.284   1.482   5.856
    2PC     H1B 8371   4.352   1.622   5.932
    2PC     C32 8372   4.240   1.498   6.069
    2PC     H2A 8373   4.328   1.443   6.102
    2PC     H2B 8374   4.245   1.573   6.148
    2PC     N31 8375   4.114   1.421   6.097
    2PC     C33 8376   4.015   1.511   6.165
    2PC     H3A 8377   4.062   1.551   6.255
    2PC     H3B 8378   3.988   1.589   6.094
    2PC     H3C 8379   3.927   1.452   6.191
    2PC     C34 8380   4.042   1.365   5.978
    2PC     H4A 8381   4.028   1.447   5.908
    2PC     H4B 8382   4.100   1.286   5.930
    2PC     H4C 8383   3.943   1.332   6.009
    2PC     C35 8384   4.137   1.313   6.197
    2PC     H5A 8385   4.181   1.355   6.288
    2PC     H5B 8386   4.216   1.253   6.152
    2PC     H5C 8387   4.045   1.260   6.222
    2PC     O33 8388   4.190   1.827   6.059
    2PC     O34 8389   3.998   1.858   5.939
    2PC     O21 8390   4.493   1.828   5.704
    2PC     C21 8391   4.492   1.786   5.577
    2PC     O22 8392   4.454   1.841   5.475
    3OL     C12 8393   4.556   1.650   5.567
    3OL     H2R 8394   4.480   1.573   5.581
    3OL     H2S 8395   4.620   1.651   5.656
    3OL     C13 8396   4.630   1.618   5.437
    3OL     H3R 8397   4.702   1.539   5.456
    3OL     H3S 8398   4.689   1.703   5.404
    3OL     C14 8399   4.540   1.569   5.322
    3OL     H4R 8400   4.454   1.634   5.303
    3OL     H4S 8401   4.496   1.474   5.354
    3OL     C15 8402   4.617   1.545   5.192
    3OL     H5R 8403   4.575   1.459   5.140
    3OL     H5S 8404   4.722   1.521   5.211
    3OL     C16 8405   4.625   1.664   5.095
    3OL     H6R 8406   4.707   1.647   5.025
    3OL     H6S 8407   4.659   1.753   5.150
    3OL     C17 8408   4.491   1.687   5.025
    3OL     H7R 8409   4.414   1.701   5.101
    3OL     H7S 8410   4.472   1.608   4.952
    3OL     C18 8411   4.485   1.821   4.950
    3OL     H8R 8412   4.564   1.816   4.875
    3OL     H8S 8413   4.507   1.909   5.010
    3OL     C19 8414   4.343   1.834   4.900
    3OL     H9R 8415   4.269   1.868   4.972
    3OL    C110 8416   4.305   1.802   4.778
    3OL    H10R 8417   4.201   1.820   4.750
    3OL    C111 8418   4.392   1.746   4.668
    3OL    H11R 8419   4.343   1.660   4.621
    3OL    H11S 8420   4.477   1.693   4.710
    3OL    C112 8421   4.444   1.844   4.562
    3OL    H12R 8422   4.549   1.867   4.582
    3OL    H12S 8423   4.397   1.942   4.569
    3OL    C113 8424   4.444   1.786   4.420
    3OL    H13R 8425   4.342   1.782   4.381
    3OL    H13S 8426   4.477   1.682   4.413
    3OL    C114 8427   4.533   1.869   4.327
    3OL    H14R 8428   4.633   1.869   4.370
    3OL    H14S 8429   4.512   1.976   4.315
    3OL    C115 8430   4.544   1.809   4.186
    3OL    H15R 8431   4.447   1.810   4.135
    3OL    H15S 8432   4.588   1.710   4.195
    3OL    C116 8433   4.635   1.896   4.097
    3OL    H16R 8434   4.730   1.910   4.150
    3OL    H16S 8435   4.585   1.992   4.085
    3OL    C117 8436   4.659   1.837   3.957
    3OL    H17R 8437   4.565   1.845   3.902
    3OL    H17S 8438   4.694   1.734   3.965
    3OL    C118 8439   4.763   1.922   3.884
    3OL    H18R 8440   4.743   2.028   3.866
    3OL    H18S 8441   4.751   1.888   3.780
    3OL    H18T 8442   4.868   1.911   3.910
    1PA    C116 8443   4.483   1.386   4.574
    1PA    H16R 8444   4.490   1.492   4.550
    1PA    H16S 8445   4.376   1.365   4.577
    1PA    H16T 8446   4.540   1.338   4.494
    1PA    C115 8447   4.549   1.358   4.710
    1PA    H15R 8448   4.509   1.422   4.789
    1PA    H15S 8449   4.543   1.253   4.738
    1PA    C114 8450   4.699   1.389   4.720
    1PA    H14R 8451   4.746   1.316   4.654
    1PA    H14S 8452   4.724   1.490   4.686
    1PA    C113 8453   4.751   1.367   4.863
    1PA    H13R 8454   4.695   1.427   4.934
    1PA    H13S 8455   4.739   1.265   4.899
    1PA    C112 8456   4.900   1.404   4.877
    1PA    H12R 8457   4.960   1.348   4.805
    1PA    H12S 8458   4.916   1.511   4.864
    1PA    C111 8459   4.927   1.370   5.024
    1PA    H11R 8460   4.843   1.401   5.087
    1PA    H11S 8461   4.941   1.261   5.028
    1PA    C110 8462   5.053   1.445   5.070
    1PA    H10R 8463   5.130   1.430   4.995
    1PA    H10S 8464   5.016   1.547   5.056
    1PA     C19 8465   5.105   1.430   5.213
    1PA     H9R 8466   5.142   1.328   5.228
    1PA     H9S 8467   5.186   1.501   5.235
    1PA     C18 8468   4.998   1.457   5.320
    1PA     H8R 8469   4.967   1.560   5.302
    1PA     H8S 8470   4.909   1.396   5.305
    1PA     C17 8471   5.057   1.429   5.459
    1PA     H7R 8472   5.074   1.321   5.464
    1PA     H7S 8473   5.157   1.472   5.466
    1PA     C16 8474   4.973   1.469   5.581
    1PA     H6R 8475   5.038   1.496   5.664
    1PA     H6S 8476   4.917   1.561   5.560
    1PA     C15 8477   4.881   1.351   5.614
    1PA     H5R 8478   4.807   1.327   5.536
    1PA     H5S 8479   4.948   1.272   5.647
    1PA     C14 8480   4.789   1.382   5.732
    1PA     H4R 8481   4.743   1.480   5.723
    1PA     H4S 8482   4.709   1.307   5.739
    1PA     C13 8483   4.866   1.383   5.865
    1PA     H3R 8484   4.893   1.280   5.886
    1PA     H3S 8485   4.956   1.444   5.858
    1PA     C12 8486   4.782   1.419   5.989
    1PA     H2R 8487   4.714   1.339   6.018
    1PA     H2S 8488   4.847   1.432   6.076
    2PC     C11 8489   4.706   1.549   5.983
    2PC     O12 8490   4.588   1.563   5.958
    2PC     O11 8491   4.784   1.657   6.000
    2PC      C1 8492   4.728   1.786   6.027
    2PC      HR 8493   4.637   1.799   5.967
    2PC      HS 8494   4.701   1.786   6.133
    2PC      C2 8495   4.832   1.897   6.009
    2PC      HX 8496   4.930   1.856   6.034
    2PC      C3 8497   4.809   2.031   6.080
    2PC      HA 8498   4.812   2.023   6.189
    2PC      HB 8499   4.871   2.116   6.049
    2PC     O31 8500   4.671   2.065   6.062
    2PC     P31 8501   4.618   2.205   6.120
    2PC     O32 8502   4.670   2.198   6.271
    2PC     C31 8503   4.574   2.147   6.366
    2PC     H1A 8504   4.491   2.212   6.394
    2PC     H1B 8505   4.527   2.061   6.317
    2PC     C32 8506   4.656   2.103   6.488
    2PC     H2A 8507   4.592   2.044   6.553
    2PC     H2B 8508   4.740   2.041   6.456
    2PC     N31 8509   4.712   2.211   6.575
    2PC     C33 8510   4.601   2.298   6.628
    2PC     H3A 8511   4.557   2.354   6.545
    2PC     H3B 8512   4.537   2.243   6.696
    2PC     H3C 8513   4.649   2.369   6.696
    2PC     C34 8514   4.773   2.155   6.700
    2PC     H4A 8515   4.837   2.237   6.730
    2PC     H4B 8516   4.701   2.120   6.774
    2PC     H4C 8517   4.839   2.069   6.686
    2PC     C35 8518   4.810   2.295   6.499
    2PC     H5A 8519   4.908   2.246   6.491
    2PC     H5B 8520   4.815   2.387   6.557
    2PC     H5C 8521   4.760   2.316   6.405
    2PC     O33 8522   4.679   2.320   6.050
    2PC     O34 8523   4.472   2.226   6.112
    2PC     O21 8524   4.832   1.916   5.866
    2PC     C21 8525   4.908   1.844   5.782
    2PC     O22 8526   4.990   1.762   5.818
    3OL     C12 8527   4.887   1.885   5.638
    3OL     H2R 8528   4.877   1.993   5.640
    3OL     H2S 8529   4.797   1.835   5.602
    3OL     C13 8530   5.007   1.853   5.548
    3OL     H3R 8531   5.022   1.745   5.554
    3OL     H3S 8532   5.098   1.900   5.586
    3OL     C14 8533   4.980   1.897   5.404
    3OL     H4R 8534   4.956   2.003   5.400
    3OL     H4S 8535   4.897   1.842   5.357
    3OL     C15 8536   5.094   1.878   5.303
    3OL     H5R 8537   5.127   1.774   5.306
    3OL     H5S 8538   5.175   1.942   5.337
    3OL     C16 8539   5.041   1.916   5.164
    3OL     H6R 8540   5.012   2.021   5.160
    3OL     H6S 8541   4.941   1.878   5.143
    3OL     C17 8542   5.150   1.873   5.065
    3OL     H7R 8543   5.160   1.764   5.067
    3OL     H7S 8544   5.249   1.901   5.104
    3OL     C18 8545   5.112   1.907   4.920
    3OL     H8R 8546   5.200   1.873   4.864
    3OL     H8S 8547   5.119   2.015   4.908
    3OL     C19 8548   4.986   1.835   4.881
    3OL     H9R 8549   4.997   1.730   4.856
    3OL    C110 8550   4.868   1.895   4.879
    3OL    H10R 8551   4.777   1.844   4.847
    3OL    C111 8552   4.849   2.042   4.902
    3OL    H11R 8553   4.940   2.090   4.940
    3OL    H11S 8554   4.777   2.054   4.983
    3OL    C112 8555   4.818   2.126   4.777
    3OL    H12R 8556   4.909   2.136   4.717
    3OL    H12S 8557   4.787   2.226   4.807
    3OL    C113 8558   4.707   2.067   4.690
    3OL    H13R 8559   4.615   2.078   4.747
    3OL    H13S 8560   4.725   1.964   4.659
    3OL    C114 8561   4.680   2.164   4.574
    3OL    H14R 8562   4.687   2.265   4.614
    3OL    H14S 8563   4.575   2.157   4.546
    3OL    C115 8564   4.781   2.145   4.460
    3OL    H15R 8565   4.765   2.039   4.436
    3OL    H15S 8566   4.886   2.149   4.490
    3OL    C116 8567   4.742   2.229   4.337
    3OL    H16R 8568   4.733   2.337   4.352
    3OL    H16S 8569   4.647   2.191   4.300
    3OL    C117 8570   4.846   2.203   4.227
    3OL    H17R 8571   4.843   2.097   4.203
    3OL    H17S 8572   4.943   2.235   4.264
    3OL    C118 8573   4.817   2.278   4.096
    3OL    H18R 8574   4.711   2.270   4.073
    3OL    H18S 8575   4.863   2.225   4.013
    3OL    H18T 8576   4.846   2.383   4.091
    1PA    C116 8577   7.774   3.850   3.938
    1PA    H16R 8578   7.841   3.814   3.859
    1PA    H16S 8579   7.836   3.870   4.026
    1PA    H16T 8580   7.736   3.946   3.902
    1PA    C115 8581   7.651   3.766   3.976
    1PA    H15R 8582   7.677   3.661   3.981
    1PA    H15S 8583   7.608   3.804   4.068
    1PA    C114 8584   7.541   3.771   3.869
    1PA    H14R 8585   7.578   3.731   3.774
    1PA    H14S 8586   7.472   3.692   3.898
    1PA    C113 8587   7.465   3.902   3.844
    1PA    H13R 8588   7.407   3.932   3.932
    1PA    H13S 8589   7.540   3.980   3.829
    1PA    C112 8590   7.378   3.888   3.718
    1PA    H12R 8591   7.439   3.852   3.636
    1PA    H12S 8592   7.288   3.830   3.741
    1PA    C111 8593   7.329   4.030   3.686
    1PA    H11R 8594   7.274   4.071   3.771
    1PA    H11S 8595   7.410   4.103   3.680
    1PA    C110 8596   7.233   4.029   3.567
    1PA    H10R 8597   7.269   3.964   3.487
    1PA    H10S 8598   7.139   3.983   3.598
    1PA     C19 8599   7.186   4.167   3.517
    1PA     H9R 8600   7.122   4.215   3.592
    1PA     H9S 8601   7.271   4.233   3.500
    1PA     C18 8602   7.119   4.166   3.379
    1PA     H8R 8603   7.186   4.115   3.310
    1PA     H8S 8604   7.032   4.100   3.377
    1PA     C17 8605   7.091   4.303   3.315
    1PA     H7R 8606   7.042   4.367   3.387
    1PA     H7S 8607   7.183   4.355   3.287
    1PA     C16 8608   7.010   4.285   3.186
    1PA     H6R 8609   7.006   4.377   3.127
    1PA     H6S 8610   7.056   4.208   3.124
    1PA     C15 8611   6.863   4.250   3.214
    1PA     H5R 8612   6.830   4.206   3.120
    1PA     H5S 8613   6.849   4.165   3.281
    1PA     C14 8614   6.783   4.377   3.247
    1PA     H4R 8615   6.706   4.346   3.317
    1PA     H4S 8616   6.850   4.441   3.305
    1PA     C13 8617   6.728   4.458   3.129
    1PA     H3R 8618   6.705   4.558   3.166
    1PA     H3S 8619   6.798   4.464   3.045
    1PA     C12 8620   6.594   4.413   3.069
    1PA     H2R 8621   6.600   4.305   3.057
    1PA     H2S 8622   6.519   4.432   3.146
    2PC     C11 8623   6.551   4.465   2.934
    2PC     O12 8624   6.632   4.504   2.852
    2PC     O11 8625   6.417   4.459   2.922
    2PC      C1 8626   6.359   4.520   2.806
    2PC      HR 8627   6.401   4.619   2.785
    2PC      HS 8628   6.392   4.460   2.721
    2PC      C2 8629   6.206   4.532   2.814
    2PC      HX 8630   6.165   4.455   2.880
    2PC      C3 8631   6.146   4.514   2.674
    2PC      HA 8632   6.037   4.523   2.667
    2PC      HB 8633   6.177   4.416   2.637
    2PC     O31 8634   6.205   4.619   2.595
    2PC     P31 8635   6.169   4.616   2.439
    2PC     O32 8636   6.282   4.713   2.381
    2PC     C31 8637   6.258   4.850   2.345
    2PC     H1A 8638   6.149   4.853   2.335
    2PC     H1B 8639   6.278   4.911   2.434
    2PC     C32 8640   6.332   4.881   2.214
    2PC     H2A 8641   6.358   4.987   2.213
    2PC     H2B 8642   6.425   4.827   2.226
    2PC     N31 8643   6.273   4.835   2.084
    2PC     C33 8644   6.274   4.685   2.075
    2PC     H3A 8645   6.181   4.649   2.120
    2PC     H3B 8646   6.273   4.654   1.970
    2PC     H3C 8647   6.364   4.645   2.122
    2PC     C34 8648   6.134   4.884   2.058
    2PC     H4A 8649   6.118   4.992   2.051
    2PC     H4B 8650   6.105   4.831   1.967
    2PC     H4C 8651   6.083   4.849   2.148
    2PC     C35 8652   6.361   4.891   1.977
    2PC     H5A 8653   6.321   4.865   1.879
    2PC     H5B 8654   6.458   4.845   1.999
    2PC     H5C 8655   6.366   4.999   1.984
    2PC     O33 8656   6.147   4.485   2.374
    2PC     O34 8657   6.032   4.668   2.415
    2PC     O21 8658   6.179   4.663   2.867
    2PC     C21 8659   6.052   4.690   2.901
    2PC     O22 8660   5.959   4.612   2.899
    3OL     C12 8661   6.036   4.818   2.980
    3OL     H2R 8662   6.003   4.906   2.923
    3OL     H2S 8663   6.135   4.839   3.021
    3OL     C13 8664   5.941   4.798   3.098
    3OL     H3R 8665   5.978   4.703   3.137
    3OL     H3S 8666   5.836   4.792   3.068
    3OL     C14 8667   5.954   4.904   3.208
    3OL     H4R 8668   5.927   5.006   3.179
    3OL     H4S 8669   6.058   4.911   3.241
    3OL     C15 8670   5.869   4.867   3.331
    3OL     H5R 8671   5.901   4.766   3.359
    3OL     H5S 8672   5.762   4.866   3.307
    3OL     C16 8673   5.889   4.972   3.440
    3OL     H6R 8674   5.851   5.069   3.406
    3OL     H6S 8675   5.995   4.979   3.464
    3OL     C17 8676   5.805   4.945   3.566
    3OL     H7R 8677   5.828   4.846   3.606
    3OL     H7S 8678   5.700   4.970   3.551
    3OL     C18 8679   5.855   5.047   3.670
    3OL     H8R 8680   5.845   5.142   3.618
    3OL     H8S 8681   5.963   5.046   3.685
    3OL     C19 8682   5.783   5.042   3.802
    3OL     H9R 8683   5.818   4.957   3.860
    3OL    C110 8684   5.691   5.124   3.850
    3OL    H10R 8685   5.655   5.102   3.950
    3OL    C111 8686   5.629   5.239   3.774
    3OL    H11R 8687   5.520   5.233   3.775
    3OL    H11S 8688   5.664   5.239   3.671
    3OL    C112 8689   5.667   5.373   3.838
    3OL    H12R 8690   5.775   5.387   3.831
    3OL    H12S 8691   5.648   5.371   3.946
    3OL    C113 8692   5.596   5.488   3.766
    3OL    H13R 8693   5.487   5.474   3.769
    3OL    H13S 8694   5.635   5.483   3.664
    3OL    C114 8695   5.627   5.625   3.828
    3OL    H14R 8696   5.612   5.619   3.936
    3OL    H14S 8697   5.555   5.695   3.785
    3OL    C115 8698   5.767   5.678   3.794
    3OL    H15R 8699   5.777   5.665   3.686
    3OL    H15S 8700   5.846   5.614   3.835
    3OL    C116 8701   5.790   5.819   3.850
    3OL    H16R 8702   5.698   5.877   3.835
    3OL    H16S 8703   5.870   5.870   3.796
    3OL    C117 8704   5.808   5.830   4.002
    3OL    H17R 8705   5.907   5.801   4.037
    3OL    H17S 8706   5.732   5.763   4.044
    3OL    C118 8707   5.789   5.963   4.076
    3OL    H18R 8708   5.816   5.952   4.181
    3OL    H18S 8709   5.684   5.993   4.074
    3OL    H18T 8710   5.856   6.036   4.031
    1PA    C116 8711   0.807   4.373   3.994
    1PA    H16R 8712   0.844   4.343   4.092
    1PA    H16S 8713   0.778   4.285   3.936
    1PA    H16T 8714   0.726   4.446   3.998
    1PA    C115 8715   0.921   4.450   3.925
    1PA    H15R 8716   0.882   4.507   3.840
    1PA    H15S 8717   0.949   4.537   3.985
    1PA    C114 8718   1.039   4.361   3.885
    1PA    H14R 8719   1.082   4.307   3.969
    1PA    H14S 8720   0.998   4.287   3.816
    1PA    C113 8721   1.141   4.451   3.812
    1PA    H13R 8722   1.079   4.503   3.739
    1PA    H13S 8723   1.192   4.526   3.873
    1PA    C112 8724   1.240   4.366   3.732
    1PA    H12R 8725   1.328   4.422   3.699
    1PA    H12S 8726   1.274   4.277   3.785
    1PA    C111 8727   1.181   4.304   3.604
    1PA    H11R 8728   1.238   4.212   3.588
    1PA    H11S 8729   1.077   4.277   3.621
    1PA    C110 8730   1.202   4.398   3.485
    1PA    H10R 8731   1.184   4.498   3.525
    1PA    H10S 8732   1.305   4.416   3.452
    1PA     C19 8733   1.097   4.375   3.375
    1PA     H9R 8734   1.019   4.319   3.426
    1PA     H9S 8735   1.058   4.469   3.334
    1PA     C18 8736   1.134   4.273   3.267
    1PA     H8R 8737   1.177   4.187   3.319
    1PA     H8S 8738   1.047   4.228   3.217
    1PA     C17 8739   1.226   4.328   3.158
    1PA     H7R 8740   1.184   4.414   3.104
    1PA     H7S 8741   1.320   4.355   3.205
    1PA     C16 8742   1.256   4.228   3.046
    1PA     H6R 8743   1.346   4.261   2.994
    1PA     H6S 8744   1.279   4.135   3.099
    1PA     C15 8745   1.144   4.206   2.943
    1PA     H5R 8746   1.054   4.180   2.999
    1PA     H5S 8747   1.116   4.293   2.884
    1PA     C14 8748   1.178   4.091   2.847
    1PA     H4R 8749   1.194   4.004   2.912
    1PA     H4S 8750   1.099   4.068   2.776
    1PA     C13 8751   1.296   4.117   2.752
    1PA     H3R 8752   1.258   4.197   2.687
    1PA     H3S 8753   1.390   4.142   2.802
    1PA     C12 8754   1.322   3.997   2.660
    1PA     H2R 8755   1.344   3.902   2.709
    1PA     H2S 8756   1.236   3.986   2.594
    2PC     C11 8757   1.439   4.031   2.572
    2PC     O12 8758   1.525   3.950   2.543
    2PC     O11 8759   1.442   4.157   2.527
    2PC      C1 8760   1.553   4.188   2.442
    2PC      HR 8761   1.645   4.181   2.501
    2PC      HS 8762   1.560   4.130   2.350
    2PC      C2 8763   1.543   4.338   2.412
    2PC      HX 8764   1.437   4.346   2.388
    2PC      C3 8765   1.632   4.384   2.296
    2PC      HA 8766   1.701   4.463   2.327
    2PC      HB 8767   1.697   4.305   2.258
    2PC     O31 8768   1.553   4.426   2.183
    2PC     P31 8769   1.630   4.494   2.060
    2PC     O32 8770   1.514   4.517   1.953
    2PC     C31 8771   1.545   4.559   1.819
    2PC     H1A 8772   1.586   4.660   1.814
    2PC     H1B 8773   1.615   4.483   1.781
    2PC     C32 8774   1.414   4.554   1.739
    2PC     H2A 8775   1.373   4.453   1.752
    2PC     H2B 8776   1.346   4.630   1.778
    2PC     N31 8777   1.415   4.579   1.592
    2PC     C33 8778   1.469   4.716   1.564
    2PC     H3A 8779   1.399   4.783   1.615
    2PC     H3B 8780   1.569   4.725   1.607
    2PC     H3C 8781   1.456   4.736   1.458
    2PC     C34 8782   1.503   4.481   1.519
    2PC     H4A 8783   1.501   4.398   1.589
    2PC     H4B 8784   1.466   4.462   1.418
    2PC     H4C 8785   1.604   4.522   1.518
    2PC     C35 8786   1.276   4.560   1.539
    2PC     H5A 8787   1.220   4.632   1.598
    2PC     H5B 8788   1.243   4.458   1.556
    2PC     H5C 8789   1.275   4.597   1.436
    2PC     O33 8790   1.687   4.625   2.100
    2PC     O34 8791   1.735   4.404   2.007
    2PC     O21 8792   1.577   4.412   2.531
    2PC     C21 8793   1.532   4.537   2.549
    2PC     O22 8794   1.465   4.601   2.471
    3OL     C12 8795   1.584   4.581   2.684
    3OL     H2R 8796   1.565   4.689   2.691
    3OL     H2S 8797   1.692   4.570   2.669
    3OL     C13 8798   1.531   4.511   2.809
    3OL     H3R 8799   1.548   4.405   2.791
    3OL     H3S 8800   1.424   4.524   2.826
    3OL     C14 8801   1.610   4.565   2.929
    3OL     H4R 8802   1.598   4.673   2.928
    3OL     H4S 8803   1.716   4.536   2.929
    3OL     C15 8804   1.558   4.508   3.063
    3OL     H5R 8805   1.601   4.409   3.079
    3OL     H5S 8806   1.449   4.509   3.058
    3OL     C16 8807   1.614   4.587   3.182
    3OL     H6R 8808   1.563   4.682   3.198
    3OL     H6S 8809   1.720   4.602   3.165
    3OL     C17 8810   1.592   4.523   3.320
    3OL     H7R 8811   1.487   4.507   3.344
    3OL     H7S 8812   1.624   4.590   3.401
    3OL     C18 8813   1.665   4.389   3.333
    3OL     H8R 8814   1.771   4.403   3.311
    3OL     H8S 8815   1.624   4.324   3.254
    3OL     C19 8816   1.627   4.323   3.463
    3OL     H9R 8817   1.523   4.290   3.465
    3OL    C110 8818   1.702   4.285   3.565
    3OL    H10R 8819   1.650   4.233   3.645
    3OL    C111 8820   1.852   4.299   3.573
    3OL    H11R 8821   1.887   4.361   3.656
    3OL    H11S 8822   1.896   4.333   3.479
    3OL    C112 8823   1.911   4.160   3.596
    3OL    H12R 8824   2.008   4.151   3.548
    3OL    H12S 8825   1.857   4.087   3.536
    3OL    C113 8826   1.923   4.128   3.746
    3OL    H13R 8827   1.959   4.026   3.761
    3OL    H13S 8828   1.827   4.132   3.799
    3OL    C114 8829   2.016   4.206   3.840
    3OL    H14R 8830   1.956   4.249   3.921
    3OL    H14S 8831   2.074   4.288   3.798
    3OL    C115 8832   2.123   4.114   3.900
    3OL    H15R 8833   2.212   4.172   3.927
    3OL    H15S 8834   2.165   4.041   3.830
    3OL    C116 8835   2.072   4.040   4.024
    3OL    H16R 8836   1.980   3.982   4.012
    3OL    H16S 8837   2.035   4.119   4.091
    3OL    C117 8838   2.171   3.950   4.098
    3OL    H17R 8839   2.198   3.864   4.036
    3OL    H17S 8840   2.121   3.909   4.186
    3OL    C118 8841   2.293   4.033   4.140
    3OL    H18R 8842   2.261   4.118   4.202
    3OL    H18S 8843   2.348   4.075   4.056
    3OL    H18T 8844   2.353   3.970   4.205
    1PA    C116 8845   1.260   6.050   3.821
    1PA    H16R 8846   1.167   6.079   3.772
    1PA    H16S 8847   1.315   6.130   3.872
    1PA    H16T 8848   1.225   5.974   3.891
    1PA    C115 8849   1.357   5.984   3.723
    1PA    H15R 8850   1.447   5.948   3.774
    1PA    H15S 8851   1.309   5.894   3.683
    1PA    C114 8852   1.393   6.089   3.617
    1PA    H14R 8853   1.432   6.036   3.529
    1PA    H14S 8854   1.300   6.138   3.590
    1PA    C113 8855   1.493   6.196   3.663
    1PA    H13R 8856   1.493   6.277   3.591
    1PA    H13S 8857   1.458   6.244   3.755
    1PA    C112 8858   1.642   6.168   3.688
    1PA    H12R 8859   1.692   6.262   3.712
    1PA    H12S 8860   1.659   6.105   3.776
    1PA    C111 8861   1.714   6.109   3.566
    1PA    H11R 8862   1.677   6.008   3.547
    1PA    H11S 8863   1.718   6.168   3.474
    1PA    C110 8864   1.859   6.084   3.610
    1PA    H10R 8865   1.912   6.171   3.648
    1PA    H10S 8866   1.863   6.024   3.700
    1PA     C19 8867   1.957   6.018   3.512
    1PA     H9R 8868   2.056   6.006   3.555
    1PA     H9S 8869   1.913   5.924   3.476
    1PA     C18 8870   1.969   6.105   3.386
    1PA     H8R 8871   1.870   6.120   3.342
    1PA     H8S 8872   2.010   6.203   3.408
    1PA     C17 8873   2.060   6.033   3.285
    1PA     H7R 8874   2.155   6.008   3.333
    1PA     H7S 8875   2.018   5.935   3.261
    1PA     C16 8876   2.082   6.112   3.155
    1PA     H6R 8877   1.984   6.101   3.109
    1PA     H6S 8878   2.088   6.219   3.179
    1PA     C15 8879   2.191   6.062   3.060
    1PA     H5R 8880   2.289   6.060   3.108
    1PA     H5S 8881   2.181   5.962   3.017
    1PA     C14 8882   2.209   6.159   2.942
    1PA     H4R 8883   2.118   6.176   2.884
    1PA     H4S 8884   2.245   6.255   2.979
    1PA     C13 8885   2.304   6.107   2.834
    1PA     H3R 8886   2.400   6.113   2.887
    1PA     H3S 8887   2.280   6.004   2.809
    1PA     C12 8888   2.297   6.202   2.714
    1PA     H2R 8889   2.195   6.226   2.683
    1PA     H2S 8890   2.344   6.296   2.743
    2PC     C11 8891   2.378   6.149   2.597
    2PC     O12 8892   2.331   6.154   2.485
    2PC     O11 8893   2.501   6.113   2.635
    2PC      C1 8894   2.597   6.070   2.537
    2PC      HR 8895   2.558   5.985   2.480
    2PC      HS 8896   2.634   6.147   2.468
    2PC      C2 8897   2.725   6.018   2.605
    2PC      HX 8898   2.773   6.106   2.649
    2PC      C3 8899   2.825   5.949   2.511
    2PC      HA 8900   2.883   6.019   2.452
    2PC      HB 8901   2.898   5.882   2.558
    2PC     O31 8902   2.752   5.872   2.414
    2PC     P31 8903   2.816   5.796   2.288
    2PC     O32 8904   2.835   5.920   2.188
    2PC     C31 8905   2.902   5.908   2.061
    2PC     H1A 8906   2.920   6.007   2.019
    2PC     H1B 8907   2.999   5.857   2.065
    2PC     C32 8908   2.803   5.841   1.964
    2PC     H2A 8909   2.771   5.752   2.019
    2PC     H2B 8910   2.714   5.903   1.947
    2PC     N31 8911   2.848   5.803   1.827
    2PC     C33 8912   2.912   5.920   1.759
    2PC     H3A 8913   2.947   5.881   1.663
    2PC     H3B 8914   2.840   6.001   1.749
    2PC     H3C 8915   3.003   5.950   1.813
    2PC     C34 8916   2.945   5.691   1.850
    2PC     H4A 8917   2.992   5.672   1.753
    2PC     H4B 8918   3.017   5.728   1.924
    2PC     H4C 8919   2.885   5.614   1.898
    2PC     C35 8920   2.729   5.757   1.749
    2PC     H5A 8921   2.754   5.709   1.654
    2PC     H5B 8922   2.663   5.839   1.720
    2PC     H5C 8923   2.675   5.682   1.807
    2PC     O33 8924   2.940   5.718   2.309
    2PC     O34 8925   2.721   5.689   2.249
    2PC     O21 8926   2.671   5.926   2.702
    2PC     C21 8927   2.755   5.889   2.801
    2PC     O22 8928   2.874   5.907   2.808
    3OL     C12 8929   2.677   5.805   2.899
    3OL     H2R 8930   2.728   5.710   2.922
    3OL     H2S 8931   2.573   5.793   2.869
    3OL     C13 8932   2.680   5.884   3.030
    3OL     H3R 8933   2.651   5.987   3.005
    3OL     H3S 8934   2.780   5.883   3.074
    3OL     C14 8935   2.593   5.826   3.142
    3OL     H4R 8936   2.609   5.897   3.223
    3OL     H4S 8937   2.636   5.730   3.173
    3OL     C15 8938   2.449   5.794   3.099
    3OL     H5R 8939   2.437   5.847   3.005
    3OL     H5S 8940   2.381   5.831   3.176
    3OL     C16 8941   2.412   5.646   3.078
    3OL     H6R 8942   2.441   5.590   3.167
    3OL     H6S 8943   2.476   5.602   3.002
    3OL     C17 8944   2.267   5.616   3.036
    3OL     H7R 8945   2.182   5.627   3.104
    3OL     H7S 8946   2.264   5.507   3.037
    3OL     C18 8947   2.223   5.667   2.898
    3OL     H8R 8948   2.297   5.656   2.819
    3OL     H8S 8949   2.199   5.773   2.901
    3OL     C19 8950   2.106   5.585   2.849
    3OL     H9R 8951   2.119   5.482   2.820
    3OL    C110 8952   1.982   5.632   2.853
    3OL    H10R 8953   1.907   5.556   2.830
    3OL    C111 8954   1.937   5.776   2.851
    3OL    H11R 8955   1.865   5.787   2.770
    3OL    H11S 8956   2.018   5.846   2.828
    3OL    C112 8957   1.882   5.801   2.992
    3OL    H12R 8958   1.958   5.816   3.070
    3OL    H12S 8959   1.826   5.711   3.021
    3OL    C113 8960   1.785   5.919   2.988
    3OL    H13R 8961   1.719   5.887   2.906
    3OL    H13S 8962   1.837   6.009   2.957
    3OL    C114 8963   1.719   5.944   3.124
    3OL    H14R 8964   1.679   6.045   3.129
    3OL    H14S 8965   1.794   5.923   3.201
    3OL    C115 8966   1.611   5.842   3.164
    3OL    H15R 8967   1.663   5.748   3.180
    3OL    H15S 8968   1.542   5.838   3.079
    3OL    C116 8969   1.533   5.863   3.295
    3OL    H16R 8970   1.490   5.963   3.293
    3OL    H16S 8971   1.602   5.858   3.380
    3OL    C117 8972   1.416   5.764   3.300
    3OL    H17R 8973   1.467   5.667   3.298
    3OL    H17S 8974   1.347   5.765   3.214
    3OL    C118 8975   1.338   5.769   3.432
    3OL    H18R 8976   1.267   5.687   3.430
    3OL    H18S 8977   1.284   5.863   3.444
    3OL    H18T 8978   1.408   5.753   3.514
    1PA    C116 8979   1.352   4.910   3.899
    1PA    H16R 8980   1.435   4.897   3.970
    1PA    H16S 8981   1.264   4.879   3.956
    1PA    H16T 8982   1.342   5.018   3.887
    1PA    C115 8983   1.377   4.832   3.769
    1PA    H15R 8984   1.479   4.865   3.750
    1PA    H15S 8985   1.378   4.724   3.784
    1PA    C114 8986   1.282   4.883   3.660
    1PA    H14R 8987   1.180   4.862   3.693
    1PA    H14S 8988   1.301   4.990   3.651
    1PA    C113 8989   1.302   4.816   3.523
    1PA    H13R 8990   1.405   4.841   3.497
    1PA    H13S 8991   1.284   4.709   3.536
    1PA    C112 8992   1.203   4.863   3.415
    1PA    H12R 8993   1.104   4.820   3.428
    1PA    H12S 8994   1.199   4.972   3.412
    1PA    C111 8995   1.248   4.828   3.273
    1PA    H11R 8996   1.337   4.888   3.251
    1PA    H11S 8997   1.272   4.721   3.275
    1PA    C110 8998   1.147   4.862   3.162
    1PA    H10R 8999   1.054   4.811   3.189
    1PA    H10S 9000   1.130   4.970   3.161
    1PA     C19 9001   1.197   4.809   3.027
    1PA     H9R 9002   1.192   4.701   3.037
    1PA     H9S 9003   1.125   4.830   2.949
    1PA     C18 9004   1.330   4.865   2.974
    1PA     H8R 9005   1.345   4.973   2.984
    1PA     H8S 9006   1.416   4.809   3.011
    1PA     C17 9007   1.340   4.846   2.822
    1PA     H7R 9008   1.444   4.856   2.790
    1PA     H7S 9009   1.302   4.751   2.785
    1PA     C16 9010   1.265   4.954   2.741
    1PA     H6R 9011   1.159   4.947   2.765
    1PA     H6S 9012   1.313   5.048   2.769
    1PA     C15 9013   1.280   4.930   2.590
    1PA     H5R 9014   1.379   4.946   2.547
    1PA     H5S 9015   1.252   4.826   2.570
    1PA     C14 9016   1.195   5.033   2.515
    1PA     H4R 9017   1.164   5.117   2.577
    1PA     H4S 9018   1.256   5.068   2.431
    1PA     C13 9019   1.063   4.971   2.465
    1PA     H3R 9020   1.092   4.891   2.398
    1PA     H3S 9021   1.007   4.934   2.551
    1PA     C12 9022   0.980   5.075   2.390
    1PA     H2R 9023   0.934   5.147   2.459
    1PA     H2S 9024   1.038   5.138   2.322
    2PC     C11 9025   0.875   5.011   2.301
    2PC     O12 9026   0.863   5.034   2.183
    2PC     O11 9027   0.793   4.926   2.364
    2PC      C1 9028   0.684   4.870   2.289
    2PC      HR 9029   0.615   4.950   2.258
    2PC      HS 9030   0.722   4.817   2.202
    2PC      C2 9031   0.609   4.764   2.371
    2PC      HX 9032   0.684   4.699   2.418
    2PC      C3 9033   0.523   4.679   2.276
    2PC      HA 9034   0.444   4.748   2.248
    2PC      HB 9035   0.589   4.639   2.198
    2PC     O31 9036   0.472   4.564   2.346
    2PC     P31 9037   0.382   4.454   2.271
    2PC     O32 9038   0.372   4.352   2.393
    2PC     C31 9039   0.292   4.235   2.367
    2PC     H1A 9040   0.268   4.181   2.458
    2PC     H1B 9041   0.195   4.257   2.322
    2PC     C32 9042   0.347   4.130   2.269
    2PC     H2A 9043   0.275   4.052   2.244
    2PC     H2B 9044   0.382   4.182   2.180
    2PC     N31 9045   0.460   4.044   2.317
    2PC     C33 9046   0.395   3.935   2.397
    2PC     H3A 9047   0.348   3.975   2.487
    2PC     H3B 9048   0.322   3.884   2.335
    2PC     H3C 9049   0.478   3.868   2.424
    2PC     C34 9050   0.522   3.978   2.197
    2PC     H4A 9051   0.584   4.052   2.146
    2PC     H4B 9052   0.573   3.891   2.238
    2PC     H4C 9053   0.435   3.953   2.136
    2PC     C35 9054   0.572   4.110   2.390
    2PC     H5A 9055   0.604   4.045   2.472
    2PC     H5B 9056   0.529   4.203   2.430
    2PC     H5C 9057   0.654   4.138   2.324
    2PC     O33 9058   0.248   4.505   2.231
    2PC     O34 9059   0.459   4.408   2.154
    2PC     O21 9060   0.520   4.837   2.457
    2PC     C21 9061   0.467   4.763   2.556
    2PC     O22 9062   0.508   4.657   2.598
    3OL     C12 9063   0.338   4.817   2.612
    3OL     H2R 9064   0.355   4.908   2.669
    3OL     H2S 9065   0.297   4.754   2.692
    3OL     C13 9066   0.229   4.834   2.506
    3OL     H3R 9067   0.182   4.744   2.465
    3OL     H3S 9068   0.267   4.879   2.414
    3OL     C14 9069   0.119   4.935   2.541
    3OL     H4R 9070   0.049   4.934   2.457
    3OL     H4S 9071   0.166   5.029   2.567
    3OL     C15 9072   0.032   4.908   2.665
    3OL     H5R 9073   0.099   4.888   2.749
    3OL     H5S 9074  -0.028   4.819   2.646
    3OL     C16 9075  -0.067   5.021   2.695
    3OL     H6R 9076  -0.143   5.033   2.618
    3OL     H6S 9077  -0.009   5.112   2.704
    3OL     C17 9078  -0.152   4.991   2.820
    3OL     H7R 9079  -0.204   4.896   2.823
    3OL     H7S 9080  -0.227   5.071   2.827
    3OL     C18 9081  -0.068   4.994   2.948
    3OL     H8R 9082   0.023   5.052   2.933
    3OL     H8S 9083  -0.028   4.896   2.975
    3OL     C19 9084  -0.158   5.031   3.063
    3OL     H9R 9085  -0.260   4.997   3.049
    3OL    C110 9086  -0.134   5.115   3.162
    3OL    H10R 9087  -0.213   5.139   3.233
    3OL    C111 9088  -0.007   5.192   3.189
    3OL    H11R 9089   0.064   5.153   3.116
    3OL    H11S 9090   0.026   5.173   3.292
    3OL    C112 9091  -0.032   5.342   3.171
    3OL    H12R 9092  -0.099   5.380   3.249
    3OL    H12S 9093  -0.075   5.364   3.073
    3OL    C113 9094   0.097   5.425   3.178
    3OL    H13R 9095   0.158   5.392   3.094
    3OL    H13S 9096   0.150   5.411   3.273
    3OL    C114 9097   0.063   5.574   3.163
    3OL    H14R 9098   0.011   5.599   3.070
    3OL    H14S 9099   0.156   5.631   3.159
    3OL    C115 9100  -0.013   5.636   3.281
    3OL    H15R 9101   0.047   5.624   3.372
    3OL    H15S 9102  -0.095   5.567   3.301
    3OL    C116 9103  -0.061   5.779   3.250
    3OL    H16R 9104  -0.145   5.798   3.318
    3OL    H16S 9105  -0.107   5.782   3.151
    3OL    C117 9106   0.054   5.879   3.261
    3OL    H17R 9107   0.122   5.860   3.178
    3OL    H17S 9108   0.125   5.860   3.342
    3OL    C118 9109   0.001   6.022   3.251
    3OL    H18R 9110  -0.055   6.055   3.339
    3OL    H18S 9111  -0.067   6.039   3.168
    3OL    H18T 9112   0.083   6.093   3.235
    1PA    C116 9113   1.701   3.792   3.891
    1PA    H16R 9114   1.597   3.786   3.921
    1PA    H16S 9115   1.754   3.885   3.916
    1PA    H16T 9116   1.754   3.717   3.950
    1PA    C115 9117   1.717   3.767   3.740
    1PA    H15R 9118   1.823   3.785   3.720
    1PA    H15S 9119   1.697   3.660   3.726
    1PA    C114 9120   1.637   3.861   3.650
    1PA    H14R 9121   1.611   3.950   3.707
    1PA    H14S 9122   1.708   3.902   3.577
    1PA    C113 9123   1.524   3.798   3.568
    1PA    H13R 9124   1.562   3.708   3.518
    1PA    H13S 9125   1.444   3.762   3.633
    1PA    C112 9126   1.473   3.904   3.470
    1PA    H12R 9127   1.458   4.002   3.516
    1PA    H12S 9128   1.562   3.921   3.408
    1PA    C111 9129   1.358   3.856   3.381
    1PA    H11R 9130   1.349   3.924   3.296
    1PA    H11S 9131   1.389   3.771   3.320
    1PA    C110 9132   1.223   3.841   3.451
    1PA    H10R 9133   1.236   3.785   3.544
    1PA    H10S 9134   1.174   3.935   3.480
    1PA     C19 9135   1.118   3.768   3.366
    1PA     H9R 9136   1.151   3.671   3.330
    1PA     H9S 9137   1.040   3.748   3.441
    1PA     C18 9138   1.054   3.856   3.258
    1PA     H8R 9139   0.974   3.909   3.311
    1PA     H8S 9140   1.123   3.929   3.215
    1PA     C17 9141   1.015   3.764   3.142
    1PA     H7R 9142   1.110   3.754   3.089
    1PA     H7S 9143   0.972   3.670   3.178
    1PA     C16 9144   0.910   3.830   3.050
    1PA     H6R 9145   0.948   3.932   3.042
    1PA     H6S 9146   0.919   3.782   2.952
    1PA     C15 9147   0.765   3.823   3.099
    1PA     H5R 9148   0.751   3.720   3.135
    1PA     H5S 9149   0.756   3.882   3.191
    1PA     C14 9150   0.658   3.847   2.992
    1PA     H4R 9151   0.675   3.767   2.919
    1PA     H4S 9152   0.562   3.838   3.042
    1PA     C13 9153   0.661   3.982   2.918
    1PA     H3R 9154   0.569   3.992   2.861
    1PA     H3S 9155   0.659   4.061   2.994
    1PA     C12 9156   0.778   4.009   2.823
    1PA     H2R 9157   0.764   4.108   2.777
    1PA     H2S 9158   0.867   4.025   2.882
    2PC     C11 9159   0.784   3.912   2.708
    2PC     O12 9160   0.694   3.880   2.633
    2PC     O11 9161   0.906   3.858   2.691
    2PC      C1 9162   0.926   3.767   2.581
    2PC      HR 9163   1.021   3.716   2.596
    2PC      HS 9164   0.857   3.682   2.581
    2PC      C2 9165   0.923   3.843   2.448
    2PC      HX 9166   0.823   3.886   2.436
    2PC      C3 9167   0.953   3.746   2.334
    2PC      HA 9168   0.890   3.657   2.344
    2PC      HB 9169   0.933   3.794   2.238
    2PC     O31 9170   1.095   3.726   2.348
    2PC     P31 9171   1.183   3.625   2.260
    2PC     O32 9172   1.145   3.668   2.111
    2PC     C31 9173   1.194   3.786   2.044
    2PC     H1A 9174   1.142   3.874   2.085
    2PC     H1B 9175   1.302   3.788   2.059
    2PC     C32 9176   1.160   3.769   1.896
    2PC     H2A 9177   1.055   3.752   1.876
    2PC     H2B 9178   1.184   3.858   1.836
    2PC     N31 9179   1.236   3.666   1.817
    2PC     C33 9180   1.199   3.665   1.672
    2PC     H3A 9181   1.281   3.616   1.619
    2PC     H3B 9182   1.103   3.613   1.663
    2PC     H3C 9183   1.189   3.765   1.629
    2PC     C34 9184   1.380   3.706   1.824
    2PC     H4A 9185   1.413   3.691   1.927
    2PC     H4B 9186   1.429   3.635   1.757
    2PC     H4C 9187   1.391   3.810   1.794
    2PC     C35 9188   1.223   3.524   1.862
    2PC     H5A 9189   1.117   3.498   1.863
    2PC     H5B 9190   1.267   3.516   1.961
    2PC     H5C 9191   1.267   3.456   1.788
    2PC     O33 9192   1.327   3.622   2.293
    2PC     O34 9193   1.145   3.485   2.290
    2PC     O21 9194   1.013   3.956   2.447
    2PC     C21 9195   0.992   4.048   2.351
    2PC     O22 9196   0.902   4.034   2.271
    3OL     C12 9197   1.085   4.167   2.350
    3OL     H2R 9198   1.100   4.198   2.246
    3OL     H2S 9199   1.182   4.133   2.387
    3OL     C13 9200   1.041   4.284   2.438
    3OL     H3R 9201   0.968   4.343   2.382
    3OL     H3S 9202   0.994   4.249   2.530
    3OL     C14 9203   1.152   4.386   2.467
    3OL     H4R 9204   1.194   4.406   2.368
    3OL     H4S 9205   1.238   4.350   2.524
    3OL     C15 9206   1.101   4.519   2.524
    3OL     H5R 9207   1.022   4.559   2.460
    3OL     H5S 9208   1.181   4.593   2.519
    3OL     C16 9209   1.054   4.512   2.670
    3OL     H6R 9210   1.145   4.491   2.726
    3OL     H6S 9211   0.984   4.429   2.676
    3OL     C17 9212   1.004   4.645   2.728
    3OL     H7R 9213   1.054   4.732   2.684
    3OL     H7S 9214   1.030   4.646   2.834
    3OL     C18 9215   0.853   4.667   2.716
    3OL     H8R 9216   0.790   4.585   2.752
    3OL     H8S 9217   0.834   4.678   2.609
    3OL     C19 9218   0.804   4.792   2.785
    3OL     H9R 9219   0.859   4.881   2.755
    3OL    C110 9220   0.721   4.797   2.888
    3OL    H10R 9221   0.706   4.890   2.943
    3OL    C111 9222   0.637   4.685   2.942
    3OL    H11R 9223   0.621   4.602   2.872
    3OL    H11S 9224   0.535   4.724   2.944
    3OL    C112 9225   0.673   4.629   3.080
    3OL    H12R 9226   0.758   4.560   3.078
    3OL    H12S 9227   0.579   4.585   3.112
    3OL    C113 9228   0.710   4.738   3.182
    3OL    H13R 9229   0.627   4.809   3.188
    3OL    H13S 9230   0.797   4.788   3.140
    3OL    C114 9231   0.731   4.678   3.321
    3OL    H14R 9232   0.809   4.603   3.309
    3OL    H14S 9233   0.637   4.637   3.359
    3OL    C115 9234   0.786   4.788   3.412
    3OL    H15R 9235   0.710   4.865   3.427
    3OL    H15S 9236   0.873   4.829   3.359
    3OL    C116 9237   0.837   4.738   3.548
    3OL    H16R 9238   0.928   4.678   3.540
    3OL    H16S 9239   0.750   4.683   3.584
    3OL    C117 9240   0.863   4.848   3.653
    3OL    H17R 9241   0.769   4.901   3.669
    3OL    H17S 9242   0.938   4.915   3.611
    3OL    C118 9243   0.915   4.793   3.786
    3OL    H18R 9244   0.926   4.876   3.856
    3OL    H18S 9245   1.004   4.732   3.771
    3OL    H18T 9246   0.837   4.724   3.819
    1PA    C116 9247   0.506   4.879   4.192
    1PA    H16R 9248   0.421   4.929   4.238
    1PA    H16S 9249   0.590   4.948   4.179
    1PA    H16T 9250   0.543   4.806   4.263
    1PA    C115 9251   0.465   4.812   4.060
    1PA    H15R 9252   0.371   4.759   4.076
    1PA    H15S 9253   0.440   4.891   3.989
    1PA    C114 9254   0.579   4.731   3.996
    1PA    H14R 9255   0.670   4.787   3.972
    1PA    H14S 9256   0.615   4.645   4.054
    1PA    C113 9257   0.533   4.669   3.863
    1PA    H13R 9258   0.484   4.736   3.792
    1PA    H13S 9259   0.620   4.631   3.809
    1PA    C112 9260   0.437   4.551   3.883
    1PA    H12R 9261   0.490   4.483   3.951
    1PA    H12S 9262   0.339   4.587   3.916
    1PA    C111 9263   0.406   4.475   3.754
    1PA    H11R 9264   0.324   4.529   3.706
    1PA    H11S 9265   0.493   4.470   3.687
    1PA    C110 9266   0.354   4.334   3.782
    1PA    H10R 9267   0.422   4.285   3.852
    1PA    H10S 9268   0.255   4.343   3.827
    1PA     C19 9269   0.337   4.255   3.651
    1PA     H9R 9270   0.297   4.320   3.573
    1PA     H9S 9271   0.436   4.218   3.623
    1PA     C18 9272   0.242   4.141   3.689
    1PA     H8R 9273   0.279   4.079   3.770
    1PA     H8S 9274   0.154   4.197   3.721
    1PA     C17 9275   0.211   4.059   3.563
    1PA     H7R 9276   0.126   3.992   3.578
    1PA     H7S 9277   0.189   4.128   3.481
    1PA     C16 9278   0.323   3.958   3.531
    1PA     H6R 9279   0.418   4.010   3.519
    1PA     H6S 9280   0.334   3.888   3.614
    1PA     C15 9281   0.293   3.870   3.409
    1PA     H5R 9282   0.193   3.827   3.408
    1PA     H5S 9283   0.308   3.937   3.325
    1PA     C14 9284   0.401   3.761   3.399
    1PA     H4R 9285   0.498   3.809   3.384
    1PA     H4S 9286   0.404   3.696   3.487
    1PA     C13 9287   0.372   3.659   3.288
    1PA     H3R 9288   0.354   3.707   3.192
    1PA     H3S 9289   0.467   3.606   3.280
    1PA     C12 9290   0.265   3.554   3.323
    1PA     H2R 9291   0.288   3.495   3.411
    1PA     H2S 9292   0.171   3.606   3.345
    2PC     C11 9293   0.230   3.469   3.204
    2PC     O12 9294   0.116   3.446   3.170
    2PC     O11 9295   0.343   3.423   3.148
    2PC      C1 9296   0.336   3.351   3.024
    2PC      HR 9297   0.298   3.250   3.041
    2PC      HS 9298   0.259   3.389   2.956
    2PC      C2 9299   0.472   3.352   2.953
    2PC      HX 9300   0.523   3.448   2.943
    2PC      C3 9301   0.459   3.318   2.803
    2PC      HA 9302   0.403   3.392   2.745
    2PC      HB 9303   0.557   3.309   2.756
    2PC     O31 9304   0.390   3.192   2.804
    2PC     P31 9305   0.319   3.136   2.672
    2PC     O32 9306   0.423   3.020   2.634
    2PC     C31 9307   0.428   2.946   2.511
    2PC     H1A 9308   0.472   2.848   2.529
    2PC     H1B 9309   0.326   2.935   2.471
    2PC     C32 9310   0.517   3.028   2.416
    2PC     H2A 9311   0.502   2.979   2.320
    2PC     H2B 9312   0.491   3.134   2.415
    2PC     N31 9313   0.663   3.038   2.444
    2PC     C33 9314   0.706   3.158   2.364
    2PC     H3A 9315   0.664   3.253   2.397
    2PC     H3B 9316   0.814   3.166   2.381
    2PC     H3C 9317   0.680   3.144   2.259
    2PC     C34 9318   0.690   3.042   2.592
    2PC     H4A 9319   0.655   3.138   2.630
    2PC     H4B 9320   0.638   2.962   2.644
    2PC     H4C 9321   0.795   3.034   2.619
    2PC     C35 9322   0.732   2.915   2.394
    2PC     H5A 9323   0.839   2.929   2.412
    2PC     H5B 9324   0.709   2.911   2.287
    2PC     H5C 9325   0.705   2.825   2.449
    2PC     O33 9326   0.188   3.074   2.701
    2PC     O34 9327   0.310   3.241   2.568
    2PC     O21 9328   0.562   3.269   3.028
    2PC     C21 9329   0.692   3.283   2.996
    2PC     O22 9330   0.741   3.364   2.920
    3OL     C12 9331   0.774   3.185   3.076
    3OL     H2R 9332   0.848   3.138   3.011
    3OL     H2S 9333   0.703   3.108   3.106
    3OL     C13 9334   0.861   3.241   3.190
    3OL     H3R 9335   0.927   3.324   3.164
    3OL     H3S 9336   0.939   3.172   3.220
    3OL     C14 9337   0.783   3.285   3.315
    3OL     H4R 9338   0.736   3.197   3.359
    3OL     H4S 9339   0.707   3.357   3.285
    3OL     C15 9340   0.878   3.360   3.409
    3OL     H5R 9341   0.913   3.452   3.362
    3OL     H5S 9342   0.971   3.301   3.409
    3OL     C16 9343   0.803   3.407   3.534
    3OL     H6R 9344   0.704   3.450   3.514
    3OL     H6S 9345   0.858   3.487   3.583
    3OL     C17 9346   0.792   3.298   3.642
    3OL     H7R 9347   0.758   3.206   3.593
    3OL     H7S 9348   0.724   3.329   3.721
    3OL     C18 9349   0.928   3.270   3.706
    3OL     H8R 9350   0.992   3.226   3.629
    3OL     H8S 9351   0.913   3.194   3.783
    3OL     C19 9352   0.985   3.386   3.783
    3OL     H9R 9353   0.912   3.427   3.852
    3OL    C110 9354   1.108   3.435   3.772
    3OL    H10R 9355   1.144   3.519   3.831
    3OL    C111 9356   1.211   3.379   3.677
    3OL    H11R 9357   1.182   3.286   3.628
    3OL    H11S 9358   1.302   3.354   3.731
    3OL    C112 9359   1.251   3.474   3.563
    3OL    H12R 9360   1.280   3.570   3.606
    3OL    H12S 9361   1.169   3.496   3.494
    3OL    C113 9362   1.375   3.422   3.488
    3OL    H13R 9363   1.465   3.402   3.546
    3OL    H13S 9364   1.408   3.505   3.425
    3OL    C114 9365   1.337   3.314   3.387
    3OL    H14R 9366   1.255   3.352   3.326
    3OL    H14S 9367   1.299   3.227   3.442
    3OL    C115 9368   1.450   3.287   3.286
    3OL    H15R 9369   1.545   3.273   3.338
    3OL    H15S 9370   1.468   3.375   3.223
    3OL    C116 9371   1.411   3.167   3.198
    3OL    H16R 9372   1.328   3.197   3.133
    3OL    H16S 9373   1.372   3.086   3.260
    3OL    C117 9374   1.528   3.109   3.118
    3OL    H17R 9375   1.575   3.191   3.063
    3OL    H17S 9376   1.475   3.043   3.050
    3OL    C118 9377   1.630   3.022   3.194
    3OL    H18R 9378   1.672   3.079   3.277
    3OL    H18S 9379   1.707   2.982   3.128
    3OL    H18T 9380   1.583   2.934   3.239
    1PA    C116 9381   1.934   5.206   4.355
    1PA    H16R 9382   1.826   5.221   4.349
    1PA    H16S 9383   1.976   5.295   4.403
    1PA    H16T 9384   1.950   5.118   4.418
    1PA    C115 9385   1.999   5.183   4.218
    1PA    H15R 9386   2.104   5.159   4.236
    1PA    H15S 9387   1.950   5.101   4.166
    1PA    C114 9388   2.003   5.317   4.143
    1PA    H14R 9389   1.908   5.337   4.093
    1PA    H14S 9390   2.032   5.395   4.213
    1PA    C113 9391   2.100   5.305   4.025
    1PA    H13R 9392   2.198   5.290   4.072
    1PA    H13S 9393   2.080   5.214   3.968
    1PA    C112 9394   2.102   5.426   3.929
    1PA    H12R 9395   2.004   5.451   3.889
    1PA    H12S 9396   2.135   5.507   3.995
    1PA    C111 9397   2.202   5.405   3.814
    1PA    H11R 9398   2.245   5.504   3.801
    1PA    H11S 9399   2.292   5.351   3.844
    1PA    C110 9400   2.135   5.333   3.696
    1PA    H10R 9401   2.095   5.234   3.721
    1PA    H10S 9402   2.054   5.384   3.645
    1PA     C19 9403   2.239   5.316   3.585
    1PA     H9R 9404   2.278   5.412   3.553
    1PA     H9S 9405   2.314   5.245   3.623
    1PA     C18 9406   2.179   5.252   3.459
    1PA     H8R 9407   2.132   5.156   3.480
    1PA     H8S 9408   2.104   5.325   3.431
    1PA     C17 9409   2.274   5.233   3.340
    1PA     H7R 9410   2.320   5.327   3.308
    1PA     H7S 9411   2.353   5.167   3.378
    1PA     C16 9412   2.216   5.151   3.224
    1PA     H6R 9413   2.225   5.044   3.246
    1PA     H6S 9414   2.109   5.168   3.214
    1PA     C15 9415   2.286   5.182   3.091
    1PA     H5R 9416   2.264   5.287   3.074
    1PA     H5S 9417   2.392   5.160   3.106
    1PA     C14 9418   2.228   5.104   2.972
    1PA     H4R 9419   2.262   5.001   2.970
    1PA     H4S 9420   2.121   5.081   2.978
    1PA     C13 9421   2.262   5.173   2.839
    1PA     H3R 9422   2.214   5.271   2.834
    1PA     H3S 9423   2.368   5.196   2.828
    1PA     C12 9424   2.220   5.085   2.721
    1PA     H2R 9425   2.278   4.993   2.707
    1PA     H2S 9426   2.115   5.060   2.732
    2PC     C11 9427   2.241   5.155   2.589
    2PC     O12 9428   2.257   5.274   2.574
    2PC     O11 9429   2.233   5.074   2.482
    2PC      C1 9430   2.242   5.119   2.346
    2PC      HR 9431   2.189   5.214   2.334
    2PC      HS 9432   2.346   5.147   2.329
    2PC      C2 9433   2.191   5.012   2.248
    2PC      HX 9434   2.236   4.919   2.284
    2PC      C3 9435   2.238   5.023   2.102
    2PC      HA 9436   2.212   5.121   2.060
    2PC      HB 9437   2.347   5.013   2.103
    2PC     O31 9438   2.176   4.914   2.030
    2PC     P31 9439   2.204   4.889   1.875
    2PC     O32 9440   2.134   5.007   1.792
    2PC     C31 9441   1.997   4.995   1.749
    2PC     H1A 9442   1.991   4.905   1.689
    2PC     H1B 9443   1.925   4.993   1.832
    2PC     C32 9444   1.971   5.126   1.674
    2PC     H2A 9445   2.041   5.135   1.591
    2PC     H2B 9446   1.867   5.126   1.642
    2PC     N31 9447   1.982   5.256   1.748
    2PC     C33 9448   2.122   5.295   1.788
    2PC     H3A 9449   2.169   5.219   1.851
    2PC     H3B 9450   2.190   5.316   1.705
    2PC     H3C 9451   2.123   5.381   1.854
    2PC     C34 9452   1.923   5.361   1.659
    2PC     H4A 9453   1.963   5.457   1.691
    2PC     H4B 9454   1.956   5.347   1.555
    2PC     H4C 9455   1.814   5.363   1.662
    2PC     C35 9456   1.892   5.261   1.868
    2PC     H5A 9457   1.936   5.346   1.920
    2PC     H5B 9458   1.908   5.174   1.932
    2PC     H5C 9459   1.789   5.281   1.839
    2PC     O33 9460   2.350   4.896   1.851
    2PC     O34 9461   2.170   4.748   1.846
    2PC     O21 9462   2.049   5.003   2.266
    2PC     C21 9463   1.967   5.088   2.203
    2PC     O22 9464   1.999   5.178   2.127
    3OL     C12 9465   1.822   5.070   2.239
    3OL     H2R 9466   1.807   4.962   2.253
    3OL     H2S 9467   1.744   5.098   2.167
    3OL     C13 9468   1.794   5.138   2.373
    3OL     H3R 9469   1.811   5.244   2.354
    3OL     H3S 9470   1.873   5.115   2.445
    3OL     C14 9471   1.653   5.117   2.431
    3OL     H4R 9472   1.627   5.017   2.465
    3OL     H4S 9473   1.575   5.136   2.357
    3OL     C15 9474   1.640   5.220   2.543
    3OL     H5R 9475   1.534   5.228   2.567
    3OL     H5S 9476   1.671   5.320   2.513
    3OL     C16 9477   1.715   5.172   2.668
    3OL     H6R 9478   1.821   5.182   2.642
    3OL     H6S 9479   1.685   5.071   2.695
    3OL     C17 9480   1.679   5.271   2.779
    3OL     H7R 9481   1.571   5.272   2.791
    3OL     H7S 9482   1.712   5.373   2.758
    3OL     C18 9483   1.732   5.217   2.913
    3OL     H8R 9484   1.720   5.109   2.914
    3OL     H8S 9485   1.669   5.269   2.986
    3OL     C19 9486   1.877   5.253   2.933
    3OL     H9R 9487   1.944   5.249   2.848
    3OL    C110 9488   1.926   5.299   3.047
    3OL    H10R 9489   2.030   5.329   3.051
    3OL    C111 9490   1.856   5.330   3.177
    3OL    H11R 9491   1.879   5.249   3.246
    3OL    H11S 9492   1.749   5.347   3.163
    3OL    C112 9493   1.916   5.463   3.226
    3OL    H12R 9494   1.869   5.538   3.163
    3OL    H12S 9495   2.025   5.453   3.220
    3OL    C113 9496   1.887   5.498   3.373
    3OL    H13R 9497   1.925   5.417   3.435
    3OL    H13S 9498   1.780   5.502   3.391
    3OL    C114 9499   1.958   5.631   3.404
    3OL    H14R 9500   1.909   5.693   3.479
    3OL    H14S 9501   1.947   5.700   3.321
    3OL    C115 9502   2.104   5.615   3.447
    3OL    H15R 9503   2.157   5.527   3.410
    3OL    H15S 9504   2.120   5.607   3.555
    3OL    C116 9505   2.194   5.733   3.409
    3OL    H16R 9506   2.165   5.820   3.468
    3OL    H16S 9507   2.180   5.764   3.305
    3OL    C117 9508   2.343   5.712   3.440
    3OL    H17R 9509   2.383   5.658   3.354
    3OL    H17S 9510   2.374   5.663   3.533
    3OL    C118 9511   2.408   5.850   3.443
    3OL    H18R 9512   2.517   5.846   3.449
    3OL    H18S 9513   2.371   5.911   3.525
    3OL    H18T 9514   2.387   5.911   3.354
    1PA    C116 9515   2.612   3.153   4.024
    1PA    H16R 9516   2.635   3.055   4.066
    1PA    H16S 9517   2.613   3.130   3.917
    1PA    H16T 9518   2.514   3.194   4.049
    1PA    C115 9519   2.722   3.257   4.049
    1PA    H15R 9520   2.741   3.273   4.156
    1PA    H15S 9521   2.818   3.231   4.003
    1PA    C114 9522   2.675   3.390   3.989
    1PA    H14R 9523   2.566   3.398   3.995
    1PA    H14S 9524   2.715   3.477   4.039
    1PA    C113 9525   2.708   3.379   3.839
    1PA    H13R 9526   2.816   3.387   3.827
    1PA    H13S 9527   2.671   3.288   3.790
    1PA    C112 9528   2.640   3.482   3.749
    1PA    H12R 9529   2.531   3.478   3.761
    1PA    H12S 9530   2.664   3.584   3.780
    1PA    C111 9531   2.687   3.471   3.603
    1PA    H11R 9532   2.793   3.496   3.607
    1PA    H11S 9533   2.671   3.373   3.557
    1PA    C110 9534   2.616   3.571   3.511
    1PA    H10R 9535   2.508   3.558   3.519
    1PA    H10S 9536   2.626   3.670   3.556
    1PA     C19 9537   2.657   3.554   3.364
    1PA     H9R 9538   2.758   3.593   3.371
    1PA     H9S 9539   2.657   3.450   3.331
    1PA     C18 9540   2.568   3.646   3.278
    1PA     H8R 9541   2.594   3.647   3.172
    1PA     H8S 9542   2.473   3.593   3.278
    1PA     C17 9543   2.541   3.790   3.324
    1PA     H7R 9544   2.458   3.834   3.268
    1PA     H7S 9545   2.491   3.791   3.421
    1PA     C16 9546   2.669   3.874   3.318
    1PA     H6R 9547   2.647   3.972   3.362
    1PA     H6S 9548   2.743   3.824   3.381
    1PA     C15 9549   2.739   3.886   3.183
    1PA     H5R 9550   2.787   3.789   3.165
    1PA     H5S 9551   2.666   3.907   3.105
    1PA     C14 9552   2.826   4.012   3.183
    1PA     H4R 9553   2.775   4.105   3.211
    1PA     H4S 9554   2.890   4.006   3.271
    1PA     C13 9555   2.898   4.027   3.049
    1PA     H3R 9556   2.984   4.093   3.062
    1PA     H3S 9557   2.952   3.937   3.019
    1PA     C12 9558   2.804   4.078   2.938
    1PA     H2R 9559   2.737   3.995   2.917
    1PA     H2S 9560   2.751   4.165   2.978
    2PC     C11 9561   2.883   4.111   2.814
    2PC     O12 9562   2.846   4.091   2.701
    2PC     O11 9563   2.998   4.176   2.840
    2PC      C1 9564   3.089   4.220   2.738
    2PC      HR 9565   3.185   4.250   2.782
    2PC      HS 9566   3.106   4.140   2.665
    2PC      C2 9567   3.025   4.345   2.676
    2PC      HX 9568   2.933   4.331   2.619
    2PC      C3 9569   3.111   4.395   2.560
    2PC      HA 9570   3.190   4.459   2.601
    2PC      HB 9571   3.150   4.308   2.507
    2PC     O31 9572   3.030   4.483   2.480
    2PC     P31 9573   3.102   4.553   2.355
    2PC     O32 9574   3.193   4.667   2.423
    2PC     C31 9575   3.125   4.781   2.478
    2PC     H1A 9576   3.091   4.839   2.391
    2PC     H1B 9577   3.041   4.752   2.542
    2PC     C32 9578   3.235   4.868   2.539
    2PC     H2A 9579   3.294   4.906   2.455
    2PC     H2B 9580   3.191   4.957   2.584
    2PC     N31 9581   3.319   4.807   2.647
    2PC     C33 9582   3.419   4.707   2.598
    2PC     H3A 9583   3.364   4.651   2.522
    2PC     H3B 9584   3.505   4.750   2.547
    2PC     H3C 9585   3.449   4.651   2.687
    2PC     C34 9586   3.393   4.917   2.718
    2PC     H4A 9587   3.469   4.965   2.655
    2PC     H4B 9588   3.317   4.990   2.743
    2PC     H4C 9589   3.438   4.861   2.800
    2PC     C35 9590   3.222   4.736   2.736
    2PC     H5A 9591   3.185   4.639   2.700
    2PC     H5B 9592   3.135   4.798   2.756
    2PC     H5C 9593   3.275   4.725   2.831
    2PC     O33 9594   3.199   4.464   2.287
    2PC     O34 9595   3.010   4.597   2.248
    2PC     O21 9596   3.027   4.454   2.770
    2PC     C21 9597   2.917   4.466   2.845
    2PC     O22 9598   2.813   4.405   2.832
    3OL     C12 9599   2.932   4.582   2.941
    3OL     H2R 9600   3.037   4.611   2.938
    3OL     H2S 9601   2.922   4.544   3.043
    3OL     C13 9602   2.828   4.694   2.929
    3OL     H3R 9603   2.830   4.747   3.024
    3OL     H3S 9604   2.733   4.645   2.904
    3OL     C14 9605   2.860   4.796   2.819
    3OL     H4R 9606   2.837   4.756   2.721
    3OL     H4S 9607   2.966   4.823   2.820
    3OL     C15 9608   2.791   4.929   2.853
    3OL     H5R 9609   2.685   4.910   2.874
    3OL     H5S 9610   2.790   4.993   2.764
    3OL     C16 9611   2.853   5.006   2.970
    3OL     H6R 9612   2.960   5.019   2.956
    3OL     H6S 9613   2.846   4.948   3.062
    3OL     C17 9614   2.802   5.148   2.998
    3OL     H7R 9615   2.693   5.149   2.988
    3OL     H7S 9616   2.829   5.228   2.929
    3OL     C18 9617   2.839   5.188   3.141
    3OL     H8R 9618   2.848   5.297   3.153
    3OL     H8S 9619   2.938   5.148   3.165
    3OL     C19 9620   2.734   5.136   3.236
    3OL     H9R 9621   2.743   5.028   3.247
    3OL    C110 9622   2.649   5.210   3.305
    3OL    H10R 9623   2.594   5.165   3.387
    3OL    C111 9624   2.630   5.359   3.291
    3OL    H11R 9625   2.541   5.376   3.230
    3OL    H11S 9626   2.710   5.412   3.239
    3OL    C112 9627   2.593   5.420   3.427
    3OL    H12R 9628   2.502   5.369   3.459
    3OL    H12S 9629   2.574   5.527   3.414
    3OL    C113 9630   2.702   5.401   3.533
    3OL    H13R 9631   2.781   5.471   3.503
    3OL    H13S 9632   2.740   5.299   3.535
    3OL    C114 9633   2.647   5.439   3.672
    3OL    H14R 9634   2.559   5.384   3.706
    3OL    H14S 9635   2.606   5.540   3.664
    3OL    C115 9636   2.758   5.438   3.778
    3OL    H15R 9637   2.815   5.529   3.757
    3OL    H15S 9638   2.822   5.350   3.781
    3OL    C116 9639   2.694   5.466   3.915
    3OL    H16R 9640   2.618   5.395   3.946
    3OL    H16S 9641   2.652   5.566   3.898
    3OL    C117 9642   2.795   5.464   4.030
    3OL    H17R 9643   2.869   5.542   4.010
    3OL    H17S 9644   2.835   5.364   4.045
    3OL    C118 9645   2.716   5.499   4.157
    3OL    H18R 9646   2.769   5.497   4.252
    3OL    H18S 9647   2.629   5.435   4.175
    3OL    H18T 9648   2.681   5.600   4.138
    1PA    C116 9649   0.478   5.911   4.094
    1PA    H16R 9650   0.483   5.843   4.179
    1PA    H16S 9651   0.376   5.949   4.084
    1PA    H16T 9652   0.549   5.994   4.103
    1PA    C115 9653   0.517   5.828   3.972
    1PA    H15R 9654   0.447   5.745   3.959
    1PA    H15S 9655   0.502   5.900   3.891
    1PA    C114 9656   0.655   5.760   3.969
    1PA    H14R 9657   0.674   5.720   4.069
    1PA    H14S 9658   0.660   5.671   3.907
    1PA    C113 9659   0.761   5.864   3.932
    1PA    H13R 9660   0.725   5.895   3.833
    1PA    H13S 9661   0.764   5.946   4.004
    1PA    C112 9662   0.902   5.805   3.929
    1PA    H12R 9663   0.980   5.882   3.936
    1PA    H12S 9664   0.918   5.737   4.013
    1PA    C111 9665   0.925   5.715   3.807
    1PA    H11R 9666   1.004   5.643   3.829
    1PA    H11S 9667   0.828   5.670   3.785
    1PA    C110 9668   0.981   5.793   3.687
    1PA    H10R 9669   0.931   5.890   3.681
    1PA    H10S 9670   1.086   5.821   3.697
    1PA     C19 9671   0.972   5.714   3.555
    1PA     H9R 9672   1.057   5.646   3.550
    1PA     H9S 9673   0.881   5.654   3.547
    1PA     C18 9674   0.967   5.810   3.435
    1PA     H8R 9675   0.868   5.855   3.438
    1PA     H8S 9676   1.043   5.888   3.447
    1PA     C17 9677   0.997   5.735   3.304
    1PA     H7R 9678   1.099   5.696   3.297
    1PA     H7S 9679   0.923   5.655   3.302
    1PA     C16 9680   0.976   5.831   3.187
    1PA     H6R 9681   0.868   5.850   3.188
    1PA     H6S 9682   1.023   5.929   3.201
    1PA     C15 9683   1.003   5.774   3.047
    1PA     H5R 9684   1.112   5.774   3.035
    1PA     H5S 9685   0.951   5.680   3.026
    1PA     C14 9686   0.952   5.876   2.945
    1PA     H4R 9687   0.843   5.884   2.948
    1PA     H4S 9688   0.998   5.973   2.964
    1PA     C13 9689   0.991   5.820   2.808
    1PA     H3R 9690   1.099   5.829   2.791
    1PA     H3S 9691   0.966   5.714   2.806
    1PA     C12 9692   0.920   5.902   2.699
    1PA     H2R 9693   0.812   5.896   2.708
    1PA     H2S 9694   0.960   6.003   2.703
    2PC     C11 9695   0.948   5.842   2.563
    2PC     O12 9696   0.973   5.914   2.468
    2PC     O11 9697   0.933   5.709   2.553
    2PC      C1 9698   0.958   5.644   2.428
    2PC      HR 9699   1.038   5.701   2.380
    2PC      HS 9700   1.001   5.546   2.453
    2PC      C2 9701   0.834   5.640   2.336
    2PC      HX 9702   0.857   5.576   2.251
    2PC      C3 9703   0.785   5.780   2.299
    2PC      HA 9704   0.748   5.841   2.382
    2PC      HB 9705   0.866   5.847   2.269
    2PC     O31 9706   0.683   5.786   2.197
    2PC     P31 9707   0.729   5.748   2.049
    2PC     O32 9708   0.680   5.596   2.061
    2PC     C31 9709   0.691   5.527   1.935
    2PC     H1A 9710   0.602   5.537   1.873
    2PC     H1B 9711   0.777   5.564   1.878
    2PC     C32 9712   0.703   5.377   1.964
    2PC     H2A 9713   0.719   5.317   1.874
    2PC     H2B 9714   0.790   5.367   2.028
    2PC     N31 9715   0.583   5.312   2.026
    2PC     C33 9716   0.614   5.165   2.028
    2PC     H3A 9717   0.513   5.121   2.027
    2PC     H3B 9718   0.660   5.133   1.935
    2PC     H3C 9719   0.685   5.137   2.105
    2PC     C34 9720   0.546   5.363   2.162
    2PC     H4A 9721   0.634   5.373   2.226
    2PC     H4B 9722   0.488   5.455   2.154
    2PC     H4C 9723   0.479   5.290   2.206
    2PC     C35 9724   0.458   5.334   1.946
    2PC     H5A 9725   0.378   5.281   1.999
    2PC     H5B 9726   0.481   5.287   1.850
    2PC     H5C 9727   0.440   5.441   1.938
    2PC     O33 9728   0.636   5.794   1.942
    2PC     O34 9729   0.871   5.773   2.017
    2PC     O21 9730   0.726   5.573   2.404
    2PC     C21 9731   0.740   5.441   2.426
    2PC     O22 9732   0.831   5.378   2.378
    3OL     C12 9733   0.631   5.377   2.509
    3OL     H2R 9734   0.538   5.388   2.452
    3OL     H2S 9735   0.632   5.443   2.596
    3OL     C13 9736   0.660   5.231   2.543
    3OL     H3R 9737   0.753   5.229   2.601
    3OL     H3S 9738   0.684   5.178   2.450
    3OL     C14 9739   0.555   5.152   2.622
    3OL     H4R 9740   0.562   5.047   2.590
    3OL     H4S 9741   0.457   5.177   2.579
    3OL     C15 9742   0.579   5.167   2.772
    3OL     H5R 9743   0.572   5.271   2.803
    3OL     H5S 9744   0.678   5.126   2.796
    3OL     C16 9745   0.469   5.091   2.848
    3OL     H6R 9746   0.477   4.983   2.828
    3OL     H6S 9747   0.372   5.123   2.811
    3OL     C17 9748   0.474   5.104   3.001
    3OL     H7R 9749   0.480   5.210   3.027
    3OL     H7S 9750   0.557   5.054   3.051
    3OL     C18 9751   0.353   5.044   3.072
    3OL     H8R 9752   0.371   4.936   3.075
    3OL     H8S 9753   0.267   5.070   3.011
    3OL     C19 9754   0.330   5.094   3.212
    3OL     H9R 9755   0.334   5.202   3.224
    3OL    C110 9756   0.306   5.020   3.319
    3OL    H10R 9757   0.295   5.059   3.421
    3OL    C111 9758   0.302   4.870   3.306
    3OL    H11R 9759   0.400   4.826   3.327
    3OL    H11S 9760   0.274   4.840   3.205
    3OL    C112 9761   0.212   4.799   3.407
    3OL    H12R 9762   0.250   4.808   3.509
    3OL    H12S 9763   0.201   4.693   3.383
    3OL    C113 9764   0.071   4.858   3.426
    3OL    H13R 9765   0.083   4.967   3.433
    3OL    H13S 9766   0.031   4.821   3.520
    3OL    C114 9767  -0.027   4.812   3.317
    3OL    H14R 9768   0.018   4.797   3.218
    3OL    H14S 9769  -0.108   4.885   3.312
    3OL    C115 9770  -0.090   4.675   3.345
    3OL    H15R 9771  -0.144   4.686   3.439
    3OL    H15S 9772  -0.004   4.610   3.359
    3OL    C116 9773  -0.190   4.637   3.234
    3OL    H16R 9774  -0.145   4.652   3.135
    3OL    H16S 9775  -0.270   4.711   3.234
    3OL    C117 9776  -0.244   4.495   3.256
    3OL    H17R 9777  -0.168   4.436   3.307
    3OL    H17S 9778  -0.257   4.440   3.162
    3OL    C118 9779  -0.381   4.498   3.326
    3OL    H18R 9780  -0.377   4.575   3.404
    3OL    H18S 9781  -0.402   4.407   3.383
    3OL    H18T 9782  -0.463   4.516   3.257
    1PA    C116 9783   0.298  -0.346   3.685
    1PA    H16R 9784   0.289  -0.240   3.657
    1PA    H16S 9785   0.298  -0.341   3.794
    1PA    H16T 9786   0.203  -0.383   3.646
    1PA    C115 9787   0.424  -0.408   3.625
    1PA    H15R 9788   0.506  -0.339   3.644
    1PA    H15S 9789   0.441  -0.512   3.655
    1PA    C114 9790   0.401  -0.417   3.473
    1PA    H14R 9791   0.321  -0.490   3.462
    1PA    H14S 9792   0.369  -0.322   3.431
    1PA    C113 9793   0.531  -0.470   3.411
    1PA    H13R 9794   0.618  -0.405   3.425
    1PA    H13S 9795   0.544  -0.570   3.454
    1PA    C112 9796   0.523  -0.478   3.257
    1PA    H12R 9797   0.620  -0.520   3.231
    1PA    H12S 9798   0.441  -0.537   3.216
    1PA    C111 9799   0.523  -0.337   3.196
    1PA    H11R 9800   0.427  -0.291   3.224
    1PA    H11S 9801   0.597  -0.272   3.242
    1PA    C110 9802   0.532  -0.335   3.043
    1PA    H10R 9803   0.476  -0.419   3.003
    1PA    H10S 9804   0.476  -0.250   3.003
    1PA     C19 9805   0.675  -0.335   2.987
    1PA     H9R 9806   0.725  -0.422   3.030
    1PA     H9S 9807   0.680  -0.352   2.879
    1PA     C18 9808   0.756  -0.207   3.009
    1PA     H8R 9809   0.713  -0.145   3.088
    1PA     H8S 9810   0.857  -0.237   3.039
    1PA     C17 9811   0.768  -0.116   2.886
    1PA     H7R 9812   0.827  -0.161   2.805
    1PA     H7S 9813   0.667  -0.101   2.846
    1PA     C16 9814   0.825   0.019   2.932
    1PA     H6R 9815   0.761   0.069   3.004
    1PA     H6S 9816   0.919   0.006   2.986
    1PA     C15 9817   0.842   0.113   2.812
    1PA     H5R 9818   0.909   0.064   2.741
    1PA     H5S 9819   0.754   0.139   2.753
    1PA     C14 9820   0.906   0.245   2.859
    1PA     H4R 9821   0.840   0.301   2.926
    1PA     H4S 9822   0.998   0.223   2.912
    1PA     C13 9823   0.933   0.329   2.734
    1PA     H3R 9824   1.021   0.288   2.683
    1PA     H3S 9825   0.849   0.333   2.664
    1PA     C12 9826   0.968   0.474   2.772
    1PA     H2R 9827   0.880   0.516   2.822
    1PA     H2S 9828   1.057   0.485   2.834
    2PC     C11 9829   0.993   0.550   2.644
    2PC     O12 9830   1.085   0.535   2.566
    2PC     O11 9831   0.888   0.628   2.615
    2PC      C1 9832   0.878   0.694   2.488
    2PC      HR 9833   0.785   0.750   2.484
    2PC      HS 9834   0.964   0.758   2.464
    2PC      C2 9835   0.862   0.586   2.380
    2PC      HX 9836   0.942   0.512   2.382
    2PC      C3 9837   0.860   0.638   2.235
    2PC      HA 9838   0.785   0.717   2.237
    2PC      HB 9839   0.957   0.685   2.219
    2PC     O31 9840   0.829   0.535   2.140
    2PC     P31 9841   0.856   0.579   1.988
    2PC     O32 9842   0.991   0.495   1.975
    2PC     C31 9843   0.991   0.391   1.874
    2PC     H1A 9844   0.929   0.425   1.791
    2PC     H1B 9845   1.089   0.356   1.840
    2PC     C32 9846   0.900   0.277   1.922
    2PC     H2A 9847   0.810   0.313   1.971
    2PC     H2B 9848   0.865   0.227   1.831
    2PC     N31 9849   0.960   0.180   2.019
    2PC     C33 9850   1.025   0.247   2.137
    2PC     H3A 9851   1.066   0.167   2.199
    2PC     H3B 9852   1.089   0.327   2.101
    2PC     H3C 9853   0.943   0.300   2.186
    2PC     C34 9854   0.849   0.096   2.075
    2PC     H4A 9855   0.792   0.165   2.137
    2PC     H4B 9856   0.793   0.061   1.988
    2PC     H4C 9857   0.896   0.010   2.122
    2PC     C35 9858   1.065   0.099   1.949
    2PC     H5A 9859   1.037   0.060   1.851
    2PC     H5B 9860   1.093   0.027   2.026
    2PC     H5C 9861   1.155   0.160   1.942
    2PC     O33 9862   0.729   0.535   1.928
    2PC     O34 9863   0.868   0.726   1.975
    2PC     O21 9864   0.740   0.521   2.419
    2PC     C21 9865   0.726   0.388   2.403
    2PC     O22 9866   0.814   0.310   2.375
    3OL     C12 9867   0.581   0.352   2.427
    3OL     H2R 9868   0.524   0.433   2.381
    3OL     H2S 9869   0.566   0.356   2.535
    3OL     C13 9870   0.535   0.210   2.393
    3OL     H3R 9871   0.581   0.144   2.467
    3OL     H3S 9872   0.575   0.177   2.297
    3OL     C14 9873   0.382   0.200   2.379
    3OL     H4R 9874   0.363   0.263   2.292
    3OL     H4S 9875   0.324   0.244   2.460
    3OL     C15 9876   0.333   0.056   2.357
    3OL     H5R 9877   0.359   0.019   2.258
    3OL     H5S 9878   0.224   0.050   2.352
    3OL     C16 9879   0.359  -0.041   2.473
    3OL     H6R 9880   0.467  -0.044   2.490
    3OL     H6S 9881   0.335  -0.141   2.438
    3OL     C17 9882   0.274  -0.016   2.598
    3OL     H7R 9883   0.168  -0.020   2.570
    3OL     H7S 9884   0.293   0.088   2.627
    3OL     C18 9885   0.295  -0.099   2.725
    3OL     H8R 9886   0.399  -0.086   2.756
    3OL     H8S 9887   0.284  -0.206   2.712
    3OL     C19 9888   0.194  -0.062   2.832
    3OL     H9R 9889   0.184   0.045   2.846
    3OL    C110 9890   0.122  -0.144   2.906
    3OL    H10R 9891   0.054  -0.094   2.974
    3OL    C111 9892   0.106  -0.294   2.904
    3OL    H11R 9893   0.081  -0.313   3.009
    3OL    H11S 9894   0.208  -0.331   2.894
    3OL    C112 9895  -0.007  -0.342   2.812
    3OL    H12R 9896   0.024  -0.318   2.710
    3OL    H12S 9897  -0.096  -0.285   2.840
    3OL    C113 9898  -0.030  -0.493   2.829
    3OL    H13R 9899  -0.119  -0.519   2.772
    3OL    H13S 9900  -0.059  -0.510   2.933
    3OL    C114 9901   0.089  -0.582   2.791
    3OL    H14R 9902   0.171  -0.552   2.856
    3OL    H14S 9903   0.133  -0.555   2.695
    3OL    C115 9904   0.051  -0.731   2.801
    3OL    H15R 9905  -0.033  -0.751   2.734
    3OL    H15S 9906   0.029  -0.751   2.906
    3OL    C116 9907   0.171  -0.814   2.751
    3OL    H16R 9908   0.248  -0.791   2.825
    3OL    H16S 9909   0.208  -0.783   2.653
    3OL    C117 9910   0.138  -0.964   2.752
    3OL    H17R 9911   0.079  -0.987   2.662
    3OL    H17S 9912   0.066  -0.985   2.832
    3OL    C118 9913   0.255  -1.062   2.762
    3OL    H18R 9914   0.322  -1.052   2.676
    3OL    H18S 9915   0.230  -1.168   2.756
    3OL    H18T 9916   0.305  -1.048   2.858
    1PA    C116 9917   1.144  -0.103   3.825
    1PA    H16R 9918   1.080  -0.184   3.789
    1PA    H16S 9919   1.093  -0.049   3.905
    1PA    H16T 9920   1.229  -0.151   3.875
    1PA    C115 9921   1.182  -0.004   3.714
    1PA    H15R 9922   1.256  -0.055   3.652
    1PA    H15S 9923   1.096   0.027   3.655
    1PA    C114 9924   1.247   0.122   3.773
    1PA    H14R 9925   1.184   0.175   3.846
    1PA    H14S 9926   1.335   0.087   3.827
    1PA    C113 9927   1.279   0.217   3.657
    1PA    H13R 9928   1.192   0.215   3.590
    1PA    H13S 9929   1.306   0.316   3.692
    1PA    C112 9930   1.367   0.171   3.540
    1PA    H12R 9931   1.439   0.096   3.574
    1PA    H12S 9932   1.307   0.104   3.478
    1PA    C111 9933   1.433   0.286   3.464
    1PA    H11R 9934   1.362   0.354   3.415
    1PA    H11S 9935   1.496   0.345   3.531
    1PA    C110 9936   1.509   0.237   3.340
    1PA    H10R 9937   1.585   0.169   3.382
    1PA    H10S 9938   1.443   0.184   3.272
    1PA     C19 9939   1.580   0.354   3.271
    1PA     H9R 9940   1.584   0.336   3.163
    1PA     H9S 9941   1.509   0.436   3.284
    1PA     C18 9942   1.713   0.402   3.330
    1PA     H8R 9943   1.710   0.424   3.437
    1PA     H8S 9944   1.792   0.329   3.311
    1PA     C17 9945   1.758   0.529   3.256
    1PA     H7R 9946   1.695   0.612   3.286
    1PA     H7S 9947   1.862   0.538   3.290
    1PA     C16 9948   1.757   0.523   3.103
    1PA     H6R 9949   1.655   0.507   3.068
    1PA     H6S 9950   1.784   0.622   3.066
    1PA     C15 9951   1.863   0.425   3.051
    1PA     H5R 9952   1.959   0.429   3.103
    1PA     H5S 9953   1.816   0.327   3.060
    1PA     C14 9954   1.891   0.446   2.901
    1PA     H4R 9955   1.789   0.449   2.864
    1PA     H4S 9956   1.948   0.539   2.891
    1PA     C13 9957   1.975   0.329   2.848
    1PA     H3R 9958   2.064   0.313   2.910
    1PA     H3S 9959   1.912   0.240   2.859
    1PA     C12 9960   2.006   0.371   2.704
    1PA     H2R 9961   1.909   0.390   2.658
    1PA     H2S 9962   2.066   0.462   2.699
    2PC     C11 9963   2.078   0.266   2.623
    2PC     O12 9964   2.181   0.215   2.662
    2PC     O11 9965   2.011   0.228   2.513
    2PC      C1 9966   2.050   0.117   2.430
    2PC      HR 9967   1.979   0.117   2.347
    2PC      HS 9968   2.143   0.131   2.375
    2PC      C2 9969   2.036  -0.018   2.502
    2PC      HX 9970   2.108  -0.020   2.583
    2PC      C3 9971   2.054  -0.131   2.399
    2PC      HA 9972   2.148  -0.118   2.345
    2PC      HB 9973   2.046  -0.217   2.466
    2PC     O31 9974   1.942  -0.132   2.308
    2PC     P31 9975   1.952  -0.241   2.190
    2PC     O32 9976   2.085  -0.187   2.118
    2PC     C31 9977   2.186  -0.283   2.082
    2PC     H1A 9978   2.219  -0.342   2.168
    2PC     H1B 9979   2.152  -0.351   2.004
    2PC     C32 9980   2.313  -0.217   2.028
    2PC     H2A 9981   2.347  -0.141   2.099
    2PC     H2B 9982   2.395  -0.289   2.032
    2PC     N31 9983   2.304  -0.163   1.889
    2PC     C33 9984   2.435  -0.095   1.863
    2PC     H3A 9985   2.421  -0.041   1.769
    2PC     H3B 9986   2.453  -0.026   1.946
    2PC     H3C 9987   2.521  -0.162   1.859
    2PC     C34 9988   2.274  -0.275   1.794
    2PC     H4A 9989   2.304  -0.245   1.694
    2PC     H4B 9990   2.328  -0.360   1.836
    2PC     H4C 9991   2.167  -0.295   1.799
    2PC     C35 9992   2.202  -0.055   1.869
    2PC     H5A 9993   2.225   0.017   1.947
    2PC     H5B 9994   2.105  -0.097   1.896
    2PC     H5C 9995   2.199  -0.017   1.767
    2PC     O33 9996   1.956  -0.385   2.222
    2PC     O34 9997   1.840  -0.217   2.096
    2PC     O21 9998   1.897  -0.011   2.541
    2PC     C21 9999   1.854  -0.087   2.642
    2PC     O2210000   1.929  -0.158   2.707
    3OL     C1210001   1.706  -0.073   2.667
    3OL     H2R10002   1.657  -0.151   2.609
    3OL     H2S10003   1.675   0.030   2.650
    3OL     C1310004   1.669  -0.106   2.813
    3OL     H3R10005   1.703  -0.205   2.841
    3OL     H3S10006   1.560  -0.110   2.813
    3OL     C1410007   1.721  -0.006   2.917
    3OL     H4R10008   1.726   0.094   2.875
    3OL     H4S10009   1.826  -0.026   2.937
    3OL     C1510010   1.647  -0.005   3.051
    3OL     H5R10011   1.551   0.047   3.038
    3OL     H5S10012   1.709   0.056   3.117
    3OL     C1610013   1.621  -0.137   3.125
    3OL     H6R10014   1.717  -0.186   3.105
    3OL     H6S10015   1.559  -0.201   3.062
    3OL     C1710016   1.562  -0.129   3.266
    3OL     H7R10017   1.608  -0.046   3.320
    3OL     H7S10018   1.580  -0.223   3.319
    3OL     C1810019   1.412  -0.102   3.250
    3OL     H8R10020   1.407  -0.022   3.176
    3OL     H8S10021   1.366  -0.076   3.346
    3OL     C1910022   1.328  -0.220   3.208
    3OL     H9R10023   1.323  -0.300   3.281
    3OL    C11010024   1.266  -0.239   3.093
    3OL    H10R10025   1.213  -0.333   3.077
    3OL    C11110026   1.267  -0.139   2.981
    3OL    H11R10027   1.368  -0.142   2.938
    3OL    H11S10028   1.247  -0.039   3.020
    3OL    C11210029   1.172  -0.179   2.868
    3OL    H12R10030   1.076  -0.192   2.919
    3OL    H12S10031   1.212  -0.270   2.824
    3OL    C11310032   1.157  -0.082   2.750
    3OL    H13R10033   1.150   0.022   2.783
    3OL    H13S10034   1.071  -0.112   2.691
    3OL    C11410035   1.285  -0.098   2.666
    3OL    H14R10036   1.300  -0.203   2.640
    3OL    H14S10037   1.380  -0.080   2.719
    3OL    C11510038   1.276  -0.008   2.542
    3OL    H15R10039   1.255   0.097   2.564
    3OL    H15S10040   1.185  -0.039   2.490
    3OL    C11610041   1.404  -0.023   2.458
    3OL    H16R10042   1.488   0.005   2.522
    3OL    H16S10043   1.397   0.043   2.371
    3OL    C11710044   1.438  -0.164   2.409
    3OL    H17R10045   1.359  -0.216   2.354
    3OL    H17S10046   1.448  -0.231   2.495
    3OL    C11810047   1.567  -0.160   2.326
    3OL    H18R10048   1.649  -0.159   2.397
    3OL    H18S10049   1.577  -0.263   2.292
    3OL    H18T10050   1.569  -0.084   2.247
    1PA    C11610051   1.642   4.826   4.263
    1PA    H16R10052   1.614   4.730   4.219
    1PA    H16S10053   1.742   4.801   4.298
    1PA    H16T10054   1.573   4.854   4.343
    1PA    C11510055   1.651   4.953   4.176
    1PA    H15R10056   1.555   4.983   4.135
    1PA    H15S10057   1.697   5.034   4.233
    1PA    C11410058   1.736   4.920   4.053
    1PA    H14R10059   1.834   4.895   4.095
    1PA    H14S10060   1.692   4.836   3.999
    1PA    C11310061   1.750   5.041   3.960
    1PA    H13R10062   1.659   5.065   3.905
    1PA    H13S10063   1.785   5.122   4.024
    1PA    C11210064   1.855   5.017   3.851
    1PA    H12R10065   1.889   5.115   3.819
    1PA    H12S10066   1.937   4.960   3.895
    1PA    C11110067   1.808   4.930   3.733
    1PA    H11R10068   1.802   4.825   3.765
    1PA    H11S10069   1.714   4.959   3.687
    1PA    C11010070   1.907   4.937   3.616
    1PA    H10R10071   1.919   5.044   3.597
    1PA    H10S10072   2.010   4.901   3.625
    1PA     C1910073   1.851   4.882   3.484
    1PA     H9R10074   1.830   4.775   3.476
    1PA     H9S10075   1.756   4.933   3.466
    1PA     C1810076   1.936   4.913   3.360
    1PA     H8R10077   1.962   5.019   3.363
    1PA     H8S10078   2.031   4.860   3.364
    1PA     C1710079   1.859   4.870   3.235
    1PA     H7R10080   1.866   4.761   3.240
    1PA     H7S10081   1.753   4.895   3.248
    1PA     C1610082   1.919   4.906   3.099
    1PA     H6R10083   1.915   5.013   3.077
    1PA     H6S10084   2.023   4.873   3.095
    1PA     C1510085   1.852   4.835   2.980
    1PA     H5R10086   1.863   4.727   2.989
    1PA     H5S10087   1.747   4.860   2.990
    1PA     C1410088   1.906   4.883   2.844
    1PA     H4R10089   1.892   4.991   2.834
    1PA     H4S10090   2.012   4.859   2.841
    1PA     C1310091   1.836   4.812   2.727
    1PA     H3R10092   1.844   4.704   2.743
    1PA     H3S10093   1.731   4.839   2.716
    1PA     C1210094   1.920   4.849   2.604
    1PA     H2R10095   1.909   4.955   2.578
    1PA     H2S10096   2.027   4.836   2.622
    2PC     C1110097   1.877   4.766   2.486
    2PC     O1210098   1.761   4.741   2.460
    2PC     O1110099   1.983   4.725   2.414
    2PC      C110100   1.949   4.639   2.303
    2PC      HR10101   1.893   4.556   2.347
    2PC      HS10102   1.882   4.684   2.229
    2PC      C210103   2.082   4.597   2.239
    2PC      HX10104   2.122   4.682   2.183
    2PC      C310105   2.037   4.501   2.128
    2PC      HA10106   1.998   4.407   2.168
    2PC      HB10107   1.955   4.549   2.075
    2PC     O3110108   2.151   4.489   2.042
    2PC     P3110109   2.202   4.347   1.989
    2PC     O3210110   2.344   4.328   2.061
    2PC     C3110111   2.464   4.318   1.983
    2PC     H1A10112   2.455   4.232   1.915
    2PC     H1B10113   2.475   4.402   1.914
    2PC     C3210114   2.583   4.308   2.078
    2PC     H2A10115   2.572   4.230   2.154
    2PC     H2B10116   2.676   4.271   2.034
    2PC     N3110117   2.632   4.429   2.151
    2PC     C3310118   2.750   4.397   2.239
    2PC     H3A10119   2.833   4.362   2.177
    2PC     H3B10120   2.773   4.490   2.291
    2PC     H3C10121   2.719   4.321   2.310
    2PC     C3410122   2.686   4.518   2.043
    2PC     H4A10123   2.771   4.477   1.989
    2PC     H4B10124   2.612   4.554   1.971
    2PC     H4C10125   2.726   4.606   2.094
    2PC     C3510126   2.530   4.501   2.234
    2PC     H5A10127   2.451   4.532   2.164
    2PC     H5B10128   2.579   4.587   2.280
    2PC     H5C10129   2.487   4.427   2.301
    2PC     O3310130   2.111   4.233   2.013
    2PC     O3410131   2.227   4.356   1.843
    2PC     O2110132   2.165   4.534   2.338
    2PC     C2110133   2.266   4.613   2.379
    2PC     O2210134   2.315   4.707   2.320
    3OL     C1210135   2.310   4.572   2.517
    3OL     H2R10136   2.406   4.524   2.496
    3OL     H2S10137   2.231   4.502   2.547
    3OL     C1310138   2.320   4.685   2.621
    3OL     H3R10139   2.223   4.735   2.619
    3OL     H3S10140   2.403   4.753   2.598
    3OL     C1410141   2.361   4.620   2.753
    3OL     H4R10142   2.457   4.569   2.742
    3OL     H4S10143   2.297   4.535   2.780
    3OL     C1510144   2.374   4.725   2.864
    3OL     H5R10145   2.284   4.778   2.895
    3OL     H5S10146   2.457   4.794   2.848
    3OL     C1610147   2.430   4.660   2.992
    3OL     H6R10148   2.510   4.587   2.980
    3OL     H6S10149   2.339   4.607   3.021
    3OL     C1710150   2.452   4.764   3.103
    3OL     H7R10151   2.349   4.798   3.119
    3OL     H7S10152   2.518   4.845   3.072
    3OL     C1810153   2.505   4.696   3.230
    3OL     H8R10154   2.452   4.601   3.245
    3OL     H8S10155   2.488   4.760   3.316
    3OL     C1910156   2.650   4.654   3.225
    3OL     H9R10157   2.718   4.734   3.196
    3OL    C11010158   2.696   4.534   3.258
    3OL    H10R10159   2.802   4.523   3.238
    3OL    C11110160   2.631   4.407   3.308
    3OL    H11R10161   2.691   4.319   3.282
    3OL    H11S10162   2.541   4.393   3.248
    3OL    C11210163   2.605   4.412   3.459
    3OL    H12R10164   2.528   4.486   3.484
    3OL    H12S10165   2.699   4.438   3.507
    3OL    C11310166   2.557   4.279   3.520
    3OL    H13R10167   2.579   4.291   3.626
    3OL    H13S10168   2.623   4.202   3.480
    3OL    C11410169   2.414   4.237   3.483
    3OL    H14R10170   2.398   4.246   3.375
    3OL    H14S10171   2.343   4.304   3.532
    3OL    C11510172   2.381   4.091   3.519
    3OL    H15R10173   2.420   4.039   3.432
    3OL    H15S10174   2.272   4.085   3.526
    3OL    C11610175   2.439   4.053   3.656
    3OL    H16R10176   2.403   4.129   3.726
    3OL    H16S10177   2.548   4.055   3.657
    3OL    C11710178   2.389   3.919   3.710
    3OL    H17R10179   2.399   3.835   3.641
    3OL    H17S10180   2.280   3.928   3.708
    3OL    C11810181   2.456   3.870   3.840
    3OL    H18R10182   2.559   3.836   3.839
    3OL    H18S10183   2.400   3.786   3.881
    3OL    H18T10184   2.459   3.947   3.917
    1PA    C11610185   6.797   4.562   4.394
    1PA    H16R10186   6.841   4.647   4.446
    1PA    H16S10187   6.771   4.495   4.476
    1PA    H16T10188   6.706   4.585   4.337
    1PA    C11510189   6.906   4.504   4.303
    1PA    H15R10190   6.967   4.590   4.273
    1PA    H15S10191   6.960   4.441   4.373
    1PA    C11410192   6.853   4.416   4.189
    1PA    H14R10193   6.796   4.472   4.114
    1PA    H14S10194   6.936   4.370   4.135
    1PA    C11310195   6.765   4.301   4.239
    1PA    H13R10196   6.810   4.240   4.318
    1PA    H13S10197   6.676   4.345   4.283
    1PA    C11210198   6.710   4.214   4.125
    1PA    H12R10199   6.667   4.274   4.044
    1PA    H12S10200   6.788   4.160   4.072
    1PA    C11110201   6.615   4.105   4.176
    1PA    H11R10202   6.658   4.035   4.247
    1PA    H11S10203   6.528   4.159   4.214
    1PA    C11010204   6.572   4.027   4.051
    1PA    H10R10205   6.515   4.092   3.984
    1PA    H10S10206   6.658   3.993   3.992
    1PA     C1910207   6.464   3.925   4.089
    1PA     H9R10208   6.481   3.893   4.192
    1PA     H9S10209   6.365   3.971   4.090
    1PA     C1810210   6.463   3.810   3.988
    1PA     H8R10211   6.560   3.761   3.980
    1PA     H8S10212   6.396   3.739   4.037
    1PA     C1710213   6.424   3.845   3.844
    1PA     H7R10214   6.328   3.897   3.843
    1PA     H7S10215   6.498   3.909   3.794
    1PA     C1610216   6.408   3.717   3.761
    1PA     H6R10217   6.502   3.665   3.741
    1PA     H6S10218   6.341   3.646   3.810
    1PA     C1510219   6.359   3.754   3.620
    1PA     H5R10220   6.263   3.805   3.627
    1PA     H5S10221   6.439   3.816   3.578
    1PA     C1410222   6.361   3.630   3.531
    1PA     H4R10223   6.462   3.589   3.531
    1PA     H4S10224   6.301   3.548   3.572
    1PA     C1310225   6.312   3.654   3.387
    1PA     H3R10226   6.363   3.742   3.346
    1PA     H3S10227   6.345   3.566   3.331
    1PA     C1210228   6.159   3.648   3.379
    1PA     H2R10229   6.129   3.548   3.410
    1PA     H2S10230   6.115   3.724   3.444
    2PC     C1110231   6.115   3.667   3.236
    2PC     O1210232   6.180   3.722   3.149
    2PC     O1110233   5.993   3.611   3.225
    2PC      C110234   5.922   3.619   3.100
    2PC      HR10235   5.835   3.555   3.116
    2PC      HS10236   5.894   3.722   3.077
    2PC      C210237   5.993   3.564   2.975
    2PC      HX10238   6.092   3.609   2.962
    2PC      C310239   5.912   3.606   2.852
    2PC      HA10240   5.818   3.550   2.846
    2PC      HB10241   5.895   3.714   2.852
    2PC     O3110242   5.985   3.579   2.731
    2PC     P3110243   6.079   3.693   2.669
    2PC     O3210244   6.194   3.614   2.589
    2PC     C3110245   6.325   3.671   2.581
    2PC     H1A10246   6.312   3.763   2.523
    2PC     H1B10247   6.378   3.686   2.676
    2PC     C3210248   6.404   3.583   2.483
    2PC     H2A10249   6.338   3.528   2.416
    2PC     H2B10250   6.473   3.644   2.426
    2PC     N3110251   6.499   3.483   2.541
    2PC     C3310252   6.440   3.408   2.657
    2PC     H3A10253   6.407   3.480   2.732
    2PC     H3B10254   6.352   3.361   2.613
    2PC     H3C10255   6.514   3.335   2.690
    2PC     C3410256   6.539   3.389   2.431
    2PC     H4A10257   6.602   3.443   2.359
    2PC     H4B10258   6.591   3.305   2.477
    2PC     H4C10259   6.450   3.359   2.376
    2PC     C3510260   6.625   3.553   2.581
    2PC     H5A10261   6.599   3.618   2.665
    2PC     H5B10262   6.671   3.610   2.500
    2PC     H5C10263   6.686   3.476   2.629
    2PC     O3310264   6.003   3.780   2.577
    2PC     O3410265   6.137   3.786   2.768
    2PC     O2110266   6.004   3.421   2.980
    2PC     C2110267   6.106   3.366   2.912
    2PC     O2210268   6.205   3.428   2.878
    3OL     C1210269   6.085   3.218   2.890
    3OL     H2R10270   6.101   3.161   2.982
    3OL     H2S10271   6.154   3.184   2.813
    3OL     C1310272   5.945   3.202   2.829
    3OL     H3R10273   5.929   3.274   2.749
    3OL     H3S10274   5.869   3.228   2.903
    3OL     C1410275   5.934   3.064   2.763
    3OL     H4R10276   5.997   3.055   2.674
    3OL     H4S10277   5.831   3.053   2.729
    3OL     C1510278   5.964   2.946   2.858
    3OL     H5R10279   6.063   2.949   2.903
    3OL     H5S10280   5.954   2.851   2.805
    3OL     C1610281   5.867   2.949   2.977
    3OL     H6R10282   5.762   2.950   2.944
    3OL     H6S10283   5.887   3.039   3.035
    3OL     C1710284   5.901   2.831   3.068
    3OL     H7R10285   5.997   2.840   3.120
    3OL     H7S10286   5.891   2.739   3.009
    3OL     C1810287   5.792   2.817   3.174
    3OL     H8R10288   5.696   2.813   3.123
    3OL     H8S10289   5.790   2.907   3.236
    3OL     C1910290   5.802   2.681   3.240
    3OL     H9R10291   5.781   2.594   3.179
    3OL    C11010292   5.827   2.667   3.369
    3OL    H10R10293   5.832   2.568   3.414
    3OL    C11110294   5.865   2.782   3.458
    3OL    H11R10295   5.848   2.763   3.564
    3OL    H11S10296   5.811   2.871   3.425
    3OL    C11210297   6.012   2.826   3.450
    3OL    H12R10298   6.047   2.792   3.351
    3OL    H12S10299   6.074   2.760   3.511
    3OL    C11310300   6.035   2.973   3.484
    3OL    H13R10301   6.086   2.980   3.581
    3OL    H13S10302   5.942   3.023   3.512
    3OL    C11410303   6.110   3.042   3.369
    3OL    H14R10304   6.072   3.000   3.276
    3OL    H14S10305   6.213   3.010   3.379
    3OL    C11510306   6.105   3.196   3.366
    3OL    H15R10307   6.016   3.235   3.415
    3OL    H15S10308   6.091   3.234   3.265
    3OL    C11610309   6.229   3.252   3.438
    3OL    H16R10310   6.262   3.182   3.515
    3OL    H16S10311   6.201   3.340   3.496
    3OL    C11710312   6.338   3.297   3.341
    3OL    H17R10313   6.415   3.352   3.396
    3OL    H17S10314   6.301   3.357   3.258
    3OL    C11810315   6.411   3.176   3.280
    3OL    H18R10316   6.342   3.137   3.205
    3OL    H18S10317   6.433   3.107   3.361
    3OL    H18T10318   6.503   3.203   3.227
    1PA    C11610319   1.300   3.037   3.914
    1PA    H16R10320   1.293   3.141   3.881
    1PA    H16S10321   1.405   3.011   3.896
    1PA    H16T10322   1.270   3.043   4.019
    1PA    C11510323   1.208   2.938   3.842
    1PA    H15R10324   1.250   2.930   3.742
    1PA    H15S10325   1.215   2.843   3.894
    1PA    C11410326   1.066   2.995   3.852
    1PA    H14R10327   1.047   3.021   3.957
    1PA    H14S10328   1.063   3.094   3.805
    1PA    C11310329   0.959   2.900   3.796
    1PA    H13R10330   0.954   2.797   3.831
    1PA    H13S10331   0.861   2.941   3.821
    1PA    C11210332   0.959   2.894   3.643
    1PA    H12R10333   0.959   2.998   3.609
    1PA    H12S10334   1.054   2.846   3.616
    1PA    C11110335   0.839   2.825   3.577
    1PA    H11R10336   0.802   2.750   3.648
    1PA    H11S10337   0.761   2.900   3.566
    1PA    C11010338   0.876   2.759   3.443
    1PA    H10R10339   0.901   2.839   3.373
    1PA    H10S10340   0.960   2.689   3.445
    1PA     C1910341   0.751   2.691   3.387
    1PA     H9R10342   0.720   2.612   3.455
    1PA     H9S10343   0.673   2.768   3.392
    1PA     C1810344   0.767   2.650   3.239
    1PA     H8R10345   0.668   2.643   3.195
    1PA     H8S10346   0.821   2.729   3.187
    1PA     C1710347   0.846   2.521   3.217
    1PA     H7R10348   0.944   2.536   3.264
    1PA     H7S10349   0.797   2.436   3.265
    1PA     C1610350   0.860   2.490   3.067
    1PA     H6R10351   0.761   2.478   3.024
    1PA     H6S10352   0.898   2.573   3.008
    1PA     C1510353   0.936   2.360   3.034
    1PA     H5R10354   1.037   2.368   3.076
    1PA     H5S10355   0.901   2.285   3.105
    1PA     C1410356   0.939   2.331   2.883
    1PA     H4R10357   0.961   2.422   2.827
    1PA     H4S10358   1.021   2.263   2.860
    1PA     C1310359   0.811   2.261   2.837
    1PA     H3R10360   0.793   2.186   2.914
    1PA     H3S10361   0.735   2.338   2.845
    1PA     C1210362   0.804   2.203   2.695
    1PA     H2R10363   0.844   2.101   2.688
    1PA     H2S10364   0.699   2.202   2.663
    2PC     C1110365   0.890   2.286   2.604
    2PC     O1210366   0.868   2.404   2.586
    2PC     O1110367   0.988   2.217   2.543
    2PC      C110368   1.083   2.292   2.466
    2PC      HR10369   1.150   2.217   2.423
    2PC      HS10370   1.032   2.339   2.382
    2PC      C210371   1.168   2.379   2.560
    2PC      HX10372   1.108   2.453   2.612
    2PC      C310373   1.272   2.459   2.479
    2PC      HA10374   1.230   2.530   2.407
    2PC      HB10375   1.331   2.518   2.549
    2PC     O3110376   1.350   2.362   2.406
    2PC     P3110377   1.420   2.408   2.270
    2PC     O3210378   1.390   2.287   2.169
    2PC     C3110379   1.492   2.186   2.182
    2PC     H1A10380   1.591   2.221   2.153
    2PC     H1B10381   1.507   2.158   2.287
    2PC     C3210382   1.452   2.050   2.123
    2PC     H2A10383   1.545   1.994   2.125
    2PC     H2B10384   1.385   1.997   2.191
    2PC     N3110385   1.386   2.037   1.988
    2PC     C3310386   1.247   2.089   2.005
    2PC     H3A10387   1.229   2.157   1.922
    2PC     H3B10388   1.178   2.005   1.993
    2PC     H3C10389   1.231   2.133   2.103
    2PC     C3410390   1.458   2.115   1.882
    2PC     H4A10391   1.501   2.204   1.929
    2PC     H4B10392   1.533   2.058   1.827
    2PC     H4C10393   1.378   2.143   1.814
    2PC     C3510394   1.364   1.894   1.948
    2PC     H5A10395   1.401   1.839   2.034
    2PC     H5B10396   1.435   1.877   1.867
    2PC     H5C10397   1.263   1.869   1.915
    2PC     O3310398   1.361   2.533   2.217
    2PC     O3410399   1.565   2.420   2.300
    2PC     O2110400   1.232   2.291   2.654
    2PC     C2110401   1.297   2.346   2.758
    2PC     O2210402   1.297   2.466   2.774
    3OL     C1210403   1.365   2.243   2.844
    3OL     H2R10404   1.280   2.190   2.886
    3OL     H2S10405   1.422   2.289   2.925
    3OL     C1310406   1.456   2.146   2.767
    3OL     H3R10407   1.522   2.182   2.687
    3OL     H3S10408   1.400   2.063   2.723
    3OL     C1410409   1.555   2.084   2.866
    3OL     H4R10410   1.598   2.154   2.937
    3OL     H4S10411   1.635   2.047   2.801
    3OL     C1510412   1.504   1.961   2.942
    3OL     H5R10413   1.591   1.900   2.966
    3OL     H5S10414   1.463   1.890   2.870
    3OL     C1610415   1.435   2.003   3.073
    3OL     H6R10416   1.344   2.060   3.054
    3OL     H6S10417   1.502   2.054   3.143
    3OL     C1710418   1.386   1.877   3.145
    3OL     H7R10419   1.473   1.814   3.166
    3OL     H7S10420   1.330   1.823   3.068
    3OL     C1810421   1.324   1.926   3.276
    3OL     H8R10422   1.286   1.834   3.322
    3OL     H8S10423   1.239   1.992   3.257
    3OL     C1910424   1.420   1.997   3.367
    3OL     H9R10425   1.521   1.958   3.364
    3OL    C11010426   1.402   2.114   3.426
    3OL    H10R10427   1.490   2.159   3.472
    3OL    C11110428   1.277   2.196   3.447
    3OL    H11R10429   1.193   2.131   3.472
    3OL    H11S10430   1.246   2.238   3.351
    3OL    C11210431   1.282   2.309   3.551
    3OL    H12R10432   1.292   2.257   3.647
    3OL    H12S10433   1.186   2.360   3.550
    3OL    C11310434   1.394   2.413   3.535
    3OL    H13R10435   1.389   2.465   3.439
    3OL    H13S10436   1.488   2.360   3.543
    3OL    C11410437   1.382   2.521   3.644
    3OL    H14R10438   1.425   2.486   3.738
    3OL    H14S10439   1.277   2.549   3.646
    3OL    C11510440   1.459   2.651   3.615
    3OL    H15R10441   1.555   2.625   3.571
    3OL    H15S10442   1.469   2.692   3.716
    3OL    C11610443   1.372   2.742   3.527
    3OL    H16R10444   1.299   2.789   3.594
    3OL    H16S10445   1.343   2.687   3.438
    3OL    C11710446   1.457   2.851   3.460
    3OL    H17R10447   1.403   2.883   3.371
    3OL    H17S10448   1.548   2.804   3.423
    3OL    C11810449   1.502   2.972   3.544
    3OL    H18R10450   1.554   2.938   3.634
    3OL    H18S10451   1.416   3.033   3.574
    3OL    H18T10452   1.572   3.031   3.484
    1PA    C11610453   6.672   5.021   3.794
    1PA    H16R10454   6.593   5.052   3.724
    1PA    H16S10455   6.758   4.974   3.746
    1PA    H16T10456   6.712   5.113   3.835
    1PA    C11510457   6.609   4.935   3.904
    1PA    H15R10458   6.675   4.926   3.990
    1PA    H15S10459   6.512   4.972   3.939
    1PA    C11410460   6.579   4.795   3.847
    1PA    H14R10461   6.512   4.804   3.761
    1PA    H14S10462   6.669   4.748   3.807
    1PA    C11310463   6.508   4.709   3.953
    1PA    H13R10464   6.589   4.695   4.025
    1PA    H13S10465   6.422   4.758   3.998
    1PA    C11210466   6.463   4.582   3.880
    1PA    H12R10467   6.395   4.612   3.800
    1PA    H12S10468   6.543   4.525   3.831
    1PA    C11110469   6.394   4.493   3.984
    1PA    H11R10470   6.452   4.489   4.076
    1PA    H11S10471   6.296   4.538   4.002
    1PA    C11010472   6.375   4.345   3.949
    1PA    H10R10473   6.468   4.290   3.932
    1PA    H10S10474   6.337   4.297   4.039
    1PA     C1910475   6.281   4.324   3.829
    1PA     H9R10476   6.183   4.365   3.855
    1PA     H9S10477   6.318   4.374   3.739
    1PA     C1810478   6.255   4.175   3.804
    1PA     H8R10479   6.347   4.119   3.820
    1PA     H8S10480   6.187   4.140   3.883
    1PA     C1710481   6.192   4.153   3.666
    1PA     H7R10482   6.121   4.071   3.685
    1PA     H7S10483   6.125   4.236   3.641
    1PA     C1610484   6.293   4.132   3.553
    1PA     H6R10485   6.373   4.203   3.573
    1PA     H6S10486   6.332   4.030   3.559
    1PA     C1510487   6.241   4.152   3.410
    1PA     H5R10488   6.181   4.243   3.410
    1PA     H5S10489   6.335   4.172   3.358
    1PA     C1410490   6.165   4.036   3.344
    1PA     H4R10491   6.155   4.044   3.236
    1PA     H4S10492   6.241   3.959   3.361
    1PA     C1310493   6.036   3.993   3.415
    1PA     H3R10494   5.987   3.906   3.372
    1PA     H3S10495   6.053   3.967   3.520
    1PA     C1210496   5.936   4.108   3.397
    1PA     H2R10497   5.842   4.073   3.442
    1PA     H2S10498   5.966   4.195   3.456
    2PC     C1110499   5.905   4.147   3.255
    2PC     O1210500   5.935   4.255   3.208
    2PC     O1110501   5.848   4.050   3.182
    2PC      C110502   5.821   4.082   3.044
    2PC      HR10503   5.750   4.164   3.031
    2PC      HS10504   5.917   4.118   3.006
    2PC      C210505   5.758   3.961   2.975
    2PC      HX10506   5.829   3.878   2.981
    2PC      C310507   5.708   3.974   2.830
    2PC      HA10508   5.795   3.977   2.764
    2PC      HB10509   5.663   3.881   2.793
    2PC     O3110510   5.628   4.093   2.821
    2PC     P3110511   5.550   4.134   2.687
    2PC     O3210512   5.675   4.149   2.589
    2PC     C3110513   5.641   4.133   2.450
    2PC     H1A10514   5.607   4.030   2.442
    2PC     H1B10515   5.547   4.183   2.425
    2PC     C3210516   5.768   4.170   2.370
    2PC     H2A10517   5.854   4.105   2.389
    2PC     H2B10518   5.748   4.151   2.265
    2PC     N3110519   5.813   4.312   2.368
    2PC     C3310520   5.695   4.400   2.337
    2PC     H3A10521   5.635   4.344   2.266
    2PC     H3B10522   5.650   4.434   2.430
    2PC     H3C10523   5.735   4.495   2.301
    2PC     C3410524   5.875   4.352   2.498
    2PC     H4A10525   5.931   4.445   2.485
    2PC     H4B10526   5.788   4.370   2.562
    2PC     H4C10527   5.939   4.271   2.533
    2PC     C3510528   5.914   4.339   2.260
    2PC     H5A10529   6.007   4.305   2.307
    2PC     H5B10530   5.905   4.444   2.231
    2PC     H5C10531   5.885   4.281   2.173
    2PC     O3310532   5.456   4.030   2.643
    2PC     O3410533   5.460   4.251   2.703
    2PC     O2110534   5.651   3.923   3.063
    2PC     C2110535   5.606   3.797   3.058
    2PC     O2210536   5.652   3.719   2.976
    3OL     C1210537   5.494   3.773   3.155
    3OL     H2R10538   5.442   3.678   3.137
    3OL     H2S10539   5.405   3.834   3.136
    3OL     C1310540   5.544   3.789   3.300
    3OL     H3R10541   5.460   3.797   3.369
    3OL     H3S10542   5.597   3.884   3.305
    3OL     C1410543   5.630   3.671   3.348
    3OL     H4R10544   5.717   3.670   3.283
    3OL     H4S10545   5.571   3.579   3.352
    3OL     C1510546   5.688   3.685   3.489
    3OL     H5R10547   5.603   3.685   3.557
    3OL     H5S10548   5.745   3.777   3.505
    3OL     C1610549   5.785   3.570   3.521
    3OL     H6R10550   5.869   3.549   3.455
    3OL     H6S10551   5.725   3.478   3.525
    3OL     C1710552   5.846   3.582   3.661
    3OL     H7R10553   5.769   3.594   3.738
    3OL     H7S10554   5.911   3.669   3.664
    3OL     C1810555   5.935   3.459   3.685
    3OL     H8R10556   6.011   3.475   3.762
    3OL     H8S10557   6.005   3.431   3.606
    3OL     C1910558   5.852   3.335   3.702
    3OL     H9R10559   5.761   3.328   3.642
    3OL    C11010560   5.866   3.245   3.798
    3OL    H10R10561   5.799   3.160   3.797
    3OL    C11110562   5.980   3.240   3.896
    3OL    H11R10563   5.944   3.189   3.986
    3OL    H11S10564   6.018   3.337   3.930
    3OL    C11210565   6.098   3.163   3.834
    3OL    H12R10566   6.133   3.224   3.751
    3OL    H12S10567   6.063   3.064   3.805
    3OL    C11310568   6.214   3.138   3.932
    3OL    H13R10569   6.295   3.091   3.875
    3OL    H13S10570   6.189   3.085   4.023
    3OL    C11410571   6.269   3.274   3.978
    3OL    H14R10572   6.201   3.310   4.056
    3OL    H14S10573   6.277   3.346   3.897
    3OL    C11510574   6.409   3.253   4.037
    3OL    H15R10575   6.479   3.227   3.956
    3OL    H15S10576   6.404   3.178   4.116
    3OL    C11610577   6.474   3.374   4.104
    3OL    H16R10578   6.509   3.432   4.018
    3OL    H16S10579   6.565   3.347   4.157
    3OL    C11710580   6.380   3.458   4.193
    3OL    H17R10581   6.286   3.485   4.145
    3OL    H17S10582   6.443   3.545   4.214
    3OL    C11810583   6.364   3.390   4.329
    3OL    H18R10584   6.463   3.391   4.376
    3OL    H18S10585   6.332   3.286   4.323
    3OL    H18T10586   6.300   3.455   4.389
    1PA    C11610587   2.631   4.370   3.899
    1PA    H16R10588   2.580   4.286   3.851
    1PA    H16S10589   2.604   4.369   4.005
    1PA    H16T10590   2.740   4.371   3.895
    1PA    C11510591   2.589   4.502   3.834
    1PA    H15R10592   2.638   4.579   3.894
    1PA    H15S10593   2.624   4.497   3.731
    1PA    C11410594   2.437   4.520   3.843
    1PA    H14R10595   2.392   4.423   3.820
    1PA    H14S10596   2.412   4.544   3.947
    1PA    C11310597   2.372   4.625   3.752
    1PA    H13R10598   2.424   4.721   3.747
    1PA    H13S10599   2.380   4.589   3.649
    1PA    C11210600   2.225   4.644   3.789
    1PA    H12R10601   2.207   4.633   3.896
    1PA    H12S10602   2.191   4.747   3.774
    1PA    C11110603   2.139   4.539   3.717
    1PA    H11R10604   2.188   4.441   3.716
    1PA    H11S10605   2.045   4.528   3.771
    1PA    C11010606   2.115   4.599   3.578
    1PA    H10R10607   2.007   4.615   3.573
    1PA    H10S10608   2.170   4.690   3.554
    1PA     C1910609   2.149   4.508   3.459
    1PA     H9R10610   2.258   4.501   3.450
    1PA     H9S10611   2.103   4.410   3.476
    1PA     C1810612   2.081   4.558   3.331
    1PA     H8R10613   1.972   4.552   3.336
    1PA     H8S10614   2.117   4.658   3.307
    1PA     C1710615   2.117   4.468   3.212
    1PA     H7R10616   2.224   4.471   3.191
    1PA     H7S10617   2.093   4.363   3.226
    1PA     C1610618   2.034   4.494   3.085
    1PA     H6R10619   1.929   4.469   3.101
    1PA     H6S10620   2.039   4.600   3.059
    1PA     C1510621   2.082   4.409   2.967
    1PA     H5R10622   2.191   4.405   2.963
    1PA     H5S10623   2.046   4.308   2.985
    1PA     C1410624   2.014   4.458   2.838
    1PA     H4R10625   1.906   4.465   2.853
    1PA     H4S10626   2.045   4.556   2.802
    1PA     C1310627   2.029   4.351   2.729
    1PA     H3R10628   2.133   4.328   2.709
    1PA     H3S10629   1.990   4.254   2.761
    1PA     C1210630   1.953   4.387   2.600
    1PA     H2R10631   1.846   4.392   2.620
    1PA     H2S10632   1.993   4.479   2.557
    2PC     C1110633   1.969   4.292   2.484
    2PC     O1210634   1.878   4.241   2.423
    2PC     O1110635   2.097   4.252   2.468
    2PC      C110636   2.125   4.160   2.361
    2PC      HR10637   2.096   4.060   2.392
    2PC      HS10638   2.061   4.172   2.273
    2PC      C210639   2.277   4.159   2.341
    2PC      HX10640   2.314   4.261   2.332
    2PC      C310641   2.305   4.067   2.221
    2PC      HA10642   2.262   4.114   2.132
    2PC      HB10643   2.411   4.058   2.195
    2PC     O3110644   2.233   3.946   2.248
    2PC     P3110645   2.257   3.836   2.133
    2PC     O3210646   2.140   3.855   2.026
    2PC     C3110647   2.158   3.774   1.908
    2PC     H1A10648   2.246   3.801   1.849
    2PC     H1B10649   2.170   3.670   1.939
    2PC     C3210650   2.034   3.777   1.818
    2PC     H2A10651   2.045   3.858   1.746
    2PC     H2B10652   2.039   3.681   1.767
    2PC     N3110653   1.898   3.779   1.881
    2PC     C3310654   1.807   3.746   1.767
    2PC     H3A10655   1.839   3.819   1.693
    2PC     H3B10656   1.831   3.645   1.735
    2PC     H3C10657   1.700   3.754   1.789
    2PC     C3410658   1.884   3.682   1.995
    2PC     H4A10659   1.929   3.729   2.083
    2PC     H4B10660   1.778   3.663   2.010
    2PC     H4C10661   1.933   3.588   1.971
    2PC     C3510662   1.871   3.917   1.931
    2PC     H5A10663   1.863   3.974   1.838
    2PC     H5B10664   1.950   3.962   1.991
    2PC     H5C10665   1.771   3.923   1.976
    2PC     O3310666   2.396   3.837   2.083
    2PC     O3410667   2.231   3.708   2.204
    2PC     O2110668   2.341   4.093   2.452
    2PC     C2110669   2.471   4.126   2.468
    2PC     O2210670   2.534   4.211   2.408
    3OL     C1210671   2.537   4.041   2.573
    3OL     H2R10672   2.641   4.073   2.585
    3OL     H2S10673   2.539   3.944   2.524
    3OL     C1310674   2.460   4.037   2.706
    3OL     H3R10675   2.499   3.965   2.778
    3OL     H3S10676   2.356   4.012   2.685
    3OL     C1410677   2.466   4.176   2.771
    3OL     H4R10678   2.436   4.261   2.709
    3OL     H4S10679   2.572   4.184   2.796
    3OL     C1510680   2.386   4.192   2.901
    3OL     H5R10681   2.284   4.159   2.878
    3OL     H5S10682   2.372   4.296   2.933
    3OL     C1610683   2.440   4.107   3.016
    3OL     H6R10684   2.544   4.131   3.040
    3OL     H6S10685   2.447   4.005   2.976
    3OL     C1710686   2.344   4.111   3.136
    3OL     H7R10687   2.329   4.215   3.165
    3OL     H7S10688   2.401   4.067   3.218
    3OL     C1810689   2.214   4.031   3.126
    3OL     H8R10690   2.237   3.925   3.110
    3OL     H8S10691   2.160   4.080   3.045
    3OL     C1910692   2.126   4.043   3.247
    3OL     H9R10693   2.103   4.146   3.273
    3OL    C11010694   2.075   3.941   3.314
    3OL    H10R10695   2.015   3.956   3.404
    3OL    C11110696   2.078   3.793   3.285
    3OL    H11R10697   2.112   3.781   3.182
    3OL    H11S10698   1.979   3.746   3.286
    3OL    C11210699   2.169   3.722   3.387
    3OL    H12R10700   2.267   3.767   3.404
    3OL    H12S10701   2.187   3.624   3.341
    3OL    C11310702   2.097   3.715   3.522
    3OL    H13R10703   1.998   3.673   3.501
    3OL    H13S10704   2.090   3.813   3.570
    3OL    C11410705   2.173   3.623   3.618
    3OL    H14R10706   2.282   3.637   3.619
    3OL    H14S10707   2.167   3.524   3.572
    3OL    C11510708   2.119   3.620   3.762
    3OL    H15R10709   2.010   3.620   3.767
    3OL    H15S10710   2.139   3.720   3.802
    3OL    C11610711   2.183   3.508   3.844
    3OL    H16R10712   2.289   3.515   3.818
    3OL    H16S10713   2.147   3.411   3.809
    3OL    C11710714   2.159   3.532   3.994
    3OL    H17R10715   2.052   3.546   4.015
    3OL    H17S10716   2.204   3.629   4.014
    3OL    C11810717   2.213   3.421   4.085
    3OL    H18R10718   2.319   3.392   4.081
    3OL    H18S10719   2.152   3.335   4.058
    3OL    H18T10720   2.189   3.445   4.189
    1PA    C11610721   0.723   0.928   3.797
    1PA    H16R10722   0.717   1.029   3.838
    1PA    H16S10723   0.778   0.873   3.874
    1PA    H16T10724   0.620   0.893   3.791
    1PA    C11510725   0.781   0.936   3.655
    1PA    H15R10726   0.882   0.978   3.655
    1PA    H15S10727   0.790   0.831   3.627
    1PA    C11410728   0.683   1.001   3.556
    1PA    H14R10729   0.708   0.963   3.456
    1PA    H14S10730   0.581   0.972   3.581
    1PA    C11310731   0.685   1.154   3.562
    1PA    H13R10732   0.605   1.200   3.503
    1PA    H13S10733   0.668   1.195   3.662
    1PA    C11210734   0.817   1.214   3.512
    1PA    H12R10735   0.798   1.321   3.503
    1PA    H12S10736   0.899   1.213   3.584
    1PA    C11110737   0.857   1.165   3.372
    1PA    H11R10738   0.773   1.125   3.315
    1PA    H11S10739   0.877   1.260   3.321
    1PA    C11010740   0.967   1.058   3.379
    1PA    H10R10741   1.056   1.113   3.412
    1PA    H10S10742   0.945   0.984   3.456
    1PA     C1910743   0.995   0.985   3.247
    1PA     H9R10744   1.058   0.899   3.269
    1PA     H9S10745   0.902   0.951   3.200
    1PA     C1810746   1.061   1.076   3.142
    1PA     H8R10747   0.994   1.149   3.098
    1PA     H8S10748   1.158   1.120   3.169
    1PA     C1710749   1.091   0.974   3.031
    1PA     H7R10750   1.162   0.902   3.070
    1PA     H7S10751   1.006   0.913   3.000
    1PA     C1610752   1.144   1.055   2.912
    1PA     H6R10753   1.074   1.136   2.891
    1PA     H6S10754   1.245   1.092   2.929
    1PA     C1510755   1.148   0.971   2.783
    1PA     H5R10756   1.200   0.877   2.800
    1PA     H5S10757   1.049   0.940   2.750
    1PA     C1410758   1.193   1.060   2.667
    1PA     H4R10759   1.130   1.148   2.651
    1PA     H4S10760   1.294   1.100   2.671
    1PA     C1310761   1.188   0.970   2.542
    1PA     H3R10762   1.091   0.922   2.534
    1PA     H3S10763   1.196   1.030   2.451
    1PA     C1210764   1.298   0.863   2.545
    1PA     H2R10765   1.395   0.897   2.581
    1PA     H2S10766   1.261   0.783   2.611
    2PC     C1110767   1.316   0.801   2.409
    2PC     O1210768   1.366   0.865   2.319
    2PC     O1110769   1.262   0.679   2.392
    2PC      C110770   1.292   0.599   2.276
    2PC      HR10771   1.250   0.499   2.286
    2PC      HS10772   1.247   0.647   2.188
    2PC      C210773   1.440   0.592   2.239
    2PC      HX10774   1.500   0.680   2.265
    2PC      C310775   1.462   0.564   2.090
    2PC      HA10776   1.447   0.651   2.025
    2PC      HB10777   1.560   0.517   2.077
    2PC     O3110778   1.369   0.463   2.046
    2PC     P3110779   1.373   0.425   1.891
    2PC     O3210780   1.530   0.439   1.859
    2PC     C3110781   1.555   0.465   1.719
    2PC     H1A10782   1.507   0.559   1.692
    2PC     H1B10783   1.663   0.481   1.711
    2PC     C3210784   1.517   0.349   1.626
    2PC     H2A10785   1.570   0.263   1.666
    2PC     H2B10786   1.411   0.325   1.628
    2PC     N3110787   1.552   0.358   1.480
    2PC     C3310788   1.520   0.498   1.438
    2PC     H3A10789   1.515   0.501   1.329
    2PC     H3B10790   1.418   0.516   1.471
    2PC     H3C10791   1.600   0.564   1.472
    2PC     C3410792   1.700   0.339   1.469
    2PC     H4A10793   1.729   0.239   1.500
    2PC     H4B10794   1.727   0.349   1.364
    2PC     H4C10795   1.754   0.411   1.532
    2PC     C3510796   1.492   0.240   1.410
    2PC     H5A10797   1.504   0.240   1.301
    2PC     H5B10798   1.384   0.241   1.425
    2PC     H5C10799   1.524   0.148   1.458
    2PC     O3310800   1.332   0.286   1.861
    2PC     O3410801   1.278   0.506   1.812
    2PC     O2110802   1.498   0.481   2.309
    2PC     C2110803   1.514   0.475   2.442
    2PC     O2210804   1.497   0.569   2.517
    3OL     C1210805   1.550   0.340   2.498
    3OL     H2R10806   1.647   0.320   2.454
    3OL     H2S10807   1.479   0.259   2.478
    3OL     C1310808   1.584   0.345   2.648
    3OL     H3R10809   1.652   0.429   2.664
    3OL     H3S10810   1.639   0.252   2.666
    3OL     C1410811   1.460   0.334   2.737
    3OL     H4R10812   1.397   0.259   2.688
    3OL     H4S10813   1.405   0.428   2.727
    3OL     C1510814   1.487   0.322   2.887
    3OL     H5R10815   1.547   0.407   2.922
    3OL     H5S10816   1.545   0.231   2.907
    3OL     C1610817   1.355   0.321   2.965
    3OL     H6R10818   1.382   0.289   3.065
    3OL     H6S10819   1.272   0.259   2.929
    3OL     C1710820   1.303   0.464   2.979
    3OL     H7R10821   1.280   0.492   2.875
    3OL     H7S10822   1.378   0.521   3.034
    3OL     C1810823   1.180   0.463   3.070
    3OL     H8R10824   1.117   0.386   3.024
    3OL     H8S10825   1.145   0.566   3.061
    3OL     C1910826   1.215   0.422   3.211
    3OL     H9R10827   1.322   0.435   3.228
    3OL    C11010828   1.135   0.376   3.306
    3OL    H10R10829   1.182   0.348   3.399
    3OL    C11110830   0.986   0.354   3.300
    3OL    H11R10831   0.938   0.379   3.204
    3OL    H11S10832   0.937   0.410   3.380
    3OL    C11210833   0.951   0.207   3.326
    3OL    H12R10834   0.848   0.174   3.313
    3OL    H12S10835   0.969   0.183   3.431
    3OL    C11310836   1.038   0.115   3.240
    3OL    H13R10837   1.145   0.122   3.259
    3OL    H13S10838   1.030   0.141   3.134
    3OL    C11410839   1.003  -0.034   3.255
    3OL    H14R10840   1.059  -0.086   3.177
    3OL    H14S10841   0.898  -0.053   3.231
    3OL    C11510842   1.040  -0.094   3.391
    3OL    H15R10843   0.998  -0.032   3.471
    3OL    H15S10844   1.147  -0.103   3.410
    3OL    C11610845   0.965  -0.226   3.413
    3OL    H16R10846   1.008  -0.295   3.339
    3OL    H16S10847   0.859  -0.206   3.401
    3OL    C11710848   0.982  -0.281   3.555
    3OL    H17R10849   1.081  -0.257   3.595
    3OL    H17S10850   0.976  -0.389   3.542
    3OL    C11810851   0.866  -0.249   3.651
    3OL    H18R10852   0.855  -0.143   3.675
    3OL    H18S10853   0.877  -0.312   3.740
    3OL    H18T10854   0.769  -0.273   3.608
    1PA    C11610855   0.286   3.577   4.143
    1PA    H16R10856   0.268   3.677   4.183
    1PA    H16S10857   0.212   3.506   4.179
    1PA    H16T10858   0.294   3.577   4.034
    1PA    C11510859   0.416   3.509   4.190
    1PA    H15R10860   0.484   3.575   4.136
    1PA    H15S10861   0.429   3.527   4.297
    1PA    C11410862   0.434   3.360   4.157
    1PA    H14R10863   0.543   3.349   4.158
    1PA    H14S10864   0.398   3.288   4.230
    1PA    C11310865   0.387   3.334   4.013
    1PA    H13R10866   0.281   3.361   4.006
    1PA    H13S10867   0.440   3.405   3.949
    1PA    C11210868   0.401   3.192   3.957
    1PA    H12R10869   0.503   3.161   3.982
    1PA    H12S10870   0.338   3.118   4.007
    1PA    C11110871   0.369   3.178   3.808
    1PA    H11R10872   0.267   3.211   3.786
    1PA    H11S10873   0.439   3.243   3.755
    1PA    C11010874   0.388   3.036   3.753
    1PA    H10R10875   0.493   3.008   3.760
    1PA    H10S10876   0.340   2.961   3.816
    1PA     C1910877   0.359   3.011   3.604
    1PA     H9R10878   0.365   2.904   3.584
    1PA     H9S10879   0.260   3.052   3.582
    1PA     C1810880   0.471   3.078   3.523
    1PA     H8R10881   0.499   3.177   3.557
    1PA     H8S10882   0.562   3.017   3.531
    1PA     C1710883   0.444   3.090   3.372
    1PA     H7R10884   0.345   3.133   3.351
    1PA     H7S10885   0.517   3.154   3.323
    1PA     C1610886   0.448   2.959   3.293
    1PA     H6R10887   0.551   2.924   3.282
    1PA     H6S10888   0.389   2.877   3.334
    1PA     C1510889   0.383   2.984   3.156
    1PA     H5R10890   0.275   2.991   3.172
    1PA     H5S10891   0.431   3.060   3.095
    1PA     C1410892   0.410   2.854   3.079
    1PA     H4R10893   0.426   2.768   3.144
    1PA     H4S10894   0.326   2.840   3.010
    1PA     C1310895   0.540   2.873   2.999
    1PA     H3R10896   0.537   2.965   2.941
    1PA     H3S10897   0.625   2.880   3.067
    1PA     C1210898   0.561   2.756   2.901
    1PA     H2R10899   0.562   2.658   2.949
    1PA     H2S10900   0.471   2.747   2.840
    2PC     C1110901   0.684   2.771   2.815
    2PC     O1210902   0.676   2.744   2.697
    2PC     O1110903   0.794   2.817   2.877
    2PC      C110904   0.915   2.819   2.799
    2PC      HR10905   0.946   2.716   2.782
    2PC      HS10906   0.911   2.875   2.705
    2PC      C210907   1.034   2.871   2.882
    2PC      HX10908   0.995   2.948   2.949
    2PC      C310909   1.145   2.920   2.789
    2PC      HA10910   1.146   3.026   2.762
    2PC      HB10911   1.237   2.906   2.847
    2PC     O3110912   1.164   2.834   2.675
    2PC     P3110913   1.263   2.886   2.561
    2PC     O3210914   1.377   2.773   2.552
    2PC     C3110915   1.469   2.757   2.662
    2PC     H1A10916   1.515   2.847   2.703
    2PC     H1B10917   1.407   2.711   2.740
    2PC     C3210918   1.588   2.667   2.630
    2PC     H2A10919   1.637   2.638   2.723
    2PC     H2B10920   1.563   2.573   2.582
    2PC     N3110921   1.684   2.730   2.533
    2PC     C3310922   1.800   2.635   2.531
    2PC     H3A10923   1.885   2.664   2.468
    2PC     H3B10924   1.839   2.628   2.632
    2PC     H3C10925   1.772   2.536   2.494
    2PC     C3410926   1.626   2.747   2.396
    2PC     H4A10927   1.536   2.808   2.404
    2PC     H4B10928   1.705   2.802   2.344
    2PC     H4C10929   1.603   2.649   2.354
    2PC     C3510930   1.745   2.863   2.564
    2PC     H5A10931   1.672   2.944   2.573
    2PC     H5B10932   1.828   2.883   2.495
    2PC     H5C10933   1.798   2.839   2.656
    2PC     O3310934   1.197   2.913   2.431
    2PC     O3410935   1.327   3.016   2.589
    2PC     O2110936   1.082   2.752   2.947
    2PC     C2110937   1.160   2.774   3.054
    2PC     O2210938   1.178   2.883   3.104
    3OL     C1210939   1.204   2.647   3.122
    3OL     H2R10940   1.132   2.565   3.121
    3OL     H2S10941   1.227   2.668   3.227
    3OL     C1310942   1.337   2.603   3.059
    3OL     H3R10943   1.349   2.618   2.952
    3OL     H3S10944   1.351   2.496   3.069
    3OL     C1410945   1.456   2.679   3.121
    3OL     H4R10946   1.445   2.679   3.229
    3OL     H4S10947   1.455   2.781   3.082
    3OL     C1510948   1.585   2.606   3.080
    3OL     H5R10949   1.662   2.682   3.065
    3OL     H5S10950   1.570   2.551   2.986
    3OL     C1610951   1.635   2.523   3.199
    3OL     H6R10952   1.557   2.449   3.220
    3OL     H6S10953   1.660   2.580   3.288
    3OL     C1710954   1.758   2.441   3.160
    3OL     H7R10955   1.831   2.516   3.128
    3OL     H7S10956   1.745   2.381   3.070
    3OL     C1810957   1.819   2.370   3.283
    3OL     H8R10958   1.740   2.320   3.340
    3OL     H8S10959   1.856   2.448   3.349
    3OL     C1910960   1.925   2.279   3.226
    3OL     H9R10961   2.010   2.327   3.179
    3OL    C11010962   1.924   2.147   3.236
    3OL    H10R10963   2.003   2.086   3.194
    3OL    C11110964   1.810   2.068   3.295
    3OL    H11R10965   1.777   1.989   3.227
    3OL    H11S10966   1.719   2.121   3.321
    3OL    C11210967   1.847   2.001   3.428
    3OL    H12R10968   1.951   1.969   3.423
    3OL    H12S10969   1.777   1.919   3.446
    3OL    C11310970   1.824   2.109   3.534
    3OL    H13R10971   1.722   2.147   3.542
    3OL    H13S10972   1.889   2.194   3.510
    3OL    C11410973   1.862   2.070   3.678
    3OL    H14R10974   1.969   2.052   3.689
    3OL    H14S10975   1.813   1.974   3.697
    3OL    C11510976   1.824   2.174   3.784
    3OL    H15R10977   1.852   2.276   3.757
    3OL    H15S10978   1.870   2.151   3.880
    3OL    C11610979   1.674   2.165   3.817
    3OL    H16R10980   1.650   2.063   3.847
    3OL    H16S10981   1.618   2.183   3.725
    3OL    C11710982   1.633   2.269   3.922
    3OL    H17R10983   1.638   2.367   3.874
    3OL    H17S10984   1.704   2.269   4.005
    3OL    C11810985   1.493   2.236   3.976
    3OL    H18R10986   1.505   2.143   4.032
    3OL    H18S10987   1.420   2.210   3.899
    3OL    H18T10988   1.451   2.311   4.043
    1PA    C11610989   0.565   5.162   4.034
    1PA    H16R10990   0.563   5.080   3.962
    1PA    H16S10991   0.466   5.157   4.079
    1PA    H16T10992   0.645   5.147   4.107
    1PA    C11510993   0.595   5.295   3.963
    1PA    H15R10994   0.540   5.289   3.869
    1PA    H15S10995   0.566   5.378   4.029
    1PA    C11410996   0.745   5.306   3.936
    1PA    H14R10997   0.761   5.409   3.903
    1PA    H14S10998   0.794   5.306   4.034
    1PA    C11310999   0.797   5.198   3.839
    1PA    H13R11000   0.777   5.104   3.891
    1PA    H13S11001   0.731   5.194   3.752
    1PA    C11211002   0.944   5.219   3.803
    1PA    H12R11003   0.994   5.264   3.888
    1PA    H12S11004   1.003   5.129   3.786
    1PA    C11111005   0.952   5.307   3.677
    1PA    H11R11006   0.897   5.401   3.686
    1PA    H11S11007   1.057   5.329   3.660
    1PA    C11011008   0.911   5.232   3.548
    1PA    H10R11009   0.962   5.136   3.542
    1PA    H10S11010   0.803   5.215   3.552
    1PA     C1911011   0.951   5.312   3.423
    1PA     H9R11012   0.911   5.413   3.430
    1PA     H9S11013   1.059   5.325   3.417
    1PA     C1811014   0.899   5.231   3.303
    1PA     H8R11015   0.952   5.136   3.308
    1PA     H8S11016   0.792   5.216   3.309
    1PA     C1711017   0.944   5.292   3.169
    1PA     H7R11018   0.902   5.391   3.147
    1PA     H7S11019   1.053   5.298   3.166
    1PA     C1611020   0.909   5.199   3.052
    1PA     H6R11021   0.932   5.097   3.084
    1PA     H6S11022   0.801   5.207   3.037
    1PA     C1511023   0.984   5.232   2.922
    1PA     H5R11024   1.091   5.249   2.939
    1PA     H5S11025   0.977   5.142   2.859
    1PA     C1411026   0.932   5.345   2.831
    1PA     H4R11027   0.824   5.336   2.823
    1PA     H4S11028   0.945   5.439   2.885
    1PA     C1311029   1.005   5.354   2.697
    1PA     H3R11030   0.994   5.262   2.639
    1PA     H3S11031   0.950   5.430   2.641
    1PA     C1211032   1.156   5.380   2.706
    1PA     H2R11033   1.172   5.466   2.771
    1PA     H2S11034   1.200   5.298   2.763
    2PC     C1111035   1.227   5.391   2.573
    2PC     O1211036   1.175   5.359   2.468
    2PC     O1111037   1.340   5.463   2.581
    2PC      C111038   1.430   5.478   2.469
    2PC      HR11039   1.529   5.501   2.509
    2PC      HS11040   1.442   5.387   2.410
    2PC      C211041   1.377   5.589   2.377
    2PC      HX11042   1.268   5.582   2.363
    2PC      C311043   1.453   5.601   2.244
    2PC      HA11044   1.394   5.533   2.181
    2PC      HB11045   1.463   5.700   2.200
    2PC     O3111046   1.587   5.548   2.250
    2PC     P3111047   1.657   5.469   2.130
    2PC     O3211048   1.793   5.446   2.210
    2PC     C3111049   1.899   5.540   2.184
    2PC     H1A11050   1.955   5.498   2.100
    2PC     H1B11051   1.866   5.641   2.158
    2PC     C3211052   1.996   5.539   2.303
    2PC     H2A11053   2.024   5.436   2.321
    2PC     H2B11054   2.090   5.590   2.281
    2PC     N3111055   1.940   5.616   2.419
    2PC     C3311056   1.823   5.549   2.484
    2PC     H3A11057   1.796   5.613   2.568
    2PC     H3B11058   1.746   5.539   2.407
    2PC     H3C11059   1.860   5.454   2.522
    2PC     C3411060   2.042   5.628   2.528
    2PC     H4A11061   2.106   5.713   2.503
    2PC     H4B11062   2.002   5.660   2.624
    2PC     H4C11063   2.102   5.537   2.527
    2PC     C3511064   1.894   5.752   2.376
    2PC     H5A11065   1.961   5.810   2.312
    2PC     H5B11066   1.871   5.816   2.462
    2PC     H5C11067   1.798   5.750   2.326
    2PC     O3311068   1.594   5.345   2.078
    2PC     O3411069   1.658   5.569   2.021
    2PC     O2111070   1.388   5.721   2.434
    2PC     C2111071   1.494   5.779   2.492
    2PC     O2211072   1.599   5.722   2.511
    3OL     C1211073   1.466   5.915   2.551
    3OL     H2R11074   1.358   5.927   2.548
    3OL     H2S11075   1.511   5.992   2.488
    3OL     C1311076   1.502   5.924   2.699
    3OL     H3R11077   1.484   6.023   2.742
    3OL     H3S11078   1.610   5.905   2.703
    3OL     C1411079   1.430   5.827   2.794
    3OL     H4R11080   1.325   5.822   2.765
    3OL     H4S11081   1.425   5.871   2.894
    3OL     C1511082   1.472   5.682   2.819
    3OL     H5R11083   1.577   5.665   2.844
    3OL     H5S11084   1.457   5.630   2.724
    3OL     C1611085   1.388   5.616   2.929
    3OL     H6R11086   1.284   5.605   2.897
    3OL     H6S11087   1.390   5.682   3.015
    3OL     C1711088   1.443   5.475   2.956
    3OL     H7R11089   1.542   5.486   3.001
    3OL     H7S11090   1.447   5.430   2.857
    3OL     C1811091   1.353   5.398   3.055
    3OL     H8R11092   1.247   5.390   3.031
    3OL     H8S11093   1.356   5.452   3.150
    3OL     C1911094   1.400   5.255   3.056
    3OL     H9R11095   1.369   5.201   2.967
    3OL    C11011096   1.466   5.196   3.155
    3OL    H10R11097   1.497   5.092   3.144
    3OL    C11111098   1.523   5.261   3.278
    3OL    H11R11099   1.509   5.369   3.271
    3OL    H11S11100   1.629   5.236   3.282
    3OL    C11211101   1.458   5.219   3.411
    3OL    H12R11102   1.459   5.110   3.419
    3OL    H12S11103   1.356   5.258   3.414
    3OL    C11311104   1.534   5.303   3.515
    3OL    H13R11105   1.518   5.410   3.502
    3OL    H13S11106   1.642   5.285   3.519
    3OL    C11411107   1.478   5.251   3.647
    3OL    H14R11108   1.530   5.155   3.658
    3OL    H14S11109   1.368   5.250   3.643
    3OL    C11511110   1.507   5.348   3.762
    3OL    H15R11111   1.468   5.444   3.726
    3OL    H15S11112   1.612   5.379   3.767
    3OL    C11611113   1.445   5.305   3.895
    3OL    H16R11114   1.490   5.210   3.924
    3OL    H16S11115   1.337   5.305   3.881
    3OL    C11711116   1.485   5.403   4.007
    3OL    H17R11117   1.589   5.431   3.990
    3OL    H17S11118   1.494   5.350   4.102
    3OL    C11811119   1.399   5.530   4.019
    3OL    H18R11120   1.441   5.586   4.102
    3OL    H18S11121   1.294   5.503   4.030
    3OL    H18T11122   1.413   5.595   3.932
    1PA    C11611123   1.104   3.447   2.872
    1PA    H16R11124   1.043   3.360   2.847
    1PA    H16S11125   1.066   3.547   2.850
    1PA    H16T11126   1.107   3.452   2.981
    1PA    C11511127   1.245   3.443   2.811
    1PA    H15R11128   1.275   3.340   2.790
    1PA    H15S11129   1.239   3.501   2.719
    1PA    C11411130   1.344   3.496   2.916
    1PA    H14R11131   1.315   3.469   3.017
    1PA    H14S11132   1.437   3.442   2.893
    1PA    C11311133   1.368   3.647   2.918
    1PA    H13R11134   1.423   3.682   2.830
    1PA    H13S11135   1.272   3.698   2.931
    1PA    C11211136   1.460   3.684   3.035
    1PA    H12R11137   1.403   3.673   3.127
    1PA    H12S11138   1.542   3.611   3.034
    1PA    C11111139   1.513   3.828   3.046
    1PA    H11R11140   1.545   3.862   2.948
    1PA    H11S11141   1.445   3.899   3.093
    1PA    C11011142   1.640   3.832   3.132
    1PA    H10R11143   1.621   3.787   3.229
    1PA    H10S11144   1.707   3.766   3.076
    1PA     C1911145   1.700   3.973   3.148
    1PA     H9R11146   1.632   4.040   3.200
    1PA     H9S11147   1.789   3.967   3.210
    1PA     C1811148   1.723   4.051   3.018
    1PA     H8R11149   1.638   4.044   2.950
    1PA     H8S11150   1.738   4.158   3.032
    1PA     C1711151   1.849   3.999   2.948
    1PA     H7R11152   1.893   4.085   2.897
    1PA     H7S11153   1.923   3.969   3.022
    1PA     C1611154   1.816   3.894   2.840
    1PA     H6R11155   1.829   3.800   2.893
    1PA     H6S11156   1.714   3.896   2.802
    1PA     C1511157   1.921   3.895   2.729
    1PA     H5R11158   1.891   3.831   2.645
    1PA     H5S11159   1.921   3.994   2.683
    1PA     C1411160   2.068   3.881   2.770
    1PA     H4R11161   2.128   3.899   2.680
    1PA     H4S11162   2.096   3.966   2.833
    1PA     C1311163   2.104   3.750   2.841
    1PA     H3R11164   2.050   3.759   2.936
    1PA     H3S11165   2.061   3.664   2.789
    1PA     C1211166   2.255   3.733   2.865
    1PA     H2R11167   2.300   3.824   2.905
    1PA     H2S11168   2.261   3.651   2.937
    2PC     C1111169   2.329   3.698   2.739
    2PC     O1211170   2.272   3.675   2.634
    2PC     O1111171   2.461   3.704   2.761
    2PC      C111172   2.547   3.660   2.655
    2PC      HR11173   2.528   3.554   2.635
    2PC      HS11174   2.517   3.712   2.564
    2PC      C211175   2.686   3.696   2.710
    2PC      HX11176   2.690   3.791   2.762
    2PC      C311177   2.789   3.699   2.597
    2PC      HA11178   2.762   3.770   2.518
    2PC      HB11179   2.887   3.732   2.634
    2PC     O3111180   2.801   3.567   2.540
    2PC     P3111181   2.880   3.541   2.404
    2PC     O3211182   2.787   3.431   2.335
    2PC     C3111183   2.706   3.473   2.223
    2PC     H1A11184   2.638   3.548   2.264
    2PC     H1B11185   2.768   3.498   2.137
    2PC     C3211186   2.606   3.363   2.182
    2PC     H2A11187   2.659   3.269   2.165
    2PC     H2B11188   2.538   3.349   2.266
    2PC     N3111189   2.532   3.383   2.054
    2PC     C3311190   2.440   3.264   2.043
    2PC     H3A11191   2.399   3.249   2.143
    2PC     H3B11192   2.363   3.295   1.972
    2PC     H3C11193   2.490   3.171   2.017
    2PC     C3411194   2.445   3.505   2.053
    2PC     H4A11195   2.363   3.487   1.983
    2PC     H4B11196   2.418   3.519   2.157
    2PC     H4C11197   2.499   3.594   2.021
    2PC     C3511198   2.619   3.389   1.932
    2PC     H5A11199   2.559   3.399   1.841
    2PC     H5B11200   2.686   3.303   1.926
    2PC     H5C11201   2.687   3.474   1.944
    2PC     O3311202   2.919   3.649   2.309
    2PC     O3411203   3.018   3.490   2.426
    2PC     O2111204   2.732   3.588   2.794
    2PC     C2111205   2.830   3.614   2.882
    2PC     O2211206   2.887   3.720   2.900
    3OL     C1211207   2.863   3.492   2.964
    3OL     H2R11208   2.885   3.417   2.887
    3OL     H2S11209   2.766   3.471   3.010
    3OL     C1311210   2.972   3.506   3.071
    3OL     H3R11211   2.942   3.584   3.141
    3OL     H3S11212   3.062   3.541   3.019
    3OL     C1411213   3.000   3.368   3.132
    3OL     H4R11214   3.008   3.294   3.052
    3OL     H4S11215   2.906   3.338   3.180
    3OL     C1511216   3.116   3.349   3.230
    3OL     H5R11217   3.211   3.376   3.183
    3OL     H5S11218   3.127   3.243   3.252
    3OL     C1611219   3.079   3.431   3.355
    3OL     H6R11220   3.116   3.365   3.434
    3OL     H6S11221   2.973   3.431   3.380
    3OL     C1711222   3.150   3.567   3.366
    3OL     H7R11223   3.129   3.620   3.273
    3OL     H7S11224   3.258   3.551   3.366
    3OL     C1811225   3.104   3.639   3.493
    3OL     H8R11226   3.009   3.693   3.486
    3OL     H8S11227   3.176   3.719   3.510
    3OL     C1911228   3.112   3.547   3.612
    3OL     H9R11229   3.039   3.466   3.617
    3OL    C11011230   3.194   3.560   3.715
    3OL    H10R11231   3.173   3.489   3.795
    3OL    C11111232   3.304   3.662   3.732
    3OL    H11R11233   3.336   3.664   3.836
    3OL    H11S11234   3.271   3.764   3.711
    3OL    C11211235   3.426   3.631   3.644
    3OL    H12R11236   3.496   3.715   3.637
    3OL    H12S11237   3.383   3.633   3.543
    3OL    C11311238   3.502   3.501   3.673
    3OL    H13R11239   3.549   3.470   3.579
    3OL    H13S11240   3.423   3.432   3.702
    3OL    C11411241   3.602   3.514   3.788
    3OL    H14R11242   3.548   3.525   3.883
    3OL    H14S11243   3.669   3.600   3.784
    3OL    C11511244   3.674   3.379   3.794
    3OL    H15R11245   3.609   3.291   3.797
    3OL    H15S11246   3.717   3.364   3.893
    3OL    C11611247   3.780   3.352   3.686
    3OL    H16R11248   3.736   3.335   3.588
    3OL    H16S11249   3.821   3.258   3.725
    3OL    C11711250   3.882   3.466   3.676
    3OL    H17R11251   3.919   3.497   3.774
    3OL    H17S11252   3.834   3.555   3.634
    3OL    C11811253   3.992   3.423   3.578
    3OL    H18R11254   3.947   3.403   3.480
    3OL    H18S11255   4.034   3.330   3.615
    3OL    H18T11256   4.065   3.503   3.562
    1PA    C11611257   3.765   2.398   3.981
    1PA    H16R11258   3.716   2.410   4.078
    1PA    H16S11259   3.715   2.470   3.917
    1PA    H16T11260   3.864   2.443   3.990
    1PA    C11511261   3.752   2.256   3.924
    1PA    H15R11262   3.819   2.190   3.980
    1PA    H15S11263   3.649   2.230   3.947
    1PA    C11411264   3.791   2.254   3.776
    1PA    H14R11265   3.728   2.334   3.736
    1PA    H14S11266   3.895   2.287   3.766
    1PA    C11311267   3.763   2.128   3.693
    1PA    H13R11268   3.809   2.044   3.746
    1PA    H13S11269   3.656   2.108   3.693
    1PA    C11211270   3.813   2.139   3.548
    1PA    H12R11271   3.915   2.177   3.548
    1PA    H12S11272   3.814   2.042   3.499
    1PA    C11111273   3.715   2.219   3.461
    1PA    H11R11274   3.620   2.168   3.448
    1PA    H11S11275   3.714   2.319   3.504
    1PA    C11011276   3.780   2.229   3.322
    1PA    H10R11277   3.882   2.268   3.318
    1PA    H10S11278   3.791   2.129   3.281
    1PA     C1911279   3.683   2.314   3.239
    1PA     H9R11280   3.585   2.266   3.235
    1PA     H9S11281   3.677   2.416   3.279
    1PA     C1811282   3.752   2.329   3.103
    1PA     H8R11283   3.857   2.355   3.108
    1PA     H8S11284   3.750   2.230   3.056
    1PA     C1711285   3.678   2.408   2.993
    1PA     H7R11286   3.723   2.385   2.896
    1PA     H7S11287   3.572   2.381   2.994
    1PA     C1611288   3.693   2.558   3.021
    1PA     H6R11289   3.638   2.578   3.113
    1PA     H6S11290   3.797   2.583   3.041
    1PA     C1511291   3.651   2.647   2.903
    1PA     H5R11292   3.688   2.613   2.806
    1PA     H5S11293   3.544   2.636   2.888
    1PA     C1411294   3.680   2.795   2.928
    1PA     H4R11295   3.611   2.835   3.002
    1PA     H4S11296   3.780   2.808   2.969
    1PA     C1311297   3.656   2.871   2.797
    1PA     H3R11298   3.738   2.867   2.726
    1PA     H3S11299   3.569   2.831   2.743
    1PA     C1211300   3.655   3.022   2.826
    1PA     H2R11301   3.570   3.033   2.893
    1PA     H2S11302   3.745   3.063   2.872
    2PC     C1111303   3.623   3.095   2.698
    2PC     O1211304   3.565   3.054   2.599
    2PC     O1111305   3.666   3.222   2.698
    2PC      C111306   3.652   3.315   2.589
    2PC      HR11307   3.713   3.404   2.605
    2PC      HS11308   3.694   3.273   2.497
    2PC      C211309   3.502   3.337   2.564
    2PC      HX11310   3.445   3.246   2.585
    2PC      C311311   3.483   3.393   2.422
    2PC      HA11312   3.506   3.312   2.353
    2PC      HB11313   3.380   3.428   2.408
    2PC     O3111314   3.585   3.488   2.386
    2PC     P3111315   3.572   3.554   2.240
    2PC     O3211316   3.467   3.670   2.276
    2PC     C3111317   3.332   3.652   2.230
    2PC     H1A11318   3.319   3.712   2.139
    2PC     H1B11319   3.314   3.546   2.209
    2PC     C3211320   3.236   3.703   2.338
    2PC     H2A11321   3.138   3.674   2.299
    2PC     H2B11322   3.245   3.654   2.435
    2PC     N3111323   3.236   3.849   2.370
    2PC     C3311324   3.359   3.893   2.443
    2PC     H3A11325   3.337   3.970   2.516
    2PC     H3B11326   3.396   3.802   2.491
    2PC     H3C11327   3.429   3.914   2.362
    2PC     C3411328   3.207   3.939   2.254
    2PC     H4A11329   3.115   3.901   2.208
    2PC     H4B11330   3.188   4.042   2.282
    2PC     H4C11331   3.286   3.942   2.178
    2PC     C3511332   3.116   3.866   2.459
    2PC     H5A11333   3.108   3.794   2.541
    2PC     H5B11334   3.034   3.859   2.388
    2PC     H5C11335   3.127   3.965   2.504
    2PC     O3311336   3.698   3.603   2.179
    2PC     O3411337   3.524   3.451   2.146
    2PC     O2111338   3.452   3.440   2.651
    2PC     C2111339   3.427   3.411   2.779
    2PC     O2211340   3.399   3.299   2.818
    3OL     C1211341   3.459   3.532   2.863
    3OL     H2R11342   3.405   3.615   2.817
    3OL     H2S11343   3.566   3.555   2.855
    3OL     C1311344   3.431   3.502   3.011
    3OL     H3R11345   3.490   3.414   3.036
    3OL     H3S11346   3.329   3.466   3.022
    3OL     C1411347   3.458   3.621   3.105
    3OL     H4R11348   3.564   3.648   3.096
    3OL     H4S11349   3.443   3.577   3.204
    3OL     C1511350   3.362   3.740   3.095
    3OL     H5R11351   3.270   3.712   3.146
    3OL     H5S11352   3.332   3.758   2.992
    3OL     C1611353   3.418   3.872   3.151
    3OL     H6R11354   3.364   3.952   3.101
    3OL     H6S11355   3.520   3.885   3.116
    3OL     C1711356   3.410   3.883   3.304
    3OL     H7R11357   3.473   3.806   3.349
    3OL     H7S11358   3.306   3.861   3.330
    3OL     C1811359   3.450   4.022   3.356
    3OL     H8R11360   3.404   4.107   3.306
    3OL     H8S11361   3.559   4.026   3.350
    3OL     C1911362   3.394   4.028   3.496
    3OL     H9R11363   3.286   4.028   3.510
    3OL    C11011364   3.463   4.059   3.605
    3OL    H10R11365   3.401   4.078   3.692
    3OL    C11111366   3.612   4.072   3.620
    3OL    H11R11367   3.669   4.086   3.527
    3OL    H11S11368   3.635   3.979   3.671
    3OL    C11211369   3.644   4.191   3.712
    3OL    H12R11370   3.749   4.180   3.742
    3OL    H12S11371   3.590   4.189   3.807
    3OL    C11311372   3.626   4.331   3.652
    3OL    H13R11373   3.520   4.353   3.638
    3OL    H13S11374   3.680   4.323   3.558
    3OL    C11411375   3.686   4.444   3.737
    3OL    H14R11376   3.691   4.538   3.683
    3OL    H14S11377   3.788   4.425   3.769
    3OL    C11511378   3.616   4.472   3.871
    3OL    H15R11379   3.636   4.386   3.936
    3OL    H15S11380   3.509   4.475   3.852
    3OL    C11611381   3.659   4.598   3.947
    3OL    H16R11382   3.643   4.684   3.881
    3OL    H16S11383   3.763   4.584   3.977
    3OL    C11711384   3.574   4.623   4.072
    3OL    H17R11385   3.475   4.600   4.032
    3OL    H17S11386   3.583   4.731   4.085
    3OL    C11811387   3.600   4.532   4.193
    3OL    H18R11388   3.524   4.550   4.269
    3OL    H18S11389   3.698   4.550   4.240
    3OL    H18T11390   3.602   4.429   4.158
    1PA    C11611391   5.390   5.821   4.385
    1PA    H16R11392   5.453   5.866   4.462
    1PA    H16S11393   5.398   5.712   4.387
    1PA    H16T11394   5.289   5.855   4.406
    1PA    C11511395   5.431   5.872   4.246
    1PA    H15R11396   5.415   5.980   4.252
    1PA    H15S11397   5.538   5.854   4.241
    1PA    C11411398   5.363   5.808   4.124
    1PA    H14R11399   5.430   5.824   4.039
    1PA    H14S11400   5.339   5.704   4.146
    1PA    C11311401   5.232   5.882   4.091
    1PA    H13R11402   5.162   5.890   4.174
    1PA    H13S11403   5.273   5.980   4.065
    1PA    C11211404   5.169   5.811   3.971
    1PA    H12R11405   5.207   5.708   3.965
    1PA    H12S11406   5.062   5.794   3.987
    1PA    C11111407   5.195   5.893   3.844
    1PA    H11R11408   5.131   5.980   3.862
    1PA    H11S11409   5.299   5.922   3.832
    1PA    C11011410   5.150   5.821   3.716
    1PA    H10R11411   5.191   5.721   3.705
    1PA    H10S11412   5.041   5.818   3.717
    1PA     C1911413   5.175   5.900   3.587
    1PA     H9R11414   5.096   5.974   3.571
    1PA     H9S11415   5.268   5.957   3.596
    1PA     C1811416   5.145   5.809   3.467
    1PA     H8R11417   5.211   5.723   3.483
    1PA     H8S11418   5.043   5.772   3.476
    1PA     C1711419   5.153   5.874   3.328
    1PA     H7R11420   5.111   5.973   3.342
    1PA     H7S11421   5.257   5.903   3.309
    1PA     C1611422   5.091   5.788   3.217
    1PA     H6R11423   5.149   5.697   3.202
    1PA     H6S11424   4.990   5.767   3.252
    1PA     C1511425   5.084   5.871   3.088
    1PA     H5R11426   5.040   5.968   3.111
    1PA     H5S11427   5.188   5.885   3.056
    1PA     C1411428   5.002   5.802   2.979
    1PA     H4R11429   5.066   5.721   2.942
    1PA     H4S11430   4.911   5.756   3.019
    1PA     C1311431   4.973   5.901   2.866
    1PA     H3R11432   4.886   5.873   2.806
    1PA     H3S11433   4.939   5.997   2.906
    1PA     C1211434   5.095   5.916   2.774
    1PA     H2R11435   5.082   6.012   2.722
    1PA     H2S11436   5.181   5.936   2.837
    2PC     C1111437   5.117   5.794   2.689
    2PC     O1211438   5.022   5.743   2.633
    2PC     O1111439   5.246   5.758   2.675
    2PC      C111440   5.280   5.646   2.591
    2PC      HR11441   5.218   5.641   2.501
    2PC      HS11442   5.381   5.664   2.553
    2PC      C211443   5.282   5.517   2.675
    2PC      HX11444   5.341   5.525   2.766
    2PC      C311445   5.344   5.412   2.582
    2PC      HA11446   5.442   5.451   2.555
    2PC      HB11447   5.351   5.312   2.625
    2PC     O3111448   5.276   5.401   2.455
    2PC     P3111449   5.341   5.308   2.342
    2PC     O3211450   5.238   5.187   2.316
    2PC     C3111451   5.210   5.082   2.410
    2PC     H1A11452   5.296   5.042   2.462
    2PC     H1B11453   5.135   5.115   2.483
    2PC     C3211454   5.135   4.970   2.335
    2PC     H2A11455   5.088   4.903   2.407
    2PC     H2B11456   5.056   5.018   2.278
    2PC     N3111457   5.214   4.882   2.243
    2PC     C3311458   5.123   4.791   2.166
    2PC     H3A11459   5.066   4.738   2.243
    2PC     H3B11460   5.054   4.856   2.113
    2PC     H3C11461   5.175   4.727   2.095
    2PC     C3411462   5.297   4.957   2.143
    2PC     H4A11463   5.386   5.000   2.188
    2PC     H4B11464   5.334   4.881   2.074
    2PC     H4C11465   5.227   5.028   2.098
    2PC     C3511466   5.319   4.806   2.319
    2PC     H5A11467   5.383   4.741   2.259
    2PC     H5B11468   5.280   4.740   2.396
    2PC     H5C11469   5.376   4.875   2.381
    2PC     O3311470   5.366   5.398   2.227
    2PC     O3411471   5.475   5.265   2.387
    2PC     O2111472   5.148   5.485   2.717
    2PC     C2111473   5.133   5.385   2.805
    2PC     O2211474   5.228   5.317   2.838
    3OL     C1211475   5.007   5.393   2.887
    3OL     H2R11476   4.966   5.292   2.882
    3OL     H2S11477   4.940   5.470   2.846
    3OL     C1311478   5.033   5.430   3.034
    3OL     H3R11479   5.077   5.529   3.048
    3OL     H3S11480   5.106   5.355   3.066
    3OL     C1411481   4.904   5.426   3.116
    3OL     H4R11482   4.862   5.326   3.098
    3OL     H4S11483   4.841   5.499   3.065
    3OL     C1511484   4.932   5.461   3.263
    3OL     H5R11485   4.968   5.564   3.262
    3OL     H5S11486   5.022   5.406   3.293
    3OL     C1611487   4.810   5.465   3.356
    3OL     H6R11488   4.762   5.369   3.377
    3OL     H6S11489   4.733   5.522   3.302
    3OL     C1711490   4.863   5.507   3.494
    3OL     H7R11491   4.893   5.611   3.486
    3OL     H7S11492   4.944   5.439   3.522
    3OL     C1811493   4.753   5.504   3.601
    3OL     H8R11494   4.753   5.399   3.630
    3OL     H8S11495   4.659   5.527   3.550
    3OL     C1911496   4.788   5.606   3.706
    3OL     H9R11497   4.820   5.703   3.668
    3OL    C11011498   4.803   5.580   3.835
    3OL    H10R11499   4.848   5.660   3.893
    3OL    C11111500   4.750   5.459   3.907
    3OL    H11R11501   4.719   5.385   3.832
    3OL    H11S11502   4.657   5.479   3.961
    3OL    C11211503   4.857   5.400   4.000
    3OL    H12R11504   4.953   5.391   3.949
    3OL    H12S11505   4.826   5.297   4.021
    3OL    C11311506   4.862   5.489   4.126
    3OL    H13R11507   4.760   5.489   4.166
    3OL    H13S11508   4.883   5.594   4.105
    3OL    C11411509   4.960   5.436   4.231
    3OL    H14R11510   5.058   5.431   4.182
    3OL    H14S11511   4.935   5.336   4.268
    3OL    C11511512   4.984   5.528   4.351
    3OL    H15R11513   4.897   5.531   4.416
    3OL    H15S11514   4.995   5.630   4.313
    3OL    C11611515   5.109   5.486   4.431
    3OL    H16R11516   5.192   5.501   4.361
    3OL    H16S11517   5.113   5.382   4.464
    3OL    C11711518   5.126   5.575   4.554
    3OL    H17R11519   5.035   5.571   4.615
    3OL    H17S11520   5.147   5.678   4.524
    3OL    C11811521   5.252   5.544   4.637
    3OL    H18R11522   5.346   5.559   4.583
    3OL    H18S11523   5.235   5.440   4.664
    3OL    H18T11524   5.263   5.606   4.727
    1PA    C11611525   3.273   3.635   4.252
    1PA    H16R11526   3.281   3.717   4.324
    1PA    H16S11527   3.349   3.652   4.175
    1PA    H16T11528   3.291   3.550   4.318
    1PA    C11511529   3.131   3.615   4.197
    1PA    H15R11530   3.125   3.514   4.156
    1PA    H15S11531   3.052   3.625   4.271
    1PA    C11411532   3.102   3.721   4.090
    1PA    H14R11533   3.092   3.820   4.135
    1PA    H14S11534   3.173   3.719   4.007
    1PA    C11311535   2.969   3.681   4.025
    1PA    H13R11536   2.970   3.577   3.991
    1PA    H13S11537   2.887   3.691   4.097
    1PA    C11211538   2.943   3.765   3.899
    1PA    H12R11539   3.031   3.739   3.839
    1PA    H12S11540   2.855   3.735   3.842
    1PA    C11111541   2.940   3.917   3.920
    1PA    H11R11542   2.856   3.930   3.988
    1PA    H11S11543   3.033   3.948   3.968
    1PA    C11011544   2.919   4.008   3.798
    1PA    H10R11545   2.813   3.995   3.772
    1PA    H10S11546   2.935   4.113   3.825
    1PA     C1911547   3.019   3.966   3.690
    1PA     H9R11548   3.119   4.006   3.710
    1PA     H9S11549   3.020   3.858   3.673
    1PA     C1811550   2.984   4.035   3.557
    1PA     H8R11551   3.055   3.994   3.485
    1PA     H8S11552   2.886   3.999   3.526
    1PA     C1711553   2.991   4.187   3.575
    1PA     H7R11554   2.917   4.209   3.651
    1PA     H7S11555   3.086   4.219   3.620
    1PA     C1611556   2.961   4.259   3.443
    1PA     H6R11557   2.863   4.232   3.402
    1PA     H6S11558   2.960   4.361   3.481
    1PA     C1511559   3.073   4.244   3.338
    1PA     H5R11560   3.172   4.270   3.376
    1PA     H5S11561   3.074   4.140   3.307
    1PA     C1411562   3.040   4.329   3.214
    1PA     H4R11563   2.943   4.309   3.167
    1PA     H4S11564   3.027   4.436   3.231
    1PA     C1311565   3.148   4.306   3.108
    1PA     H3R11566   3.188   4.204   3.109
    1PA     H3S11567   3.113   4.324   3.006
    1PA     C1211568   3.269   4.398   3.126
    1PA     H2R11569   3.233   4.501   3.131
    1PA     H2S11570   3.317   4.385   3.223
    2PC     C1111571   3.371   4.390   3.015
    2PC     O1211572   3.347   4.361   2.900
    2PC     O1111573   3.497   4.404   3.061
    2PC      C111574   3.607   4.374   2.974
    2PC      HR11575   3.697   4.359   3.034
    2PC      HS11576   3.593   4.280   2.920
    2PC      C211577   3.635   4.492   2.880
    2PC      HX11578   3.541   4.516   2.828
    2PC      C311579   3.741   4.464   2.773
    2PC      HA11580   3.843   4.471   2.812
    2PC      HB11581   3.719   4.366   2.731
    2PC     O3111582   3.731   4.565   2.670
    2PC     P3111583   3.750   4.539   2.513
    2PC     O3211584   3.648   4.419   2.485
    2PC     C3111585   3.700   4.305   2.415
    2PC     H1A11586   3.798   4.270   2.450
    2PC     H1B11587   3.624   4.228   2.431
    2PC     C3211588   3.702   4.355   2.270
    2PC     H2A11589   3.602   4.388   2.244
    2PC     H2B11590   3.779   4.429   2.247
    2PC     N3111591   3.718   4.246   2.168
    2PC     C3311592   3.841   4.164   2.189
    2PC     H3A11593   3.843   4.123   2.291
    2PC     H3B11594   3.840   4.079   2.120
    2PC     H3C11595   3.934   4.222   2.190
    2PC     C3411596   3.598   4.157   2.155
    2PC     H4A11597   3.623   4.069   2.095
    2PC     H4B11598   3.580   4.127   2.259
    2PC     H4C11599   3.517   4.214   2.111
    2PC     C3511600   3.735   4.309   2.033
    2PC     H5A11601   3.764   4.226   1.969
    2PC     H5B11602   3.819   4.379   2.031
    2PC     H5C11603   3.642   4.361   2.007
    2PC     O3311604   3.735   4.665   2.438
    2PC     O3411605   3.888   4.487   2.497
    2PC     O2111606   3.676   4.608   2.955
    2PC     C2111607   3.575   4.680   3.006
    2PC     O2211608   3.459   4.662   2.978
    3OL     C1211609   3.609   4.769   3.123
    3OL     H2R11610   3.534   4.848   3.123
    3OL     H2S11611   3.697   4.833   3.114
    3OL     C1311612   3.615   4.690   3.255
    3OL     H3R11613   3.698   4.619   3.246
    3OL     H3S11614   3.525   4.632   3.277
    3OL     C1411615   3.638   4.782   3.375
    3OL     H4R11616   3.714   4.855   3.346
    3OL     H4S11617   3.678   4.716   3.453
    3OL     C1511618   3.508   4.845   3.427
    3OL     H5R11619   3.445   4.767   3.471
    3OL     H5S11620   3.453   4.899   3.350
    3OL     C1611621   3.550   4.953   3.527
    3OL     H6R11622   3.468   5.023   3.541
    3OL     H6S11623   3.633   5.007   3.481
    3OL     C1711624   3.576   4.907   3.671
    3OL     H7R11625   3.651   4.829   3.653
    3OL     H7S11626   3.490   4.865   3.723
    3OL     C1811627   3.627   5.024   3.757
    3OL     H8R11628   3.583   5.117   3.721
    3OL     H8S11629   3.735   5.025   3.740
    3OL     C1911630   3.602   4.994   3.902
    3OL     H9R11631   3.666   4.918   3.947
    3OL    C11011632   3.506   5.049   3.975
    3OL    H10R11633   3.487   5.026   4.079
    3OL    C11111634   3.422   5.163   3.921
    3OL    H11R11635   3.322   5.127   3.948
    3OL    H11S11636   3.420   5.189   3.815
    3OL    C11211637   3.450   5.290   4.003
    3OL    H12R11638   3.554   5.321   3.991
    3OL    H12S11639   3.429   5.272   4.108
    3OL    C11311640   3.372   5.408   3.944
    3OL    H13R11641   3.268   5.386   3.919
    3OL    H13S11642   3.411   5.433   3.845
    3OL    C11411643   3.369   5.524   4.044
    3OL    H14R11644   3.470   5.551   4.075
    3OL    H14S11645   3.309   5.489   4.129
    3OL    C11511646   3.297   5.648   3.989
    3OL    H15R11647   3.195   5.634   3.954
    3OL    H15S11648   3.353   5.689   3.904
    3OL    C11611649   3.294   5.764   4.089
    3OL    H16R11650   3.273   5.857   4.035
    3OL    H16S11651   3.398   5.776   4.120
    3OL    C11711652   3.188   5.747   4.199
    3OL    H17R11653   3.205   5.653   4.252
    3OL    H17S11654   3.087   5.741   4.157
    3OL    C11811655   3.194   5.855   4.307
    3OL    H18R11656   3.151   5.944   4.261
    3OL    H18S11657   3.299   5.877   4.328
    3OL    H18T11658   3.146   5.834   4.403
    1PA    C11611659   0.276   5.564   3.902
    1PA    H16R11660   0.228   5.578   3.999
    1PA    H16S11661   0.385   5.568   3.914
    1PA    H16T11662   0.244   5.469   3.858
    1PA    C11511663   0.229   5.684   3.819
    1PA    H15R11664   0.124   5.658   3.798
    1PA    H15S11665   0.237   5.779   3.871
    1PA    C11411666   0.317   5.691   3.694
    1PA    H14R11667   0.272   5.755   3.618
    1PA    H14S11668   0.413   5.739   3.713
    1PA    C11311669   0.356   5.558   3.628
    1PA    H13R11670   0.424   5.501   3.691
    1PA    H13S11671   0.270   5.492   3.616
    1PA    C11211672   0.434   5.587   3.499
    1PA    H12R11673   0.362   5.609   3.419
    1PA    H12S11674   0.500   5.673   3.509
    1PA    C11111675   0.517   5.466   3.454
    1PA    H11R11676   0.585   5.424   3.528
    1PA    H11S11677   0.451   5.385   3.422
    1PA    C11011678   0.602   5.511   3.335
    1PA    H10R11679   0.668   5.594   3.362
    1PA    H10S11680   0.674   5.435   3.304
    1PA     C1911681   0.527   5.567   3.213
    1PA     H9R11682   0.445   5.502   3.182
    1PA     H9S11683   0.476   5.661   3.238
    1PA     C1811684   0.627   5.592   3.100
    1PA     H8R11685   0.691   5.678   3.120
    1PA     H8S11686   0.674   5.494   3.092
    1PA     C1711687   0.544   5.623   2.974
    1PA     H7R11688   0.474   5.544   2.946
    1PA     H7S11689   0.484   5.711   2.997
    1PA     C1611690   0.641   5.648   2.858
    1PA     H6R11691   0.721   5.719   2.880
    1PA     H6S11692   0.685   5.556   2.820
    1PA     C1511693   0.559   5.692   2.735
    1PA     H5R11694   0.614   5.664   2.644
    1PA     H5S11695   0.464   5.639   2.726
    1PA     C1411696   0.526   5.841   2.724
    1PA     H4R11697   0.449   5.876   2.793
    1PA     H4S11698   0.610   5.902   2.758
    1PA     C1311699   0.486   5.884   2.583
    1PA     H3R11700   0.566   5.838   2.525
    1PA     H3S11701   0.394   5.831   2.560
    1PA     C1211702   0.476   6.037   2.567
    1PA     H2R11703   0.388   6.079   2.616
    1PA     H2S11704   0.563   6.090   2.607
    2PC     C1111705   0.469   6.062   2.418
    2PC     O1211706   0.564   6.082   2.346
    2PC     O1111707   0.340   6.068   2.380
    2PC      C111708   0.309   6.110   2.246
    2PC      HR11709   0.342   6.212   2.223
    2PC      HS11710   0.354   6.044   2.172
    2PC      C211711   0.159   6.107   2.216
    2PC      HX11712   0.116   6.016   2.258
    2PC      C311713   0.135   6.112   2.064
    2PC      HA11714   0.166   6.015   2.025
    2PC      HB11715   0.027   6.129   2.059
    2PC     O3111716   0.210   6.216   2.000
    2PC     P3111717   0.221   6.214   1.840
    2PC     O3211718   0.076   6.243   1.778
    2PC     C3111719   0.006   6.136   1.711
    2PC     H1A11720   0.026   6.136   1.604
    2PC     H1B11721   0.044   6.046   1.759
    2PC     C3211722  -0.144   6.161   1.734
    2PC     H2A11723  -0.206   6.107   1.661
    2PC     H2B11724  -0.181   6.132   1.832
    2PC     N3111725  -0.190   6.301   1.703
    2PC     C3311726  -0.142   6.352   1.571
    2PC     H3A11727  -0.190   6.449   1.555
    2PC     H3B11728  -0.034   6.363   1.586
    2PC     H3C11729  -0.172   6.282   1.493
    2PC     C3411730  -0.339   6.289   1.695
    2PC     H4A11731  -0.378   6.389   1.715
    2PC     H4B11732  -0.369   6.263   1.593
    2PC     H4C11733  -0.385   6.219   1.764
    2PC     C3511734  -0.158   6.396   1.815
    2PC     H5A11735  -0.183   6.493   1.772
    2PC     H5B11736  -0.050   6.390   1.827
    2PC     H5C11737  -0.219   6.370   1.902
    2PC     O3311738   0.307   6.329   1.804
    2PC     O3411739   0.292   6.099   1.780
    2PC     O2111740   0.100   6.230   2.264
    2PC     C2111741  -0.031   6.221   2.291
    2PC     O2211742  -0.097   6.120   2.276
    3OL     C1211743  -0.089   6.345   2.356
    3OL     H2R11744  -0.017   6.376   2.432
    3OL     H2S11745  -0.181   6.313   2.407
    3OL     C1311746  -0.113   6.463   2.262
    3OL     H3R11747  -0.190   6.440   2.188
    3OL     H3S11748  -0.019   6.489   2.213
    3OL     C1411749  -0.183   6.580   2.334
    3OL     H4R11750  -0.266   6.539   2.392
    3OL     H4S11751  -0.211   6.651   2.256
    3OL     C1511752  -0.091   6.654   2.433
    3OL     H5R11753  -0.009   6.698   2.377
    3OL     H5S11754  -0.057   6.589   2.514
    3OL     C1611755  -0.175   6.767   2.494
    3OL     H6R11756  -0.268   6.722   2.531
    3OL     H6S11757  -0.196   6.843   2.418
    3OL     C1711758  -0.094   6.832   2.607
    3OL     H7R11759  -0.003   6.878   2.566
    3OL     H7S11760  -0.062   6.762   2.684
    3OL     C1811761  -0.172   6.943   2.677
    3OL     H8R11762  -0.253   6.888   2.726
    3OL     H8S11763  -0.229   7.002   2.605
    3OL     C1911764  -0.084   7.022   2.770
    3OL     H9R11765  -0.024   7.097   2.720
    3OL    C11011766  -0.083   7.020   2.903
    3OL    H10R11767  -0.018   7.086   2.959
    3OL    C11111768  -0.179   6.942   2.990
    3OL    H11R11769  -0.261   6.900   2.931
    3OL    H11S11770  -0.233   7.016   3.050
    3OL    C11211771  -0.111   6.838   3.080
    3OL    H12R11772  -0.190   6.799   3.144
    3OL    H12S11773  -0.029   6.883   3.136
    3OL    C11311774  -0.046   6.721   3.005
    3OL    H13R11775   0.032   6.761   2.939
    3OL    H13S11776  -0.125   6.672   2.949
    3OL    C11411777   0.011   6.629   3.114
    3OL    H14R11778   0.058   6.680   3.199
    3OL    H14S11779   0.091   6.570   3.070
    3OL    C11511780  -0.091   6.534   3.178
    3OL    H15R11781  -0.167   6.504   3.106
    3OL    H15S11782  -0.140   6.590   3.257
    3OL    C11611783  -0.020   6.414   3.243
    3OL    H16R11784   0.065   6.446   3.303
    3OL    H16S11785   0.031   6.360   3.162
    3OL    C11711786  -0.111   6.327   3.330
    3OL    H17R11787  -0.146   6.388   3.414
    3OL    H17S11788  -0.054   6.246   3.374
    3OL    C11811789  -0.231   6.259   3.263
    3OL    H18R11790  -0.198   6.209   3.172
    3OL    H18S11791  -0.300   6.335   3.225
    3OL    H18T11792  -0.273   6.179   3.325
    1PA    C11611793   5.117   4.966   4.393
    1PA    H16R11794   5.045   4.930   4.319
    1PA    H16S11795   5.083   4.941   4.494
    1PA    H16T11796   5.203   4.901   4.375
    1PA    C11511797   5.137   5.117   4.371
    1PA    H15R11798   5.050   5.181   4.387
    1PA    H15S11799   5.212   5.147   4.444
    1PA    C11411800   5.199   5.136   4.233
    1PA    H14R11801   5.227   5.241   4.236
    1PA    H14S11802   5.287   5.071   4.226
    1PA    C11311803   5.110   5.110   4.110
    1PA    H13R11804   5.080   5.005   4.116
    1PA    H13S11805   5.014   5.161   4.111
    1PA    C11211806   5.197   5.135   3.987
    1PA    H12R11807   5.218   5.242   3.986
    1PA    H12S11808   5.288   5.074   3.977
    1PA    C11111809   5.114   5.122   3.859
    1PA    H11R11810   5.068   5.023   3.849
    1PA    H11S11811   5.030   5.192   3.852
    1PA    C11011812   5.193   5.146   3.730
    1PA    H10R11813   5.292   5.106   3.755
    1PA    H10S11814   5.144   5.090   3.650
    1PA     C1911815   5.201   5.294   3.690
    1PA     H9R11816   5.098   5.326   3.675
    1PA     H9S11817   5.259   5.358   3.757
    1PA     C1811818   5.291   5.305   3.567
    1PA     H8R11819   5.385   5.251   3.580
    1PA     H8S11820   5.239   5.262   3.481
    1PA     C1711821   5.319   5.449   3.522
    1PA     H7R11822   5.230   5.512   3.523
    1PA     H7S11823   5.375   5.503   3.598
    1PA     C1611824   5.387   5.444   3.384
    1PA     H6R11825   5.470   5.374   3.374
    1PA     H6S11826   5.309   5.411   3.315
    1PA     C1511827   5.445   5.578   3.337
    1PA     H5R11828   5.359   5.644   3.326
    1PA     H5S11829   5.513   5.607   3.418
    1PA     C1411830   5.519   5.581   3.203
    1PA     H4R11831   5.597   5.504   3.200
    1PA     H4S11832   5.450   5.557   3.122
    1PA     C1311833   5.585   5.718   3.184
    1PA     H3R11834   5.639   5.752   3.272
    1PA     H3S11835   5.662   5.712   3.107
    1PA     C1211836   5.484   5.826   3.143
    1PA     H2R11837   5.389   5.804   3.192
    1PA     H2S11838   5.518   5.924   3.177
    2PC     C1111839   5.452   5.825   2.996
    2PC     O1211840   5.398   5.738   2.931
    2PC     O1111841   5.484   5.943   2.940
    2PC      C111842   5.498   5.954   2.797
    2PC      HR11843   5.604   5.958   2.770
    2PC      HS11844   5.445   5.877   2.740
    2PC      C211845   5.422   6.082   2.762
    2PC      HX11846   5.326   6.069   2.812
    2PC      C311847   5.413   6.101   2.610
    2PC      HA11848   5.369   6.014   2.562
    2PC      HB11849   5.339   6.177   2.585
    2PC     O3111850   5.547   6.128   2.562
    2PC     P3111851   5.569   6.144   2.405
    2PC     O3211852   5.720   6.198   2.410
    2PC     C3111853   5.783   6.248   2.291
    2PC     H1A11854   5.891   6.263   2.306
    2PC     H1B11855   5.768   6.170   2.217
    2PC     C3211856   5.718   6.380   2.246
    2PC     H2A11857   5.747   6.399   2.143
    2PC     H2B11858   5.609   6.371   2.242
    2PC     N3111859   5.757   6.503   2.322
    2PC     C3311860   5.768   6.480   2.469
    2PC     H3A11861   5.805   6.571   2.516
    2PC     H3B11862   5.675   6.437   2.508
    2PC     H3C11863   5.855   6.414   2.466
    2PC     C3411864   5.883   6.561   2.264
    2PC     H4A11865   5.882   6.664   2.300
    2PC     H4B11866   5.971   6.501   2.286
    2PC     H4C11867   5.873   6.568   2.156
    2PC     C3511868   5.648   6.602   2.297
    2PC     H5A11869   5.666   6.690   2.359
    2PC     H5B11870   5.555   6.556   2.331
    2PC     H5C11871   5.646   6.633   2.192
    2PC     O3311872   5.542   6.021   2.327
    2PC     O3411873   5.467   6.242   2.361
    2PC     O2111874   5.487   6.198   2.817
    2PC     C2111875   5.431   6.320   2.809
    2PC     O2211876   5.321   6.342   2.761
    3OL     C1211877   5.520   6.423   2.872
    3OL     H2R11878   5.611   6.432   2.812
    3OL     H2S11879   5.541   6.402   2.977
    3OL     C1311880   5.442   6.555   2.887
    3OL     H3R11881   5.345   6.538   2.935
    3OL     H3S11882   5.436   6.603   2.789
    3OL     C1411883   5.516   6.658   2.972
    3OL     H4R11884   5.468   6.754   2.955
    3OL     H4S11885   5.622   6.661   2.945
    3OL     C1511886   5.508   6.617   3.120
    3OL     H5R11887   5.544   6.515   3.129
    3OL     H5S11888   5.407   6.619   3.160
    3OL     C1611889   5.586   6.714   3.210
    3OL     H6R11890   5.528   6.806   3.206
    3OL     H6S11891   5.688   6.734   3.175
    3OL     C1711892   5.595   6.661   3.354
    3OL     H7R11893   5.660   6.729   3.410
    3OL     H7S11894   5.657   6.572   3.343
    3OL     C1811895   5.464   6.631   3.429
    3OL     H8R11896   5.492   6.596   3.528
    3OL     H8S11897   5.412   6.554   3.371
    3OL     C1911898   5.395   6.765   3.441
    3OL     H9R11899   5.449   6.855   3.415
    3OL    C11011900   5.272   6.791   3.482
    3OL    H10R11901   5.243   6.895   3.488
    3OL    C11111902   5.175   6.690   3.539
    3OL    H11R11903   5.230   6.596   3.526
    3OL    H11S11904   5.082   6.695   3.482
    3OL    C11211905   5.159   6.744   3.682
    3OL    H12R11906   5.134   6.850   3.685
    3OL    H12S11907   5.255   6.736   3.733
    3OL    C11311908   5.055   6.670   3.768
    3OL    H13R11909   5.077   6.690   3.874
    3OL    H13S11910   5.070   6.563   3.776
    3OL    C11411911   4.914   6.715   3.729
    3OL    H14R11912   4.902   6.680   3.626
    3OL    H14S11913   4.917   6.824   3.732
    3OL    C11511914   4.803   6.665   3.823
    3OL    H15R11915   4.723   6.739   3.819
    3OL    H15S11916   4.835   6.658   3.927
    3OL    C11611917   4.747   6.529   3.780
    3OL    H16R11918   4.824   6.453   3.789
    3OL    H16S11919   4.725   6.529   3.673
    3OL    C11711920   4.627   6.494   3.869
    3OL    H17R11921   4.558   6.579   3.869
    3OL    H17S11922   4.660   6.474   3.971
    3OL    C11811923   4.560   6.376   3.797
    3OL    H18R11924   4.632   6.303   3.758
    3OL    H18S11925   4.493   6.403   3.715
    3OL    H18T11926   4.488   6.329   3.864
    1PA    C11611927   3.321   0.121   4.054
    1PA    H16R11928   3.392   0.202   4.072
    1PA    H16S11929   3.363   0.028   4.016
    1PA    H16T11930   3.288   0.092   4.154
    1PA    C11511931   3.211   0.167   3.957
    1PA    H15R11932   3.155   0.082   3.918
    1PA    H15S11933   3.143   0.242   3.998
    1PA    C11411934   3.272   0.230   3.831
    1PA    H14R11935   3.191   0.273   3.772
    1PA    H14S11936   3.332   0.319   3.852
    1PA    C11311937   3.357   0.136   3.745
    1PA    H13R11938   3.458   0.128   3.785
    1PA    H13S11939   3.311   0.037   3.740
    1PA    C11211940   3.362   0.201   3.606
    1PA    H12R11941   3.368   0.309   3.612
    1PA    H12S11942   3.450   0.160   3.555
    1PA    C11111943   3.234   0.157   3.533
    1PA    H11R11944   3.239   0.049   3.519
    1PA    H11S11945   3.139   0.168   3.587
    1PA    C11011946   3.226   0.212   3.389
    1PA    H10R11947   3.326   0.211   3.345
    1PA    H10S11948   3.158   0.149   3.332
    1PA     C1911949   3.163   0.352   3.394
    1PA     H9R11950   3.058   0.346   3.422
    1PA     H9S11951   3.217   0.408   3.470
    1PA     C1811952   3.189   0.421   3.259
    1PA     H8R11953   3.293   0.414   3.228
    1PA     H8S11954   3.139   0.361   3.183
    1PA     C1711955   3.125   0.561   3.260
    1PA     H7R11956   3.020   0.543   3.283
    1PA     H7S11957   3.163   0.630   3.335
    1PA     C1611958   3.131   0.638   3.127
    1PA     H6R11959   3.082   0.735   3.142
    1PA     H6S11960   3.235   0.652   3.095
    1PA     C1511961   3.067   0.565   3.009
    1PA     H5R11962   3.103   0.462   3.009
    1PA     H5S11963   2.960   0.554   3.029
    1PA     C1411964   3.089   0.640   2.877
    1PA     H4R11965   3.040   0.738   2.875
    1PA     H4S11966   3.195   0.640   2.853
    1PA     C1311967   3.022   0.568   2.759
    1PA     H3R11968   3.064   0.467   2.761
    1PA     H3S11969   2.915   0.562   2.777
    1PA     C1211970   3.050   0.644   2.629
    1PA     H2R11971   2.999   0.741   2.624
    1PA     H2S11972   3.158   0.659   2.628
    2PC     C1111973   3.021   0.572   2.499
    2PC     O1211974   2.968   0.626   2.404
    2PC     O1111975   3.058   0.443   2.499
    2PC      C111976   3.038   0.361   2.383
    2PC      HR11977   2.933   0.335   2.366
    2PC      HS11978   3.062   0.419   2.293
    2PC      C211979   3.134   0.242   2.397
    2PC      HX11980   3.228   0.288   2.425
    2PC      C311981   3.141   0.153   2.272
    2PC      HA11982   3.183   0.215   2.193
    2PC      HB11983   3.203   0.064   2.291
    2PC     O3111984   3.011   0.112   2.228
    2PC     P3111985   2.985   0.029   2.093
    2PC     O3211986   2.988   0.148   1.986
    2PC     C3111987   2.857   0.190   1.942
    2PC     H1A11988   2.800   0.106   1.901
    2PC     H1B11989   2.801   0.232   2.025
    2PC     C3211990   2.884   0.298   1.836
    2PC     H2A11991   2.788   0.318   1.787
    2PC     H2B11992   2.914   0.390   1.886
    2PC     N3111993   2.987   0.282   1.727
    2PC     C3311994   2.946   0.372   1.614
    2PC     H3A11995   3.022   0.360   1.538
    2PC     H3B11996   2.846   0.342   1.584
    2PC     H3C11997   2.948   0.478   1.641
    2PC     C3411998   3.123   0.326   1.771
    2PC     H4A11999   3.188   0.323   1.683
    2PC     H4B12000   3.111   0.425   1.815
    2PC     H4C12001   3.157   0.256   1.847
    2PC     C3512002   2.987   0.140   1.682
    2PC     H5A12003   3.070   0.128   1.611
    2PC     H5B12004   2.890   0.126   1.634
    2PC     H5C12005   3.013   0.067   1.759
    2PC     O3312006   3.067  -0.088   2.052
    2PC     O3412007   2.852  -0.033   2.109
    2PC     O2112008   3.088   0.159   2.506
    2PC     C2112009   3.169   0.073   2.571
    2PC     O2212010   3.285   0.060   2.537
    3OL     C1212011   3.111   0.003   2.691
    3OL     H2R12012   3.176  -0.075   2.731
    3OL     H2S12013   3.038  -0.064   2.644
    3OL     C1312014   3.055   0.093   2.802
    3OL     H3R12015   2.977   0.158   2.761
    3OL     H3S12016   3.139   0.145   2.849
    3OL     C1412017   2.979   0.003   2.900
    3OL     H4R12018   3.054  -0.061   2.947
    3OL     H4S12019   2.905  -0.060   2.851
    3OL     C1512020   2.919   0.081   3.018
    3OL     H5R12021   2.863   0.163   2.971
    3OL     H5S12022   2.995   0.119   3.086
    3OL     C1612023   2.825  -0.014   3.093
    3OL     H6R12024   2.742  -0.042   3.028
    3OL     H6S12025   2.791   0.040   3.182
    3OL     C1712026   2.893  -0.143   3.138
    3OL     H7R12027   2.987  -0.124   3.190
    3OL     H7S12028   2.918  -0.199   3.048
    3OL     C1812029   2.807  -0.227   3.233
    3OL     H8R12030   2.801  -0.182   3.333
    3OL     H8S12031   2.858  -0.323   3.241
    3OL     C1912032   2.671  -0.258   3.177
    3OL     H9R12033   2.668  -0.297   3.075
    3OL    C11012034   2.554  -0.233   3.233
    3OL    H10R12035   2.458  -0.259   3.189
    3OL    C11112036   2.528  -0.163   3.365
    3OL    H11R12037   2.560  -0.058   3.361
    3OL    H11S12038   2.588  -0.212   3.441
    3OL    C11212039   2.382  -0.182   3.406
    3OL    H12R12040   2.338  -0.274   3.368
    3OL    H12S12041   2.323  -0.108   3.351
    3OL    C11312042   2.378  -0.170   3.559
    3OL    H13R12043   2.434  -0.079   3.585
    3OL    H13S12044   2.437  -0.249   3.606
    3OL    C11412045   2.238  -0.165   3.623
    3OL    H14R12046   2.197  -0.263   3.599
    3OL    H14S12047   2.179  -0.086   3.575
    3OL    C11512048   2.249  -0.139   3.773
    3OL    H15R12049   2.289  -0.039   3.792
    3OL    H15S12050   2.322  -0.209   3.815
    3OL    C11612051   2.117  -0.189   3.833
    3OL    H16R12052   2.112  -0.295   3.808
    3OL    H16S12053   2.031  -0.139   3.786
    3OL    C11712054   2.115  -0.175   3.986
    3OL    H17R12055   2.114  -0.069   4.011
    3OL    H17S12056   2.209  -0.211   4.028
    3OL    C11812057   1.994  -0.250   4.044
    3OL    H18R12058   2.002  -0.247   4.153
    3OL    H18S12059   1.989  -0.347   3.995
    3OL    H18T12060   1.907  -0.194   4.010
    1PA    C11612061   4.296   5.516   3.925
    1PA    H16R12062   4.190   5.535   3.905
    1PA    H16S12063   4.321   5.583   4.008
    1PA    H16T12064   4.318   5.418   3.967
    1PA    C11512065   4.392   5.557   3.812
    1PA    H15R12066   4.372   5.663   3.792
    1PA    H15S12067   4.498   5.546   3.837
    1PA    C11412068   4.351   5.491   3.680
    1PA    H14R12069   4.243   5.499   3.666
    1PA    H14S12070   4.402   5.536   3.595
    1PA    C11312071   4.386   5.342   3.686
    1PA    H13R12072   4.494   5.335   3.698
    1PA    H13S12073   4.338   5.294   3.772
    1PA    C11212074   4.352   5.272   3.554
    1PA    H12R12075   4.365   5.164   3.569
    1PA    H12S12076   4.244   5.283   3.538
    1PA    C11112077   4.442   5.316   3.438
    1PA    H11R12078   4.417   5.417   3.404
    1PA    H11S12079   4.546   5.315   3.471
    1PA    C11012080   4.414   5.229   3.314
    1PA    H10R12081   4.438   5.128   3.346
    1PA    H10S12082   4.309   5.210   3.290
    1PA     C1912083   4.493   5.279   3.193
    1PA     H9R12084   4.598   5.301   3.214
    1PA     H9S12085   4.496   5.202   3.115
    1PA     C1812086   4.428   5.407   3.139
    1PA     H8R12087   4.320   5.392   3.149
    1PA     H8S12088   4.453   5.500   3.189
    1PA     C1712089   4.444   5.432   2.988
    1PA     H7R12090   4.384   5.359   2.932
    1PA     H7S12091   4.409   5.535   2.979
    1PA     C1612092   4.588   5.435   2.937
    1PA     H6R12093   4.649   5.495   3.005
    1PA     H6S12094   4.641   5.339   2.936
    1PA     C1512095   4.602   5.492   2.795
    1PA     H5R12096   4.572   5.596   2.806
    1PA     H5S12097   4.706   5.490   2.762
    1PA     C1412098   4.514   5.417   2.693
    1PA     H4R12099   4.518   5.311   2.716
    1PA     H4S12100   4.411   5.454   2.696
    1PA     C1312101   4.556   5.441   2.547
    1PA     H3R12102   4.663   5.426   2.536
    1PA     H3S12103   4.507   5.366   2.484
    1PA     C1212104   4.522   5.584   2.501
    1PA     H2R12105   4.451   5.629   2.569
    1PA     H2S12106   4.604   5.656   2.504
    2PC     C1112107   4.468   5.580   2.360
    2PC     O1212108   4.515   5.507   2.275
    2PC     O1112109   4.366   5.666   2.345
    2PC      C112110   4.297   5.659   2.219
    2PC      HR12111   4.247   5.755   2.204
    2PC      HS12112   4.366   5.640   2.136
    2PC      C212113   4.187   5.553   2.233
    2PC      HX12114   4.239   5.461   2.259
    2PC      C312115   4.128   5.528   2.093
    2PC      HA12116   4.073   5.611   2.048
    2PC      HB12117   4.189   5.487   2.012
    2PC     O3112118   4.036   5.420   2.114
    2PC     P3112119   3.968   5.344   1.990
    2PC     O3212120   4.049   5.207   2.000
    2PC     C3112121   4.175   5.214   1.930
    2PC     H1A12122   4.159   5.238   1.825
    2PC     H1B12123   4.240   5.289   1.976
    2PC     C3212124   4.236   5.074   1.940
    2PC     H2A12125   4.336   5.075   1.895
    2PC     H2B12126   4.260   5.054   2.044
    2PC     N3112127   4.160   4.959   1.882
    2PC     C3312128   4.140   4.965   1.733
    2PC     H3A12129   4.084   5.057   1.718
    2PC     H3B12130   4.233   4.967   1.677
    2PC     H3C12131   4.075   4.881   1.710
    2PC     C3412132   4.251   4.841   1.899
    2PC     H4A12133   4.259   4.822   2.007
    2PC     H4B12134   4.215   4.750   1.851
    2PC     H4C12135   4.340   4.880   1.849
    2PC     C3512136   4.034   4.927   1.957
    2PC     H5A12137   3.962   5.001   1.923
    2PC     H5B12138   4.039   4.936   2.066
    2PC     H5C12139   4.004   4.825   1.932
    2PC     O3312140   3.828   5.301   2.013
    2PC     O3412141   3.978   5.421   1.864
    2PC     O2112142   4.093   5.610   2.325
    2PC     C2112143   4.095   5.563   2.451
    2PC     O2212144   4.158   5.471   2.499
    3OL     C1212145   3.993   5.635   2.535
    3OL     H2R12146   3.919   5.561   2.565
    3OL     H2S12147   3.937   5.715   2.487
    3OL     C1312148   4.058   5.706   2.655
    3OL     H3R12149   3.985   5.780   2.688
    3OL     H3S12150   4.136   5.762   2.602
    3OL     C1412151   4.115   5.615   2.765
    3OL     H4R12152   4.223   5.624   2.776
    3OL     H4S12153   4.097   5.510   2.742
    3OL     C1512154   4.051   5.647   2.901
    3OL     H5R12155   3.949   5.609   2.892
    3OL     H5S12156   4.049   5.755   2.919
    3OL     C1612157   4.117   5.565   3.013
    3OL     H6R12158   4.222   5.594   3.012
    3OL     H6S12159   4.098   5.458   3.001
    3OL     C1712160   4.058   5.619   3.144
    3OL     H7R12161   3.952   5.594   3.136
    3OL     H7S12162   4.062   5.728   3.152
    3OL     C1812163   4.127   5.552   3.263
    3OL     H8R12164   4.233   5.577   3.269
    3OL     H8S12165   4.110   5.444   3.269
    3OL     C1912166   4.073   5.602   3.395
    3OL     H9R12167   4.127   5.685   3.441
    3OL    C11012168   3.971   5.552   3.462
    3OL    H10R12169   3.942   5.592   3.559
    3OL    C11112170   3.863   5.458   3.415
    3OL    H11R12171   3.860   5.357   3.458
    3OL    H11S12172   3.871   5.454   3.306
    3OL    C11212173   3.732   5.511   3.475
    3OL    H12R12174   3.695   5.601   3.424
    3OL    H12S12175   3.743   5.532   3.581
    3OL    C11312176   3.627   5.401   3.459
    3OL    H13R12177   3.652   5.312   3.518
    3OL    H13S12178   3.614   5.369   3.355
    3OL    C11412179   3.505   5.453   3.535
    3OL    H14R12180   3.479   5.553   3.499
    3OL    H14S12181   3.539   5.463   3.638
    3OL    C11512182   3.378   5.370   3.513
    3OL    H15R12183   3.386   5.263   3.536
    3OL    H15S12184   3.353   5.379   3.407
    3OL    C11612185   3.252   5.427   3.579
    3OL    H16R12186   3.223   5.520   3.530
    3OL    H16S12187   3.273   5.453   3.683
    3OL    C11712188   3.138   5.325   3.568
    3OL    H17R12189   3.059   5.357   3.637
    3OL    H17S12190   3.175   5.231   3.608
    3OL    C11812191   3.078   5.311   3.428
    3OL    H18R12192   2.973   5.284   3.441
    3OL    H18S12193   3.118   5.227   3.371
    3OL    H18T12194   3.084   5.399   3.364
    1PA    C11612195   5.623   1.808   4.246
    1PA    H16R12196   5.550   1.727   4.237
    1PA    H16S12197   5.657   1.815   4.350
    1PA    H16T12198   5.714   1.788   4.189
    1PA    C11512199   5.554   1.937   4.200
    1PA    H15R12200   5.522   1.934   4.096
    1PA    H15S12201   5.466   1.961   4.260
    1PA    C11412202   5.641   2.061   4.226
    1PA    H14R12203   5.675   2.074   4.329
    1PA    H14S12204   5.732   2.055   4.164
    1PA    C11312205   5.558   2.182   4.182
    1PA    H13R12206   5.493   2.158   4.097
    1PA    H13S12207   5.490   2.206   4.264
    1PA    C11212208   5.643   2.308   4.163
    1PA    H12R12209   5.571   2.389   4.178
    1PA    H12S12210   5.726   2.302   4.233
    1PA    C11112211   5.703   2.320   4.022
    1PA    H11R12212   5.775   2.402   4.023
    1PA    H11S12213   5.778   2.242   4.005
    1PA    C11012214   5.598   2.319   3.910
    1PA    H10R12215   5.555   2.220   3.901
    1PA    H10S12216   5.516   2.387   3.933
    1PA     C1912217   5.662   2.344   3.772
    1PA     H9R12218   5.697   2.447   3.786
    1PA     H9S12219   5.743   2.272   3.769
    1PA     C1812220   5.558   2.326   3.660
    1PA     H8R12221   5.539   2.219   3.654
    1PA     H8S12222   5.459   2.363   3.688
    1PA     C1712223   5.605   2.383   3.526
    1PA     H7R12224   5.623   2.491   3.532
    1PA     H7S12225   5.696   2.335   3.491
    1PA     C1612226   5.509   2.354   3.409
    1PA     H6R12227   5.521   2.248   3.389
    1PA     H6S12228   5.404   2.374   3.433
    1PA     C1512229   5.563   2.419   3.281
    1PA     H5R12230   5.523   2.521   3.284
    1PA     H5S12231   5.672   2.425   3.277
    1PA     C1412232   5.503   2.362   3.152
    1PA     H4R12233   5.520   2.254   3.148
    1PA     H4S12234   5.394   2.373   3.152
    1PA     C1312235   5.560   2.422   3.023
    1PA     H3R12236   5.578   2.529   3.039
    1PA     H3S12237   5.654   2.381   2.986
    1PA     C1212238   5.460   2.398   2.909
    1PA     H2R12239   5.435   2.292   2.897
    1PA     H2S12240   5.365   2.448   2.929
    2PC     C1112241   5.516   2.438   2.775
    2PC     O1212242   5.472   2.407   2.666
    2PC     O1112243   5.621   2.521   2.790
    2PC      C112244   5.696   2.559   2.673
    2PC      HR12245   5.783   2.612   2.713
    2PC      HS12246   5.717   2.472   2.610
    2PC      C212247   5.608   2.652   2.589
    2PC      HX12248   5.542   2.595   2.523
    2PC      C312249   5.697   2.734   2.495
    2PC      HA12250   5.772   2.791   2.550
    2PC      HB12251   5.750   2.677   2.419
    2PC     O3112252   5.602   2.826   2.437
    2PC     P3112253   5.647   2.942   2.335
    2PC     O3212254   5.732   3.046   2.424
    2PC     C3112255   5.664   3.126   2.522
    2PC     H1A12256   5.559   3.145   2.500
    2PC     H1B12257   5.667   3.070   2.616
    2PC     C3212258   5.743   3.257   2.542
    2PC     H2A12259   5.712   3.307   2.634
    2PC     H2B12260   5.848   3.231   2.554
    2PC     N3112261   5.738   3.362   2.435
    2PC     C3312262   5.784   3.317   2.300
    2PC     H3A12263   5.718   3.241   2.258
    2PC     H3B12264   5.789   3.398   2.227
    2PC     H3C12265   5.883   3.277   2.325
    2PC     C3412266   5.606   3.431   2.417
    2PC     H4A12267   5.618   3.523   2.360
    2PC     H4B12268   5.548   3.368   2.349
    2PC     H4C12269   5.546   3.452   2.505
    2PC     C3512270   5.828   3.471   2.486
    2PC     H5A12271   5.767   3.531   2.555
    2PC     H5B12272   5.858   3.536   2.404
    2PC     H5C12273   5.920   3.435   2.532
    2PC     O3312274   5.730   2.919   2.215
    2PC     O3412275   5.520   3.008   2.298
    2PC     O2112276   5.554   2.754   2.675
    2PC     C2112277   5.430   2.795   2.642
    2PC     O2212278   5.353   2.725   2.580
    3OL     C1212279   5.388   2.929   2.697
    3OL     H2R12280   5.409   2.999   2.616
    3OL     H2S12281   5.452   2.964   2.778
    3OL     C1312282   5.241   2.917   2.738
    3OL     H3R12283   5.189   2.842   2.679
    3OL     H3S12284   5.203   3.017   2.715
    3OL     C1412285   5.227   2.893   2.889
    3OL     H4R12286   5.121   2.901   2.914
    3OL     H4S12287   5.291   2.963   2.944
    3OL     C1512288   5.276   2.754   2.932
    3OL     H5R12289   5.381   2.735   2.909
    3OL     H5S12290   5.214   2.682   2.879
    3OL     C1612291   5.250   2.717   3.079
    3OL     H6R12292   5.263   2.611   3.102
    3OL     H6S12293   5.148   2.740   3.112
    3OL     C1712294   5.357   2.789   3.162
    3OL     H7R12295   5.331   2.895   3.163
    3OL     H7S12296   5.459   2.779   3.124
    3OL     C1812297   5.356   2.739   3.308
    3OL     H8R12298   5.344   2.631   3.319
    3OL     H8S12299   5.265   2.779   3.352
    3OL     C1912300   5.470   2.789   3.393
    3OL     H9R12301   5.553   2.829   3.336
    3OL    C11012302   5.488   2.784   3.524
    3OL    H10R12303   5.579   2.823   3.570
    3OL    C11112304   5.383   2.718   3.609
    3OL    H11R12305   5.405   2.612   3.621
    3OL    H11S12306   5.282   2.724   3.567
    3OL    C11212307   5.394   2.772   3.752
    3OL    H12R12308   5.367   2.877   3.762
    3OL    H12S12309   5.499   2.770   3.783
    3OL    C11312310   5.312   2.683   3.847
    3OL    H13R12311   5.379   2.601   3.873
    3OL    H13S12312   5.229   2.649   3.786
    3OL    C11412313   5.260   2.765   3.966
    3OL    H14R12314   5.192   2.845   3.936
    3OL    H14S12315   5.349   2.814   4.005
    3OL    C11512316   5.186   2.687   4.076
    3OL    H15R12317   5.096   2.634   4.045
    3OL    H15S12318   5.158   2.769   4.143
    3OL    C11612319   5.280   2.588   4.146
    3OL    H16R12320   5.384   2.618   4.153
    3OL    H16S12321   5.294   2.498   4.086
    3OL    C11712322   5.229   2.552   4.286
    3OL    H17R12323   5.210   2.647   4.336
    3OL    H17S12324   5.305   2.489   4.335
    3OL    C11812325   5.102   2.466   4.276
    3OL    H18R12326   5.073   2.419   4.370
    3OL    H18S12327   5.134   2.382   4.214
    3OL    H18T12328   5.016   2.518   4.233
    1PA    C11612329   6.526   2.986   4.578
    1PA    H16R12330   6.436   2.961   4.522
    1PA    H16S12331   6.490   3.030   4.672
    1PA    H16T12332   6.579   2.897   4.615
    1PA    C11512333   6.619   3.078   4.499
    1PA    H15R12334   6.560   3.137   4.428
    1PA    H15S12335   6.669   3.148   4.567
    1PA    C11412336   6.734   3.008   4.425
    1PA    H14R12337   6.779   3.090   4.370
    1PA    H14S12338   6.795   2.959   4.502
    1PA    C11312339   6.692   2.900   4.324
    1PA    H13R12340   6.785   2.851   4.296
    1PA    H13S12341   6.627   2.821   4.362
    1PA    C11212342   6.615   2.960   4.206
    1PA    H12R12343   6.515   2.990   4.238
    1PA    H12S12344   6.668   3.045   4.162
    1PA    C11112345   6.614   2.856   4.093
    1PA    H11R12346   6.717   2.838   4.063
    1PA    H11S12347   6.558   2.769   4.128
    1PA    C11012348   6.539   2.914   3.972
    1PA    H10R12349   6.438   2.945   4.000
    1PA    H10S12350   6.583   3.006   3.932
    1PA     C1912351   6.525   2.811   3.858
    1PA     H9R12352   6.618   2.763   3.826
    1PA     H9S12353   6.461   2.728   3.890
    1PA     C1812354   6.456   2.875   3.737
    1PA     H8R12355   6.358   2.914   3.762
    1PA     H8S12356   6.511   2.966   3.713
    1PA     C1712357   6.431   2.782   3.617
    1PA     H7R12358   6.361   2.705   3.650
    1PA     H7S12359   6.382   2.836   3.537
    1PA     C1612360   6.546   2.694   3.564
    1PA     H6R12361   6.635   2.755   3.548
    1PA     H6S12362   6.563   2.608   3.629
    1PA     C1512363   6.509   2.627   3.431
    1PA     H5R12364   6.560   2.534   3.405
    1PA     H5S12365   6.401   2.609   3.430
    1PA     C1412366   6.532   2.725   3.316
    1PA     H4R12367   6.478   2.818   3.332
    1PA     H4S12368   6.641   2.740   3.319
    1PA     C1312369   6.495   2.663   3.180
    1PA     H3R12370   6.560   2.703   3.102
    1PA     H3S12371   6.510   2.555   3.186
    1PA     C1212372   6.347   2.684   3.146
    1PA     H2R12373   6.286   2.625   3.215
    1PA     H2S12374   6.325   2.791   3.151
    2PC     C1112375   6.328   2.657   2.999
    2PC     O1212376   6.365   2.730   2.909
    2PC     O1112377   6.277   2.534   2.978
    2PC      C112378   6.303   2.474   2.849
    2PC      HR12379   6.381   2.522   2.789
    2PC      HS12380   6.326   2.368   2.860
    2PC      C212381   6.170   2.468   2.773
    2PC      HX12382   6.189   2.408   2.683
    2PC      C312383   6.134   2.614   2.739
    2PC      HA12384   6.118   2.672   2.830
    2PC      HB12385   6.221   2.665   2.698
    2PC     O3112386   6.020   2.619   2.651
    2PC     P3112387   6.045   2.593   2.495
    2PC     O3212388   5.994   2.733   2.437
    2PC     C3112389   6.078   2.850   2.431
    2PC     H1A12390   6.015   2.936   2.408
    2PC     H1B12391   6.127   2.874   2.525
    2PC     C3212392   6.188   2.850   2.323
    2PC     H2A12393   6.240   2.945   2.333
    2PC     H2B12394   6.260   2.772   2.347
    2PC     N3112395   6.153   2.836   2.178
    2PC     C3312396   6.046   2.930   2.134
    2PC     H3A12397   6.091   3.029   2.142
    2PC     H3B12398   6.009   2.904   2.034
    2PC     H3C12399   5.963   2.918   2.204
    2PC     C3412400   6.268   2.882   2.093
    2PC     H4A12401   6.238   2.879   1.989
    2PC     H4B12402   6.292   2.986   2.114
    2PC     H4C12403   6.357   2.819   2.102
    2PC     C3512404   6.108   2.699   2.137
    2PC     H5A12405   6.182   2.632   2.182
    2PC     H5B12406   6.118   2.693   2.029
    2PC     H5C12407   6.011   2.677   2.183
    2PC     O3312408   6.184   2.557   2.459
    2PC     O3412409   5.959   2.484   2.442
    2PC     O2112410   6.061   2.426   2.857
    2PC     C2112411   6.071   2.301   2.906
    2PC     O2212412   6.154   2.214   2.888
    3OL     C1212413   5.953   2.271   2.995
    3OL     H2R12414   5.921   2.169   2.974
    3OL     H2S12415   5.874   2.343   2.970
    3OL     C1312416   5.995   2.300   3.139
    3OL     H3R12417   5.984   2.409   3.141
    3OL     H3S12418   6.099   2.275   3.161
    3OL     C1412419   5.904   2.226   3.238
    3OL     H4R12420   5.802   2.221   3.199
    3OL     H4S12421   5.893   2.291   3.326
    3OL     C1512422   5.951   2.086   3.281
    3OL     H5R12423   6.051   2.094   3.325
    3OL     H5S12424   5.960   2.018   3.196
    3OL     C1612425   5.868   2.014   3.388
    3OL     H6R12426   5.833   2.080   3.467
    3OL     H6S12427   5.940   1.942   3.428
    3OL     C1712428   5.752   1.940   3.320
    3OL     H7R12429   5.798   1.860   3.261
    3OL     H7S12430   5.694   2.002   3.252
    3OL     C1812431   5.652   1.880   3.420
    3OL     H8R12432   5.582   1.820   3.362
    3OL     H8S12433   5.596   1.954   3.476
    3OL     C1912434   5.725   1.784   3.511
    3OL     H9R12435   5.791   1.712   3.463
    3OL    C11012436   5.723   1.784   3.643
    3OL    H10R12437   5.789   1.711   3.690
    3OL    C11112438   5.662   1.893   3.728
    3OL    H11R12439   5.580   1.853   3.789
    3OL    H11S12440   5.614   1.979   3.679
    3OL    C11212441   5.767   1.951   3.823
    3OL    H12R12442   5.802   1.871   3.889
    3OL    H12S12443   5.727   2.032   3.883
    3OL    C11312444   5.888   2.007   3.747
    3OL    H13R12445   5.840   2.086   3.690
    3OL    H13S12446   5.952   1.947   3.680
    3OL    C11412447   6.004   2.051   3.838
    3OL    H14R12448   6.044   1.962   3.887
    3OL    H14S12449   5.976   2.120   3.917
    3OL    C11512450   6.124   2.100   3.757
    3OL    H15R12451   6.131   2.054   3.658
    3OL    H15S12452   6.211   2.086   3.822
    3OL    C11612453   6.112   2.252   3.739
    3OL    H16R12454   6.083   2.301   3.832
    3OL    H16S12455   6.020   2.263   3.681
    3OL    C11712456   6.226   2.325   3.667
    3OL    H17R12457   6.319   2.272   3.691
    3OL    H17S12458   6.236   2.423   3.716
    3OL    C11812459   6.202   2.345   3.517
    3OL    H18R12460   6.189   2.243   3.481
    3OL    H18S12461   6.287   2.397   3.473
    3OL    H18T12462   6.105   2.395   3.504
    1PA    C11612463   1.831   1.868   4.456
    1PA    H16R12464   1.813   1.954   4.521
    1PA    H16S12465   1.934   1.847   4.487
    1PA    H16T12466   1.761   1.787   4.476
    1PA    C11512467   1.830   1.913   4.310
    1PA    H15R12468   1.731   1.912   4.264
    1PA    H15S12469   1.866   2.016   4.314
    1PA    C11412470   1.920   1.823   4.224
    1PA    H14R12471   2.021   1.816   4.265
    1PA    H14S12472   1.884   1.721   4.211
    1PA    C11312473   1.915   1.890   4.085
    1PA    H13R12474   1.810   1.873   4.058
    1PA    H13S12475   1.949   1.991   4.109
    1PA    C11212476   2.016   1.837   3.982
    1PA    H12R12477   2.010   1.729   3.972
    1PA    H12S12478   2.001   1.879   3.882
    1PA    C11112479   2.161   1.870   4.019
    1PA    H11R12480   2.163   1.978   4.033
    1PA    H11S12481   2.200   1.821   4.108
    1PA    C11012482   2.259   1.817   3.913
    1PA    H10R12483   2.245   1.710   3.901
    1PA    H10S12484   2.244   1.874   3.821
    1PA     C1912485   2.410   1.832   3.940
    1PA     H9R12486   2.437   1.805   4.042
    1PA     H9S12487   2.457   1.758   3.874
    1PA     C1812488   2.452   1.977   3.916
    1PA     H8R12489   2.420   1.995   3.813
    1PA     H8S12490   2.401   2.051   3.979
    1PA     C1712491   2.602   2.002   3.935
    1PA     H7R12492   2.642   1.967   4.031
    1PA     H7S12493   2.652   1.941   3.859
    1PA     C1612494   2.629   2.151   3.912
    1PA     H6R12495   2.568   2.222   3.969
    1PA     H6S12496   2.728   2.173   3.953
    1PA     C1512497   2.627   2.180   3.762
    1PA     H5R12498   2.536   2.145   3.712
    1PA     H5S12499   2.618   2.289   3.763
    1PA     C1412500   2.753   2.133   3.687
    1PA     H4R12501   2.829   2.202   3.723
    1PA     H4S12502   2.781   2.029   3.707
    1PA     C1312503   2.743   2.146   3.535
    1PA     H3R12504   2.708   2.050   3.497
    1PA     H3S12505   2.678   2.226   3.498
    1PA     C1212506   2.883   2.160   3.474
    1PA     H2R12507   2.935   2.248   3.514
    1PA     H2S12508   2.945   2.075   3.501
    2PC     C1112509   2.873   2.182   3.325
    2PC     O1212510   2.968   2.165   3.252
    2PC     O1112511   2.746   2.207   3.286
    2PC      C112512   2.717   2.232   3.148
    2PC      HR12513   2.618   2.278   3.144
    2PC      HS12514   2.798   2.291   3.106
    2PC      C212515   2.718   2.096   3.075
    2PC      HX12516   2.813   2.049   3.102
    2PC      C312517   2.710   2.113   2.923
    2PC      HA12518   2.687   2.017   2.877
    2PC      HB12519   2.636   2.192   2.904
    2PC     O3112520   2.844   2.153   2.892
    2PC     P3112521   2.875   2.167   2.735
    2PC     O3212522   3.021   2.220   2.772
    2PC     C3112523   3.118   2.128   2.824
    2PC     H1A12524   3.196   2.190   2.870
    2PC     H1B12525   3.074   2.062   2.899
    2PC     C3212526   3.186   2.043   2.715
    2PC     H2A12527   3.223   1.952   2.763
    2PC     H2B12528   3.116   2.002   2.643
    2PC     N3112529   3.307   2.088   2.641
    2PC     C3312530   3.290   2.228   2.589
    2PC     H3A12531   3.202   2.224   2.524
    2PC     H3B12532   3.266   2.293   2.673
    2PC     H3C12533   3.381   2.260   2.538
    2PC     C3412534   3.422   2.095   2.737
    2PC     H4A12535   3.508   2.133   2.681
    2PC     H4B12536   3.404   2.162   2.820
    2PC     H4C12537   3.445   1.994   2.773
    2PC     C3512538   3.337   1.993   2.529
    2PC     H5A12539   3.441   2.006   2.498
    2PC     H5B12540   3.276   2.010   2.441
    2PC     H5C12541   3.315   1.893   2.566
    2PC     O3312542   2.866   2.036   2.667
    2PC     O3412543   2.786   2.266   2.671
    2PC     O2112544   2.601   2.027   3.123
    2PC     C2112545   2.604   1.893   3.122
    2PC     O2212546   2.703   1.826   3.102
    3OL     C1212547   2.474   1.830   3.165
    3OL     H2R12548   2.447   1.762   3.083
    3OL     H2S12549   2.407   1.915   3.174
    3OL     C1312550   2.479   1.742   3.291
    3OL     H3R12551   2.535   1.653   3.262
    3OL     H3S12552   2.377   1.712   3.315
    3OL     C1412553   2.544   1.811   3.412
    3OL     H4R12554   2.645   1.837   3.378
    3OL     H4S12555   2.557   1.732   3.486
    3OL     C1512556   2.467   1.932   3.466
    3OL     H5R12557   2.495   2.021   3.410
    3OL     H5S12558   2.497   1.954   3.569
    3OL     C1612559   2.316   1.906   3.478
    3OL     H6R12560   2.294   1.814   3.531
    3OL     H6S12561   2.278   1.905   3.375
    3OL     C1712562   2.243   2.014   3.560
    3OL     H7R12563   2.303   2.039   3.648
    3OL     H7S12564   2.146   1.977   3.591
    3OL     C1812565   2.224   2.145   3.482
    3OL     H8R12566   2.169   2.121   3.391
    3OL     H8S12567   2.326   2.174   3.457
    3OL     C1912568   2.171   2.257   3.568
    3OL     H9R12569   2.145   2.237   3.672
    3OL    C11012570   2.156   2.380   3.523
    3OL    H10R12571   2.138   2.459   3.595
    3OL    C11112572   2.188   2.432   3.385
    3OL    H11R12573   2.091   2.450   3.339
    3OL    H11S12574   2.257   2.366   3.333
    3OL    C11212575   2.260   2.568   3.398
    3OL    H12R12576   2.239   2.621   3.491
    3OL    H12S12577   2.242   2.634   3.314
    3OL    C11312578   2.411   2.544   3.400
    3OL    H13R12579   2.447   2.496   3.309
    3OL    H13S12580   2.424   2.476   3.485
    3OL    C11412581   2.501   2.667   3.421
    3OL    H14R12582   2.490   2.700   3.524
    3OL    H14S12583   2.468   2.760   3.375
    3OL    C11512584   2.653   2.653   3.401
    3OL    H15R12585   2.690   2.755   3.408
    3OL    H15S12586   2.658   2.626   3.295
    3OL    C11612587   2.724   2.549   3.489
    3OL    H16R12588   2.826   2.538   3.452
    3OL    H16S12589   2.669   2.456   3.473
    3OL    C11712590   2.729   2.581   3.639
    3OL    H17R12591   2.738   2.493   3.702
    3OL    H17S12592   2.634   2.625   3.669
    3OL    C11812593   2.840   2.685   3.664
    3OL    H18R12594   2.821   2.765   3.592
    3OL    H18S12595   2.943   2.654   3.644
    3OL    H18T12596   2.832   2.732   3.762
    1PA    C11612597   1.413   0.850   4.254
    1PA    H16R12598   1.508   0.797   4.260
    1PA    H16S12599   1.332   0.794   4.207
    1PA    H16T12600   1.381   0.860   4.357
    1PA    C11512601   1.451   0.982   4.185
    1PA    H15R12602   1.370   1.052   4.168
    1PA    H15S12603   1.521   1.033   4.253
    1PA    C11412604   1.520   0.950   4.052
    1PA    H14R12605   1.604   0.882   4.067
    1PA    H14S12606   1.449   0.900   3.985
    1PA    C11312607   1.574   1.076   3.984
    1PA    H13R12608   1.491   1.146   3.973
    1PA    H13S12609   1.648   1.128   4.044
    1PA    C11212610   1.635   1.047   3.846
    1PA    H12R12611   1.742   1.040   3.865
    1PA    H12S12612   1.595   0.950   3.814
    1PA    C11112613   1.604   1.137   3.726
    1PA    H11R12614   1.499   1.141   3.698
    1PA    H11S12615   1.637   1.237   3.756
    1PA    C11012616   1.689   1.108   3.601
    1PA    H10R12617   1.796   1.120   3.619
    1PA    H10S12618   1.671   1.004   3.573
    1PA     C1912619   1.645   1.187   3.477
    1PA     H9R12620   1.680   1.139   3.385
    1PA     H9S12621   1.537   1.180   3.461
    1PA     C1812622   1.683   1.336   3.480
    1PA     H8R12623   1.636   1.393   3.560
    1PA     H8S12624   1.790   1.339   3.502
    1PA     C1712625   1.659   1.390   3.339
    1PA     H7R12626   1.728   1.472   3.319
    1PA     H7S12627   1.686   1.318   3.262
    1PA     C1612628   1.516   1.447   3.331
    1PA     H6R12629   1.450   1.365   3.360
    1PA     H6S12630   1.494   1.521   3.408
    1PA     C1512631   1.481   1.498   3.191
    1PA     H5R12632   1.375   1.522   3.180
    1PA     H5S12633   1.541   1.584   3.161
    1PA     C1412634   1.511   1.394   3.082
    1PA     H4R12635   1.617   1.370   3.069
    1PA     H4S12636   1.467   1.297   3.103
    1PA     C1312637   1.462   1.445   2.946
    1PA     H3R12638   1.356   1.462   2.967
    1PA     H3S12639   1.501   1.546   2.929
    1PA     C1212640   1.482   1.360   2.819
    1PA     H2R12641   1.588   1.350   2.794
    1PA     H2S12642   1.448   1.262   2.851
    2PC     C1112643   1.407   1.413   2.700
    2PC     O1212644   1.342   1.335   2.634
    2PC     O1112645   1.418   1.544   2.669
    2PC      C112646   1.367   1.598   2.546
    2PC      HR12647   1.414   1.545   2.463
    2PC      HS12648   1.263   1.572   2.521
    2PC      C212649   1.394   1.748   2.538
    2PC      HX12650   1.376   1.792   2.439
    2PC      C312651   1.547   1.766   2.544
    2PC      HA12652   1.595   1.721   2.631
    2PC      HB12653   1.578   1.723   2.449
    2PC     O3112654   1.584   1.905   2.537
    2PC     P3112655   1.700   1.957   2.440
    2PC     O3212656   1.828   1.930   2.532
    2PC     C3112657   1.957   1.932   2.467
    2PC     H1A12658   1.963   1.843   2.404
    2PC     H1B12659   1.975   2.022   2.407
    2PC     C3212660   2.072   1.930   2.568
    2PC     H2A12661   2.068   1.838   2.627
    2PC     H2B12662   2.165   1.927   2.511
    2PC     N3112663   2.087   2.036   2.673
    2PC     C3312664   2.032   2.168   2.627
    2PC     H3A12665   2.100   2.203   2.549
    2PC     H3B12666   1.932   2.153   2.588
    2PC     H3C12667   2.032   2.237   2.711
    2PC     C3412668   2.013   2.004   2.799
    2PC     H4A12669   1.915   1.974   2.762
    2PC     H4B12670   2.069   1.922   2.845
    2PC     H4C12671   1.998   2.088   2.867
    2PC     C3512672   2.231   2.053   2.708
    2PC     H5A12673   2.264   1.949   2.716
    2PC     H5B12674   2.242   2.107   2.802
    2PC     H5C12675   2.275   2.107   2.624
    2PC     O3312676   1.721   1.888   2.310
    2PC     O3412677   1.711   2.102   2.412
    2PC     O2112678   1.328   1.823   2.641
    2PC     C2112679   1.199   1.852   2.615
    2PC     O2212680   1.142   1.807   2.518
    3OL     C1212681   1.127   1.936   2.717
    3OL     H2R12682   1.032   1.961   2.668
    3OL     H2S12683   1.186   2.026   2.736
    3OL     C1312684   1.094   1.867   2.850
    3OL     H3R12685   1.187   1.828   2.891
    3OL     H3S12686   1.033   1.782   2.821
    3OL     C1412687   1.028   1.960   2.953
    3OL     H4R12688   0.950   2.016   2.901
    3OL     H4S12689   1.098   2.031   2.999
    3OL     C1512690   0.968   1.873   3.064
    3OL     H5R12691   1.046   1.822   3.121
    3OL     H5S12692   0.907   1.795   3.018
    3OL     C1612693   0.883   1.953   3.164
    3OL     H6R12694   0.825   1.883   3.224
    3OL     H6S12695   0.815   2.021   3.112
    3OL     C1712696   0.972   2.032   3.261
    3OL     H7R12697   1.040   2.092   3.199
    3OL     H7S12698   1.026   1.963   3.326
    3OL     C1812699   0.884   2.123   3.348
    3OL     H8R12700   0.817   2.190   3.295
    3OL     H8S12701   0.959   2.179   3.406
    3OL     C1912702   0.788   2.043   3.432
    3OL     H9R12703   0.718   1.970   3.392
    3OL    C11012704   0.792   2.052   3.564
    3OL    H10R12705   0.733   1.975   3.612
    3OL    C11112706   0.879   2.134   3.656
    3OL    H11R12707   0.983   2.123   3.627
    3OL    H11S12708   0.860   2.093   3.755
    3OL    C11212709   0.829   2.280   3.653
    3OL    H12R12710   0.720   2.275   3.645
    3OL    H12S12711   0.865   2.329   3.563
    3OL    C11312712   0.864   2.360   3.779
    3OL    H13R12713   0.828   2.302   3.864
    3OL    H13S12714   0.805   2.452   3.780
    3OL    C11412715   1.011   2.403   3.794
    3OL    H14R12716   1.039   2.462   3.707
    3OL    H14S12717   1.068   2.310   3.803
    3OL    C11512718   1.026   2.480   3.927
    3OL    H15R12719   0.990   2.419   4.010
    3OL    H15S12720   0.966   2.570   3.934
    3OL    C11612721   1.175   2.512   3.945
    3OL    H16R12722   1.200   2.593   3.876
    3OL    H16S12723   1.238   2.429   3.911
    3OL    C11712724   1.223   2.556   4.084
    3OL    H17R12725   1.218   2.468   4.148
    3OL    H17S12726   1.151   2.628   4.122
    3OL    C11812727   1.364   2.616   4.080
    3OL    H18R12728   1.433   2.557   4.018
    3OL    H18S12729   1.407   2.625   4.180
    3OL    H18T12730   1.366   2.712   4.028
    1PA    C11612731   0.803   0.030   3.899
    1PA    H16R12732   0.800  -0.079   3.901
    1PA    H16S12733   0.819   0.076   3.997
    1PA    H16T12734   0.887   0.061   3.836
    1PA    C11512735   0.672   0.087   3.843
    1PA    H15R12736   0.643   0.035   3.752
    1PA    H15S12737   0.591   0.075   3.914
    1PA    C11412738   0.692   0.235   3.804
    1PA    H14R12739   0.711   0.291   3.896
    1PA    H14S12740   0.769   0.242   3.727
    1PA    C11312741   0.564   0.295   3.743
    1PA    H13R12742   0.542   0.232   3.657
    1PA    H13S12743   0.477   0.284   3.808
    1PA    C11212744   0.579   0.443   3.705
    1PA    H12R12745   0.494   0.509   3.724
    1PA    H12S12746   0.658   0.476   3.772
    1PA    C11112747   0.638   0.462   3.564
    1PA    H11R12748   0.733   0.408   3.563
    1PA    H11S12749   0.574   0.417   3.488
    1PA    C11012750   0.655   0.612   3.538
    1PA    H10R12751   0.558   0.660   3.552
    1PA    H10S12752   0.725   0.642   3.616
    1PA     C1912753   0.727   0.649   3.408
    1PA     H9R12754   0.783   0.743   3.408
    1PA     H9S12755   0.796   0.570   3.378
    1PA     C1812756   0.623   0.660   3.296
    1PA     H8R12757   0.558   0.574   3.282
    1PA     H8S12758   0.548   0.734   3.325
    1PA     C1712759   0.683   0.694   3.158
    1PA     H7R12760   0.754   0.776   3.169
    1PA     H7S12761   0.738   0.610   3.116
    1PA     C1612762   0.586   0.736   3.047
    1PA     H6R12763   0.551   0.638   3.016
    1PA     H6S12764   0.499   0.789   3.086
    1PA     C1512765   0.660   0.809   2.934
    1PA     H5R12766   0.723   0.890   2.971
    1PA     H5S12767   0.736   0.738   2.901
    1PA     C1412768   0.566   0.860   2.824
    1PA     H4R12769   0.493   0.788   2.785
    1PA     H4S12770   0.511   0.945   2.864
    1PA     C1312771   0.638   0.909   2.697
    1PA     H3R12772   0.702   0.837   2.646
    1PA     H3S12773   0.568   0.929   2.616
    1PA     C1212774   0.730   1.027   2.728
    1PA     H2R12775   0.661   1.104   2.763
    1PA     H2S12776   0.800   1.001   2.808
    2PC     C1112777   0.807   1.065   2.604
    2PC     O1212778   0.843   0.981   2.523
    2PC     O1112779   0.827   1.196   2.587
    2PC      C112780   0.894   1.237   2.466
    2PC      HR12781   0.986   1.180   2.451
    2PC      HS12782   0.827   1.219   2.382
    2PC      C212783   0.926   1.387   2.479
    2PC      HX12784   0.841   1.453   2.498
    2PC      C312785   0.986   1.421   2.343
    2PC      HA12786   0.906   1.422   2.269
    2PC      HB12787   1.035   1.519   2.353
    2PC     O3112788   1.085   1.324   2.306
    2PC     P3112789   1.163   1.345   2.167
    2PC     O3212790   1.065   1.315   2.044
    2PC     C3112791   1.015   1.183   2.016
    2PC     H1A12792   1.076   1.102   2.055
    2PC     H1B12793   0.915   1.190   2.061
    2PC     C3212794   0.999   1.173   1.864
    2PC     H2A12795   0.948   1.079   1.839
    2PC     H2B12796   0.926   1.239   1.818
    2PC     N3112797   1.123   1.175   1.780
    2PC     C3312798   1.134   1.314   1.725
    2PC     H3A12799   1.131   1.380   1.811
    2PC     H3B12800   1.224   1.321   1.663
    2PC     H3C12801   1.040   1.327   1.671
    2PC     C3412802   1.245   1.120   1.846
    2PC     H4A12803   1.261   1.173   1.940
    2PC     H4B12804   1.230   1.014   1.868
    2PC     H4C12805   1.320   1.143   1.771
    2PC     C3512806   1.111   1.086   1.659
    2PC     H5A12807   1.089   0.981   1.678
    2PC     H5B12808   1.203   1.103   1.604
    2PC     H5C12809   1.033   1.138   1.603
    2PC     O3312810   1.226   1.479   2.162
    2PC     O3412811   1.279   1.253   2.167
    2PC     O2112812   1.016   1.400   2.591
    2PC     C2112813   0.965   1.434   2.710
    2PC     O2212814   0.851   1.475   2.721
    3OL     C1212815   1.049   1.423   2.835
    3OL     H2R12816   1.131   1.493   2.816
    3OL     H2S12817   1.089   1.321   2.846
    3OL     C1312818   0.972   1.462   2.962
    3OL     H3R12819   0.896   1.385   2.981
    3OL     H3S12820   0.910   1.550   2.943
    3OL     C1412821   1.060   1.469   3.087
    3OL     H4R12822   1.143   1.535   3.058
    3OL     H4S12823   1.096   1.371   3.117
    3OL     C1512824   0.986   1.523   3.210
    3OL     H5R12825   0.906   1.455   3.238
    3OL     H5S12826   0.948   1.624   3.192
    3OL     C1612827   1.080   1.529   3.331
    3OL     H6R12828   1.172   1.581   3.302
    3OL     H6S12829   1.094   1.427   3.367
    3OL     C1712830   1.020   1.607   3.449
    3OL     H7R12831   0.917   1.587   3.479
    3OL     H7S12832   1.020   1.711   3.418
    3OL     C1812833   1.099   1.585   3.578
    3OL     H8R12834   1.115   1.479   3.598
    3OL     H8S12835   1.038   1.607   3.666
    3OL     C1912836   1.230   1.661   3.579
    3OL     H9R12837   1.314   1.597   3.555
    3OL    C11012838   1.255   1.788   3.607
    3OL    H10R12839   1.356   1.826   3.596
    3OL    C11112840   1.147   1.887   3.643
    3OL    H11R12841   1.061   1.869   3.578
    3OL    H11S12842   1.171   1.989   3.610
    3OL    C11212843   1.122   1.885   3.794
    3OL    H12R12844   1.097   1.786   3.831
    3OL    H12S12845   1.033   1.946   3.812
    3OL    C11312846   1.247   1.929   3.872
    3OL    H13R12847   1.297   2.019   3.837
    3OL    H13S12848   1.317   1.845   3.868
    3OL    C11412849   1.211   1.957   4.019
    3OL    H14R12850   1.307   1.961   4.071
    3OL    H14S12851   1.135   1.895   4.066
    3OL    C11512852   1.153   2.099   4.027
    3OL    H15R12853   1.067   2.123   3.964
    3OL    H15S12854   1.226   2.172   3.989
    3OL    C11612855   1.111   2.151   4.165
    3OL    H16R12856   1.027   2.100   4.211
    3OL    H16S12857   1.083   2.256   4.156
    3OL    C11712858   1.222   2.168   4.269
    3OL    H17R12859   1.197   2.244   4.343
    3OL    H17S12860   1.316   2.204   4.227
    3OL    C11812861   1.247   2.036   4.344
    3OL    H18R12862   1.172   2.018   4.422
    3OL    H18S12863   1.349   2.028   4.382
    3OL    H18T12864   1.243   1.957   4.269
    1PA    C11612865   2.488   3.202   4.460
    1PA    H16R12866   2.545   3.217   4.368
    1PA    H16S12867   2.556   3.212   4.544
    1PA    H16T12868   2.421   3.289   4.466
    1PA    C11512869   2.418   3.066   4.451
    1PA    H15R12870   2.486   2.981   4.464
    1PA    H15S12871   2.348   3.067   4.535
    1PA    C11412872   2.346   3.044   4.318
    1PA    H14R12873   2.284   3.131   4.294
    1PA    H14S12874   2.422   3.022   4.242
    1PA    C11312875   2.259   2.918   4.322
    1PA    H13R12876   2.324   2.831   4.333
    1PA    H13S12877   2.193   2.922   4.409
    1PA    C11212878   2.185   2.898   4.189
    1PA    H12R12879   2.116   2.980   4.164
    1PA    H12S12880   2.253   2.880   4.106
    1PA    C11112881   2.093   2.776   4.203
    1PA    H11R12882   2.147   2.688   4.240
    1PA    H11S12883   2.022   2.799   4.282
    1PA    C11012884   2.020   2.752   4.071
    1PA    H10R12885   1.959   2.840   4.049
    1PA    H10S12886   2.100   2.751   3.997
    1PA     C1912887   1.945   2.619   4.085
    1PA     H9R12888   2.010   2.532   4.071
    1PA     H9S12889   1.887   2.612   4.178
    1PA     C1812890   1.837   2.601   3.978
    1PA     H8R12891   1.793   2.503   4.000
    1PA     H8S12892   1.769   2.685   3.994
    1PA     C1712893   1.895   2.598   3.836
    1PA     H7R12894   1.953   2.690   3.826
    1PA     H7S12895   1.955   2.511   3.809
    1PA     C1612896   1.776   2.609   3.739
    1PA     H6R12897   1.709   2.524   3.752
    1PA     H6S12898   1.725   2.704   3.758
    1PA     C1512899   1.824   2.606   3.594
    1PA     H5R12900   1.911   2.541   3.585
    1PA     H5S12901   1.749   2.563   3.527
    1PA     C1412902   1.851   2.750   3.547
    1PA     H4R12903   1.756   2.804   3.549
    1PA     H4S12904   1.914   2.799   3.621
    1PA     C1312905   1.921   2.745   3.410
    1PA     H3R12906   1.993   2.663   3.412
    1PA     H3S12907   1.846   2.706   3.341
    1PA     C1212908   1.974   2.882   3.367
    1PA     H2R12909   1.890   2.952   3.370
    1PA     H2S12910   2.046   2.917   3.442
    2PC     C1112911   2.010   2.888   3.221
    2PC     O1212912   1.981   2.798   3.145
    2PC     O1112913   2.090   2.993   3.194
    2PC      C112914   2.138   3.018   3.061
    2PC      HR12915   2.229   3.079   3.073
    2PC      HS12916   2.163   2.920   3.019
    2PC      C212917   2.046   3.088   2.961
    2PC      HX12918   1.948   3.042   2.966
    2PC      C312919   2.109   3.085   2.821
    2PC      HA12920   2.198   3.148   2.814
    2PC      HB12921   2.136   2.979   2.817
    2PC     O3112922   2.011   3.124   2.723
    2PC     P3112923   2.051   3.117   2.568
    2PC     O3212924   1.905   3.120   2.502
    2PC     C3112925   1.825   3.240   2.507
    2PC     H1A12926   1.789   3.254   2.609
    2PC     H1B12927   1.897   3.317   2.478
    2PC     C3212928   1.710   3.221   2.408
    2PC     H2A12929   1.658   3.126   2.417
    2PC     H2B12930   1.631   3.294   2.427
    2PC     N3112931   1.749   3.234   2.264
    2PC     C3312932   1.643   3.170   2.178
    2PC     H3A12933   1.560   3.241   2.181
    2PC     H3B12934   1.686   3.169   2.078
    2PC     H3C12935   1.622   3.074   2.225
    2PC     C3412936   1.763   3.378   2.225
    2PC     H4A12937   1.753   3.395   2.117
    2PC     H4B12938   1.691   3.440   2.278
    2PC     H4C12939   1.858   3.405   2.271
    2PC     C3512940   1.873   3.155   2.234
    2PC     H5A12941   1.883   3.161   2.126
    2PC     H5B12942   1.860   3.056   2.278
    2PC     H5C12943   1.964   3.203   2.269
    2PC     O3312944   2.119   3.245   2.536
    2PC     O3412945   2.143   3.008   2.528
    2PC     O2112946   2.037   3.222   3.012
    2PC     C2112947   1.953   3.311   2.957
    2PC     O2212948   1.857   3.274   2.891
    3OL     C1212949   1.968   3.452   3.009
    3OL     H2R12950   2.004   3.514   2.927
    3OL     H2S12951   2.044   3.451   3.088
    3OL     C1312952   1.848   3.515   3.080
    3OL     H3R12953   1.775   3.545   3.005
    3OL     H3S12954   1.881   3.612   3.118
    3OL     C1412955   1.783   3.429   3.189
    3OL     H4R12956   1.774   3.333   3.138
    3OL     H4S12957   1.687   3.469   3.223
    3OL     C1512958   1.879   3.410   3.307
    3OL     H5R12959   1.916   3.505   3.344
    3OL     H5S12960   1.967   3.353   3.274
    3OL     C1612961   1.812   3.331   3.420
    3OL     H6R12962   1.805   3.222   3.415
    3OL     H6S12963   1.711   3.369   3.433
    3OL     C1712964   1.867   3.370   3.558
    3OL     H7R12965   1.882   3.477   3.568
    3OL     H7S12966   1.971   3.337   3.571
    3OL     C1812967   1.771   3.321   3.668
    3OL     H8R12968   1.733   3.222   3.641
    3OL     H8S12969   1.682   3.384   3.668
    3OL     C1912970   1.827   3.351   3.804
    3OL     H9R12971   1.835   3.458   3.820
    3OL    C11012972   1.871   3.264   3.893
    3OL    H10R12973   1.906   3.303   3.988
    3OL    C11112974   1.892   3.118   3.860
    3OL    H11R12975   1.990   3.086   3.895
    3OL    H11S12976   1.887   3.104   3.752
    3OL    C11212977   1.788   3.028   3.927
    3OL    H12R12978   1.813   2.922   3.917
    3OL    H12S12979   1.687   3.046   3.888
    3OL    C11312980   1.774   3.053   4.078
    3OL    H13R12981   1.752   3.158   4.096
    3OL    H13S12982   1.876   3.040   4.116
    3OL    C11412983   1.665   2.956   4.128
    3OL    H14R12984   1.687   2.852   4.106
    3OL    H14S12985   1.567   2.982   4.088
    3OL    C11512986   1.661   2.968   4.281
    3OL    H15R12987   1.657   3.074   4.307
    3OL    H15S12988   1.754   2.921   4.313
    3OL    C11612989   1.544   2.893   4.346
    3OL    H16R12990   1.543   2.787   4.320
    3OL    H16S12991   1.449   2.921   4.301
    3OL    C11712992   1.535   2.908   4.499
    3OL    H17R12993   1.633   2.901   4.545
    3OL    H17S12994   1.468   2.835   4.545
    3OL    C11812995   1.474   3.044   4.535
    3OL    H18R12996   1.535   3.128   4.502
    3OL    H18S12997   1.452   3.056   4.642
    3OL    H18T12998   1.371   3.046   4.498
    1PA    C11612999  -0.165   0.003   3.690
    1PA    H16R13000  -0.222  -0.042   3.771
    1PA    H16S13001  -0.100  -0.082   3.669
    1PA    H16T13002  -0.226   0.034   3.605
    1PA    C11513003  -0.086   0.122   3.746
    1PA    H15R13004  -0.158   0.203   3.758
    1PA    H15S13005  -0.037   0.081   3.835
    1PA    C11413006   0.023   0.167   3.647
    1PA    H14R13007  -0.014   0.198   3.549
    1PA    H14S13008   0.059   0.263   3.683
    1PA    C11313009   0.140   0.067   3.638
    1PA    H13R13010   0.180   0.051   3.738
    1PA    H13S13011   0.103  -0.027   3.598
    1PA    C11213012   0.246   0.114   3.537
    1PA    H12R13013   0.207   0.135   3.437
    1PA    H12S13014   0.294   0.204   3.576
    1PA    C11113015   0.354   0.005   3.522
    1PA    H11R13016   0.397  -0.010   3.621
    1PA    H11S13017   0.313  -0.093   3.499
    1PA    C11013018   0.463   0.046   3.421
    1PA    H10R13019   0.514   0.135   3.456
    1PA    H10S13020   0.542  -0.029   3.413
    1PA     C1913021   0.409   0.081   3.282
    1PA     H9R13022   0.347   0.007   3.230
    1PA     H9S13023   0.345   0.170   3.283
    1PA     C1813024   0.523   0.114   3.185
    1PA     H8R13025   0.583   0.197   3.224
    1PA     H8S13026   0.585   0.024   3.186
    1PA     C1713027   0.498   0.156   3.040
    1PA     H7R13028   0.592   0.177   2.987
    1PA     H7S13029   0.463   0.066   2.990
    1PA     C1613030   0.408   0.280   3.024
    1PA     H6R13031   0.313   0.275   3.077
    1PA     H6S13032   0.459   0.371   3.055
    1PA     C1513033   0.378   0.310   2.876
    1PA     H5R13034   0.469   0.292   2.819
    1PA     H5S13035   0.298   0.244   2.840
    1PA     C1413036   0.324   0.450   2.846
    1PA     H4R13037   0.230   0.471   2.896
    1PA     H4S13038   0.391   0.530   2.879
    1PA     C1313039   0.297   0.459   2.695
    1PA     H3R13040   0.386   0.427   2.641
    1PA     H3S13041   0.207   0.404   2.666
    1PA     C1213042   0.298   0.600   2.635
    1PA     H2R13043   0.204   0.636   2.676
    1PA     H2S13044   0.375   0.672   2.664
    2PC     C1113045   0.288   0.603   2.485
    2PC     O1213046   0.320   0.696   2.413
    2PC     O1113047   0.224   0.497   2.432
    2PC      C113048   0.196   0.491   2.291
    2PC      HR13049   0.272   0.542   2.232
    2PC      HS13050   0.201   0.389   2.250
    2PC      C213051   0.060   0.558   2.266
    2PC      HX13052  -0.008   0.523   2.344
    2PC      C313053   0.002   0.510   2.132
    2PC      HA13054  -0.033   0.407   2.142
    2PC      HB13055  -0.069   0.586   2.097
    2PC     O3113056   0.111   0.515   2.038
    2PC     P3113057   0.080   0.529   1.882
    2PC     O3213058   0.163   0.660   1.842
    2PC     C3113059   0.132   0.777   1.921
    2PC     H1A13060   0.024   0.783   1.903
    2PC     H1B13061   0.149   0.756   2.027
    2PC     C3213062   0.212   0.898   1.871
    2PC     H2A13063   0.220   0.888   1.763
    2PC     H2B13064   0.154   0.986   1.899
    2PC     N3113065   0.346   0.919   1.934
    2PC     C3313066   0.341   0.949   2.081
    2PC     H3A13067   0.291   1.046   2.092
    2PC     H3B13068   0.293   0.863   2.127
    2PC     H3C13069   0.443   0.959   2.116
    2PC     C3413070   0.431   0.798   1.909
    2PC     H4A13071   0.393   0.713   1.966
    2PC     H4B13072   0.436   0.767   1.805
    2PC     H4C13073   0.530   0.821   1.949
    2PC     C3513074   0.422   1.034   1.874
    2PC     H5A13075   0.507   1.072   1.930
    2PC     H5B13076   0.353   1.118   1.864
    2PC     H5C13077   0.447   0.996   1.774
    2PC     O3313078   0.117   0.409   1.803
    2PC     O3413079  -0.059   0.542   1.834
    2PC     O2113080   0.076   0.701   2.267
    2PC     C2113081  -0.029   0.783   2.280
    2PC     O2213082  -0.146   0.751   2.286
    3OL     C1213083   0.018   0.926   2.270
    3OL     H2R13084  -0.005   0.964   2.170
    3OL     H2S13085   0.126   0.931   2.286
    3OL     C1313086  -0.060   1.022   2.361
    3OL     H3R13087  -0.163   1.019   2.325
    3OL     H3S13088  -0.024   1.124   2.346
    3OL     C1413089  -0.051   0.988   2.511
    3OL     H4R13090  -0.110   0.898   2.529
    3OL     H4S13091  -0.117   1.062   2.557
    3OL     C1513092   0.092   0.986   2.565
    3OL     H5R13093   0.131   1.088   2.571
    3OL     H5S13094   0.163   0.927   2.507
    3OL     C1613095   0.085   0.931   2.708
    3OL     H6R13096   0.028   0.839   2.700
    3OL     H6S13097   0.022   1.000   2.765
    3OL     C1713098   0.226   0.920   2.768
    3OL     H7R13099   0.251   1.020   2.803
    3OL     H7S13100   0.301   0.883   2.697
    3OL     C1813101   0.241   0.824   2.887
    3OL     H8R13102   0.346   0.811   2.912
    3OL     H8S13103   0.210   0.730   2.841
    3OL     C1913104   0.144   0.867   2.994
    3OL     H9R13105   0.084   0.955   2.972
    3OL    C11013106   0.139   0.821   3.118
    3OL    H10R13107   0.066   0.870   3.182
    3OL    C11113108   0.215   0.706   3.179
    3OL    H11R13109   0.318   0.738   3.197
    3OL    H11S13110   0.233   0.638   3.094
    3OL    C11213111   0.151   0.639   3.301
    3OL    H12R13112   0.057   0.595   3.266
    3OL    H12S13113   0.130   0.719   3.372
    3OL    C11313114   0.237   0.526   3.358
    3OL    H13R13115   0.340   0.553   3.384
    3OL    H13S13116   0.252   0.454   3.277
    3OL    C11413117   0.182   0.460   3.485
    3OL    H14R13118   0.227   0.360   3.492
    3OL    H14S13119   0.075   0.439   3.472
    3OL    C11513120   0.208   0.538   3.614
    3OL    H15R13121   0.304   0.590   3.607
    3OL    H15S13122   0.226   0.463   3.691
    3OL    C11613123   0.113   0.652   3.653
    3OL    H16R13124   0.078   0.709   3.567
    3OL    H16S13125   0.162   0.725   3.718
    3OL    C11713126  -0.005   0.592   3.732
    3OL    H17R13127   0.016   0.518   3.809
    3OL    H17S13128  -0.063   0.529   3.665
    3OL    C11813129  -0.091   0.697   3.803
    3OL    H18R13130  -0.117   0.785   3.743
    3OL    H18S13131  -0.030   0.737   3.885
    3OL    H18T13132  -0.177   0.653   3.854
    1PA    C11613133  -0.179   1.248   3.820
    1PA    H16R13134  -0.191   1.341   3.876
    1PA    H16S13135  -0.167   1.167   3.893
    1PA    H16T13136  -0.273   1.223   3.770
    1PA    C11513137  -0.057   1.239   3.728
    1PA    H15R13138  -0.059   1.327   3.663
    1PA    H15S13139   0.027   1.249   3.798
    1PA    C11413140  -0.050   1.104   3.656
    1PA    H14R13141  -0.108   1.040   3.723
    1PA    H14S13142  -0.103   1.124   3.563
    1PA    C11313143   0.094   1.054   3.639
    1PA    H13R13144   0.144   1.043   3.735
    1PA    H13S13145   0.092   0.965   3.576
    1PA    C11213146   0.183   1.161   3.574
    1PA    H12R13147   0.175   1.259   3.622
    1PA    H12S13148   0.289   1.133   3.578
    1PA    C11113149   0.165   1.173   3.422
    1PA    H11R13150   0.061   1.182   3.393
    1PA    H11S13151   0.220   1.259   3.383
    1PA    C11013152   0.199   1.042   3.349
    1PA    H10R13153   0.162   0.956   3.404
    1PA    H10S13154   0.145   1.050   3.254
    1PA     C1913155   0.351   1.023   3.331
    1PA     H9R13156   0.399   1.009   3.428
    1PA     H9S13157   0.370   0.930   3.278
    1PA     C1813158   0.431   1.129   3.253
    1PA     H8R13159   0.432   1.224   3.307
    1PA     H8S13160   0.533   1.090   3.245
    1PA     C1713161   0.380   1.154   3.111
    1PA     H7R13162   0.387   1.062   3.053
    1PA     H7S13163   0.275   1.185   3.108
    1PA     C1613164   0.465   1.264   3.046
    1PA     H6R13165   0.470   1.363   3.091
    1PA     H6S13166   0.571   1.239   3.049
    1PA     C1513167   0.428   1.284   2.898
    1PA     H5R13168   0.441   1.195   2.836
    1PA     H5S13169   0.320   1.298   2.889
    1PA     C1413170   0.497   1.403   2.830
    1PA     H4R13171   0.473   1.488   2.894
    1PA     H4S13172   0.605   1.392   2.828
    1PA     C1313173   0.458   1.437   2.685
    1PA     H3R13174   0.349   1.432   2.679
    1PA     H3S13175   0.495   1.534   2.653
    1PA     C1213176   0.519   1.331   2.592
    1PA     H2R13177   0.627   1.328   2.602
    1PA     H2S13178   0.475   1.233   2.616
    2PC     C1113179   0.493   1.350   2.445
    2PC     O1213180   0.385   1.378   2.396
    2PC     O1113181   0.603   1.332   2.370
    2PC      C113182   0.582   1.336   2.228
    2PC      HR13183   0.680   1.311   2.186
    2PC      HS13184   0.503   1.264   2.205
    2PC      C213185   0.558   1.477   2.173
    2PC      HX13186   0.465   1.527   2.202
    2PC      C313187   0.548   1.476   2.020
    2PC      HA13188   0.452   1.434   1.990
    2PC      HB13189   0.563   1.580   1.990
    2PC     O3113190   0.649   1.397   1.954
    2PC     P3113191   0.672   1.420   1.797
    2PC     O3213192   0.751   1.558   1.818
    2PC     C3113193   0.795   1.629   1.701
    2PC     H1A13194   0.867   1.707   1.728
    2PC     H1B13195   0.829   1.549   1.635
    2PC     C3213196   0.670   1.700   1.647
    2PC     H2A13197   0.596   1.628   1.611
    2PC     H2B13198   0.624   1.751   1.732
    2PC     N3113199   0.700   1.800   1.539
    2PC     C3313200   0.570   1.848   1.481
    2PC     H3A13201   0.525   1.762   1.431
    2PC     H3B13202   0.519   1.867   1.575
    2PC     H3C13203   0.582   1.941   1.425
    2PC     C3413204   0.761   1.929   1.583
    2PC     H4A13205   0.697   1.974   1.660
    2PC     H4B13206   0.858   1.913   1.631
    2PC     H4C13207   0.763   1.990   1.493
    2PC     C3513208   0.775   1.747   1.421
    2PC     H5A13209   0.711   1.675   1.370
    2PC     H5B13210   0.854   1.686   1.465
    2PC     H5C13211   0.828   1.819   1.358
    2PC     O3313212   0.750   1.312   1.731
    2PC     O3413213   0.550   1.437   1.715
    2PC     O2113214   0.672   1.555   2.215
    2PC     C2113215   0.675   1.689   2.208
    2PC     O2213216   0.595   1.759   2.149
    3OL     C1213217   0.784   1.752   2.292
    3OL     H2R13218   0.771   1.861   2.286
    3OL     H2S13219   0.884   1.728   2.257
    3OL     C1313220   0.773   1.719   2.441
    3OL     H3R13221   0.874   1.723   2.482
    3OL     H3S13222   0.747   1.614   2.454
    3OL     C1413223   0.684   1.809   2.529
    3OL     H4R13224   0.580   1.795   2.497
    3OL     H4S13225   0.705   1.915   2.513
    3OL     C1513226   0.702   1.773   2.678
    3OL     H5R13227   0.803   1.770   2.717
    3OL     H5S13228   0.665   1.671   2.691
    3OL     C1613229   0.635   1.875   2.770
    3OL     H6R13230   0.536   1.904   2.734
    3OL     H6S13231   0.699   1.963   2.759
    3OL     C1713232   0.614   1.821   2.912
    3OL     H7R13233   0.706   1.810   2.971
    3OL     H7S13234   0.564   1.725   2.915
    3OL     C1813235   0.527   1.915   2.997
    3OL     H8R13236   0.437   1.955   2.950
    3OL     H8S13237   0.584   2.007   3.011
    3OL     C1913238   0.489   1.853   3.129
    3OL     H9R13239   0.571   1.836   3.199
    3OL    C11013240   0.366   1.812   3.156
    3OL    H10R13241   0.333   1.762   3.246
    3OL    C11113242   0.249   1.825   3.061
    3OL    H11R13243   0.178   1.744   3.081
    3OL    H11S13244   0.289   1.807   2.961
    3OL    C11213245   0.180   1.962   3.072
    3OL    H12R13246   0.112   1.972   2.987
    3OL    H12S13247   0.249   2.043   3.051
    3OL    C11313248   0.114   1.980   3.210
    3OL    H13R13249   0.190   2.025   3.274
    3OL    H13S13250   0.082   1.886   3.255
    3OL    C11413251  -0.003   2.077   3.229
    3OL    H14R13252   0.033   2.179   3.214
    3OL    H14S13253  -0.040   2.082   3.331
    3OL    C11513254  -0.122   2.041   3.139
    3OL    H15R13255  -0.078   2.034   3.040
    3OL    H15S13256  -0.184   2.131   3.130
    3OL    C11613257  -0.194   1.913   3.182
    3OL    H16R13258  -0.266   1.936   3.262
    3OL    H16S13259  -0.126   1.839   3.225
    3OL    C11713260  -0.274   1.842   3.072
    3OL    H17R13261  -0.201   1.810   2.998
    3OL    H17S13262  -0.343   1.917   3.033
    3OL    C11813263  -0.334   1.712   3.127
    3OL    H18R13264  -0.394   1.667   3.047
    3OL    H18S13265  -0.407   1.733   3.206
    3OL    H18T13266  -0.264   1.633   3.156
    1PA    C11613267   5.979   5.068   4.372
    1PA    H16R13268   6.011   5.156   4.427
    1PA    H16S13269   6.011   4.989   4.441
    1PA    H16T13270   5.872   5.078   4.354
    1PA    C11513271   6.035   5.053   4.230
    1PA    H15R13272   5.990   5.136   4.175
    1PA    H15S13273   6.143   5.066   4.235
    1PA    C11413274   5.997   4.916   4.172
    1PA    H14R13275   6.040   4.844   4.242
    1PA    H14S13276   5.890   4.894   4.172
    1PA    C11313277   6.057   4.899   4.032
    1PA    H13R13278   5.997   4.968   3.971
    1PA    H13S13279   6.165   4.913   4.030
    1PA    C11213280   6.033   4.756   3.983
    1PA    H12R13281   6.097   4.689   4.041
    1PA    H12S13282   5.931   4.720   3.994
    1PA    C11113283   6.073   4.736   3.836
    1PA    H11R13284   6.027   4.809   3.768
    1PA    H11S13285   6.180   4.755   3.840
    1PA    C11013286   6.043   4.595   3.783
    1PA    H10R13287   6.111   4.556   3.707
    1PA    H10S13288   6.061   4.531   3.870
    1PA     C1913289   5.907   4.570   3.718
    1PA     H9R13290   5.828   4.609   3.782
    1PA     H9S13291   5.899   4.639   3.633
    1PA     C1813292   5.875   4.422   3.692
    1PA     H8R13293   5.940   4.389   3.611
    1PA     H8S13294   5.907   4.372   3.785
    1PA     C1713295   5.729   4.396   3.655
    1PA     H7R13296   5.723   4.287   3.656
    1PA     H7S13297   5.657   4.448   3.720
    1PA     C1613298   5.701   4.451   3.515
    1PA     H6R13299   5.710   4.560   3.521
    1PA     H6S13300   5.773   4.408   3.445
    1PA     C1513301   5.556   4.430   3.468
    1PA     H5R13302   5.481   4.444   3.547
    1PA     H5S13303   5.532   4.505   3.393
    1PA     C1413304   5.537   4.288   3.414
    1PA     H4R13305   5.629   4.255   3.365
    1PA     H4S13306   5.507   4.223   3.496
    1PA     C1313307   5.425   4.286   3.309
    1PA     H3R13308   5.328   4.307   3.354
    1PA     H3S13309   5.444   4.364   3.236
    1PA     C1213310   5.433   4.151   3.236
    1PA     H2R13311   5.533   4.133   3.197
    1PA     H2S13312   5.404   4.063   3.294
    2PC     C1113313   5.341   4.149   3.117
    2PC     O1213314   5.283   4.247   3.075
    2PC     O1113315   5.335   4.030   3.054
    2PC      C113316   5.267   4.018   2.928
    2PC      HR13317   5.168   4.063   2.935
    2PC      HS13318   5.330   4.064   2.851
    2PC      C213319   5.243   3.869   2.902
    2PC      HX13320   5.341   3.820   2.900
    2PC      C313321   5.168   3.854   2.769
    2PC      HA13322   5.067   3.892   2.784
    2PC      HB13323   5.207   3.920   2.692
    2PC     O3113324   5.151   3.719   2.723
    2PC     P3113325   5.134   3.699   2.565
    2PC     O3213326   5.007   3.794   2.542
    2PC     C3113327   4.980   3.835   2.407
    2PC     H1A13328   5.071   3.880   2.367
    2PC     H1B13329   4.983   3.736   2.362
    2PC     C3213330   4.853   3.921   2.400
    2PC     H2A13331   4.866   4.017   2.450
    2PC     H2B13332   4.822   3.930   2.296
    2PC     N3113333   4.722   3.865   2.448
    2PC     C3313334   4.610   3.956   2.408
    2PC     H3A13335   4.515   3.904   2.419
    2PC     H3B13336   4.616   4.042   2.475
    2PC     H3C13337   4.622   3.991   2.305
    2PC     C3413338   4.699   3.731   2.386
    2PC     H4A13339   4.721   3.744   2.280
    2PC     H4B13340   4.767   3.651   2.418
    2PC     H4C13341   4.594   3.703   2.399
    2PC     C3513342   4.723   3.853   2.598
    2PC     H5A13343   4.750   3.948   2.643
    2PC     H5B13344   4.783   3.773   2.641
    2PC     H5C13345   4.617   3.829   2.609
    2PC     O3313346   5.257   3.744   2.496
    2PC     O3413347   5.107   3.560   2.521
    2PC     O2113348   5.169   3.808   3.009
    2PC     C2113349   5.165   3.675   3.028
    2PC     O2213350   5.228   3.597   2.959
    3OL     C1213351   5.070   3.629   3.135
    3OL     H2R13352   5.049   3.524   3.114
    3OL     H2S13353   4.978   3.686   3.136
    3OL     C1313354   5.145   3.644   3.269
    3OL     H3R13355   5.167   3.749   3.289
    3OL     H3S13356   5.242   3.593   3.271
    3OL     C1413357   5.059   3.601   3.388
    3OL     H4R13358   5.041   3.494   3.376
    3OL     H4S13359   4.959   3.643   3.391
    3OL     C1513360   5.113   3.624   3.530
    3OL     H5R13361   5.034   3.583   3.593
    3OL     H5S13362   5.126   3.730   3.549
    3OL     C1613363   5.247   3.555   3.561
    3OL     H6R13364   5.320   3.569   3.481
    3OL     H6S13365   5.230   3.447   3.558
    3OL     C1713366   5.305   3.612   3.691
    3OL     H7R13367   5.233   3.635   3.769
    3OL     H7S13368   5.369   3.697   3.664
    3OL     C1813369   5.387   3.496   3.749
    3OL     H8R13370   5.437   3.531   3.840
    3OL     H8S13371   5.457   3.459   3.674
    3OL     C1913372   5.296   3.388   3.800
    3OL     H9R13373   5.231   3.420   3.881
    3OL    C11013374   5.295   3.259   3.767
    3OL    H10R13375   5.224   3.194   3.817
    3OL    C11113376   5.352   3.195   3.643
    3OL    H11R13377   5.350   3.264   3.559
    3OL    H11S13378   5.297   3.107   3.609
    3OL    C11213379   5.498   3.156   3.672
    3OL    H12R13380   5.496   3.076   3.746
    3OL    H12S13381   5.552   3.240   3.716
    3OL    C11313382   5.573   3.113   3.544
    3OL    H13R13383   5.527   3.023   3.505
    3OL    H13S13384   5.674   3.093   3.581
    3OL    C11413385   5.570   3.211   3.426
    3OL    H14R13386   5.577   3.316   3.453
    3OL    H14S13387   5.479   3.194   3.366
    3OL    C11513388   5.689   3.176   3.336
    3OL    H15R13389   5.665   3.082   3.286
    3OL    H15S13390   5.784   3.166   3.390
    3OL    C11613391   5.703   3.288   3.232
    3OL    H16R13392   5.782   3.250   3.166
    3OL    H16S13393   5.724   3.384   3.279
    3OL    C11713394   5.574   3.300   3.151
    3OL    H17R13395   5.499   3.350   3.214
    3OL    H17S13396   5.545   3.197   3.130
    3OL    C11813397   5.595   3.383   3.024
    3OL    H18R13398   5.503   3.383   2.965
    3OL    H18S13399   5.677   3.347   2.962
    3OL    H18T13400   5.615   3.486   3.053
    1PA    C11613401   0.998   0.630   3.947
    1PA    H16R13402   1.096   0.620   3.994
    1PA    H16S13403   0.932   0.567   4.005
    1PA    H16T13404   0.950   0.728   3.952
    1PA    C11513405   0.998   0.583   3.800
    1PA    H15R13406   1.027   0.478   3.801
    1PA    H15S13407   0.898   0.595   3.760
    1PA    C11413408   1.091   0.678   3.722
    1PA    H14R13409   1.048   0.777   3.737
    1PA    H14S13410   1.188   0.672   3.771
    1PA    C11313411   1.095   0.635   3.574
    1PA    H13R13412   1.138   0.536   3.558
    1PA    H13S13413   0.992   0.640   3.539
    1PA    C11213414   1.183   0.739   3.503
    1PA    H12R13415   1.149   0.731   3.400
    1PA    H12S13416   1.159   0.841   3.534
    1PA    C11113417   1.332   0.704   3.516
    1PA    H11R13418   1.345   0.713   3.624
    1PA    H11S13419   1.341   0.597   3.497
    1PA    C11013420   1.427   0.810   3.459
    1PA    H10R13421   1.396   0.908   3.495
    1PA    H10S13422   1.525   0.782   3.500
    1PA     C1913423   1.441   0.804   3.306
    1PA     H9R13424   1.489   0.712   3.272
    1PA     H9S13425   1.339   0.798   3.267
    1PA     C1813426   1.512   0.926   3.246
    1PA     H8R13427   1.460   1.021   3.261
    1PA     H8S13428   1.608   0.947   3.293
    1PA     C1713429   1.513   0.892   3.097
    1PA     H7R13430   1.575   0.805   3.078
    1PA     H7S13431   1.411   0.867   3.068
    1PA     C1613432   1.564   1.000   3.000
    1PA     H6R13433   1.498   1.086   3.013
    1PA     H6S13434   1.667   1.029   3.021
    1PA     C1513435   1.575   0.958   2.852
    1PA     H5R13436   1.478   0.918   2.824
    1PA     H5S13437   1.579   1.051   2.795
    1PA     C1413438   1.688   0.858   2.827
    1PA     H4R13439   1.779   0.894   2.876
    1PA     H4S13440   1.666   0.756   2.859
    1PA     C1313441   1.726   0.855   2.678
    1PA     H3R13442   1.640   0.840   2.612
    1PA     H3S13443   1.770   0.950   2.649
    1PA     C1213444   1.823   0.738   2.655
    1PA     H2R13445   1.924   0.751   2.693
    1PA     H2S13446   1.776   0.657   2.710
    2PC     C1113447   1.849   0.699   2.511
    2PC     O1213448   1.834   0.777   2.419
    2PC     O1113449   1.900   0.575   2.503
    2PC      C113450   1.942   0.529   2.374
    2PC      HR13451   1.929   0.420   2.373
    2PC      HS13452   1.873   0.570   2.300
    2PC      C213453   2.090   0.562   2.349
    2PC      HX13454   2.097   0.669   2.329
    2PC      C313455   2.127   0.497   2.215
    2PC      HA13456   2.048   0.515   2.142
    2PC      HB13457   2.222   0.540   2.183
    2PC     O3113458   2.141   0.355   2.232
    2PC     P3113459   2.201   0.273   2.107
    2PC     O3213460   2.089   0.160   2.085
    2PC     C3113461   1.982   0.198   1.997
    2PC     H1A13462   1.933   0.285   2.043
    2PC     H1B13463   2.011   0.217   1.893
    2PC     C3213464   1.884   0.080   1.999
    2PC     H2A13465   1.927   0.017   1.920
    2PC     H2B13466   1.884   0.028   2.094
    2PC     N3113467   1.741   0.108   1.964
    2PC     C3313468   1.672   0.192   2.067
    2PC     H3A13469   1.565   0.182   2.048
    2PC     H3B13470   1.687   0.144   2.164
    2PC     H3C13471   1.705   0.296   2.067
    2PC     C3413472   1.724   0.173   1.830
    2PC     H4A13473   1.763   0.108   1.752
    2PC     H4B13474   1.619   0.201   1.832
    2PC     H4C13475   1.777   0.269   1.825
    2PC     C3513476   1.675  -0.026   1.959
    2PC     H5A13477   1.574  -0.012   1.919
    2PC     H5B13478   1.677  -0.072   2.057
    2PC     H5C13479   1.727  -0.090   1.887
    2PC     O3313480   2.227   0.346   1.981
    2PC     O3413481   2.333   0.221   2.150
    2PC     O2113482   2.182   0.513   2.448
    2PC     C2113483   2.313   0.544   2.445
    2PC     O2213484   2.359   0.635   2.380
    3OL     C1213485   2.390   0.437   2.519
    3OL     H2R13486   2.366   0.350   2.457
    3OL     H2S13487   2.346   0.420   2.617
    3OL     C1313488   2.539   0.472   2.527
    3OL     H3R13489   2.542   0.573   2.571
    3OL     H3S13490   2.575   0.477   2.424
    3OL     C1413491   2.623   0.395   2.630
    3OL     H4R13492   2.724   0.436   2.624
    3OL     H4S13493   2.633   0.292   2.593
    3OL     C1513494   2.572   0.400   2.774
    3OL     H5R13495   2.471   0.359   2.773
    3OL     H5S13496   2.565   0.503   2.810
    3OL     C1613497   2.666   0.313   2.860
    3OL     H6R13498   2.759   0.369   2.849
    3OL     H6S13499   2.678   0.212   2.821
    3OL     C1713500   2.634   0.330   3.009
    3OL     H7R13501   2.637   0.437   3.030
    3OL     H7S13502   2.716   0.291   3.070
    3OL     C1813503   2.508   0.262   3.063
    3OL     H8R13504   2.416   0.315   3.035
    3OL     H8S13505   2.510   0.263   3.173
    3OL     C1913506   2.491   0.119   3.020
    3OL     H9R13507   2.585   0.066   3.006
    3OL    C11013508   2.374   0.062   2.994
    3OL    H10R13509   2.389  -0.039   2.955
    3OL    C11113510   2.234   0.111   3.017
    3OL    H11R13511   2.171   0.074   2.936
    3OL    H11S13512   2.230   0.221   3.019
    3OL    C11213513   2.189   0.070   3.158
    3OL    H12R13514   2.257   0.110   3.234
    3OL    H12S13515   2.206  -0.038   3.165
    3OL    C11313516   2.043   0.089   3.200
    3OL    H13R13517   1.997   0.006   3.146
    3OL    H13S13518   1.998   0.185   3.172
    3OL    C11413519   2.035   0.064   3.351
    3OL    H14R13520   2.102   0.129   3.409
    3OL    H14S13521   2.086  -0.032   3.365
    3OL    C11513522   1.892   0.059   3.405
    3OL    H15R13523   1.848  -0.038   3.378
    3OL    H15S13524   1.829   0.136   3.361
    3OL    C11613525   1.902   0.067   3.558
    3OL    H16R13526   1.954   0.154   3.600
    3OL    H16S13527   1.957  -0.023   3.587
    3OL    C11713528   1.767   0.064   3.632
    3OL    H17R13529   1.717  -0.027   3.597
    3OL    H17S13530   1.701   0.144   3.597
    3OL    C11813531   1.779   0.057   3.785
    3OL    H18R13532   1.689   0.042   3.844
    3OL    H18S13533   1.826   0.150   3.818
    3OL    H18T13534   1.841  -0.031   3.803
    1PA    C11613535   4.391   4.725   4.038
    1PA    H16R13536   4.383   4.734   4.146
    1PA    H16S13537   4.300   4.751   3.985
    1PA    H16T13538   4.470   4.787   3.996
    1PA    C11513539   4.421   4.577   4.006
    1PA    H15R13540   4.519   4.553   4.047
    1PA    H15S13541   4.346   4.511   4.050
    1PA    C11413542   4.443   4.560   3.855
    1PA    H14R13543   4.504   4.642   3.818
    1PA    H14S13544   4.500   4.468   3.845
    1PA    C11313545   4.305   4.554   3.787
    1PA    H13R13546   4.245   4.487   3.848
    1PA    H13S13547   4.264   4.656   3.790
    1PA    C11213548   4.321   4.509   3.641
    1PA    H12R13549   4.376   4.583   3.582
    1PA    H12S13550   4.376   4.415   3.640
    1PA    C11113551   4.182   4.485   3.580
    1PA    H11R13552   4.124   4.407   3.630
    1PA    H11S13553   4.119   4.571   3.601
    1PA    C11013554   4.184   4.460   3.429
    1PA    H10R13555   4.228   4.549   3.383
    1PA    H10S13556   4.240   4.371   3.398
    1PA     C1913557   4.043   4.459   3.368
    1PA     H9R13558   3.975   4.500   3.443
    1PA     H9S13559   4.034   4.527   3.284
    1PA     C1813560   4.003   4.316   3.330
    1PA     H8R13561   4.075   4.277   3.258
    1PA     H8S13562   4.001   4.249   3.416
    1PA     C1713563   3.861   4.318   3.272
    1PA     H7R13564   3.793   4.354   3.349
    1PA     H7S13565   3.855   4.380   3.182
    1PA     C1613566   3.810   4.178   3.236
    1PA     H6R13567   3.814   4.105   3.317
    1PA     H6S13568   3.704   4.178   3.211
    1PA     C1513569   3.876   4.123   3.109
    1PA     H5R13570   3.838   4.191   3.033
    1PA     H5S13571   3.982   4.147   3.092
    1PA     C1413572   3.834   3.979   3.079
    1PA     H4R13573   3.875   3.913   3.155
    1PA     H4S13574   3.725   3.978   3.087
    1PA     C1313575   3.880   3.923   2.943
    1PA     H3R13576   3.851   3.986   2.858
    1PA     H3S13577   3.989   3.919   2.946
    1PA     C1213578   3.827   3.781   2.920
    1PA     H2R13579   3.828   3.718   3.009
    1PA     H2S13580   3.719   3.792   2.909
    2PC     C1113581   3.876   3.706   2.799
    2PC     O1213582   3.813   3.611   2.758
    2PC     O1113583   3.993   3.749   2.749
    2PC      C113584   4.039   3.691   2.625
    2PC      HR13585   4.024   3.582   2.623
    2PC      HS13586   3.987   3.741   2.544
    2PC      C213587   4.191   3.705   2.614
    2PC      HX13588   4.218   3.804   2.651
    2PC      C313589   4.247   3.692   2.472
    2PC      HA13590   4.185   3.759   2.411
    2PC      HB13591   4.353   3.719   2.472
    2PC     O3113592   4.232   3.555   2.431
    2PC     P3113593   4.242   3.519   2.275
    2PC     O3213594   4.113   3.425   2.282
    2PC     C3113595   3.980   3.477   2.264
    2PC     H1A13596   3.967   3.547   2.347
    2PC     H1B13597   3.962   3.516   2.164
    2PC     C3213598   3.875   3.369   2.292
    2PC     H2A13599   3.883   3.319   2.389
    2PC     H2B13600   3.773   3.407   2.287
    2PC     N3113601   3.870   3.256   2.193
    2PC     C3313602   3.771   3.160   2.252
    2PC     H3A13603   3.773   3.073   2.186
    2PC     H3B13604   3.808   3.125   2.349
    2PC     H3C13605   3.676   3.214   2.258
    2PC     C3413606   3.822   3.303   2.059
    2PC     H4A13607   3.899   3.356   2.003
    2PC     H4B13608   3.772   3.226   2.000
    2PC     H4C13609   3.741   3.373   2.080
    2PC     C3513610   3.996   3.180   2.165
    2PC     H5A13611   3.965   3.080   2.133
    2PC     H5B13612   4.061   3.180   2.253
    2PC     H5C13613   4.051   3.222   2.081
    2PC     O3313614   4.244   3.650   2.206
    2PC     O3413615   4.365   3.449   2.234
    2PC     O2113616   4.251   3.611   2.706
    2PC     C2113617   4.384   3.620   2.720
    2PC     O2213618   4.449   3.708   2.666
    3OL     C1213619   4.445   3.512   2.806
    3OL     H2R13620   4.552   3.503   2.786
    3OL     H2S13621   4.401   3.417   2.776
    3OL     C1313622   4.418   3.543   2.953
    3OL     H3R13623   4.317   3.584   2.966
    3OL     H3S13624   4.487   3.620   2.988
    3OL     C1413625   4.437   3.410   3.028
    3OL     H4R13626   4.380   3.333   2.975
    3OL     H4S13627   4.398   3.418   3.129
    3OL     C1513628   4.584   3.366   3.031
    3OL     H5R13629   4.639   3.458   3.053
    3OL     H5S13630   4.616   3.325   2.935
    3OL     C1613631   4.604   3.252   3.132
    3OL     H6R13632   4.611   3.161   3.073
    3OL     H6S13633   4.522   3.245   3.204
    3OL     C1713634   4.730   3.280   3.215
    3OL     H7R13635   4.806   3.338   3.164
    3OL     H7S13636   4.771   3.183   3.244
    3OL     C1813637   4.698   3.366   3.338
    3OL     H8R13638   4.790   3.389   3.392
    3OL     H8S13639   4.640   3.303   3.406
    3OL     C1913640   4.641   3.501   3.302
    3OL     H9R13641   4.711   3.567   3.252
    3OL    C11013642   4.534   3.556   3.358
    3OL    H10R13643   4.509   3.659   3.333
    3OL    C11113644   4.421   3.481   3.424
    3OL    H11R13645   4.429   3.372   3.415
    3OL    H11S13646   4.323   3.510   3.388
    3OL    C11213647   4.409   3.509   3.575
    3OL    H12R13648   4.507   3.487   3.617
    3OL    H12S13649   4.330   3.450   3.621
    3OL    C11313650   4.379   3.655   3.609
    3OL    H13R13651   4.284   3.676   3.560
    3OL    H13S13652   4.450   3.731   3.573
    3OL    C11413653   4.347   3.681   3.757
    3OL    H14R13654   4.356   3.787   3.780
    3OL    H14S13655   4.427   3.631   3.811
    3OL    C11513656   4.210   3.624   3.796
    3OL    H15R13657   4.188   3.526   3.754
    3OL    H15S13658   4.120   3.679   3.767
    3OL    C11613659   4.203   3.609   3.949
    3OL    H16R13660   4.188   3.709   3.991
    3OL    H16S13661   4.290   3.567   4.000
    3OL    C11713662   4.076   3.549   4.011
    3OL    H17R13663   3.987   3.601   3.974
    3OL    H17S13664   4.082   3.577   4.116
    3OL    C11813665   4.080   3.396   3.997
    3OL    H18R13666   4.094   3.362   3.894
    3OL    H18S13667   3.982   3.357   4.022
    3OL    H18T13668   4.143   3.349   4.073
    1PA    C11613669   6.074   3.852   4.003
    1PA    H16R13670   6.145   3.769   4.002
    1PA    H16S13671   6.022   3.837   4.098
    1PA    H16T13672   6.130   3.946   4.004
    1PA    C11513673   5.989   3.846   3.876
    1PA    H15R13674   6.060   3.827   3.795
    1PA    H15S13675   5.933   3.752   3.877
    1PA    C11413676   5.895   3.966   3.857
    1PA    H14R13677   5.848   3.985   3.954
    1PA    H14S13678   5.958   4.050   3.830
    1PA    C11313679   5.795   3.925   3.748
    1PA    H13R13680   5.836   3.933   3.647
    1PA    H13S13681   5.768   3.819   3.758
    1PA    C11213682   5.667   4.008   3.765
    1PA    H12R13683   5.634   3.997   3.869
    1PA    H12S13684   5.696   4.110   3.740
    1PA    C11113685   5.557   3.964   3.667
    1PA    H11R13686   5.593   3.980   3.565
    1PA    H11S13687   5.535   3.858   3.681
    1PA    C11013688   5.434   4.047   3.704
    1PA    H10R13689   5.415   4.020   3.808
    1PA    H10S13690   5.464   4.152   3.700
    1PA     C1913691   5.308   4.015   3.621
    1PA     H9R13692   5.343   3.985   3.522
    1PA     H9S13693   5.261   3.924   3.658
    1PA     C1813694   5.204   4.128   3.626
    1PA     H8R13695   5.179   4.139   3.732
    1PA     H8S13696   5.245   4.224   3.596
    1PA     C1713697   5.079   4.089   3.547
    1PA     H7R13698   5.038   3.988   3.561
    1PA     H7S13699   5.004   4.161   3.581
    1PA     C1613700   5.083   4.120   3.396
    1PA     H6R13701   5.106   4.227   3.384
    1PA     H6S13702   5.166   4.062   3.356
    1PA     C1513703   4.955   4.089   3.319
    1PA     H5R13704   4.929   3.983   3.327
    1PA     H5S13705   4.867   4.145   3.352
    1PA     C1413706   4.970   4.117   3.169
    1PA     H4R13707   5.010   4.218   3.161
    1PA     H4S13708   5.039   4.047   3.124
    1PA     C1313709   4.837   4.116   3.091
    1PA     H3R13710   4.790   4.020   3.113
    1PA     H3S13711   4.779   4.197   3.135
    1PA     C1213712   4.866   4.129   2.941
    1PA     H2R13713   4.926   4.220   2.932
    1PA     H2S13714   4.925   4.049   2.896
    2PC     C1113715   4.739   4.162   2.866
    2PC     O1213716   4.743   4.186   2.747
    2PC     O1113717   4.623   4.176   2.933
    2PC      C113718   4.509   4.229   2.864
    2PC      HR13719   4.437   4.266   2.938
    2PC      HS13720   4.541   4.321   2.814
    2PC      C213721   4.449   4.134   2.759
    2PC      HX13722   4.529   4.080   2.707
    2PC      C313723   4.360   4.211   2.662
    2PC      HA13724   4.270   4.245   2.715
    2PC      HB13725   4.410   4.300   2.622
    2PC     O3113726   4.330   4.109   2.565
    2PC     P3113727   4.252   4.129   2.427
    2PC     O3213728   4.368   4.203   2.345
    2PC     C3113729   4.353   4.222   2.203
    2PC     H1A13730   4.357   4.128   2.147
    2PC     H1B13731   4.262   4.280   2.183
    2PC     C3213732   4.471   4.314   2.170
    2PC     H2A13733   4.557   4.306   2.237
    2PC     H2B13734   4.496   4.291   2.066
    2PC     N3113735   4.447   4.462   2.170
    2PC     C3313736   4.585   4.520   2.167
    2PC     H3A13737   4.643   4.463   2.240
    2PC     H3B13738   4.625   4.528   2.066
    2PC     H3C13739   4.565   4.619   2.208
    2PC     C3413740   4.368   4.500   2.049
    2PC     H4A13741   4.262   4.477   2.057
    2PC     H4B13742   4.380   4.608   2.035
    2PC     H4C13743   4.395   4.444   1.959
    2PC     C3513744   4.377   4.510   2.294
    2PC     H5A13745   4.278   4.465   2.304
    2PC     H5B13746   4.386   4.618   2.295
    2PC     H5C13747   4.436   4.467   2.374
    2PC     O3313748   4.229   4.001   2.355
    2PC     O3413749   4.124   4.203   2.427
    2PC     O2113750   4.358   4.043   2.822
    2PC     C2113751   4.412   3.935   2.881
    2PC     O2213752   4.531   3.908   2.877
    3OL     C1213753   4.310   3.873   2.973
    3OL     H2R13754   4.263   3.785   2.929
    3OL     H2S13755   4.229   3.947   2.974
    3OL     C1313756   4.359   3.849   3.117
    3OL     H3R13757   4.444   3.781   3.124
    3OL     H3S13758   4.276   3.809   3.176
    3OL     C1413759   4.386   3.984   3.185
    3OL     H4R13760   4.293   4.041   3.182
    3OL     H4S13761   4.467   4.040   3.138
    3OL     C1513762   4.430   3.971   3.332
    3OL     H5R13763   4.397   3.875   3.373
    3OL     H5S13764   4.395   4.054   3.394
    3OL     C1613765   4.583   3.973   3.346
    3OL     H6R13766   4.618   4.067   3.301
    3OL     H6S13767   4.631   3.896   3.285
    3OL     C1713768   4.639   3.940   3.485
    3OL     H7R13769   4.748   3.950   3.482
    3OL     H7S13770   4.627   3.833   3.500
    3OL     C1813771   4.582   4.028   3.597
    3OL     H8R13772   4.648   4.003   3.681
    3OL     H8S13773   4.488   3.979   3.625
    3OL     C1913774   4.582   4.176   3.566
    3OL     H9R13775   4.520   4.212   3.484
    3OL    C11013776   4.670   4.263   3.611
    3OL    H10R13777   4.671   4.367   3.579
    3OL    C11113778   4.770   4.235   3.721
    3OL    H11R13779   4.858   4.295   3.696
    3OL    H11S13780   4.795   4.131   3.701
    3OL    C11213781   4.725   4.267   3.864
    3OL    H12R13782   4.642   4.201   3.891
    3OL    H12S13783   4.697   4.372   3.870
    3OL    C11313784   4.844   4.245   3.959
    3OL    H13R13785   4.931   4.307   3.936
    3OL    H13S13786   4.875   4.142   3.936
    3OL    C11413787   4.801   4.247   4.106
    3OL    H14R13788   4.709   4.191   4.125
    3OL    H14S13789   4.781   4.352   4.129
    3OL    C11513790   4.912   4.202   4.202
    3OL    H15R13791   5.002   4.263   4.202
    3OL    H15S13792   4.956   4.107   4.173
    3OL    C11613793   4.861   4.183   4.346
    3OL    H16R13794   4.756   4.154   4.339
    3OL    H16S13795   4.864   4.282   4.391
    3OL    C11713796   4.943   4.080   4.424
    3OL    H17R13797   4.969   3.989   4.370
    3OL    H17S13798   4.885   4.062   4.515
    3OL    C11813799   5.074   4.131   4.487
    3OL    H18R13800   5.062   4.222   4.545
    3OL    H18S13801   5.145   4.159   4.409
    3OL    H18T13802   5.128   4.053   4.541
    1PA    C11613803   5.921   6.371   3.699
    1PA    H16R13804   6.030   6.370   3.702
    1PA    H16S13805   5.872   6.304   3.770
    1PA    H16T13806   5.902   6.471   3.741
    1PA    C11513807   5.858   6.358   3.560
    1PA    H15R13808   5.751   6.376   3.569
    1PA    H15S13809   5.895   6.435   3.491
    1PA    C11413810   5.896   6.220   3.505
    1PA    H14R13811   6.004   6.207   3.491
    1PA    H14S13812   5.859   6.141   3.571
    1PA    C11313813   5.842   6.189   3.365
    1PA    H13R13814   5.859   6.271   3.295
    1PA    H13S13815   5.902   6.100   3.342
    1PA    C11213816   5.696   6.142   3.364
    1PA    H12R13817   5.674   6.103   3.264
    1PA    H12S13818   5.683   6.063   3.440
    1PA    C11113819   5.589   6.248   3.392
    1PA    H11R13820   5.585   6.269   3.500
    1PA    H11S13821   5.621   6.338   3.339
    1PA    C11013822   5.443   6.216   3.357
    1PA    H10R13823   5.421   6.119   3.400
    1PA    H10S13824   5.377   6.291   3.403
    1PA     C1913825   5.424   6.228   3.205
    1PA     H9R13826   5.449   6.329   3.173
    1PA     H9S13827   5.479   6.144   3.163
    1PA     C1813828   5.276   6.205   3.168
    1PA     H8R13829   5.269   6.159   3.069
    1PA     H8S13830   5.233   6.126   3.230
    1PA     C1713831   5.189   6.330   3.179
    1PA     H7R13832   5.183   6.359   3.284
    1PA     H7S13833   5.252   6.407   3.134
    1PA     C1613834   5.054   6.327   3.105
    1PA     H6R13835   5.009   6.231   3.129
    1PA     H6S13836   4.983   6.401   3.140
    1PA     C1513837   5.063   6.334   2.951
    1PA     H5R13838   5.098   6.430   2.914
    1PA     H5S13839   5.144   6.266   2.922
    1PA     C1413840   4.939   6.287   2.873
    1PA     H4R13841   4.917   6.183   2.898
    1PA     H4S13842   4.848   6.344   2.889
    1PA     C1313843   4.965   6.299   2.722
    1PA     H3R13844   4.991   6.403   2.698
    1PA     H3S13845   5.037   6.227   2.683
    1PA     C1213846   4.833   6.271   2.649
    1PA     H2R13847   4.795   6.171   2.670
    1PA     H2S13848   4.759   6.343   2.684
    2PC     C1113849   4.842   6.300   2.501
    2PC     O1213850   4.793   6.220   2.424
    2PC     O1113851   4.898   6.416   2.462
    2PC      C113852   4.871   6.456   2.326
    2PC      HR13853   4.916   6.555   2.310
    2PC      HS13854   4.918   6.385   2.258
    2PC      C213855   4.721   6.475   2.300
    2PC      HX13856   4.665   6.389   2.337
    2PC      C313857   4.689   6.475   2.150
    2PC      HA13858   4.737   6.389   2.102
    2PC      HB13859   4.582   6.456   2.135
    2PC     O3113860   4.743   6.592   2.085
    2PC     P3113861   4.731   6.607   1.926
    2PC     O3213862   4.872   6.539   1.892
    2PC     C3113863   4.885   6.497   1.755
    2PC     H1A13864   4.812   6.420   1.729
    2PC     H1B13865   4.870   6.584   1.691
    2PC     C3213866   5.024   6.434   1.750
    2PC     H2A13867   5.050   6.395   1.651
    2PC     H2B13868   5.101   6.511   1.755
    2PC     N3113869   5.061   6.334   1.855
    2PC     C3313870   5.078   6.391   1.992
    2PC     H3A13871   4.981   6.392   2.041
    2PC     H3B13872   5.151   6.326   2.042
    2PC     H3C13873   5.120   6.490   1.975
    2PC     C3413874   4.964   6.220   1.857
    2PC     H4A13875   4.863   6.260   1.872
    2PC     H4B13876   4.967   6.179   1.756
    2PC     H4C13877   4.997   6.161   1.943
    2PC     C3513878   5.192   6.267   1.825
    2PC     H5A13879   5.176   6.214   1.731
    2PC     H5B13880   5.217   6.181   1.887
    2PC     H5C13881   5.281   6.324   1.798
    2PC     O3313882   4.620   6.532   1.863
    2PC     O3413883   4.733   6.749   1.884
    2PC     O2113884   4.671   6.599   2.353
    2PC     C2113885   4.542   6.605   2.391
    2PC     O2213886   4.451   6.534   2.354
    3OL     C1213887   4.522   6.719   2.487
    3OL     H2R13888   4.449   6.792   2.450
    3OL     H2S13889   4.619   6.768   2.496
    3OL     C1313890   4.464   6.675   2.622
    3OL     H3R13891   4.364   6.632   2.618
    3OL     H3S13892   4.452   6.766   2.681
    3OL     C1413893   4.548   6.580   2.708
    3OL     H4R13894   4.641   6.634   2.732
    3OL     H4S13895   4.582   6.490   2.657
    3OL     C1513896   4.477   6.545   2.839
    3OL     H5R13897   4.382   6.496   2.815
    3OL     H5S13898   4.451   6.633   2.899
    3OL     C1613899   4.569   6.460   2.928
    3OL     H6R13900   4.657   6.515   2.960
    3OL     H6S13901   4.597   6.366   2.879
    3OL     C1713902   4.497   6.423   3.059
    3OL     H7R13903   4.414   6.359   3.026
    3OL     H7S13904   4.459   6.514   3.106
    3OL     C1813905   4.579   6.331   3.150
    3OL     H8R13906   4.686   6.351   3.145
    3OL     H8S13907   4.566   6.229   3.114
    3OL     C1913908   4.523   6.346   3.289
    3OL     H9R13909   4.415   6.345   3.301
    3OL    C11013910   4.599   6.372   3.395
    3OL    H10R13911   4.549   6.393   3.489
    3OL    C11113912   4.749   6.377   3.410
    3OL    H11R13913   4.782   6.455   3.479
    3OL    H11S13914   4.805   6.399   3.319
    3OL    C11213915   4.795   6.238   3.457
    3OL    H12R13916   4.759   6.163   3.387
    3OL    H12S13917   4.751   6.219   3.555
    3OL    C11313918   4.948   6.237   3.468
    3OL    H13R13919   4.979   6.281   3.372
    3OL    H13S13920   4.981   6.133   3.456
    3OL    C11413921   5.006   6.295   3.597
    3OL    H14R13922   4.951   6.251   3.681
    3OL    H14S13923   4.993   6.403   3.603
    3OL    C11513924   5.157   6.267   3.599
    3OL    H15R13925   5.212   6.312   3.516
    3OL    H15S13926   5.172   6.160   3.583
    3OL    C11613927   5.221   6.298   3.735
    3OL    H16R13928   5.224   6.212   3.803
    3OL    H16S13929   5.157   6.360   3.799
    3OL    C11713930   5.367   6.345   3.729
    3OL    H17R13931   5.375   6.435   3.668
    3OL    H17S13932   5.427   6.272   3.674
    3OL    C11813933   5.433   6.373   3.865
    3OL    H18R13934   5.410   6.305   3.947
    3OL    H18S13935   5.413   6.476   3.896
    3OL    H18T13936   5.542   6.369   3.858
    1PA    C11613937   4.320   5.316   4.409
    1PA    H16R13938   4.220   5.338   4.446
    1PA    H16S13939   4.396   5.392   4.427
    1PA    H16T13940   4.354   5.231   4.468
    1PA    C11513941   4.320   5.278   4.260
    1PA    H15R13942   4.235   5.210   4.251
    1PA    H15S13943   4.299   5.367   4.200
    1PA    C11413944   4.454   5.213   4.223
    1PA    H14R13945   4.526   5.293   4.242
    1PA    H14S13946   4.477   5.131   4.291
    1PA    C11313947   4.449   5.157   4.080
    1PA    H13R13948   4.399   5.060   4.085
    1PA    H13S13949   4.399   5.222   4.009
    1PA    C11213950   4.591   5.122   4.033
    1PA    H12R13951   4.650   5.212   4.050
    1PA    H12S13952   4.631   5.039   4.090
    1PA    C11113953   4.600   5.109   3.880
    1PA    H11R13954   4.519   5.039   3.859
    1PA    H11S13955   4.585   5.207   3.835
    1PA    C11013956   4.736   5.055   3.831
    1PA    H10R13957   4.815   5.125   3.858
    1PA    H10S13958   4.755   4.957   3.876
    1PA     C1913959   4.753   5.045   3.679
    1PA     H9R13960   4.710   5.137   3.639
    1PA     H9S13961   4.857   5.040   3.647
    1PA     C1813962   4.659   4.935   3.626
    1PA     H8R13963   4.680   4.835   3.665
    1PA     H8S13964   4.562   4.955   3.671
    1PA     C1713965   4.650   4.931   3.473
    1PA     H7R13966   4.607   5.027   3.442
    1PA     H7S13967   4.748   4.915   3.429
    1PA     C1613968   4.564   4.814   3.424
    1PA     H6R13969   4.617   4.725   3.459
    1PA     H6S13970   4.466   4.817   3.471
    1PA     C1513971   4.544   4.831   3.273
    1PA     H5R13972   4.490   4.924   3.253
    1PA     H5S13973   4.644   4.832   3.229
    1PA     C1413974   4.458   4.716   3.220
    1PA     H4R13975   4.494   4.619   3.257
    1PA     H4S13976   4.358   4.724   3.262
    1PA     C1313977   4.449   4.708   3.067
    1PA     H3R13978   4.404   4.803   3.034
    1PA     H3S13979   4.546   4.706   3.016
    1PA     C1213980   4.364   4.593   3.010
    1PA     H2R13981   4.396   4.496   3.049
    1PA     H2S13982   4.263   4.617   3.046
    2PC     C1113983   4.364   4.595   2.859
    2PC     O1213984   4.464   4.560   2.799
    2PC     O1113985   4.245   4.629   2.808
    2PC      C113986   4.243   4.649   2.666
    2PC      HR13987   4.328   4.713   2.642
    2PC      HS13988   4.247   4.551   2.617
    2PC      C213989   4.116   4.729   2.634
    2PC      HX13990   4.028   4.677   2.672
    2PC      C313991   4.092   4.752   2.484
    2PC      HA13992   4.052   4.662   2.436
    2PC      HB13993   4.018   4.832   2.476
    2PC     O3113994   4.216   4.801   2.432
    2PC     P3113995   4.227   4.826   2.274
    2PC     O3213996   4.149   4.966   2.274
    2PC     C3113997   4.205   5.082   2.339
    2PC     H1A13998   4.212   5.047   2.442
    2PC     H1B13999   4.309   5.096   2.308
    2PC     C3214000   4.109   5.199   2.318
    2PC     H2A14001   4.151   5.290   2.363
    2PC     H2B14002   4.085   5.223   2.214
    2PC     N3114003   3.969   5.180   2.368
    2PC     C3314004   3.887   5.304   2.354
    2PC     H3A14005   3.938   5.391   2.396
    2PC     H3B14006   3.849   5.316   2.252
    2PC     H3C14007   3.804   5.284   2.423
    2PC     C3414008   3.892   5.086   2.280
    2PC     H4A14009   3.900   5.130   2.181
    2PC     H4B14010   3.913   4.979   2.289
    2PC     H4C14011   3.789   5.087   2.318
    2PC     C3514012   3.963   5.130   2.509
    2PC     H5A14013   4.013   5.033   2.501
    2PC     H5B14014   3.860   5.114   2.542
    2PC     H5C14015   4.018   5.202   2.570
    2PC     O3314016   4.364   4.842   2.221
    2PC     O3414017   4.160   4.724   2.191
    2PC     O2114018   4.123   4.859   2.694
    2PC     C2114019   4.071   4.892   2.813
    2PC     O2214020   4.001   4.817   2.878
    3OL     C1214021   4.084   5.039   2.841
    3OL     H2R14022   3.986   5.079   2.867
    3OL     H2S14023   4.109   5.097   2.752
    3OL     C1314024   4.200   5.064   2.938
    3OL     H3R14025   4.220   5.169   2.961
    3OL     H3S14026   4.294   5.029   2.894
    3OL     C1414027   4.167   5.001   3.074
    3OL     H4R14028   4.248   5.026   3.142
    3OL     H4S14029   4.163   4.892   3.069
    3OL     C1514030   4.032   5.039   3.137
    3OL     H5R14031   3.955   5.002   3.067
    3OL     H5S14032   4.021   5.147   3.145
    3OL     C1614033   4.001   4.974   3.272
    3OL     H6R14034   4.006   4.866   3.256
    3OL     H6S14035   3.896   4.986   3.301
    3OL     C1714036   4.089   5.024   3.388
    3OL     H7R14037   4.075   5.131   3.402
    3OL     H7S14038   4.196   5.013   3.368
    3OL     C1814039   4.049   4.948   3.515
    3OL     H8R14040   4.067   4.843   3.490
    3OL     H8S14041   3.946   4.964   3.548
    3OL     C1914042   4.151   4.982   3.620
    3OL     H9R14043   4.250   4.938   3.606
    3OL    C11014044   4.122   5.035   3.738
    3OL    H10R14045   4.207   5.035   3.806
    3OL    C11114046   3.992   5.106   3.765
    3OL    H11R14047   3.928   5.036   3.819
    3OL    H11S14048   3.945   5.144   3.674
    3OL    C11214049   4.023   5.229   3.850
    3OL    H12R14050   4.086   5.286   3.781
    3OL    H12S14051   4.087   5.194   3.931
    3OL    C11314052   3.897   5.292   3.912
    3OL    H13R14053   3.847   5.211   3.967
    3OL    H13S14054   3.831   5.328   3.833
    3OL    C11414055   3.925   5.408   4.008
    3OL    H14R14056   3.976   5.489   3.956
    3OL    H14S14057   3.984   5.360   4.086
    3OL    C11514058   3.796   5.479   4.054
    3OL    H15R14059   3.747   5.409   4.121
    3OL    H15S14060   3.732   5.493   3.966
    3OL    C11614061   3.811   5.607   4.138
    3OL    H16R14062   3.718   5.648   4.176
    3OL    H16S14063   3.857   5.681   4.072
    3OL    C11714064   3.910   5.591   4.254
    3OL    H17R14065   3.932   5.686   4.303
    3OL    H17S14066   3.998   5.540   4.215
    3OL    C11814067   3.843   5.507   4.363
    3OL    H18R14068   3.914   5.431   4.395
    3OL    H18S14069   3.744   5.466   4.343
    3OL    H18T14070   3.835   5.567   4.454
    1PA    C11614071   2.648   5.999   4.373
    1PA    H16R14072   2.678   5.973   4.474
    1PA    H16S14073   2.546   5.967   4.352
    1PA    H16T14074   2.658   6.108   4.373
    1PA    C11514075   2.735   5.925   4.271
    1PA    H15R14076   2.841   5.921   4.298
    1PA    H15S14077   2.709   5.819   4.262
    1PA    C11414078   2.700   5.984   4.134
    1PA    H14R14079   2.594   6.003   4.116
    1PA    H14S14080   2.754   6.079   4.130
    1PA    C11314081   2.753   5.895   4.020
    1PA    H13R14082   2.857   5.869   4.041
    1PA    H13S14083   2.695   5.804   4.037
    1PA    C11214084   2.725   5.963   3.885
    1PA    H12R14085   2.625   6.006   3.886
    1PA    H12S14086   2.794   6.043   3.858
    1PA    C11114087   2.740   5.858   3.775
    1PA    H11R14088   2.831   5.801   3.797
    1PA    H11S14089   2.661   5.783   3.768
    1PA    C11014090   2.746   5.923   3.636
    1PA    H10R14091   2.645   5.956   3.612
    1PA    H10S14092   2.823   6.001   3.643
    1PA     C1914093   2.778   5.821   3.527
    1PA     H9R14094   2.707   5.738   3.524
    1PA     H9S14095   2.755   5.859   3.427
    1PA     C1814096   2.926   5.779   3.531
    1PA     H8R14097   2.983   5.871   3.542
    1PA     H8S14098   2.951   5.733   3.626
    1PA     C1714099   2.964   5.702   3.403
    1PA     H7R14100   3.036   5.626   3.436
    1PA     H7S14101   2.881   5.633   3.384
    1PA     C1614102   3.000   5.783   3.278
    1PA     H6R14103   2.921   5.853   3.252
    1PA     H6S14104   3.083   5.848   3.308
    1PA     C1514105   3.046   5.700   3.157
    1PA     H5R14106   3.092   5.773   3.090
    1PA     H5S14107   3.121   5.635   3.202
    1PA     C1414108   2.942   5.622   3.077
    1PA     H4R14109   2.864   5.584   3.145
    1PA     H4S14110   2.896   5.688   3.003
    1PA     C1314111   3.008   5.511   2.994
    1PA     H3R14112   3.087   5.472   3.058
    1PA     H3S14113   2.929   5.436   2.980
    1PA     C1214114   3.074   5.570   2.869
    1PA     H2R14115   3.009   5.641   2.816
    1PA     H2S14116   3.166   5.623   2.897
    2PC     C1114117   3.119   5.454   2.785
    2PC     O1214118   3.037   5.372   2.749
    2PC     O1114119   3.247   5.444   2.745
    2PC      C114120   3.287   5.348   2.646
    2PC      HR14121   3.282   5.250   2.694
    2PC      HS14122   3.232   5.348   2.551
    2PC      C214123   3.432   5.378   2.605
    2PC      HX14124   3.452   5.485   2.590
    2PC      C314125   3.473   5.299   2.480
    2PC      HA14126   3.412   5.329   2.394
    2PC      HB14127   3.580   5.312   2.463
    2PC     O3114128   3.447   5.159   2.500
    2PC     P3114129   3.468   5.069   2.370
    2PC     O3214130   3.318   5.078   2.316
    2PC     C3114131   3.290   5.140   2.189
    2PC     H1A14132   3.343   5.235   2.179
    2PC     H1B14133   3.322   5.079   2.104
    2PC     C3214134   3.137   5.153   2.188
    2PC     H2A14135   3.094   5.072   2.247
    2PC     H2B14136   3.117   5.253   2.227
    2PC     N3114137   3.072   5.144   2.053
    2PC     C3314138   2.926   5.176   2.063
    2PC     H3A14139   2.919   5.255   2.138
    2PC     H3B14140   2.871   5.200   1.972
    2PC     H3C14141   2.888   5.081   2.101
    2PC     C3414142   3.114   5.243   1.948
    2PC     H4A14143   3.211   5.216   1.907
    2PC     H4B14144   3.040   5.254   1.870
    2PC     H4C14145   3.123   5.344   1.990
    2PC     C3514146   3.096   5.008   1.996
    2PC     H5A14147   3.041   5.003   1.901
    2PC     H5B14148   3.050   4.941   2.068
    2PC     H5C14149   3.202   4.994   1.976
    2PC     O3314150   3.579   5.114   2.282
    2PC     O3414151   3.516   4.931   2.395
    2PC     O2114152   3.517   5.317   2.704
    2PC     C2114153   3.647   5.348   2.706
    2PC     O2214154   3.699   5.431   2.634
    3OL     C1214155   3.726   5.273   2.811
    3OL     H2R14156   3.820   5.236   2.770
    3OL     H2S14157   3.673   5.179   2.829
    3OL     C1314158   3.746   5.340   2.947
    3OL     H3R14159   3.819   5.420   2.932
    3OL     H3S14160   3.793   5.273   3.019
    3OL     C1414161   3.609   5.376   3.007
    3OL     H4R14162   3.568   5.456   2.945
    3OL     H4S14163   3.633   5.428   3.100
    3OL     C1514164   3.513   5.259   3.030
    3OL     H5R14165   3.558   5.186   3.099
    3OL     H5S14166   3.490   5.215   2.933
    3OL     C1614167   3.374   5.291   3.087
    3OL     H6R14168   3.338   5.380   3.034
    3OL     H6S14169   3.385   5.308   3.194
    3OL     C1714170   3.269   5.180   3.076
    3OL     H7R14171   3.263   5.151   2.971
    3OL     H7S14172   3.175   5.213   3.121
    3OL     C1814173   3.312   5.058   3.159
    3OL     H8R14174   3.293   5.079   3.264
    3OL     H8S14175   3.421   5.055   3.146
    3OL     C1914176   3.273   4.925   3.101
    3OL     H9R14177   3.338   4.884   3.025
    3OL    C11014178   3.184   4.845   3.158
    3OL    H10R14179   3.177   4.739   3.137
    3OL    C11114180   3.086   4.881   3.268
    3OL    H11R14181   2.996   4.826   3.240
    3OL    H11S14182   3.061   4.987   3.276
    3OL    C11214183   3.141   4.832   3.402
    3OL    H12R14184   3.218   4.906   3.425
    3OL    H12S14185   3.205   4.744   3.398
    3OL    C11314186   3.033   4.825   3.511
    3OL    H13R14187   3.001   4.929   3.524
    3OL    H13S14188   3.093   4.798   3.599
    3OL    C11414189   2.916   4.726   3.506
    3OL    H14R14190   2.970   4.631   3.498
    3OL    H14S14191   2.860   4.737   3.413
    3OL    C11514192   2.815   4.729   3.621
    3OL    H15R14193   2.864   4.707   3.716
    3OL    H15S14194   2.755   4.638   3.612
    3OL    C11614195   2.728   4.855   3.636
    3OL    H16R14196   2.801   4.936   3.636
    3OL    H16S14197   2.684   4.868   3.735
    3OL    C11714198   2.619   4.870   3.530
    3OL    H17R14199   2.572   4.771   3.525
    3OL    H17S14200   2.659   4.887   3.430
    3OL    C11814201   2.517   4.978   3.569
    3OL    H18R14202   2.470   4.953   3.665
    3OL    H18S14203   2.441   4.982   3.491
    3OL    H18T14204   2.561   5.077   3.581
    1PA    C11614205   3.699   6.484   4.264
    1PA    H16R14206   3.709   6.588   4.297
    1PA    H16S14207   3.785   6.427   4.300
    1PA    H16T14208   3.604   6.447   4.302
    1PA    C11514209   3.694   6.485   4.111
    1PA    H15R14210   3.610   6.552   4.089
    1PA    H15S14211   3.780   6.537   4.068
    1PA    C11414212   3.685   6.344   4.052
    1PA    H14R14213   3.776   6.286   4.070
    1PA    H14S14214   3.616   6.283   4.111
    1PA    C11314215   3.661   6.324   3.901
    1PA    H13R14216   3.650   6.219   3.875
    1PA    H13S14217   3.566   6.373   3.877
    1PA    C11214218   3.784   6.379   3.827
    1PA    H12R14219   3.800   6.484   3.850
    1PA    H12S14220   3.867   6.320   3.864
    1PA    C11114221   3.774   6.370   3.674
    1PA    H11R14222   3.679   6.419   3.650
    1PA    H11S14223   3.858   6.428   3.636
    1PA    C11014224   3.784   6.224   3.626
    1PA    H10R14225   3.889   6.205   3.653
    1PA    H10S14226   3.722   6.160   3.688
    1PA     C1914227   3.760   6.213   3.474
    1PA     H9R14228   3.684   6.282   3.438
    1PA     H9S14229   3.851   6.243   3.421
    1PA     C1814230   3.727   6.071   3.428
    1PA     H8R14231   3.806   6.000   3.454
    1PA     H8S14232   3.641   6.042   3.489
    1PA     C1714233   3.685   6.069   3.281
    1PA     H7R14234   3.586   6.116   3.269
    1PA     H7S14235   3.760   6.114   3.215
    1PA     C1614236   3.670   5.919   3.252
    1PA     H6R14237   3.765   5.865   3.255
    1PA     H6S14238   3.594   5.875   3.317
    1PA     C1514239   3.602   5.908   3.115
    1PA     H5R14240   3.510   5.967   3.117
    1PA     H5S14241   3.667   5.959   3.044
    1PA     C1414242   3.580   5.764   3.066
    1PA     H4R14243   3.674   5.714   3.092
    1PA     H4S14244   3.508   5.728   3.139
    1PA     C1314245   3.538   5.748   2.919
    1PA     H3R14246   3.489   5.652   2.900
    1PA     H3S14247   3.464   5.827   2.907
    1PA     C1214248   3.660   5.761   2.827
    1PA     H2R14249   3.733   5.835   2.861
    1PA     H2S14250   3.718   5.669   2.833
    2PC     C1114251   3.613   5.787   2.686
    2PC     O1214252   3.507   5.752   2.639
    2PC     O1114253   3.701   5.865   2.620
    2PC      C114254   3.672   5.912   2.487
    2PC      HR14255   3.755   5.957   2.432
    2PC      HS14256   3.635   5.823   2.435
    2PC      C214257   3.558   6.014   2.479
    2PC      HX14258   3.469   5.973   2.530
    2PC      C314259   3.512   6.064   2.341
    2PC      HA14260   3.449   5.987   2.296
    2PC      HB14261   3.455   6.157   2.349
    2PC     O3114262   3.631   6.095   2.267
    2PC     P3114263   3.614   6.114   2.109
    2PC     O3214264   3.609   5.974   2.032
    2PC     C3114265   3.723   5.891   2.003
    2PC     H1A14266   3.781   5.943   1.927
    2PC     H1B14267   3.775   5.883   2.099
    2PC     C3214268   3.675   5.755   1.949
    2PC     H2A14269   3.678   5.684   2.031
    2PC     H2B14270   3.571   5.768   1.919
    2PC     N3114271   3.752   5.704   1.830
    2PC     C3314272   3.899   5.708   1.861
    2PC     H3A14273   3.924   5.811   1.887
    2PC     H3B14274   3.897   5.646   1.951
    2PC     H3C14275   3.963   5.664   1.784
    2PC     C3414276   3.720   5.561   1.803
    2PC     H4A14277   3.773   5.527   1.714
    2PC     H4B14278   3.757   5.497   1.884
    2PC     H4C14279   3.612   5.550   1.790
    2PC     C3514280   3.722   5.787   1.709
    2PC     H5A14281   3.763   5.886   1.732
    2PC     H5B14282   3.615   5.793   1.688
    2PC     H5C14283   3.779   5.747   1.625
    2PC     O3314284   3.494   6.191   2.070
    2PC     O3414285   3.712   6.202   2.041
    2PC     O2114286   3.608   6.124   2.557
    2PC     C2114287   3.524   6.218   2.602
    2PC     O2214288   3.403   6.209   2.594
    3OL     C1214289   3.604   6.318   2.682
    3OL     H2R14290   3.556   6.414   2.664
    3OL     H2S14291   3.703   6.333   2.639
    3OL     C1314292   3.599   6.278   2.830
    3OL     H3R14293   3.670   6.332   2.892
    3OL     H3S14294   3.618   6.171   2.840
    3OL     C1414295   3.461   6.317   2.884
    3OL     H4R14296   3.387   6.282   2.812
    3OL     H4S14297   3.451   6.426   2.885
    3OL     C1514298   3.434   6.264   3.026
    3OL     H5R14299   3.516   6.299   3.088
    3OL     H5S14300   3.419   6.156   3.027
    3OL     C1614301   3.307   6.334   3.077
    3OL     H6R14302   3.224   6.296   3.018
    3OL     H6S14303   3.321   6.442   3.064
    3OL     C1714304   3.275   6.305   3.225
    3OL     H7R14305   3.191   6.369   3.252
    3OL     H7S14306   3.359   6.336   3.287
    3OL     C1814307   3.236   6.158   3.245
    3OL     H8R14308   3.326   6.096   3.242
    3OL     H8S14309   3.176   6.119   3.162
    3OL     C1914310   3.153   6.150   3.371
    3OL     H9R14311   3.053   6.192   3.364
    3OL    C11014312   3.192   6.109   3.491
    3OL    H10R14313   3.122   6.111   3.574
    3OL    C11114314   3.324   6.048   3.530
    3OL    H11R14315   3.379   6.112   3.599
    3OL    H11S14316   3.395   6.042   3.447
    3OL    C11214317   3.303   5.906   3.585
    3OL    H12R14318   3.252   5.849   3.507
    3OL    H12S14319   3.236   5.908   3.671
    3OL    C11314320   3.432   5.839   3.634
    3OL    H13R14321   3.509   5.855   3.558
    3OL    H13S14322   3.412   5.731   3.633
    3OL    C11414323   3.485   5.883   3.771
    3OL    H14R14324   3.408   5.870   3.848
    3OL    H14S14325   3.512   5.988   3.770
    3OL    C11514326   3.604   5.799   3.818
    3OL    H15R14327   3.608   5.690   3.809
    3OL    H15S14328   3.616   5.821   3.924
    3OL    C11614329   3.734   5.838   3.746
    3OL    H16R14330   3.754   5.944   3.762
    3OL    H16S14331   3.726   5.828   3.638
    3OL    C11714332   3.856   5.758   3.796
    3OL    H17R14333   3.841   5.650   3.789
    3OL    H17S14334   3.863   5.786   3.901
    3OL    C11814335   3.988   5.799   3.730
    3OL    H18R14336   4.065   5.743   3.784
    3OL    H18S14337   4.017   5.901   3.754
    3OL    H18T14338   3.988   5.787   3.622
    1PA    C11614339   4.354   4.093   4.001
    1PA    H16R14340   4.392   4.173   4.064
    1PA    H16S14341   4.440   4.059   3.944
    1PA    H16T14342   4.314   4.010   4.059
    1PA    C11514343   4.245   4.154   3.911
    1PA    H15R14344   4.176   4.201   3.982
    1PA    H15S14345   4.286   4.231   3.846
    1PA    C11414346   4.180   4.044   3.827
    1PA    H14R14347   4.258   3.987   3.776
    1PA    H14S14348   4.137   3.971   3.897
    1PA    C11314349   4.067   4.099   3.738
    1PA    H13R14350   3.997   4.153   3.802
    1PA    H13S14351   4.112   4.172   3.670
    1PA    C11214352   3.994   3.988   3.663
    1PA    H12R14353   3.963   3.902   3.724
    1PA    H12S14354   3.903   4.029   3.617
    1PA    C11114355   4.067   3.933   3.539
    1PA    H11R14356   4.077   4.018   3.471
    1PA    H11S14357   4.164   3.900   3.576
    1PA    C11014358   3.981   3.823   3.476
    1PA    H10R14359   3.971   3.746   3.553
    1PA    H10S14360   3.888   3.869   3.443
    1PA     C1914361   4.052   3.769   3.351
    1PA     H9R14362   4.062   3.844   3.273
    1PA     H9S14363   4.157   3.746   3.372
    1PA     C1814364   3.976   3.651   3.289
    1PA     H8R14365   3.975   3.567   3.359
    1PA     H8S14366   3.870   3.668   3.265
    1PA     C1714367   4.052   3.600   3.167
    1PA     H7R14368   4.057   3.664   3.079
    1PA     H7S14369   4.148   3.558   3.199
    1PA     C1614370   3.970   3.484   3.109
    1PA     H6R14371   3.944   3.418   3.193
    1PA     H6S14372   3.877   3.519   3.066
    1PA     C1514373   4.042   3.420   2.989
    1PA     H5R14374   4.035   3.493   2.908
    1PA     H5S14375   4.149   3.401   2.999
    1PA     C1414376   3.964   3.297   2.939
    1PA     H4R14377   3.937   3.231   3.022
    1PA     H4S14378   3.864   3.329   2.909
    1PA     C1314379   4.027   3.214   2.826
    1PA     H3R14380   4.126   3.182   2.861
    1PA     H3S14381   3.969   3.126   2.799
    1PA     C1214382   4.052   3.295   2.698
    1PA     H2R14383   3.959   3.344   2.668
    1PA     H2S14384   4.125   3.370   2.730
    2PC     C1114385   4.109   3.213   2.585
    2PC     O1214386   4.040   3.136   2.521
    2PC     O1114387   4.240   3.235   2.563
    2PC      C114388   4.299   3.171   2.449
    2PC      HR14389   4.282   3.064   2.459
    2PC      HS14390   4.269   3.206   2.350
    2PC      C214391   4.449   3.205   2.454
    2PC      HX14392   4.460   3.313   2.469
    2PC      C314393   4.524   3.164   2.326
    2PC      HA14394   4.499   3.241   2.253
    2PC      HB14395   4.630   3.167   2.353
    2PC     O3114396   4.477   3.033   2.291
    2PC     P3114397   4.530   2.970   2.154
    2PC     O3214398   4.644   2.862   2.186
    2PC     C3114399   4.774   2.919   2.208
    2PC     H1A14400   4.802   2.972   2.117
    2PC     H1B14401   4.775   2.984   2.296
    2PC     C3214402   4.874   2.806   2.234
    2PC     H2A14403   4.968   2.845   2.274
    2PC     H2B14404   4.822   2.729   2.291
    2PC     N3114405   4.921   2.746   2.105
    2PC     C3314406   5.007   2.840   2.026
    2PC     H3A14407   5.026   2.787   1.933
    2PC     H3B14408   4.942   2.926   2.008
    2PC     H3C14409   5.101   2.868   2.073
    2PC     C3414410   5.016   2.634   2.135
    2PC     H4A14411   5.022   2.568   2.048
    2PC     H4B14412   5.116   2.670   2.161
    2PC     H4C14413   4.980   2.576   2.219
    2PC     C3514414   4.810   2.695   2.018
    2PC     H5A14415   4.749   2.781   1.990
    2PC     H5B14416   4.757   2.631   2.089
    2PC     H5C14417   4.849   2.644   1.930
    2PC     O3314418   4.409   2.919   2.086
    2PC     O3414419   4.588   3.073   2.064
    2PC     O2114420   4.500   3.137   2.569
    2PC     C2114421   4.616   3.183   2.619
    2PC     O2214422   4.678   3.273   2.568
    3OL     C1214423   4.651   3.103   2.743
    3OL     H2R14424   4.668   2.999   2.714
    3OL     H2S14425   4.570   3.107   2.816
    3OL     C1314426   4.785   3.158   2.794
    3OL     H3R14427   4.772   3.263   2.822
    3OL     H3S14428   4.847   3.153   2.704
    3OL     C1414429   4.860   3.084   2.905
    3OL     H4R14430   4.897   2.989   2.866
    3OL     H4S14431   4.788   3.063   2.984
    3OL     C1514432   4.975   3.172   2.956
    3OL     H5R14433   4.945   3.275   2.978
    3OL     H5S14434   5.053   3.182   2.880
    3OL     C1614435   5.019   3.115   3.091
    3OL     H6R14436   5.063   3.015   3.084
    3OL     H6S14437   4.938   3.102   3.163
    3OL     C1714438   5.121   3.212   3.152
    3OL     H7R14439   5.084   3.315   3.153
    3OL     H7S14440   5.212   3.207   3.092
    3OL     C1814441   5.158   3.180   3.297
    3OL     H8R14442   5.249   3.238   3.317
    3OL     H8S14443   5.192   3.076   3.300
    3OL     C1914444   5.041   3.197   3.391
    3OL     H9R14445   5.038   3.299   3.428
    3OL    C11014446   4.985   3.097   3.458
    3OL    H10R14447   4.921   3.134   3.537
    3OL    C11114448   4.986   2.950   3.426
    3OL    H11R14449   5.076   2.915   3.477
    3OL    H11S14450   5.005   2.924   3.322
    3OL    C11214451   4.851   2.890   3.468
    3OL    H12R14452   4.832   2.894   3.575
    3OL    H12S14453   4.863   2.782   3.456
    3OL    C11314454   4.730   2.950   3.393
    3OL    H13R14455   4.746   2.954   3.286
    3OL    H13S14456   4.729   3.049   3.439
    3OL    C11414457   4.594   2.884   3.419
    3OL    H14R14458   4.520   2.960   3.395
    3OL    H14S14459   4.588   2.852   3.524
    3OL    C11514460   4.574   2.767   3.322
    3OL    H15R14461   4.666   2.708   3.328
    3OL    H15S14462   4.564   2.800   3.219
    3OL    C11614463   4.447   2.693   3.367
    3OL    H16R14464   4.368   2.766   3.347
    3OL    H16S14465   4.460   2.678   3.474
    3OL    C11714466   4.420   2.565   3.288
    3OL    H17R14467   4.334   2.516   3.335
    3OL    H17S14468   4.502   2.498   3.315
    3OL    C11814469   4.399   2.590   3.138
    3OL    H18R14470   4.389   2.497   3.082
    3OL    H18S14471   4.482   2.641   3.088
    3OL    H18T14472   4.313   2.653   3.116
    1PA    C11614473   5.139   1.922   4.057
    1PA    H16R14474   5.062   1.978   4.109
    1PA    H16S14475   5.186   1.854   4.129
    1PA    H16T14476   5.094   1.854   3.984
    1PA    C11514477   5.248   2.012   3.998
    1PA    H15R14478   5.313   2.034   4.084
    1PA    H15S14479   5.305   1.953   3.927
    1PA    C11414480   5.170   2.126   3.931
    1PA    H14R14481   5.119   2.094   3.840
    1PA    H14S14482   5.096   2.173   3.996
    1PA    C11314483   5.263   2.237   3.881
    1PA    H13R14484   5.297   2.298   3.965
    1PA    H13S14485   5.350   2.197   3.829
    1PA    C11214486   5.186   2.338   3.795
    1PA    H12R14487   5.085   2.345   3.837
    1PA    H12S14488   5.238   2.434   3.796
    1PA    C11114489   5.183   2.283   3.652
    1PA    H11R14490   5.280   2.250   3.615
    1PA    H11S14491   5.120   2.194   3.650
    1PA    C11014492   5.120   2.391   3.562
    1PA    H10R14493   5.015   2.414   3.582
    1PA    H10S14494   5.170   2.486   3.578
    1PA     C1914495   5.112   2.353   3.414
    1PA     H9R14496   5.214   2.347   3.375
    1PA     H9S14497   5.067   2.255   3.395
    1PA     C1814498   5.032   2.466   3.348
    1PA     H8R14499   4.932   2.460   3.392
    1PA     H8S14500   5.074   2.564   3.371
    1PA     C1714501   5.024   2.438   3.197
    1PA     H7R14502   5.120   2.449   3.145
    1PA     H7S14503   4.999   2.333   3.182
    1PA     C1614504   4.917   2.533   3.142
    1PA     H6R14505   4.825   2.509   3.197
    1PA     H6S14506   4.939   2.636   3.170
    1PA     C1514507   4.892   2.532   2.991
    1PA     H5R14508   4.973   2.582   2.937
    1PA     H5S14509   4.879   2.433   2.946
    1PA     C1414510   4.766   2.617   2.971
    1PA     H4R14511   4.677   2.577   3.021
    1PA     H4S14512   4.783   2.716   3.012
    1PA     C1314513   4.725   2.630   2.824
    1PA     H3R14514   4.802   2.687   2.772
    1PA     H3S14515   4.713   2.529   2.784
    1PA     C1214516   4.591   2.703   2.811
    1PA     H2R14517   4.507   2.646   2.851
    1PA     H2S14518   4.603   2.801   2.859
    2PC     C1114519   4.564   2.736   2.666
    2PC     O1214520   4.650   2.753   2.581
    2PC     O1114521   4.434   2.734   2.634
    2PC      C114522   4.384   2.755   2.501
    2PC      HR14523   4.275   2.761   2.497
    2PC      HS14524   4.412   2.856   2.469
    2PC      C214525   4.432   2.645   2.406
    2PC      HX14526   4.539   2.660   2.389
    2PC      C314527   4.352   2.647   2.275
    2PC      HA14528   4.370   2.738   2.219
    2PC      HB14529   4.378   2.564   2.209
    2PC     O3114530   4.212   2.628   2.305
    2PC     P3114531   4.105   2.640   2.187
    2PC     O3214532   4.005   2.519   2.218
    2PC     C3114533   3.957   2.517   2.354
    2PC     H1A14534   4.034   2.509   2.430
    2PC     H1B14535   3.907   2.613   2.367
    2PC     C3214536   3.854   2.406   2.384
    2PC     H2A14537   3.901   2.308   2.395
    2PC     H2B14538   3.804   2.427   2.478
    2PC     N3114539   3.740   2.387   2.289
    2PC     C3314540   3.664   2.512   2.257
    2PC     H3A14541   3.733   2.591   2.228
    2PC     H3B14542   3.597   2.490   2.174
    2PC     H3C14543   3.597   2.521   2.343
    2PC     C3414544   3.794   2.325   2.164
    2PC     H4A14545   3.852   2.234   2.179
    2PC     H4B14546   3.699   2.297   2.118
    2PC     H4C14547   3.850   2.394   2.101
    2PC     C3514548   3.644   2.287   2.347
    2PC     H5A14549   3.571   2.257   2.272
    2PC     H5B14550   3.587   2.329   2.430
    2PC     H5C14551   3.706   2.202   2.376
    2PC     O3314552   4.052   2.777   2.166
    2PC     O3414553   4.170   2.618   2.055
    2PC     O2114554   4.412   2.518   2.471
    2PC     C2114555   4.470   2.408   2.420
    2PC     O2214556   4.528   2.405   2.314
    3OL     C1214557   4.452   2.298   2.523
    3OL     H2R14558   4.468   2.204   2.471
    3OL     H2S14559   4.350   2.312   2.558
    3OL     C1314560   4.553   2.314   2.637
    3OL     H3R14561   4.531   2.405   2.694
    3OL     H3S14562   4.651   2.314   2.589
    3OL     C1414563   4.537   2.198   2.736
    3OL     H4R14564   4.583   2.114   2.684
    3OL     H4S14565   4.440   2.163   2.771
    3OL     C1514566   4.615   2.233   2.864
    3OL     H5R14567   4.584   2.331   2.901
    3OL     H5S14568   4.718   2.260   2.842
    3OL     C1614569   4.605   2.134   2.981
    3OL     H6R14570   4.636   2.035   2.947
    3OL     H6S14571   4.506   2.122   3.024
    3OL     C1714572   4.700   2.185   3.090
    3OL     H7R14573   4.662   2.282   3.122
    3OL     H7S14574   4.802   2.195   3.052
    3OL     C1814575   4.716   2.087   3.206
    3OL     H8R14576   4.759   1.995   3.166
    3OL     H8S14577   4.615   2.063   3.242
    3OL     C1914578   4.810   2.148   3.307
    3OL     H9R14579   4.913   2.143   3.273
    3OL    C11014580   4.778   2.200   3.425
    3OL    H10R14581   4.857   2.236   3.490
    3OL    C11114582   4.637   2.226   3.471
    3OL    H11R14583   4.596   2.145   3.532
    3OL    H11S14584   4.573   2.234   3.382
    3OL    C11214585   4.635   2.361   3.543
    3OL    H12R14586   4.531   2.394   3.550
    3OL    H12S14587   4.674   2.442   3.481
    3OL    C11314588   4.705   2.359   3.680
    3OL    H13R14589   4.812   2.349   3.662
    3OL    H13S14590   4.669   2.282   3.749
    3OL    C11414591   4.681   2.488   3.759
    3OL    H14R14592   4.665   2.464   3.865
    3OL    H14S14593   4.588   2.535   3.726
    3OL    C11514594   4.800   2.584   3.754
    3OL    H15R14595   4.848   2.577   3.657
    3OL    H15S14596   4.864   2.552   3.837
    3OL    C11614597   4.758   2.726   3.795
    3OL    H16R14598   4.705   2.722   3.890
    3OL    H16S14599   4.688   2.768   3.723
    3OL    C11714600   4.876   2.823   3.816
    3OL    H17R14601   4.955   2.817   3.740
    3OL    H17S14602   4.926   2.779   3.902
    3OL    C11814603   4.826   2.965   3.844
    3OL    H18R14604   4.780   2.967   3.943
    3OL    H18S14605   4.751   2.983   3.767
    3OL    H18T14606   4.896   3.048   3.830
    1PA    C11614607   1.883   1.137   4.200
    1PA    H16R14608   1.973   1.077   4.215
    1PA    H16S14609   1.830   1.093   4.115
    1PA    H16T14610   1.820   1.132   4.289
    1PA    C11514611   1.924   1.281   4.165
    1PA    H15R14612   1.833   1.335   4.138
    1PA    H15S14613   1.963   1.324   4.257
    1PA    C11414614   2.028   1.289   4.052
    1PA    H14R14615   2.090   1.379   4.059
    1PA    H14S14616   2.105   1.212   4.052
    1PA    C11314617   1.950   1.262   3.923
    1PA    H13R14618   1.932   1.155   3.925
    1PA    H13S14619   1.850   1.307   3.920
    1PA    C11214620   2.026   1.287   3.792
    1PA    H12R14621   2.133   1.266   3.799
    1PA    H12S14622   1.993   1.211   3.720
    1PA    C11114623   2.007   1.432   3.747
    1PA    H11R14624   1.902   1.463   3.742
    1PA    H11S14625   2.054   1.496   3.822
    1PA    C11014626   2.073   1.464   3.612
    1PA    H10R14627   2.179   1.439   3.615
    1PA    H10S14628   2.026   1.388   3.548
    1PA     C1914629   2.040   1.606   3.562
    1PA     H9R14630   1.936   1.636   3.556
    1PA     H9S14631   2.075   1.678   3.636
    1PA     C1814632   2.100   1.621   3.421
    1PA     H8R14633   2.093   1.725   3.390
    1PA     H8S14634   2.208   1.611   3.418
    1PA     C1714635   2.029   1.531   3.318
    1PA     H7R14636   2.054   1.425   3.322
    1PA     H7S14637   1.920   1.527   3.323
    1PA     C1614638   2.075   1.563   3.175
    1PA     H6R14639   2.183   1.567   3.166
    1PA     H6S14640   2.030   1.486   3.112
    1PA     C1514641   2.011   1.690   3.116
    1PA     H5R14642   2.019   1.774   3.185
    1PA     H5S14643   2.061   1.720   3.023
    1PA     C1414644   1.861   1.680   3.088
    1PA     H4R14645   1.808   1.632   3.171
    1PA     H4S14646   1.822   1.781   3.077
    1PA     C1314647   1.826   1.608   2.957
    1PA     H3R14648   1.885   1.516   2.959
    1PA     H3S14649   1.725   1.567   2.966
    1PA     C1214650   1.833   1.680   2.821
    1PA     H2R14651   1.756   1.756   2.810
    1PA     H2S14652   1.926   1.734   2.804
    2PC     C1114653   1.809   1.582   2.709
    2PC     O1214654   1.773   1.466   2.719
    2PC     O1114655   1.842   1.644   2.595
    2PC      C114656   1.862   1.573   2.471
    2PC      HR14657   1.775   1.509   2.450
    2PC      HS14658   1.845   1.642   2.388
    2PC      C214659   2.001   1.509   2.461
    2PC      HX14660   2.072   1.581   2.503
    2PC      C314661   2.046   1.493   2.315
    2PC      HA14662   2.048   1.584   2.254
    2PC      HB14663   2.147   1.453   2.298
    2PC     O3114664   1.958   1.403   2.245
    2PC     P3114665   1.987   1.368   2.092
    2PC     O3214666   1.882   1.249   2.073
    2PC     C3114667   1.744   1.273   2.104
    2PC     H1A14668   1.733   1.372   2.150
    2PC     H1B14669   1.696   1.277   2.006
    2PC     C3214670   1.682   1.158   2.184
    2PC     H2A14671   1.581   1.193   2.206
    2PC     H2B14672   1.681   1.068   2.122
    2PC     N3114673   1.741   1.117   2.316
    2PC     C3314674   1.650   1.012   2.372
    2PC     H3A14675   1.549   1.054   2.379
    2PC     H3B14676   1.657   0.923   2.309
    2PC     H3C14677   1.695   0.993   2.469
    2PC     C3414678   1.881   1.066   2.296
    2PC     H4A14679   1.910   1.033   2.396
    2PC     H4B14680   1.873   0.981   2.228
    2PC     H4C14681   1.939   1.153   2.263
    2PC     C3514682   1.744   1.225   2.419
    2PC     H5A14683   1.801   1.312   2.386
    2PC     H5B14684   1.787   1.180   2.509
    2PC     H5C14685   1.640   1.248   2.446
    2PC     O3314686   1.963   1.482   2.000
    2PC     O3414687   2.129   1.327   2.083
    2PC     O2114688   2.003   1.379   2.522
    2PC     C2114689   2.042   1.372   2.651
    2PC     O2214690   2.072   1.470   2.716
    3OL     C1214691   2.022   1.242   2.723
    3OL     H2R14692   2.099   1.167   2.704
    3OL     H2S14693   1.939   1.191   2.674
    3OL     C1314694   1.999   1.249   2.874
    3OL     H3R14695   1.898   1.289   2.886
    3OL     H3S14696   2.070   1.317   2.923
    3OL     C1414697   2.007   1.116   2.950
    3OL     H4R14698   2.103   1.064   2.936
    3OL     H4S14699   1.939   1.039   2.914
    3OL     C1514700   1.976   1.120   3.100
    3OL     H5R14701   1.877   1.163   3.119
    3OL     H5S14702   2.047   1.178   3.158
    3OL     C1614703   1.979   0.986   3.176
    3OL     H6R14704   2.080   0.948   3.162
    3OL     H6S14705   1.913   0.912   3.129
    3OL     C1714706   1.938   1.001   3.323
    3OL     H7R14707   1.841   1.053   3.326
    3OL     H7S14708   2.009   1.068   3.372
    3OL     C1814709   1.928   0.868   3.398
    3OL     H8R14710   2.002   0.801   3.355
    3OL     H8S14711   1.833   0.817   3.384
    3OL     C1914712   1.935   0.888   3.548
    3OL     H9R14713   1.985   0.980   3.577
    3OL    C11014714   1.881   0.820   3.648
    3OL    H10R14715   1.889   0.851   3.752
    3OL    C11114716   1.783   0.709   3.621
    3OL    H11R14717   1.833   0.644   3.548
    3OL    H11S14718   1.693   0.752   3.577
    3OL    C11214719   1.745   0.625   3.744
    3OL    H12R14720   1.665   0.669   3.803
    3OL    H12S14721   1.832   0.620   3.810
    3OL    C11314722   1.708   0.483   3.698
    3OL    H13R14723   1.798   0.438   3.653
    3OL    H13S14724   1.623   0.490   3.630
    3OL    C11414725   1.673   0.398   3.821
    3OL    H14R14726   1.750   0.403   3.898
    3OL    H14S14727   1.653   0.298   3.780
    3OL    C11514728   1.547   0.452   3.890
    3OL    H15R14729   1.475   0.464   3.809
    3OL    H15S14730   1.556   0.548   3.942
    3OL    C11614731   1.484   0.347   3.983
    3OL    H16R14732   1.557   0.328   4.063
    3OL    H16S14733   1.452   0.260   3.926
    3OL    C11714734   1.355   0.395   4.051
    3OL    H17R14735   1.303   0.302   4.077
    3OL    H17S14736   1.294   0.453   3.982
    3OL    C11814737   1.380   0.490   4.169
    3OL    H18R14738   1.407   0.593   4.146
    3OL    H18S14739   1.447   0.440   4.240
    3OL    H18T14740   1.292   0.494   4.233
    1PA    C11614741   4.164   1.854   3.925
    1PA    H16R14742   4.167   1.959   3.896
    1PA    H16S14743   4.259   1.803   3.910
    1PA    H16T14744   4.150   1.843   4.033
    1PA    C11514745   4.059   1.791   3.832
    1PA    H15R14746   4.067   1.683   3.845
    1PA    H15S14747   3.962   1.827   3.867
    1PA    C11414748   4.090   1.829   3.686
    1PA    H14R14749   4.004   1.794   3.627
    1PA    H14S14750   4.090   1.936   3.669
    1PA    C11314751   4.227   1.778   3.642
    1PA    H13R14752   4.295   1.861   3.664
    1PA    H13S14753   4.244   1.690   3.705
    1PA    C11214754   4.238   1.732   3.496
    1PA    H12R14755   4.190   1.636   3.474
    1PA    H12S14756   4.185   1.808   3.438
    1PA    C11114757   4.383   1.731   3.447
    1PA    H11R14758   4.388   1.672   3.355
    1PA    H11S14759   4.418   1.832   3.422
    1PA    C11014760   4.478   1.652   3.537
    1PA    H10R14761   4.456   1.678   3.641
    1PA    H10S14762   4.464   1.544   3.527
    1PA     C1914763   4.621   1.693   3.498
    1PA     H9R14764   4.622   1.801   3.508
    1PA     H9S14765   4.689   1.657   3.575
    1PA     C1814766   4.663   1.635   3.362
    1PA     H8R14767   4.653   1.526   3.358
    1PA     H8S14768   4.599   1.677   3.284
    1PA     C1714769   4.812   1.663   3.339
    1PA     H7R14770   4.823   1.772   3.339
    1PA     H7S14771   4.870   1.629   3.425
    1PA     C1614772   4.871   1.612   3.207
    1PA     H6R14773   4.979   1.595   3.212
    1PA     H6S14774   4.826   1.516   3.183
    1PA     C1514775   4.843   1.721   3.102
    1PA     H5R14776   4.736   1.735   3.087
    1PA     H5S14777   4.889   1.814   3.136
    1PA     C1414778   4.904   1.699   2.962
    1PA     H4R14779   5.012   1.708   2.956
    1PA     H4S14780   4.875   1.598   2.935
    1PA     C1314781   4.835   1.801   2.870
    1PA     H3R14782   4.727   1.792   2.873
    1PA     H3S14783   4.844   1.904   2.905
    1PA     C1214784   4.902   1.795   2.732
    1PA     H2R14785   5.004   1.833   2.740
    1PA     H2S14786   4.903   1.691   2.701
    2PC     C1114787   4.820   1.881   2.638
    2PC     O1214788   4.698   1.883   2.633
    2PC     O1114789   4.899   1.967   2.573
    2PC      C114790   4.835   2.067   2.492
    2PC      HR14791   4.781   2.006   2.419
    2PC      HS14792   4.768   2.132   2.550
    2PC      C214793   4.941   2.160   2.432
    2PC      HX14794   4.902   2.257   2.402
    2PC      C314795   5.024   2.085   2.326
    2PC      HA14796   5.112   2.040   2.371
    2PC      HB14797   4.965   2.010   2.273
    2PC     O3114798   5.061   2.192   2.237
    2PC     P3114799   5.177   2.170   2.129
    2PC     O3214800   5.309   2.152   2.219
    2PC     C3114801   5.325   2.250   2.322
    2PC     H1A14802   5.323   2.349   2.274
    2PC     H1B14803   5.232   2.241   2.380
    2PC     C3214804   5.456   2.229   2.398
    2PC     H2A14805   5.536   2.227   2.325
    2PC     H2B14806   5.477   2.312   2.466
    2PC     N3114807   5.474   2.107   2.484
    2PC     C3314808   5.601   2.120   2.563
    2PC     H3A14809   5.603   2.047   2.644
    2PC     H3B14810   5.678   2.097   2.489
    2PC     H3C14811   5.621   2.221   2.596
    2PC     C3414812   5.357   2.084   2.575
    2PC     H4A14813   5.376   1.997   2.639
    2PC     H4B14814   5.344   2.176   2.632
    2PC     H4C14815   5.266   2.057   2.522
    2PC     C3514816   5.485   1.990   2.390
    2PC     H5A14817   5.507   1.904   2.453
    2PC     H5B14818   5.558   2.007   2.311
    2PC     H5C14819   5.387   1.972   2.345
    2PC     O3314820   5.143   2.065   2.030
    2PC     O3414821   5.188   2.296   2.052
    2PC     O2114822   5.037   2.192   2.535
    2PC     C2114823   5.002   2.285   2.626
    2PC     O2214824   4.914   2.367   2.616
    3OL     C1214825   5.084   2.278   2.752
    3OL     H2R14826   5.075   2.372   2.806
    3OL     H2S14827   5.191   2.291   2.735
    3OL     C1314828   5.059   2.148   2.831
    3OL     H3R14829   5.074   2.057   2.772
    3OL     H3S14830   4.956   2.151   2.865
    3OL     C1414831   5.152   2.149   2.953
    3OL     H4R14832   5.156   2.248   3.001
    3OL     H4S14833   5.255   2.131   2.924
    3OL     C1514834   5.102   2.047   3.056
    3OL     H5R14835   5.104   1.946   3.013
    3OL     H5S14836   5.007   2.076   3.101
    3OL     C1614837   5.195   2.042   3.178
    3OL     H6R14838   5.181   2.132   3.238
    3OL     H6S14839   5.296   2.027   3.141
    3OL     C1714840   5.168   1.918   3.266
    3OL     H7R14841   5.163   1.829   3.204
    3OL     H7S14842   5.074   1.924   3.320
    3OL     C1814843   5.273   1.901   3.377
    3OL     H8R14844   5.367   1.900   3.320
    3OL     H8S14845   5.247   1.802   3.413
    3OL     C1914846   5.276   2.009   3.482
    3OL     H9R14847   5.263   2.112   3.450
    3OL    C11014848   5.278   1.974   3.610
    3OL    H10R14849   5.263   2.054   3.682
    3OL    C11114850   5.287   1.833   3.663
    3OL    H11R14851   5.327   1.833   3.764
    3OL    H11S14852   5.353   1.785   3.591
    3OL    C11214853   5.142   1.781   3.664
    3OL    H12R14854   5.092   1.799   3.569
    3OL    H12S14855   5.085   1.842   3.735
    3OL    C11314856   5.140   1.634   3.708
    3OL    H13R14857   5.167   1.628   3.813
    3OL    H13S14858   5.211   1.582   3.644
    3OL    C11414859   4.999   1.573   3.699
    3OL    H14R14860   4.971   1.559   3.594
    3OL    H14S14861   4.915   1.623   3.748
    3OL    C11514862   5.003   1.432   3.760
    3OL    H15R14863   4.902   1.394   3.778
    3OL    H15S14864   5.051   1.436   3.858
    3OL    C11614865   5.067   1.321   3.676
    3OL    H16R14866   5.168   1.347   3.645
    3OL    H16S14867   5.019   1.320   3.578
    3OL    C11714868   5.048   1.187   3.750
    3OL    H17R14869   5.046   1.111   3.672
    3OL    H17S14870   4.954   1.176   3.803
    3OL    C11814871   5.166   1.154   3.842
    3OL    H18R14872   5.147   1.211   3.934
    3OL    H18S14873   5.259   1.191   3.800
    3OL    H18T14874   5.164   1.048   3.869
    1PA    C11614875   3.149   0.571   3.957
    1PA    H16R14876   3.180   0.543   4.058
    1PA    H16S14877   3.116   0.487   3.896
    1PA    H16T14878   3.076   0.651   3.965
    1PA    C11514879   3.274   0.626   3.885
    1PA    H15R14880   3.289   0.726   3.926
    1PA    H15S14881   3.362   0.567   3.910
    1PA    C11414882   3.263   0.610   3.733
    1PA    H14R14883   3.265   0.506   3.699
    1PA    H14S14884   3.168   0.656   3.703
    1PA    C11314885   3.386   0.678   3.672
    1PA    H13R14886   3.375   0.784   3.695
    1PA    H13S14887   3.475   0.639   3.724
    1PA    C11214888   3.402   0.645   3.523
    1PA    H12R14889   3.445   0.546   3.504
    1PA    H12S14890   3.304   0.645   3.475
    1PA    C11114891   3.492   0.743   3.447
    1PA    H11R14892   3.451   0.844   3.453
    1PA    H11S14893   3.594   0.745   3.485
    1PA    C11014894   3.496   0.698   3.300
    1PA    H10R14895   3.551   0.604   3.291
    1PA    H10S14896   3.394   0.696   3.263
    1PA     C1914897   3.573   0.802   3.218
    1PA     H9R14898   3.679   0.797   3.246
    1PA     H9S14899   3.546   0.905   3.238
    1PA     C1814900   3.553   0.760   3.071
    1PA     H8R14901   3.580   0.655   3.057
    1PA     H8S14902   3.447   0.750   3.046
    1PA     C1714903   3.621   0.865   2.983
    1PA     H7R14904   3.566   0.959   2.994
    1PA     H7S14905   3.722   0.879   3.023
    1PA     C1614906   3.625   0.832   2.833
    1PA     H6R14907   3.675   0.738   2.809
    1PA     H6S14908   3.525   0.816   2.792
    1PA     C1514909   3.693   0.942   2.750
    1PA     H5R14910   3.636   1.035   2.755
    1PA     H5S14911   3.791   0.968   2.789
    1PA     C1414912   3.719   0.907   2.603
    1PA     H4R14913   3.789   0.825   2.587
    1PA     H4S14914   3.635   0.843   2.572
    1PA     C1314915   3.733   1.028   2.510
    1PA     H3R14916   3.642   1.088   2.507
    1PA     H3S14917   3.819   1.086   2.543
    1PA     C1214918   3.763   0.988   2.365
    1PA     H2R14919   3.788   1.085   2.321
    1PA     H2S14920   3.854   0.927   2.363
    2PC     C1114921   3.658   0.913   2.287
    2PC     O1214922   3.640   0.793   2.292
    2PC     O1114923   3.574   0.994   2.222
    2PC      C114924   3.471   0.939   2.139
    2PC      HR14925   3.421   1.020   2.085
    2PC      HS14926   3.527   0.876   2.070
    2PC      C214927   3.365   0.857   2.215
    2PC      HX14928   3.410   0.783   2.281
    2PC      C314929   3.263   0.784   2.128
    2PC      HA14930   3.309   0.702   2.072
    2PC      HB14931   3.191   0.732   2.192
    2PC     O3114932   3.201   0.872   2.032
    2PC     P3114933   3.206   0.832   1.877
    2PC     O3214934   3.107   0.942   1.815
    2PC     C3114935   2.968   0.906   1.821
    2PC     H1A14936   2.960   0.831   1.741
    2PC     H1B14937   2.952   0.865   1.921
    2PC     C3214938   2.878   1.028   1.796
    2PC     H2A14939   2.779   1.000   1.831
    2PC     H2B14940   2.921   1.114   1.848
    2PC     N3114941   2.855   1.081   1.658
    2PC     C3314942   2.792   0.973   1.575
    2PC     H3A14943   2.850   0.882   1.569
    2PC     H3B14944   2.690   0.954   1.609
    2PC     H3C14945   2.788   1.011   1.473
    2PC     C3414946   2.775   1.208   1.655
    2PC     H4A14947   2.753   1.235   1.552
    2PC     H4B14948   2.681   1.176   1.700
    2PC     H4C14949   2.822   1.280   1.722
    2PC     C3514950   2.994   1.124   1.620
    2PC     H5A14951   3.005   1.232   1.607
    2PC     H5B14952   3.005   1.087   1.518
    2PC     H5C14953   3.071   1.084   1.686
    2PC     O3314954   3.342   0.850   1.820
    2PC     O3414955   3.170   0.696   1.831
    2PC     O2114956   3.290   0.942   2.303
    2PC     C2114957   3.271   0.904   2.431
    2PC     O2214958   3.289   0.790   2.469
    3OL     C1214959   3.219   1.016   2.517
    3OL     H2R14960   3.116   1.028   2.485
    3OL     H2S14961   3.260   1.115   2.497
    3OL     C1314962   3.231   0.971   2.664
    3OL     H3R14963   3.338   0.976   2.682
    3OL     H3S14964   3.197   0.872   2.693
    3OL     C1414965   3.162   1.070   2.759
    3OL     H4R14966   3.057   1.071   2.728
    3OL     H4S14967   3.205   1.170   2.750
    3OL     C1514968   3.181   1.033   2.907
    3OL     H5R14969   3.199   0.926   2.918
    3OL     H5S14970   3.088   1.056   2.960
    3OL     C1614971   3.298   1.105   2.975
    3OL     H6R14972   3.290   1.213   2.983
    3OL     H6S14973   3.385   1.073   2.917
    3OL     C1714974   3.323   1.040   3.112
    3OL     H7R14975   3.426   1.058   3.145
    3OL     H7S14976   3.328   0.931   3.109
    3OL     C1814977   3.227   1.092   3.220
    3OL     H8R14978   3.131   1.105   3.170
    3OL     H8S14979   3.261   1.190   3.253
    3OL     C1914980   3.226   0.994   3.335
    3OL     H9R14981   3.219   0.890   3.307
    3OL    C11014982   3.242   1.028   3.462
    3OL    H10R14983   3.248   0.950   3.537
    3OL    C11114984   3.239   1.164   3.528
    3OL    H11R14985   3.236   1.244   3.454
    3OL    H11S14986   3.326   1.181   3.591
    3OL    C11214987   3.117   1.172   3.620
    3OL    H12R14988   3.119   1.092   3.695
    3OL    H12S14989   3.022   1.153   3.570
    3OL    C11314990   3.113   1.305   3.696
    3OL    H13R14991   3.128   1.375   3.613
    3OL    H13S14992   3.194   1.314   3.770
    3OL    C11414993   2.977   1.341   3.758
    3OL    H14R14994   2.899   1.371   3.687
    3OL    H14S14995   3.002   1.427   3.820
    3OL    C11514996   2.924   1.234   3.854
    3OL    H15R14997   2.947   1.135   3.814
    3OL    H15S14998   2.814   1.234   3.853
    3OL    C11614999   2.982   1.254   3.995
    3OL    H16R15000   2.938   1.347   4.032
    3OL    H16S15001   3.091   1.263   3.995
    3OL    C11715002   2.955   1.136   4.090
    3OL    H17R15003   3.033   1.132   4.166
    3OL    H17S15004   2.966   1.048   4.027
    3OL    C11815005   2.810   1.129   4.141
    3OL    H18R15006   2.800   1.035   4.194
    3OL    H18S15007   2.737   1.134   4.060
    3OL    H18T15008   2.790   1.210   4.212
    1PA    C11615009   2.042   0.291   4.010
    1PA    H16R15010   1.957   0.339   3.961
    1PA    H16S15011   2.011   0.261   4.111
    1PA    H16T15012   2.049   0.196   3.955
    1PA    C11515013   2.177   0.363   4.008
    1PA    H15R15014   2.171   0.461   4.055
    1PA    H15S15015   2.246   0.313   4.077
    1PA    C11415016   2.240   0.370   3.868
    1PA    H14R15017   2.326   0.432   3.891
    1PA    H14S15018   2.270   0.274   3.824
    1PA    C11315019   2.153   0.436   3.760
    1PA    H13R15020   2.062   0.378   3.746
    1PA    H13S15021   2.121   0.530   3.804
    1PA    C11215022   2.225   0.471   3.629
    1PA    H12R15023   2.171   0.557   3.588
    1PA    H12S15024   2.324   0.513   3.645
    1PA    C11115025   2.224   0.356   3.527
    1PA    H11R15026   2.292   0.278   3.560
    1PA    H11S15027   2.123   0.318   3.509
    1PA    C11015028   2.279   0.401   3.391
    1PA    H10R15029   2.355   0.476   3.415
    1PA    H10S15030   2.329   0.313   3.350
    1PA     C1915031   2.179   0.468   3.294
    1PA     H9R15032   2.127   0.386   3.243
    1PA     H9S15033   2.114   0.541   3.341
    1PA     C1815034   2.257   0.538   3.182
    1PA     H8R15035   2.344   0.594   3.218
    1PA     H8S15036   2.297   0.461   3.116
    1PA     C1715037   2.180   0.640   3.097
    1PA     H7R15038   2.072   0.619   3.098
    1PA     H7S15039   2.185   0.737   3.147
    1PA     C1615040   2.239   0.646   2.956
    1PA     H6R15041   2.348   0.648   2.952
    1PA     H6S15042   2.202   0.554   2.909
    1PA     C1515043   2.185   0.773   2.890
    1PA     H5R15044   2.079   0.787   2.909
    1PA     H5S15045   2.237   0.863   2.924
    1PA     C1415046   2.209   0.762   2.738
    1PA     H4R15047   2.314   0.743   2.713
    1PA     H4S15048   2.148   0.680   2.701
    1PA     C1315049   2.172   0.890   2.663
    1PA     H3R15050   2.065   0.913   2.662
    1PA     H3S15051   2.226   0.971   2.711
    1PA     C1215052   2.203   0.872   2.514
    1PA     H2R15053   2.307   0.840   2.506
    1PA     H2S15054   2.146   0.789   2.473
    2PC     C1115055   2.193   0.994   2.425
    2PC     O1215056   2.163   1.103   2.470
    2PC     O1115057   2.229   0.971   2.298
    2PC      C115058   2.239   1.083   2.207
    2PC      HR15059   2.139   1.103   2.167
    2PC      HS15060   2.283   1.168   2.260
    2PC      C215061   2.329   1.040   2.090
    2PC      HX15062   2.365   1.131   2.040
    2PC      C315063   2.268   0.927   2.006
    2PC      HA15064   2.324   0.903   1.915
    2PC      HB15065   2.247   0.843   2.073
    2PC     O3115066   2.134   0.968   1.972
    2PC     P3115067   2.060   0.897   1.849
    2PC     O3215068   2.137   0.943   1.716
    2PC     C3115069   2.072   0.927   1.589
    2PC     H1A15070   2.035   0.825   1.580
    2PC     H1B15071   1.989   0.997   1.582
    2PC     C3215072   2.175   0.958   1.480
    2PC     H2A15073   2.223   1.054   1.500
    2PC     H2B15074   2.237   0.870   1.465
    2PC     N3115075   2.125   0.994   1.343
    2PC     C3315076   2.058   1.128   1.351
    2PC     H3A15077   2.018   1.152   1.252
    2PC     H3B15078   1.974   1.118   1.420
    2PC     H3C15079   2.136   1.195   1.386
    2PC     C3415080   2.230   0.989   1.237
    2PC     H4A15081   2.314   1.053   1.264
    2PC     H4B15082   2.269   0.888   1.231
    2PC     H4C15083   2.190   1.027   1.142
    2PC     C3515084   2.025   0.889   1.303
    2PC     H5A15085   1.938   0.897   1.368
    2PC     H5B15086   2.060   0.786   1.306
    2PC     H5C15087   1.996   0.921   1.202
    2PC     O3315088   2.072   0.751   1.873
    2PC     O3415089   1.918   0.935   1.835
    2PC     O2115090   2.451   0.989   2.146
    2PC     C2115091   2.535   1.080   2.198
    2PC     O2215092   2.526   1.198   2.170
    3OL     C1215093   2.637   1.031   2.298
    3OL     H2R15094   2.721   1.101   2.300
    3OL     H2S15095   2.687   0.943   2.256
    3OL     C1315096   2.574   0.997   2.433
    3OL     H3R15097   2.480   0.944   2.417
    3OL     H3S15098   2.546   1.093   2.476
    3OL     C1415099   2.660   0.919   2.533
    3OL     H4R15100   2.747   0.982   2.553
    3OL     H4S15101   2.695   0.823   2.493
    3OL     C1515102   2.565   0.895   2.651
    3OL     H5R15103   2.475   0.845   2.616
    3OL     H5S15104   2.530   0.994   2.681
    3OL     C1615105   2.629   0.815   2.766
    3OL     H6R15106   2.674   0.727   2.719
    3OL     H6S15107   2.549   0.784   2.834
    3OL     C1715108   2.744   0.870   2.851
    3OL     H7R15109   2.737   0.976   2.876
    3OL     H7S15110   2.833   0.859   2.790
    3OL     C1815111   2.761   0.779   2.974
    3OL     H8R15112   2.865   0.783   3.007
    3OL     H8S15113   2.743   0.678   2.937
    3OL     C1915114   2.664   0.818   3.084
    3OL     H9R15115   2.601   0.904   3.062
    3OL    C11015116   2.661   0.768   3.206
    3OL    H10R15117   2.579   0.801   3.269
    3OL    C11115118   2.743   0.650   3.253
    3OL    H11R15119   2.819   0.695   3.317
    3OL    H11S15120   2.817   0.615   3.180
    3OL    C11215121   2.678   0.534   3.330
    3OL    H12R15122   2.617   0.472   3.264
    3OL    H12S15123   2.620   0.574   3.413
    3OL    C11315124   2.780   0.439   3.394
    3OL    H13R15125   2.845   0.490   3.466
    3OL    H13S15126   2.851   0.399   3.322
    3OL    C11415127   2.701   0.331   3.469
    3OL    H14R15128   2.648   0.278   3.390
    3OL    H14S15129   2.640   0.372   3.551
    3OL    C11515130   2.797   0.229   3.531
    3OL    H15R15131   2.857   0.270   3.612
    3OL    H15S15132   2.874   0.204   3.457
    3OL    C11615133   2.717   0.111   3.589
    3OL    H16R15134   2.659   0.061   3.511
    3OL    H16S15135   2.654   0.140   3.673
    3OL    C11715136   2.814   0.009   3.649
    3OL    H17R15137   2.857   0.048   3.742
    3OL    H17S15138   2.891  -0.004   3.573
    3OL    C11815139   2.750  -0.125   3.689
    3OL    H18R15140   2.714  -0.179   3.601
    3OL    H18S15141   2.664  -0.081   3.741
    3OL    H18T15142   2.814  -0.188   3.751
    1PA    C11615143   4.752   4.803   4.166
    1PA    H16R15144   4.681   4.823   4.085
    1PA    H16S15145   4.806   4.895   4.190
    1PA    H16T15146   4.697   4.776   4.256
    1PA    C11515147   4.845   4.688   4.124
    1PA    H15R15148   4.901   4.654   4.211
    1PA    H15S15149   4.778   4.609   4.089
    1PA    C11415150   4.940   4.739   4.015
    1PA    H14R15151   4.882   4.781   3.932
    1PA    H14S15152   5.004   4.814   4.061
    1PA    C11315153   5.031   4.630   3.955
    1PA    H13R15154   5.131   4.673   3.964
    1PA    H13S15155   5.033   4.542   4.019
    1PA    C11215156   5.004   4.583   3.812
    1PA    H12R15157   5.069   4.497   3.795
    1PA    H12S15158   4.901   4.546   3.807
    1PA    C11115159   5.025   4.688   3.702
    1PA    H11R15160   4.988   4.784   3.741
    1PA    H11S15161   5.132   4.702   3.691
    1PA    C11015162   4.963   4.644   3.569
    1PA    H10R15163   4.860   4.629   3.601
    1PA    H10S15164   4.955   4.728   3.499
    1PA     C1915165   5.008   4.515   3.500
    1PA     H9R15166   5.107   4.525   3.454
    1PA     H9S15167   5.012   4.432   3.571
    1PA     C1815168   4.909   4.483   3.387
    1PA     H8R15169   4.954   4.391   3.347
    1PA     H8S15170   4.808   4.459   3.421
    1PA     C1715171   4.910   4.587   3.274
    1PA     H7R15172   4.832   4.660   3.299
    1PA     H7S15173   5.008   4.635   3.270
    1PA     C1615174   4.873   4.517   3.143
    1PA     H6R15175   4.943   4.438   3.114
    1PA     H6S15176   4.783   4.456   3.158
    1PA     C1515177   4.860   4.621   3.031
    1PA     H5R15178   4.784   4.691   3.067
    1PA     H5S15179   4.956   4.673   3.019
    1PA     C1415180   4.805   4.547   2.908
    1PA     H4R15181   4.872   4.462   2.895
    1PA     H4S15182   4.705   4.519   2.942
    1PA     C1315183   4.774   4.640   2.790
    1PA     H3R15184   4.679   4.693   2.802
    1PA     H3S15185   4.861   4.702   2.767
    1PA     C1215186   4.767   4.550   2.666
    1PA     H2R15187   4.862   4.499   2.649
    1PA     H2S15188   4.702   4.464   2.683
    2PC     C1115189   4.719   4.627   2.545
    2PC     O1215190   4.782   4.631   2.442
    2PC     O1115191   4.613   4.706   2.570
    2PC      C115192   4.563   4.807   2.481
    2PC      HR15193   4.558   4.765   2.380
    2PC      HS15194   4.456   4.811   2.504
    2PC      C215195   4.632   4.943   2.497
    2PC      HX15196   4.581   5.028   2.452
    2PC      C315197   4.768   4.929   2.428
    2PC      HA15198   4.838   4.881   2.497
    2PC      HB15199   4.760   4.870   2.336
    2PC     O3115200   4.821   5.060   2.401
    2PC     P3115201   4.787   5.126   2.260
    2PC     O3215202   4.831   5.278   2.284
    2PC     C3115203   4.790   5.378   2.188
    2PC     H1A15204   4.848   5.362   2.097
    2PC     H1B15205   4.683   5.364   2.167
    2PC     C3215206   4.815   5.521   2.236
    2PC     H2A15207   4.815   5.588   2.150
    2PC     H2B15208   4.733   5.556   2.299
    2PC     N3115209   4.941   5.547   2.313
    2PC     C3315210   4.950   5.696   2.324
    2PC     H3A15211   4.853   5.731   2.360
    2PC     H3B15212   5.031   5.716   2.395
    2PC     H3C15213   4.962   5.732   2.222
    2PC     C3415214   4.936   5.488   2.451
    2PC     H4A15215   4.929   5.379   2.458
    2PC     H4B15216   5.021   5.513   2.513
    2PC     H4C15217   4.848   5.534   2.497
    2PC     C3515218   5.059   5.490   2.240
    2PC     H5A15219   5.059   5.541   2.144
    2PC     H5B15220   5.049   5.382   2.241
    2PC     H5C15221   5.145   5.506   2.306
    2PC     O3315222   4.845   5.067   2.137
    2PC     O3415223   4.642   5.107   2.235
    2PC     O2115224   4.648   4.972   2.636
    2PC     C2115225   4.552   5.034   2.707
    2PC     O2215226   4.456   5.091   2.658
    3OL     C1215227   4.583   5.025   2.854
    3OL     H2R15228   4.551   4.930   2.896
    3OL     H2S15229   4.524   5.101   2.906
    3OL     C1315230   4.732   5.042   2.887
    3OL     H3R15231   4.764   5.142   2.858
    3OL     H3S15232   4.802   4.969   2.846
    3OL     C1415233   4.750   5.025   3.039
    3OL     H4R15234   4.712   4.928   3.073
    3OL     H4S15235   4.694   5.102   3.092
    3OL     C1515236   4.899   5.031   3.073
    3OL     H5R15237   4.950   5.122   3.043
    3OL     H5S15238   4.955   4.959   3.012
    3OL     C1615239   4.915   5.024   3.226
    3OL     H6R15240   4.900   4.921   3.256
    3OL     H6S15241   4.832   5.085   3.263
    3OL     C1715242   5.044   5.088   3.277
    3OL     H7R15243   5.038   5.140   3.373
    3OL     H7S15244   5.089   5.158   3.206
    3OL     C1815245   5.150   4.979   3.301
    3OL     H8R15246   5.178   4.937   3.204
    3OL     H8S15247   5.110   4.896   3.359
    3OL     C1915248   5.274   5.042   3.360
    3OL     H9R15249   5.282   5.147   3.332
    3OL    C11015250   5.370   4.981   3.426
    3OL    H10R15251   5.454   5.039   3.464
    3OL    C11115252   5.375   4.837   3.470
    3OL    H11R15253   5.473   4.797   3.441
    3OL    H11S15254   5.292   4.783   3.423
    3OL    C11215255   5.371   4.839   3.623
    3OL    H12R15256   5.268   4.834   3.660
    3OL    H12S15257   5.421   4.930   3.658
    3OL    C11315258   5.428   4.710   3.684
    3OL    H13R15259   5.491   4.662   3.609
    3OL    H13S15260   5.346   4.644   3.709
    3OL    C11415261   5.525   4.728   3.802
    3OL    H14R15262   5.601   4.805   3.786
    3OL    H14S15263   5.578   4.634   3.820
    3OL    C11515264   5.454   4.755   3.935
    3OL    H15R15265   5.387   4.671   3.955
    3OL    H15S15266   5.388   4.841   3.925
    3OL    C11615267   5.548   4.779   4.055
    3OL    H16R15268   5.624   4.853   4.032
    3OL    H16S15269   5.609   4.691   4.075
    3OL    C11715270   5.469   4.830   4.176
    3OL    H17R15271   5.405   4.751   4.216
    3OL    H17S15272   5.417   4.915   4.133
    3OL    C11815273   5.565   4.890   4.280
    3OL    H18R15274   5.519   4.903   4.378
    3OL    H18S15275   5.606   4.986   4.249
    3OL    H18T15276   5.655   4.830   4.297
    1PA    C11615277   4.659   0.564   4.070
    1PA    H16R15278   4.673   0.562   3.962
    1PA    H16S15279   4.586   0.638   4.106
    1PA    H16T15280   4.633   0.463   4.103
    1PA    C11515281   4.801   0.604   4.111
    1PA    H15R15282   4.801   0.586   4.218
    1PA    H15S15283   4.873   0.538   4.061
    1PA    C11415284   4.842   0.750   4.090
    1PA    H14R15285   4.785   0.823   4.147
    1PA    H14S15286   4.945   0.752   4.126
    1PA    C11315287   4.844   0.788   3.941
    1PA    H13R15288   4.741   0.768   3.912
    1PA    H13S15289   4.854   0.896   3.927
    1PA    C11215290   4.937   0.714   3.844
    1PA    H12R15291   5.041   0.723   3.875
    1PA    H12S15292   4.921   0.606   3.850
    1PA    C11115293   4.918   0.753   3.697
    1PA    H11R15294   4.815   0.741   3.663
    1PA    H11S15295   4.953   0.855   3.681
    1PA    C11015296   4.999   0.659   3.606
    1PA    H10R15297   5.108   0.653   3.619
    1PA    H10S15298   4.971   0.555   3.626
    1PA     C1915299   4.970   0.690   3.459
    1PA     H9R15300   4.865   0.668   3.441
    1PA     H9S15301   4.986   0.798   3.451
    1PA     C1815302   5.057   0.622   3.352
    1PA     H8R15303   5.164   0.640   3.351
    1PA     H8S15304   5.036   0.515   3.362
    1PA     C1715305   5.017   0.670   3.212
    1PA     H7R15306   4.918   0.631   3.188
    1PA     H7S15307   5.025   0.779   3.200
    1PA     C1615308   5.109   0.613   3.104
    1PA     H6R15309   5.114   0.504   3.112
    1PA     H6S15310   5.054   0.632   3.012
    1PA     C1515311   5.244   0.685   3.105
    1PA     H5R15312   5.237   0.794   3.097
    1PA     H5S15313   5.302   0.668   3.195
    1PA     C1415314   5.321   0.643   2.979
    1PA     H4R15315   5.323   0.534   2.985
    1PA     H4S15316   5.257   0.667   2.894
    1PA     C1315317   5.462   0.702   2.958
    1PA     H3R15318   5.458   0.811   2.956
    1PA     H3S15319   5.523   0.691   3.048
    1PA     C1215320   5.517   0.649   2.825
    1PA     H2R15321   5.621   0.684   2.825
    1PA     H2S15322   5.523   0.541   2.832
    2PC     C1115323   5.462   0.694   2.692
    2PC     O1215324   5.510   0.661   2.586
    2PC     O1115325   5.348   0.766   2.699
    2PC      C115326   5.275   0.796   2.579
    2PC      HR15327   5.334   0.867   2.520
    2PC      HS15328   5.247   0.707   2.522
    2PC      C215329   5.144   0.858   2.631
    2PC      HX15330   5.084   0.783   2.683
    2PC      C315331   5.080   0.918   2.504
    2PC      HA15332   5.049   0.832   2.443
    2PC      HB15333   4.988   0.968   2.535
    2PC     O3115334   5.178   1.003   2.442
    2PC     P3115335   5.200   1.014   2.284
    2PC     O3215336   5.050   0.990   2.232
    2PC     C3115337   4.970   1.098   2.181
    2PC     H1A15338   4.950   1.178   2.253
    2PC     H1B15339   5.016   1.142   2.092
    2PC     C3215340   4.836   1.044   2.128
    2PC     H2A15341   4.797   1.099   2.042
    2PC     H2B15342   4.855   0.940   2.103
    2PC     N3115343   4.723   1.051   2.226
    2PC     C3315344   4.693   1.195   2.252
    2PC     H3A15345   4.600   1.197   2.309
    2PC     H3B15346   4.778   1.243   2.301
    2PC     H3C15347   4.675   1.233   2.152
    2PC     C3415348   4.598   0.991   2.168
    2PC     H4A15349   4.565   1.049   2.082
    2PC     H4B15350   4.624   0.887   2.146
    2PC     H4C15351   4.516   0.985   2.240
    2PC     C3515352   4.762   0.973   2.348
    2PC     H5A15353   4.758   0.868   2.321
    2PC     H5B15354   4.697   0.992   2.434
    2PC     H5C15355   4.855   1.020   2.380
    2PC     O3315356   5.263   1.139   2.236
    2PC     O3415357   5.296   0.915   2.231
    2PC     O2115358   5.166   0.969   2.719
    2PC     C2115359   5.072   1.011   2.806
    2PC     O2215360   4.962   0.959   2.810
    3OL     C1215361   5.116   1.129   2.888
    3OL     H2R15362   5.185   1.183   2.823
    3OL     H2S15363   5.181   1.096   2.970
    3OL     C1315364   4.999   1.221   2.923
    3OL     H3R15365   4.941   1.244   2.833
    3OL     H3S15366   5.033   1.322   2.947
    3OL     C1415367   4.913   1.174   3.042
    3OL     H4R15368   4.864   1.078   3.028
    3OL     H4S15369   4.835   1.248   3.062
    3OL     C1515370   4.995   1.152   3.170
    3OL     H5R15371   5.070   1.231   3.175
    3OL     H5S15372   5.050   1.058   3.158
    3OL     C1615373   4.910   1.148   3.297
    3OL     H6R15374   4.850   1.239   3.310
    3OL     H6S15375   4.969   1.139   3.389
    3OL     C1715376   4.799   1.042   3.296
    3OL     H7R15377   4.847   0.951   3.260
    3OL     H7S15378   4.728   1.068   3.217
    3OL     C1815379   4.730   1.002   3.427
    3OL     H8R15380   4.674   1.087   3.466
    3OL     H8S15381   4.803   0.979   3.505
    3OL     C1915382   4.643   0.880   3.412
    3OL     H9R15383   4.677   0.810   3.336
    3OL    C11015384   4.536   0.856   3.487
    3OL    H10R15385   4.477   0.768   3.466
    3OL    C11115386   4.481   0.942   3.598
    3OL    H11R15387   4.372   0.943   3.587
    3OL    H11S15388   4.520   1.043   3.596
    3OL    C11215389   4.488   0.872   3.734
    3OL    H12R15390   4.593   0.843   3.742
    3OL    H12S15391   4.425   0.782   3.735
    3OL    C11315392   4.445   0.954   3.857
    3OL    H13R15393   4.354   1.011   3.838
    3OL    H13S15394   4.514   1.030   3.895
    3OL    C11415395   4.434   0.856   3.975
    3OL    H14R15396   4.532   0.825   4.012
    3OL    H14S15397   4.378   0.762   3.964
    3OL    C11515398   4.365   0.937   4.086
    3OL    H15R15399   4.276   0.980   4.040
    3OL    H15S15400   4.426   1.018   4.127
    3OL    C11615401   4.322   0.852   4.206
    3OL    H16R15402   4.403   0.789   4.244
    3OL    H16S15403   4.246   0.777   4.184
    3OL    C11715404   4.266   0.938   4.320
    3OL    H17R15405   4.213   0.872   4.388
    3OL    H17S15406   4.184   1.003   4.289
    3OL    C11815407   4.367   1.018   4.403
    3OL    H18R15408   4.446   0.952   4.439
    3OL    H18S15409   4.317   1.055   4.493
    3OL    H18T15410   4.400   1.116   4.366
    1PA    C11615411   0.906   3.081   4.279
    1PA    H16R15412   0.932   2.984   4.236
    1PA    H16S15413   0.886   3.056   4.384
    1PA    H16T15414   0.994   3.145   4.270
    1PA    C11515415   0.779   3.145   4.224
    1PA    H15R15416   0.761   3.230   4.290
    1PA    H15S15417   0.814   3.188   4.130
    1PA    C11415418   0.659   3.050   4.212
    1PA    H14R15419   0.646   3.018   4.316
    1PA    H14S15420   0.568   3.106   4.187
    1PA    C11315421   0.680   2.933   4.115
    1PA    H13R15422   0.684   2.974   4.014
    1PA    H13S15423   0.776   2.886   4.134
    1PA    C11215424   0.567   2.831   4.138
    1PA    H12R15425   0.568   2.801   4.243
    1PA    H12S15426   0.470   2.878   4.119
    1PA    C11115427   0.580   2.713   4.041
    1PA    H11R15428   0.686   2.689   4.047
    1PA    H11S15429   0.524   2.626   4.078
    1PA    C11015430   0.541   2.746   3.897
    1PA    H10R15431   0.441   2.789   3.897
    1PA    H10S15432   0.612   2.819   3.857
    1PA     C1915433   0.546   2.623   3.805
    1PA     H9R15434   0.648   2.592   3.778
    1PA     H9S15435   0.500   2.537   3.854
    1PA     C1815436   0.465   2.648   3.677
    1PA     H8R15437   0.364   2.656   3.717
    1PA     H8S15438   0.506   2.740   3.634
    1PA     C1715439   0.485   2.532   3.578
    1PA     H7R15440   0.593   2.529   3.564
    1PA     H7S15441   0.444   2.441   3.622
    1PA     C1615442   0.426   2.543   3.436
    1PA     H6R15443   0.319   2.564   3.438
    1PA     H6S15444   0.479   2.627   3.390
    1PA     C1515445   0.459   2.414   3.361
    1PA     H5R15446   0.566   2.394   3.353
    1PA     H5S15447   0.404   2.333   3.410
    1PA     C1415448   0.406   2.418   3.217
    1PA     H4R15449   0.300   2.431   3.239
    1PA     H4S15450   0.449   2.490   3.147
    1PA     C1315451   0.430   2.281   3.152
    1PA     H3R15452   0.527   2.242   3.183
    1PA     H3S15453   0.360   2.205   3.187
    1PA     C1215454   0.445   2.288   2.999
    1PA     H2R15455   0.509   2.373   2.976
    1PA     H2S15456   0.490   2.196   2.960
    2PC     C1115457   0.312   2.301   2.930
    2PC     O1215458   0.215   2.354   2.979
    2PC     O1115459   0.319   2.246   2.807
    2PC      C115460   0.222   2.281   2.707
    2PC      HR15461   0.121   2.248   2.732
    2PC      HS15462   0.219   2.390   2.712
    2PC      C215463   0.271   2.231   2.571
    2PC      HX15464   0.375   2.260   2.551
    2PC      C315465   0.196   2.289   2.450
    2PC      HA15466   0.091   2.269   2.472
    2PC      HB15467   0.208   2.397   2.440
    2PC     O3115468   0.242   2.230   2.327
    2PC     P3115469   0.169   2.290   2.198
    2PC     O3215470   0.085   2.160   2.160
    2PC     C3115471   0.095   2.114   2.024
    2PC     H1A15472   0.090   2.206   1.965
    2PC     H1B15473   0.190   2.070   1.993
    2PC     C3215474  -0.017   2.018   1.981
    2PC     H2A15475  -0.002   1.924   2.035
    2PC     H2B15476  -0.111   2.065   2.012
    2PC     N3115477  -0.033   1.986   1.836
    2PC     C3315478  -0.042   2.104   1.743
    2PC     H3A15479  -0.063   2.075   1.640
    2PC     H3B15480  -0.130   2.156   1.780
    2PC     H3C15481   0.038   2.177   1.747
    2PC     C3415482   0.089   1.905   1.805
    2PC     H4A15483   0.181   1.960   1.822
    2PC     H4B15484   0.089   1.813   1.863
    2PC     H4C15485   0.079   1.879   1.699
    2PC     C3515486  -0.156   1.906   1.804
    2PC     H5A15487  -0.149   1.885   1.698
    2PC     H5B15488  -0.246   1.966   1.817
    2PC     H5C15489  -0.164   1.813   1.861
    2PC     O3315490   0.092   2.414   2.228
    2PC     O3415491   0.267   2.333   2.096
    2PC     O2115492   0.246   2.090   2.557
    2PC     C2115493   0.344   1.999   2.543
    2PC     O2215494   0.458   2.029   2.516
    3OL     C1215495   0.290   1.858   2.537
    3OL     H2R15496   0.368   1.782   2.545
    3OL     H2S15497   0.244   1.854   2.438
    3OL     C1315498   0.201   1.830   2.659
    3OL     H3R15499   0.116   1.899   2.658
    3OL     H3S15500   0.266   1.852   2.744
    3OL     C1415501   0.141   1.689   2.651
    3OL     H4R15502   0.217   1.617   2.681
    3OL     H4S15503   0.103   1.667   2.551
    3OL     C1515504   0.040   1.660   2.763
    3OL     H5R15505  -0.051   1.704   2.723
    3OL     H5S15506   0.072   1.700   2.860
    3OL     C1615507  -0.002   1.513   2.779
    3OL     H6R15508   0.081   1.443   2.792
    3OL     H6S15509  -0.064   1.485   2.693
    3OL     C1715510  -0.095   1.505   2.901
    3OL     H7R15511  -0.145   1.409   2.885
    3OL     H7S15512  -0.171   1.583   2.901
    3OL     C1815513  -0.015   1.495   3.032
    3OL     H8R15514   0.023   1.594   3.058
    3OL     H8S15515   0.066   1.423   3.014
    3OL     C1915516  -0.097   1.439   3.145
    3OL     H9R15517  -0.160   1.356   3.114
    3OL    C11015518  -0.088   1.470   3.273
    3OL    H10R15519  -0.140   1.414   3.350
    3OL    C11115520  -0.014   1.591   3.324
    3OL    H11R15521  -0.088   1.650   3.378
    3OL    H11S15522   0.025   1.657   3.247
    3OL    C11215523   0.090   1.545   3.428
    3OL    H12R15524   0.157   1.478   3.373
    3OL    H12S15525   0.053   1.483   3.509
    3OL    C11315526   0.183   1.649   3.492
    3OL    H13R15527   0.218   1.717   3.414
    3OL    H13S15528   0.278   1.603   3.521
    3OL    C11415529   0.101   1.706   3.609
    3OL    H14R15530   0.095   1.622   3.679
    3OL    H14S15531   0.005   1.736   3.568
    3OL    C11515532   0.170   1.830   3.669
    3OL    H15R15533   0.270   1.803   3.701
    3OL    H15S15534   0.116   1.863   3.758
    3OL    C11615535   0.172   1.942   3.564
    3OL    H16R15536   0.066   1.959   3.544
    3OL    H16S15537   0.215   1.913   3.469
    3OL    C11715538   0.241   2.069   3.617
    3OL    H17R15539   0.242   2.070   3.726
    3OL    H17S15540   0.194   2.153   3.565
    3OL    C11815541   0.388   2.088   3.577
    3OL    H18R15542   0.466   2.043   3.639
    3OL    H18S15543   0.402   2.196   3.588
    3OL    H18T15544   0.390   2.081   3.468
    1PA    C11615545   6.534   6.512   4.405
    1PA    H16R15546   6.492   6.613   4.405
    1PA    H16S15547   6.597   6.493   4.492
    1PA    H16T15548   6.464   6.428   4.401
    1PA    C11515549   6.617   6.506   4.276
    1PA    H15R15550   6.692   6.585   4.271
    1PA    H15S15551   6.675   6.415   4.288
    1PA    C11415552   6.531   6.504   4.148
    1PA    H14R15553   6.452   6.580   4.153
    1PA    H14S15554   6.605   6.542   4.077
    1PA    C11315555   6.478   6.366   4.107
    1PA    H13R15556   6.438   6.315   4.194
    1PA    H13S15557   6.396   6.376   4.036
    1PA    C11215558   6.593   6.295   4.034
    1PA    H12R15559   6.621   6.364   3.954
    1PA    H12S15560   6.678   6.296   4.103
    1PA    C11115561   6.555   6.150   3.999
    1PA    H11R15562   6.640   6.091   3.966
    1PA    H11S15563   6.525   6.104   4.093
    1PA    C11015564   6.447   6.132   3.892
    1PA    H10R15565   6.356   6.176   3.935
    1PA    H10S15566   6.469   6.196   3.807
    1PA     C1915567   6.415   5.988   3.851
    1PA     H9R15568   6.506   5.938   3.817
    1PA     H9S15569   6.380   5.936   3.941
    1PA     C1815570   6.307   5.994   3.742
    1PA     H8R15571   6.219   6.052   3.774
    1PA     H8S15572   6.349   6.049   3.658
    1PA     C1715573   6.259   5.860   3.686
    1PA     H7R15574   6.347   5.806   3.650
    1PA     H7S15575   6.235   5.798   3.773
    1PA     C1615576   6.150   5.867   3.578
    1PA     H6R15577   6.056   5.901   3.624
    1PA     H6S15578   6.182   5.931   3.496
    1PA     C1515579   6.112   5.728   3.523
    1PA     H5R15580   6.196   5.675   3.478
    1PA     H5S15581   6.079   5.668   3.607
    1PA     C1415582   6.001   5.738   3.418
    1PA     H4R15583   5.919   5.798   3.457
    1PA     H4S15584   6.041   5.798   3.336
    1PA     C1315585   5.955   5.600   3.368
    1PA     H3R15586   5.917   5.534   3.447
    1PA     H3S15587   5.872   5.614   3.299
    1PA     C1215588   6.071   5.527   3.299
    1PA     H2R15589   6.126   5.598   3.236
    1PA     H2S15590   6.136   5.490   3.378
    2PC     C1115591   6.030   5.410   3.214
    2PC     O1215592   5.948   5.329   3.253
    2PC     O1115593   6.098   5.392   3.100
    2PC      C115594   6.045   5.296   3.005
    2PC      HR15595   6.116   5.287   2.923
    2PC      HS15596   6.028   5.197   3.048
    2PC      C215597   5.912   5.333   2.938
    2PC      HX15598   5.825   5.344   3.003
    2PC      C315599   5.866   5.226   2.839
    2PC      HA15600   5.863   5.130   2.892
    2PC      HB15601   5.768   5.247   2.794
    2PC     O3115602   5.970   5.213   2.740
    2PC     P3115603   5.944   5.143   2.599
    2PC     O3215604   6.004   4.997   2.629
    2PC     C3115605   5.916   4.886   2.606
    2PC     H1A15606   5.883   4.898   2.503
    2PC     H1B15607   5.967   4.791   2.626
    2PC     C3215608   5.793   4.884   2.697
    2PC     H2A15609   5.827   4.866   2.800
    2PC     H2B15610   5.740   4.979   2.703
    2PC     N3115611   5.693   4.779   2.658
    2PC     C3315612   5.589   4.782   2.766
    2PC     H3A15613   5.543   4.881   2.757
    2PC     H3B15614   5.524   4.701   2.733
    2PC     H3C15615   5.625   4.763   2.867
    2PC     C3415616   5.632   4.821   2.528
    2PC     H4A15617   5.550   4.753   2.504
    2PC     H4B15618   5.590   4.920   2.543
    2PC     H4C15619   5.709   4.826   2.450
    2PC     C3515620   5.749   4.640   2.651
    2PC     H5A15621   5.833   4.629   2.582
    2PC     H5B15622   5.666   4.573   2.627
    2PC     H5C15623   5.784   4.624   2.753
    2PC     O3315624   5.801   5.149   2.559
    2PC     O3415625   6.017   5.225   2.499
    2PC     O2115626   5.928   5.448   2.852
    2PC     C2115627   5.929   5.569   2.909
    2PC     O2215628   5.902   5.590   3.025
    3OL     C1215629   5.982   5.675   2.815
    3OL     H2R15630   5.900   5.683   2.743
    3OL     H2S15631   6.074   5.643   2.765
    3OL     C1315632   6.024   5.807   2.881
    3OL     H3R15633   6.097   5.849   2.812
    3OL     H3S15634   6.080   5.781   2.971
    3OL     C1415635   5.912   5.908   2.911
    3OL     H4R15636   5.852   5.853   2.983
    3OL     H4S15637   5.849   5.929   2.824
    3OL     C1515638   5.968   6.037   2.973
    3OL     H5R15639   6.053   6.068   2.911
    3OL     H5S15640   6.008   6.011   3.071
    3OL     C1615641   5.858   6.143   2.989
    3OL     H6R15642   5.778   6.104   3.052
    3OL     H6S15643   5.815   6.175   2.894
    3OL     C1715644   5.931   6.268   3.041
    3OL     H7R15645   6.012   6.292   2.971
    3OL     H7S15646   5.983   6.238   3.132
    3OL     C1815647   5.840   6.390   3.061
    3OL     H8R15648   5.757   6.366   3.128
    3OL     H8S15649   5.787   6.412   2.968
    3OL     C1915650   5.921   6.506   3.111
    3OL     H9R15651   5.971   6.487   3.206
    3OL    C11015652   5.957   6.613   3.041
    3OL    H10R15653   6.044   6.665   3.079
    3OL    C11115654   5.929   6.641   2.896
    3OL    H11R15655   5.884   6.740   2.882
    3OL    H11S15656   5.864   6.564   2.854
    3OL    C11215657   6.056   6.651   2.810
    3OL    H12R15658   6.125   6.724   2.853
    3OL    H12S15659   6.028   6.694   2.713
    3OL    C11315660   6.124   6.515   2.792
    3OL    H13R15661   6.143   6.479   2.894
    3OL    H13S15662   6.219   6.521   2.738
    3OL    C11415663   6.030   6.419   2.719
    3OL    H14R15664   5.989   6.473   2.632
    3OL    H14S15665   5.939   6.400   2.776
    3OL    C11515666   6.107   6.290   2.688
    3OL    H15R15667   6.130   6.243   2.784
    3OL    H15S15668   6.202   6.318   2.641
    3OL    C11615669   6.028   6.198   2.594
    3OL    H16R15670   6.009   6.254   2.502
    3OL    H16S15671   5.929   6.174   2.633
    3OL    C11715672   6.122   6.081   2.564
    3OL    H17R15673   6.130   6.011   2.648
    3OL    H17S15674   6.225   6.113   2.549
    3OL    C11815675   6.066   6.001   2.446
    3OL    H18R15676   6.116   5.904   2.443
    3OL    H18S15677   6.083   6.063   2.357
    3OL    H18T15678   5.960   5.988   2.467
    1PA    C11615679   2.237   0.943   4.210
    1PA    H16R15680   2.260   1.033   4.267
    1PA    H16S15681   2.280   0.856   4.261
    1PA    H16T15682   2.129   0.932   4.202
    1PA    C11515683   2.295   0.946   4.068
    1PA    H15R15684   2.265   1.042   4.027
    1PA    H15S15685   2.404   0.949   4.079
    1PA    C11415686   2.240   0.833   3.980
    1PA    H14R15687   2.255   0.739   4.032
    1PA    H14S15688   2.132   0.847   3.971
    1PA    C11315689   2.299   0.850   3.839
    1PA    H13R15690   2.408   0.846   3.837
    1PA    H13S15691   2.269   0.756   3.791
    1PA    C11215692   2.239   0.966   3.759
    1PA    H12R15693   2.133   0.957   3.734
    1PA    H12S15694   2.232   1.063   3.810
    1PA    C11115695   2.318   0.995   3.632
    1PA    H11R15696   2.301   1.096   3.593
    1PA    H11S15697   2.425   1.007   3.654
    1PA    C11015698   2.301   0.893   3.518
    1PA    H10R15699   2.358   0.802   3.538
    1PA    H10S15700   2.196   0.865   3.508
    1PA     C1915701   2.370   0.942   3.390
    1PA     H9R15702   2.477   0.955   3.411
    1PA     H9S15703   2.367   0.871   3.308
    1PA     C1815704   2.301   1.065   3.330
    1PA     H8R15705   2.194   1.056   3.351
    1PA     H8S15706   2.338   1.151   3.387
    1PA     C1715707   2.329   1.092   3.181
    1PA     H7R15708   2.304   1.006   3.118
    1PA     H7S15709   2.273   1.177   3.141
    1PA     C1615710   2.479   1.114   3.159
    1PA     H6R15711   2.509   1.197   3.223
    1PA     H6S15712   2.528   1.026   3.201
    1PA     C1515713   2.514   1.136   3.011
    1PA     H5R15714   2.617   1.172   3.000
    1PA     H5S15715   2.514   1.034   2.972
    1PA     C1415716   2.412   1.216   2.929
    1PA     H4R15717   2.329   1.159   2.886
    1PA     H4S15718   2.380   1.298   2.992
    1PA     C1315719   2.479   1.273   2.803
    1PA     H3R15720   2.547   1.345   2.849
    1PA     H3S15721   2.532   1.199   2.743
    1PA     C1215722   2.378   1.344   2.712
    1PA     H2R15723   2.304   1.268   2.684
    1PA     H2S15724   2.332   1.425   2.769
    2PC     C1115725   2.431   1.384   2.576
    2PC     O1215726   2.368   1.458   2.503
    2PC     O1115727   2.549   1.329   2.542
    2PC      C115728   2.616   1.397   2.434
    2PC      HR15729   2.705   1.335   2.418
    2PC      HS15730   2.551   1.400   2.347
    2PC      C215731   2.661   1.539   2.468
    2PC      HX15732   2.588   1.603   2.518
    2PC      C315733   2.724   1.613   2.349
    2PC      HA15734   2.646   1.649   2.282
    2PC      HB15735   2.785   1.697   2.386
    2PC     O3115736   2.800   1.520   2.270
    2PC     P3115737   2.860   1.578   2.134
    2PC     O3215738   2.722   1.592   2.054
    2PC     C3115739   2.718   1.575   1.911
    2PC     H1A15740   2.788   1.643   1.863
    2PC     H1B15741   2.749   1.472   1.887
    2PC     C3215742   2.573   1.603   1.871
    2PC     H2A15743   2.497   1.538   1.915
    2PC     H2B15744   2.555   1.702   1.914
    2PC     N3115745   2.534   1.604   1.726
    2PC     C3315746   2.535   1.461   1.679
    2PC     H3A15747   2.624   1.408   1.713
    2PC     H3B15748   2.449   1.409   1.722
    2PC     H3C15749   2.524   1.455   1.571
    2PC     C3415750   2.393   1.652   1.714
    2PC     H4A15751   2.323   1.585   1.763
    2PC     H4B15752   2.391   1.747   1.768
    2PC     H4C15753   2.366   1.665   1.609
    2PC     C3515754   2.630   1.685   1.645
    2PC     H5A15755   2.722   1.625   1.652
    2PC     H5B15756   2.643   1.781   1.694
    2PC     H5C15757   2.589   1.704   1.546
    2PC     O3315758   2.950   1.696   2.138
    2PC     O3415759   2.950   1.477   2.072
    2PC     O2115760   2.764   1.522   2.566
    2PC     C2115761   2.728   1.513   2.695
    2PC     O2215762   2.616   1.544   2.731
    3OL     C1215763   2.843   1.455   2.775
    3OL     H2R15764   2.934   1.513   2.759
    3OL     H2S15765   2.862   1.352   2.745
    3OL     C1315766   2.824   1.452   2.927
    3OL     H3R15767   2.752   1.374   2.953
    3OL     H3S15768   2.778   1.546   2.959
    3OL     C1415769   2.954   1.425   3.004
    3OL     H4R15770   3.012   1.516   2.983
    3OL     H4S15771   3.015   1.341   2.970
    3OL     C1515772   2.931   1.419   3.155
    3OL     H5R15773   2.894   1.517   3.186
    3OL     H5S15774   3.030   1.409   3.200
    3OL     C1615775   2.838   1.304   3.198
    3OL     H6R15776   2.862   1.221   3.132
    3OL     H6S15777   2.736   1.328   3.168
    3OL     C1715778   2.853   1.274   3.348
    3OL     H7R15779   2.814   1.359   3.406
    3OL     H7S15780   2.956   1.257   3.380
    3OL     C1815781   2.784   1.145   3.395
    3OL     H8R15782   2.700   1.129   3.328
    3OL     H8S15783   2.749   1.162   3.497
    3OL     C1915784   2.879   1.030   3.373
    3OL     H9R15785   2.952   1.031   3.293
    3OL    C11015786   2.901   0.930   3.458
    3OL    H10R15787   2.975   0.853   3.439
    3OL    C11115788   2.821   0.918   3.586
    3OL    H11R15789   2.758   1.007   3.594
    3OL    H11S15790   2.884   0.908   3.675
    3OL    C11215791   2.729   0.796   3.582
    3OL    H12R15792   2.796   0.710   3.580
    3OL    H12S15793   2.672   0.810   3.490
    3OL    C11315794   2.635   0.770   3.701
    3OL    H13R15795   2.538   0.813   3.673
    3OL    H13S15796   2.658   0.833   3.787
    3OL    C11415797   2.603   0.624   3.736
    3OL    H14R15798   2.612   0.559   3.650
    3OL    H14S15799   2.499   0.624   3.771
    3OL    C11515800   2.688   0.573   3.854
    3OL    H15R15801   2.679   0.639   3.940
    3OL    H15S15802   2.794   0.565   3.831
    3OL    C11615803   2.636   0.433   3.890
    3OL    H16R15804   2.654   0.360   3.810
    3OL    H16S15805   2.532   0.451   3.918
    3OL    C11715806   2.713   0.378   4.011
    3OL    H17R15807   2.641   0.328   4.077
    3OL    H17S15808   2.751   0.464   4.068
    3OL    C11815809   2.824   0.281   3.967
    3OL    H18R15810   2.889   0.248   4.048
    3OL    H18S15811   2.887   0.318   3.886
    3OL    H18T15812   2.768   0.194   3.932
    1PA    C11615813   4.383   5.745   4.294
    1PA    H16R15814   4.346   5.654   4.341
    1PA    H16S15815   4.368   5.755   4.187
    1PA    H16T15816   4.331   5.824   4.350
    1PA    C11515817   4.532   5.763   4.326
    1PA    H15R15818   4.545   5.770   4.434
    1PA    H15S15819   4.583   5.677   4.283
    1PA    C11415820   4.571   5.902   4.272
    1PA    H14R15821   4.482   5.963   4.257
    1PA    H14S15822   4.650   5.946   4.333
    1PA    C11315823   4.621   5.904   4.127
    1PA    H13R15824   4.725   5.872   4.132
    1PA    H13S15825   4.558   5.828   4.079
    1PA    C11215826   4.618   6.039   4.052
    1PA    H12R15827   4.523   6.094   4.053
    1PA    H12S15828   4.697   6.093   4.105
    1PA    C11115829   4.661   6.024   3.906
    1PA    H11R15830   4.701   6.119   3.871
    1PA    H11S15831   4.736   5.945   3.902
    1PA    C11015832   4.541   5.980   3.821
    1PA    H10R15833   4.501   5.890   3.868
    1PA    H10S15834   4.463   6.056   3.825
    1PA     C1915835   4.586   5.971   3.674
    1PA     H9R15836   4.630   6.067   3.646
    1PA     H9S15837   4.668   5.898   3.675
    1PA     C1815838   4.480   5.916   3.578
    1PA     H8R15839   4.458   5.810   3.592
    1PA     H8S15840   4.385   5.966   3.600
    1PA     C1715841   4.524   5.945   3.434
    1PA     H7R15842   4.442   5.995   3.384
    1PA     H7S15843   4.618   6.001   3.442
    1PA     C1615844   4.555   5.815   3.357
    1PA     H6R15845   4.620   5.763   3.427
    1PA     H6S15846   4.455   5.770   3.359
    1PA     C1515847   4.609   5.822   3.213
    1PA     H5R15848   4.716   5.839   3.208
    1PA     H5S15849   4.585   5.724   3.171
    1PA     C1415850   4.526   5.912   3.120
    1PA     H4R15851   4.420   5.892   3.133
    1PA     H4S15852   4.544   6.014   3.153
    1PA     C1315853   4.569   5.909   2.973
    1PA     H3R15854   4.673   5.942   2.968
    1PA     H3S15855   4.553   5.808   2.933
    1PA     C1215856   4.477   5.999   2.890
    1PA     H2R15857   4.370   5.979   2.906
    1PA     H2S15858   4.504   6.101   2.920
    2PC     C1115859   4.505   6.002   2.742
    2PC     O1215860   4.558   5.912   2.679
    2PC     O1115861   4.459   6.116   2.688
    2PC      C115862   4.453   6.139   2.546
    2PC      HR15863   4.458   6.248   2.537
    2PC      HS15864   4.549   6.103   2.509
    2PC      C215865   4.322   6.080   2.493
    2PC      HX15866   4.303   5.980   2.533
    2PC      C315867   4.315   6.086   2.340
    2PC      HA15868   4.395   6.021   2.304
    2PC      HB15869   4.215   6.062   2.302
    2PC     O3115870   4.350   6.218   2.294
    2PC     P3115871   4.395   6.234   2.141
    2PC     O3215872   4.360   6.387   2.112
    2PC     C3115873   4.241   6.420   2.039
    2PC     H1A15874   4.261   6.407   1.932
    2PC     H1B15875   4.163   6.347   2.061
    2PC     C3215876   4.194   6.558   2.088
    2PC     H2A15877   4.087   6.567   2.069
    2PC     H2B15878   4.205   6.568   2.196
    2PC     N3115879   4.262   6.677   2.027
    2PC     C3315880   4.243   6.683   1.879
    2PC     H3A15881   4.259   6.786   1.845
    2PC     H3B15882   4.315   6.617   1.829
    2PC     H3C15883   4.140   6.655   1.855
    2PC     C3415884   4.219   6.802   2.097
    2PC     H4A15885   4.252   6.801   2.201
    2PC     H4B15886   4.272   6.886   2.053
    2PC     H4C15887   4.111   6.805   2.082
    2PC     C3515888   4.409   6.669   2.054
    2PC     H5A15889   4.458   6.745   1.994
    2PC     H5B15890   4.454   6.571   2.034
    2PC     H5C15891   4.433   6.697   2.157
    2PC     O3315892   4.533   6.190   2.111
    2PC     O3415893   4.310   6.150   2.054
    2PC     O2115894   4.220   6.158   2.558
    2PC     C2115895   4.093   6.114   2.552
    2PC     O2215896   4.060   6.012   2.495
    3OL     C1215897   3.990   6.193   2.629
    3OL     H2R15898   3.916   6.222   2.555
    3OL     H2S15899   4.037   6.287   2.662
    3OL     C1315900   3.940   6.111   2.748
    3OL     H3R15901   3.871   6.030   2.723
    3OL     H3S15902   3.886   6.192   2.797
    3OL     C1415903   4.053   6.062   2.840
    3OL     H4R15904   4.129   6.140   2.852
    3OL     H4S15905   4.104   5.971   2.805
    3OL     C1515906   3.997   6.037   2.980
    3OL     H5R15907   3.907   5.976   2.968
    3OL     H5S15908   3.960   6.128   3.028
    3OL     C1615909   4.107   5.988   3.075
    3OL     H6R15910   4.199   6.046   3.065
    3OL     H6S15911   4.128   5.884   3.049
    3OL     C1715912   4.061   6.002   3.221
    3OL     H7R15913   3.985   5.924   3.231
    3OL     H7S15914   4.002   6.092   3.239
    3OL     C1815915   4.180   5.981   3.316
    3OL     H8R15916   4.257   6.054   3.292
    3OL     H8S15917   4.210   5.879   3.291
    3OL     C1915918   4.133   5.985   3.459
    3OL     H9R15919   4.086   5.897   3.503
    3OL    C11015920   4.158   6.087   3.541
    3OL    H10R15921   4.115   6.076   3.640
    3OL    C11115922   4.215   6.222   3.509
    3OL    H11R15923   4.218   6.227   3.400
    3OL    H11S15924   4.320   6.234   3.539
    3OL    C11215925   4.131   6.329   3.579
    3OL    H12R15926   4.123   6.302   3.685
    3OL    H12S15927   4.029   6.338   3.540
    3OL    C11315928   4.199   6.466   3.566
    3OL    H13R15929   4.303   6.451   3.597
    3OL    H13S15930   4.147   6.535   3.633
    3OL    C11415931   4.194   6.523   3.424
    3OL    H14R15932   4.096   6.544   3.381
    3OL    H14S15933   4.230   6.445   3.356
    3OL    C11515934   4.276   6.652   3.413
    3OL    H15R15935   4.379   6.640   3.446
    3OL    H15S15936   4.229   6.723   3.480
    3OL    C11615937   4.281   6.701   3.267
    3OL    H16R15938   4.177   6.707   3.234
    3OL    H16S15939   4.332   6.622   3.212
    3OL    C11715940   4.359   6.832   3.248
    3OL    H17R15941   4.446   6.825   3.314
    3OL    H17S15942   4.297   6.917   3.280
    3OL    C11815943   4.414   6.849   3.106
    3OL    H18R15944   4.465   6.945   3.091
    3OL    H18S15945   4.327   6.844   3.040
    3OL    H18T15946   4.471   6.757   3.093
    1PA    C11615947   5.996   0.893   3.746
    1PA    H16R15948   6.090   0.933   3.706
    1PA    H16S15949   5.956   0.807   3.692
    1PA    H16T15950   6.013   0.852   3.846
    1PA    C11515951   5.910   1.017   3.774
    1PA    H15R15952   5.965   1.087   3.838
    1PA    H15S15953   5.902   1.072   3.681
    1PA    C11415954   5.776   0.979   3.839
    1PA    H14R15955   5.718   0.911   3.777
    1PA    H14S15956   5.803   0.920   3.928
    1PA    C11315957   5.691   1.103   3.870
    1PA    H13R15958   5.598   1.083   3.924
    1PA    H13S15959   5.744   1.167   3.941
    1PA    C11215960   5.651   1.185   3.746
    1PA    H12R15961   5.741   1.218   3.693
    1PA    H12S15962   5.589   1.123   3.680
    1PA    C11115963   5.575   1.315   3.774
    1PA    H11R15964   5.521   1.300   3.867
    1PA    H11S15965   5.643   1.398   3.790
    1PA    C11015966   5.478   1.358   3.663
    1PA    H10R15967   5.408   1.280   3.632
    1PA    H10S15968   5.416   1.438   3.703
    1PA     C1915969   5.542   1.415   3.536
    1PA     H9R15970   5.595   1.509   3.555
    1PA     H9S15971   5.613   1.347   3.489
    1PA     C1815972   5.430   1.457   3.439
    1PA     H8R15973   5.361   1.374   3.423
    1PA     H8S15974   5.361   1.532   3.479
    1PA     C1715975   5.493   1.496   3.305
    1PA     H7R15976   5.544   1.592   3.304
    1PA     H7S15977   5.565   1.417   3.284
    1PA     C1615978   5.376   1.503   3.205
    1PA     H6R15979   5.326   1.409   3.181
    1PA     H6S15980   5.306   1.578   3.244
    1PA     C1515981   5.430   1.567   3.077
    1PA     H5R15982   5.479   1.660   3.108
    1PA     H5S15983   5.506   1.499   3.038
    1PA     C1415984   5.326   1.604   2.971
    1PA     H4R15985   5.268   1.516   2.941
    1PA     H4S15986   5.246   1.661   3.019
    1PA     C1315987   5.386   1.666   2.844
    1PA     H3R15988   5.295   1.684   2.786
    1PA     H3S15989   5.423   1.767   2.866
    1PA     C1215990   5.486   1.582   2.764
    1PA     H2R15991   5.577   1.579   2.823
    1PA     H2S15992   5.455   1.478   2.748
    2PC     C1115993   5.517   1.642   2.629
    2PC     O1215994   5.465   1.739   2.577
    2PC     O1115995   5.623   1.575   2.584
    2PC      C115996   5.690   1.608   2.460
    2PC      HR15997   5.762   1.531   2.430
    2PC      HS15998   5.613   1.618   2.383
    2PC      C215999   5.763   1.742   2.473
    2PC      HX16000   5.699   1.808   2.530
    2PC      C316001   5.810   1.804   2.340
    2PC      HA16002   5.906   1.756   2.320
    2PC      HB16003   5.739   1.775   2.262
    2PC     O3116004   5.820   1.946   2.360
    2PC     P3116005   5.862   2.043   2.239
    2PC     O3216006   5.725   2.079   2.165
    2PC     C3116007   5.708   2.002   2.045
    2PC     H1A16008   5.781   2.036   1.971
    2PC     H1B16009   5.709   1.896   2.070
    2PC     C3216010   5.569   2.025   1.984
    2PC     H2A16011   5.548   1.943   1.915
    2PC     H2B16012   5.496   2.006   2.062
    2PC     N3116013   5.544   2.156   1.916
    2PC     C3316014   5.645   2.189   1.810
    2PC     H3A16015   5.739   2.217   1.858
    2PC     H3B16016   5.639   2.103   1.743
    2PC     H3C16017   5.609   2.283   1.766
    2PC     C3416018   5.411   2.133   1.851
    2PC     H4A16019   5.382   2.223   1.796
    2PC     H4B16020   5.408   2.056   1.774
    2PC     H4C16021   5.332   2.115   1.924
    2PC     C3516022   5.548   2.271   2.012
    2PC     H5A16023   5.535   2.363   1.954
    2PC     H5B16024   5.646   2.274   2.059
    2PC     H5C16025   5.466   2.260   2.083
    2PC     O3316026   5.911   2.175   2.284
    2PC     O3416027   5.970   1.990   2.153
    2PC     O2116028   5.882   1.715   2.550
    2PC     C2116029   5.865   1.715   2.683
    2PC     O2216030   5.768   1.757   2.742
    3OL     C1216031   5.986   1.672   2.763
    3OL     H2R16032   5.967   1.696   2.868
    3OL     H2S16033   6.074   1.732   2.738
    3OL     C1316034   6.013   1.522   2.749
    3OL     H3R16035   6.118   1.508   2.778
    3OL     H3S16036   6.009   1.491   2.644
    3OL     C1416037   5.913   1.445   2.836
    3OL     H4R16038   5.816   1.481   2.802
    3OL     H4S16039   5.932   1.466   2.941
    3OL     C1516040   5.923   1.293   2.817
    3OL     H5R16041   5.917   1.257   2.714
    3OL     H5S16042   5.835   1.249   2.864
    3OL     C1616043   6.055   1.238   2.873
    3OL     H6R16044   6.073   1.284   2.970
    3OL     H6S16045   6.136   1.262   2.804
    3OL     C1716046   6.054   1.087   2.900
    3OL     H7R16047   6.006   1.043   2.812
    3OL     H7S16048   6.000   1.063   2.993
    3OL     C1816049   6.193   1.025   2.920
    3OL     H8R16050   6.239   1.034   2.821
    3OL     H8S16051   6.171   0.918   2.927
    3OL     C1916052   6.274   1.096   3.025
    3OL     H9R16053   6.326   1.186   2.993
    3OL    C11016054   6.303   1.040   3.141
    3OL    H10R16055   6.377   1.091   3.203
    3OL    C11116056   6.237   0.928   3.217
    3OL    H11R16057   6.278   0.838   3.170
    3OL    H11S16058   6.129   0.938   3.202
    3OL    C11216059   6.272   0.932   3.366
    3OL    H12R16060   6.237   1.029   3.402
    3OL    H12S16061   6.381   0.927   3.365
    3OL    C11316062   6.215   0.814   3.445
    3OL    H13R16063   6.107   0.827   3.444
    3OL    H13S16064   6.243   0.820   3.551
    3OL    C11416065   6.246   0.674   3.390
    3OL    H14R16066   6.350   0.648   3.412
    3OL    H14S16067   6.227   0.672   3.282
    3OL    C11516068   6.157   0.564   3.450
    3OL    H15R16069   6.058   0.575   3.406
    3OL    H15S16070   6.143   0.576   3.558
    3OL    C11616071   6.208   0.420   3.435
    3OL    H16R16072   6.304   0.406   3.485
    3OL    H16S16073   6.219   0.401   3.328
    3OL    C11716074   6.106   0.312   3.475
    3OL    H17R16075   6.050   0.345   3.562
    3OL    H17S16076   6.153   0.227   3.525
    3OL    C11816077   6.013   0.273   3.360
    3OL    H18R16078   6.079   0.239   3.280
    3OL    H18S16079   5.952   0.360   3.334
    3OL    H18T16080   5.952   0.187   3.392
    1PA    C11616081   2.799   2.665   4.187
    1PA    H16R16082   2.855   2.650   4.094
    1PA    H16S16083   2.867   2.634   4.266
    1PA    H16T16084   2.783   2.769   4.215
    1PA    C11516085   2.671   2.580   4.195
    1PA    H15R16086   2.683   2.488   4.137
    1PA    H15S16087   2.641   2.551   4.296
    1PA    C11416088   2.550   2.654   4.137
    1PA    H14R16089   2.482   2.572   4.115
    1PA    H14S16090   2.508   2.728   4.205
    1PA    C11316091   2.588   2.725   4.006
    1PA    H13R16092   2.675   2.789   4.020
    1PA    H13S16093   2.603   2.654   3.924
    1PA    C11216094   2.474   2.814   3.953
    1PA    H12R16095   2.383   2.754   3.950
    1PA    H12S16096   2.444   2.886   4.030
    1PA    C11116097   2.499   2.885   3.820
    1PA    H11R16098   2.599   2.928   3.827
    1PA    H11S16099   2.502   2.815   3.736
    1PA    C11016100   2.394   2.991   3.785
    1PA    H10R16101   2.294   2.947   3.790
    1PA    H10S16102   2.398   3.076   3.854
    1PA     C1916103   2.431   3.029   3.642
    1PA     H9R16104   2.537   3.052   3.625
    1PA     H9S16105   2.405   2.946   3.576
    1PA     C1816106   2.348   3.152   3.602
    1PA     H8R16107   2.244   3.136   3.631
    1PA     H8S16108   2.396   3.239   3.646
    1PA     C1716109   2.347   3.159   3.448
    1PA     H7R16110   2.446   3.161   3.403
    1PA     H7S16111   2.287   3.076   3.411
    1PA     C1616112   2.281   3.296   3.422
    1PA     H6R16113   2.184   3.298   3.472
    1PA     H6S16114   2.348   3.374   3.457
    1PA     C1516115   2.264   3.317   3.271
    1PA     H5R16116   2.207   3.233   3.229
    1PA     H5S16117   2.216   3.413   3.250
    1PA     C1416118   2.400   3.315   3.200
    1PA     H4R16119   2.458   3.384   3.262
    1PA     H4S16120   2.455   3.221   3.190
    1PA     C1316121   2.370   3.372   3.061
    1PA     H3R16122   2.304   3.307   3.003
    1PA     H3S16123   2.322   3.469   3.078
    1PA     C1216124   2.503   3.377   2.986
    1PA     H2R16125   2.495   3.450   2.904
    1PA     H2S16126   2.586   3.407   3.050
    2PC     C1116127   2.548   3.247   2.924
    2PC     O1216128   2.510   3.135   2.952
    2PC     O1116129   2.645   3.277   2.836
    2PC      C116130   2.682   3.173   2.744
    2PC      HR16131   2.693   3.076   2.794
    2PC      HS16132   2.597   3.179   2.677
    2PC      C216133   2.815   3.218   2.682
    2PC      HX16134   2.827   3.326   2.677
    2PC      C316135   2.840   3.171   2.538
    2PC      HA16136   2.762   3.207   2.470
    2PC      HB16137   2.934   3.205   2.495
    2PC     O3116138   2.833   3.027   2.533
    2PC     P3116139   2.862   2.964   2.389
    2PC     O3216140   2.760   2.840   2.382
    2PC     C3116141   2.790   2.734   2.475
    2PC     H1A16142   2.893   2.697   2.465
    2PC     H1B16143   2.770   2.768   2.577
    2PC     C3216144   2.690   2.623   2.442
    2PC     H2A16145   2.697   2.605   2.335
    2PC     H2B16146   2.725   2.539   2.503
    2PC     N3116147   2.545   2.641   2.478
    2PC     C3316148   2.520   2.670   2.623
    2PC     H3A16149   2.412   2.658   2.634
    2PC     H3B16150   2.576   2.594   2.677
    2PC     H3C16151   2.552   2.771   2.647
    2PC     C3416152   2.479   2.756   2.407
    2PC     H4A16153   2.372   2.755   2.425
    2PC     H4B16154   2.520   2.852   2.440
    2PC     H4C16155   2.497   2.741   2.301
    2PC     C3516156   2.463   2.526   2.429
    2PC     H5A16157   2.473   2.494   2.326
    2PC     H5B16158   2.357   2.549   2.441
    2PC     H5C16159   2.489   2.431   2.477
    2PC     O3316160   2.840   3.058   2.277
    2PC     O3416161   3.002   2.918   2.377
    2PC     O2116162   2.911   3.164   2.775
    2PC     C2116163   3.044   3.182   2.775
    2PC     O2216164   3.105   3.251   2.694
    3OL     C1216165   3.124   3.126   2.890
    3OL     H2R16166   3.051   3.090   2.962
    3OL     H2S16167   3.168   3.219   2.926
    3OL     C1316168   3.211   3.004   2.855
    3OL     H3R16169   3.266   3.016   2.761
    3OL     H3S16170   3.143   2.919   2.846
    3OL     C1416171   3.314   2.975   2.965
    3OL     H4R16172   3.380   3.062   2.973
    3OL     H4S16173   3.388   2.902   2.932
    3OL     C1516174   3.245   2.919   3.090
    3OL     H5R16175   3.178   2.836   3.066
    3OL     H5S16176   3.194   3.008   3.128
    3OL     C1616177   3.346   2.878   3.197
    3OL     H6R16178   3.429   2.947   3.215
    3OL     H6S16179   3.381   2.780   3.164
    3OL     C1716180   3.284   2.834   3.330
    3OL     H7R16181   3.201   2.767   3.308
    3OL     H7S16182   3.236   2.919   3.380
    3OL     C1816183   3.384   2.767   3.425
    3OL     H8R16184   3.466   2.839   3.436
    3OL     H8S16185   3.435   2.678   3.388
    3OL     C1916186   3.320   2.729   3.557
    3OL     H9R16187   3.216   2.702   3.542
    3OL    C11016188   3.376   2.731   3.677
    3OL    H10R16189   3.325   2.704   3.769
    3OL    C11116190   3.511   2.788   3.714
    3OL    H11R16191   3.557   2.827   3.623
    3OL    H11S16192   3.574   2.711   3.757
    3OL    C11216193   3.493   2.896   3.822
    3OL    H12R16194   3.455   2.858   3.917
    3OL    H12S16195   3.414   2.960   3.780
    3OL    C11316196   3.617   2.984   3.844
    3OL    H13R16197   3.585   3.058   3.918
    3OL    H13S16198   3.652   3.035   3.754
    3OL    C11416199   3.729   2.905   3.912
    3OL    H14R16200   3.769   2.833   3.840
    3OL    H14S16201   3.680   2.849   3.992
    3OL    C11516202   3.839   2.994   3.972
    3OL    H15R16203   3.786   3.077   4.019
    3OL    H15S16204   3.908   3.037   3.899
    3OL    C11616205   3.929   2.915   4.069
    3OL    H16R16206   3.974   2.831   4.015
    3OL    H16S16207   3.879   2.865   4.152
    3OL    C11716208   4.046   2.998   4.123
    3OL    H17R16209   4.002   3.074   4.188
    3OL    H17S16210   4.101   3.051   4.046
    3OL    C11816211   4.150   2.909   4.194
    3OL    H18R16212   4.097   2.841   4.261
    3OL    H18S16213   4.216   2.973   4.253
    3OL    H18T16214   4.200   2.846   4.120
    1PA    C11616215   3.912   0.818   3.999
    1PA    H16R16216   3.922   0.927   3.997
    1PA    H16S16217   3.960   0.783   4.090
    1PA    H16T16218   3.809   0.785   4.016
    1PA    C11516219   3.957   0.755   3.866
    1PA    H15R16220   4.065   0.771   3.865
    1PA    H15S16221   3.935   0.648   3.862
    1PA    C11416222   3.873   0.805   3.747
    1PA    H14R16223   3.768   0.781   3.768
    1PA    H14S16224   3.874   0.913   3.758
    1PA    C11316225   3.917   0.744   3.613
    1PA    H13R16226   3.937   0.637   3.616
    1PA    H13S16227   3.826   0.744   3.554
    1PA    C11216228   4.028   0.829   3.549
    1PA    H12R16229   3.995   0.927   3.512
    1PA    H12S16230   4.110   0.839   3.621
    1PA    C11116231   4.090   0.768   3.422
    1PA    H11R16232   4.145   0.683   3.462
    1PA    H11S16233   4.010   0.732   3.357
    1PA    C11016234   4.189   0.862   3.352
    1PA    H10R16235   4.150   0.958   3.318
    1PA    H10S16236   4.277   0.888   3.411
    1PA     C1916237   4.235   0.782   3.228
    1PA     H9R16238   4.280   0.688   3.260
    1PA     H9S16239   4.152   0.776   3.158
    1PA     C1816240   4.338   0.861   3.146
    1PA     H8R16241   4.282   0.930   3.083
    1PA     H8S16242   4.393   0.924   3.216
    1PA     C1716243   4.433   0.763   3.075
    1PA     H7R16244   4.491   0.711   3.151
    1PA     H7S16245   4.366   0.699   3.017
    1PA     C1616246   4.526   0.852   2.990
    1PA     H6R16247   4.476   0.925   2.926
    1PA     H6S16248   4.585   0.913   3.059
    1PA     C1516249   4.620   0.763   2.908
    1PA     H5R16250   4.711   0.819   2.886
    1PA     H5S16251   4.663   0.677   2.960
    1PA     C1416252   4.547   0.725   2.779
    1PA     H4R16253   4.483   0.641   2.809
    1PA     H4S16254   4.478   0.805   2.751
    1PA     C1316255   4.634   0.690   2.658
    1PA     H3R16256   4.570   0.649   2.580
    1PA     H3S16257   4.685   0.782   2.628
    1PA     C1216258   4.743   0.585   2.687
    1PA     H2R16259   4.812   0.626   2.761
    1PA     H2S16260   4.689   0.496   2.721
    2PC     C1116261   4.809   0.561   2.554
    2PC     O1216262   4.837   0.646   2.473
    2PC     O1116263   4.829   0.429   2.539
    2PC      C116264   4.898   0.387   2.420
    2PC      HR16265   4.883   0.279   2.414
    2PC      HS16266   4.855   0.446   2.338
    2PC      C216267   5.047   0.419   2.407
    2PC      HX16268   5.070   0.525   2.415
    2PC      C316269   5.088   0.368   2.268
    2PC      HA16270   5.064   0.261   2.262
    2PC      HB16271   5.037   0.425   2.190
    2PC     O3116272   5.231   0.382   2.262
    2PC     P3116273   5.302   0.343   2.124
    2PC     O3216274   5.449   0.397   2.158
    2PC     C3116275   5.460   0.539   2.181
    2PC     H1A16276   5.408   0.598   2.106
    2PC     H1B16277   5.423   0.560   2.282
    2PC     C3216278   5.609   0.572   2.164
    2PC     H2A16279   5.646   0.524   2.255
    2PC     H2B16280   5.653   0.522   2.078
    2PC     N3116281   5.645   0.717   2.176
    2PC     C3316282   5.587   0.794   2.060
    2PC     H3A16283   5.617   0.897   2.075
    2PC     H3B16284   5.621   0.752   1.965
    2PC     H3C16285   5.479   0.779   2.056
    2PC     C3416286   5.592   0.784   2.299
    2PC     H4A16287   5.486   0.756   2.302
    2PC     H4B16288   5.637   0.732   2.384
    2PC     H4C16289   5.629   0.887   2.303
    2PC     C3516290   5.794   0.723   2.173
    2PC     H5A16291   5.820   0.671   2.266
    2PC     H5B16292   5.815   0.830   2.170
    2PC     H5C16293   5.828   0.661   2.090
    2PC     O3316294   5.301   0.195   2.124
    2PC     O3416295   5.257   0.400   1.995
    2PC     O2116296   5.109   0.333   2.505
    2PC     C2116297   5.140   0.388   2.623
    2PC     O2216298   5.134   0.504   2.658
    3OL     C1216299   5.182   0.283   2.723
    3OL     H2R16300   5.289   0.290   2.745
    3OL     H2S16301   5.160   0.183   2.684
    3OL     C1316302   5.113   0.292   2.860
    3OL     H3R16303   5.147   0.383   2.910
    3OL     H3S16304   5.148   0.209   2.921
    3OL     C1416305   4.960   0.295   2.849
    3OL     H4R16306   4.932   0.238   2.760
    3OL     H4S16307   4.917   0.395   2.838
    3OL     C1516308   4.893   0.229   2.970
    3OL     H5R16309   4.954   0.153   3.019
    3OL     H5S16310   4.798   0.178   2.949
    3OL     C1616311   4.869   0.331   3.082
    3OL     H6R16312   4.807   0.418   3.058
    3OL     H6S16313   4.963   0.374   3.118
    3OL     C1716314   4.808   0.256   3.201
    3OL     H7R16315   4.867   0.167   3.222
    3OL     H7S16316   4.710   0.222   3.170
    3OL     C1816317   4.791   0.336   3.331
    3OL     H8R16318   4.888   0.358   3.376
    3OL     H8S16319   4.742   0.265   3.399
    3OL     C1916320   4.720   0.468   3.322
    3OL     H9R16321   4.722   0.516   3.224
    3OL    C11016322   4.635   0.520   3.410
    3OL    H10R16323   4.581   0.609   3.379
    3OL    C11116324   4.607   0.467   3.548
    3OL    H11R16325   4.666   0.523   3.621
    3OL    H11S16326   4.622   0.360   3.561
    3OL    C11216327   4.460   0.492   3.586
    3OL    H12R16328   4.402   0.436   3.512
    3OL    H12S16329   4.435   0.597   3.571
    3OL    C11316330   4.423   0.449   3.728
    3OL    H13R16331   4.419   0.545   3.779
    3OL    H13S16332   4.500   0.384   3.770
    3OL    C11416333   4.284   0.385   3.727
    3OL    H14R16334   4.292   0.294   3.667
    3OL    H14S16335   4.214   0.453   3.677
    3OL    C11516336   4.226   0.341   3.863
    3OL    H15R16337   4.290   0.269   3.914
    3OL    H15S16338   4.128   0.293   3.854
    3OL    C11616339   4.222   0.464   3.953
    3OL    H16R16340   4.157   0.532   3.897
    3OL    H16S16341   4.317   0.518   3.949
    3OL    C11716342   4.175   0.446   4.099
    3OL    H17R16343   4.095   0.373   4.106
    3OL    H17S16344   4.136   0.539   4.141
    3OL    C11816345   4.296   0.411   4.187
    3OL    H18R16346   4.359   0.499   4.201
    3OL    H18S16347   4.363   0.339   4.142
    3OL    H18T16348   4.268   0.380   4.289
    1PA    C11616349   3.827   0.525   4.386
    1PA    H16R16350   3.895   0.598   4.343
    1PA    H16S16351   3.877   0.497   4.480
    1PA    H16T16352   3.729   0.566   4.409
    1PA    C11516353   3.807   0.413   4.283
    1PA    H15R16354   3.907   0.370   4.280
    1PA    H15S16355   3.736   0.341   4.325
    1PA    C11416356   3.752   0.469   4.151
    1PA    H14R16357   3.647   0.497   4.167
    1PA    H14S16358   3.797   0.558   4.108
    1PA    C11316359   3.755   0.362   4.041
    1PA    H13R16360   3.858   0.329   4.023
    1PA    H13S16361   3.701   0.273   4.074
    1PA    C11216362   3.689   0.413   3.913
    1PA    H12R16363   3.595   0.453   3.951
    1PA    H12S16364   3.743   0.497   3.868
    1PA    C11116365   3.667   0.299   3.813
    1PA    H11R16366   3.671   0.200   3.860
    1PA    H11S16367   3.567   0.309   3.771
    1PA    C11016368   3.778   0.283   3.708
    1PA    H10R16369   3.877   0.305   3.749
    1PA    H10S16370   3.779   0.184   3.662
    1PA     C1916371   3.754   0.374   3.587
    1PA     H9R16372   3.653   0.364   3.546
    1PA     H9S16373   3.758   0.480   3.613
    1PA     C1816374   3.850   0.354   3.469
    1PA     H8R16375   3.951   0.383   3.500
    1PA     H8S16376   3.855   0.249   3.438
    1PA     C1716377   3.821   0.446   3.350
    1PA     H7R16378   3.728   0.406   3.309
    1PA     H7S16379   3.792   0.542   3.391
    1PA     C1616380   3.927   0.447   3.239
    1PA     H6R16381   4.024   0.474   3.281
    1PA     H6S16382   3.939   0.348   3.194
    1PA     C1516383   3.897   0.551   3.130
    1PA     H5R16384   3.804   0.511   3.089
    1PA     H5S16385   3.881   0.649   3.177
    1PA     C1416386   4.005   0.554   3.021
    1PA     H4R16387   4.092   0.584   3.079
    1PA     H4S16388   4.013   0.453   2.980
    1PA     C1316389   3.978   0.653   2.908
    1PA     H3R16390   3.882   0.631   2.859
    1PA     H3S16391   3.956   0.755   2.941
    1PA     C1216392   4.084   0.642   2.798
    1PA     H2R16393   4.176   0.676   2.848
    1PA     H2S16394   4.099   0.535   2.787
    2PC     C1116395   4.045   0.709   2.669
    2PC     O1216396   4.016   0.826   2.661
    2PC     O1116397   4.043   0.622   2.566
    2PC      C116398   3.994   0.661   2.436
    2PC      HR16399   3.896   0.707   2.453
    2PC      HS16400   4.063   0.736   2.397
    2PC      C216401   4.003   0.539   2.343
    2PC      HX16402   4.096   0.486   2.362
    2PC      C316403   3.999   0.578   2.195
    2PC      HA16404   4.104   0.594   2.172
    2PC      HB16405   3.964   0.493   2.136
    2PC     O3116406   3.922   0.697   2.168
    2PC     P3116407   3.908   0.736   2.013
    2PC     O3216408   3.749   0.742   1.993
    2PC     C3116409   3.682   0.622   2.036
    2PC     H1A16410   3.740   0.531   2.016
    2PC     H1B16411   3.662   0.627   2.143
    2PC     C3216412   3.554   0.626   1.952
    2PC     H2A16413   3.494   0.542   1.988
    2PC     H2B16414   3.491   0.714   1.966
    2PC     N3116415   3.577   0.606   1.805
    2PC     C3316416   3.635   0.726   1.735
    2PC     H3A16417   3.647   0.690   1.633
    2PC     H3B16418   3.564   0.808   1.732
    2PC     H3C16419   3.732   0.754   1.775
    2PC     C3416420   3.670   0.492   1.777
    2PC     H4A16421   3.679   0.489   1.669
    2PC     H4B16422   3.769   0.506   1.821
    2PC     H4C16423   3.620   0.404   1.819
    2PC     C3516424   3.451   0.571   1.733
    2PC     H5A16425   3.421   0.470   1.761
    2PC     H5B16426   3.473   0.577   1.626
    2PC     H5C16427   3.383   0.650   1.764
    2PC     O3316428   3.985   0.859   1.983
    2PC     O3416429   3.953   0.631   1.919
    2PC     O2116430   3.900   0.445   2.379
    2PC     C2116431   3.909   0.314   2.351
    2PC     O2216432   3.997   0.264   2.283
    3OL     C1216433   3.806   0.229   2.420
    3OL     H2R16434   3.797   0.125   2.388
    3OL     H2S16435   3.705   0.260   2.393
    3OL     C1316436   3.821   0.227   2.573
    3OL     H3R16437   3.768   0.138   2.609
    3OL     H3S16438   3.778   0.316   2.618
    3OL     C1416439   3.968   0.214   2.618
    3OL     H4R16440   4.018   0.307   2.590
    3OL     H4S16441   4.014   0.132   2.563
    3OL     C1516442   3.974   0.198   2.771
    3OL     H5R16443   3.920   0.107   2.796
    3OL     H5S16444   3.933   0.284   2.823
    3OL     C1616445   4.118   0.177   2.820
    3OL     H6R16446   4.177   0.269   2.807
    3OL     H6S16447   4.160   0.093   2.765
    3OL     C1716448   4.097   0.121   2.961
    3OL     H7R16449   4.008   0.155   3.015
    3OL     H7S16450   4.183   0.151   3.021
    3OL     C1816451   4.093  -0.032   2.970
    3OL     H8R16452   4.187  -0.057   2.920
    3OL     H8S16453   4.009  -0.066   2.909
    3OL     C1916454   4.099  -0.083   3.112
    3OL     H9R16455   4.193  -0.126   3.146
    3OL    C11016456   3.992  -0.106   3.187
    3OL    H10R16457   4.012  -0.175   3.269
    3OL    C11116458   3.851  -0.065   3.154
    3OL    H11R16459   3.772  -0.141   3.159
    3OL    H11S16460   3.845  -0.045   3.047
    3OL    C11216461   3.798   0.059   3.228
    3OL    H12R16462   3.864   0.143   3.209
    3OL    H12S16463   3.796   0.037   3.335
    3OL    C11316464   3.655   0.088   3.180
    3OL    H13R16465   3.611   0.174   3.230
    3OL    H13S16466   3.588   0.005   3.205
    3OL    C11416467   3.651   0.137   3.034
    3OL    H14R16468   3.655   0.057   2.960
    3OL    H14S16469   3.741   0.193   3.009
    3OL    C11516470   3.535   0.235   3.009
    3OL    H15R16471   3.524   0.317   3.080
    3OL    H15S16472   3.440   0.182   3.003
    3OL    C11616473   3.550   0.299   2.870
    3OL    H16R16474   3.549   0.218   2.797
    3OL    H16S16475   3.650   0.343   2.865
    3OL    C11716476   3.434   0.398   2.852
    3OL    H17R16477   3.421   0.458   2.942
    3OL    H17S16478   3.350   0.328   2.851
    3OL    C11816479   3.438   0.483   2.724
    3OL    H18R16480   3.427   0.421   2.635
    3OL    H18S16481   3.540   0.522   2.724
    3OL    H18T16482   3.360   0.560   2.728
    1PA    C11616483   3.462   1.343   4.447
    1PA    H16R16484   3.542   1.381   4.511
    1PA    H16S16485   3.481   1.236   4.455
    1PA    H16T16486   3.361   1.360   4.487
    1PA    C11516487   3.473   1.400   4.305
    1PA    H15R16488   3.375   1.374   4.265
    1PA    H15S16489   3.463   1.508   4.309
    1PA    C11416490   3.588   1.343   4.221
    1PA    H14R16491   3.679   1.391   4.258
    1PA    H14S16492   3.604   1.236   4.233
    1PA    C11316493   3.568   1.374   4.072
    1PA    H13R16494   3.489   1.308   4.035
    1PA    H13S16495   3.541   1.476   4.045
    1PA    C11216496   3.700   1.338   4.002
    1PA    H12R16497   3.734   1.245   4.048
    1PA    H12S16498   3.677   1.313   3.898
    1PA    C11116499   3.800   1.454   4.012
    1PA    H11R16500   3.772   1.533   3.941
    1PA    H11S16501   3.801   1.497   4.112
    1PA    C11016502   3.942   1.414   3.969
    1PA    H10R16503   4.003   1.504   3.981
    1PA    H10S16504   3.980   1.343   4.043
    1PA     C1916505   3.965   1.371   3.823
    1PA     H9R16506   3.912   1.276   3.815
    1PA     H9S16507   3.933   1.450   3.755
    1PA     C1816508   4.112   1.350   3.783
    1PA     H8R16509   4.166   1.443   3.800
    1PA     H8S16510   4.164   1.272   3.839
    1PA     C1716511   4.105   1.326   3.632
    1PA     H7R16512   4.042   1.238   3.617
    1PA     H7S16513   4.067   1.406   3.568
    1PA     C1616514   4.247   1.302   3.579
    1PA     H6R16515   4.296   1.399   3.578
    1PA     H6S16516   4.301   1.224   3.633
    1PA     C1516517   4.238   1.283   3.427
    1PA     H5R16518   4.193   1.184   3.414
    1PA     H5S16519   4.176   1.363   3.386
    1PA     C1416520   4.374   1.288   3.357
    1PA     H4R16521   4.418   1.386   3.378
    1PA     H4S16522   4.426   1.206   3.407
    1PA     C1316523   4.362   1.253   3.208
    1PA     H3R16524   4.332   1.151   3.184
    1PA     H3S16525   4.292   1.324   3.163
    1PA     C1216526   4.500   1.280   3.146
    1PA     H2R16527   4.548   1.375   3.171
    1PA     H2S16528   4.574   1.209   3.184
    2PC     C1116529   4.500   1.283   2.995
    2PC     O1216530   4.407   1.241   2.929
    2PC     O1116531   4.611   1.342   2.947
    2PC      C116532   4.656   1.341   2.811
    2PC      HR16533   4.752   1.393   2.803
    2PC      HS16534   4.678   1.237   2.787
    2PC      C216535   4.549   1.411   2.726
    2PC      HX16536   4.458   1.351   2.734
    2PC      C316537   4.589   1.424   2.578
    2PC      HA16538   4.611   1.324   2.541
    2PC      HB16539   4.496   1.459   2.534
    2PC     O3116540   4.692   1.524   2.568
    2PC     P3116541   4.755   1.552   2.423
    2PC     O3216542   4.636   1.590   2.323
    2PC     C3116543   4.677   1.624   2.189
    2PC     H1A16544   4.742   1.712   2.185
    2PC     H1B16545   4.733   1.535   2.159
    2PC     C3216546   4.560   1.638   2.091
    2PC     H2A16547   4.510   1.735   2.099
    2PC     H2B16548   4.601   1.634   1.989
    2PC     N3116549   4.442   1.547   2.097
    2PC     C3316550   4.344   1.600   1.997
    2PC     H3A16551   4.284   1.677   2.044
    2PC     H3B16552   4.401   1.639   1.912
    2PC     H3C16553   4.277   1.522   1.960
    2PC     C3416554   4.484   1.409   2.053
    2PC     H4A16555   4.521   1.424   1.952
    2PC     H4B16556   4.566   1.370   2.113
    2PC     H4C16557   4.399   1.342   2.066
    2PC     C3516558   4.376   1.555   2.232
    2PC     H5A16559   4.410   1.476   2.300
    2PC     H5B16560   4.267   1.552   2.232
    2PC     H5C16561   4.415   1.650   2.269
    2PC     O3316562   4.868   1.647   2.428
    2PC     O3416563   4.821   1.427   2.381
    2PC     O2116564   4.527   1.545   2.773
    2PC     C2116565   4.411   1.608   2.750
    2PC     O2216566   4.328   1.562   2.674
    3OL     C1216567   4.386   1.729   2.836
    3OL     H2R16568   4.279   1.750   2.833
    3OL     H2S16569   4.438   1.814   2.792
    3OL     C1316570   4.422   1.716   2.984
    3OL     H3R16571   4.401   1.803   3.047
    3OL     H3S16572   4.531   1.704   2.990
    3OL     C1416573   4.352   1.596   3.049
    3OL     H4R16574   4.406   1.576   3.142
    3OL     H4S16575   4.349   1.507   2.986
    3OL     C1516576   4.211   1.640   3.089
    3OL     H5R16577   4.154   1.659   2.997
    3OL     H5S16578   4.223   1.739   3.133
    3OL     C1616579   4.142   1.537   3.178
    3OL     H6R16580   4.200   1.524   3.270
    3OL     H6S16581   4.136   1.445   3.119
    3OL     C1716582   3.992   1.568   3.194
    3OL     H7R16583   3.951   1.482   3.248
    3OL     H7S16584   3.950   1.567   3.093
    3OL     C1816585   3.963   1.691   3.281
    3OL     H8R16586   4.015   1.780   3.248
    3OL     H8S16587   4.010   1.675   3.378
    3OL     C1916588   3.814   1.709   3.301
    3OL     H9R16589   3.771   1.777   3.228
    3OL    C11016590   3.736   1.653   3.392
    3OL    H10R16591   3.630   1.676   3.379
    3OL    C11116592   3.773   1.570   3.512
    3OL    H11R16593   3.818   1.636   3.587
    3OL    H11S16594   3.855   1.502   3.487
    3OL    C11216595   3.657   1.498   3.582
    3OL    H12R16596   3.693   1.415   3.644
    3OL    H12S16597   3.594   1.454   3.505
    3OL    C11316598   3.586   1.593   3.679
    3OL    H13R16599   3.560   1.688   3.631
    3OL    H13S16600   3.665   1.618   3.749
    3OL    C11416601   3.464   1.528   3.746
    3OL    H14R16602   3.488   1.428   3.783
    3OL    H14S16603   3.388   1.502   3.672
    3OL    C11516604   3.412   1.616   3.860
    3OL    H15R16605   3.499   1.665   3.902
    3OL    H15S16606   3.359   1.558   3.936
    3OL    C11616607   3.314   1.724   3.811
    3OL    H16R16608   3.228   1.673   3.768
    3OL    H16S16609   3.355   1.787   3.732
    3OL    C11716610   3.267   1.818   3.923
    3OL    H17R16611   3.268   1.760   4.015
    3OL    H17S16612   3.171   1.861   3.893
    3OL    C11816613   3.357   1.942   3.927
    3OL    H18R16614   3.326   2.016   4.001
    3OL    H18S16615   3.338   2.001   3.837
    3OL    H18T16616   3.465   1.935   3.938
    1PA    C11616617   3.391   0.723   4.530
    1PA    H16R16618   3.448   0.774   4.608
    1PA    H16S16619   3.415   0.617   4.536
    1PA    H16T16620   3.283   0.727   4.547
    1PA    C11516621   3.424   0.788   4.394
    1PA    H15R16622   3.519   0.752   4.353
    1PA    H15S16623   3.336   0.751   4.341
    1PA    C11416624   3.405   0.940   4.395
    1PA    H14R16625   3.308   0.965   4.436
    1PA    H14S16626   3.489   0.970   4.459
    1PA    C11316627   3.425   0.994   4.252
    1PA    H13R16628   3.419   1.103   4.255
    1PA    H13S16629   3.530   0.973   4.228
    1PA    C11216630   3.320   0.962   4.146
    1PA    H12R16631   3.323   0.853   4.140
    1PA    H12S16632   3.219   0.980   4.182
    1PA    C11116633   3.333   1.026   4.007
    1PA    H11R16634   3.246   1.006   3.944
    1PA    H11S16635   3.336   1.135   4.018
    1PA    C11016636   3.465   0.994   3.935
    1PA    H10R16637   3.557   1.016   3.989
    1PA    H10S16638   3.472   0.890   3.902
    1PA     C1916639   3.466   1.074   3.804
    1PA     H9R16640   3.380   1.041   3.745
    1PA     H9S16641   3.444   1.179   3.822
    1PA     C1816642   3.598   1.062   3.727
    1PA     H8R16643   3.686   1.096   3.781
    1PA     H8S16644   3.604   0.953   3.726
    1PA     C1716645   3.607   1.114   3.582
    1PA     H7R16646   3.519   1.090   3.522
    1PA     H7S16647   3.612   1.223   3.587
    1PA     C1616648   3.736   1.072   3.511
    1PA     H6R16649   3.821   1.108   3.569
    1PA     H6S16650   3.725   0.963   3.507
    1PA     C1516651   3.742   1.121   3.365
    1PA     H5R16652   3.659   1.091   3.302
    1PA     H5S16653   3.734   1.230   3.370
    1PA     C1416654   3.882   1.089   3.311
    1PA     H4R16655   3.958   1.125   3.382
    1PA     H4S16656   3.897   0.981   3.306
    1PA     C1316657   3.902   1.151   3.172
    1PA     H3R16658   3.822   1.130   3.100
    1PA     H3S16659   3.896   1.259   3.193
    1PA     C1216660   4.033   1.109   3.104
    1PA     H2R16661   4.126   1.137   3.152
    1PA     H2S16662   4.030   1.000   3.099
    2PC     C1116663   4.038   1.154   2.960
    2PC     O1216664   4.037   1.074   2.870
    2PC     O1116665   4.046   1.288   2.946
    2PC      C116666   4.014   1.342   2.817
    2PC      HR16667   4.044   1.447   2.829
    2PC      HS16668   4.073   1.292   2.740
    2PC      C216669   3.864   1.329   2.786
    2PC      HX16670   3.832   1.225   2.799
    2PC      C316671   3.834   1.376   2.643
    2PC      HA16672   3.736   1.348   2.602
    2PC      HB16673   3.850   1.483   2.629
    2PC     O3116674   3.914   1.306   2.546
    2PC     P3116675   3.934   1.385   2.408
    2PC     O3216676   3.798   1.339   2.338
    2PC     C3116677   3.756   1.424   2.229
    2PC     H1A16678   3.712   1.512   2.279
    2PC     H1B16679   3.838   1.452   2.162
    2PC     C3216680   3.652   1.362   2.135
    2PC     H2A16681   3.654   1.411   2.038
    2PC     H2B16682   3.675   1.256   2.120
    2PC     N3116683   3.507   1.359   2.175
    2PC     C3316684   3.415   1.310   2.068
    2PC     H3A16685   3.311   1.333   2.095
    2PC     H3B16686   3.431   1.357   1.971
    2PC     H3C16687   3.443   1.204   2.066
    2PC     C3416688   3.486   1.273   2.296
    2PC     H4A16689   3.564   1.296   2.370
    2PC     H4B16690   3.389   1.296   2.341
    2PC     H4C16691   3.487   1.168   2.266
    2PC     C3516692   3.458   1.494   2.217
    2PC     H5A16693   3.473   1.567   2.138
    2PC     H5B16694   3.503   1.525   2.311
    2PC     H5C16695   3.349   1.491   2.229
    2PC     O3316696   3.950   1.532   2.415
    2PC     O3416697   4.053   1.335   2.336
    2PC     O2116698   3.803   1.407   2.890
    2PC     C2116699   3.671   1.391   2.908
    2PC     O2216700   3.604   1.321   2.835
    3OL     C1216701   3.621   1.478   3.021
    3OL     H2R16702   3.649   1.582   3.003
    3OL     H2S16703   3.660   1.434   3.112
    3OL     C1316704   3.468   1.467   3.019
    3OL     H3R16705   3.431   1.368   3.048
    3OL     H3S16706   3.436   1.497   2.919
    3OL     C1416707   3.403   1.561   3.122
    3OL     H4R16708   3.302   1.585   3.089
    3OL     H4S16709   3.469   1.648   3.128
    3OL     C1516710   3.405   1.498   3.262
    3OL     H5R16711   3.510   1.489   3.290
    3OL     H5S16712   3.355   1.401   3.261
    3OL     C1616713   3.338   1.594   3.362
    3OL     H6R16714   3.381   1.693   3.350
    3OL     H6S16715   3.364   1.556   3.461
    3OL     C1716716   3.185   1.604   3.367
    3OL     H7R16717   3.136   1.510   3.391
    3OL     H7S16718   3.151   1.638   3.268
    3OL     C1816719   3.143   1.714   3.466
    3OL     H8R16720   3.198   1.805   3.442
    3OL     H8S16721   3.170   1.684   3.568
    3OL     C1916722   2.993   1.725   3.452
    3OL     H9R16723   2.963   1.748   3.350
    3OL    C11016724   2.896   1.718   3.541
    3OL    H10R16725   2.792   1.726   3.512
    3OL    C11116726   2.900   1.645   3.673
    3OL    H11R16727   2.992   1.587   3.677
    3OL    H11S16728   2.821   1.570   3.659
    3OL    C11216729   2.873   1.742   3.789
    3OL    H12R16730   2.772   1.783   3.784
    3OL    H12S16731   2.928   1.836   3.779
    3OL    C11316732   2.898   1.673   3.924
    3OL    H13R16733   3.003   1.642   3.928
    3OL    H13S16734   2.832   1.586   3.921
    3OL    C11416735   2.878   1.758   4.050
    3OL    H14R16736   2.776   1.797   4.051
    3OL    H14S16737   2.951   1.837   4.032
    3OL    C11516738   2.910   1.673   4.174
    3OL    H15R16739   2.848   1.583   4.171
    3OL    H15S16740   2.869   1.729   4.259
    3OL    C11616741   3.059   1.641   4.185
    3OL    H16R16742   3.120   1.732   4.186
    3OL    H16S16743   3.088   1.585   4.096
    3OL    C11716744   3.082   1.544   4.302
    3OL    H17R16745   3.175   1.493   4.275
    3OL    H17S16746   3.000   1.473   4.315
    3OL    C11816747   3.095   1.624   4.433
    3OL    H18R16748   3.133   1.554   4.507
    3OL    H18S16749   2.999   1.661   4.469
    3OL    H18T16750   3.175   1.694   4.410
    1PA    C11616751   2.957   1.997   4.523
    1PA    H16R16752   2.866   1.943   4.496
    1PA    H16S16753   2.944   2.099   4.559
    1PA    H16T16754   3.016   1.931   4.588
    1PA    C11516755   3.044   2.002   4.397
    1PA    H15R16756   3.148   2.020   4.425
    1PA    H15S16757   3.046   1.898   4.362
    1PA    C11416758   2.988   2.098   4.291
    1PA    H14R16759   2.884   2.071   4.272
    1PA    H14S16760   2.983   2.201   4.327
    1PA    C11316761   3.070   2.088   4.162
    1PA    H13R16762   3.164   2.144   4.163
    1PA    H13S16763   3.108   1.987   4.145
    1PA    C11216764   2.993   2.152   4.045
    1PA    H12R16765   2.920   2.079   4.009
    1PA    H12S16766   2.946   2.237   4.094
    1PA    C11116767   3.078   2.202   3.927
    1PA    H11R16768   3.123   2.111   3.886
    1PA    H11S16769   3.004   2.233   3.852
    1PA    C11016770   3.174   2.314   3.968
    1PA    H10R16771   3.118   2.393   4.018
    1PA    H10S16772   3.253   2.281   4.037
    1PA     C1916773   3.251   2.373   3.849
    1PA     H9R16774   3.175   2.412   3.780
    1PA     H9S16775   3.306   2.462   3.878
    1PA     C1816776   3.340   2.271   3.776
    1PA     H8R16777   3.423   2.247   3.843
    1PA     H8S16778   3.287   2.179   3.752
    1PA     C1716779   3.405   2.330   3.650
    1PA     H7R16780   3.456   2.423   3.677
    1PA     H7S16781   3.480   2.264   3.606
    1PA     C1616782   3.307   2.371   3.540
    1PA     H6R16783   3.228   2.296   3.533
    1PA     H6S16784   3.252   2.461   3.567
    1PA     C1516785   3.379   2.385   3.405
    1PA     H5R16786   3.445   2.471   3.413
    1PA     H5S16787   3.432   2.299   3.364
    1PA     C1416788   3.272   2.427   3.303
    1PA     H4R16789   3.192   2.352   3.307
    1PA     H4S16790   3.222   2.519   3.334
    1PA     C1316791   3.331   2.444   3.162
    1PA     H3R16792   3.421   2.505   3.167
    1PA     H3S16793   3.359   2.345   3.127
    1PA     C1216794   3.224   2.500   3.067
    1PA     H2R16795   3.143   2.428   3.050
    1PA     H2S16796   3.178   2.591   3.106
    2PC     C1116797   3.279   2.519   2.928
    2PC     O1216798   3.340   2.434   2.867
    2PC     O1116799   3.242   2.634   2.870
    2PC      C116800   3.257   2.649   2.728
    2PC      HR16801   3.250   2.752   2.692
    2PC      HS16802   3.350   2.600   2.697
    2PC      C216803   3.130   2.586   2.671
    2PC      HX16804   3.117   2.490   2.723
    2PC      C316805   3.134   2.562   2.519
    2PC      HA16806   3.119   2.659   2.469
    2PC      HB16807   3.224   2.513   2.483
    2PC     O3116808   3.026   2.472   2.488
    2PC     P3116809   3.026   2.405   2.343
    2PC     O3216810   2.922   2.505   2.273
    2PC     C3116811   2.964   2.624   2.205
    2PC     H1A16812   2.876   2.688   2.216
    2PC     H1B16813   3.051   2.668   2.255
    2PC     C3216814   3.005   2.609   2.058
    2PC     H2A16815   3.055   2.703   2.034
    2PC     H2B16816   3.079   2.531   2.036
    2PC     N3116817   2.901   2.593   1.952
    2PC     C3316818   2.837   2.457   1.954
    2PC     H3A16819   2.770   2.441   1.870
    2PC     H3B16820   2.922   2.389   1.947
    2PC     H3C16821   2.784   2.438   2.047
    2PC     C3416822   2.795   2.698   1.960
    2PC     H4A16823   2.736   2.671   2.048
    2PC     H4B16824   2.844   2.792   1.986
    2PC     H4C16825   2.735   2.689   1.869
    2PC     C3516826   2.979   2.606   1.824
    2PC     H5A16827   2.914   2.577   1.741
    2PC     H5B16828   3.062   2.536   1.812
    2PC     H5C16829   3.018   2.707   1.815
    2PC     O3316830   3.165   2.379   2.297
    2PC     O3416831   2.981   2.265   2.333
    2PC     O2116832   3.026   2.681   2.698
    2PC     C2116833   2.963   2.668   2.816
    2PC     O2216834   2.973   2.575   2.893
    3OL     C1216835   2.865   2.781   2.838
    3OL     H2R16836   2.768   2.744   2.804
    3OL     H2S16837   2.889   2.860   2.766
    3OL     C1316838   2.856   2.812   2.988
    3OL     H3R16839   2.953   2.842   3.029
    3OL     H3S16840   2.815   2.732   3.050
    3OL     C1416841   2.765   2.933   3.014
    3OL     H4R16842   2.671   2.902   2.969
    3OL     H4S16843   2.800   3.025   2.966
    3OL     C1516844   2.742   2.956   3.164
    3OL     H5R16845   2.729   2.861   3.216
    3OL     H5S16846   2.645   3.004   3.183
    3OL     C1616847   2.845   3.046   3.232
    3OL     H6R16848   2.835   3.146   3.187
    3OL     H6S16849   2.946   3.009   3.211
    3OL     C1716850   2.807   3.052   3.380
    3OL     H7R16851   2.832   2.954   3.419
    3OL     H7S16852   2.700   3.062   3.404
    3OL     C1816853   2.879   3.155   3.468
    3OL     H8R16854   2.856   3.257   3.438
    3OL     H8S16855   2.986   3.151   3.445
    3OL     C1916856   2.871   3.132   3.617
    3OL     H9R16857   2.778   3.148   3.671
    3OL    C11016858   2.967   3.090   3.697
    3OL    H10R16859   2.941   3.073   3.801
    3OL    C11116860   3.107   3.048   3.660
    3OL    H11R16861   3.104   3.015   3.556
    3OL    H11S16862   3.143   2.963   3.718
    3OL    C11216863   3.197   3.170   3.686
    3OL    H12R16864   3.208   3.201   3.790
    3OL    H12S16865   3.147   3.248   3.627
    3OL    C11316866   3.331   3.140   3.619
    3OL    H13R16867   3.347   3.034   3.595
    3OL    H13S16868   3.402   3.170   3.697
    3OL    C11416869   3.361   3.215   3.489
    3OL    H14R16870   3.350   3.324   3.494
    3OL    H14S16871   3.285   3.186   3.416
    3OL    C11516872   3.503   3.194   3.436
    3OL    H15R16873   3.526   3.087   3.427
    3OL    H15S16874   3.578   3.247   3.495
    3OL    C11616875   3.511   3.261   3.298
    3OL    H16R16876   3.502   3.368   3.318
    3OL    H16S16877   3.439   3.220   3.227
    3OL    C11716878   3.653   3.253   3.240
    3OL    H17R16879   3.730   3.276   3.314
    3OL    H17S16880   3.655   3.334   3.167
    3OL    C11816881   3.679   3.114   3.181
    3OL    H18R16882   3.593   3.082   3.123
    3OL    H18S16883   3.676   3.039   3.260
    3OL    H18T16884   3.775   3.113   3.130
    1PA    C11616885   5.218   1.051   3.448
    1PA    H16R16886   5.186   1.152   3.472
    1PA    H16S16887   5.130   0.990   3.427
    1PA    H16T16888   5.270   1.062   3.353
    1PA    C11516889   5.302   0.994   3.564
    1PA    H15R16890   5.383   1.063   3.586
    1PA    H15S16891   5.244   0.972   3.654
    1PA    C11416892   5.363   0.860   3.524
    1PA    H14R16893   5.302   0.769   3.521
    1PA    H14S16894   5.393   0.882   3.421
    1PA    C11316895   5.482   0.814   3.610
    1PA    H13R16896   5.572   0.874   3.593
    1PA    H13S16897   5.460   0.825   3.716
    1PA    C11216898   5.526   0.667   3.607
    1PA    H12R16899   5.603   0.660   3.683
    1PA    H12S16900   5.443   0.603   3.638
    1PA    C11116901   5.583   0.619   3.473
    1PA    H11R16902   5.619   0.517   3.490
    1PA    H11S16903   5.499   0.615   3.404
    1PA    C11016904   5.692   0.704   3.406
    1PA    H10R16905   5.643   0.797   3.376
    1PA    H10S16906   5.768   0.735   3.478
    1PA     C1916907   5.754   0.639   3.282
    1PA     H9R16908   5.809   0.551   3.317
    1PA     H9S16909   5.674   0.607   3.215
    1PA     C1816910   5.851   0.736   3.213
    1PA     H8R16911   5.804   0.825   3.169
    1PA     H8S16912   5.923   0.777   3.284
    1PA     C1716913   5.935   0.672   3.102
    1PA     H7R16914   6.017   0.740   3.078
    1PA     H7S16915   5.979   0.578   3.135
    1PA     C1616916   5.865   0.643   2.969
    1PA     H6R16917   5.796   0.559   2.979
    1PA     H6S16918   5.809   0.731   2.936
    1PA     C1516919   5.965   0.607   2.858
    1PA     H5R16920   6.046   0.680   2.854
    1PA     H5S16921   6.009   0.508   2.871
    1PA     C1416922   5.894   0.615   2.722
    1PA     H4R16923   5.956   0.553   2.657
    1PA     H4S16924   5.795   0.568   2.720
    1PA     C1316925   5.893   0.755   2.661
    1PA     H3R16926   5.819   0.756   2.580
    1PA     H3S16927   5.848   0.828   2.729
    1PA     C1216928   6.027   0.799   2.601
    1PA     H2R16929   6.093   0.840   2.678
    1PA     H2S16930   6.076   0.710   2.560
    2PC     C1116931   6.013   0.893   2.484
    2PC     O1216932   6.015   0.864   2.366
    2PC     O1116933   6.006   1.019   2.532
    2PC      C116934   6.018   1.133   2.445
    2PC      HR16935   6.034   1.222   2.507
    2PC      HS16936   6.087   1.112   2.363
    2PC      C216937   5.884   1.156   2.375
    2PC      HX16938   5.857   1.064   2.323
    2PC      C316939   5.911   1.270   2.275
    2PC      HA16940   5.975   1.233   2.195
    2PC      HB16941   5.821   1.309   2.227
    2PC     O3116942   5.986   1.376   2.336
    2PC     P3116943   6.036   1.498   2.245
    2PC     O3216944   6.094   1.602   2.352
    2PC     C3116945   6.233   1.602   2.390
    2PC     H1A16946   6.246   1.510   2.447
    2PC     H1B16947   6.298   1.605   2.302
    2PC     C3216948   6.269   1.724   2.475
    2PC     H2A16949   6.203   1.725   2.562
    2PC     H2B16950   6.367   1.725   2.523
    2PC     N3116951   6.262   1.862   2.417
    2PC     C3316952   6.391   1.936   2.432
    2PC     H3A16953   6.439   1.942   2.530
    2PC     H3B16954   6.461   1.884   2.366
    2PC     H3C16955   6.380   2.039   2.399
    2PC     C3416956   6.239   1.863   2.269
    2PC     H4A16957   6.250   1.966   2.236
    2PC     H4B16958   6.310   1.798   2.217
    2PC     H4C16959   6.138   1.827   2.251
    2PC     C3516960   6.145   1.941   2.468
    2PC     H5A16961   6.052   1.891   2.438
    2PC     H5B16962   6.155   2.045   2.435
    2PC     H5C16963   6.141   1.941   2.577
    2PC     O3316964   6.148   1.461   2.157
    2PC     O3416965   5.941   1.562   2.151
    2PC     O2116966   5.787   1.191   2.476
    2PC     C2116967   5.723   1.090   2.537
    2PC     O2216968   5.718   0.977   2.495
    3OL     C1216969   5.637   1.142   2.649
    3OL     H2R16970   5.563   1.217   2.618
    3OL     H2S16971   5.696   1.193   2.726
    3OL     C1316972   5.559   1.030   2.720
    3OL     H3R16973   5.616   0.942   2.750
    3OL     H3S16974   5.485   0.990   2.651
    3OL     C1416975   5.470   1.086   2.831
    3OL     H4R16976   5.421   0.993   2.862
    3OL     H4S16977   5.399   1.162   2.799
    3OL     C1516978   5.543   1.139   2.955
    3OL     H5R16979   5.568   1.245   2.960
    3OL     H5S16980   5.625   1.069   2.974
    3OL     C1616981   5.442   1.119   3.069
    3OL     H6R16982   5.393   1.022   3.075
    3OL     H6S16983   5.361   1.190   3.054
    3OL     C1716984   5.512   1.141   3.204
    3OL     H7R16985   5.436   1.158   3.280
    3OL     H7S16986   5.563   1.237   3.198
    3OL     C1816987   5.611   1.034   3.256
    3OL     H8R16988   5.670   1.001   3.170
    3OL     H8S16989   5.556   0.942   3.272
    3OL     C1916990   5.683   1.071   3.382
    3OL     H9R16991   5.631   1.033   3.470
    3OL    C11016992   5.773   1.167   3.398
    3OL    H10R16993   5.797   1.200   3.498
    3OL    C11116994   5.845   1.237   3.285
    3OL    H11R16995   5.813   1.340   3.275
    3OL    H11S16996   5.820   1.183   3.193
    3OL    C11216997   5.997   1.234   3.307
    3OL    H12R16998   6.054   1.276   3.223
    3OL    H12S16999   6.021   1.128   3.292
    3OL    C11317000   6.038   1.292   3.443
    3OL    H13R17001   6.144   1.268   3.459
    3OL    H13S17002   5.978   1.245   3.521
    3OL    C11417003   6.019   1.444   3.444
    3OL    H14R17004   5.925   1.482   3.405
    3OL    H14S17005   6.095   1.477   3.373
    3OL    C11517006   6.062   1.494   3.583
    3OL    H15R17007   6.099   1.597   3.585
    3OL    H15S17008   6.150   1.436   3.611
    3OL    C11617009   5.950   1.477   3.686
    3OL    H16R17010   5.935   1.369   3.694
    3OL    H16S17011   5.861   1.529   3.651
    3OL    C11717012   6.005   1.537   3.817
    3OL    H17R17013   6.015   1.645   3.803
    3OL    H17S17014   6.105   1.499   3.841
    3OL    C11817015   5.901   1.517   3.928
    3OL    H18R17016   5.923   1.577   4.016
    3OL    H18S17017   5.875   1.416   3.960
    3OL    H18T17018   5.811   1.571   3.898
    1PA    C11617019   4.429   3.117   3.652
    1PA    H16R17020   4.411   3.079   3.552
    1PA    H16S17021   4.496   3.043   3.697
    1PA    H16T17022   4.470   3.218   3.657
    1PA    C11517023   4.307   3.112   3.745
    1PA    H15R17024   4.329   3.124   3.852
    1PA    H15S17025   4.232   3.187   3.721
    1PA    C11417026   4.240   2.975   3.730
    1PA    H14R17027   4.136   2.989   3.761
    1PA    H14S17028   4.238   2.957   3.622
    1PA    C11317029   4.309   2.854   3.794
    1PA    H13R17030   4.411   2.844   3.756
    1PA    H13S17031   4.315   2.870   3.902
    1PA    C11217032   4.227   2.726   3.776
    1PA    H12R17033   4.133   2.730   3.831
    1PA    H12S17034   4.225   2.695   3.671
    1PA    C11117035   4.301   2.611   3.847
    1PA    H11R17036   4.378   2.581   3.775
    1PA    H11S17037   4.343   2.657   3.937
    1PA    C11017038   4.216   2.491   3.890
    1PA    H10R17039   4.289   2.427   3.939
    1PA    H10S17040   4.149   2.526   3.970
    1PA     C1917041   4.140   2.421   3.777
    1PA     H9R17042   4.060   2.358   3.815
    1PA     H9S17043   4.106   2.506   3.719
    1PA     C1817044   4.240   2.333   3.701
    1PA     H8R17045   4.326   2.394   3.672
    1PA     H8S17046   4.280   2.253   3.763
    1PA     C1717047   4.178   2.268   3.577
    1PA     H7R17048   4.119   2.177   3.592
    1PA     H7S17049   4.113   2.345   3.534
    1PA     C1617050   4.282   2.217   3.476
    1PA     H6R17051   4.347   2.303   3.461
    1PA     H6S17052   4.343   2.136   3.515
    1PA     C1517053   4.212   2.183   3.343
    1PA     H5R17054   4.155   2.091   3.358
    1PA     H5S17055   4.145   2.264   3.313
    1PA     C1417056   4.303   2.151   3.224
    1PA     H4R17057   4.385   2.223   3.222
    1PA     H4S17058   4.340   2.050   3.239
    1PA     C1317059   4.228   2.157   3.090
    1PA     H3R17060   4.174   2.251   3.081
    1PA     H3S17061   4.298   2.154   3.006
    1PA     C1217062   4.123   2.046   3.085
    1PA     H2R17063   4.163   1.960   3.138
    1PA     H2S17064   4.031   2.077   3.134
    2PC     C1117065   4.082   1.998   2.947
    2PC     O1217066   3.977   1.942   2.926
    2PC     O1117067   4.175   2.022   2.854
    2PC      C117068   4.160   1.994   2.713
    2PC      HR17069   4.253   2.012   2.658
    2PC      HS17070   4.142   1.887   2.698
    2PC      C217071   4.051   2.086   2.659
    2PC      HX17072   3.958   2.068   2.713
    2PC      C317073   4.019   2.052   2.512
    2PC      HA17074   3.984   1.949   2.511
    2PC      HB17075   3.934   2.114   2.482
    2PC     O3117076   4.136   2.068   2.429
    2PC     P3117077   4.110   2.014   2.280
    2PC     O3217078   4.150   2.135   2.183
    2PC     C3117079   4.106   2.123   2.047
    2PC     H1A17080   4.144   2.028   2.009
    2PC     H1B17081   3.996   2.125   2.047
    2PC     C3217082   4.148   2.242   1.959
    2PC     H2A17083   4.136   2.220   1.853
    2PC     H2B17084   4.106   2.337   1.993
    2PC     N3117085   4.292   2.281   1.956
    2PC     C3317086   4.304   2.382   1.845
    2PC     H3A17087   4.242   2.351   1.760
    2PC     H3B17088   4.268   2.480   1.876
    2PC     H3C17089   4.409   2.400   1.824
    2PC     C3417090   4.339   2.342   2.085
    2PC     H4A17091   4.443   2.369   2.064
    2PC     H4B17092   4.268   2.419   2.114
    2PC     H4C17093   4.341   2.272   2.169
    2PC     C3517094   4.389   2.172   1.922
    2PC     H5A17095   4.356   2.123   1.831
    2PC     H5B17096   4.392   2.090   1.994
    2PC     H5C17097   4.488   2.215   1.903
    2PC     O3317098   4.177   1.884   2.251
    2PC     O3417099   3.964   2.002   2.260
    2PC     O2117100   4.096   2.223   2.659
    2PC     C2117101   4.065   2.305   2.761
    2PC     O2217102   4.003   2.277   2.861
    3OL     C1217103   4.108   2.446   2.729
    3OL     H2R17104   4.105   2.458   2.621
    3OL     H2S17105   4.210   2.452   2.768
    3OL     C1317106   4.015   2.539   2.809
    3OL     H3R17107   4.022   2.528   2.918
    3OL     H3S17108   3.915   2.510   2.778
    3OL     C1417109   4.044   2.687   2.779
    3OL     H4R17110   3.954   2.746   2.794
    3OL     H4S17111   4.076   2.695   2.675
    3OL     C1517112   4.161   2.732   2.868
    3OL     H5R17113   4.255   2.677   2.864
    3OL     H5S17114   4.130   2.725   2.972
    3OL     C1617115   4.196   2.880   2.851
    3OL     H6R17116   4.106   2.940   2.868
    3OL     H6S17117   4.211   2.893   2.743
    3OL     C1717118   4.325   2.925   2.921
    3OL     H7R17119   4.367   3.013   2.873
    3OL     H7S17120   4.404   2.850   2.910
    3OL     C1817121   4.314   2.953   3.071
    3OL     H8R17122   4.417   2.947   3.107
    3OL     H8S17123   4.256   2.875   3.121
    3OL     C1917124   4.277   3.095   3.109
    3OL     H9R17125   4.343   3.168   3.064
    3OL    C11017126   4.177   3.142   3.182
    3OL    H10R17127   4.178   3.249   3.199
    3OL    C11117128   4.071   3.075   3.266
    3OL    H11R17129   4.045   2.974   3.236
    3OL    H11S17130   3.979   3.133   3.249
    3OL    C11217131   4.105   3.075   3.416
    3OL    H12R17132   4.160   3.167   3.439
    3OL    H12S17133   4.178   2.996   3.439
    3OL    C11317134   3.983   3.058   3.507
    3OL    H13R17135   3.928   3.151   3.496
    3OL    H13S17136   4.022   3.046   3.609
    3OL    C11417137   3.888   2.943   3.470
    3OL    H14R17138   3.867   2.936   3.363
    3OL    H14S17139   3.794   2.951   3.525
    3OL    C11517140   3.941   2.806   3.513
    3OL    H15R17141   3.937   2.796   3.622
    3OL    H15S17142   4.043   2.785   3.478
    3OL    C11617143   3.847   2.694   3.467
    3OL    H16R17144   3.743   2.728   3.468
    3OL    H16S17145   3.860   2.604   3.527
    3OL    C11717146   3.880   2.655   3.322
    3OL    H17R17147   3.893   2.742   3.256
    3OL    H17S17148   3.793   2.600   3.286
    3OL    C11817149   3.991   2.550   3.314
    3OL    H18R17150   3.979   2.464   3.380
    3OL    H18S17151   4.089   2.593   3.336
    3OL    H18T17152   3.990   2.500   3.216
    4SOL     OW17153   1.944   0.968   7.446
    4SOL    HW117154   1.999   0.906   7.399
    4SOL    HW217155   2.004   1.013   7.506
    5SOL     OW17156   4.562   5.859   1.328
    5SOL    HW117157   4.601   5.926   1.385
    5SOL    HW217158   4.636   5.804   1.302
    6SOL     OW17159   2.648   2.525   7.703
    6SOL    HW117160   2.682   2.436   7.699
    6SOL    HW217161   2.725   2.581   7.702
    7SOL     OW17162   6.144   5.076   0.131
    7SOL    HW117163   6.076   5.030   0.082
    7SOL    HW217164   6.151   5.162   0.090
    8SOL     OW17165   6.270   2.793   7.249
    8SOL    HW117166   6.317   2.871   7.218
    8SOL    HW217167   6.302   2.722   7.193
    9SOL     OW17168   4.150   4.755   0.833
    9SOL    HW117169   4.142   4.738   0.739
    9SOL    HW217170   4.071   4.806   0.854
   10SOL     OW17171   0.838   0.058   6.262
   10SOL    HW117172   0.814   0.065   6.355
   10SOL    HW217173   0.756   0.070   6.215
   11SOL     OW17174   1.729   0.763   2.189
   11SOL    HW117175   1.792   0.792   2.123
   11SOL    HW217176   1.783   0.748   2.267
   12SOL     OW17177   1.836   1.218   0.532
   12SOL    HW117178   1.800   1.271   0.603
   12SOL    HW217179   1.866   1.282   0.468
   13SOL     OW17180   4.979   2.872   6.180
   13SOL    HW117181   5.057   2.856   6.233
   13SOL    HW217182   4.989   2.813   6.105
   14SOL     OW17183   0.313   3.126   0.081
   14SOL    HW117184   0.376   3.191   0.111
   14SOL    HW217185   0.288   3.156  -0.006
   15SOL     OW17186   2.683   5.791   6.582
   15SOL    HW117187   2.695   5.742   6.501
   15SOL    HW217188   2.667   5.881   6.553
   16SOL     OW17189   4.979   0.347   1.750
   16SOL    HW117190   4.906   0.310   1.800
   16SOL    HW217191   5.018   0.412   1.809
   17SOL     OW17192   4.693   6.423   0.796
   17SOL    HW117193   4.635   6.495   0.770
   17SOL    HW217194   4.775   6.440   0.750
   18SOL     OW17195   1.077   1.890   1.644
   18SOL    HW117196   1.048   1.918   1.731
   18SOL    HW217197   1.134   1.815   1.662
   19SOL     OW17198   3.734   3.298   7.142
   19SOL    HW117199   3.693   3.217   7.111
   19SOL    HW217200   3.667   3.340   7.196
   20SOL     OW17201   4.954   3.797   0.189
   20SOL    HW117202   4.879   3.765   0.139
   20SOL    HW217203   5.026   3.740   0.163
   21SOL     OW17204   4.500   2.386   6.989
   21SOL    HW117205   4.443   2.384   7.066
   21SOL    HW217206   4.500   2.297   6.956
   22SOL     OW17207   5.386   4.857   2.993
   22SOL    HW117208   5.444   4.932   3.006
   22SOL    HW217209   5.438   4.782   3.021
   23SOL     OW17210   6.301   2.983   2.783
   23SOL    HW117211   6.295   2.888   2.793
   23SOL    HW217212   6.375   3.008   2.838
   24SOL     OW17213   6.200   5.929   0.604
   24SOL    HW117214   6.264   5.992   0.637
   24SOL    HW217215   6.252   5.853   0.579
   25SOL     OW17216   1.391   3.975   1.035
   25SOL    HW117217   1.485   3.983   1.053
   25SOL    HW217218   1.386   3.926   0.953
   26SOL     OW17219   5.538   3.536   7.634
   26SOL    HW117220   5.443   3.523   7.641
   26SOL    HW217221   5.558   3.518   7.542
   27SOL     OW17222   6.178   6.394   6.787
   27SOL    HW117223   6.256   6.415   6.735
   27SOL    HW217224   6.211   6.346   6.863
   28SOL     OW17225   2.849   2.702   0.236
   28SOL    HW117226   2.884   2.658   0.159
   28SOL    HW217227   2.775   2.648   0.263
   29SOL     OW17228   3.530   2.399   2.684
   29SOL    HW117229   3.551   2.483   2.644
   29SOL    HW217230   3.456   2.419   2.742
   30SOL     OW17231   5.917   5.619   7.169
   30SOL    HW117232   5.884   5.600   7.256
   30SOL    HW217233   5.992   5.560   7.158
   31SOL     OW17234   5.929   2.193   7.095
   31SOL    HW117235   5.963   2.230   7.177
   31SOL    HW217236   5.924   2.268   7.036
   32SOL     OW17237   0.394   1.649   6.685
   32SOL    HW117238   0.352   1.607   6.611
   32SOL    HW217239   0.474   1.688   6.648
   33SOL     OW17240   5.316   3.994   0.927
   33SOL    HW117241   5.244   4.029   0.874
   33SOL    HW217242   5.301   4.031   1.014
   34SOL     OW17243   3.715   0.041   0.974
   34SOL    HW117244   3.720  -0.029   0.909
   34SOL    HW217245   3.768   0.010   1.047
   35SOL     OW17246   2.077   2.188   6.319
   35SOL    HW117247   2.078   2.258   6.385
   35SOL    HW217248   2.148   2.130   6.345
   36SOL     OW17249   3.760   1.440   6.385
   36SOL    HW117250   3.760   1.372   6.318
   36SOL    HW217251   3.689   1.499   6.361
   37SOL     OW17252   1.748   1.914   7.509
   37SOL    HW117253   1.843   1.927   7.518
   37SOL    HW217254   1.733   1.825   7.539
   38SOL     OW17255   6.385   6.426   7.035
   38SOL    HW117256   6.473   6.430   6.996
   38SOL    HW217257   6.327   6.456   6.965
   39SOL     OW17258   5.873   4.003   0.884
   39SOL    HW117259   5.832   4.089   0.876
   39SOL    HW217260   5.847   3.956   0.804
   40SOL     OW17261   1.154   1.686   0.844
   40SOL    HW117262   1.072   1.698   0.892
   40SOL    HW217263   1.129   1.636   0.766
   41SOL     OW17264   4.020   0.655   0.920
   41SOL    HW117265   4.038   0.692   0.833
   41SOL    HW217266   4.091   0.688   0.975
   42SOL     OW17267   2.557   5.967   7.171
   42SOL    HW117268   2.630   6.006   7.218
   42SOL    HW217269   2.589   5.959   7.080
   43SOL     OW17270   6.119   3.270   2.359
   43SOL    HW117271   6.208   3.235   2.352
   43SOL    HW217272   6.085   3.267   2.269
   44SOL     OW17273   5.965   5.579   0.718
   44SOL    HW117274   5.887   5.578   0.774
   44SOL    HW217275   5.946   5.646   0.652
   45SOL     OW17276   5.839   1.075   2.029
   45SOL    HW117277   5.928   1.080   2.064
   45SOL    HW217278   5.849   1.034   1.944
   46SOL     OW17279   0.024   4.349   5.535
   46SOL    HW117280   0.068   4.433   5.521
   46SOL    HW217281   0.061   4.317   5.617
   47SOL     OW17282   3.004   1.042   0.002
   47SOL    HW117283   3.058   1.023   0.078
   47SOL    HW217284   3.013   0.965  -0.054
   48SOL     OW17285   3.562   0.803   7.606
   48SOL    HW117286   3.598   0.775   7.522
   48SOL    HW217287   3.591   0.737   7.668
   49SOL     OW17288   6.321   1.940   0.205
   49SOL    HW117289   6.283   1.875   0.147
   49SOL    HW217290   6.359   1.889   0.277
   50SOL     OW17291   0.163   3.051   7.344
   50SOL    HW117292   0.169   2.962   7.311
   50SOL    HW217293   0.098   3.094   7.287
   51SOL     OW17294   4.187   0.824   1.049
   51SOL    HW117295   4.201   0.918   1.059
   51SOL    HW217296   4.275   0.788   1.033
   52SOL     OW17297   5.854   2.130   1.055
   52SOL    HW117298   5.853   2.172   1.141
   52SOL    HW217299   5.814   2.044   1.069
   53SOL     OW17300   6.087   5.448   1.162
   53SOL    HW117301   6.148   5.374   1.154
   53SOL    HW217302   6.110   5.505   1.088
   54SOL     OW17303   4.020   3.563   1.090
   54SOL    HW117304   3.941   3.616   1.101
   54SOL    HW217305   4.079   3.594   1.159
   55SOL     OW17306   5.323   2.701   1.314
   55SOL    HW117307   5.348   2.762   1.245
   55SOL    HW217308   5.228   2.700   1.313
   56SOL     OW17309   3.316   4.789   5.637
   56SOL    HW117310   3.405   4.782   5.603
   56SOL    HW217311   3.281   4.868   5.595
   57SOL     OW17312   6.387   3.682   6.435
   57SOL    HW117313   6.408   3.737   6.359
   57SOL    HW217314   6.457   3.701   6.498
   58SOL     OW17315   4.649   1.385   7.394
   58SOL    HW117316   4.721   1.442   7.423
   58SOL    HW217317   4.609   1.433   7.322
   59SOL     OW17318   1.768   1.995   7.211
   59SOL    HW117319   1.820   2.047   7.272
   59SOL    HW217320   1.728   1.927   7.265
   60SOL     OW17321   0.212   1.625   0.416
   60SOL    HW117322   0.141   1.572   0.453
   60SOL    HW217323   0.169   1.677   0.347
   61SOL     OW17324   3.187   2.214   0.335
   61SOL    HW117325   3.189   2.234   0.428
   61SOL    HW217326   3.190   2.299   0.292
   62SOL     OW17327   1.921   6.423   1.692
   62SOL    HW117328   1.995   6.480   1.673
   62SOL    HW217329   1.870   6.421   1.611
   63SOL     OW17330   3.099   3.466   0.992
   63SOL    HW117331   3.139   3.403   1.052
   63SOL    HW217332   3.173   3.505   0.946
   64SOL     OW17333   4.198   3.283   5.642
   64SOL    HW117334   4.164   3.196   5.625
   64SOL    HW217335   4.164   3.306   5.728
   65SOL     OW17336   3.022   4.673   1.533
   65SOL    HW117337   3.062   4.748   1.576
   65SOL    HW217338   3.073   4.598   1.563
   66SOL     OW17339   2.247   6.200   0.497
   66SOL    HW117340   2.268   6.170   0.409
   66SOL    HW217341   2.153   6.190   0.505
   67SOL     OW17342   5.439   2.553   7.029
   67SOL    HW117343   5.418   2.628   6.972
   67SOL    HW217344   5.473   2.487   6.969
   68SOL     OW17345   3.237   4.437   0.494
   68SOL    HW117346   3.328   4.460   0.479
   68SOL    HW217347   3.228   4.432   0.590
   69SOL     OW17348   5.425   1.083   6.910
   69SOL    HW117349   5.500   1.027   6.890
   69SOL    HW217350   5.363   1.067   6.838
   70SOL     OW17351   0.969   6.377   7.322
   70SOL    HW117352   0.947   6.387   7.415
   70SOL    HW217353   0.999   6.463   7.295
   71SOL     OW17354   4.530   1.785   1.806
   71SOL    HW117355   4.624   1.773   1.818
   71SOL    HW217356   4.522   1.827   1.720
   72SOL     OW17357   1.516   0.991   7.329
   72SOL    HW117358   1.551   0.950   7.250
   72SOL    HW217359   1.447   0.932   7.358
   73SOL     OW17360   0.874   5.044   6.272
   73SOL    HW117361   0.853   5.137   6.262
   73SOL    HW217362   0.930   5.040   6.349
   74SOL     OW17363   5.694   3.268   5.884
   74SOL    HW117364   5.771   3.319   5.857
   74SOL    HW217365   5.723   3.223   5.964
   75SOL     OW17366   5.882   5.933   0.201
   75SOL    HW117367   5.884   6.029   0.199
   75SOL    HW217368   5.968   5.908   0.237
   76SOL     OW17369   5.504   3.501   6.578
   76SOL    HW117370   5.500   3.410   6.546
   76SOL    HW217371   5.434   3.546   6.530
   77SOL     OW17372   2.164   0.636   0.211
   77SOL    HW117373   2.081   0.684   0.207
   77SOL    HW217374   2.156   0.582   0.290
   78SOL     OW17375   5.703   1.648   7.701
   78SOL    HW117376   5.787   1.693   7.692
   78SOL    HW217377   5.707   1.577   7.637
   79SOL     OW17378   3.091   2.925   7.368
   79SOL    HW117379   3.016   2.975   7.337
   79SOL    HW217380   3.059   2.835   7.375
   80SOL     OW17381   5.154   0.223   7.718
   80SOL    HW117382   5.237   0.208   7.763
   80SOL    HW217383   5.090   0.230   7.788
   81SOL     OW17384   1.575   6.090   0.059
   81SOL    HW117385   1.640   6.040   0.109
   81SOL    HW217386   1.599   6.076  -0.033
   82SOL     OW17387   0.474   4.984   5.853
   82SOL    HW117388   0.397   4.937   5.820
   82SOL    HW217389   0.546   4.952   5.799
   83SOL     OW17390   3.391   2.216   0.050
   83SOL    HW117391   3.393   2.294   0.105
   83SOL    HW217392   3.364   2.146   0.109
   84SOL     OW17393   2.154   2.280   1.855
   84SOL    HW117394   2.107   2.240   1.928
   84SOL    HW217395   2.164   2.372   1.880
   85SOL     OW17396   6.016   0.714   1.421
   85SOL    HW117397   6.004   0.809   1.413
   85SOL    HW217398   6.050   0.702   1.510
   86SOL     OW17399   0.013   2.307   7.264
   86SOL    HW117400  -0.009   2.254   7.188
   86SOL    HW217401   0.042   2.391   7.228
   87SOL     OW17402   6.332   5.778   0.113
   87SOL    HW117403   6.298   5.739   0.033
   87SOL    HW217404   6.311   5.871   0.104
   88SOL     OW17405   3.378   3.068   1.724
   88SOL    HW117406   3.385   3.132   1.794
   88SOL    HW217407   3.469   3.052   1.698
   89SOL     OW17408   6.094   3.847   1.513
   89SOL    HW117409   6.049   3.821   1.593
   89SOL    HW217410   6.079   3.942   1.508
   90SOL     OW17411   2.533   1.274   1.408
   90SOL    HW117412   2.581   1.317   1.337
   90SOL    HW217413   2.524   1.183   1.380
   91SOL     OW17414   0.381   0.578   7.503
   91SOL    HW117415   0.324   0.654   7.508
   91SOL    HW217416   0.330   0.507   7.543
   92SOL     OW17417   3.337   4.175   7.459
   92SOL    HW117418   3.325   4.270   7.455
   92SOL    HW217419   3.388   4.161   7.539
   93SOL     OW17420   3.467   0.855   0.314
   93SOL    HW117421   3.467   0.947   0.286
   93SOL    HW217422   3.399   0.814   0.260
   94SOL     OW17423   5.521   1.142   6.259
   94SOL    HW117424   5.506   1.203   6.187
   94SOL    HW217425   5.616   1.128   6.259
   95SOL     OW17426   2.080   3.932   0.209
   95SOL    HW117427   2.118   3.961   0.291
   95SOL    HW217428   2.062   4.012   0.160
   96SOL     OW17429   0.053   5.020   1.620
   96SOL    HW117430   0.072   4.980   1.536
   96SOL    HW217431   0.137   5.052   1.652
   97SOL     OW17432   5.864   6.096   7.524
   97SOL    HW117433   5.888   6.157   7.595
   97SOL    HW217434   5.881   6.009   7.560
   98SOL     OW17435   0.520   6.415   0.231
   98SOL    HW117436   0.432   6.380   0.218
   98SOL    HW217437   0.530   6.421   0.325
   99SOL     OW17438   2.846   2.118   2.168
   99SOL    HW117439   2.904   2.158   2.233
   99SOL    HW217440   2.900   2.053   2.124
  100SOL     OW17441   3.242   1.823   6.233
  100SOL    HW117442   3.205   1.796   6.149
  100SOL    HW217443   3.174   1.803   6.297
  101SOL     OW17444   5.660   0.166   1.087
  101SOL    HW117445   5.712   0.203   1.158
  101SOL    HW217446   5.648   0.074   1.111
  102SOL     OW17447   3.352   1.101   0.660
  102SOL    HW117448   3.282   1.073   0.600
  102SOL    HW217449   3.429   1.052   0.632
  103SOL     OW17450   1.288   6.320   7.133
  103SOL    HW117451   1.250   6.407   7.135
  103SOL    HW217452   1.238   6.270   7.197
  104SOL     OW17453   5.947   1.939   0.122
  104SOL    HW117454   5.853   1.961   0.121
  104SOL    HW217455   5.976   1.967   0.209
  105SOL     OW17456   5.466   5.260   1.140
  105SOL    HW117457   5.541   5.204   1.121
  105SOL    HW217458   5.397   5.199   1.167
  106SOL     OW17459   0.105   5.002   7.713
  106SOL    HW117460   0.030   4.988   7.655
  106SOL    HW217461   0.141   4.915   7.728
  107SOL     OW17462   3.371   4.715   6.228
  107SOL    HW117463   3.432   4.726   6.301
  107SOL    HW217464   3.393   4.786   6.167
  108SOL     OW17465   5.785   3.549   0.719
  108SOL    HW117466   5.722   3.543   0.647
  108SOL    HW217467   5.749   3.616   0.777
  109SOL     OW17468   3.444   1.396   2.622
  109SOL    HW117469   3.490   1.350   2.692
  109SOL    HW217470   3.477   1.486   2.626
  110SOL     OW17471   3.620   4.519   7.113
  110SOL    HW117472   3.573   4.471   7.044
  110SOL    HW217473   3.711   4.521   7.084
  111SOL     OW17474   2.442   4.991   0.788
  111SOL    HW117475   2.533   5.016   0.771
  111SOL    HW217476   2.392   5.035   0.721
  112SOL     OW17477   6.304   5.529   7.100
  112SOL    HW117478   6.313   5.567   7.013
  112SOL    HW217479   6.377   5.567   7.150
  113SOL     OW17480   5.115   2.621   6.170
  113SOL    HW117481   5.113   2.536   6.214
  113SOL    HW217482   5.108   2.601   6.077
  114SOL     OW17483   1.864   3.336   0.089
  114SOL    HW117484   1.845   3.255   0.043
  114SOL    HW217485   1.880   3.401   0.020
  115SOL     OW17486   2.490   2.191   2.480
  115SOL    HW117487   2.580   2.218   2.462
  115SOL    HW217488   2.484   2.102   2.446
  116SOL     OW17489   4.189   4.249   1.560
  116SOL    HW117490   4.148   4.301   1.491
  116SOL    HW217491   4.116   4.201   1.600
  117SOL     OW17492   3.711   0.208   2.112
  117SOL    HW117493   3.741   0.120   2.092
  117SOL    HW217494   3.782   0.266   2.084
  118SOL     OW17495   3.398   3.609   7.433
  118SOL    HW117496   3.406   3.704   7.429
  118SOL    HW217497   3.477   3.580   7.477
  119SOL     OW17498   0.046   5.494   0.643
  119SOL    HW117499  -0.045   5.498   0.672
  119SOL    HW217500   0.092   5.556   0.700
  120SOL     OW17501   2.340   4.207   0.296
  120SOL    HW117502   2.386   4.276   0.343
  120SOL    HW217503   2.272   4.252   0.247
  121SOL     OW17504   1.531   0.269   5.743
  121SOL    HW117505   1.581   0.266   5.662
  121SOL    HW217506   1.576   0.208   5.802
  122SOL     OW17507   0.207   4.617   6.923
  122SOL    HW117508   0.289   4.585   6.959
  122SOL    HW217509   0.139   4.582   6.981
  123SOL     OW17510   1.088   3.088   0.427
  123SOL    HW117511   1.173   3.111   0.389
  123SOL    HW217512   1.095   3.115   0.518
  124SOL     OW17513   6.070   1.638   5.955
  124SOL    HW117514   6.133   1.701   5.989
  124SOL    HW217515   5.991   1.689   5.939
  125SOL     OW17516   4.341   4.034   1.461
  125SOL    HW117517   4.306   4.118   1.491
  125SOL    HW217518   4.287   4.011   1.386
  126SOL     OW17519   4.674   3.852   7.214
  126SOL    HW117520   4.647   3.761   7.229
  126SOL    HW217521   4.747   3.845   7.152
  127SOL     OW17522   0.826   4.322   2.967
  127SOL    HW117523   0.875   4.248   3.004
  127SOL    HW217524   0.890   4.393   2.961
  128SOL     OW17525   5.286   3.291   0.605
  128SOL    HW117526   5.335   3.264   0.683
  128SOL    HW217527   5.276   3.210   0.554
  129SOL     OW17528   1.515   5.547   0.234
  129SOL    HW117529   1.554   5.607   0.170
  129SOL    HW217530   1.539   5.460   0.202
  130SOL     OW17531   0.406   0.984   0.065
  130SOL    HW117532   0.335   0.935   0.107
  130SOL    HW217533   0.398   1.072   0.101
  131SOL     OW17534   5.023   3.379   2.040
  131SOL    HW117535   5.040   3.412   2.128
  131SOL    HW217536   5.016   3.284   2.051
  132SOL     OW17537   4.911   3.488   7.052
  132SOL    HW117538   4.860   3.460   6.976
  132SOL    HW217539   4.994   3.440   7.044
  133SOL     OW17540   3.937   5.265   0.625
  133SOL    HW117541   3.851   5.238   0.658
  133SOL    HW217542   3.968   5.329   0.689
  134SOL     OW17543   1.809   4.439   7.132
  134SOL    HW117544   1.833   4.428   7.224
  134SOL    HW217545   1.891   4.457   7.087
  135SOL     OW17546   2.742   0.758   1.988
  135SOL    HW117547   2.673   0.699   2.019
  135SOL    HW217548   2.798   0.771   2.065
  136SOL     OW17549   5.283   0.364   1.230
  136SOL    HW117550   5.331   0.394   1.152
  136SOL    HW217551   5.235   0.441   1.260
  137SOL     OW17552   2.955   1.363   0.207
  137SOL    HW117553   2.922   1.413   0.281
  137SOL    HW217554   3.050   1.362   0.219
  138SOL     OW17555   1.132   1.103   7.505
  138SOL    HW117556   1.177   1.185   7.485
  138SOL    HW217557   1.130   1.099   7.601
  139SOL     OW17558   0.148   1.464   7.028
  139SOL    HW117559   0.177   1.552   7.053
  139SOL    HW217560   0.213   1.435   6.963
  140SOL     OW17561   4.717   3.418   5.626
  140SOL    HW117562   4.719   3.322   5.628
  140SOL    HW217563   4.779   3.444   5.694
  141SOL     OW17564   4.809   3.623   6.070
  141SOL    HW117565   4.856   3.678   6.133
  141SOL    HW217566   4.753   3.568   6.124
  142SOL     OW17567   2.306   0.650   7.294
  142SOL    HW117568   2.373   0.663   7.227
  142SOL    HW217569   2.285   0.556   7.288
  143SOL     OW17570   5.246   3.456   1.759
  143SOL    HW117571   5.260   3.380   1.702
  143SOL    HW217572   5.197   3.421   1.834
  144SOL     OW17573   6.220   3.010   6.373
  144SOL    HW117574   6.166   3.036   6.448
  144SOL    HW217575   6.266   3.091   6.349
  145SOL     OW17576   6.318   4.919   0.251
  145SOL    HW117577   6.260   4.964   0.189
  145SOL    HW217578   6.281   4.939   0.336
  146SOL     OW17579   0.907   0.326   0.685
  146SOL    HW117580   0.877   0.381   0.757
  146SOL    HW217581   0.872   0.239   0.704
  147SOL     OW17582   6.310   5.687   6.576
  147SOL    HW117583   6.272   5.713   6.492
  147SOL    HW217584   6.304   5.591   6.576
  148SOL     OW17585   5.326   1.290   7.393
  148SOL    HW117586   5.304   1.382   7.406
  148SOL    HW217587   5.247   1.243   7.420
  149SOL     OW17588   2.764   5.773   7.701
  149SOL    HW117589   2.772   5.866   7.724
  149SOL    HW217590   2.847   5.752   7.658
  150SOL     OW17591   3.949   3.427   7.038
  150SOL    HW117592   3.887   3.452   7.106
  150SOL    HW217593   3.923   3.339   7.013
  151SOL     OW17594   3.668   2.254   7.122
  151SOL    HW117595   3.687   2.168   7.159
  151SOL    HW217596   3.642   2.235   7.031
  152SOL     OW17597   2.082   1.472   1.307
  152SOL    HW117598   2.178   1.472   1.304
  152SOL    HW217599   2.060   1.556   1.346
  153SOL     OW17600   4.057   0.271   6.314
  153SOL    HW117601   4.036   0.351   6.265
  153SOL    HW217602   4.151   0.260   6.304
  154SOL     OW17603   6.291   6.227   0.023
  154SOL    HW117604   6.384   6.228   0.001
  154SOL    HW217605   6.275   6.138   0.055
  155SOL     OW17606   2.558   1.021   1.322
  155SOL    HW117607   2.522   0.980   1.243
  155SOL    HW217608   2.653   1.019   1.309
  156SOL     OW17609   4.968   0.146   6.586
  156SOL    HW117610   4.976   0.143   6.681
  156SOL    HW217611   4.906   0.217   6.569
  157SOL     OW17612   0.840   1.153   6.840
  157SOL    HW117613   0.881   1.240   6.836
  157SOL    HW217614   0.909   1.096   6.873
  158SOL     OW17615   1.544   2.705   2.118
  158SOL    HW117616   1.491   2.780   2.090
  158SOL    HW217617   1.479   2.638   2.141
  159SOL     OW17618   1.552   3.446   1.961
  159SOL    HW117619   1.552   3.486   2.048
  159SOL    HW217620   1.491   3.373   1.968
  160SOL     OW17621   5.676   0.967   0.659
  160SOL    HW117622   5.744   1.020   0.616
  160SOL    HW217623   5.683   0.990   0.751
  161SOL     OW17624   6.044   3.406   7.330
  161SOL    HW117625   5.983   3.467   7.288
  161SOL    HW217626   6.031   3.324   7.283
  162SOL     OW17627   2.189   1.725   2.781
  162SOL    HW117628   2.149   1.641   2.759
  162SOL    HW217629   2.282   1.714   2.762
  163SOL     OW17630   3.286   6.069   7.266
  163SOL    HW117631   3.281   6.156   7.305
  163SOL    HW217632   3.378   6.058   7.242
  164SOL     OW17633   4.948   4.205   1.796
  164SOL    HW117634   4.907   4.123   1.769
  164SOL    HW217635   4.883   4.248   1.852
  165SOL     OW17636   0.990   4.821   1.044
  165SOL    HW117637   1.027   4.833   0.956
  165SOL    HW217638   1.014   4.901   1.091
  166SOL     OW17639   0.781   4.881   6.934
  166SOL    HW117640   0.784   4.974   6.955
  166SOL    HW217641   0.788   4.878   6.838
  167SOL     OW17642   2.154   5.986   2.373
  167SOL    HW117643   2.079   6.022   2.326
  167SOL    HW217644   2.212   6.061   2.388
  168SOL     OW17645   1.534   5.685   6.716
  168SOL    HW117646   1.531   5.740   6.794
  168SOL    HW217647   1.456   5.630   6.722
  169SOL     OW17648   6.398   1.128   0.077
  169SOL    HW117649   6.374   1.165   0.162
  169SOL    HW217650   6.316   1.124   0.028
  170SOL     OW17651   2.256   0.822   6.421
  170SOL    HW117652   2.251   0.739   6.373
  170SOL    HW217653   2.165   0.852   6.426
  171SOL     OW17654   2.814   5.436   6.702
  171SOL    HW117655   2.787   5.366   6.762
  171SOL    HW217656   2.784   5.406   6.616
  172SOL     OW17657   2.098   2.352   0.767
  172SOL    HW117658   2.006   2.328   0.758
  172SOL    HW217659   2.128   2.364   0.677
  173SOL     OW17660   0.883   6.221   6.574
  173SOL    HW117661   0.931   6.236   6.655
  173SOL    HW217662   0.852   6.131   6.580
  174SOL     OW17663   2.141   2.501   7.541
  174SOL    HW117664   2.115   2.468   7.626
  174SOL    HW217665   2.236   2.511   7.547
  175SOL     OW17666   0.484   4.795   0.658
  175SOL    HW117667   0.499   4.885   0.686
  175SOL    HW217668   0.524   4.741   0.726
  176SOL     OW17669   3.453   4.486   7.338
  176SOL    HW117670   3.516   4.480   7.267
  176SOL    HW217671   3.384   4.424   7.315
  177SOL     OW17672   1.011   5.226   2.019
  177SOL    HW117673   0.989   5.165   2.089
  177SOL    HW217674   1.041   5.305   2.064
  178SOL     OW17675   1.575   2.934   7.651
  178SOL    HW117676   1.583   2.856   7.595
  178SOL    HW217677   1.491   2.972   7.627
  179SOL     OW17678   5.520   1.648   0.858
  179SOL    HW117679   5.557   1.636   0.945
  179SOL    HW217680   5.521   1.743   0.844
  180SOL     OW17681   0.912   6.268   0.481
  180SOL    HW117682   0.836   6.302   0.528
  180SOL    HW217683   0.984   6.278   0.542
  181SOL     OW17684   1.231   2.683   7.240
  181SOL    HW117685   1.147   2.715   7.208
  181SOL    HW217686   1.279   2.658   7.161
  182SOL     OW17687   2.272   1.202   0.099
  182SOL    HW117688   2.277   1.184   0.193
  182SOL    HW217689   2.362   1.223   0.074
  183SOL     OW17690   6.359   6.112   0.704
  183SOL    HW117691   6.318   6.185   0.751
  183SOL    HW217692   6.432   6.152   0.657
  184SOL     OW17693   1.823   3.371   6.909
  184SOL    HW117694   1.909   3.329   6.920
  184SOL    HW217695   1.834   3.458   6.947
  185SOL     OW17696   5.151   0.606   7.139
  185SOL    HW117697   5.176   0.698   7.134
  185SOL    HW217698   5.077   0.605   7.199
  186SOL     OW17699   1.305   6.161   0.413
  186SOL    HW117700   1.388   6.154   0.365
  186SOL    HW217701   1.254   6.085   0.384
  187SOL     OW17702   3.962   2.221   1.457
  187SOL    HW117703   3.974   2.314   1.476
  187SOL    HW217704   3.923   2.186   1.537
  188SOL     OW17705   4.238   1.295   2.566
  188SOL    HW117706   4.157   1.272   2.520
  188SOL    HW217707   4.240   1.391   2.565
  189SOL     OW17708   2.180   2.438   2.633
  189SOL    HW117709   2.160   2.446   2.540
  189SOL    HW217710   2.141   2.517   2.673
  190SOL     OW17711   4.340   5.456   7.534
  190SOL    HW117712   4.375   5.498   7.612
  190SOL    HW217713   4.416   5.422   7.487
  191SOL     OW17714   1.845   1.037   7.160
  191SOL    HW117715   1.928   0.991   7.148
  191SOL    HW217716   1.843   1.059   7.253
  192SOL     OW17717   0.934   3.629   7.322
  192SOL    HW117718   0.980   3.688   7.381
  192SOL    HW217719   0.921   3.549   7.373
  193SOL     OW17720   1.121   0.570   1.631
  193SOL    HW117721   1.118   0.503   1.563
  193SOL    HW217722   1.175   0.532   1.700
  194SOL     OW17723   0.218   4.171   0.114
  194SOL    HW117724   0.173   4.106   0.168
  194SOL    HW217725   0.302   4.131   0.092
  195SOL     OW17726   0.438   5.629   2.343
  195SOL    HW117727   0.436   5.654   2.251
  195SOL    HW217728   0.475   5.705   2.388
  196SOL     OW17729   0.408   2.114   1.576
  196SOL    HW117730   0.440   2.191   1.623
  196SOL    HW217731   0.412   2.139   1.483
  197SOL     OW17732   4.814   4.293   6.305
  197SOL    HW117733   4.849   4.212   6.344
  197SOL    HW217734   4.847   4.292   6.215
  198SOL     OW17735   3.010   3.570   2.084
  198SOL    HW117736   3.058   3.639   2.037
  198SOL    HW217737   2.963   3.617   2.154
  199SOL     OW17738   3.423   1.753   1.659
  199SOL    HW117739   3.486   1.782   1.725
  199SOL    HW217740   3.375   1.682   1.700
  200SOL     OW17741   4.627   3.393   6.028
  200SOL    HW117742   4.695   3.348   5.978
  200SOL    HW217743   4.548   3.383   5.975
  201SOL     OW17744   1.093   3.435   6.534
  201SOL    HW117745   1.065   3.527   6.539
  201SOL    HW217746   1.117   3.412   6.623
  202SOL     OW17747   3.593   5.523   1.031
  202SOL    HW117748   3.535   5.590   0.995
  202SOL    HW217749   3.681   5.552   1.005
  203SOL     OW17750   4.263   6.135   7.496
  203SOL    HW117751   4.184   6.124   7.549
  203SOL    HW217752   4.300   6.047   7.489
  204SOL     OW17753   0.872   1.387   7.272
  204SOL    HW117754   0.857   1.468   7.224
  204SOL    HW217755   0.784   1.351   7.285
  205SOL     OW17756   0.825   3.201   0.655
  205SOL    HW117757   0.822   3.282   0.705
  205SOL    HW217758   0.843   3.133   0.720
  206SOL     OW17759   4.923   2.629   0.221
  206SOL    HW117760   4.863   2.648   0.292
  206SOL    HW217761   4.926   2.533   0.217
  207SOL     OW17762   2.550   6.060   1.874
  207SOL    HW117763   2.618   6.124   1.895
  207SOL    HW217764   2.515   6.034   1.959
  208SOL     OW17765   0.568   2.650   6.126
  208SOL    HW117766   0.564   2.729   6.180
  208SOL    HW217767   0.477   2.633   6.102
  209SOL     OW17768   4.989   1.801   0.331
  209SOL    HW117769   5.030   1.746   0.397
  209SOL    HW217770   4.961   1.880   0.378
  210SOL     OW17771   5.230   2.742   0.981
  210SOL    HW117772   5.296   2.780   1.038
  210SOL    HW217773   5.193   2.670   1.031
  211SOL     OW17774   5.301   2.731   7.449
  211SOL    HW117775   5.206   2.742   7.462
  211SOL    HW217776   5.309   2.661   7.385
  212SOL     OW17777   0.281   5.480   0.973
  212SOL    HW117778   0.369   5.494   0.938
  212SOL    HW217779   0.250   5.400   0.930
  213SOL     OW17780   1.336   1.407   7.582
  213SOL    HW117781   1.282   1.408   7.661
  213SOL    HW217782   1.425   1.397   7.615
  214SOL     OW17783   1.213   2.078   6.753
  214SOL    HW117784   1.247   2.119   6.832
  214SOL    HW217785   1.268   2.113   6.682
  215SOL     OW17786   4.603   3.830   5.330
  215SOL    HW117787   4.690   3.840   5.292
  215SOL    HW217788   4.604   3.742   5.368
  216SOL     OW17789   3.002   1.809   3.101
  216SOL    HW117790   3.027   1.761   3.022
  216SOL    HW217791   2.907   1.796   3.108
  217SOL     OW17792   2.430   2.901   2.872
  217SOL    HW117793   2.412   2.943   2.788
  217SOL    HW217794   2.478   2.966   2.923
  218SOL     OW17795   1.629   2.328   2.533
  218SOL    HW117796   1.661   2.240   2.513
  218SOL    HW217797   1.616   2.369   2.448
  219SOL     OW17798   5.755   5.649   6.930
  219SOL    HW117799   5.683   5.592   6.956
  219SOL    HW217800   5.814   5.649   7.006
  220SOL     OW17801   5.171   3.005   5.956
  220SOL    HW117802   5.218   2.921   5.953
  220SOL    HW217803   5.233   3.065   5.998
  221SOL     OW17804   1.848   5.265   7.286
  221SOL    HW117805   1.919   5.288   7.227
  221SOL    HW217806   1.769   5.300   7.245
  222SOL     OW17807   0.743   1.727   0.791
  222SOL    HW117808   0.804   1.690   0.855
  222SOL    HW217809   0.788   1.804   0.758
  223SOL     OW17810   3.131   3.324   7.038
  223SOL    HW117811   3.222   3.311   7.064
  223SOL    HW217812   3.088   3.241   7.056
  224SOL     OW17813   1.088   5.318   6.177
  224SOL    HW117814   1.087   5.414   6.180
  224SOL    HW217815   0.997   5.293   6.165
  225SOL     OW17816   1.951   4.942   0.090
  225SOL    HW117817   2.006   5.010   0.051
  225SOL    HW217818   1.891   4.917   0.019
  226SOL     OW17819   3.536   0.982   7.297
  226SOL    HW117820   3.493   0.899   7.318
  226SOL    HW217821   3.569   1.015   7.380
  227SOL     OW17822   4.310   4.567   6.756
  227SOL    HW117823   4.307   4.486   6.807
  227SOL    HW217824   4.260   4.630   6.808
  228SOL     OW17825   1.863   2.967   0.230
  228SOL    HW117826   1.771   2.951   0.252
  228SOL    HW217827   1.891   3.034   0.292
  229SOL     OW17828   2.565   3.531   0.480
  229SOL    HW117829   2.622   3.606   0.460
  229SOL    HW217830   2.553   3.487   0.396
  230SOL     OW17831   0.994   3.008   6.099
  230SOL    HW117832   1.008   2.977   6.010
  230SOL    HW217833   1.027   3.098   6.098
  231SOL     OW17834   1.233   6.455   0.422
  231SOL    HW117835   1.241   6.362   0.399
  231SOL    HW217836   1.322   6.482   0.442
  232SOL     OW17837   2.029   5.978   7.598
  232SOL    HW117838   2.007   6.070   7.584
  232SOL    HW217839   2.021   5.938   7.511
  233SOL     OW17840   2.900   6.075   6.852
  233SOL    HW117841   2.992   6.095   6.833
  233SOL    HW217842   2.866   6.156   6.889
  234SOL     OW17843   1.042   5.072   7.425
  234SOL    HW117844   1.129   5.051   7.459
  234SOL    HW217845   0.992   4.991   7.436
  235SOL     OW17846   0.180   4.155   1.378
  235SOL    HW117847   0.221   4.112   1.454
  235SOL    HW217848   0.091   4.173   1.406
  236SOL     OW17849   5.775   4.860   5.755
  236SOL    HW117850   5.803   4.950   5.769
  236SOL    HW217851   5.804   4.814   5.834
  237SOL     OW17852   4.351   5.516   6.942
  237SOL    HW117853   4.282   5.581   6.940
  237SOL    HW217854   4.306   5.432   6.933
  238SOL     OW17855   5.864   5.614   1.707
  238SOL    HW117856   5.830   5.576   1.626
  238SOL    HW217857   5.829   5.703   1.708
  239SOL     OW17858   2.937   0.769   2.190
  239SOL    HW117859   3.020   0.810   2.166
  239SOL    HW217860   2.953   0.731   2.276
  240SOL     OW17861   6.114   5.443   0.325
  240SOL    HW117862   6.128   5.537   0.313
  240SOL    HW217863   6.103   5.409   0.237
  241SOL     OW17864   0.180   1.545   2.330
  241SOL    HW117865   0.105   1.492   2.302
  241SOL    HW217866   0.255   1.487   2.323
  242SOL     OW17867   0.770   4.400   7.542
  242SOL    HW117868   0.793   4.493   7.538
  242SOL    HW217869   0.852   4.354   7.521
  243SOL     OW17870   4.255   6.185   6.168
  243SOL    HW117871   4.244   6.094   6.140
  243SOL    HW217872   4.350   6.198   6.169
  244SOL     OW17873   6.405   3.254   0.875
  244SOL    HW117874   6.312   3.263   0.895
  244SOL    HW217875   6.420   3.159   0.872
  245SOL     OW17876   0.696   4.400   2.273
  245SOL    HW117877   0.616   4.415   2.223
  245SOL    HW217878   0.766   4.437   2.219
  246SOL     OW17879   2.902   1.944   1.291
  246SOL    HW117880   2.974   1.931   1.353
  246SOL    HW217881   2.823   1.936   1.344
  247SOL     OW17882   6.029   1.409   7.634
  247SOL    HW117883   6.061   1.462   7.561
  247SOL    HW217884   6.005   1.325   7.595
  248SOL     OW17885   0.375   2.469   6.005
  248SOL    HW117886   0.444   2.410   5.976
  248SOL    HW217887   0.318   2.479   5.928
  249SOL     OW17888   6.165   0.440   0.976
  249SOL    HW117889   6.238   0.445   0.914
  249SOL    HW217890   6.205   0.461   1.061
  250SOL     OW17891   6.100   0.154   0.999
  250SOL    HW117892   6.122   0.247   1.005
  250SOL    HW217893   6.169   0.117   0.943
  251SOL     OW17894   0.946   6.277   1.003
  251SOL    HW117895   1.010   6.302   1.070
  251SOL    HW217896   0.999   6.255   0.926
  252SOL     OW17897   5.663   1.822   6.535
  252SOL    HW117898   5.627   1.849   6.619
  252SOL    HW217899   5.601   1.758   6.502
  253SOL     OW17900   0.216   2.004   1.170
  253SOL    HW117901   0.168   2.087   1.175
  253SOL    HW217902   0.169   1.954   1.103
  254SOL     OW17903   2.524   2.891   0.834
  254SOL    HW117904   2.449   2.831   0.838
  254SOL    HW217905   2.571   2.865   0.755
  255SOL     OW17906   4.296   0.716   6.728
  255SOL    HW117907   4.250   0.654   6.671
  255SOL    HW217908   4.301   0.670   6.812
  256SOL     OW17909   3.427   6.046   1.794
  256SOL    HW117910   3.493   6.030   1.862
  256SOL    HW217911   3.346   6.058   1.843
  257SOL     OW17912   1.970   1.107   1.030
  257SOL    HW117913   1.874   1.105   1.035
  257SOL    HW217914   1.990   1.099   0.937
  258SOL     OW17915   6.395   1.475   6.464
  258SOL    HW117916   6.425   1.565   6.450
  258SOL    HW217917   6.311   1.485   6.509
  259SOL     OW17918   5.106   5.457   7.286
  259SOL    HW117919   5.075   5.366   7.292
  259SOL    HW217920   5.080   5.485   7.198
  260SOL     OW17921   0.288   2.484   6.700
  260SOL    HW117922   0.358   2.505   6.762
  260SOL    HW217923   0.317   2.522   6.617
  261SOL     OW17924   4.443   3.016   6.311
  261SOL    HW117925   4.454   3.000   6.404
  261SOL    HW217926   4.510   2.961   6.269
  262SOL     OW17927   5.631   0.524   0.870
  262SOL    HW117928   5.710   0.472   0.888
  262SOL    HW217929   5.635   0.543   0.777
  263SOL     OW17930   3.068   4.070   7.041
  263SOL    HW117931   2.976   4.097   7.034
  263SOL    HW217932   3.086   4.071   7.135
  264SOL     OW17933   4.964   5.878   7.205
  264SOL    HW117934   4.893   5.820   7.232
  264SOL    HW217935   4.933   5.966   7.227
  265SOL     OW17936   5.721   3.278   7.717
  265SOL    HW117937   5.815   3.262   7.719
  265SOL    HW217938   5.711   3.364   7.758
  266SOL     OW17939   2.797   3.529   7.581
  266SOL    HW117940   2.770   3.500   7.494
  266SOL    HW217941   2.858   3.462   7.611
  267SOL     OW17942   0.146   3.538   0.085
  267SOL    HW117943   0.178   3.628   0.090
  267SOL    HW217944   0.167   3.510  -0.004
  268SOL     OW17945   2.044   2.517   0.406
  268SOL    HW117946   2.033   2.613   0.407
  268SOL    HW217947   2.100   2.500   0.330
  269SOL     OW17948   5.329   4.557   6.857
  269SOL    HW117949   5.416   4.520   6.841
  269SOL    HW217950   5.312   4.611   6.779
  270SOL     OW17951   2.159   5.552   6.872
  270SOL    HW117952   2.072   5.581   6.902
  270SOL    HW217953   2.144   5.520   6.783
  271SOL     OW17954   4.500   5.897   6.340
  271SOL    HW117955   4.550   5.978   6.338
  271SOL    HW217956   4.414   5.922   6.374
  272SOL     OW17957   5.109   3.429   5.944
  272SOL    HW117958   5.160   3.502   5.908
  272SOL    HW217959   5.073   3.464   6.026
  273SOL     OW17960   3.860   5.121   1.110
  273SOL    HW117961   3.814   5.038   1.124
  273SOL    HW217962   3.899   5.141   1.195
  274SOL     OW17963   2.669   2.640   1.393
  274SOL    HW117964   2.675   2.670   1.302
  274SOL    HW217965   2.747   2.676   1.436
  275SOL     OW17966   2.980   0.432   5.925
  275SOL    HW117967   3.017   0.506   5.974
  275SOL    HW217968   3.002   0.355   5.977
  276SOL     OW17969   2.501   0.945   6.342
  276SOL    HW117970   2.512   0.960   6.436
  276SOL    HW217971   2.416   0.902   6.335
  277SOL     OW17972   2.342   1.422   6.853
  277SOL    HW117973   2.348   1.448   6.945
  277SOL    HW217974   2.325   1.504   6.807
  278SOL     OW17975   5.469   5.696   6.473
  278SOL    HW117976   5.398   5.705   6.409
  278SOL    HW217977   5.427   5.658   6.550
  279SOL     OW17978   0.309   4.083   1.601
  279SOL    HW117979   0.324   4.174   1.626
  279SOL    HW217980   0.396   4.051   1.575
  280SOL     OW17981   5.569   1.510   6.908
  280SOL    HW117982   5.506   1.509   6.979
  280SOL    HW217983   5.618   1.428   6.917
  281SOL     OW17984   3.578   1.588   7.252
  281SOL    HW117985   3.603   1.677   7.276
  281SOL    HW217986   3.654   1.555   7.204
  282SOL     OW17987   4.649   1.271   0.316
  282SOL    HW117988   4.697   1.302   0.393
  282SOL    HW217989   4.560   1.302   0.330
  283SOL     OW17990   1.582   4.768   0.248
  283SOL    HW117991   1.557   4.688   0.294
  283SOL    HW217992   1.631   4.818   0.313
  284SOL     OW17993   5.602   4.850   7.258
  284SOL    HW117994   5.654   4.770   7.250
  284SOL    HW217995   5.612   4.893   7.173
  285SOL     OW17996   0.050   1.316   6.231
  285SOL    HW117997   0.082   1.230   6.260
  285SOL    HW217998  -0.006   1.345   6.302
  286SOL     OW17999   0.937   0.540   7.649
  286SOL    HW118000   0.907   0.552   7.559
  286SOL    HW218001   1.017   0.592   7.655
  287SOL     OW18002   1.332   2.811   0.140
  287SOL    HW118003   1.282   2.875   0.089
  287SOL    HW218004   1.301   2.726   0.108
  288SOL     OW18005   3.891   0.223   1.691
  288SOL    HW118006   3.876   0.267   1.607
  288SOL    HW218007   3.810   0.176   1.708
  289SOL     OW18008   3.082   4.128   0.339
  289SOL    HW118009   2.995   4.094   0.358
  289SOL    HW218010   3.117   4.155   0.424
  290SOL     OW18011   4.433   4.063   1.077
  290SOL    HW118012   4.469   4.110   1.002
  290SOL    HW218013   4.339   4.084   1.074
  291SOL     OW18014   3.841   1.738   5.733
  291SOL    HW118015   3.889   1.794   5.794
  291SOL    HW218016   3.848   1.650   5.771
  292SOL     OW18017   4.167   0.169   7.740
  292SOL    HW118018   4.203   0.172   7.829
  292SOL    HW218019   4.230   0.116   7.691
  293SOL     OW18020   5.739   3.815   7.037
  293SOL    HW118021   5.750   3.904   7.070
  293SOL    HW218022   5.751   3.822   6.942
  294SOL     OW18023   0.903   4.843   7.461
  294SOL    HW118024   0.845   4.797   7.522
  294SOL    HW218025   0.897   4.793   7.380
  295SOL     OW18026   6.149   3.977   6.126
  295SOL    HW118027   6.114   3.948   6.042
  295SOL    HW218028   6.219   4.038   6.104
  296SOL     OW18029   6.449   2.575   1.154
  296SOL    HW118030   6.497   2.658   1.156
  296SOL    HW218031   6.482   2.531   1.075
  297SOL     OW18032   5.724   6.218   7.320
  297SOL    HW118033   5.696   6.152   7.256
  297SOL    HW218034   5.775   6.170   7.385
  298SOL     OW18035   2.371   5.174   6.310
  298SOL    HW118036   2.321   5.163   6.229
  298SOL    HW218037   2.437   5.240   6.288
  299SOL     OW18038   1.086   6.095   1.413
  299SOL    HW118039   1.056   6.067   1.499
  299SOL    HW218040   1.026   6.164   1.387
  300SOL     OW18041   5.322   1.640   0.174
  300SOL    HW118042   5.311   1.637   0.269
  300SOL    HW218043   5.369   1.721   0.158
  301SOL     OW18044   0.325   4.928   2.128
  301SOL    HW118045   0.268   4.852   2.141
  301SOL    HW218046   0.332   4.936   2.033
  302SOL     OW18047   3.201   6.427   1.473
  302SOL    HW118048   3.135   6.392   1.413
  302SOL    HW218049   3.202   6.364   1.545
  303SOL     OW18050   3.422   0.492   1.130
  303SOL    HW118051   3.366   0.473   1.205
  303SOL    HW218052   3.387   0.573   1.093
  304SOL     OW18053   6.450   2.437   0.606
  304SOL    HW118054   6.475   2.511   0.662
  304SOL    HW218055   6.393   2.475   0.539
  305SOL     OW18056   5.153   4.059   6.500
  305SOL    HW118057   5.111   4.104   6.427
  305SOL    HW218058   5.122   3.968   6.494
  306SOL     OW18059   1.508   2.911   1.051
  306SOL    HW118060   1.487   2.933   0.960
  306SOL    HW218061   1.585   2.854   1.045
  307SOL     OW18062   5.837   0.351   0.921
  307SOL    HW118063   5.920   0.370   0.964
  307SOL    HW218064   5.820   0.259   0.941
  308SOL     OW18065   1.512   2.217   0.144
  308SOL    HW118066   1.527   2.140   0.199
  308SOL    HW218067   1.427   2.251   0.171
  309SOL     OW18068   3.740   0.327   7.427
  309SOL    HW118069   3.799   0.347   7.354
  309SOL    HW218070   3.794   0.277   7.489
  310SOL     OW18071   3.804   2.840   2.215
  310SOL    HW118072   3.764   2.858   2.130
  310SOL    HW218073   3.897   2.830   2.196
  311SOL     OW18074   0.431   3.271   1.200
  311SOL    HW118075   0.465   3.326   1.270
  311SOL    HW218076   0.508   3.238   1.154
  312SOL     OW18077   5.307   1.502   7.025
  312SOL    HW118078   5.222   1.546   7.018
  312SOL    HW218079   5.286   1.409   7.022
  313SOL     OW18080   0.885   2.061   2.206
  313SOL    HW118081   0.798   2.095   2.187
  313SOL    HW218082   0.942   2.139   2.203
  314SOL     OW18083   2.796   2.929   7.012
  314SOL    HW118084   2.746   2.863   7.062
  314SOL    HW218085   2.729   2.982   6.969
  315SOL     OW18086   5.085   2.274   0.709
  315SOL    HW118087   5.058   2.285   0.618
  315SOL    HW218088   5.179   2.291   0.709
  316SOL     OW18089   4.815   3.394   1.327
  316SOL    HW118090   4.828   3.484   1.300
  316SOL    HW218091   4.739   3.364   1.276
  317SOL     OW18092   2.428   5.540   1.611
  317SOL    HW118093   2.514   5.499   1.612
  317SOL    HW218094   2.381   5.496   1.539
  318SOL     OW18095   4.746   6.422   1.444
  318SOL    HW118096   4.708   6.392   1.526
  318SOL    HW218097   4.679   6.404   1.378
  319SOL     OW18098   0.520   0.760   6.917
  319SOL    HW118099   0.440   0.809   6.898
  319SOL    HW218100   0.585   0.795   6.856
  320SOL     OW18101   4.071   1.088   2.286
  320SOL    HW118102   4.112   1.056   2.366
  320SOL    HW218103   4.063   1.183   2.300
  321SOL     OW18104   1.206   0.656   6.042
  321SOL    HW118105   1.134   0.715   6.063
  321SOL    HW218106   1.175   0.606   5.965
  322SOL     OW18107   1.585   0.384   6.583
  322SOL    HW118108   1.640   0.380   6.505
  322SOL    HW218109   1.642   0.351   6.653
  323SOL     OW18110   0.559   0.171   2.020
  323SOL    HW118111   0.493   0.191   1.954
  323SOL    HW218112   0.551   0.077   2.034
  324SOL     OW18113   0.895   1.518   7.502
  324SOL    HW118114   0.891   1.488   7.412
  324SOL    HW218115   0.976   1.569   7.507
  325SOL     OW18116   3.518   2.040   2.199
  325SOL    HW118117   3.496   1.980   2.128
  325SOL    HW218118   3.439   2.093   2.211
  326SOL     OW18119   0.463   0.416   0.039
  326SOL    HW118120   0.384   0.402  -0.013
  326SOL    HW218121   0.446   0.497   0.087
  327SOL     OW18122   5.601   4.807   1.546
  327SOL    HW118123   5.637   4.872   1.606
  327SOL    HW218124   5.512   4.792   1.577
  328SOL     OW18125   4.485   0.721   7.465
  328SOL    HW118126   4.508   0.654   7.529
  328SOL    HW218127   4.390   0.714   7.456
  329SOL     OW18128   4.094   3.407   0.549
  329SOL    HW118129   4.006   3.412   0.586
  329SOL    HW218130   4.136   3.336   0.598
  330SOL     OW18131   5.645   2.785   6.280
  330SOL    HW118132   5.581   2.835   6.230
  330SOL    HW218133   5.729   2.807   6.240
  331SOL     OW18134   0.790   5.477   7.069
  331SOL    HW118135   0.730   5.412   7.108
  331SOL    HW218136   0.822   5.527   7.144
  332SOL     OW18137   1.452   1.938   6.507
  332SOL    HW118138   1.360   1.962   6.514
  332SOL    HW218139   1.490   2.000   6.445
  333SOL     OW18140   3.723   3.936   2.488
  333SOL    HW118141   3.740   3.914   2.397
  333SOL    HW218142   3.807   3.966   2.523
  334SOL     OW18143   3.783   1.049   6.017
  334SOL    HW118144   3.846   1.053   5.944
  334SOL    HW218145   3.728   0.973   5.997
  335SOL     OW18146   2.569   2.514   2.122
  335SOL    HW118147   2.593   2.421   2.120
  335SOL    HW218148   2.474   2.513   2.134
  336SOL     OW18149   2.493   2.190   1.834
  336SOL    HW118150   2.411   2.145   1.856
  336SOL    HW218151   2.532   2.212   1.919
  337SOL     OW18152   3.196   1.532   2.015
  337SOL    HW118153   3.110   1.500   2.043
  337SOL    HW218154   3.224   1.589   2.087
  338SOL     OW18155   5.252   1.543   0.428
  338SOL    HW118156   5.268   1.560   0.521
  338SOL    HW218157   5.158   1.530   0.422
  339SOL     OW18158   5.071   2.151   7.174
  339SOL    HW118159   4.996   2.180   7.123
  339SOL    HW218160   5.033   2.095   7.242
  340SOL     OW18161   4.613   0.430   0.526
  340SOL    HW118162   4.641   0.360   0.584
  340SOL    HW218163   4.547   0.478   0.576
  341SOL     OW18164   4.849   3.006   0.485
  341SOL    HW118165   4.851   3.015   0.580
  341SOL    HW218166   4.786   3.072   0.456
  342SOL     OW18167   3.735   1.785   7.681
  342SOL    HW118168   3.667   1.852   7.689
  342SOL    HW218169   3.774   1.779   7.768
  343SOL     OW18170   3.096   1.765   6.929
  343SOL    HW118171   3.037   1.712   6.984
  343SOL    HW218172   3.183   1.744   6.962
  344SOL     OW18173   1.177   0.284   7.371
  344SOL    HW118174   1.221   0.354   7.323
  344SOL    HW218175   1.209   0.293   7.461
  345SOL     OW18176   2.093   4.467   7.046
  345SOL    HW118177   2.083   4.547   6.996
  345SOL    HW218178   2.186   4.465   7.071
  346SOL     OW18179   2.610   1.457   0.970
  346SOL    HW118180   2.529   1.406   0.959
  346SOL    HW218181   2.658   1.410   1.038
  347SOL     OW18182   3.487   5.914   0.633
  347SOL    HW118183   3.482   5.834   0.581
  347SOL    HW218184   3.402   5.957   0.620
  348SOL     OW18185   2.647   5.076   2.115
  348SOL    HW118186   2.616   4.989   2.139
  348SOL    HW218187   2.647   5.125   2.198
  349SOL     OW18188   5.037   0.516   1.935
  349SOL    HW118189   5.084   0.598   1.918
  349SOL    HW218190   5.105   0.456   1.966
  350SOL     OW18191   5.220   6.243   2.339
  350SOL    HW118192   5.313   6.231   2.358
  350SOL    HW218193   5.211   6.337   2.323
  351SOL     OW18194   2.115   3.350   1.869
  351SOL    HW118195   2.131   3.258   1.887
  351SOL    HW218196   2.022   3.363   1.883
  352SOL     OW18197   5.021   6.382   1.381
  352SOL    HW118198   4.930   6.404   1.400
  352SOL    HW218199   5.025   6.379   1.285
  353SOL     OW18200   0.842   4.893   6.676
  353SOL    HW118201   0.913   4.838   6.643
  353SOL    HW218202   0.853   4.976   6.630
  354SOL     OW18203   5.711   0.744   1.761
  354SOL    HW118204   5.651   0.769   1.691
  354SOL    HW218205   5.692   0.652   1.778
  355SOL     OW18206   0.747   2.842   1.077
  355SOL    HW118207   0.688   2.767   1.085
  355SOL    HW218208   0.698   2.915   1.114
  356SOL     OW18209   3.647   1.881   1.844
  356SOL    HW118210   3.716   1.870   1.779
  356SOL    HW218211   3.692   1.913   1.922
  357SOL     OW18212   2.430   0.088   5.946
  357SOL    HW118213   2.335   0.097   5.934
  357SOL    HW218214   2.439   0.010   6.002
  358SOL     OW18215   5.290   3.838   0.443
  358SOL    HW118216   5.341   3.910   0.406
  358SOL    HW218217   5.258   3.873   0.526
  359SOL     OW18218   2.725   2.297   2.415
  359SOL    HW118219   2.814   2.293   2.380
  359SOL    HW218220   2.737   2.295   2.510
  360SOL     OW18221   1.552   6.400   1.337
  360SOL    HW118222   1.647   6.404   1.342
  360SOL    HW218223   1.523   6.395   1.428
  361SOL     OW18224   1.118   2.691   6.593
  361SOL    HW118225   1.030   2.666   6.564
  361SOL    HW218226   1.102   2.753   6.665
  362SOL     OW18227   5.123   3.683   1.617
  362SOL    HW118228   5.216   3.661   1.615
  362SOL    HW218229   5.079   3.604   1.586
  363SOL     OW18230   5.465   3.893   7.720
  363SOL    HW118231   5.461   3.965   7.784
  363SOL    HW218232   5.555   3.892   7.690
  364SOL     OW18233   3.191   0.217   1.080
  364SOL    HW118234   3.263   0.217   1.016
  364SOL    HW218235   3.229   0.177   1.158
  365SOL     OW18236   4.521   6.142   6.865
  365SOL    HW118237   4.519   6.065   6.808
  365SOL    HW218238   4.436   6.141   6.910
  366SOL     OW18239   1.075   4.287   7.042
  366SOL    HW118240   1.099   4.333   7.122
  366SOL    HW218241   1.085   4.194   7.062
  367SOL     OW18242   3.705   4.428   0.483
  367SOL    HW118243   3.645   4.368   0.527
  367SOL    HW218244   3.790   4.414   0.526
  368SOL     OW18245   4.898   5.447   0.543
  368SOL    HW118246   4.969   5.510   0.557
  368SOL    HW218247   4.892   5.398   0.625
  369SOL     OW18248   4.875   2.495   5.650
  369SOL    HW118249   4.870   2.587   5.675
  369SOL    HW218250   4.800   2.454   5.691
  370SOL     OW18251   0.079   5.180   6.100
  370SOL    HW118252   0.039   5.265   6.119
  370SOL    HW218253   0.098   5.184   6.006
  371SOL     OW18254   5.288   0.002   1.596
  371SOL    HW118255   5.261   0.086   1.635
  371SOL    HW218256   5.262   0.009   1.504
  372SOL     OW18257   5.218   4.315   2.725
  372SOL    HW118258   5.204   4.375   2.798
  372SOL    HW218259   5.310   4.289   2.732
  373SOL     OW18260   1.622   3.635   1.561
  373SOL    HW118261   1.701   3.616   1.511
  373SOL    HW218262   1.604   3.553   1.609
  374SOL     OW18263   2.101   0.790   0.565
  374SOL    HW118264   2.010   0.790   0.595
  374SOL    HW218265   2.139   0.870   0.603
  375SOL     OW18266   0.159   5.923   0.667
  375SOL    HW118267   0.125   5.903   0.580
  375SOL    HW218268   0.149   6.018   0.675
  376SOL     OW18269   5.481   1.158   0.600
  376SOL    HW118270   5.529   1.076   0.614
  376SOL    HW218271   5.466   1.161   0.505
  377SOL     OW18272   5.164   4.725   2.875
  377SOL    HW118273   5.229   4.786   2.909
  377SOL    HW218274   5.150   4.662   2.945
  378SOL     OW18275   4.429   1.753   6.939
  378SOL    HW118276   4.385   1.811   7.000
  378SOL    HW218277   4.481   1.811   6.883
  379SOL     OW18278   5.956   3.198   0.887
  379SOL    HW118279   6.013   3.126   0.859
  379SOL    HW218280   5.929   3.174   0.975
  380SOL     OW18281   3.013   5.523   2.162
  380SOL    HW118282   2.982   5.599   2.212
  380SOL    HW218283   2.935   5.494   2.114
  381SOL     OW18284   2.744   4.695   0.354
  381SOL    HW118285   2.836   4.701   0.382
  381SOL    HW218286   2.745   4.628   0.286
  382SOL     OW18287   3.999   3.114   0.401
  382SOL    HW118288   3.983   3.110   0.307
  382SOL    HW218289   4.094   3.122   0.409
  383SOL     OW18290   0.525   2.929   0.509
  383SOL    HW118291   0.585   3.003   0.507
  383SOL    HW218292   0.558   2.869   0.442
  384SOL     OW18293   2.122   5.402   1.141
  384SOL    HW118294   2.145   5.318   1.179
  384SOL    HW218295   2.027   5.409   1.153
  385SOL     OW18296   0.283   6.167   6.241
  385SOL    HW118297   0.310   6.229   6.309
  385SOL    HW218298   0.235   6.219   6.177
  386SOL     OW18299   2.814   1.553   6.124
  386SOL    HW118300   2.862   1.487   6.174
  386SOL    HW218301   2.865   1.566   6.045
  387SOL     OW18302   2.139   3.520   0.520
  387SOL    HW118303   2.179   3.531   0.433
  387SOL    HW218304   2.097   3.435   0.517
  388SOL     OW18305   4.368   2.554   1.567
  388SOL    HW118306   4.456   2.563   1.603
  388SOL    HW218307   4.370   2.472   1.519
  389SOL     OW18308   1.204   1.661   1.713
  389SOL    HW118309   1.188   1.595   1.646
  389SOL    HW218310   1.296   1.649   1.737
  390SOL     OW18311   5.833   1.349   0.524
  390SOL    HW118312   5.789   1.386   0.448
  390SOL    HW218313   5.777   1.373   0.598
  391SOL     OW18314   2.323   1.474   6.081
  391SOL    HW118315   2.394   1.471   6.017
  391SOL    HW218316   2.322   1.386   6.119
  392SOL     OW18317   6.130   6.031   1.419
  392SOL    HW118318   6.211   6.082   1.417
  392SOL    HW218319   6.154   5.946   1.381
  393SOL     OW18320   5.758   2.562   1.372
  393SOL    HW118321   5.841   2.515   1.368
  393SOL    HW218322   5.706   2.514   1.436
  394SOL     OW18323   1.158   3.218   6.072
  394SOL    HW118324   1.246   3.214   6.109
  394SOL    HW218325   1.135   3.311   6.076
  395SOL     OW18326   3.641   3.036   7.046
  395SOL    HW118327   3.641   2.969   7.114
  395SOL    HW218328   3.615   2.990   6.966
  396SOL     OW18329   5.962   5.700   6.465
  396SOL    HW118330   5.964   5.613   6.506
  396SOL    HW218331   6.011   5.689   6.384
  397SOL     OW18332   2.695   1.670   1.088
  397SOL    HW118333   2.637   1.695   1.160
  397SOL    HW218334   2.648   1.600   1.042
  398SOL     OW18335   0.101   3.018   0.963
  398SOL    HW118336   0.056   3.044   1.043
  398SOL    HW218337   0.193   3.013   0.987
  399SOL     OW18338   4.617   3.461   2.162
  399SOL    HW118339   4.532   3.441   2.200
  399SOL    HW218340   4.599   3.529   2.097
  400SOL     OW18341   5.919   5.018   0.688
  400SOL    HW118342   5.862   5.039   0.615
  400SOL    HW218343   5.941   4.926   0.676
  401SOL     OW18344   4.890   6.357   5.400
  401SOL    HW118345   4.929   6.439   5.369
  401SOL    HW218346   4.822   6.384   5.462
  402SOL     OW18347   4.105   3.861   6.466
  402SOL    HW118348   4.118   3.817   6.550
  402SOL    HW218349   4.192   3.892   6.441
  403SOL     OW18350   1.094   3.129   0.888
  403SOL    HW118351   1.075   3.155   0.978
  403SOL    HW218352   1.023   3.070   0.865
  404SOL     OW18353   5.823   2.845   7.738
  404SOL    HW118354   5.849   2.897   7.814
  404SOL    HW218355   5.750   2.792   7.770
  405SOL     OW18356   6.297   5.830   2.256
  405SOL    HW118357   6.322   5.787   2.339
  405SOL    HW218358   6.328   5.920   2.266
  406SOL     OW18359   1.066   3.793   6.201
  406SOL    HW118360   1.015   3.715   6.222
  406SOL    HW218361   1.094   3.781   6.111
  407SOL     OW18362   2.034   3.908   7.360
  407SOL    HW118363   2.078   3.823   7.357
  407SOL    HW218364   1.959   3.898   7.301
  408SOL     OW18365   2.860   3.127   7.296
  408SOL    HW118366   2.861   3.140   7.202
  408SOL    HW218367   2.797   3.057   7.310
  409SOL     OW18368   5.459   0.106   1.954
  409SOL    HW118369   5.466   0.012   1.972
  409SOL    HW218370   5.392   0.137   2.015
  410SOL     OW18371   1.688   2.091   0.549
  410SOL    HW118372   1.648   2.133   0.626
  410SOL    HW218373   1.742   2.159   0.510
  411SOL     OW18374   3.853   2.209   5.796
  411SOL    HW118375   3.912   2.166   5.734
  411SOL    HW218376   3.770   2.217   5.749
  412SOL     OW18377   4.127   0.513   0.237
  412SOL    HW118378   4.157   0.535   0.149
  412SOL    HW218379   4.034   0.537   0.236
  413SOL     OW18380   5.593   3.659   0.133
  413SOL    HW118381   5.577   3.615   0.049
  413SOL    HW218382   5.631   3.743   0.109
  414SOL     OW18383   1.698   5.018   1.075
  414SOL    HW118384   1.762   5.031   1.145
  414SOL    HW218385   1.643   5.096   1.077
  415SOL     OW18386   6.237   1.611   7.053
  415SOL    HW118387   6.284   1.532   7.028
  415SOL    HW218388   6.296   1.657   7.112
  416SOL     OW18389   0.211   2.610   0.230
  416SOL    HW118390   0.246   2.681   0.176
  416SOL    HW218391   0.139   2.650   0.278
  417SOL     OW18392   5.894   1.620   6.693
  417SOL    HW118393   5.805   1.648   6.713
  417SOL    HW218394   5.948   1.660   6.761
  418SOL     OW18395   6.343   3.028   1.816
  418SOL    HW118396   6.305   2.943   1.791
  418SOL    HW218397   6.268   3.087   1.821
  419SOL     OW18398   2.653   6.201   2.224
  419SOL    HW118399   2.606   6.280   2.196
  419SOL    HW218400   2.720   6.233   2.285
  420SOL     OW18401   5.366   1.806   0.413
  420SOL    HW118402   5.330   1.731   0.460
  420SOL    HW218403   5.457   1.811   0.442
  421SOL     OW18404   5.220   3.824   5.386
  421SOL    HW118405   5.300   3.841   5.337
  421SOL    HW218406   5.177   3.752   5.339
  422SOL     OW18407   1.771   6.372   7.082
  422SOL    HW118408   1.750   6.304   7.018
  422SOL    HW218409   1.688   6.388   7.127
  423SOL     OW18410   1.393   4.404   0.698
  423SOL    HW118411   1.442   4.425   0.618
  423SOL    HW218412   1.370   4.312   0.689
  424SOL     OW18413   0.795   6.043   0.362
  424SOL    HW118414   0.831   6.110   0.420
  424SOL    HW218415   0.710   6.078   0.335
  425SOL     OW18416   4.223   3.380   0.272
  425SOL    HW118417   4.272   3.462   0.269
  425SOL    HW218418   4.138   3.402   0.233
  426SOL     OW18419   2.054   5.260   7.050
  426SOL    HW118420   2.143   5.228   7.067
  426SOL    HW218421   2.051   5.274   6.956
  427SOL     OW18422   2.206   1.245   7.487
  427SOL    HW118423   2.151   1.324   7.482
  427SOL    HW218424   2.155   1.185   7.543
  428SOL     OW18425   5.390   0.650   6.727
  428SOL    HW118426   5.335   0.572   6.733
  428SOL    HW218427   5.329   0.721   6.705
  429SOL     OW18428   3.406   6.294   7.595
  429SOL    HW118429   3.409   6.203   7.624
  429SOL    HW218430   3.497   6.318   7.581
  430SOL     OW18431   3.424   5.101   1.891
  430SOL    HW118432   3.519   5.097   1.887
  430SOL    HW218433   3.397   5.016   1.925
  431SOL     OW18434   4.209   5.708   7.595
  431SOL    HW118435   4.148   5.749   7.533
  431SOL    HW218436   4.291   5.701   7.548
  432SOL     OW18437   4.757   3.712   1.739
  432SOL    HW118438   4.684   3.666   1.780
  432SOL    HW218439   4.835   3.680   1.785
  433SOL     OW18440   1.020   0.048   6.658
  433SOL    HW118441   1.052  -0.024   6.712
  433SOL    HW218442   1.100   0.096   6.634
  434SOL     OW18443   5.620   5.781   2.372
  434SOL    HW118444   5.591   5.871   2.359
  434SOL    HW218445   5.549   5.728   2.337
  435SOL     OW18446   0.834   5.647   6.645
  435SOL    HW118447   0.791   5.707   6.584
  435SOL    HW218448   0.779   5.568   6.644
  436SOL     OW18449   4.004   6.106   7.652
  436SOL    HW118450   3.924   6.127   7.699
  436SOL    HW218451   3.982   6.031   7.597
  437SOL     OW18452   6.095   5.666   0.982
  437SOL    HW118453   6.112   5.759   0.996
  437SOL    HW218454   6.032   5.664   0.909
  438SOL     OW18455   3.102   5.497   6.706
  438SOL    HW118456   3.118   5.423   6.648
  438SOL    HW218457   3.007   5.501   6.714
  439SOL     OW18458   5.575   4.550   6.151
  439SOL    HW118459   5.641   4.529   6.217
  439SOL    HW218460   5.623   4.547   6.068
  440SOL     OW18461   3.535   4.766   6.638
  440SOL    HW118462   3.523   4.766   6.543
  440SOL    HW218463   3.559   4.676   6.659
  441SOL     OW18464   4.209   5.734   6.601
  441SOL    HW118465   4.200   5.640   6.612
  441SOL    HW218466   4.300   5.752   6.624
  442SOL     OW18467   2.671   2.786   7.199
  442SOL    HW118468   2.627   2.713   7.243
  442SOL    HW218469   2.653   2.862   7.254
  443SOL     OW18470   5.280   5.768   0.659
  443SOL    HW118471   5.201   5.722   0.686
  443SOL    HW218472   5.257   5.809   0.576
  444SOL     OW18473   4.709   0.725   0.432
  444SOL    HW118474   4.614   0.730   0.441
  444SOL    HW218475   4.728   0.632   0.439
  445SOL     OW18476   4.291   3.946   1.848
  445SOL    HW118477   4.205   3.978   1.876
  445SOL    HW218478   4.298   3.860   1.887
  446SOL     OW18479   3.749   1.487   0.731
  446SOL    HW118480   3.835   1.454   0.706
  446SOL    HW218481   3.740   1.570   0.686
  447SOL     OW18482   1.672   0.963   0.341
  447SOL    HW118483   1.591   1.014   0.339
  447SOL    HW218484   1.726   1.002   0.273
  448SOL     OW18485   2.733   5.034   6.002
  448SOL    HW118486   2.754   5.120   6.039
  448SOL    HW218487   2.770   4.971   6.064
  449SOL     OW18488   5.111   2.386   1.725
  449SOL    HW118489   5.072   2.419   1.806
  449SOL    HW218490   5.049   2.411   1.657
  450SOL     OW18491   2.416   3.533   7.108
  450SOL    HW118492   2.437   3.571   7.023
  450SOL    HW218493   2.487   3.471   7.124
  451SOL     OW18494   2.951   2.570   0.030
  451SOL    HW118495   2.955   2.477   0.051
  451SOL    HW218496   3.035   2.588  -0.012
  452SOL     OW18497   1.401   1.672   0.438
  452SOL    HW118498   1.410   1.592   0.490
  452SOL    HW218499   1.454   1.737   0.485
  453SOL     OW18500   1.420   6.346   6.858
  453SOL    HW118501   1.364   6.398   6.801
  453SOL    HW218502   1.360   6.305   6.921
  454SOL     OW18503   4.851   0.858   6.303
  454SOL    HW118504   4.827   0.766   6.291
  454SOL    HW218505   4.900   0.881   6.224
  455SOL     OW18506   4.832   2.980   5.287
  455SOL    HW118507   4.746   2.939   5.297
  455SOL    HW218508   4.874   2.970   5.372
  456SOL     OW18509   6.222   4.573   6.974
  456SOL    HW118510   6.285   4.593   7.044
  456SOL    HW218511   6.274   4.526   6.909
  457SOL     OW18512   4.456   5.376   0.805
  457SOL    HW118513   4.372   5.332   0.813
  457SOL    HW218514   4.434   5.469   0.797
  458SOL     OW18515   2.689   4.635   6.122
  458SOL    HW118516   2.742   4.707   6.156
  458SOL    HW218517   2.665   4.662   6.034
  459SOL     OW18518   2.324   1.974   0.974
  459SOL    HW118519   2.248   2.009   0.928
  459SOL    HW218520   2.381   2.050   0.987
  460SOL     OW18521   0.676   2.199   2.144
  460SOL    HW118522   0.621   2.142   2.089
  460SOL    HW218523   0.613   2.250   2.195
  461SOL     OW18524   0.042   5.972   7.612
  461SOL    HW118525   0.061   6.061   7.583
  461SOL    HW218526  -0.054   5.967   7.610
  462SOL     OW18527   2.797   2.762   0.639
  462SOL    HW118528   2.743   2.759   0.560
  462SOL    HW218529   2.886   2.773   0.607
  463SOL     OW18530   3.297   1.138   7.604
  463SOL    HW118531   3.271   1.120   7.514
  463SOL    HW218532   3.243   1.213   7.630
  464SOL     OW18533   3.407   4.916   6.864
  464SOL    HW118534   3.463   4.886   6.793
  464SOL    HW218535   3.401   4.840   6.923
  465SOL     OW18536   5.693   5.391   2.463
  465SOL    HW118537   5.732   5.324   2.520
  465SOL    HW218538   5.618   5.347   2.423
  466SOL     OW18539   1.155   3.171   7.465
  466SOL    HW118540   1.100   3.216   7.529
  466SOL    HW218541   1.245   3.184   7.497
  467SOL     OW18542   1.875   0.133   6.958
  467SOL    HW118543   1.853   0.058   7.012
  467SOL    HW218544   1.818   0.124   6.881
  468SOL     OW18545   1.830   2.353   1.321
  468SOL    HW118546   1.758   2.336   1.381
  468SOL    HW218547   1.901   2.297   1.352
  469SOL     OW18548   3.239   0.434   7.044
  469SOL    HW118549   3.262   0.527   7.053
  469SOL    HW218550   3.324   0.389   7.043
  470SOL     OW18551   5.882   5.058   1.797
  470SOL    HW118552   5.822   5.129   1.823
  470SOL    HW218553   5.877   5.058   1.701
  471SOL     OW18554   5.835   0.333   2.530
  471SOL    HW118555   5.757   0.374   2.566
  471SOL    HW218556   5.882   0.405   2.487
  472SOL     OW18557   1.036   2.294   1.690
  472SOL    HW118558   1.052   2.376   1.643
  472SOL    HW218559   0.942   2.279   1.680
  473SOL     OW18560   1.488   4.416   7.600
  473SOL    HW118561   1.506   4.482   7.667
  473SOL    HW218562   1.397   4.392   7.613
  474SOL     OW18563   4.849   1.385   1.307
  474SOL    HW118564   4.902   1.361   1.231
  474SOL    HW218565   4.770   1.331   1.299
  475SOL     OW18566   3.244   3.204   1.437
  475SOL    HW118567   3.208   3.118   1.415
  475SOL    HW218568   3.198   3.230   1.517
  476SOL     OW18569   5.338   4.672   1.607
  476SOL    HW118570   5.275   4.684   1.678
  476SOL    HW218571   5.370   4.583   1.618
  477SOL     OW18572   6.021   0.954   0.145
  477SOL    HW118573   6.078   0.933   0.219
  477SOL    HW218574   5.933   0.956   0.182
  478SOL     OW18575   0.502   2.794   7.604
  478SOL    HW118576   0.594   2.770   7.619
  478SOL    HW218577   0.499   2.888   7.620
  479SOL     OW18578   5.179   4.824   0.464
  479SOL    HW118579   5.113   4.886   0.495
  479SOL    HW218580   5.260   4.851   0.507
  480SOL     OW18581   3.398   4.824   1.998
  480SOL    HW118582   3.342   4.750   1.971
  480SOL    HW218583   3.457   4.787   2.063
  481SOL     OW18584   4.791   3.455   6.808
  481SOL    HW118585   4.696   3.462   6.799
  481SOL    HW218586   4.823   3.442   6.719
  482SOL     OW18587   0.123   4.598   7.470
  482SOL    HW118588   0.037   4.589   7.429
  482SOL    HW218589   0.105   4.627   7.559
  483SOL     OW18590   1.533   2.755   1.625
  483SOL    HW118591   1.466   2.756   1.693
  483SOL    HW218592   1.534   2.665   1.593
  484SOL     OW18593   0.903   0.973   2.250
  484SOL    HW118594   0.809   0.988   2.235
  484SOL    HW218595   0.911   0.972   2.346
  485SOL     OW18596   3.438   4.433   6.192
  485SOL    HW118597   3.513   4.374   6.193
  485SOL    HW218598   3.473   4.516   6.160
  486SOL     OW18599   0.028   5.767   1.855
  486SOL    HW118600   0.079   5.743   1.932
  486SOL    HW218601   0.094   5.777   1.786
  487SOL     OW18602   5.242   3.183   1.072
  487SOL    HW118603   5.172   3.248   1.076
  487SOL    HW218604   5.223   3.133   0.992
  488SOL     OW18605   3.924   3.478   7.524
  488SOL    HW118606   3.929   3.417   7.450
  488SOL    HW218607   3.964   3.558   7.491
  489SOL     OW18608   3.813   4.436   1.597
  489SOL    HW118609   3.754   4.371   1.634
  489SOL    HW218610   3.848   4.483   1.672
  490SOL     OW18611   5.346   2.394   6.045
  490SOL    HW118612   5.296   2.315   6.026
  490SOL    HW218613   5.288   2.466   6.024
  491SOL     OW18614   0.893   1.948   0.687
  491SOL    HW118615   0.986   1.957   0.706
  491SOL    HW218616   0.854   2.029   0.722
  492SOL     OW18617   0.584   3.362   0.026
  492SOL    HW118618   0.603   3.453   0.006
  492SOL    HW218619   0.599   3.315  -0.056
  493SOL     OW18620   4.516   6.219   7.400
  493SOL    HW118621   4.459   6.189   7.470
  493SOL    HW218622   4.547   6.139   7.357
  494SOL     OW18623   3.811   1.926   6.749
  494SOL    HW118624   3.824   1.834   6.727
  494SOL    HW218625   3.883   1.948   6.808
  495SOL     OW18626   0.054   6.222   7.531
  495SOL    HW118627   0.038   6.311   7.563
  495SOL    HW218628   0.025   6.225   7.439
  496SOL     OW18629   2.657   5.131   0.684
  496SOL    HW118630   2.730   5.071   0.698
  496SOL    HW218631   2.697   5.211   0.651
  497SOL     OW18632   1.117   6.195   7.735
  497SOL    HW118633   1.150   6.259   7.798
  497SOL    HW218634   1.070   6.131   7.788
  498SOL     OW18635   4.870   5.816   6.008
  498SOL    HW118636   4.806   5.880   5.977
  498SOL    HW218637   4.880   5.755   5.935
  499SOL     OW18638   2.065   1.961   6.762
  499SOL    HW118639   2.045   1.918   6.679
  499SOL    HW218640   1.979   1.976   6.802
  500SOL     OW18641   3.153   5.350   0.856
  500SOL    HW118642   3.124   5.382   0.942
  500SOL    HW218643   3.200   5.423   0.818
  501SOL     OW18644   0.799   2.858   1.752
  501SOL    HW118645   0.791   2.876   1.846
  501SOL    HW218646   0.887   2.822   1.741
  502SOL     OW18647   2.775   0.672   0.491
  502SOL    HW118648   2.704   0.620   0.529
  502SOL    HW218649   2.750   0.685   0.400
  503SOL     OW18650   5.913   5.363   1.851
  503SOL    HW118651   5.896   5.452   1.819
  503SOL    HW218652   5.991   5.335   1.803
  504SOL     OW18653   6.311   5.853   7.392
  504SOL    HW118654   6.308   5.879   7.300
  504SOL    HW218655   6.403   5.831   7.408
  505SOL     OW18656   2.625   5.067   2.553
  505SOL    HW118657   2.642   5.141   2.611
  505SOL    HW218658   2.584   5.106   2.475
  506SOL     OW18659   1.137   1.563   5.673
  506SOL    HW118660   1.063   1.586   5.730
  506SOL    HW218661   1.102   1.496   5.615
  507SOL     OW18662   1.002   3.539   0.511
  507SOL    HW118663   0.974   3.529   0.420
  507SOL    HW218664   1.014   3.450   0.543
  508SOL     OW18665   3.966   5.331   0.030
  508SOL    HW118666   3.892   5.284  -0.008
  508SOL    HW218667   3.950   5.329   0.125
  509SOL     OW18668   1.047   6.021   1.692
  509SOL    HW118669   0.986   6.005   1.764
  509SOL    HW218670   1.098   6.096   1.721
  510SOL     OW18671   4.394   1.634   1.443
  510SOL    HW118672   4.442   1.716   1.458
  510SOL    HW218673   4.360   1.643   1.354
  511SOL     OW18674   5.379   2.224   7.232
  511SOL    HW118675   5.400   2.210   7.324
  511SOL    HW218676   5.299   2.173   7.217
  512SOL     OW18677   1.294   0.005   7.385
  512SOL    HW118678   1.326   0.074   7.443
  512SOL    HW218679   1.211   0.039   7.352
  513SOL     OW18680   5.575   5.417   7.339
  513SOL    HW118681   5.526   5.468   7.403
  513SOL    HW218682   5.661   5.459   7.335
  514SOL     OW18683   1.988   4.814   1.193
  514SOL    HW118684   2.063   4.761   1.220
  514SOL    HW218685   1.938   4.829   1.273
  515SOL     OW18686   4.298   4.427   0.046
  515SOL    HW118687   4.221   4.370   0.044
  515SOL    HW218688   4.263   4.515   0.058
  516SOL     OW18689   5.254   2.883   2.317
  516SOL    HW118690   5.282   2.877   2.408
  516SOL    HW218691   5.316   2.944   2.277
  517SOL     OW18692   0.119   2.025   7.695
  517SOL    HW118693   0.073   2.073   7.765
  517SOL    HW218694   0.201   2.071   7.684
  518SOL     OW18695   4.394   6.040   5.897
  518SOL    HW118696   4.348   5.998   5.970
  518SOL    HW218697   4.327   6.049   5.829
  519SOL     OW18698   4.613   0.570   2.175
  519SOL    HW118699   4.687   0.513   2.152
  519SOL    HW218700   4.618   0.642   2.113
  520SOL     OW18701   4.527   2.731   0.285
  520SOL    HW118702   4.618   2.731   0.314
  520SOL    HW218703   4.525   2.667   0.213
  521SOL     OW18704   3.492   4.924   6.379
  521SOL    HW118705   3.577   4.942   6.420
  521SOL    HW218706   3.510   4.922   6.285
  522SOL     OW18707   5.891   3.513   7.730
  522SOL    HW118708   5.982   3.493   7.705
  522SOL    HW218709   5.850   3.543   7.649
  523SOL     OW18710   1.748   0.550   1.019
  523SOL    HW118711   1.668   0.505   0.993
  523SOL    HW218712   1.719   0.637   1.046
  524SOL     OW18713   3.447   0.336   7.461
  524SOL    HW118714   3.540   0.354   7.476
  524SOL    HW218715   3.446   0.263   7.399
  525SOL     OW18716   6.315   3.965   7.676
  525SOL    HW118717   6.323   3.931   7.765
  525SOL    HW218718   6.253   4.038   7.684
  526SOL     OW18719   0.393   3.678   1.661
  526SOL    HW118720   0.481   3.691   1.626
  526SOL    HW218721   0.340   3.656   1.585
  527SOL     OW18722   2.227   2.516   1.628
  527SOL    HW118723   2.184   2.596   1.597
  527SOL    HW218724   2.302   2.547   1.678
  528SOL     OW18725   5.804   1.765   6.312
  528SOL    HW118726   5.837   1.847   6.275
  528SOL    HW218727   5.765   1.789   6.396
  529SOL     OW18728   3.749   0.456   7.071
  529SOL    HW118729   3.703   0.375   7.050
  529SOL    HW218730   3.680   0.517   7.099
  530SOL     OW18731   0.438   4.788   0.380
  530SOL    HW118732   0.493   4.724   0.334
  530SOL    HW218733   0.474   4.790   0.469
  531SOL     OW18734   2.583   5.236   2.344
  531SOL    HW118735   2.628   5.313   2.378
  531SOL    HW218736   2.525   5.270   2.277
  532SOL     OW18737   4.401   0.290   7.293
  532SOL    HW118738   4.419   0.222   7.358
  532SOL    HW218739   4.431   0.371   7.334
  533SOL     OW18740   4.458   0.936   6.504
  533SOL    HW118741   4.500   0.883   6.436
  533SOL    HW218742   4.440   1.020   6.462
  534SOL     OW18743   1.240   0.286   1.209
  534SOL    HW118744   1.179   0.279   1.135
  534SOL    HW218745   1.293   0.206   1.204
  535SOL     OW18746   0.052   5.449   6.772
  535SOL    HW118747   0.096   5.364   6.776
  535SOL    HW218748   0.116   5.510   6.809
  536SOL     OW18749   4.286   1.590   6.442
  536SOL    HW118750   4.332   1.520   6.395
  536SOL    HW218751   4.194   1.564   6.440
  537SOL     OW18752   2.735   3.382   7.383
  537SOL    HW118753   2.796   3.310   7.399
  537SOL    HW218754   2.734   3.392   7.288
  538SOL     OW18755   2.459   4.655   1.280
  538SOL    HW118756   2.501   4.709   1.213
  538SOL    HW218757   2.526   4.590   1.303
  539SOL     OW18758   2.443   4.039   0.088
  539SOL    HW118759   2.404   4.088   0.160
  539SOL    HW218760   2.532   4.075   0.080
  540SOL     OW18761   2.610   0.187   1.761
  540SOL    HW118762   2.516   0.197   1.775
  540SOL    HW218763   2.626   0.224   1.675
  541SOL     OW18764   1.057   2.573   0.239
  541SOL    HW118765   1.082   2.560   0.147
  541SOL    HW218766   1.102   2.653   0.264
  542SOL     OW18767   4.902   6.068   5.310
  542SOL    HW118768   4.996   6.085   5.311
  542SOL    HW218769   4.862   6.155   5.303
  543SOL     OW18770   0.679   3.894   6.512
  543SOL    HW118771   0.703   3.980   6.476
  543SOL    HW218772   0.675   3.836   6.436
  544SOL     OW18773   4.028   2.875   2.490
  544SOL    HW118774   4.033   2.962   2.530
  544SOL    HW218775   4.087   2.880   2.415
  545SOL     OW18776   1.459   5.598   0.880
  545SOL    HW118777   1.469   5.551   0.797
  545SOL    HW218778   1.448   5.689   0.854
  546SOL     OW18779   5.940   0.001   0.381
  546SOL    HW118780   5.844  -0.002   0.382
  546SOL    HW218781   5.961   0.092   0.402
  547SOL     OW18782   4.941   5.887   0.507
  547SOL    HW118783   4.913   5.945   0.578
  547SOL    HW218784   4.949   5.801   0.548
  548SOL     OW18785   3.239   5.999   0.416
  548SOL    HW118786   3.232   5.911   0.379
  548SOL    HW218787   3.201   6.056   0.348
  549SOL     OW18788   3.232   2.452   0.166
  549SOL    HW118789   3.206   2.488   0.081
  549SOL    HW218790   3.166   2.485   0.227
  550SOL     OW18791   1.230   2.287   0.085
  550SOL    HW118792   1.240   2.197   0.053
  550SOL    HW218793   1.148   2.286   0.134
  551SOL     OW18794   4.654   5.264   0.957
  551SOL    HW118795   4.587   5.308   0.904
  551SOL    HW218796   4.618   5.264   1.045
  552SOL     OW18797   2.668   6.405   2.666
  552SOL    HW118798   2.704   6.471   2.608
  552SOL    HW218799   2.573   6.417   2.661
  553SOL     OW18800   0.072   4.846   6.659
  553SOL    HW118801  -0.001   4.907   6.670
  553SOL    HW218802   0.071   4.824   6.566
  554SOL     OW18803   0.571   5.437   0.191
  554SOL    HW118804   0.613   5.352   0.180
  554SOL    HW218805   0.484   5.417   0.227
  555SOL     OW18806   2.549   1.234   5.656
  555SOL    HW118807   2.506   1.204   5.576
  555SOL    HW218808   2.516   1.323   5.669
  556SOL     OW18809   2.987   3.272   1.252
  556SOL    HW118810   2.933   3.205   1.295
  556SOL    HW218811   3.074   3.233   1.249
  557SOL     OW18812   5.174   1.189   6.048
  557SOL    HW118813   5.132   1.162   5.967
  557SOL    HW218814   5.152   1.120   6.111
  558SOL     OW18815   4.619   5.129   0.029
  558SOL    HW118816   4.599   5.221   0.048
  558SOL    HW218817   4.715   5.127   0.023
  559SOL     OW18818   5.315   3.680   6.447
  559SOL    HW118819   5.358   3.742   6.388
  559SOL    HW218820   5.250   3.732   6.494
  560SOL     OW18821   5.117   3.325   6.986
  560SOL    HW118822   5.183   3.393   6.998
  560SOL    HW218823   5.146   3.253   7.043
  561SOL     OW18824   2.535   1.847   2.156
  561SOL    HW118825   2.459   1.807   2.113
  561SOL    HW218826   2.597   1.863   2.085
  562SOL     OW18827   4.591   4.224   1.241
  562SOL    HW118828   4.673   4.178   1.258
  562SOL    HW218829   4.541   4.163   1.187
  563SOL     OW18830   5.816   1.221   6.474
  563SOL    HW118831   5.836   1.189   6.386
  563SOL    HW218832   5.747   1.287   6.460
  564SOL     OW18833   0.626   3.629   7.690
  564SOL    HW118834   0.630   3.609   7.596
  564SOL    HW218835   0.539   3.667   7.703
  565SOL     OW18836   1.929   4.208   0.454
  565SOL    HW118837   1.913   4.162   0.536
  565SOL    HW218838   2.016   4.246   0.465
  566SOL     OW18839   2.562   3.473   7.725
  566SOL    HW118840   2.571   3.501   7.816
  566SOL    HW218841   2.648   3.488   7.686
  567SOL     OW18842   2.082   2.597   3.026
  567SOL    HW118843   2.165   2.641   3.046
  567SOL    HW218844   2.016   2.651   3.068
  568SOL     OW18845   3.894   3.191   5.702
  568SOL    HW118846   3.817   3.187   5.645
  568SOL    HW218847   3.967   3.162   5.647
  569SOL     OW18848   4.503   5.963   6.667
  569SOL    HW118849   4.545   5.978   6.582
  569SOL    HW218850   4.490   5.868   6.671
  570SOL     OW18851   0.162   2.592   7.287
  570SOL    HW118852   0.152   2.629   7.375
  570SOL    HW218853   0.093   2.633   7.235
  571SOL     OW18854   6.247   1.371   6.861
  571SOL    HW118855   6.232   1.397   6.770
  571SOL    HW218856   6.163   1.337   6.890
  572SOL     OW18857   2.228   0.331   5.989
  572SOL    HW118858   2.214   0.238   6.005
  572SOL    HW218859   2.173   0.376   6.053
  573SOL     OW18860   0.691   0.675   1.710
  573SOL    HW118861   0.685   0.621   1.789
  573SOL    HW218862   0.783   0.701   1.706
  574SOL     OW18863   5.061   0.673   0.168
  574SOL    HW118864   5.116   0.602   0.203
  574SOL    HW218865   5.121   0.747   0.159
  575SOL     OW18866   1.225   5.048   0.341
  575SOL    HW118867   1.233   5.077   0.251
  575SOL    HW218868   1.246   4.954   0.338
  576SOL     OW18869   4.940   2.082   1.408
  576SOL    HW118870   4.894   2.003   1.436
  576SOL    HW218871   4.937   2.079   1.312
  577SOL     OW18872   5.108   1.200   7.518
  577SOL    HW118873   5.027   1.197   7.468
  577SOL    HW218874   5.095   1.272   7.580
  578SOL     OW18875   5.412   6.293   2.071
  578SOL    HW118876   5.426   6.286   2.165
  578SOL    HW218877   5.445   6.211   2.035
  579SOL     OW18878   0.550   6.201   1.707
  579SOL    HW118879   0.460   6.170   1.716
  579SOL    HW218880   0.567   6.251   1.786
  580SOL     OW18881   5.966   2.398   1.495
  580SOL    HW118882   5.933   2.395   1.585
  580SOL    HW218883   6.031   2.468   1.496
  581SOL     OW18884   2.420   0.524   1.910
  581SOL    HW118885   2.357   0.457   1.933
  581SOL    HW218886   2.483   0.525   1.982
  582SOL     OW18887   4.025   1.654   2.197
  582SOL    HW118888   4.000   1.605   2.275
  582SOL    HW218889   4.050   1.740   2.230
  583SOL     OW18890   2.511   4.674   0.496
  583SOL    HW118891   2.589   4.676   0.439
  583SOL    HW218892   2.459   4.749   0.467
  584SOL     OW18893   1.406   1.249   7.347
  584SOL    HW118894   1.436   1.158   7.353
  584SOL    HW218895   1.388   1.274   7.438
  585SOL     OW18896   4.467   4.346   0.324
  585SOL    HW118897   4.557   4.331   0.355
  585SOL    HW218898   4.469   4.320   0.232
  586SOL     OW18899   1.804   4.593   1.562
  586SOL    HW118900   1.821   4.507   1.523
  586SOL    HW218901   1.883   4.612   1.612
  587SOL     OW18902   3.676   0.764   0.933
  587SOL    HW118903   3.594   0.727   0.900
  587SOL    HW218904   3.724   0.790   0.854
  588SOL     OW18905   2.403   6.193   6.973
  588SOL    HW118906   2.455   6.207   7.052
  588SOL    HW218907   2.312   6.206   7.002
  589SOL     OW18908   0.539   1.901   6.810
  589SOL    HW118909   0.539   1.808   6.833
  589SOL    HW218910   0.570   1.945   6.889
  590SOL     OW18911   0.768   3.317   7.191
  590SOL    HW118912   0.859   3.349   7.200
  590SOL    HW218913   0.774   3.224   7.210
  591SOL     OW18914   4.300   1.956   1.706
  591SOL    HW118915   4.354   1.978   1.631
  591SOL    HW218916   4.319   1.863   1.723
  592SOL     OW18917   1.238   0.765   1.836
  592SOL    HW118918   1.235   0.670   1.828
  592SOL    HW218919   1.183   0.785   1.912
  593SOL     OW18920   3.018   5.072   2.503
  593SOL    HW118921   2.955   5.001   2.494
  593SOL    HW218922   2.966   5.151   2.496
  594SOL     OW18923   4.076   1.028   0.508
  594SOL    HW118924   3.991   1.071   0.501
  594SOL    HW218925   4.083   1.006   0.601
  595SOL     OW18926   5.020   5.381   1.140
  595SOL    HW118927   5.050   5.367   1.051
  595SOL    HW218928   4.988   5.471   1.142
  596SOL     OW18929   0.781   4.646   6.078
  596SOL    HW118930   0.851   4.601   6.031
  596SOL    HW218931   0.825   4.718   6.124
  597SOL     OW18932   0.626   6.157   0.096
  597SOL    HW118933   0.533   6.164   0.073
  597SOL    HW218934   0.649   6.243   0.130
  598SOL     OW18935   4.757   0.596   0.714
  598SOL    HW118936   4.792   0.655   0.781
  598SOL    HW218937   4.687   0.645   0.672
  599SOL     OW18938   1.221   6.164   1.135
  599SOL    HW118939   1.200   6.155   1.228
  599SOL    HW218940   1.312   6.195   1.135
  600SOL     OW18941   0.269   3.000   6.908
  600SOL    HW118942   0.307   3.023   6.823
  600SOL    HW218943   0.176   2.987   6.891
  601SOL     OW18944   5.881   6.228   6.348
  601SOL    HW118945   5.895   6.195   6.437
  601SOL    HW218946   5.962   6.208   6.301
  602SOL     OW18947   5.720   5.558   6.189
  602SOL    HW118948   5.723   5.485   6.126
  602SOL    HW218949   5.784   5.621   6.155
  603SOL     OW18950   0.297   0.036   7.531
  603SOL    HW118951   0.290  -0.040   7.590
  603SOL    HW218952   0.257   0.007   7.449
  604SOL     OW18953   5.811   2.581   0.217
  604SOL    HW118954   5.731   2.618   0.181
  604SOL    HW218955   5.782   2.523   0.287
  605SOL     OW18956   3.410   1.839   2.019
  605SOL    HW118957   3.496   1.802   1.999
  605SOL    HW218958   3.381   1.792   2.097
  606SOL     OW18959   5.968   0.921   7.623
  606SOL    HW118960   5.910   0.845   7.616
  606SOL    HW218961   6.015   0.907   7.706
  607SOL     OW18962   1.558   2.306   0.688
  607SOL    HW118963   1.487   2.253   0.651
  607SOL    HW218964   1.517   2.389   0.709
  608SOL     OW18965   2.875   4.442   7.446
  608SOL    HW118966   2.969   4.430   7.457
  608SOL    HW218967   2.852   4.385   7.373
  609SOL     OW18968   3.241   0.039   6.182
  609SOL    HW118969   3.238  -0.030   6.116
  609SOL    HW218970   3.272  -0.006   6.261
  610SOL     OW18971   4.419   1.024   0.401
  610SOL    HW118972   4.487   1.039   0.335
  610SOL    HW218973   4.355   0.968   0.358
  611SOL     OW18974   4.741   5.586   1.921
  611SOL    HW118975   4.747   5.509   1.864
  611SOL    HW218976   4.648   5.592   1.943
  612SOL     OW18977   2.013   0.769   2.130
  612SOL    HW118978   2.005   0.757   2.035
  612SOL    HW218979   2.079   0.838   2.139
  613SOL     OW18980   0.493   4.934   7.146
  613SOL    HW118981   0.460   4.958   7.232
  613SOL    HW218982   0.559   4.866   7.163
  614SOL     OW18983   3.670   5.899   1.052
  614SOL    HW118984   3.668   5.890   0.956
  614SOL    HW218985   3.605   5.966   1.071
  615SOL     OW18986   6.406   4.614   1.720
  615SOL    HW118987   6.412   4.520   1.709
  615SOL    HW218988   6.489   4.639   1.762
  616SOL     OW18989   0.861   3.654   1.736
  616SOL    HW118990   0.856   3.563   1.704
  616SOL    HW218991   0.837   3.648   1.828
  617SOL     OW18992   1.706   2.796   6.338
  617SOL    HW118993   1.718   2.859   6.267
  617SOL    HW218994   1.656   2.724   6.298
  618SOL     OW18995   5.281   2.775   1.594
  618SOL    HW118996   5.280   2.868   1.572
  618SOL    HW218997   5.288   2.730   1.510
  619SOL     OW18998   6.391   3.566   1.038
  619SOL    HW118999   6.429   3.626   1.102
  619SOL    HW219000   6.356   3.622   0.970
  620SOL     OW19001   2.158   0.415   1.022
  620SOL    HW119002   2.228   0.440   0.962
  620SOL    HW219003   2.087   0.386   0.965
  621SOL     OW19004   1.152   4.875   2.166
  621SOL    HW119005   1.220   4.942   2.162
  621SOL    HW219006   1.185   4.812   2.230
  622SOL     OW19007   0.513   4.761   7.369
  622SOL    HW119008   0.517   4.836   7.428
  622SOL    HW219009   0.603   4.749   7.340
  623SOL     OW19010   5.915   5.292   0.176
  623SOL    HW119011   5.885   5.382   0.193
  623SOL    HW219012   5.834   5.242   0.165
  624SOL     OW19013   6.263   0.691   7.401
  624SOL    HW119014   6.216   0.617   7.364
  624SOL    HW219015   6.341   0.701   7.348
  625SOL     OW19016   1.850   5.090   1.303
  625SOL    HW119017   1.812   5.025   1.362
  625SOL    HW219018   1.806   5.172   1.326
  626SOL     OW19019   5.484   4.949   0.988
  626SOL    HW119020   5.395   4.956   0.952
  626SOL    HW219021   5.478   4.878   1.051
  627SOL     OW19022   1.789   2.437   6.614
  627SOL    HW119023   1.758   2.433   6.705
  627SOL    HW219024   1.759   2.354   6.576
  628SOL     OW19025   0.383   5.143   6.701
  628SOL    HW119026   0.463   5.193   6.686
  628SOL    HW219027   0.404   5.055   6.671
  629SOL     OW19028   4.993   4.936   6.681
  629SOL    HW119029   4.912   4.889   6.701
  629SOL    HW219030   4.989   5.015   6.735
  630SOL     OW19031   3.102   1.564   0.992
  630SOL    HW119032   3.180   1.508   0.997
  630SOL    HW219033   3.132   1.644   0.950
  631SOL     OW19034   3.869   1.641   6.732
  631SOL    HW119035   3.924   1.593   6.794
  631SOL    HW219036   3.795   1.582   6.715
  632SOL     OW19037   6.187   4.667   6.625
  632SOL    HW119038   6.202   4.713   6.707
  632SOL    HW219039   6.178   4.575   6.651
  633SOL     OW19040   1.318   0.822   7.444
  633SOL    HW119041   1.246   0.831   7.381
  633SOL    HW219042   1.291   0.752   7.502
  634SOL     OW19043   3.238   3.503   6.618
  634SOL    HW119044   3.267   3.508   6.526
  634SOL    HW219045   3.252   3.592   6.652
  635SOL     OW19046   3.559   3.631   1.031
  635SOL    HW119047   3.604   3.705   0.989
  635SOL    HW219048   3.612   3.555   1.008
  636SOL     OW19049   0.974   0.796   1.736
  636SOL    HW119050   1.062   0.759   1.728
  636SOL    HW219051   0.946   0.775   1.825
  637SOL     OW19052   1.497   5.235   0.133
  637SOL    HW119053   1.406   5.227   0.106
  637SOL    HW219054   1.534   5.148   0.117
  638SOL     OW19055   0.545   3.918   7.149
  638SOL    HW119056   0.607   3.954   7.086
  638SOL    HW219057   0.502   3.847   7.103
  639SOL     OW19058   2.297   2.280   7.171
  639SOL    HW119059   2.246   2.354   7.205
  639SOL    HW219060   2.275   2.277   7.078
  640SOL     OW19061   6.440   2.465   1.732
  640SOL    HW119062   6.516   2.490   1.785
  640SOL    HW219063   6.476   2.407   1.665
  641SOL     OW19064   3.728   4.909   2.554
  641SOL    HW119065   3.667   4.938   2.486
  641SOL    HW219066   3.732   4.814   2.545
  642SOL     OW19067   6.454   0.466   1.189
  642SOL    HW119068   6.542   0.491   1.215
  642SOL    HW219069   6.467   0.399   1.121
  643SOL     OW19070   0.134   0.360   7.008
  643SOL    HW119071   0.179   0.287   7.049
  643SOL    HW219072   0.184   0.437   7.035
  644SOL     OW19073   5.467   0.379   1.039
  644SOL    HW119074   5.521   0.318   1.089
  644SOL    HW219075   5.524   0.408   0.967
  645SOL     OW19076   3.297   0.576   0.431
  645SOL    HW119077   3.332   0.639   0.493
  645SOL    HW219078   3.203   0.595   0.428
  646SOL     OW19079   6.362   3.600   6.059
  646SOL    HW119080   6.284   3.636   6.101
  646SOL    HW219081   6.435   3.646   6.100
  647SOL     OW19082   5.786   3.556   7.300
  647SOL    HW119083   5.743   3.485   7.347
  647SOL    HW219084   5.781   3.530   7.208
  648SOL     OW19085   5.215   2.391   1.324
  648SOL    HW119086   5.293   2.423   1.368
  648SOL    HW219087   5.200   2.304   1.362
  649SOL     OW19088   5.812   6.176   0.201
  649SOL    HW119089   5.775   6.246   0.255
  649SOL    HW219090   5.837   6.220   0.119
  650SOL     OW19091   4.759   4.599   7.486
  650SOL    HW119092   4.748   4.672   7.425
  650SOL    HW219093   4.808   4.533   7.437
  651SOL     OW19094   1.991   6.164   0.246
  651SOL    HW119095   2.043   6.213   0.182
  651SOL    HW219096   1.958   6.231   0.306
  652SOL     OW19097   2.611   1.515   0.333
  652SOL    HW119098   2.621   1.533   0.240
  652SOL    HW219099   2.701   1.521   0.367
  653SOL     OW19100   4.350   0.557   2.259
  653SOL    HW119101   4.345   0.602   2.344
  653SOL    HW219102   4.442   0.564   2.233
  654SOL     OW19103   3.951   0.900   1.179
  654SOL    HW119104   3.941   0.978   1.125
  654SOL    HW219105   4.026   0.855   1.142
  655SOL     OW19106   3.026   0.567   6.268
  655SOL    HW119107   2.943   0.613   6.271
  655SOL    HW219108   3.065   0.593   6.185
  656SOL     OW19109   1.466   5.163   1.053
  656SOL    HW119110   1.497   5.254   1.056
  656SOL    HW219111   1.379   5.166   1.092
  657SOL     OW19112   5.011   3.004   1.282
  657SOL    HW119113   4.975   3.064   1.217
  657SOL    HW219114   4.982   3.039   1.366
  658SOL     OW19115   1.079   1.267   0.378
  658SOL    HW119116   1.156   1.247   0.326
  658SOL    HW219117   1.073   1.197   0.442
  659SOL     OW19118   5.607   5.843   7.226
  659SOL    HW119119   5.531   5.900   7.238
  659SOL    HW219120   5.666   5.893   7.169
  660SOL     OW19121   4.907   3.867   7.353
  660SOL    HW119122   4.820   3.895   7.325
  660SOL    HW219123   4.948   3.946   7.387
  661SOL     OW19124   0.448   2.812   6.589
  661SOL    HW119125   0.468   2.726   6.552
  661SOL    HW219126   0.441   2.796   6.683
  662SOL     OW19127   5.742   1.547   0.227
  662SOL    HW119128   5.655   1.533   0.189
  662SOL    HW219129   5.749   1.642   0.236
  663SOL     OW19130   5.215   5.902   7.586
  663SOL    HW119131   5.202   5.997   7.584
  663SOL    HW219132   5.249   5.881   7.499
  664SOL     OW19133   0.723   0.608   0.092
  664SOL    HW119134   0.710   0.539   0.158
  664SOL    HW219135   0.789   0.572   0.033
  665SOL     OW19136   6.325   5.151   6.835
  665SOL    HW119137   6.418   5.173   6.836
  665SOL    HW219138   6.306   5.128   6.744
  666SOL     OW19139   0.573   2.293   6.483
  666SOL    HW119140   0.554   2.298   6.389
  666SOL    HW219141   0.573   2.199   6.502
  667SOL     OW19142   4.043   0.073   6.476
  667SOL    HW119143   4.038   0.149   6.418
  667SOL    HW219144   4.112   0.018   6.437
  668SOL     OW19145   0.585   4.539   0.010
  668SOL    HW119146   0.585   4.578   0.097
  668SOL    HW219147   0.494   4.513  -0.006
  669SOL     OW19148   3.976   4.519   0.549
  669SOL    HW119149   4.042   4.488   0.487
  669SOL    HW219150   3.965   4.611   0.528
  670SOL     OW19151   5.073   5.161   2.016
  670SOL    HW119152   5.097   5.121   1.933
  670SOL    HW219153   4.987   5.123   2.037
  671SOL     OW19154   3.633   6.243   6.555
  671SOL    HW119155   3.644   6.196   6.638
  671SOL    HW219156   3.592   6.180   6.496
  672SOL     OW19157   6.245   0.234   5.753
  672SOL    HW119158   6.305   0.258   5.824
  672SOL    HW219159   6.287   0.158   5.711
  673SOL     OW19160   1.242   5.215   1.190
  673SOL    HW119161   1.259   5.289   1.131
  673SOL    HW219162   1.270   5.246   1.276
  674SOL     OW19163   6.390   6.119   1.357
  674SOL    HW119164   6.449   6.063   1.305
  674SOL    HW219165   6.383   6.199   1.306
  675SOL     OW19166   1.480   4.296   6.597
  675SOL    HW119167   1.400   4.253   6.626
  675SOL    HW219168   1.507   4.247   6.519
  676SOL     OW19169   1.928   0.899   0.043
  676SOL    HW119170   1.846   0.948   0.041
  676SOL    HW219171   1.952   0.894   0.135
  677SOL     OW19172   2.143   5.327   7.389
  677SOL    HW119173   2.101   5.405   7.352
  677SOL    HW219174   2.082   5.256   7.372
  678SOL     OW19175   2.469   0.523   7.553
  678SOL    HW119176   2.402   0.455   7.559
  678SOL    HW219177   2.420   0.605   7.554
  679SOL     OW19178   4.886   3.146   6.126
  679SOL    HW119179   4.851   3.153   6.037
  679SOL    HW219180   4.915   3.055   6.134
  680SOL     OW19181   2.366   2.228   7.702
  680SOL    HW119182   2.277   2.221   7.735
  680SOL    HW219183   2.387   2.140   7.669
  681SOL     OW19184   5.395   2.986   2.083
  681SOL    HW119185   5.354   3.073   2.073
  681SOL    HW219186   5.443   2.993   2.166
  682SOL     OW19187   0.209   1.532   6.498
  682SOL    HW119188   0.169   1.451   6.529
  682SOL    HW219189   0.137   1.582   6.462
  683SOL     OW19190   1.956   3.438   1.522
  683SOL    HW119191   2.015   3.490   1.576
  683SOL    HW219192   1.990   3.349   1.529
  684SOL     OW19193   4.130   3.371   1.524
  684SOL    HW119194   4.116   3.453   1.477
  684SOL    HW219195   4.054   3.362   1.581
  685SOL     OW19196   1.471   6.080   7.072
  685SOL    HW119197   1.390   6.129   7.061
  685SOL    HW219198   1.465   6.041   7.159
  686SOL     OW19199   2.836   2.308   7.634
  686SOL    HW119200   2.912   2.344   7.588
  686SOL    HW219201   2.795   2.250   7.570
  687SOL     OW19202   2.653   4.363   5.766
  687SOL    HW119203   2.687   4.281   5.802
  687SOL    HW219204   2.559   4.359   5.780
  688SOL     OW19205   3.107   5.988   6.085
  688SOL    HW119206   3.066   6.072   6.106
  688SOL    HW219207   3.043   5.944   6.029
  689SOL     OW19208   4.339   4.947   0.077
  689SOL    HW119209   4.409   4.997   0.035
  689SOL    HW219210   4.312   5.001   0.151
  690SOL     OW19211   2.364   1.669   0.502
  690SOL    HW119212   2.410   1.723   0.567
  690SOL    HW219213   2.425   1.665   0.428
  691SOL     OW19214   5.940   5.799   6.792
  691SOL    HW119215   5.905   5.814   6.705
  691SOL    HW219216   5.884   5.731   6.830
  692SOL     OW19217   3.252   2.026   6.654
  692SOL    HW119218   3.246   2.060   6.565
  692SOL    HW219219   3.212   2.094   6.708
  693SOL     OW19220   5.441   2.569   0.899
  693SOL    HW119221   5.374   2.637   0.891
  693SOL    HW219222   5.495   2.597   0.973
  694SOL     OW19223   5.796   2.043   0.789
  694SOL    HW119224   5.827   2.077   0.873
  694SOL    HW219225   5.828   2.106   0.724
  695SOL     OW19226   4.459   5.700   6.688
  695SOL    HW119227   4.499   5.639   6.626
  695SOL    HW219228   4.460   5.655   6.772
  696SOL     OW19229   6.045   1.508   7.365
  696SOL    HW119230   6.040   1.600   7.338
  696SOL    HW219231   6.014   1.459   7.289
  697SOL     OW19232   2.660   1.980   2.369
  697SOL    HW119233   2.612   1.943   2.295
  697SOL    HW219234   2.736   2.023   2.330
  698SOL     OW19235   3.001   0.287   7.532
  698SOL    HW119236   2.940   0.220   7.562
  698SOL    HW219237   3.083   0.267   7.577
  699SOL     OW19238   1.488   2.502   1.574
  699SOL    HW119239   1.485   2.453   1.492
  699SOL    HW219240   1.518   2.439   1.639
  700SOL     OW19241   3.430   5.020   1.607
  700SOL    HW119242   3.519   5.003   1.576
  700SOL    HW219243   3.439   5.093   1.668
  701SOL     OW19244   4.583   5.081   7.262
  701SOL    HW119245   4.561   5.068   7.355
  701SOL    HW219246   4.548   5.004   7.218
  702SOL     OW19247   2.829   0.117   6.900
  702SOL    HW119248   2.846   0.170   6.978
  702SOL    HW219249   2.809   0.030   6.934
  703SOL     OW19250   3.838   4.080   6.746
  703SOL    HW119251   3.863   4.053   6.834
  703SOL    HW219252   3.854   4.003   6.691
  704SOL     OW19253   2.170   5.515   0.017
  704SOL    HW119254   2.205   5.487  -0.068
  704SOL    HW219255   2.203   5.604   0.029
  705SOL     OW19256   3.249   3.985   0.125
  705SOL    HW119257   3.181   3.994   0.192
  705SOL    HW219258   3.202   3.958   0.046
  706SOL     OW19259   6.269   2.848   1.558
  706SOL    HW119260   6.320   2.923   1.528
  706SOL    HW219261   6.300   2.775   1.504
  707SOL     OW19262   5.544   4.213   0.988
  707SOL    HW119263   5.462   4.251   0.958
  707SOL    HW219264   5.525   4.121   1.001
  708SOL     OW19265   4.431   4.863   0.826
  708SOL    HW119266   4.344   4.823   0.831
  708SOL    HW219267   4.492   4.789   0.819
  709SOL     OW19268   2.389   5.712   2.567
  709SOL    HW119269   2.358   5.632   2.525
  709SOL    HW219270   2.458   5.744   2.510
  710SOL     OW19271   6.080   6.454   1.266
  710SOL    HW119272   6.082   6.492   1.178
  710SOL    HW219273   6.066   6.361   1.252
  711SOL     OW19274   0.556   3.067   7.504
  711SOL    HW119275   0.640   3.023   7.516
  711SOL    HW219276   0.532   3.049   7.413
  712SOL     OW19277   0.821   4.320   1.812
  712SOL    HW119278   0.747   4.334   1.870
  712SOL    HW219279   0.882   4.266   1.863
  713SOL     OW19280   3.909   3.883   1.122
  713SOL    HW119281   3.844   3.949   1.099
  713SOL    HW219282   3.973   3.886   1.051
  714SOL     OW19283   2.968   1.978   6.821
  714SOL    HW119284   3.024   1.901   6.834
  714SOL    HW219285   3.029   2.050   6.803
  715SOL     OW19286   4.990   1.865   2.018
  715SOL    HW119287   4.999   1.828   2.106
  715SOL    HW219288   5.057   1.933   2.013
  716SOL     OW19289   0.535   0.218   1.397
  716SOL    HW119290   0.578   0.153   1.454
  716SOL    HW219291   0.540   0.300   1.446
  717SOL     OW19292   1.832   5.035   7.074
  717SOL    HW119293   1.883   5.116   7.081
  717SOL    HW219294   1.898   4.965   7.070
  718SOL     OW19295   2.150   1.823   0.790
  718SOL    HW119296   2.154   1.885   0.717
  718SOL    HW219297   2.060   1.790   0.788
  719SOL     OW19298   6.436   1.831   0.428
  719SOL    HW119299   6.450   1.744   0.466
  719SOL    HW219300   6.366   1.870   0.481
  720SOL     OW19301   1.811   3.357   0.710
  720SOL    HW119302   1.761   3.361   0.629
  720SOL    HW219303   1.856   3.441   0.715
  721SOL     OW19304   2.487   5.552   1.155
  721SOL    HW119305   2.561   5.515   1.107
  721SOL    HW219306   2.457   5.480   1.211
  722SOL     OW19307   3.030   2.434   7.461
  722SOL    HW119308   3.125   2.440   7.446
  722SOL    HW219309   3.004   2.521   7.490
  723SOL     OW19310   3.584   5.684   0.459
  723SOL    HW119311   3.545   5.621   0.398
  723SOL    HW219312   3.657   5.722   0.410
  724SOL     OW19313   4.432   0.286   0.800
  724SOL    HW119314   4.397   0.201   0.828
  724SOL    HW219315   4.489   0.264   0.726
  725SOL     OW19316   4.235   4.739   6.555
  725SOL    HW119317   4.242   4.816   6.612
  725SOL    HW219318   4.274   4.668   6.606
  726SOL     OW19319   5.573   0.527   0.263
  726SOL    HW119320   5.534   0.614   0.267
  726SOL    HW219321   5.637   0.532   0.192
  727SOL     OW19322   5.903   3.141   1.137
  727SOL    HW119323   5.943   3.069   1.186
  727SOL    HW219324   5.843   3.182   1.198
  728SOL     OW19325   2.553   3.780   1.346
  728SOL    HW119326   2.580   3.802   1.257
  728SOL    HW219327   2.480   3.840   1.364
  729SOL     OW19328   0.260   5.442   2.385
  729SOL    HW119329   0.333   5.502   2.376
  729SOL    HW219330   0.299   5.355   2.372
  730SOL     OW19331   1.414   1.274   6.264
  730SOL    HW119332   1.455   1.303   6.182
  730SOL    HW219333   1.473   1.205   6.295
  731SOL     OW19334   4.412   2.226   7.539
  731SOL    HW119335   4.348   2.258   7.603
  731SOL    HW219336   4.405   2.288   7.466
  732SOL     OW19337   0.123   0.062   1.426
  732SOL    HW119338   0.059   0.094   1.489
  732SOL    HW219339   0.172  -0.005   1.474
  733SOL     OW19340   5.496   1.438   6.172
  733SOL    HW119341   5.547   1.399   6.101
  733SOL    HW219342   5.555   1.503   6.211
  734SOL     OW19343   1.866   1.304   7.486
  734SOL    HW119344   1.785   1.309   7.437
  734SOL    HW219345   1.921   1.374   7.450
  735SOL     OW19346   3.362   2.200   6.947
  735SOL    HW119347   3.291   2.184   6.884
  735SOL    HW219348   3.441   2.171   6.901
  736SOL     OW19349   6.279   5.669   6.868
  736SOL    HW119350   6.195   5.715   6.877
  736SOL    HW219351   6.292   5.664   6.773
  737SOL     OW19352   5.292   5.925   6.805
  737SOL    HW119353   5.387   5.921   6.795
  737SOL    HW219354   5.278   5.930   6.900
  738SOL     OW19355   6.192   2.495   1.860
  738SOL    HW119356   6.222   2.492   1.951
  738SOL    HW219357   6.270   2.473   1.808
  739SOL     OW19358   4.636   2.521   1.653
  739SOL    HW119359   4.621   2.432   1.684
  739SOL    HW219360   4.721   2.518   1.609
  740SOL     OW19361   5.946   4.545   6.934
  740SOL    HW119362   6.033   4.537   6.972
  740SOL    HW219363   5.961   4.565   6.842
  741SOL     OW19364   2.873   2.465   7.141
  741SOL    HW119365   2.825   2.456   7.058
  741SOL    HW219366   2.806   2.453   7.208
  742SOL     OW19367   5.735   4.500   6.368
  742SOL    HW119368   5.783   4.583   6.370
  742SOL    HW219369   5.763   4.454   6.447
  743SOL     OW19370   3.936   5.488   0.808
  743SOL    HW119371   3.904   5.578   0.821
  743SOL    HW219372   3.919   5.445   0.892
  744SOL     OW19373   0.049   5.741   6.239
  744SOL    HW119374   0.106   5.775   6.171
  744SOL    HW219375   0.098   5.669   6.279
  745SOL     OW19376   2.912   1.556   1.181
  745SOL    HW119377   2.844   1.615   1.147
  745SOL    HW219378   2.982   1.562   1.116
  746SOL     OW19379   1.449   1.633   6.829
  746SOL    HW119380   1.516   1.700   6.816
  746SOL    HW219381   1.389   1.644   6.756
  747SOL     OW19382   2.682   4.991   7.073
  747SOL    HW119383   2.728   4.950   7.146
  747SOL    HW219384   2.733   5.070   7.055
  748SOL     OW19385   1.125   0.346   6.701
  748SOL    HW119386   1.101   0.324   6.611
  748SOL    HW219387   1.047   0.389   6.737
  749SOL     OW19388   2.144   6.272   1.191
  749SOL    HW119389   2.078   6.214   1.152
  749SOL    HW219390   2.221   6.261   1.135
  750SOL     OW19391   2.506   4.001   7.295
  750SOL    HW119392   2.417   4.035   7.283
  750SOL    HW219393   2.495   3.906   7.294
  751SOL     OW19394   1.196   1.367   7.029
  751SOL    HW119395   1.131   1.297   7.038
  751SOL    HW219396   1.253   1.337   6.958
  752SOL     OW19397   0.878   5.265   0.732
  752SOL    HW119398   0.873   5.252   0.637
  752SOL    HW219399   0.884   5.360   0.743
  753SOL     OW19400   1.992   1.413   0.405
  753SOL    HW119401   2.028   1.435   0.491
  753SOL    HW219402   1.950   1.494   0.375
  754SOL     OW19403   3.270   1.131   6.626
  754SOL    HW119404   3.329   1.128   6.701
  754SOL    HW219405   3.281   1.046   6.583
  755SOL     OW19406   3.540   2.625   2.530
  755SOL    HW119407   3.480   2.675   2.476
  755SOL    HW219408   3.621   2.677   2.530
  756SOL     OW19409   6.050   6.449   2.016
  756SOL    HW119410   6.059   6.360   2.052
  756SOL    HW219411   5.985   6.440   1.947
  757SOL     OW19412   2.598   3.983   0.515
  757SOL    HW119413   2.625   4.027   0.435
  757SOL    HW219414   2.648   4.026   0.585
  758SOL     OW19415   3.259   5.698   2.517
  758SOL    HW119416   3.348   5.714   2.549
  758SOL    HW219417   3.246   5.764   2.449
  759SOL     OW19418   1.153   1.269   1.378
  759SOL    HW119419   1.089   1.279   1.307
  759SOL    HW219420   1.185   1.180   1.370
  760SOL     OW19421   0.701   1.895   1.913
  760SOL    HW119422   0.670   1.839   1.984
  760SOL    HW219423   0.624   1.909   1.858
  761SOL     OW19424   4.832   2.518   6.103
  761SOL    HW119425   4.913   2.477   6.133
  761SOL    HW219426   4.771   2.444   6.091
  762SOL     OW19427   6.130   4.798   5.219
  762SOL    HW119428   6.056   4.743   5.248
  762SOL    HW219429   6.101   4.887   5.235
  763SOL     OW19430   5.037   2.662   1.677
  763SOL    HW119431   5.124   2.700   1.659
  763SOL    HW219432   4.975   2.727   1.643
  764SOL     OW19433   4.983   1.452   2.184
  764SOL    HW119434   5.059   1.496   2.221
  764SOL    HW219435   4.921   1.445   2.256
  765SOL     OW19436   5.817   0.867   7.119
  765SOL    HW119437   5.908   0.880   7.091
  765SOL    HW219438   5.786   0.954   7.141
  766SOL     OW19439   6.379   0.418   6.240
  766SOL    HW119440   6.386   0.349   6.307
  766SOL    HW219441   6.465   0.460   6.239
  767SOL     OW19442   6.346   1.036   7.017
  767SOL    HW119443   6.400   1.097   7.068
  767SOL    HW219444   6.354   1.066   6.927
  768SOL     OW19445   3.609   2.117   6.841
  768SOL    HW119446   3.623   2.192   6.784
  768SOL    HW219447   3.667   2.049   6.805
  769SOL     OW19448   5.070   3.494   0.194
  769SOL    HW119449   5.078   3.434   0.268
  769SOL    HW219450   5.153   3.543   0.194
  770SOL     OW19451   5.526   4.448   2.853
  770SOL    HW119452   5.612   4.409   2.862
  770SOL    HW219453   5.478   4.387   2.798
  771SOL     OW19454   3.857   3.932   7.055
  771SOL    HW119455   3.804   3.861   7.017
  771SOL    HW219456   3.795   4.003   7.069
  772SOL     OW19457   0.340   1.602   1.810
  772SOL    HW119458   0.311   1.661   1.740
  772SOL    HW219459   0.411   1.551   1.772
  773SOL     OW19460   4.741   5.645   1.281
  773SOL    HW119461   4.667   5.595   1.317
  773SOL    HW219462   4.805   5.647   1.351
  774SOL     OW19463   0.073   4.845   6.385
  774SOL    HW119464   0.083   4.940   6.384
  774SOL    HW219465  -0.006   4.828   6.335
  775SOL     OW19466   1.657   1.409   0.178
  775SOL    HW119467   1.711   1.338   0.144
  775SOL    HW219468   1.631   1.379   0.265
  776SOL     OW19469   3.857   2.202   6.176
  776SOL    HW119470   3.925   2.159   6.125
  776SOL    HW219471   3.808   2.130   6.217
  777SOL     OW19472   2.100   1.340   1.040
  777SOL    HW119473   2.046   1.391   1.101
  777SOL    HW219474   2.057   1.254   1.037
  778SOL     OW19475   2.816   4.626   7.190
  778SOL    HW119476   2.780   4.550   7.235
  778SOL    HW219477   2.813   4.696   7.254
  779SOL     OW19478   5.825   1.896   1.698
  779SOL    HW119479   5.815   1.880   1.604
  779SOL    HW219480   5.875   1.977   1.703
  780SOL     OW19481   2.461   4.786   1.632
  780SOL    HW119482   2.444   4.826   1.717
  780SOL    HW219483   2.439   4.694   1.643
  781SOL     OW19484   3.186   2.422   1.006
  781SOL    HW119485   3.179   2.327   1.015
  781SOL    HW219486   3.101   2.449   0.970
  782SOL     OW19487   2.968   0.400   6.747
  782SOL    HW119488   2.948   0.397   6.653
  782SOL    HW219489   3.058   0.435   6.750
  783SOL     OW19490   1.396   1.696   7.110
  783SOL    HW119491   1.422   1.672   7.021
  783SOL    HW219492   1.478   1.719   7.154
  784SOL     OW19493   3.405   0.164   0.291
  784SOL    HW119494   3.430   0.226   0.222
  784SOL    HW219495   3.385   0.083   0.245
  785SOL     OW19496   3.307   4.682   6.999
  785SOL    HW119497   3.218   4.707   6.974
  785SOL    HW219498   3.308   4.587   6.988
  786SOL     OW19499   3.479   5.903   5.819
  786SOL    HW119500   3.427   5.824   5.835
  786SOL    HW219501   3.446   5.967   5.882
  787SOL     OW19502   3.368   3.635   1.464
  787SOL    HW119503   3.287   3.630   1.514
  787SOL    HW219504   3.407   3.548   1.473
  788SOL     OW19505   6.344   1.327   5.958
  788SOL    HW119506   6.418   1.370   5.916
  788SOL    HW219507   6.365   1.330   6.052
  789SOL     OW19508   0.625   3.935   0.308
  789SOL    HW119509   0.648   4.017   0.353
  789SOL    HW219510   0.562   3.893   0.366
  790SOL     OW19511   2.980   6.186   1.057
  790SOL    HW119512   2.942   6.111   1.103
  790SOL    HW219513   3.050   6.217   1.114
  791SOL     OW19514   5.554   5.884   1.565
  791SOL    HW119515   5.623   5.891   1.631
  791SOL    HW219516   5.530   5.791   1.565
  792SOL     OW19517   5.667   0.277   7.496
  792SOL    HW119518   5.645   0.370   7.494
  792SOL    HW219519   5.635   0.242   7.413
  793SOL     OW19520   3.279   3.660   6.929
  793SOL    HW119521   3.194   3.685   6.893
  793SOL    HW219522   3.293   3.720   7.003
  794SOL     OW19523   4.253   2.222   0.535
  794SOL    HW119524   4.302   2.291   0.490
  794SOL    HW219525   4.161   2.244   0.518
  795SOL     OW19526   3.576   4.382   1.080
  795SOL    HW119527   3.582   4.472   1.050
  795SOL    HW219528   3.667   4.353   1.088
  796SOL     OW19529   5.471   4.434   7.648
  796SOL    HW119530   5.440   4.471   7.731
  796SOL    HW219531   5.554   4.393   7.669
  797SOL     OW19532   4.570   1.616   6.313
  797SOL    HW119533   4.507   1.544   6.319
  797SOL    HW219534   4.521   1.688   6.272
  798SOL     OW19535   5.362   4.432   2.507
  798SOL    HW119536   5.278   4.390   2.526
  798SOL    HW219537   5.425   4.381   2.558
  799SOL     OW19538   1.097   6.247   6.365
  799SOL    HW119539   1.168   6.309   6.356
  799SOL    HW219540   1.030   6.294   6.415
  800SOL     OW19541   0.542   4.348   0.488
  800SOL    HW119542   0.473   4.390   0.540
  800SOL    HW219543   0.613   4.411   0.487
  801SOL     OW19544   0.223   2.616   2.329
  801SOL    HW119545   0.289   2.622   2.260
  801SOL    HW219546   0.173   2.537   2.308
  802SOL     OW19547   1.990   1.131   0.738
  802SOL    HW119548   2.056   1.200   0.740
  802SOL    HW219549   1.938   1.148   0.660
  803SOL     OW19550   2.450   2.876   0.170
  803SOL    HW119551   2.395   2.886   0.093
  803SOL    HW219552   2.443   2.959   0.216
  804SOL     OW19553   6.016   3.998   5.343
  804SOL    HW119554   5.944   3.957   5.391
  804SOL    HW219555   6.016   4.089   5.373
  805SOL     OW19556   3.242   2.948   2.485
  805SOL    HW119557   3.160   2.944   2.437
  805SOL    HW219558   3.242   3.036   2.524
  806SOL     OW19559   5.307   4.642   6.137
  806SOL    HW119560   5.400   4.621   6.135
  806SOL    HW219561   5.264   4.568   6.095
  807SOL     OW19562   0.283   2.145   0.401
  807SOL    HW119563   0.251   2.234   0.383
  807SOL    HW219564   0.370   2.158   0.439
  808SOL     OW19565   1.114   1.777   0.456
  808SOL    HW119566   1.123   1.842   0.526
  808SOL    HW219567   1.180   1.711   0.476
  809SOL     OW19568   6.420   3.583   1.553
  809SOL    HW119569   6.367   3.594   1.475
  809SOL    HW219570   6.471   3.664   1.560
  810SOL     OW19571   0.412   3.731   6.883
  810SOL    HW119572   0.493   3.766   6.847
  810SOL    HW219573   0.354   3.807   6.891
  811SOL     OW19574   2.807   0.783   6.718
  811SOL    HW119575   2.834   0.792   6.810
  811SOL    HW219576   2.884   0.749   6.674
  812SOL     OW19577   0.586   3.221   0.515
  812SOL    HW119578   0.669   3.214   0.562
  812SOL    HW219579   0.609   3.259   0.430
  813SOL     OW19580   2.283   3.463   0.236
  813SOL    HW119581   2.371   3.428   0.247
  813SOL    HW219582   2.296   3.549   0.195
  814SOL     OW19583   4.245   4.989   7.223
  814SOL    HW119584   4.214   4.994   7.133
  814SOL    HW219585   4.332   4.949   7.216
  815SOL     OW19586   0.721   1.902   7.719
  815SOL    HW119587   0.645   1.892   7.776
  815SOL    HW219588   0.699   1.853   7.640
  816SOL     OW19589   0.325   5.402   0.303
  816SOL    HW119590   0.300   5.321   0.260
  816SOL    HW219591   0.244   5.452   0.310
  817SOL     OW19592   5.324   6.220   6.534
  817SOL    HW119593   5.373   6.261   6.463
  817SOL    HW219594   5.246   6.275   6.545
  818SOL     OW19595   2.386   0.082   2.360
  818SOL    HW119596   2.385   0.138   2.283
  818SOL    HW219597   2.472   0.096   2.400
  819SOL     OW19598   5.516   2.146   0.649
  819SOL    HW119599   5.427   2.180   0.650
  819SOL    HW219600   5.563   2.198   0.714
  820SOL     OW19601   3.953   0.156   0.738
  820SOL    HW119602   3.935   0.204   0.819
  820SOL    HW219603   4.026   0.204   0.698
  821SOL     OW19604   0.370   2.473   1.487
  821SOL    HW119605   0.412   2.401   1.440
  821SOL    HW219606   0.438   2.507   1.544
  822SOL     OW19607   2.010   2.800   6.376
  822SOL    HW119608   1.925   2.826   6.413
  822SOL    HW219609   1.988   2.764   6.290
  823SOL     OW19610   0.034   6.200   7.277
  823SOL    HW119611  -0.054   6.237   7.269
  823SOL    HW219612   0.035   6.126   7.215
  824SOL     OW19613   3.650   1.561   1.794
  824SOL    HW119614   3.557   1.581   1.797
  824SOL    HW219615   3.654   1.466   1.785
  825SOL     OW19616   1.104   0.081   0.652
  825SOL    HW119617   1.178   0.108   0.705
  825SOL    HW219618   1.140   0.069   0.564
  826SOL     OW19619   0.128   3.863   1.571
  826SOL    HW119620   0.182   3.933   1.607
  826SOL    HW219621   0.041   3.877   1.608
  827SOL     OW19622   1.649   4.258   7.359
  827SOL    HW119623   1.608   4.322   7.417
  827SOL    HW219624   1.741   4.282   7.358
  828SOL     OW19625   3.903   4.412   7.348
  828SOL    HW119626   3.916   4.345   7.416
  828SOL    HW219627   3.845   4.476   7.389
  829SOL     OW19628   3.958   0.018   1.865
  829SOL    HW119629   3.938   0.100   1.820
  829SOL    HW219630   3.903   0.020   1.943
  830SOL     OW19631   1.714   4.985   0.719
  830SOL    HW119632   1.635   5.021   0.759
  830SOL    HW219633   1.780   5.053   0.731
  831SOL     OW19634   3.228   1.468   2.757
  831SOL    HW119635   3.310   1.431   2.724
  831SOL    HW219636   3.170   1.471   2.682
  832SOL     OW19637   6.144   3.428   7.594
  832SOL    HW119638   6.139   3.430   7.499
  832SOL    HW219639   6.227   3.383   7.613
  833SOL     OW19640   5.740   2.158   6.808
  833SOL    HW119641   5.724   2.245   6.845
  833SOL    HW219642   5.692   2.157   6.725
  834SOL     OW19643   0.121   0.682   0.523
  834SOL    HW119644   0.042   0.633   0.501
  834SOL    HW219645   0.117   0.760   0.468
  835SOL     OW19646   1.243   5.661   0.309
  835SOL    HW119647   1.315   5.598   0.304
  835SOL    HW219648   1.165   5.607   0.323
  836SOL     OW19649   1.465   3.425   7.422
  836SOL    HW119650   1.521   3.355   7.390
  836SOL    HW219651   1.442   3.475   7.343
  837SOL     OW19652   1.427   0.619   0.899
  837SOL    HW119653   1.369   0.691   0.921
  837SOL    HW219654   1.408   0.599   0.807
  838SOL     OW19655   2.006   5.658   6.445
  838SOL    HW119656   1.990   5.740   6.492
  838SOL    HW219657   2.102   5.654   6.436
  839SOL     OW19658   6.456   3.228   6.628
  839SOL    HW119659   6.475   3.175   6.551
  839SOL    HW219660   6.438   3.315   6.594
  840SOL     OW19661   4.963   6.401   6.146
  840SOL    HW119662   5.000   6.418   6.060
  840SOL    HW219663   4.983   6.309   6.164
  841SOL     OW19664   6.295   1.691   7.612
  841SOL    HW119665   6.217   1.705   7.558
  841SOL    HW219666   6.269   1.721   7.699
  842SOL     OW19667   5.708   2.084   0.454
  842SOL    HW119668   5.645   2.075   0.526
  842SOL    HW219669   5.706   1.999   0.410
  843SOL     OW19670   3.400   1.665   6.877
  843SOL    HW119671   3.447   1.743   6.907
  843SOL    HW219672   3.357   1.631   6.955
  844SOL     OW19673   4.323   6.156   0.313
  844SOL    HW119674   4.277   6.125   0.391
  844SOL    HW219675   4.407   6.110   0.314
  845SOL     OW19676   4.278   0.945   7.650
  845SOL    HW119677   4.282   1.034   7.614
  845SOL    HW219678   4.368   0.928   7.679
  846SOL     OW19679   1.287   5.798   1.925
  846SOL    HW119680   1.263   5.836   1.840
  846SOL    HW219681   1.381   5.812   1.932
  847SOL     OW19682   1.158   3.467   5.841
  847SOL    HW119683   1.119   3.422   5.916
  847SOL    HW219684   1.150   3.560   5.862
  848SOL     OW19685   1.588   6.210   0.396
  848SOL    HW119686   1.656   6.143   0.387
  848SOL    HW219687   1.616   6.280   0.338
  849SOL     OW19688   0.776   4.206   1.470
  849SOL    HW119689   0.763   4.299   1.489
  849SOL    HW219690   0.799   4.203   1.378
  850SOL     OW19691   0.631   2.631   1.230
  850SOL    HW119692   0.678   2.655   1.310
  850SOL    HW219693   0.549   2.679   1.234
  851SOL     OW19694   4.063   1.013   0.777
  851SOL    HW119695   4.140   1.067   0.792
  851SOL    HW219696   4.012   1.019   0.858
  852SOL     OW19697   3.082   6.106   2.332
  852SOL    HW119698   3.012   6.170   2.319
  852SOL    HW219699   3.108   6.117   2.423
  853SOL     OW19700   3.042   5.954   1.205
  853SOL    HW119701   3.133   5.985   1.208
  853SOL    HW219702   3.029   5.907   1.287
  854SOL     OW19703   2.204   5.765   2.205
  854SOL    HW119704   2.127   5.793   2.156
  854SOL    HW219705   2.235   5.844   2.249
  855SOL     OW19706   5.557   3.953   6.569
  855SOL    HW119707   5.520   3.914   6.648
  855SOL    HW219708   5.611   3.883   6.531
  856SOL     OW19709   1.461   4.637   7.027
  856SOL    HW119710   1.413   4.691   6.964
  856SOL    HW219711   1.448   4.547   6.997
  857SOL     OW19712   6.331   2.725   6.802
  857SOL    HW119713   6.355   2.688   6.887
  857SOL    HW219714   6.337   2.652   6.741
  858SOL     OW19715   1.906   2.282   0.467
  858SOL    HW119716   1.948   2.362   0.437
  858SOL    HW219717   1.871   2.241   0.388
  859SOL     OW19718   1.801   5.591   6.225
  859SOL    HW119719   1.890   5.564   6.248
  859SOL    HW219720   1.798   5.685   6.246
  860SOL     OW19721   2.437   5.521   6.521
  860SOL    HW119722   2.506   5.455   6.514
  860SOL    HW219723   2.482   5.604   6.511
  861SOL     OW19724   0.125   3.634   2.932
  861SOL    HW119725   0.050   3.692   2.919
  861SOL    HW219726   0.092   3.564   2.988
  862SOL     OW19727   3.705   2.443   6.169
  862SOL    HW119728   3.682   2.465   6.079
  862SOL    HW219729   3.762   2.367   6.162
  863SOL     OW19730   0.836   5.245   1.556
  863SOL    HW119731   0.857   5.338   1.547
  863SOL    HW219732   0.906   5.200   1.509
  864SOL     OW19733   0.449   3.714   2.652
  864SOL    HW119734   0.514   3.777   2.621
  864SOL    HW219735   0.460   3.639   2.594
  865SOL     OW19736   3.807   4.840   5.913
  865SOL    HW119737   3.893   4.849   5.955
  865SOL    HW219738   3.822   4.866   5.822
  866SOL     OW19739   1.597   5.936   2.197
  866SOL    HW119740   1.652   5.950   2.275
  866SOL    HW219741   1.509   5.961   2.226
  867SOL     OW19742   0.242   0.286   1.318
  867SOL    HW119743   0.216   0.197   1.342
  867SOL    HW219744   0.242   0.334   1.401
  868SOL     OW19745   0.874   1.608   5.818
  868SOL    HW119746   0.866   1.573   5.906
  868SOL    HW219747   0.787   1.639   5.796
  869SOL     OW19748   3.348   0.045   1.224
  869SOL    HW119749   3.304   0.004   1.299
  869SOL    HW219750   3.441   0.045   1.248
  870SOL     OW19751   4.569   6.372   6.699
  870SOL    HW119752   4.495   6.407   6.748
  870SOL    HW219753   4.553   6.277   6.697
  871SOL     OW19754   1.382   5.868   0.567
  871SOL    HW119755   1.436   5.882   0.489
  871SOL    HW219756   1.292   5.870   0.534
  872SOL     OW19757   0.173   1.897   7.355
  872SOL    HW119758   0.238   1.827   7.358
  872SOL    HW219759   0.115   1.878   7.429
  873SOL     OW19760   5.217   4.023   5.740
  873SOL    HW119761   5.310   4.037   5.756
  873SOL    HW219762   5.173   4.070   5.811
  874SOL     OW19763   1.922   5.377   7.715
  874SOL    HW119764   1.975   5.418   7.783
  874SOL    HW219765   1.876   5.450   7.673
  875SOL     OW19766   2.776   4.083   0.263
  875SOL    HW119767   2.826   4.004   0.243
  875SOL    HW219768   2.746   4.116   0.179
  876SOL     OW19769   2.892   3.926   6.655
  876SOL    HW119770   2.851   3.959   6.576
  876SOL    HW219771   2.829   3.864   6.692
  877SOL     OW19772   4.771   6.081   1.158
  877SOL    HW119773   4.740   6.171   1.167
  877SOL    HW219774   4.832   6.070   1.231
  878SOL     OW19775   1.468   2.916   0.590
  878SOL    HW119776   1.395   2.937   0.648
  878SOL    HW219777   1.545   2.950   0.635
  879SOL     OW19778   2.843   1.212   7.421
  879SOL    HW119779   2.849   1.229   7.514
  879SOL    HW219780   2.771   1.148   7.413
  880SOL     OW19781   1.435   1.325   1.377
  880SOL    HW119782   1.483   1.263   1.431
  880SOL    HW219783   1.344   1.295   1.381
  881SOL     OW19784   4.493   5.007   1.667
  881SOL    HW119785   4.580   5.039   1.691
  881SOL    HW219786   4.440   5.086   1.660
  882SOL     OW19787   1.353   0.149   0.814
  882SOL    HW119788   1.431   0.094   0.803
  882SOL    HW219789   1.368   0.224   0.756
  883SOL     OW19790   3.592   0.282   0.128
  883SOL    HW119791   3.624   0.193   0.120
  883SOL    HW219792   3.670   0.333   0.153
  884SOL     OW19793   0.721   3.904   0.762
  884SOL    HW119794   0.667   3.916   0.683
  884SOL    HW219795   0.780   3.832   0.740
  885SOL     OW19796   2.359   1.459   1.313
  885SOL    HW119797   2.400   1.538   1.349
  885SOL    HW219798   2.391   1.388   1.369
  886SOL     OW19799   1.115   2.111   1.472
  886SOL    HW119800   1.099   2.178   1.538
  886SOL    HW219801   1.109   2.028   1.521
  887SOL     OW19802   1.453   2.242   6.621
  887SOL    HW119803   1.475   2.306   6.688
  887SOL    HW219804   1.537   2.202   6.597
  888SOL     OW19805   1.961   0.474   6.600
  888SOL    HW119806   1.965   0.568   6.618
  888SOL    HW219807   2.049   0.453   6.567
  889SOL     OW19808   1.012   3.933   6.421
  889SOL    HW119809   0.921   3.961   6.413
  889SOL    HW219810   1.031   3.888   6.339
  890SOL     OW19811   4.284   1.658   0.279
  890SOL    HW119812   4.348   1.653   0.351
  890SOL    HW219813   4.199   1.665   0.323
  891SOL     OW19814   5.605   5.718   5.815
  891SOL    HW119815   5.679   5.657   5.809
  891SOL    HW219816   5.531   5.663   5.841
  892SOL     OW19817   4.641   1.692   6.561
  892SOL    HW119818   4.577   1.678   6.491
  892SOL    HW219819   4.711   1.742   6.519
  893SOL     OW19820   4.718   5.146   1.365
  893SOL    HW119821   4.653   5.208   1.332
  893SOL    HW219822   4.797   5.166   1.316
  894SOL     OW19823   3.382   5.314   6.850
  894SOL    HW119824   3.376   5.324   6.945
  894SOL    HW219825   3.305   5.262   6.826
  895SOL     OW19826   2.733   3.227   0.053
  895SOL    HW119827   2.804   3.281   0.019
  895SOL    HW219828   2.770   3.182   0.129
  896SOL     OW19829   2.294   1.591   0.202
  896SOL    HW119830   2.248   1.513   0.170
  896SOL    HW219831   2.307   1.573   0.296
  897SOL     OW19832   6.090   2.014   0.967
  897SOL    HW119833   6.015   2.072   0.982
  897SOL    HW219834   6.105   1.972   1.051
  898SOL     OW19835   6.168   3.593   7.135
  898SOL    HW119836   6.263   3.604   7.127
  898SOL    HW219837   6.158   3.521   7.197
  899SOL     OW19838   2.422   2.181   0.332
  899SOL    HW119839   2.494   2.208   0.276
  899SOL    HW219840   2.344   2.189   0.278
  900SOL     OW19841   5.602   2.533   6.471
  900SOL    HW119842   5.529   2.480   6.439
  900SOL    HW219843   5.598   2.614   6.421
  901SOL     OW19844   5.028   2.352   6.218
  901SOL    HW119845   5.065   2.314   6.298
  901SOL    HW219846   5.052   2.291   6.149
  902SOL     OW19847   1.398   2.933   6.748
  902SOL    HW119848   1.303   2.930   6.735
  902SOL    HW219849   1.434   2.927   6.659
  903SOL     OW19850   1.647   0.735   0.020
  903SOL    HW119851   1.679   0.741  -0.071
  903SOL    HW219852   1.603   0.819   0.035
  904SOL     OW19853   4.017   5.259   6.653
  904SOL    HW119854   4.018   5.354   6.644
  904SOL    HW219855   4.050   5.226   6.570
  905SOL     OW19856   4.732   3.221   6.335
  905SOL    HW119857   4.639   3.239   6.321
  905SOL    HW219858   4.767   3.205   6.247
  906SOL     OW19859   5.303   2.490   6.629
  906SOL    HW119860   5.307   2.560   6.695
  906SOL    HW219861   5.321   2.410   6.678
  907SOL     OW19862   3.627   1.095   5.653
  907SOL    HW119863   3.564   1.083   5.581
  907SOL    HW219864   3.657   1.006   5.673
  908SOL     OW19865   4.742   4.815   2.071
  908SOL    HW119866   4.791   4.888   2.107
  908SOL    HW219867   4.650   4.838   2.085
  909SOL     OW19868   2.605   2.156   1.568
  909SOL    HW119869   2.592   2.144   1.662
  909SOL    HW219870   2.584   2.248   1.552
  910SOL     OW19871   3.666   4.684   6.263
  910SOL    HW119872   3.629   4.690   6.175
  910SOL    HW219873   3.754   4.721   6.254
  911SOL     OW19874   1.584   6.457   0.865
  911SOL    HW119875   1.580   6.409   0.948
  911SOL    HW219876   1.589   6.389   0.798
  912SOL     OW19877   5.937   2.038   2.749
  912SOL    HW119878   6.028   2.023   2.775
  912SOL    HW219879   5.942   2.112   2.688
  913SOL     OW19880   1.387   0.894   0.643
  913SOL    HW119881   1.342   0.962   0.692
  913SOL    HW219882   1.480   0.906   0.665
  914SOL     OW19883   2.192   1.647   7.200
  914SOL    HW119884   2.102   1.628   7.173
  914SOL    HW219885   2.183   1.711   7.270
  915SOL     OW19886   1.699   6.449   0.293
  915SOL    HW119887   1.784   6.460   0.335
  915SOL    HW219888   1.719   6.451   0.199
  916SOL     OW19889   5.454   5.919   5.701
  916SOL    HW119890   5.503   5.996   5.672
  916SOL    HW219891   5.521   5.852   5.718
  917SOL     OW19892   6.116   1.025   1.392
  917SOL    HW119893   6.159   1.101   1.430
  917SOL    HW219894   6.041   1.061   1.345
  918SOL     OW19895   5.682   3.735   6.454
  918SOL    HW119896   5.627   3.657   6.457
  918SOL    HW219897   5.770   3.702   6.475
  919SOL     OW19898   2.204   2.316   6.900
  919SOL    HW119899   2.195   2.296   6.807
  919SOL    HW219900   2.146   2.255   6.944
  920SOL     OW19901   4.077   4.695   7.192
  920SOL    HW119902   4.029   4.751   7.252
  920SOL    HW219903   4.159   4.675   7.237
  921SOL     OW19904   2.183   3.988   1.000
  921SOL    HW119905   2.212   3.929   1.070
  921SOL    HW219906   2.103   4.027   1.034
  922SOL     OW19907   1.910   5.865   6.612
  922SOL    HW119908   1.964   5.891   6.686
  922SOL    HW219909   1.865   5.946   6.586
  923SOL     OW19910   2.367   3.530   0.668
  923SOL    HW119911   2.448   3.539   0.616
  923SOL    HW219912   2.301   3.505   0.604
  924SOL     OW19913   5.562   4.221   6.642
  924SOL    HW119914   5.530   4.304   6.608
  924SOL    HW219915   5.557   4.161   6.568
  925SOL     OW19916   6.315   0.375   0.054
  925SOL    HW119917   6.264   0.454   0.075
  925SOL    HW219918   6.274   0.341  -0.026
  926SOL     OW19919   5.595   3.981   1.176
  926SOL    HW119920   5.549   3.907   1.135
  926SOL    HW219921   5.687   3.958   1.170
  927SOL     OW19922   2.325   0.128   1.430
  927SOL    HW119923   2.299   0.151   1.341
  927SOL    HW219924   2.367   0.207   1.464
  928SOL     OW19925   6.063   1.959   7.082
  928SOL    HW119926   6.024   2.047   7.079
  928SOL    HW219927   6.011   1.912   7.147
  929SOL     OW19928   3.550   0.655   7.074
  929SOL    HW119929   3.458   0.662   7.046
  929SOL    HW219930   3.583   0.745   7.070
  930SOL     OW19931   0.936   2.331   2.116
  930SOL    HW119932   0.854   2.298   2.079
  930SOL    HW219933   0.908   2.401   2.175
  931SOL     OW19934   2.184   3.464   7.192
  931SOL    HW119935   2.152   3.532   7.251
  931SOL    HW219936   2.273   3.491   7.169
  932SOL     OW19937   4.635   6.138   0.447
  932SOL    HW119938   4.634   6.177   0.359
  932SOL    HW219939   4.639   6.044   0.432
  933SOL     OW19940   0.685   0.064   1.795
  933SOL    HW119941   0.615   0.014   1.836
  933SOL    HW219942   0.652   0.154   1.794
  934SOL     OW19943   1.991   5.877   2.085
  934SOL    HW119944   1.974   5.896   1.993
  934SOL    HW219945   1.951   5.950   2.132
  935SOL     OW19946   4.466   3.277   6.285
  935SOL    HW119947   4.447   3.189   6.318
  935SOL    HW219948   4.409   3.287   6.209
  936SOL     OW19949   5.313   5.921   2.354
  936SOL    HW119950   5.391   5.972   2.334
  936SOL    HW219951   5.332   5.833   2.319
  937SOL     OW19952   3.049   4.952   6.265
  937SOL    HW119953   3.053   5.048   6.257
  937SOL    HW219954   3.098   4.932   6.344
  938SOL     OW19955   1.436   5.869   0.840
  938SOL    HW119956   1.431   5.852   0.746
  938SOL    HW219957   1.352   5.909   0.862
  939SOL     OW19958   3.265   1.260   6.929
  939SOL    HW119959   3.349   1.230   6.894
  939SOL    HW219960   3.203   1.241   6.859
  940SOL     OW19961   2.249   3.081   6.698
  940SOL    HW119962   2.175   3.020   6.694
  940SOL    HW219963   2.289   3.076   6.611
  941SOL     OW19964   2.064   3.517   2.254
  941SOL    HW119965   1.993   3.578   2.273
  941SOL    HW219966   2.139   3.573   2.233
  942SOL     OW19967   1.290   2.597   6.404
  942SOL    HW119968   1.214   2.564   6.356
  942SOL    HW219969   1.254   2.634   6.484
  943SOL     OW19970   4.816   5.852   5.452
  943SOL    HW119971   4.822   5.939   5.411
  943SOL    HW219972   4.885   5.801   5.409
  944SOL     OW19973   0.359   3.401   0.234
  944SOL    HW119974   0.437   3.433   0.189
  944SOL    HW219975   0.287   3.423   0.176
  945SOL     OW19976   5.113   5.019   1.501
  945SOL    HW119977   5.085   5.106   1.472
  945SOL    HW219978   5.191   5.035   1.555
  946SOL     OW19979   2.856   0.174   0.897
  946SOL    HW119980   2.937   0.162   0.847
  946SOL    HW219981   2.820   0.085   0.905
  947SOL     OW19982   6.174   5.920   1.869
  947SOL    HW119983   6.122   5.908   1.949
  947SOL    HW219984   6.221   5.837   1.858
  948SOL     OW19985   0.469   2.229   1.335
  948SOL    HW119986   0.400   2.242   1.269
  948SOL    HW219987   0.547   2.209   1.285
  949SOL     OW19988   6.378   5.450   7.544
  949SOL    HW119989   6.385   5.441   7.449
  949SOL    HW219990   6.457   5.410   7.578
  950SOL     OW19991   4.686   2.279   1.813
  950SOL    HW119992   4.699   2.194   1.856
  950SOL    HW219993   4.754   2.335   1.848
  951SOL     OW19994   5.392   3.505   0.459
  951SOL    HW119995   5.359   3.438   0.519
  951SOL    HW219996   5.423   3.575   0.516
  952SOL     OW19997   2.306   5.810   7.468
  952SOL    HW119998   2.329   5.783   7.379
  952SOL    HW219999   2.294   5.905   7.462
  953SOL     OW20000   3.628   6.132   5.744
  953SOL    HW120001   3.601   6.183   5.820
  953SOL    HW220002   3.576   6.052   5.749
  954SOL     OW20003   5.011   4.110   0.137
  954SOL    HW120004   5.088   4.119   0.082
  954SOL    HW220005   4.992   4.016   0.138
  955SOL     OW20006   1.973   4.259   6.364
  955SOL    HW120007   1.879   4.246   6.372
  955SOL    HW220008   1.982   4.349   6.331
  956SOL     OW20009   4.563   2.159   7.200
  956SOL    HW120010   4.532   2.110   7.124
  956SOL    HW220011   4.485   2.204   7.232
  957SOL     OW20012   4.815   6.051   7.514
  957SOL    HW120013   4.746   5.985   7.502
  957SOL    HW220014   4.812   6.071   7.608
  958SOL     OW20015   5.649   2.844   0.695
  958SOL    HW120016   5.650   2.876   0.785
  958SOL    HW220017   5.704   2.905   0.647
  959SOL     OW20018   6.197   4.021   6.710
  959SOL    HW120019   6.197   4.000   6.803
  959SOL    HW220020   6.126   4.084   6.699
  960SOL     OW20021   1.262   4.022   0.447
  960SOL    HW120022   1.239   3.930   0.435
  960SOL    HW220023   1.180   4.064   0.472
  961SOL     OW20024   0.279   0.307   7.590
  961SOL    HW120025   0.197   0.297   7.541
  961SOL    HW220026   0.317   0.219   7.592
  962SOL     OW20027   3.242   4.332   7.232
  962SOL    HW120028   3.194   4.381   7.298
  962SOL    HW220029   3.199   4.352   7.149
  963SOL     OW20030   5.275   3.547   7.643
  963SOL    HW120031   5.258   3.641   7.641
  963SOL    HW220032   5.192   3.507   7.670
  964SOL     OW20033   5.143   6.234   7.168
  964SOL    HW120034   5.112   6.213   7.080
  964SOL    HW220035   5.067   6.218   7.225
  965SOL     OW20036   6.406   0.222   1.938
  965SOL    HW120037   6.426   0.307   1.900
  965SOL    HW220038   6.490   0.176   1.940
  966SOL     OW20039   5.659   1.767   7.368
  966SOL    HW120040   5.604   1.696   7.334
  966SOL    HW220041   5.622   1.787   7.454
  967SOL     OW20042   3.576   3.218   1.856
  967SOL    HW120043   3.551   3.208   1.948
  967SOL    HW220044   3.614   3.134   1.832
  968SOL     OW20045   3.807   0.536   1.058
  968SOL    HW120046   3.770   0.512   0.973
  968SOL    HW220047   3.854   0.617   1.041
  969SOL     OW20048   4.224   5.562   0.703
  969SOL    HW120049   4.158   5.546   0.769
  969SOL    HW220050   4.201   5.647   0.666
  970SOL     OW20051   2.110   6.440   6.654
  970SOL    HW120052   2.034   6.382   6.654
  970SOL    HW220053   2.128   6.456   6.746
  971SOL     OW20054   4.319   3.697   7.060
  971SOL    HW120055   4.388   3.744   7.014
  971SOL    HW220056   4.238   3.731   7.022
  972SOL     OW20057   5.623   5.886   5.414
  972SOL    HW120058   5.636   5.805   5.462
  972SOL    HW220059   5.531   5.909   5.429
  973SOL     OW20060   2.352   0.345   5.744
  973SOL    HW120061   2.325   0.280   5.679
  973SOL    HW220062   2.302   0.323   5.822
  974SOL     OW20063   3.686   3.778   0.367
  974SOL    HW120064   3.747   3.827   0.421
  974SOL    HW220065   3.737   3.703   0.335
  975SOL     OW20066   0.425   0.911   6.593
  975SOL    HW120067   0.409   0.895   6.500
  975SOL    HW220068   0.383   0.996   6.609
  976SOL     OW20069   4.880   5.632   6.799
  976SOL    HW120070   4.822   5.692   6.845
  976SOL    HW220071   4.879   5.662   6.708
  977SOL     OW20072   5.694   2.176   7.475
  977SOL    HW120073   5.598   2.177   7.476
  977SOL    HW220074   5.720   2.266   7.494
  978SOL     OW20075   0.101   4.624   5.486
  978SOL    HW120076   0.162   4.693   5.460
  978SOL    HW220077   0.026   4.635   5.428
  979SOL     OW20078   3.656   2.769   1.630
  979SOL    HW120079   3.632   2.713   1.703
  979SOL    HW220080   3.730   2.724   1.589
  980SOL     OW20081   4.858   2.587   0.644
  980SOL    HW120082   4.791   2.533   0.686
  980SOL    HW220083   4.888   2.646   0.714
  981SOL     OW20084   1.321   5.192   6.694
  981SOL    HW120085   1.316   5.107   6.649
  981SOL    HW220086   1.258   5.247   6.648
  982SOL     OW20087   4.610   0.958   7.446
  982SOL    HW120088   4.554   0.881   7.450
  982SOL    HW220089   4.699   0.922   7.436
  983SOL     OW20090   4.971   5.738   7.512
  983SOL    HW120091   4.920   5.721   7.591
  983SOL    HW220092   5.042   5.796   7.540
  984SOL     OW20093   1.620   3.910   1.555
  984SOL    HW120094   1.625   3.816   1.571
  984SOL    HW220095   1.711   3.937   1.542
  985SOL     OW20096   3.810   1.125   0.558
  985SOL    HW120097   3.785   1.132   0.466
  985SOL    HW220098   3.753   1.187   0.603
  986SOL     OW20099   6.286   2.361   1.162
  986SOL    HW120100   6.308   2.452   1.139
  986SOL    HW220101   6.194   2.365   1.187
  987SOL     OW20102   0.314   3.264   2.314
  987SOL    HW120103   0.325   3.259   2.409
  987SOL    HW220104   0.276   3.179   2.290
  988SOL     OW20105   3.701   5.454   6.089
  988SOL    HW120106   3.645   5.519   6.132
  988SOL    HW220107   3.790   5.488   6.102
  989SOL     OW20108   2.171   0.018   7.193
  989SOL    HW120109   2.239   0.076   7.229
  989SOL    HW220110   2.089   0.054   7.226
  990SOL     OW20111   1.738   4.881   7.341
  990SOL    HW120112   1.699   4.950   7.288
  990SOL    HW220113   1.695   4.800   7.312
  991SOL     OW20114   5.217   4.570   0.423
  991SOL    HW120115   5.196   4.663   0.431
  991SOL    HW220116   5.227   4.539   0.513
  992SOL     OW20117   1.368   2.940   7.300
  992SOL    HW120118   1.410   2.969   7.219
  992SOL    HW220119   1.325   2.858   7.277
  993SOL     OW20120   5.108   5.900   6.093
  993SOL    HW120121   5.169   5.888   6.019
  993SOL    HW220122   5.028   5.856   6.065
  994SOL     OW20123   2.708   3.376   7.090
  994SOL    HW120124   2.714   3.322   7.011
  994SOL    HW220125   2.782   3.436   7.085
  995SOL     OW20126   0.076   3.764   6.180
  995SOL    HW120127   0.167   3.742   6.159
  995SOL    HW220128   0.070   3.858   6.159
  996SOL     OW20129   1.167   3.692   7.171
  996SOL    HW120130   1.214   3.732   7.244
  996SOL    HW220131   1.075   3.696   7.196
  997SOL     OW20132   4.178   2.095   1.366
  997SOL    HW120133   4.106   2.146   1.403
  997SOL    HW220134   4.152   2.082   1.274
  998SOL     OW20135   3.234   3.697   6.335
  998SOL    HW120136   3.288   3.631   6.378
  998SOL    HW220137   3.274   3.781   6.359
  999SOL     OW20138   4.830   6.102   0.664
  999SOL    HW120139   4.756   6.094   0.604
  999SOL    HW220140   4.789   6.113   0.750
 1000SOL     OW20141   1.733   4.214   0.222
 1000SOL    HW120142   1.729   4.128   0.182
 1000SOL    HW220143   1.801   4.207   0.288
 1001SOL     OW20144   2.529   2.601   7.322
 1001SOL    HW120145   2.445   2.630   7.287
 1001SOL    HW220146   2.513   2.590   7.416
 1002SOL     OW20147   6.442   6.443   6.738
 1002SOL    HW120148   6.479   6.475   6.655
 1002SOL    HW220149   6.518   6.413   6.787
 1003SOL     OW20150   4.906   0.298   6.135
 1003SOL    HW120151   4.830   0.267   6.186
 1003SOL    HW220152   4.922   0.229   6.071
 1004SOL     OW20153   5.959   2.860   7.046
 1004SOL    HW120154   5.925   2.783   7.091
 1004SOL    HW220155   5.957   2.929   7.112
 1005SOL     OW20156   0.452   2.857   1.001
 1005SOL    HW120157   0.465   2.923   1.068
 1005SOL    HW220158   0.500   2.890   0.925
 1006SOL     OW20159   2.009   1.960   7.576
 1006SOL    HW120160   2.039   1.893   7.637
 1006SOL    HW220161   2.009   2.041   7.627
 1007SOL     OW20162   4.387   1.361   1.397
 1007SOL    HW120163   4.372   1.453   1.420
 1007SOL    HW220164   4.466   1.337   1.445
 1008SOL     OW20165   5.630   0.198   6.813
 1008SOL    HW120166   5.631   0.167   6.903
 1008SOL    HW220167   5.540   0.184   6.784
 1009SOL     OW20168   2.433   3.714   6.460
 1009SOL    HW120169   2.420   3.682   6.549
 1009SOL    HW220170   2.430   3.636   6.405
 1010SOL     OW20171   4.859   1.095   1.702
 1010SOL    HW120172   4.874   1.008   1.665
 1010SOL    HW220173   4.933   1.110   1.761
 1011SOL     OW20174   2.343   1.474   2.076
 1011SOL    HW120175   2.267   1.416   2.080
 1011SOL    HW220176   2.416   1.416   2.056
 1012SOL     OW20177   2.621   0.296   6.825
 1012SOL    HW120178   2.700   0.243   6.836
 1012SOL    HW220179   2.577   0.291   6.910
 1013SOL     OW20180   0.370   6.168   0.024
 1013SOL    HW120181   0.308   6.223  -0.024
 1013SOL    HW220182   0.315   6.108   0.075
 1014SOL     OW20183   1.013   1.217   7.111
 1014SOL    HW120184   0.989   1.127   7.135
 1014SOL    HW220185   0.996   1.268   7.190
 1015SOL     OW20186   1.195   3.499   7.466
 1015SOL    HW120187   1.246   3.579   7.478
 1015SOL    HW220188   1.257   3.438   7.425
 1016SOL     OW20189   1.146   4.194   0.131
 1016SOL    HW120190   1.110   4.183   0.219
 1016SOL    HW220191   1.199   4.273   0.136
 1017SOL     OW20192   1.910   1.899   6.511
 1017SOL    HW120193   1.902   1.805   6.524
 1017SOL    HW220194   1.975   1.908   6.440
 1018SOL     OW20195   2.200   0.418   6.483
 1018SOL    HW120196   2.291   0.432   6.508
 1018SOL    HW220197   2.198   0.327   6.452
 1019SOL     OW20198   2.345   5.052   0.096
 1019SOL    HW120199   2.283   5.103   0.044
 1019SOL    HW220200   2.321   5.069   0.187
 1020SOL     OW20201   5.881   0.792   1.068
 1020SOL    HW120202   5.912   0.781   0.978
 1020SOL    HW220203   5.949   0.845   1.110
 1021SOL     OW20204   2.073   1.477   7.446
 1021SOL    HW120205   2.029   1.556   7.414
 1021SOL    HW220206   2.132   1.508   7.514
 1022SOL     OW20207   1.820   5.185   7.569
 1022SOL    HW120208   1.857   5.256   7.623
 1022SOL    HW220209   1.845   5.209   7.479
 1023SOL     OW20210   3.062   4.336   1.299
 1023SOL    HW120211   2.970   4.312   1.310
 1023SOL    HW220212   3.106   4.300   1.377
 1024SOL     OW20213   2.765   5.206   6.851
 1024SOL    HW120214   2.831   5.177   6.913
 1024SOL    HW220215   2.713   5.128   6.831
 1025SOL     OW20216   2.272   1.192   5.301
 1025SOL    HW120217   2.345   1.142   5.264
 1025SOL    HW220218   2.214   1.126   5.338
 1026SOL     OW20219   5.356   2.329   7.680
 1026SOL    HW120220   5.316   2.414   7.702
 1026SOL    HW220221   5.305   2.265   7.730
 1027SOL     OW20222   2.763   4.845   7.341
 1027SOL    HW120223   2.724   4.792   7.409
 1027SOL    HW220224   2.771   4.932   7.380
 1028SOL     OW20225   2.429   1.772   0.075
 1028SOL    HW120226   2.520   1.743   0.083
 1028SOL    HW220227   2.377   1.697   0.105
 1029SOL     OW20228   3.378   1.040   6.104
 1029SOL    HW120229   3.409   1.103   6.038
 1029SOL    HW220230   3.312   0.988   6.057
 1030SOL     OW20231   1.438   4.870   1.111
 1030SOL    HW120232   1.485   4.789   1.090
 1030SOL    HW220233   1.501   4.940   1.091
 1031SOL     OW20234   5.588   2.720   7.528
 1031SOL    HW120235   5.625   2.795   7.574
 1031SOL    HW220236   5.497   2.746   7.511
 1032SOL     OW20237   1.817   3.548   7.622
 1032SOL    HW120238   1.846   3.634   7.653
 1032SOL    HW220239   1.733   3.566   7.578
 1033SOL     OW20240   2.633   1.766   7.180
 1033SOL    HW120241   2.672   1.759   7.093
 1033SOL    HW220242   2.540   1.779   7.164
 1034SOL     OW20243   1.602   1.009   6.303
 1034SOL    HW120244   1.682   1.060   6.288
 1034SOL    HW220245   1.592   1.007   6.398
 1035SOL     OW20246   6.316   6.436   5.690
 1035SOL    HW120247   6.295   6.343   5.696
 1035SOL    HW220248   6.411   6.439   5.688
 1036SOL     OW20249   5.913   3.454   5.841
 1036SOL    HW120250   5.985   3.401   5.807
 1036SOL    HW220251   5.924   3.540   5.800
 1037SOL     OW20252   1.847   5.685   7.591
 1037SOL    HW120253   1.869   5.778   7.595
 1037SOL    HW220254   1.857   5.663   7.499
 1038SOL     OW20255   5.923   3.073   6.393
 1038SOL    HW120256   5.980   3.103   6.323
 1038SOL    HW220257   5.967   3.099   6.473
 1039SOL     OW20258   3.281   0.704   0.956
 1039SOL    HW120259   3.288   0.722   0.862
 1039SOL    HW220260   3.228   0.624   0.961
 1040SOL     OW20261   1.786   3.069   7.730
 1040SOL    HW120262   1.741   2.995   7.689
 1040SOL    HW220263   1.823   3.034   7.811
 1041SOL     OW20264   6.298   3.321   1.626
 1041SOL    HW120265   6.326   3.266   1.553
 1041SOL    HW220266   6.324   3.410   1.600
 1042SOL     OW20267   1.309   5.691   6.995
 1042SOL    HW120268   1.286   5.604   6.965
 1042SOL    HW220269   1.227   5.728   7.028
 1043SOL     OW20270   5.811   3.039   0.594
 1043SOL    HW120271   5.774   3.127   0.594
 1043SOL    HW220272   5.836   3.023   0.503
 1044SOL     OW20273   4.915   0.396   7.214
 1044SOL    HW120274   4.999   0.366   7.181
 1044SOL    HW220275   4.928   0.488   7.234
 1045SOL     OW20276   0.902   3.704   0.743
 1045SOL    HW120277   0.912   3.659   0.659
 1045SOL    HW220278   0.982   3.756   0.752
 1046SOL     OW20279   4.836   2.028   0.376
 1046SOL    HW120280   4.853   2.020   0.470
 1046SOL    HW220281   4.742   2.015   0.368
 1047SOL     OW20282   1.245   2.149   7.379
 1047SOL    HW120283   1.170   2.204   7.400
 1047SOL    HW220284   1.316   2.184   7.433
 1048SOL     OW20285   2.611   4.007   1.647
 1048SOL    HW120286   2.562   3.998   1.729
 1048SOL    HW220287   2.667   4.083   1.661
 1049SOL     OW20288   1.905   0.019   6.435
 1049SOL    HW120289   1.933   0.043   6.347
 1049SOL    HW220290   1.814  -0.009   6.426
 1050SOL     OW20291   0.931   2.514   0.760
 1050SOL    HW120292   0.837   2.532   0.766
 1050SOL    HW220293   0.950   2.517   0.666
 1051SOL     OW20294   6.129   0.940   7.403
 1051SOL    HW120295   6.062   0.924   7.469
 1051SOL    HW220296   6.192   0.869   7.414
 1052SOL     OW20297   6.099   5.953   6.959
 1052SOL    HW120298   6.065   5.937   7.047
 1052SOL    HW220299   6.030   5.923   6.900
 1053SOL     OW20300   4.418   1.146   1.902
 1053SOL    HW120301   4.503   1.191   1.894
 1053SOL    HW220302   4.378   1.158   1.816
 1054SOL     OW20303   4.748   3.748   2.979
 1054SOL    HW120304   4.767   3.659   2.949
 1054SOL    HW220305   4.699   3.788   2.906
 1055SOL     OW20306   3.165   0.027   0.446
 1055SOL    HW120307   3.194   0.115   0.471
 1055SOL    HW220308   3.133   0.037   0.357
 1056SOL     OW20309   3.727   3.276   1.432
 1056SOL    HW120310   3.797   3.239   1.378
 1056SOL    HW220311   3.669   3.203   1.451
 1057SOL     OW20312   2.861   1.993   7.221
 1057SOL    HW120313   2.803   1.954   7.156
 1057SOL    HW220314   2.919   1.922   7.247
 1058SOL     OW20315   4.966   5.253   7.519
 1058SOL    HW120316   5.061   5.253   7.511
 1058SOL    HW220317   4.940   5.161   7.508
 1059SOL     OW20318   5.667   4.550   7.102
 1059SOL    HW120319   5.651   4.537   7.196
 1059SOL    HW220320   5.747   4.602   7.099
 1060SOL     OW20321   6.377   3.220   6.322
 1060SOL    HW120322   6.440   3.265   6.265
 1060SOL    HW220323   6.338   3.290   6.374
 1061SOL     OW20324   3.823   1.917   2.060
 1061SOL    HW120325   3.865   1.964   2.133
 1061SOL    HW220326   3.895   1.873   2.015
 1062SOL     OW20327   4.701   5.551   6.538
 1062SOL    HW120328   4.787   5.521   6.507
 1062SOL    HW220329   4.638   5.499   6.488
 1063SOL     OW20330   3.406   5.338   1.768
 1063SOL    HW120331   3.423   5.413   1.825
 1063SOL    HW220332   3.404   5.262   1.826
 1064SOL     OW20333   3.361   3.120   7.005
 1064SOL    HW120334   3.456   3.131   7.007
 1064SOL    HW220335   3.341   3.071   7.084
 1065SOL     OW20336   6.208   3.994   6.975
 1065SOL    HW120337   6.145   3.955   7.036
 1065SOL    HW220338   6.288   4.003   7.026
 1066SOL     OW20339   2.951   4.195   7.622
 1066SOL    HW120340   2.987   4.204   7.534
 1066SOL    HW220341   2.959   4.282   7.661
 1067SOL     OW20342   3.724   1.555   7.530
 1067SOL    HW120343   3.637   1.558   7.489
 1067SOL    HW220344   3.727   1.633   7.585
 1068SOL     OW20345   4.182   0.359   7.105
 1068SOL    HW120346   4.226   0.394   7.028
 1068SOL    HW220347   4.254   0.341   7.167
 1069SOL     OW20348   0.913   4.197   2.060
 1069SOL    HW120349   0.906   4.130   2.128
 1069SOL    HW220350   0.866   4.272   2.096
 1070SOL     OW20351   2.839   0.853   7.265
 1070SOL    HW120352   2.768   0.792   7.242
 1070SOL    HW220353   2.900   0.801   7.317
 1071SOL     OW20354   2.932   5.506   7.531
 1071SOL    HW120355   2.888   5.470   7.609
 1071SOL    HW220356   2.866   5.501   7.462
 1072SOL     OW20357   6.141   3.254   0.409
 1072SOL    HW120358   6.198   3.184   0.441
 1072SOL    HW220359   6.130   3.313   0.483
 1073SOL     OW20360   0.479   5.991   0.386
 1073SOL    HW120361   0.498   6.083   0.368
 1073SOL    HW220362   0.530   5.971   0.465
 1074SOL     OW20363   4.169   5.756   0.395
 1074SOL    HW120364   4.095   5.724   0.446
 1074SOL    HW220365   4.155   5.719   0.308
 1075SOL     OW20366   1.759   2.325   1.611
 1075SOL    HW120367   1.684   2.271   1.584
 1075SOL    HW220368   1.819   2.263   1.652
 1076SOL     OW20369   1.033   4.546   6.941
 1076SOL    HW120370   1.046   4.451   6.950
 1076SOL    HW220371   0.942   4.555   6.914
 1077SOL     OW20372   3.346   6.283   0.536
 1077SOL    HW120373   3.306   6.202   0.505
 1077SOL    HW220374   3.303   6.352   0.485
 1078SOL     OW20375   3.577   2.091   1.628
 1078SOL    HW120376   3.533   2.045   1.700
 1078SOL    HW220377   3.505   2.119   1.571
 1079SOL     OW20378   0.163   4.098   0.462
 1079SOL    HW120379   0.135   4.010   0.486
 1079SOL    HW220380   0.091   4.132   0.408
 1080SOL     OW20381   1.518   5.472   1.821
 1080SOL    HW120382   1.583   5.510   1.880
 1080SOL    HW220383   1.435   5.482   1.867
 1081SOL     OW20384   3.657   2.619   1.862
 1081SOL    HW120385   3.568   2.597   1.890
 1081SOL    HW220386   3.705   2.536   1.867
 1082SOL     OW20387   6.186   1.551   0.375
 1082SOL    HW120388   6.155   1.490   0.442
 1082SOL    HW220389   6.148   1.635   0.400
 1083SOL     OW20390   5.783   4.250   0.016
 1083SOL    HW120391   5.770   4.278  -0.075
 1083SOL    HW220392   5.842   4.316   0.053
 1084SOL     OW20393   2.636   1.562   6.882
 1084SOL    HW120394   2.602   1.499   6.946
 1084SOL    HW220395   2.558   1.597   6.839
 1085SOL     OW20396   5.812   0.174   1.738
 1085SOL    HW120397   5.854   0.242   1.686
 1085SOL    HW220398   5.768   0.118   1.674
 1086SOL     OW20399   4.363   4.850   1.110
 1086SOL    HW120400   4.433   4.804   1.157
 1086SOL    HW220401   4.396   4.857   1.020
 1087SOL     OW20402   0.654   2.762   1.475
 1087SOL    HW120403   0.586   2.829   1.472
 1087SOL    HW220404   0.735   2.810   1.490
 1088SOL     OW20405   4.422   5.636   0.454
 1088SOL    HW120406   4.380   5.558   0.491
 1088SOL    HW220407   4.352   5.702   0.451
 1089SOL     OW20408   3.685   6.328   7.540
 1089SOL    HW120409   3.642   6.346   7.457
 1089SOL    HW220410   3.778   6.343   7.522
 1090SOL     OW20411   3.858   2.774   7.713
 1090SOL    HW120412   3.884   2.799   7.802
 1090SOL    HW220413   3.935   2.792   7.660
 1091SOL     OW20414   2.123   5.967   1.459
 1091SOL    HW120415   2.202   5.915   1.469
 1091SOL    HW220416   2.094   5.949   1.369
 1092SOL     OW20417   0.319   3.317   6.590
 1092SOL    HW120418   0.374   3.358   6.657
 1092SOL    HW220419   0.331   3.223   6.602
 1093SOL     OW20420   1.792   2.240   6.329
 1093SOL    HW120421   1.878   2.236   6.371
 1093SOL    HW220422   1.786   2.158   6.280
 1094SOL     OW20423   2.647   1.941   5.630
 1094SOL    HW120424   2.709   1.991   5.577
 1094SOL    HW220425   2.702   1.900   5.697
 1095SOL     OW20426   6.112   5.115   7.498
 1095SOL    HW120427   6.057   5.056   7.549
 1095SOL    HW220428   6.089   5.097   7.407
 1096SOL     OW20429   5.687   1.186   0.175
 1096SOL    HW120430   5.660   1.146   0.092
 1096SOL    HW220431   5.755   1.248   0.150
 1097SOL     OW20432   3.813   5.348   0.287
 1097SOL    HW120433   3.822   5.264   0.331
 1097SOL    HW220434   3.866   5.408   0.339
 1098SOL     OW20435   0.721   2.641   6.475
 1098SOL    HW120436   0.788   2.629   6.407
 1098SOL    HW220437   0.772   2.655   6.555
 1099SOL     OW20438   2.545   3.101   7.633
 1099SOL    HW120439   2.517   3.180   7.587
 1099SOL    HW220440   2.612   3.132   7.694
 1100SOL     OW20441   3.919   5.692   1.008
 1100SOL    HW120442   3.974   5.766   0.983
 1100SOL    HW220443   3.838   5.732   1.039
 1101SOL     OW20444   4.164   5.900   1.956
 1101SOL    HW120445   4.230   5.947   2.008
 1101SOL    HW220446   4.131   5.966   1.895
 1102SOL     OW20447   6.370   3.144   2.312
 1102SOL    HW120448   6.388   3.115   2.401
 1102SOL    HW220449   6.455   3.150   2.270
 1103SOL     OW20450   2.586   6.303   6.831
 1103SOL    HW120451   2.510   6.265   6.875
 1103SOL    HW220452   2.641   6.334   6.903
 1104SOL     OW20453   5.319   5.912   0.885
 1104SOL    HW120454   5.291   5.850   0.818
 1104SOL    HW220455   5.245   5.916   0.946
 1105SOL     OW20456   3.642   0.897   6.967
 1105SOL    HW120457   3.694   0.921   6.890
 1105SOL    HW220458   3.578   0.967   6.977
 1106SOL     OW20459   2.665   1.601   0.035
 1106SOL    HW120460   2.686   1.656  -0.040
 1106SOL    HW220461   2.619   1.526  -0.001
 1107SOL     OW20462   2.485   5.208   1.149
 1107SOL    HW120463   2.415   5.160   1.105
 1107SOL    HW220464   2.460   5.207   1.241
 1108SOL     OW20465   1.712   3.205   7.504
 1108SOL    HW120466   1.753   3.156   7.575
 1108SOL    HW220467   1.766   3.283   7.493
 1109SOL     OW20468   5.933   4.682   6.379
 1109SOL    HW120469   5.923   4.707   6.471
 1109SOL    HW220470   5.934   4.765   6.332
 1110SOL     OW20471   0.325   2.839   0.093
 1110SOL    HW120472   0.414   2.807   0.084
 1110SOL    HW220473   0.328   2.928   0.059
 1111SOL     OW20474   1.501   5.855   5.849
 1111SOL    HW120475   1.515   5.948   5.868
 1111SOL    HW220476   1.407   5.847   5.835
 1112SOL     OW20477   0.682   2.387   1.128
 1112SOL    HW120478   0.753   2.358   1.186
 1112SOL    HW220479   0.661   2.475   1.158
 1113SOL     OW20480   4.802   0.583   1.746
 1113SOL    HW120481   4.722   0.537   1.722
 1113SOL    HW220482   4.866   0.514   1.760
 1114SOL     OW20483   1.378   4.833   0.672
 1114SOL    HW120484   1.459   4.785   0.653
 1114SOL    HW220485   1.407   4.910   0.721
 1115SOL     OW20486   3.441   5.168   0.514
 1115SOL    HW120487   3.527   5.170   0.556
 1115SOL    HW220488   3.460   5.161   0.421
 1116SOL     OW20489   2.151   0.520   0.476
 1116SOL    HW120490   2.096   0.457   0.523
 1116SOL    HW220491   2.129   0.605   0.514
 1117SOL     OW20492   4.358   5.106   0.688
 1117SOL    HW120493   4.410   5.113   0.608
 1117SOL    HW220494   4.393   5.029   0.732
 1118SOL     OW20495   0.616   0.492   0.531
 1118SOL    HW120496   0.663   0.500   0.614
 1118SOL    HW220497   0.572   0.577   0.521
 1119SOL     OW20498   3.171   4.464   1.626
 1119SOL    HW120499   3.263   4.486   1.642
 1119SOL    HW220500   3.174   4.382   1.576
 1120SOL     OW20501   2.721   2.087   6.962
 1120SOL    HW120502   2.799   2.060   6.913
 1120SOL    HW220503   2.756   2.121   7.044
 1121SOL     OW20504   4.467   2.382   1.344
 1121SOL    HW120505   4.455   2.355   1.253
 1121SOL    HW220506   4.510   2.468   1.338
 1122SOL     OW20507   4.653   1.554   0.759
 1122SOL    HW120508   4.638   1.630   0.703
 1122SOL    HW220509   4.605   1.574   0.840
 1123SOL     OW20510   0.154   1.573   7.360
 1123SOL    HW120511   0.079   1.622   7.325
 1123SOL    HW220512   0.114   1.501   7.409
 1124SOL     OW20513   2.451   2.917   2.092
 1124SOL    HW120514   2.386   2.915   2.022
 1124SOL    HW220515   2.404   2.950   2.168
 1125SOL     OW20516   3.774   3.660   6.532
 1125SOL    HW120517   3.814   3.632   6.614
 1125SOL    HW220518   3.749   3.579   6.489
 1126SOL     OW20519   2.190   3.491   1.290
 1126SOL    HW120520   2.101   3.469   1.261
 1126SOL    HW220521   2.182   3.578   1.329
 1127SOL     OW20522   3.727   2.263   6.623
 1127SOL    HW120523   3.657   2.313   6.582
 1127SOL    HW220524   3.781   2.329   6.666
 1128SOL     OW20525   2.381   0.196   7.357
 1128SOL    HW120526   2.476   0.192   7.362
 1128SOL    HW220527   2.350   0.171   7.444
 1129SOL     OW20528   4.858   5.422   7.730
 1129SOL    HW120529   4.862   5.335   7.768
 1129SOL    HW220530   4.896   5.412   7.642
 1130SOL     OW20531   5.084   5.914   1.788
 1130SOL    HW120532   5.087   5.848   1.857
 1130SOL    HW220533   5.154   5.975   1.810
 1131SOL     OW20534   4.603   5.604   5.983
 1131SOL    HW120535   4.671   5.645   5.929
 1131SOL    HW220536   4.544   5.562   5.919
 1132SOL     OW20537   0.951   3.493   6.996
 1132SOL    HW120538   0.925   3.525   6.910
 1132SOL    HW220539   0.931   3.565   7.056
 1133SOL     OW20540   1.287   2.185   5.681
 1133SOL    HW120541   1.208   2.160   5.728
 1133SOL    HW220542   1.359   2.156   5.736
 1134SOL     OW20543   6.340   3.937   1.650
 1134SOL    HW120544   6.266   3.927   1.590
 1134SOL    HW220545   6.338   4.030   1.674
 1135SOL     OW20546   1.417   3.124   5.977
 1135SOL    HW120547   1.395   3.039   6.017
 1135SOL    HW220548   1.497   3.151   6.021
 1136SOL     OW20549   1.013   5.887   6.523
 1136SOL    HW120550   1.042   5.803   6.556
 1136SOL    HW220551   0.921   5.893   6.549
 1137SOL     OW20552   0.777   0.430   0.292
 1137SOL    HW120553   0.735   0.455   0.374
 1137SOL    HW220554   0.821   0.348   0.312
 1138SOL     OW20555   6.249   4.339   7.216
 1138SOL    HW120556   6.280   4.255   7.249
 1138SOL    HW220557   6.276   4.340   7.124
 1139SOL     OW20558   0.252   5.195   0.151
 1139SOL    HW120559   0.305   5.131   0.198
 1139SOL    HW220560   0.290   5.198   0.063
 1140SOL     OW20561   0.319   5.757   0.370
 1140SOL    HW120562   0.356   5.843   0.390
 1140SOL    HW220563   0.235   5.776   0.328
 1141SOL     OW20564   5.425   0.933   1.032
 1141SOL    HW120565   5.457   1.018   1.062
 1141SOL    HW220566   5.359   0.908   1.096
 1142SOL     OW20567   4.932   3.834   7.044
 1142SOL    HW120568   5.006   3.793   6.998
 1142SOL    HW220569   4.931   3.924   7.013
 1143SOL     OW20570   1.359   5.269   2.189
 1143SOL    HW120571   1.444   5.292   2.151
 1143SOL    HW220572   1.366   5.176   2.209
 1144SOL     OW20573   0.231   0.488   0.702
 1144SOL    HW120574   0.186   0.414   0.661
 1144SOL    HW220575   0.206   0.564   0.649
 1145SOL     OW20576   3.093   0.891   6.772
 1145SOL    HW120577   3.136   0.866   6.690
 1145SOL    HW220578   3.056   0.810   6.805
 1146SOL     OW20579   1.407   2.465   1.910
 1146SOL    HW120580   1.315   2.438   1.913
 1146SOL    HW220581   1.435   2.461   2.002
 1147SOL     OW20582   1.714   6.114   6.924
 1147SOL    HW120583   1.619   6.112   6.940
 1147SOL    HW220584   1.735   6.026   6.896
 1148SOL     OW20585   4.992   0.053   6.861
 1148SOL    HW120586   5.006  -0.042   6.865
 1148SOL    HW220587   4.903   0.065   6.895
 1149SOL     OW20588   2.198   1.923   1.673
 1149SOL    HW120589   2.109   1.948   1.648
 1149SOL    HW220590   2.252   1.951   1.600
 1150SOL     OW20591   5.764   3.442   6.496
 1150SOL    HW120592   5.776   3.476   6.407
 1150SOL    HW220593   5.677   3.401   6.494
 1151SOL     OW20594   5.410   5.827   2.021
 1151SOL    HW120595   5.389   5.789   1.935
 1151SOL    HW220596   5.426   5.919   2.003
 1152SOL     OW20597   0.463   5.129   0.747
 1152SOL    HW120598   0.456   5.170   0.661
 1152SOL    HW220599   0.536   5.175   0.790
 1153SOL     OW20600   2.867   1.446   6.823
 1153SOL    HW120601   2.850   1.437   6.729
 1153SOL    HW220602   2.784   1.476   6.859
 1154SOL     OW20603   1.061   4.757   6.580
 1154SOL    HW120604   1.115   4.679   6.594
 1154SOL    HW220605   1.122   4.822   6.545
 1155SOL     OW20606   4.823   3.657   1.215
 1155SOL    HW120607   4.746   3.689   1.168
 1155SOL    HW220608   4.897   3.688   1.164
 1156SOL     OW20609   3.391   5.762   1.312
 1156SOL    HW120610   3.423   5.672   1.301
 1156SOL    HW220611   3.466   5.809   1.348
 1157SOL     OW20612   1.304   3.837   7.394
 1157SOL    HW120613   1.288   3.920   7.440
 1157SOL    HW220614   1.389   3.849   7.352
 1158SOL     OW20615   0.412   2.530   7.671
 1158SOL    HW120616   0.379   2.620   7.673
 1158SOL    HW220617   0.338   2.479   7.638
 1159SOL     OW20618   6.176   4.329   5.860
 1159SOL    HW120619   6.267   4.357   5.873
 1159SOL    HW220620   6.124   4.387   5.916
 1160SOL     OW20621   0.700   4.754   7.159
 1160SOL    HW120622   0.752   4.675   7.173
 1160SOL    HW220623   0.720   4.780   7.069
 1161SOL     OW20624   1.316   3.834   0.797
 1161SOL    HW120625   1.328   3.747   0.759
 1161SOL    HW220626   1.222   3.845   0.804
 1162SOL     OW20627   0.284   2.804   1.742
 1162SOL    HW120628   0.239   2.888   1.747
 1162SOL    HW220629   0.237   2.754   1.676
 1163SOL     OW20630   3.941   5.881   7.514
 1163SOL    HW120631   3.942   5.797   7.468
 1163SOL    HW220632   3.889   5.865   7.593
 1164SOL     OW20633   4.309   1.842   0.777
 1164SOL    HW120634   4.218   1.871   0.772
 1164SOL    HW220635   4.336   1.831   0.686
 1165SOL     OW20636   0.333   6.382   6.363
 1165SOL    HW120637   0.271   6.454   6.350
 1165SOL    HW220638   0.409   6.423   6.405
 1166SOL     OW20639   2.076   5.500   7.180
 1166SOL    HW120640   2.081   5.409   7.150
 1166SOL    HW220641   2.142   5.546   7.128
 1167SOL     OW20642   0.645   5.293   0.853
 1167SOL    HW120643   0.634   5.380   0.815
 1167SOL    HW220644   0.738   5.274   0.840
 1168SOL     OW20645   3.450   0.663   7.390
 1168SOL    HW120646   3.407   0.580   7.369
 1168SOL    HW220647   3.380   0.728   7.384
 1169SOL     OW20648   4.771   4.019   6.339
 1169SOL    HW120649   4.831   3.956   6.297
 1169SOL    HW220650   4.726   4.060   6.266
 1170SOL     OW20651   4.481   5.831   0.243
 1170SOL    HW120652   4.510   5.743   0.217
 1170SOL    HW220653   4.525   5.848   0.325
 1171SOL     OW20654   5.237   2.054   6.978
 1171SOL    HW120655   5.207   1.975   7.022
 1171SOL    HW220656   5.211   2.125   7.036
 1172SOL     OW20657   4.701   3.796   0.985
 1172SOL    HW120658   4.732   3.867   0.929
 1172SOL    HW220659   4.636   3.836   1.043
 1173SOL     OW20660   0.783   0.138   6.528
 1173SOL    HW120661   0.862   0.098   6.566
 1173SOL    HW220662   0.795   0.232   6.542
 1174SOL     OW20663   4.625   4.303   1.852
 1174SOL    HW120664   4.589   4.250   1.781
 1174SOL    HW220665   4.639   4.389   1.813
 1175SOL     OW20666   1.778   2.383   7.299
 1175SOL    HW120667   1.777   2.464   7.351
 1175SOL    HW220668   1.824   2.320   7.355
 1176SOL     OW20669   6.333   4.077   7.275
 1176SOL    HW120670   6.376   4.100   7.357
 1176SOL    HW220671   6.405   4.063   7.213
 1177SOL     OW20672   0.054   4.001   3.040
 1177SOL    HW120673   0.016   3.918   3.010
 1177SOL    HW220674   0.027   4.065   2.974
 1178SOL     OW20675   2.651   2.697   6.250
 1178SOL    HW120676   2.619   2.645   6.176
 1178SOL    HW220677   2.741   2.720   6.227
 1179SOL     OW20678   2.140   2.728   2.514
 1179SOL    HW120679   2.108   2.700   2.600
 1179SOL    HW220680   2.166   2.819   2.527
 1180SOL     OW20681   3.608   3.684   6.112
 1180SOL    HW120682   3.556   3.703   6.034
 1180SOL    HW220683   3.607   3.588   6.119
 1181SOL     OW20684   2.873   0.280   7.125
 1181SOL    HW120685   2.903   0.316   7.209
 1181SOL    HW220686   2.860   0.357   7.069
 1182SOL     OW20687   3.781   2.781   2.479
 1182SOL    HW120688   3.875   2.792   2.495
 1182SOL    HW220689   3.770   2.801   2.386
 1183SOL     OW20690   6.411   5.540   1.741
 1183SOL    HW120691   6.406   5.628   1.778
 1183SOL    HW220692   6.437   5.555   1.649
 1184SOL     OW20693   4.487   5.823   0.969
 1184SOL    HW120694   4.524   5.854   1.052
 1184SOL    HW220695   4.455   5.735   0.989
 1185SOL     OW20696   2.231   2.219   1.224
 1185SOL    HW120697   2.151   2.204   1.275
 1185SOL    HW220698   2.202   2.219   1.133
 1186SOL     OW20699   3.196   5.993   0.724
 1186SOL    HW120700   3.145   5.917   0.752
 1186SOL    HW220701   3.185   5.996   0.629
 1187SOL     OW20702   1.371   2.349   7.605
 1187SOL    HW120703   1.306   2.352   7.675
 1187SOL    HW220704   1.406   2.260   7.608
 1188SOL     OW20705   1.501   5.863   6.941
 1188SOL    HW120706   1.490   5.946   6.988
 1188SOL    HW220707   1.423   5.812   6.963
 1189SOL     OW20708   0.753   1.032   7.507
 1189SOL    HW120709   0.715   1.120   7.506
 1189SOL    HW220710   0.683   0.977   7.544
 1190SOL     OW20711   2.815   3.094   1.655
 1190SOL    HW120712   2.740   3.149   1.634
 1190SOL    HW220713   2.855   3.135   1.732
 1191SOL     OW20714   1.447   1.959   5.224
 1191SOL    HW120715   1.519   2.022   5.231
 1191SOL    HW220716   1.369   2.010   5.245
 1192SOL     OW20717   0.699   5.772   0.787
 1192SOL    HW120718   0.618   5.806   0.750
 1192SOL    HW220719   0.760   5.845   0.782
 1193SOL     OW20720   5.433   6.079   7.219
 1193SOL    HW120721   5.370   6.079   7.147
 1193SOL    HW220722   5.380   6.073   7.298
 1194SOL     OW20723   0.255   1.904   0.227
 1194SOL    HW120724   0.189   1.963   0.265
 1194SOL    HW220725   0.206   1.825   0.207
 1195SOL     OW20726   1.177   4.619   1.130
 1195SOL    HW120727   1.233   4.662   1.065
 1195SOL    HW220728   1.094   4.665   1.125
 1196SOL     OW20729   3.032   4.150   7.363
 1196SOL    HW120730   3.025   4.055   7.358
 1196SOL    HW220731   3.126   4.166   7.378
 1197SOL     OW20732   4.945   0.555   0.465
 1197SOL    HW120733   4.909   0.567   0.553
 1197SOL    HW220734   5.029   0.601   0.467
 1198SOL     OW20735   3.713   0.637   7.401
 1198SOL    HW120736   3.729   0.544   7.414
 1198SOL    HW220737   3.625   0.642   7.363
 1199SOL     OW20738   4.559   4.613   6.623
 1199SOL    HW120739   4.590   4.564   6.547
 1199SOL    HW220740   4.483   4.564   6.654
 1200SOL     OW20741   0.607   5.840   7.160
 1200SOL    HW120742   0.631   5.896   7.087
 1200SOL    HW220743   0.662   5.871   7.233
 1201SOL     OW20744   4.849   1.077   6.929
 1201SOL    HW120745   4.824   1.054   6.839
 1201SOL    HW220746   4.766   1.087   6.975
 1202SOL     OW20747   1.038   0.320   6.427
 1202SOL    HW120748   1.050   0.413   6.447
 1202SOL    HW220749   0.956   0.316   6.378
 1203SOL     OW20750   3.893   0.036   6.730
 1203SOL    HW120751   3.950   0.101   6.771
 1203SOL    HW220752   3.897   0.055   6.637
 1204SOL     OW20753   1.997   4.877   6.587
 1204SOL    HW120754   2.060   4.946   6.610
 1204SOL    HW220755   1.914   4.908   6.621
 1205SOL     OW20756   3.495   2.217   0.978
 1205SOL    HW120757   3.418   2.168   0.948
 1205SOL    HW220758   3.520   2.174   1.060
 1206SOL     OW20759   2.651   1.059   0.865
 1206SOL    HW120760   2.604   1.043   0.783
 1206SOL    HW220761   2.743   1.053   0.841
 1207SOL     OW20762   1.251   0.629   0.637
 1207SOL    HW120763   1.159   0.644   0.619
 1207SOL    HW220764   1.292   0.716   0.630
 1208SOL     OW20765   0.685   2.604   7.199
 1208SOL    HW120766   0.641   2.669   7.253
 1208SOL    HW220767   0.614   2.552   7.161
 1209SOL     OW20768   3.985   2.457   7.560
 1209SOL    HW120769   4.053   2.421   7.618
 1209SOL    HW220770   4.010   2.549   7.548
 1210SOL     OW20771   1.384   3.044   1.534
 1210SOL    HW120772   1.389   3.100   1.456
 1210SOL    HW220773   1.471   3.003   1.539
 1211SOL     OW20774   0.890   3.633   0.045
 1211SOL    HW120775   0.820   3.655  -0.017
 1211SOL    HW220776   0.969   3.629  -0.008
 1212SOL     OW20777   3.926   0.350   1.922
 1212SOL    HW120778   3.944   0.443   1.907
 1212SOL    HW220779   3.906   0.315   1.835
 1213SOL     OW20780   1.456   3.498   6.861
 1213SOL    HW120781   1.365   3.516   6.840
 1213SOL    HW220782   1.460   3.404   6.874
 1214SOL     OW20783   0.935   5.601   7.306
 1214SOL    HW120784   0.966   5.523   7.351
 1214SOL    HW220785   0.884   5.648   7.372
 1215SOL     OW20786   4.236   2.759   1.430
 1215SOL    HW120787   4.154   2.762   1.479
 1215SOL    HW220788   4.284   2.685   1.468
 1216SOL     OW20789   5.693   3.514   1.071
 1216SOL    HW120790   5.665   3.565   1.146
 1216SOL    HW220791   5.618   3.458   1.050
 1217SOL     OW20792   4.705   4.523   7.097
 1217SOL    HW120793   4.784   4.471   7.110
 1217SOL    HW220794   4.635   4.458   7.088
 1218SOL     OW20795   4.966   2.567   2.456
 1218SOL    HW120796   5.059   2.551   2.443
 1218SOL    HW220797   4.940   2.506   2.525
 1219SOL     OW20798   5.587   1.785   6.117
 1219SOL    HW120799   5.679   1.772   6.139
 1219SOL    HW220800   5.581   1.762   6.025
 1220SOL     OW20801   0.785   2.297   1.620
 1220SOL    HW120802   0.808   2.254   1.537
 1220SOL    HW220803   0.690   2.289   1.625
 1221SOL     OW20804   1.291   5.360   0.950
 1221SOL    HW120805   1.209   5.406   0.969
 1221SOL    HW220806   1.352   5.430   0.925
 1222SOL     OW20807   1.043   5.761   0.979
 1222SOL    HW120808   1.060   5.737   0.888
 1222SOL    HW220809   1.083   5.847   0.990
 1223SOL     OW20810   2.785   1.802   6.960
 1223SOL    HW120811   2.763   1.728   6.903
 1223SOL    HW220812   2.851   1.851   6.910
 1224SOL     OW20813   6.202   2.033   1.228
 1224SOL    HW120814   6.215   2.110   1.173
 1224SOL    HW220815   6.177   2.069   1.313
 1225SOL     OW20816   3.043   4.418   0.033
 1225SOL    HW120817   3.112   4.397   0.095
 1225SOL    HW220818   3.070   4.501  -0.007
 1226SOL     OW20819   1.516   0.582   0.210
 1226SOL    HW120820   1.566   0.643   0.155
 1226SOL    HW220821   1.495   0.633   0.289
 1227SOL     OW20822   0.881   5.147   7.228
 1227SOL    HW120823   0.807   5.202   7.253
 1227SOL    HW220824   0.934   5.140   7.308
 1228SOL     OW20825   4.386   4.791   1.474
 1228SOL    HW120826   4.421   4.855   1.536
 1228SOL    HW220827   4.457   4.777   1.412
 1229SOL     OW20828   1.287   4.091   6.242
 1229SOL    HW120829   1.322   4.105   6.154
 1229SOL    HW220830   1.359   4.115   6.301
 1230SOL     OW20831   4.335   1.873   6.552
 1230SOL    HW120832   4.251   1.835   6.527
 1230SOL    HW220833   4.386   1.799   6.585
 1231SOL     OW20834   5.341   5.313   7.177
 1231SOL    HW120835   5.288   5.329   7.254
 1231SOL    HW220836   5.423   5.359   7.194
 1232SOL     OW20837   2.073   0.101   0.280
 1232SOL    HW120838   2.055   0.178   0.225
 1232SOL    HW220839   2.076   0.028   0.218
 1233SOL     OW20840   4.940   5.027   1.228
 1233SOL    HW120841   4.940   4.934   1.252
 1233SOL    HW220842   4.880   5.032   1.153
 1234SOL     OW20843   0.477   4.053   7.543
 1234SOL    HW120844   0.564   4.034   7.507
 1234SOL    HW220845   0.480   4.018   7.632
 1235SOL     OW20846   4.173   3.820   7.638
 1235SOL    HW120847   4.264   3.793   7.627
 1235SOL    HW220848   4.177   3.915   7.645
 1236SOL     OW20849   0.257   3.195   1.957
 1236SOL    HW120850   0.299   3.281   1.964
 1236SOL    HW220851   0.299   3.143   2.026
 1237SOL     OW20852   5.964   5.498   2.573
 1237SOL    HW120853   5.974   5.412   2.534
 1237SOL    HW220854   5.926   5.481   2.660
 1238SOL     OW20855   3.604   4.969   0.711
 1238SOL    HW120856   3.643   5.051   0.740
 1238SOL    HW220857   3.545   4.944   0.782
 1239SOL     OW20858   1.436   3.453   5.992
 1239SOL    HW120859   1.417   3.423   5.903
 1239SOL    HW220860   1.442   3.372   6.044
 1240SOL     OW20861   1.081   5.446   6.818
 1240SOL    HW120862   1.057   5.460   6.910
 1240SOL    HW220863   1.144   5.374   6.821
 1241SOL     OW20864   4.013   2.633   0.703
 1241SOL    HW120865   3.986   2.571   0.771
 1241SOL    HW220866   3.931   2.663   0.665
 1242SOL     OW20867   2.772   5.300   7.695
 1242SOL    HW120868   2.698   5.350   7.729
 1242SOL    HW220869   2.843   5.320   7.756
 1243SOL     OW20870   0.818   2.131   7.469
 1243SOL    HW120871   0.902   2.095   7.440
 1243SOL    HW220872   0.831   2.149   7.562
 1244SOL     OW20873   6.281   2.478   5.999
 1244SOL    HW120874   6.240   2.564   6.003
 1244SOL    HW220875   6.208   2.418   5.980
 1245SOL     OW20876   5.787   6.252   1.567
 1245SOL    HW120877   5.759   6.250   1.659
 1245SOL    HW220878   5.743   6.330   1.531
 1246SOL     OW20879   5.834   1.894   1.409
 1246SOL    HW120880   5.913   1.911   1.357
 1246SOL    HW220881   5.839   1.801   1.429
 1247SOL     OW20882   1.609   1.748   0.143
 1247SOL    HW120883   1.582   1.675   0.198
 1247SOL    HW220884   1.672   1.710   0.081
 1248SOL     OW20885   1.872   1.293   0.017
 1248SOL    HW120886   1.867   1.300  -0.079
 1248SOL    HW220887   1.964   1.314   0.037
 1249SOL     OW20888   0.453   2.193   1.970
 1249SOL    HW120889   0.496   2.259   1.916
 1249SOL    HW220890   0.381   2.240   2.013
 1250SOL     OW20891   5.562   4.996   1.326
 1250SOL    HW120892   5.475   5.023   1.297
 1250SOL    HW220893   5.547   4.915   1.374
 1251SOL     OW20894   0.058   1.366   7.514
 1251SOL    HW120895   0.071   1.274   7.539
 1251SOL    HW220896  -0.014   1.396   7.569
 1252SOL     OW20897   4.935   4.376   1.244
 1252SOL    HW120898   4.948   4.426   1.325
 1252SOL    HW220899   4.878   4.304   1.270
 1253SOL     OW20900   2.168   3.947   1.561
 1253SOL    HW120901   2.207   4.005   1.495
 1253SOL    HW220902   2.187   3.990   1.644
 1254SOL     OW20903   4.441   1.923   2.224
 1254SOL    HW120904   4.466   1.918   2.316
 1254SOL    HW220905   4.346   1.907   2.224
 1255SOL     OW20906   2.271   4.010   6.531
 1255SOL    HW120907   2.354   3.965   6.518
 1255SOL    HW220908   2.223   3.998   6.449
 1256SOL     OW20909   5.839   1.595   1.402
 1256SOL    HW120910   5.870   1.512   1.437
 1256SOL    HW220911   5.762   1.617   1.455
 1257SOL     OW20912   3.904   0.892   1.437
 1257SOL    HW120913   3.918   0.874   1.344
 1257SOL    HW220914   3.975   0.952   1.461
 1258SOL     OW20915   5.360   2.494   7.282
 1258SOL    HW120916   5.407   2.518   7.202
 1258SOL    HW220917   5.364   2.398   7.283
 1259SOL     OW20918   0.303   3.051   6.650
 1259SOL    HW120919   0.225   3.056   6.595
 1259SOL    HW220920   0.345   2.969   6.623
 1260SOL     OW20921   4.540   2.306   0.187
 1260SOL    HW120922   4.513   2.240   0.123
 1260SOL    HW220923   4.567   2.381   0.134
 1261SOL     OW20924   1.986   0.320   0.593
 1261SOL    HW120925   1.984   0.225   0.585
 1261SOL    HW220926   1.982   0.337   0.687
 1262SOL     OW20927   4.558   5.134   6.773
 1262SOL    HW120928   4.595   5.101   6.855
 1262SOL    HW220929   4.605   5.215   6.755
 1263SOL     OW20930   1.455   2.182   1.068
 1263SOL    HW120931   1.514   2.108   1.080
 1263SOL    HW220932   1.405   2.186   1.150
 1264SOL     OW20933   2.850   5.141   1.158
 1264SOL    HW120934   2.870   5.062   1.209
 1264SOL    HW220935   2.782   5.185   1.209
 1265SOL     OW20936   2.636   3.668   0.191
 1265SOL    HW120937   2.687   3.733   0.143
 1265SOL    HW220938   2.698   3.598   0.211
 1266SOL     OW20939   1.518   1.542   7.400
 1266SOL    HW120940   1.490   1.498   7.320
 1266SOL    HW220941   1.445   1.533   7.460
 1267SOL     OW20942   0.912   0.923   0.995
 1267SOL    HW120943   0.969   0.847   1.009
 1267SOL    HW220944   0.840   0.910   1.056
 1268SOL     OW20945   0.808   2.964   6.306
 1268SOL    HW120946   0.861   2.979   6.228
 1268SOL    HW220947   0.872   2.939   6.373
 1269SOL     OW20948   2.135   3.105   1.922
 1269SOL    HW120949   2.191   3.030   1.903
 1269SOL    HW220950   2.052   3.068   1.949
 1270SOL     OW20951   3.439   1.952   3.345
 1270SOL    HW120952   3.357   1.912   3.315
 1270SOL    HW220953   3.480   1.984   3.265
 1271SOL     OW20954   3.165   6.285   1.201
 1271SOL    HW120955   3.211   6.362   1.169
 1271SOL    HW220956   3.231   6.216   1.203
 1272SOL     OW20957   3.820   0.430   0.223
 1272SOL    HW120958   3.826   0.457   0.131
 1272SOL    HW220959   3.772   0.501   0.266
 1273SOL     OW20960   6.174   0.847   0.361
 1273SOL    HW120961   6.179   0.920   0.423
 1273SOL    HW220962   6.265   0.821   0.348
 1274SOL     OW20963   3.139   2.037   5.976
 1274SOL    HW120964   3.055   2.081   5.988
 1274SOL    HW220965   3.122   1.946   6.001
 1275SOL     OW20966   5.889   1.414   1.941
 1275SOL    HW120967   5.917   1.450   2.026
 1275SOL    HW220968   5.857   1.490   1.893
 1276SOL     OW20969   5.897   3.820   6.194
 1276SOL    HW120970   5.925   3.761   6.265
 1276SOL    HW220971   5.964   3.810   6.127
 1277SOL     OW20972   2.947   0.956   0.407
 1277SOL    HW120973   2.880   0.917   0.463
 1277SOL    HW220974   2.899   1.018   0.352
 1278SOL     OW20975   5.952   3.035   5.778
 1278SOL    HW120976   5.935   2.977   5.704
 1278SOL    HW220977   5.966   2.977   5.852
 1279SOL     OW20978   3.226   3.298   1.988
 1279SOL    HW120979   3.284   3.255   2.050
 1279SOL    HW220980   3.156   3.335   2.042
 1280SOL     OW20981   2.081   4.480   0.733
 1280SOL    HW120982   2.016   4.481   0.804
 1280SOL    HW220983   2.062   4.559   0.682
 1281SOL     OW20984   2.754   5.478   2.081
 1281SOL    HW120985   2.726   5.549   2.139
 1281SOL    HW220986   2.678   5.459   2.027
 1282SOL     OW20987   0.322   2.644   2.612
 1282SOL    HW120988   0.257   2.701   2.653
 1282SOL    HW220989   0.293   2.637   2.521
 1283SOL     OW20990   1.090   4.456   1.320
 1283SOL    HW120991   1.117   4.507   1.244
 1283SOL    HW220992   1.027   4.511   1.365
 1284SOL     OW20993   6.351   2.820   0.910
 1284SOL    HW120994   6.286   2.889   0.920
 1284SOL    HW220995   6.434   2.861   0.934
 1285SOL     OW20996   4.541   2.643   1.304
 1285SOL    HW120997   4.555   2.717   1.364
 1285SOL    HW220998   4.607   2.656   1.236
 1286SOL     OW20999   0.177   1.663   0.133
 1286SOL    HW121000   0.130   1.682   0.052
 1286SOL    HW221001   0.140   1.580   0.164
 1287SOL     OW21002   6.303   4.663   0.821
 1287SOL    HW121003   6.279   4.746   0.863
 1287SOL    HW221004   6.317   4.685   0.729
 1288SOL     OW21005   3.621   6.434   6.775
 1288SOL    HW121006   3.699   6.490   6.765
 1288SOL    HW221007   3.626   6.373   6.702
 1289SOL     OW21008   5.308   5.082   2.737
 1289SOL    HW121009   5.398   5.087   2.703
 1289SOL    HW221010   5.302   5.153   2.801
 1290SOL     OW21011   1.481   1.968   0.264
 1290SOL    HW121012   1.552   1.914   0.230
 1290SOL    HW221013   1.401   1.925   0.231
 1291SOL     OW21014   3.430   4.924   0.063
 1291SOL    HW121015   3.367   4.896   0.129
 1291SOL    HW221016   3.428   4.856  -0.004
 1292SOL     OW21017   4.658   5.885   2.244
 1292SOL    HW121018   4.716   5.952   2.208
 1292SOL    HW221019   4.680   5.881   2.337
 1293SOL     OW21020   0.047   1.034   6.549
 1293SOL    HW121021   0.040   1.092   6.625
 1293SOL    HW221022   0.102   1.081   6.487
 1294SOL     OW21023   3.416   4.872   5.877
 1294SOL    HW121024   3.487   4.903   5.822
 1294SOL    HW221025   3.366   4.812   5.821
 1295SOL     OW21026   2.476   3.352   7.511
 1295SOL    HW121027   2.482   3.409   7.587
 1295SOL    HW221028   2.567   3.338   7.484
 1296SOL     OW21029   1.616   1.751   7.251
 1296SOL    HW121030   1.549   1.819   7.261
 1296SOL    HW221031   1.595   1.686   7.317
 1297SOL     OW21032   3.956   3.281   6.251
 1297SOL    HW121033   4.020   3.226   6.205
 1297SOL    HW221034   3.913   3.221   6.312
 1298SOL     OW21035   0.526   0.855   7.571
 1298SOL    HW121036   0.540   0.767   7.605
 1298SOL    HW221037   0.479   0.901   7.641
 1299SOL     OW21038   6.218   3.702   0.875
 1299SOL    HW121039   6.167   3.669   0.801
 1299SOL    HW221040   6.251   3.787   0.846
 1300SOL     OW21041   5.970   0.275   0.414
 1300SOL    HW121042   5.993   0.348   0.356
 1300SOL    HW221043   5.897   0.308   0.467
 1301SOL     OW21044   5.802   2.469   0.962
 1301SOL    HW121045   5.768   2.431   0.881
 1301SOL    HW221046   5.725   2.506   1.006
 1302SOL     OW21047   2.803   2.375   6.609
 1302SOL    HW121048   2.777   2.403   6.521
 1302SOL    HW221049   2.896   2.397   6.615
 1303SOL     OW21050   2.161   6.242   1.466
 1303SOL    HW121051   2.174   6.259   1.373
 1303SOL    HW221052   2.114   6.159   1.469
 1304SOL     OW21053   1.923   3.015   7.125
 1304SOL    HW121054   1.861   3.045   7.191
 1304SOL    HW221055   1.993   3.081   7.127
 1305SOL     OW21056   3.973   5.790   1.370
 1305SOL    HW121057   4.009   5.711   1.410
 1305SOL    HW221058   3.971   5.854   1.441
 1306SOL     OW21059   5.185   1.029   1.273
 1306SOL    HW121060   5.180   0.954   1.214
 1306SOL    HW221061   5.148   0.996   1.355
 1307SOL     OW21062   3.265   4.474   6.651
 1307SOL    HW121063   3.210   4.405   6.687
 1307SOL    HW221064   3.317   4.430   6.583
 1308SOL     OW21065   1.124   6.143   7.279
 1308SOL    HW121066   1.048   6.179   7.325
 1308SOL    HW221067   1.190   6.131   7.348
 1309SOL     OW21068   2.032   2.787   0.342
 1309SOL    HW121069   1.995   2.875   0.338
 1309SOL    HW221070   2.078   2.776   0.259
 1310SOL     OW21071   2.440   1.133   6.828
 1310SOL    HW121072   2.433   1.076   6.905
 1310SOL    HW221073   2.429   1.221   6.863
 1311SOL     OW21074   4.320   3.713   1.972
 1311SOL    HW121075   4.281   3.659   1.904
 1311SOL    HW221076   4.289   3.675   2.054
 1312SOL     OW21077   2.973   6.318   0.594
 1312SOL    HW121078   3.039   6.380   0.565
 1312SOL    HW221079   2.999   6.293   0.682
 1313SOL     OW21080   5.121   1.265   1.467
 1313SOL    HW121081   5.094   1.179   1.499
 1313SOL    HW221082   5.059   1.285   1.397
 1314SOL     OW21083   4.789   2.153   7.073
 1314SOL    HW121084   4.710   2.170   7.124
 1314SOL    HW221085   4.812   2.063   7.094
 1315SOL     OW21086   4.877   0.339   0.720
 1315SOL    HW121087   4.887   0.296   0.805
 1315SOL    HW221088   4.812   0.407   0.735
 1316SOL     OW21089   2.568   6.345   7.202
 1316SOL    HW121090   2.548   6.293   7.279
 1316SOL    HW221091   2.555   6.436   7.230
 1317SOL     OW21092   5.424   3.445   6.165
 1317SOL    HW121093   5.385   3.504   6.229
 1317SOL    HW221094   5.518   3.455   6.176
 1318SOL     OW21095   1.174   3.353   6.782
 1318SOL    HW121096   1.142   3.315   6.864
 1318SOL    HW221097   1.223   3.282   6.740
 1319SOL     OW21098   5.004   1.978   6.508
 1319SOL    HW121099   5.067   2.044   6.480
 1319SOL    HW221100   5.039   1.948   6.593
 1320SOL     OW21101   0.350   5.160   7.298
 1320SOL    HW121102   0.346   5.214   7.220
 1320SOL    HW221103   0.275   5.101   7.290
 1321SOL     OW21104   5.068   4.743   1.762
 1321SOL    HW121105   5.076   4.648   1.749
 1321SOL    HW221106   4.975   4.761   1.749
 1322SOL     OW21107   3.530   0.235   0.927
 1322SOL    HW121108   3.593   0.163   0.936
 1322SOL    HW221109   3.532   0.279   1.012
 1323SOL     OW21110   4.543   0.908   7.740
 1323SOL    HW121111   4.610   0.887   7.675
 1323SOL    HW221112   4.580   0.980   7.791
 1324SOL     OW21113   0.101   4.023   6.509
 1324SOL    HW121114   0.138   3.971   6.437
 1324SOL    HW221115   0.113   3.968   6.586
 1325SOL     OW21116   2.217   1.275   0.769
 1325SOL    HW121117   2.180   1.315   0.847
 1325SOL    HW221118   2.289   1.334   0.744
 1326SOL     OW21119   0.156   5.553   7.202
 1326SOL    HW121120   0.094   5.488   7.236
 1326SOL    HW221121   0.184   5.603   7.278
 1327SOL     OW21122   5.753   0.899   1.321
 1327SOL    HW121123   5.791   0.983   1.295
 1327SOL    HW221124   5.760   0.845   1.242
 1328SOL     OW21125   0.763   4.499   7.193
 1328SOL    HW121126   0.790   4.510   7.102
 1328SOL    HW221127   0.693   4.434   7.189
 1329SOL     OW21128   5.042   3.756   1.052
 1329SOL    HW121129   5.096   3.710   1.116
 1329SOL    HW221130   5.076   3.728   0.967
 1330SOL     OW21131   3.003   2.239   6.182
 1330SOL    HW121132   2.958   2.210   6.103
 1330SOL    HW221133   2.975   2.329   6.194
 1331SOL     OW21134   4.444   5.927   7.454
 1331SOL    HW121135   4.507   5.875   7.503
 1331SOL    HW221136   4.412   5.867   7.386
 1332SOL     OW21137   3.150   3.764   1.942
 1332SOL    HW121138   3.108   3.842   1.976
 1332SOL    HW221139   3.226   3.797   1.893
 1333SOL     OW21140   0.099   2.710   7.539
 1333SOL    HW121141   0.062   2.651   7.605
 1333SOL    HW221142   0.122   2.789   7.589
 1334SOL     OW21143   3.991   4.736   6.457
 1334SOL    HW121144   3.989   4.772   6.368
 1334SOL    HW221145   4.080   4.755   6.488
 1335SOL     OW21146   2.448   6.271   7.738
 1335SOL    HW121147   2.523   6.322   7.709
 1335SOL    HW221148   2.432   6.300   7.828
 1336SOL     OW21149   4.668   0.210   6.238
 1336SOL    HW121150   4.612   0.158   6.181
 1336SOL    HW221151   4.641   0.185   6.327
 1337SOL     OW21152   2.913   0.660   5.383
 1337SOL    HW121153   2.988   0.658   5.443
 1337SOL    HW221154   2.888   0.568   5.373
 1338SOL     OW21155   5.066   3.831   0.626
 1338SOL    HW121156   4.989   3.849   0.572
 1338SOL    HW221157   5.078   3.911   0.678
 1339SOL     OW21158   5.845   0.880   6.330
 1339SOL    HW121159   5.828   0.810   6.266
 1339SOL    HW221160   5.808   0.848   6.412
 1340SOL     OW21161   4.106   1.420   6.627
 1340SOL    HW121162   4.139   1.356   6.563
 1340SOL    HW221163   4.083   1.497   6.575
 1341SOL     OW21164   4.264   2.741   0.111
 1341SOL    HW121165   4.256   2.814   0.049
 1341SOL    HW221166   4.335   2.767   0.170
 1342SOL     OW21167   3.025   4.184   0.979
 1342SOL    HW121168   3.106   4.199   0.931
 1342SOL    HW221169   3.041   4.222   1.066
 1343SOL     OW21170   0.578   5.170   1.676
 1343SOL    HW121171   0.627   5.201   1.600
 1343SOL    HW221172   0.497   5.134   1.639
 1344SOL     OW21173   5.597   1.628   1.540
 1344SOL    HW121174   5.554   1.597   1.460
 1344SOL    HW221175   5.562   1.716   1.552
 1345SOL     OW21176   2.269   1.324   1.828
 1345SOL    HW121177   2.230   1.326   1.915
 1345SOL    HW221178   2.235   1.402   1.785
 1346SOL     OW21179   0.546   4.702   5.687
 1346SOL    HW121180   0.493   4.739   5.617
 1346SOL    HW221181   0.533   4.607   5.679
 1347SOL     OW21182   0.128   4.031   6.126
 1347SOL    HW121183   0.175   4.062   6.203
 1347SOL    HW221184   0.170   4.075   6.053
 1348SOL     OW21185   0.703   3.958   1.193
 1348SOL    HW121186   0.785   3.942   1.146
 1348SOL    HW221187   0.676   4.046   1.166
 1349SOL     OW21188   3.184   5.546   1.117
 1349SOL    HW121189   3.100   5.575   1.153
 1349SOL    HW221190   3.227   5.503   1.191
 1350SOL     OW21191   6.198   5.824   1.305
 1350SOL    HW121192   6.216   5.857   1.217
 1350SOL    HW221193   6.213   5.730   1.299
 1351SOL     OW21194   5.689   5.651   5.560
 1351SOL    HW121195   5.755   5.631   5.626
 1351SOL    HW221196   5.699   5.581   5.495
 1352SOL     OW21197   4.555   2.859   1.480
 1352SOL    HW121198   4.560   2.955   1.476
 1352SOL    HW221199   4.548   2.840   1.573
 1353SOL     OW21200   2.215   4.061   6.033
 1353SOL    HW121201   2.199   4.049   5.940
 1353SOL    HW221202   2.302   4.099   6.038
 1354SOL     OW21203   6.370   5.746   5.653
 1354SOL    HW121204   6.445   5.720   5.599
 1354SOL    HW221205   6.403   5.816   5.709
 1355SOL     OW21206   4.222   2.196   6.197
 1355SOL    HW121207   4.178   2.181   6.114
 1355SOL    HW221208   4.315   2.199   6.175
 1356SOL     OW21209   1.867   6.330   1.445
 1356SOL    HW121210   1.872   6.367   1.357
 1356SOL    HW221211   1.957   6.302   1.465
 1357SOL     OW21212   5.349   2.240   6.771
 1357SOL    HW121213   5.364   2.185   6.848
 1357SOL    HW221214   5.385   2.189   6.698
 1358SOL     OW21215   0.141   5.695   2.429
 1358SOL    HW121216   0.189   5.613   2.419
 1358SOL    HW221217   0.140   5.733   2.342
 1359SOL     OW21218   3.894   1.798   1.244
 1359SOL    HW121219   3.963   1.832   1.187
 1359SOL    HW221220   3.932   1.720   1.284
 1360SOL     OW21221   6.014   2.645   0.943
 1360SOL    HW121222   6.088   2.586   0.931
 1360SOL    HW221223   5.938   2.587   0.953
 1361SOL     OW21224   4.906   2.802   0.008
 1361SOL    HW121225   4.918   2.875   0.068
 1361SOL    HW221226   4.881   2.729   0.063
 1362SOL     OW21227   2.760   4.154   0.656
 1362SOL    HW121228   2.830   4.216   0.638
 1362SOL    HW221229   2.778   4.121   0.744
 1363SOL     OW21230   0.976   1.955   7.682
 1363SOL    HW121231   0.904   1.911   7.728
 1363SOL    HW221232   1.021   2.004   7.751
 1364SOL     OW21233   4.181   1.640   7.321
 1364SOL    HW121234   4.276   1.653   7.332
 1364SOL    HW221235   4.147   1.635   7.410
 1365SOL     OW21236   6.261   4.276   1.343
 1365SOL    HW121237   6.334   4.333   1.367
 1365SOL    HW221238   6.187   4.336   1.333
 1366SOL     OW21239   1.707   4.761   0.999
 1366SOL    HW121240   1.721   4.851   1.026
 1366SOL    HW221241   1.643   4.768   0.927
 1367SOL     OW21242   2.724   1.878   0.916
 1367SOL    HW121243   2.719   1.807   0.979
 1367SOL    HW221244   2.727   1.958   0.969
 1368SOL     OW21245   3.130   3.220   0.113
 1368SOL    HW121246   3.218   3.190   0.136
 1368SOL    HW221247   3.097   3.263   0.192
 1369SOL     OW21248   3.637   1.845   7.366
 1369SOL    HW121249   3.703   1.914   7.361
 1369SOL    HW221250   3.559   1.883   7.325
 1370SOL     OW21251   5.786   4.476   0.409
 1370SOL    HW121252   5.834   4.442   0.484
 1370SOL    HW221253   5.743   4.555   0.441
 1371SOL     OW21254   2.252   0.851   6.712
 1371SOL    HW121255   2.339   0.875   6.679
 1371SOL    HW221256   2.209   0.810   6.637
 1372SOL     OW21257   1.951   6.248   0.506
 1372SOL    HW121258   1.931   6.216   0.594
 1372SOL    HW221259   1.998   6.330   0.521
 1373SOL     OW21260   1.290   2.908   5.597
 1373SOL    HW121261   1.352   2.966   5.552
 1373SOL    HW221262   1.225   2.967   5.634
 1374SOL     OW21263   3.851   2.617   1.464
 1374SOL    HW121264   3.919   2.561   1.502
 1374SOL    HW221265   3.790   2.556   1.423
 1375SOL     OW21266   2.344   1.439   7.148
 1375SOL    HW121267   2.273   1.375   7.144
 1375SOL    HW221268   2.301   1.522   7.169
 1376SOL     OW21269   4.248   0.021   1.207
 1376SOL    HW121270   4.302   0.081   1.258
 1376SOL    HW221271   4.158   0.044   1.232
 1377SOL     OW21272   0.831   3.082   7.301
 1377SOL    HW121273   0.804   3.060   7.390
 1377SOL    HW221274   0.925   3.064   7.300
 1378SOL     OW21275   5.102   0.928   6.942
 1378SOL    HW121276   5.052   1.007   6.922
 1378SOL    HW221277   5.163   0.918   6.869
 1379SOL     OW21278   0.052   5.905   0.397
 1379SOL    HW121279  -0.007   5.834   0.422
 1379SOL    HW221280  -0.002   5.962   0.343
 1380SOL     OW21281   3.221   5.869   1.844
 1380SOL    HW121282   3.278   5.863   1.921
 1380SOL    HW221283   3.266   5.816   1.777
 1381SOL     OW21284   6.019   2.643   0.648
 1381SOL    HW121285   6.050   2.605   0.731
 1381SOL    HW221286   6.039   2.736   0.656
 1382SOL     OW21287   4.276   1.577   1.040
 1382SOL    HW121288   4.232   1.542   1.117
 1382SOL    HW221289   4.206   1.611   0.984
 1383SOL     OW21290   5.758   3.153   6.126
 1383SOL    HW121291   5.852   3.169   6.133
 1383SOL    HW221292   5.748   3.061   6.150
 1384SOL     OW21293   4.773   0.442   0.272
 1384SOL    HW121294   4.848   0.491   0.306
 1384SOL    HW221295   4.731   0.404   0.349
 1385SOL     OW21296   5.410   3.625   1.663
 1385SOL    HW121297   5.375   3.706   1.700
 1385SOL    HW221298   5.358   3.556   1.704
 1386SOL     OW21299   5.442   2.491   1.438
 1386SOL    HW121300   5.416   2.530   1.522
 1386SOL    HW221301   5.416   2.556   1.373
 1387SOL     OW21302   1.326   0.792   7.139
 1387SOL    HW121303   1.256   0.854   7.160
 1387SOL    HW221304   1.372   0.832   7.065
 1388SOL     OW21305   1.850   4.673   6.023
 1388SOL    HW121306   1.863   4.745   5.961
 1388SOL    HW221307   1.939   4.643   6.044
 1389SOL     OW21308   4.667   0.746   1.986
 1389SOL    HW121309   4.717   0.725   1.907
 1389SOL    HW221310   4.581   0.775   1.953
 1390SOL     OW21311   1.746   2.704   0.116
 1390SOL    HW121312   1.754   2.797   0.134
 1390SOL    HW221313   1.678   2.673   0.175
 1391SOL     OW21314   5.911   4.486   0.970
 1391SOL    HW121315   5.902   4.534   0.887
 1391SOL    HW221316   5.996   4.443   0.963
 1392SOL     OW21317   2.690   3.132   0.721
 1392SOL    HW121318   2.776   3.123   0.761
 1392SOL    HW221319   2.636   3.067   0.766
 1393SOL     OW21320   3.281   4.249   1.455
 1393SOL    HW121321   3.266   4.154   1.453
 1393SOL    HW221322   3.334   4.266   1.377
 1394SOL     OW21323   6.454   0.179   1.641
 1394SOL    HW121324   6.381   0.238   1.660
 1394SOL    HW221325   6.503   0.174   1.722
 1395SOL     OW21326   2.824   4.179   1.364
 1395SOL    HW121327   2.804   4.101   1.313
 1395SOL    HW221328   2.877   4.147   1.437
 1396SOL     OW21329   4.490   2.933   0.673
 1396SOL    HW121330   4.455   2.958   0.588
 1396SOL    HW221331   4.440   2.854   0.697
 1397SOL     OW21332   3.223   1.749   0.158
 1397SOL    HW121333   3.257   1.817   0.215
 1397SOL    HW221334   3.128   1.751   0.172
 1398SOL     OW21335   6.180   3.714   6.232
 1398SOL    HW121336   6.181   3.809   6.244
 1398SOL    HW221337   6.149   3.680   6.316
 1399SOL     OW21338   0.252   4.622   6.625
 1399SOL    HW121339   0.204   4.653   6.703
 1399SOL    HW221340   0.225   4.531   6.615
 1400SOL     OW21341   1.110   5.385   2.201
 1400SOL    HW121342   1.086   5.379   2.293
 1400SOL    HW221343   1.201   5.356   2.197
 1401SOL     OW21344   5.425   4.420   1.568
 1401SOL    HW121345   5.515   4.446   1.548
 1401SOL    HW221346   5.384   4.404   1.483
 1402SOL     OW21347   2.181   5.887   2.635
 1402SOL    HW121348   2.264   5.854   2.669
 1402SOL    HW221349   2.198   5.906   2.542
 1403SOL     OW21350   1.764   4.281   1.228
 1403SOL    HW121351   1.691   4.336   1.202
 1403SOL    HW221352   1.784   4.308   1.318
 1404SOL     OW21353   2.337   6.128   7.256
 1404SOL    HW121354   2.398   6.060   7.228
 1404SOL    HW221355   2.343   6.127   7.352
 1405SOL     OW21356   2.700   4.200   0.017
 1405SOL    HW121357   2.658   4.168  -0.063
 1405SOL    HW221358   2.793   4.183   0.003
 1406SOL     OW21359   4.876   5.709   0.035
 1406SOL    HW121360   4.887   5.615   0.049
 1406SOL    HW221361   4.914   5.749   0.113
 1407SOL     OW21362   1.457   0.109   0.120
 1407SOL    HW121363   1.412   0.151   0.194
 1407SOL    HW221364   1.547   0.142   0.126
 1408SOL     OW21365   2.743   1.758   0.494
 1408SOL    HW121366   2.686   1.808   0.435
 1408SOL    HW221367   2.700   1.762   0.579
 1409SOL     OW21368   5.070   6.257   6.895
 1409SOL    HW121369   5.023   6.194   6.841
 1409SOL    HW221370   5.161   6.251   6.864
 1410SOL     OW21371   2.735   6.247   1.929
 1410SOL    HW121372   2.801   6.272   1.863
 1410SOL    HW221373   2.775   6.271   2.012
 1411SOL     OW21374   2.534   5.261   5.926
 1411SOL    HW121375   2.580   5.213   5.857
 1411SOL    HW221376   2.448   5.278   5.889
 1412SOL     OW21377   4.840   1.552   7.455
 1412SOL    HW121378   4.900   1.533   7.528
 1412SOL    HW221379   4.795   1.632   7.482
 1413SOL     OW21380   5.226   5.532   1.209
 1413SOL    HW121381   5.166   5.457   1.211
 1413SOL    HW221382   5.268   5.527   1.123
 1414SOL     OW21383   1.252   1.025   1.384
 1414SOL    HW121384   1.216   0.958   1.442
 1414SOL    HW221385   1.327   0.982   1.342
 1415SOL     OW21386   5.647   4.184   6.914
 1415SOL    HW121387   5.741   4.167   6.920
 1415SOL    HW221388   5.627   4.176   6.820
 1416SOL     OW21389   5.739   0.012   0.631
 1416SOL    HW121390   5.690   0.036   0.709
 1416SOL    HW221391   5.799   0.085   0.616
 1417SOL     OW21392   3.666   4.471   6.434
 1417SOL    HW121393   3.654   4.404   6.368
 1417SOL    HW221394   3.685   4.551   6.385
 1418SOL     OW21395   4.337   6.408   1.682
 1418SOL    HW121396   4.277   6.419   1.608
 1418SOL    HW221397   4.404   6.475   1.668
 1419SOL     OW21398   4.957   5.458   6.467
 1419SOL    HW121399   4.973   5.379   6.518
 1419SOL    HW221400   5.043   5.482   6.431
 1420SOL     OW21401   6.200   0.142   7.619
 1420SOL    HW121402   6.164   0.072   7.565
 1420SOL    HW221403   6.150   0.139   7.700
 1421SOL     OW21404   0.806   0.378   7.117
 1421SOL    HW121405   0.813   0.338   7.204
 1421SOL    HW221406   0.863   0.324   7.061
 1422SOL     OW21407   5.075   3.235   6.303
 1422SOL    HW121408   5.090   3.328   6.291
 1422SOL    HW221409   5.002   3.214   6.244
 1423SOL     OW21410   4.233   0.048   7.126
 1423SOL    HW121411   4.290   0.112   7.169
 1423SOL    HW221412   4.266  -0.037   7.156
 1424SOL     OW21413   2.049   2.368   6.522
 1424SOL    HW121414   2.100   2.324   6.590
 1424SOL    HW221415   1.975   2.407   6.569
 1425SOL     OW21416   0.625   4.000   1.873
 1425SOL    HW121417   0.628   4.090   1.907
 1425SOL    HW221418   0.536   3.971   1.893
 1426SOL     OW21419   4.228   5.993   0.501
 1426SOL    HW121420   4.291   5.976   0.571
 1426SOL    HW221421   4.211   5.906   0.463
 1427SOL     OW21422   3.699   1.978   1.053
 1427SOL    HW121423   3.755   2.055   1.067
 1427SOL    HW221424   3.659   1.962   1.138
 1428SOL     OW21425   2.587   3.942   6.637
 1428SOL    HW121426   2.590   4.031   6.672
 1428SOL    HW221427   2.588   3.952   6.542
 1429SOL     OW21428   0.623   4.240   6.749
 1429SOL    HW121429   0.708   4.254   6.790
 1429SOL    HW221430   0.594   4.328   6.725
 1430SOL     OW21431   5.797   1.475   5.982
 1430SOL    HW121432   5.888   1.453   5.962
 1430SOL    HW221433   5.795   1.571   5.980
 1431SOL     OW21434   5.541   5.246   0.425
 1431SOL    HW121435   5.506   5.334   0.412
 1431SOL    HW221436   5.517   5.223   0.515
 1432SOL     OW21437   5.230   0.992   6.715
 1432SOL    HW121438   5.157   0.972   6.656
 1432SOL    HW221439   5.249   1.084   6.698
 1433SOL     OW21440   3.684   4.904   0.218
 1433SOL    HW121441   3.651   4.853   0.143
 1433SOL    HW221442   3.692   4.839   0.288
 1434SOL     OW21443   1.946   5.530   0.456
 1434SOL    HW121444   1.965   5.443   0.423
 1434SOL    HW221445   2.029   5.561   0.492
 1435SOL     OW21446   4.928   0.714   6.898
 1435SOL    HW121447   4.999   0.693   6.836
 1435SOL    HW221448   4.948   0.802   6.928
 1436SOL     OW21449   6.371   6.388   1.237
 1436SOL    HW121450   6.319   6.446   1.293
 1436SOL    HW221451   6.450   6.438   1.217
 1437SOL     OW21452   0.723   4.784   7.678
 1437SOL    HW121453   0.658   4.838   7.634
 1437SOL    HW221454   0.674   4.707   7.708
 1438SOL     OW21455   0.799   6.121   1.883
 1438SOL    HW121456   0.875   6.166   1.921
 1438SOL    HW221457   0.743   6.101   1.958
 1439SOL     OW21458   3.289   3.823   6.060
 1439SOL    HW121459   3.256   3.909   6.037
 1439SOL    HW221460   3.310   3.829   6.153
 1440SOL     OW21461   1.126   1.085   0.022
 1440SOL    HW121462   1.066   1.157   0.044
 1440SOL    HW221463   1.073   1.006   0.032
 1441SOL     OW21464   3.450   3.900   7.417
 1441SOL    HW121465   3.432   3.903   7.323
 1441SOL    HW221466   3.412   3.981   7.451
 1442SOL     OW21467   1.270   1.397   6.463
 1442SOL    HW121468   1.332   1.361   6.400
 1442SOL    HW221469   1.191   1.344   6.451
 1443SOL     OW21470   1.587   4.048   1.795
 1443SOL    HW121471   1.588   4.015   1.705
 1443SOL    HW221472   1.620   4.137   1.788
 1444SOL     OW21473   3.025   6.235   6.168
 1444SOL    HW121474   2.960   6.292   6.124
 1444SOL    HW221475   3.029   6.269   6.257
 1445SOL     OW21476   6.267   2.600   0.792
 1445SOL    HW121477   6.311   2.677   0.829
 1445SOL    HW221478   6.236   2.629   0.706
 1446SOL     OW21479   5.440   6.147   5.415
 1446SOL    HW121480   5.511   6.155   5.351
 1446SOL    HW221481   5.480   6.102   5.489
 1447SOL     OW21482   5.274   0.400   6.720
 1447SOL    HW121483   5.216   0.394   6.644
 1447SOL    HW221484   5.282   0.310   6.752
 1448SOL     OW21485   4.031   3.694   1.841
 1448SOL    HW121486   3.944   3.678   1.876
 1448SOL    HW221487   4.054   3.613   1.796
 1449SOL     OW21488   5.252   4.125   0.004
 1449SOL    HW121489   5.251   4.174  -0.078
 1449SOL    HW221490   5.334   4.152   0.046
 1450SOL     OW21491   2.831   5.988   0.402
 1450SOL    HW121492   2.745   6.006   0.439
 1450SOL    HW221493   2.877   5.938   0.469
 1451SOL     OW21494   3.689   1.275   1.790
 1451SOL    HW121495   3.611   1.225   1.813
 1451SOL    HW221496   3.755   1.209   1.770
 1452SOL     OW21497   0.642   6.146   1.214
 1452SOL    HW121498   0.705   6.110   1.277
 1452SOL    HW221499   0.596   6.070   1.180
 1453SOL     OW21500   5.127   2.527   5.921
 1453SOL    HW121501   5.181   2.587   5.870
 1453SOL    HW221502   5.078   2.476   5.856
 1454SOL     OW21503   5.183   5.905   7.068
 1454SOL    HW121504   5.095   5.890   7.105
 1454SOL    HW221505   5.241   5.850   7.120
 1455SOL     OW21506   0.650   0.179   0.151
 1455SOL    HW121507   0.582   0.237   0.117
 1455SOL    HW221508   0.604   0.096   0.168
 1456SOL     OW21509   2.058   3.228   7.271
 1456SOL    HW121510   2.002   3.260   7.342
 1456SOL    HW221511   2.109   3.304   7.245
 1457SOL     OW21512   5.798   6.429   1.915
 1457SOL    HW121513   5.800   6.509   1.863
 1457SOL    HW221514   5.714   6.388   1.892
 1458SOL     OW21515   0.243   2.463   5.761
 1458SOL    HW121516   0.308   2.473   5.692
 1458SOL    HW221517   0.165   2.431   5.716
 1459SOL     OW21518   3.964   3.060   1.738
 1459SOL    HW121519   3.980   3.012   1.819
 1459SOL    HW221520   4.024   3.135   1.743
 1460SOL     OW21521   5.685   4.162   6.264
 1460SOL    HW121522   5.591   4.174   6.252
 1460SOL    HW221523   5.724   4.201   6.186
 1461SOL     OW21524   2.905   3.566   7.054
 1461SOL    HW121525   2.966   3.584   6.982
 1461SOL    HW221526   2.958   3.524   7.121
 1462SOL     OW21527   1.878   5.931   1.819
 1462SOL    HW121528   1.920   6.017   1.827
 1462SOL    HW221529   1.792   5.949   1.782
 1463SOL     OW21530   2.678   0.632   6.541
 1463SOL    HW121531   2.737   0.684   6.596
 1463SOL    HW221532   2.736   0.595   6.474
 1464SOL     OW21533   2.797   2.824   5.789
 1464SOL    HW121534   2.807   2.882   5.864
 1464SOL    HW221535   2.808   2.736   5.825
 1465SOL     OW21536   1.655   3.525   0.131
 1465SOL    HW121537   1.697   3.583   0.195
 1465SOL    HW221538   1.726   3.498   0.073
 1466SOL     OW21539   6.229   2.838   0.123
 1466SOL    HW121540   6.239   2.920   0.074
 1466SOL    HW221541   6.149   2.799   0.088
 1467SOL     OW21542   3.392   3.323   1.235
 1467SOL    HW121543   3.465   3.347   1.293
 1467SOL    HW221544   3.328   3.282   1.293
 1468SOL     OW21545   1.665   4.452   6.901
 1468SOL    HW121546   1.686   4.438   6.993
 1468SOL    HW221547   1.581   4.406   6.889
 1469SOL     OW21548   1.548   5.409   1.095
 1469SOL    HW121549   1.523   5.426   1.186
 1469SOL    HW221550   1.533   5.493   1.050
 1470SOL     OW21551   1.129   2.337   6.392
 1470SOL    HW121552   1.035   2.351   6.397
 1470SOL    HW221553   1.155   2.320   6.482
 1471SOL     OW21554   0.247   4.241   6.391
 1471SOL    HW121555   0.317   4.179   6.410
 1471SOL    HW221556   0.216   4.270   6.477
 1472SOL     OW21557   4.261   5.970   6.425
 1472SOL    HW121558   4.195   6.040   6.425
 1472SOL    HW221559   4.234   5.912   6.496
 1473SOL     OW21560   1.077   3.919   0.055
 1473SOL    HW121561   1.093   3.843   0.111
 1473SOL    HW221562   1.126   3.990   0.096
 1474SOL     OW21563   1.430   1.335   6.843
 1474SOL    HW121564   1.371   1.394   6.796
 1474SOL    HW221565   1.512   1.384   6.852
 1475SOL     OW21566   6.091   4.232   6.888
 1475SOL    HW121567   6.136   4.160   6.932
 1475SOL    HW221568   6.008   4.242   6.935
 1476SOL     OW21569   0.755   5.167   7.578
 1476SOL    HW121570   0.851   5.169   7.577
 1476SOL    HW221571   0.729   5.254   7.548
 1477SOL     OW21572   5.467   3.335   1.149
 1477SOL    HW121573   5.417   3.386   1.213
 1477SOL    HW221574   5.408   3.264   1.124
 1478SOL     OW21575   2.115   0.141   1.601
 1478SOL    HW121576   2.150   0.100   1.522
 1478SOL    HW221577   2.075   0.222   1.570
 1479SOL     OW21578   4.025   3.909   0.251
 1479SOL    HW121579   4.113   3.941   0.232
 1479SOL    HW221580   3.999   3.957   0.329
 1480SOL     OW21581   0.386   1.064   1.411
 1480SOL    HW121582   0.423   1.115   1.339
 1480SOL    HW221583   0.396   1.120   1.488
 1481SOL     OW21584   4.173   2.403   5.826
 1481SOL    HW121585   4.095   2.433   5.871
 1481SOL    HW221586   4.193   2.473   5.763
 1482SOL     OW21587   0.885   0.237   0.413
 1482SOL    HW121588   0.927   0.152   0.396
 1482SOL    HW221589   0.920   0.264   0.497
 1483SOL     OW21590   5.274   2.823   6.272
 1483SOL    HW121591   5.347   2.839   6.211
 1483SOL    HW221592   5.227   2.749   6.233
 1484SOL     OW21593   2.272   3.046   1.191
 1484SOL    HW121594   2.210   3.054   1.118
 1484SOL    HW221595   2.221   3.068   1.268
 1485SOL     OW21596   5.852   4.728   6.638
 1485SOL    HW121597   5.759   4.740   6.661
 1485SOL    HW221598   5.892   4.813   6.656
 1486SOL     OW21599   2.735   3.053   2.051
 1486SOL    HW121600   2.767   3.076   2.138
 1486SOL    HW221601   2.657   2.999   2.068
 1487SOL     OW21602   3.458   0.239   7.036
 1487SOL    HW121603   3.547   0.204   7.027
 1487SOL    HW221604   3.413   0.207   6.958
 1488SOL     OW21605   4.660   4.441   1.003
 1488SOL    HW121606   4.625   4.429   1.091
 1488SOL    HW221607   4.632   4.363   0.955
 1489SOL     OW21608   2.602   0.824   6.101
 1489SOL    HW121609   2.535   0.843   6.036
 1489SOL    HW221610   2.576   0.875   6.178
 1490SOL     OW21611   3.883   3.804   0.723
 1490SOL    HW121612   3.955   3.741   0.733
 1490SOL    HW221613   3.927   3.889   0.712
 1491SOL     OW21614   2.480   2.512   6.887
 1491SOL    HW121615   2.460   2.605   6.876
 1491SOL    HW221616   2.395   2.468   6.884
 1492SOL     OW21617   4.071   1.641   2.612
 1492SOL    HW121618   4.048   1.605   2.527
 1492SOL    HW221619   4.159   1.606   2.630
 1493SOL     OW21620   5.085   1.945   6.756
 1493SOL    HW121621   5.154   1.879   6.748
 1493SOL    HW221622   5.128   2.019   6.799
 1494SOL     OW21623   4.516   6.295   6.207
 1494SOL    HW121624   4.574   6.312   6.133
 1494SOL    HW221625   4.462   6.373   6.214
 1495SOL     OW21626   4.545   3.473   0.429
 1495SOL    HW121627   4.627   3.510   0.462
 1495SOL    HW221628   4.549   3.381   0.455
 1496SOL     OW21629   6.132   0.486   0.536
 1496SOL    HW121630   6.069   0.534   0.483
 1496SOL    HW221631   6.094   0.399   0.546
 1497SOL     OW21632   3.145   5.876   7.391
 1497SOL    HW121633   3.203   5.802   7.409
 1497SOL    HW221634   3.184   5.919   7.315
 1498SOL     OW21635   3.837   0.846   6.219
 1498SOL    HW121636   3.851   0.770   6.162
 1498SOL    HW221637   3.793   0.910   6.164
 1499SOL     OW21638   3.856   5.130   6.095
 1499SOL    HW121639   3.941   5.102   6.061
 1499SOL    HW221640   3.801   5.140   6.016
 1500SOL     OW21641   6.258   4.403   7.700
 1500SOL    HW121642   6.262   4.389   7.794
 1500SOL    HW221643   6.345   4.376   7.668
 1501SOL     OW21644   4.557   4.583   5.752
 1501SOL    HW121645   4.575   4.525   5.677
 1501SOL    HW221646   4.492   4.534   5.804
 1502SOL     OW21647   5.951   6.201   6.643
 1502SOL    HW121648   6.025   6.141   6.645
 1502SOL    HW221649   5.991   6.287   6.632
 1503SOL     OW21650   1.936   3.143   0.408
 1503SOL    HW121651   1.993   3.139   0.484
 1503SOL    HW221652   1.915   3.236   0.398
 1504SOL     OW21653   3.720   2.207   7.464
 1504SOL    HW121654   3.715   2.302   7.475
 1504SOL    HW221655   3.634   2.175   7.493
 1505SOL     OW21656   4.414   0.534   1.914
 1505SOL    HW121657   4.404   0.547   2.009
 1505SOL    HW221658   4.344   0.585   1.875
 1506SOL     OW21659   1.587   5.043   1.515
 1506SOL    HW121660   1.606   5.003   1.600
 1506SOL    HW221661   1.619   4.979   1.451
 1507SOL     OW21662   4.106   4.067   2.765
 1507SOL    HW121663   4.082   4.147   2.813
 1507SOL    HW221664   4.196   4.049   2.794
 1508SOL     OW21665   1.261   2.303   0.694
 1508SOL    HW121666   1.233   2.331   0.607
 1508SOL    HW221667   1.227   2.370   0.753
 1509SOL     OW21668   2.451   1.395   0.676
 1509SOL    HW121669   2.443   1.489   0.693
 1509SOL    HW221670   2.539   1.373   0.704
 1510SOL     OW21671   5.465   3.990   0.692
 1510SOL    HW121672   5.525   3.925   0.728
 1510SOL    HW221673   5.400   4.004   0.761
 1511SOL     OW21674   4.308   1.164   0.806
 1511SOL    HW121675   4.291   1.256   0.787
 1511SOL    HW221676   4.308   1.159   0.901
 1512SOL     OW21677   4.941   0.657   7.303
 1512SOL    HW121678   4.901   0.744   7.298
 1512SOL    HW221679   4.953   0.642   7.397
 1513SOL     OW21680   2.471   5.488   7.094
 1513SOL    HW121681   2.451   5.567   7.044
 1513SOL    HW221682   2.493   5.519   7.182
 1514SOL     OW21683   4.920   0.709   2.233
 1514SOL    HW121684   4.889   0.678   2.319
 1514SOL    HW221685   4.883   0.646   2.171
 1515SOL     OW21686   3.655   0.356   1.192
 1515SOL    HW121687   3.564   0.383   1.191
 1515SOL    HW221688   3.702   0.425   1.147
 1516SOL     OW21689   6.414   2.195   7.035
 1516SOL    HW121690   6.426   2.101   7.025
 1516SOL    HW221691   6.395   2.226   6.946
 1517SOL     OW21692   2.057   0.341   0.104
 1517SOL    HW121693   2.072   0.432   0.127
 1517SOL    HW221694   2.018   0.345   0.016
 1518SOL     OW21695   2.054   5.457   6.213
 1518SOL    HW121696   2.118   5.457   6.142
 1518SOL    HW221697   2.100   5.419   6.288
 1519SOL     OW21698   1.608   2.709   7.479
 1519SOL    HW121699   1.547   2.693   7.407
 1519SOL    HW221700   1.678   2.760   7.439
 1520SOL     OW21701   5.393   5.065   6.621
 1520SOL    HW121702   5.365   5.113   6.699
 1520SOL    HW221703   5.326   4.998   6.608
 1521SOL     OW21704   3.763   5.382   7.486
 1521SOL    HW121705   3.827   5.452   7.503
 1521SOL    HW221706   3.678   5.424   7.493
 1522SOL     OW21707   6.348   4.257   0.901
 1522SOL    HW121708   6.440   4.251   0.876
 1522SOL    HW221709   6.349   4.253   0.997
 1523SOL     OW21710   6.045   5.914   2.125
 1523SOL    HW121711   5.980   5.895   2.192
 1523SOL    HW221712   6.127   5.879   2.162
 1524SOL     OW21713   4.343   2.395   0.359
 1524SOL    HW121714   4.418   2.351   0.319
 1524SOL    HW221715   4.298   2.436   0.285
 1525SOL     OW21716   1.311   6.150   5.579
 1525SOL    HW121717   1.393   6.101   5.572
 1525SOL    HW221718   1.338   6.242   5.575
 1526SOL     OW21719   3.662   6.088   6.770
 1526SOL    HW121720   3.727   6.128   6.829
 1526SOL    HW221721   3.597   6.049   6.828
 1527SOL     OW21722   3.724   4.643   0.770
 1527SOL    HW121723   3.683   4.703   0.708
 1527SOL    HW221724   3.765   4.576   0.716
 1528SOL     OW21725   2.983   2.020   2.433
 1528SOL    HW121726   2.971   2.106   2.393
 1528SOL    HW221727   2.935   2.024   2.515
 1529SOL     OW21728   3.376   4.220   2.371
 1529SOL    HW121729   3.375   4.259   2.458
 1529SOL    HW221730   3.345   4.290   2.313
 1530SOL     OW21731   0.933   2.234   0.467
 1530SOL    HW121732   0.884   2.210   0.546
 1530SOL    HW221733   0.865   2.241   0.399
 1531SOL     OW21734   0.859   3.621   6.758
 1531SOL    HW121735   0.793   3.681   6.793
 1531SOL    HW221736   0.875   3.653   6.669
 1532SOL     OW21737   1.061   4.781   1.707
 1532SOL    HW121738   1.117   4.811   1.778
 1532SOL    HW221739   1.058   4.686   1.717
 1533SOL     OW21740   5.404   3.438   2.164
 1533SOL    HW121741   5.380   3.527   2.193
 1533SOL    HW221742   5.352   3.380   2.220
 1534SOL     OW21743   2.423   1.686   6.726
 1534SOL    HW121744   2.448   1.768   6.769
 1534SOL    HW221745   2.414   1.710   6.633
 1535SOL     OW21746   3.021   1.830   7.338
 1535SOL    HW121747   3.028   1.734   7.333
 1535SOL    HW221748   3.059   1.852   7.423
 1536SOL     OW21749   5.772   6.015   7.039
 1536SOL    HW121750   5.824   6.081   6.993
 1536SOL    HW221751   5.836   5.966   7.091
 1537SOL     OW21752   3.326   1.666   2.451
 1537SOL    HW121753   3.250   1.623   2.490
 1537SOL    HW221754   3.395   1.657   2.517
 1538SOL     OW21755   3.402   1.525   6.613
 1538SOL    HW121756   3.423   1.558   6.701
 1538SOL    HW221757   3.358   1.599   6.571
 1539SOL     OW21758   3.480   1.201   5.883
 1539SOL    HW121759   3.527   1.168   5.806
 1539SOL    HW221760   3.538   1.267   5.920
 1540SOL     OW21761   0.662   2.337   6.764
 1540SOL    HW121762   0.621   2.319   6.680
 1540SOL    HW221763   0.751   2.365   6.741
 1541SOL     OW21764   0.769   1.117   1.385
 1541SOL    HW121765   0.760   1.037   1.437
 1541SOL    HW221766   0.684   1.128   1.343
 1542SOL     OW21767   0.558   5.221   1.119
 1542SOL    HW121768   0.597   5.309   1.125
 1542SOL    HW221769   0.583   5.189   1.032
 1543SOL     OW21770   5.948   6.304   7.732
 1543SOL    HW121771   6.039   6.303   7.700
 1543SOL    HW221772   5.909   6.380   7.690
 1544SOL     OW21773   2.869   1.405   0.880
 1544SOL    HW121774   2.786   1.443   0.909
 1544SOL    HW221775   2.931   1.477   0.885
 1545SOL     OW21776   4.523   4.811   6.847
 1545SOL    HW121777   4.483   4.745   6.791
 1545SOL    HW221778   4.617   4.800   6.834
 1546SOL     OW21779   0.791   4.143   0.491
 1546SOL    HW121780   0.727   4.205   0.458
 1546SOL    HW221781   0.798   4.162   0.585
 1547SOL     OW21782   0.991   1.883   6.846
 1547SOL    HW121783   1.054   1.891   6.917
 1547SOL    HW221784   0.916   1.936   6.874
 1548SOL     OW21785   0.842   1.358   1.477
 1548SOL    HW121786   0.852   1.270   1.440
 1548SOL    HW221787   0.800   1.344   1.561
 1549SOL     OW21788   1.931   3.586   0.827
 1549SOL    HW121789   2.023   3.603   0.848
 1549SOL    HW221790   1.887   3.670   0.843
 1550SOL     OW21791   5.916   1.355   0.132
 1550SOL    HW121792   5.949   1.384   0.047
 1550SOL    HW221793   5.870   1.432   0.167
 1551SOL     OW21794   1.739   0.748   1.829
 1551SOL    HW121795   1.661   0.796   1.857
 1551SOL    HW221796   1.806   0.815   1.817
 1552SOL     OW21797   1.337   0.240   2.231
 1552SOL    HW121798   1.301   0.262   2.317
 1552SOL    HW221799   1.331   0.322   2.181
 1553SOL     OW21800   0.546   4.994   7.507
 1553SOL    HW121801   0.527   5.043   7.427
 1553SOL    HW221802   0.627   5.034   7.541
 1554SOL     OW21803   4.589   4.488   1.277
 1554SOL    HW121804   4.636   4.489   1.360
 1554SOL    HW221805   4.573   4.395   1.260
 1555SOL     OW21806   1.800   0.295   1.148
 1555SOL    HW121807   1.730   0.300   1.082
 1555SOL    HW221808   1.826   0.386   1.162
 1556SOL     OW21809   0.473   3.435   0.854
 1556SOL    HW121810   0.425   3.359   0.821
 1556SOL    HW221811   0.474   3.424   0.949
 1557SOL     OW21812   4.042   6.268   2.306
 1557SOL    HW121813   4.091   6.335   2.353
 1557SOL    HW221814   3.950   6.286   2.328
 1558SOL     OW21815   1.349   2.557   0.066
 1558SOL    HW121816   1.389   2.554  -0.021
 1558SOL    HW221817   1.333   2.465   0.087
 1559SOL     OW21818   5.422   2.297   0.352
 1559SOL    HW121819   5.505   2.311   0.398
 1559SOL    HW221820   5.428   2.208   0.318
 1560SOL     OW21821   5.578   3.393   1.704
 1560SOL    HW121822   5.567   3.485   1.681
 1560SOL    HW221823   5.592   3.394   1.799
 1561SOL     OW21824   6.199   3.554   5.625
 1561SOL    HW121825   6.139   3.629   5.625
 1561SOL    HW221826   6.266   3.577   5.689
 1562SOL     OW21827   1.953   2.816   6.077
 1562SOL    HW121828   1.865   2.854   6.084
 1562SOL    HW221829   2.012   2.890   6.093
 1563SOL     OW21830   0.367   1.014   7.336
 1563SOL    HW121831   0.390   0.976   7.420
 1563SOL    HW221832   0.273   0.999   7.327
 1564SOL     OW21833   6.420   2.423   0.292
 1564SOL    HW121834   6.354   2.474   0.338
 1564SOL    HW221835   6.470   2.380   0.361
 1565SOL     OW21836   3.834   4.242   7.567
 1565SOL    HW121837   3.854   4.173   7.504
 1565SOL    HW221838   3.845   4.201   7.652
 1566SOL     OW21839   2.396   3.496   6.307
 1566SOL    HW121840   2.389   3.488   6.211
 1566SOL    HW221841   2.410   3.406   6.337
 1567SOL     OW21842   6.240   0.815   1.280
 1567SOL    HW121843   6.156   0.771   1.288
 1567SOL    HW221844   6.228   0.898   1.326
 1568SOL     OW21845   2.081   5.884   0.103
 1568SOL    HW121846   2.046   5.954   0.158
 1568SOL    HW221847   2.042   5.900   0.017
 1569SOL     OW21848   2.585   2.320   7.285
 1569SOL    HW121849   2.519   2.280   7.229
 1569SOL    HW221850   2.550   2.405   7.308
 1570SOL     OW21851   0.172   4.689   0.380
 1570SOL    HW121852   0.250   4.744   0.376
 1570SOL    HW221853   0.206   4.599   0.379
 1571SOL     OW21854   2.675   1.932   1.877
 1571SOL    HW121855   2.644   2.019   1.854
 1571SOL    HW221856   2.766   1.945   1.903
 1572SOL     OW21857   4.135   0.968   1.810
 1572SOL    HW121858   4.150   1.060   1.831
 1572SOL    HW221859   4.079   0.936   1.881
 1573SOL     OW21860   4.486   0.696   5.672
 1573SOL    HW121861   4.536   0.622   5.707
 1573SOL    HW221862   4.398   0.661   5.658
 1574SOL     OW21863   6.349   0.012   5.986
 1574SOL    HW121864   6.347   0.098   5.944
 1574SOL    HW221865   6.285   0.017   6.057
 1575SOL     OW21866   6.335   1.427   7.707
 1575SOL    HW121867   6.250   1.385   7.700
 1575SOL    HW221868   6.315   1.520   7.716
 1576SOL     OW21869   1.860   0.763   6.276
 1576SOL    HW121870   1.778   0.715   6.270
 1576SOL    HW221871   1.919   0.717   6.216
 1577SOL     OW21872   0.901   0.463   6.823
 1577SOL    HW121873   0.893   0.558   6.811
 1577SOL    HW221874   0.909   0.451   6.917
 1578SOL     OW21875   6.069   0.422   7.550
 1578SOL    HW121876   6.021   0.500   7.521
 1578SOL    HW221877   6.055   0.358   7.479
 1579SOL     OW21878   0.342   5.228   5.924
 1579SOL    HW121879   0.399   5.154   5.904
 1579SOL    HW221880   0.257   5.204   5.887
 1580SOL     OW21881   5.681   5.252   7.147
 1580SOL    HW121882   5.680   5.283   7.056
 1580SOL    HW221883   5.666   5.332   7.198
 1581SOL     OW21884   4.002   1.996   6.926
 1581SOL    HW121885   4.049   2.019   7.006
 1581SOL    HW221886   4.031   2.060   6.861
 1582SOL     OW21887   2.754   5.579   0.151
 1582SOL    HW121888   2.754   5.662   0.103
 1582SOL    HW221889   2.663   5.566   0.175
 1583SOL     OW21890   3.691   2.868   1.976
 1583SOL    HW121891   3.690   2.785   1.929
 1583SOL    HW221892   3.692   2.935   1.907
 1584SOL     OW21893   0.353   4.143   2.814
 1584SOL    HW121894   0.361   4.089   2.892
 1584SOL    HW221895   0.416   4.214   2.827
 1585SOL     OW21896   0.213   4.481   2.582
 1585SOL    HW121897   0.274   4.532   2.529
 1585SOL    HW221898   0.227   4.513   2.672
 1586SOL     OW21899   1.550   5.147   7.513
 1586SOL    HW121900   1.556   5.140   7.417
 1586SOL    HW221901   1.639   5.164   7.542
 1587SOL     OW21902   3.462   4.098   7.710
 1587SOL    HW121903   3.524   4.026   7.723
 1587SOL    HW221904   3.401   4.090   7.784
 1588SOL     OW21905   5.212   3.643   1.223
 1588SOL    HW121906   5.150   3.583   1.265
 1588SOL    HW221907   5.286   3.646   1.283
 1589SOL     OW21908   2.562   0.756   7.200
 1589SOL    HW121909   2.504   0.755   7.124
 1589SOL    HW221910   2.572   0.663   7.223
 1590SOL     OW21911   0.290   1.658   0.689
 1590SOL    HW121912   0.379   1.622   0.695
 1590SOL    HW221913   0.269   1.654   0.596
 1591SOL     OW21914   2.251   0.137   1.176
 1591SOL    HW121915   2.208   0.210   1.132
 1591SOL    HW221916   2.203   0.059   1.147
 1592SOL     OW21917   3.325   5.544   0.193
 1592SOL    HW121918   3.276   5.480   0.245
 1592SOL    HW221919   3.416   5.530   0.218
 1593SOL     OW21920   3.962   3.313   7.319
 1593SOL    HW121921   4.039   3.315   7.262
 1593SOL    HW221922   3.888   3.311   7.258
 1594SOL     OW21923   2.236   2.976   2.304
 1594SOL    HW121924   2.213   3.061   2.267
 1594SOL    HW221925   2.226   2.986   2.398
 1595SOL     OW21926   2.320   0.569   0.839
 1595SOL    HW121927   2.324   0.494   0.781
 1595SOL    HW221928   2.408   0.575   0.878
 1596SOL     OW21929   1.636   0.026   6.794
 1596SOL    HW121930   1.573  -0.042   6.819
 1596SOL    HW221931   1.582   0.100   6.768
 1597SOL     OW21932   4.905   2.759   5.701
 1597SOL    HW121933   4.858   2.826   5.651
 1597SOL    HW221934   4.997   2.779   5.688
 1598SOL     OW21935   2.139   5.157   1.312
 1598SOL    HW121936   2.181   5.091   1.366
 1598SOL    HW221937   2.052   5.122   1.294
 1599SOL     OW21938   2.523   0.186   0.365
 1599SOL    HW121939   2.484   0.272   0.379
 1599SOL    HW221940   2.479   0.153   0.286
 1600SOL     OW21941   0.549   6.318   0.977
 1600SOL    HW121942   0.578   6.256   1.044
 1600SOL    HW221943   0.593   6.400   0.999
 1601SOL     OW21944   1.762   2.840   0.686
 1601SOL    HW121945   1.771   2.760   0.739
 1601SOL    HW221946   1.750   2.809   0.597
 1602SOL     OW21947   3.019   2.981   0.074
 1602SOL    HW121948   3.041   3.073   0.081
 1602SOL    HW221949   2.937   2.972   0.124
 1603SOL     OW21950   6.154   6.197   6.270
 1603SOL    HW121951   6.174   6.115   6.315
 1603SOL    HW221952   6.219   6.259   6.303
 1604SOL     OW21953   3.408   4.335   2.631
 1604SOL    HW121954   3.483   4.276   2.638
 1604SOL    HW221955   3.392   4.363   2.721
 1605SOL     OW21956   1.034   3.936   0.808
 1605SOL    HW121957   1.052   4.017   0.761
 1605SOL    HW221958   1.000   3.964   0.893
 1606SOL     OW21959   4.888   5.634   1.055
 1606SOL    HW121960   4.827   5.618   0.983
 1606SOL    HW221961   4.831   5.644   1.132
 1607SOL     OW21962   0.626   5.473   1.170
 1607SOL    HW121963   0.694   5.433   1.224
 1607SOL    HW221964   0.671   5.541   1.120
 1608SOL     OW21965   3.045   6.294   6.684
 1608SOL    HW121966   3.063   6.370   6.739
 1608SOL    HW221967   2.976   6.323   6.625
 1609SOL     OW21968   2.167   0.822   6.077
 1609SOL    HW121969   2.087   0.774   6.055
 1609SOL    HW221970   2.213   0.765   6.138
 1610SOL     OW21971   5.984   4.956   6.707
 1610SOL    HW121972   6.056   4.903   6.741
 1610SOL    HW221973   5.981   5.033   6.764
 1611SOL     OW21974   0.731   3.429   0.775
 1611SOL    HW121975   0.735   3.486   0.699
 1611SOL    HW221976   0.639   3.431   0.802
 1612SOL     OW21977   0.572   4.596   0.819
 1612SOL    HW121978   0.510   4.524   0.835
 1612SOL    HW221979   0.645   4.555   0.773
 1613SOL     OW21980   1.301   4.480   7.294
 1613SOL    HW121981   1.264   4.466   7.381
 1613SOL    HW221982   1.276   4.570   7.271
 1614SOL     OW21983   6.057   3.143   7.241
 1614SOL    HW121984   6.129   3.125   7.301
 1614SOL    HW221985   6.087   3.109   7.157
 1615SOL     OW21986   2.022   3.492   2.590
 1615SOL    HW121987   2.057   3.405   2.572
 1615SOL    HW221988   2.093   3.552   2.564
 1616SOL     OW21989   0.808   6.201   7.199
 1616SOL    HW121990   0.783   6.142   7.270
 1616SOL    HW221991   0.847   6.276   7.243
 1617SOL     OW21992   5.929   4.323   7.326
 1617SOL    HW121993   5.976   4.242   7.308
 1617SOL    HW221994   5.994   4.379   7.370
 1618SOL     OW21995   4.743   1.034   2.664
 1618SOL    HW121996   4.798   1.096   2.616
 1618SOL    HW221997   4.804   0.991   2.725
 1619SOL     OW21998   3.018   5.078   6.626
 1619SOL    HW121999   2.999   5.035   6.709
 1619SOL    HW222000   3.073   5.015   6.579
 1620SOL     OW22001   6.251   0.814   1.957
 1620SOL    HW122002   6.262   0.822   1.863
 1620SOL    HW222003   6.188   0.743   1.968
 1621SOL     OW22004   1.701   3.384   6.678
 1621SOL    HW122005   1.751   3.447   6.625
 1621SOL    HW222006   1.744   3.385   6.763
 1622SOL     OW22007   2.389   1.983   1.457
 1622SOL    HW122008   2.434   2.063   1.484
 1622SOL    HW222009   2.343   2.007   1.377
 1623SOL     OW22010   1.086   0.670   6.729
 1623SOL    HW122011   1.060   0.758   6.702
 1623SOL    HW222012   1.063   0.614   6.656
 1624SOL     OW22013   6.116   0.488   5.749
 1624SOL    HW122014   6.162   0.408   5.726
 1624SOL    HW222015   6.122   0.492   5.845
 1625SOL     OW22016   5.343   0.188   0.137
 1625SOL    HW122017   5.427   0.179   0.091
 1625SOL    HW222018   5.366   0.187   0.229
 1626SOL     OW22019   3.570   5.004   7.564
 1626SOL    HW122020   3.522   4.944   7.507
 1626SOL    HW222021   3.520   5.003   7.646
 1627SOL     OW22022   3.932   2.539   0.274
 1627SOL    HW122023   3.895   2.481   0.340
 1627SOL    HW222024   3.959   2.617   0.323
 1628SOL     OW22025   4.977   3.454   1.551
 1628SOL    HW122026   4.931   3.473   1.633
 1628SOL    HW222027   4.914   3.401   1.501
 1629SOL     OW22028   3.428   0.202   2.091
 1629SOL    HW122029   3.404   0.111   2.074
 1629SOL    HW222030   3.524   0.201   2.096
 1630SOL     OW22031   1.597   5.976   1.773
 1630SOL    HW122032   1.629   6.019   1.853
 1630SOL    HW222033   1.573   5.888   1.801
 1631SOL     OW22034   3.260   2.790   1.918
 1631SOL    HW122035   3.307   2.811   1.998
 1631SOL    HW222036   3.184   2.847   1.918
 1632SOL     OW22037   0.591   4.275   1.166
 1632SOL    HW122038   0.519   4.320   1.210
 1632SOL    HW222039   0.651   4.345   1.140
 1633SOL     OW22040   5.430   1.519   6.663
 1633SOL    HW122041   5.487   1.475   6.599
 1633SOL    HW222042   5.480   1.518   6.744
 1634SOL     OW22043   5.282   5.826   5.893
 1634SOL    HW122044   5.329   5.868   5.821
 1634SOL    HW222045   5.330   5.745   5.910
 1635SOL     OW22046   2.870   5.329   0.867
 1635SOL    HW122047   2.834   5.242   0.884
 1635SOL    HW222048   2.960   5.313   0.840
 1636SOL     OW22049   1.941   2.329   2.865
 1636SOL    HW122050   2.030   2.301   2.848
 1636SOL    HW222051   1.949   2.394   2.935
 1637SOL     OW22052   3.555   1.281   0.559
 1637SOL    HW122053   3.482   1.238   0.602
 1637SOL    HW222054   3.549   1.373   0.586
 1638SOL     OW22055   6.201   0.522   1.259
 1638SOL    HW122056   6.202   0.542   1.353
 1638SOL    HW222057   6.292   0.504   1.237
 1639SOL     OW22058   1.196   6.302   1.735
 1639SOL    HW122059   1.273   6.248   1.755
 1639SOL    HW222060   1.232   6.376   1.685
 1640SOL     OW22061   5.816   5.152   1.531
 1640SOL    HW122062   5.777   5.239   1.523
 1640SOL    HW222063   5.772   5.100   1.464
 1641SOL     OW22064   2.831   4.871   0.058
 1641SOL    HW122065   2.814   4.786   0.016
 1641SOL    HW222066   2.775   4.932   0.011
 1642SOL     OW22067   3.855   5.672   2.212
 1642SOL    HW122068   3.907   5.752   2.223
 1642SOL    HW222069   3.918   5.601   2.226
 1643SOL     OW22070   3.592   4.549   5.724
 1643SOL    HW122071   3.498   4.534   5.729
 1643SOL    HW222072   3.627   4.469   5.684
 1644SOL     OW22073   2.518   3.725   7.260
 1644SOL    HW122074   2.486   3.685   7.179
 1644SOL    HW222075   2.588   3.667   7.289
 1645SOL     OW22076   2.781   0.113   2.462
 1645SOL    HW122077   2.748   0.156   2.383
 1645SOL    HW222078   2.871   0.143   2.470
 1646SOL     OW22079   2.700   2.135   6.543
 1646SOL    HW122080   2.738   2.104   6.460
 1646SOL    HW222081   2.739   2.221   6.556
 1647SOL     OW22082   2.599   2.762   0.438
 1647SOL    HW122083   2.521   2.816   0.425
 1647SOL    HW222084   2.567   2.672   0.434
 1648SOL     OW22085   4.140   1.809   6.768
 1648SOL    HW122086   4.065   1.832   6.823
 1648SOL    HW222087   4.115   1.839   6.681
 1649SOL     OW22088   4.262   5.921   6.102
 1649SOL    HW122089   4.271   5.909   6.196
 1649SOL    HW222090   4.216   5.843   6.072
 1650SOL     OW22091   1.077   5.578   6.170
 1650SOL    HW122092   1.026   5.626   6.235
 1650SOL    HW222093   1.079   5.635   6.093
 1651SOL     OW22094   2.887   1.276   7.691
 1651SOL    HW122095   2.915   1.302   7.779
 1651SOL    HW222096   2.922   1.188   7.680
 1652SOL     OW22097   2.096   2.680   6.893
 1652SOL    HW122098   2.109   2.592   6.928
 1652SOL    HW222099   2.014   2.709   6.933
 1653SOL     OW22100   2.508   1.649   5.583
 1653SOL    HW122101   2.530   1.742   5.579
 1653SOL    HW222102   2.578   1.610   5.636
 1654SOL     OW22103   1.078   0.056   6.105
 1654SOL    HW122104   1.008   0.058   6.170
 1654SOL    HW222105   1.067  -0.028   6.061
 1655SOL     OW22106   2.597   0.004   2.150
 1655SOL    HW122107   2.573   0.084   2.196
 1655SOL    HW222108   2.693   0.005   2.148
 1656SOL     OW22109   6.100   2.121   1.998
 1656SOL    HW122110   6.055   2.068   2.064
 1656SOL    HW222111   6.073   2.211   2.017
 1657SOL     OW22112   6.278   0.461   7.222
 1657SOL    HW122113   6.278   0.492   7.132
 1657SOL    HW222114   6.340   0.388   7.223
 1658SOL     OW22115   4.676   4.987   0.983
 1658SOL    HW122116   4.605   4.976   0.920
 1658SOL    HW222117   4.687   5.082   0.991
 1659SOL     OW22118   5.600   3.581   2.747
 1659SOL    HW122119   5.602   3.620   2.834
 1659SOL    HW222120   5.555   3.646   2.692
 1660SOL     OW22121   4.457   5.313   0.185
 1660SOL    HW122122   4.511   5.382   0.225
 1660SOL    HW222123   4.393   5.361   0.132
 1661SOL     OW22124   3.493   3.390   1.517
 1661SOL    HW122125   3.581   3.362   1.489
 1661SOL    HW222126   3.468   3.326   1.583
 1662SOL     OW22127   4.921   5.155   6.815
 1662SOL    HW122128   4.871   5.129   6.893
 1662SOL    HW222129   4.870   5.228   6.778
 1663SOL     OW22130   1.425   1.079   0.436
 1663SOL    HW122131   1.366   1.091   0.361
 1663SOL    HW222132   1.385   1.008   0.486
 1664SOL     OW22133   2.566   4.422   1.680
 1664SOL    HW122134   2.625   4.497   1.671
 1664SOL    HW222135   2.479   4.460   1.692
 1665SOL     OW22136   2.713   1.657   6.560
 1665SOL    HW122137   2.690   1.658   6.653
 1665SOL    HW222138   2.758   1.740   6.545
 1666SOL     OW22139   2.458   1.095   1.767
 1666SOL    HW122140   2.397   1.152   1.720
 1666SOL    HW222141   2.448   1.010   1.725
 1667SOL     OW22142   0.441   5.857   0.756
 1667SOL    HW122143   0.373   5.832   0.694
 1667SOL    HW222144   0.400   5.849   0.842
 1668SOL     OW22145   2.728   4.969   0.311
 1668SOL    HW122146   2.783   4.956   0.233
 1668SOL    HW222147   2.727   4.884   0.354
 1669SOL     OW22148   5.818   6.167   1.063
 1669SOL    HW122149   5.767   6.110   1.121
 1669SOL    HW222150   5.879   6.213   1.121
 1670SOL     OW22151   1.009   5.803   6.069
 1670SOL    HW122152   0.922   5.816   6.033
 1670SOL    HW222153   1.000   5.825   6.162
 1671SOL     OW22154   6.363   4.932   7.530
 1671SOL    HW122155   6.329   4.847   7.559
 1671SOL    HW222156   6.285   4.983   7.509
 1672SOL     OW22157   3.039   1.733   2.396
 1672SOL    HW122158   3.002   1.710   2.311
 1672SOL    HW222159   3.045   1.829   2.394
 1673SOL     OW22160   1.971   0.668   6.853
 1673SOL    HW122161   2.063   0.655   6.829
 1673SOL    HW222162   1.935   0.721   6.782
 1674SOL     OW22163   5.252   5.885   1.351
 1674SOL    HW122164   5.229   5.822   1.419
 1674SOL    HW222165   5.217   5.847   1.271
 1675SOL     OW22166   6.073   0.969   2.119
 1675SOL    HW122167   6.123   0.904   2.069
 1675SOL    HW222168   6.040   0.921   2.195
 1676SOL     OW22169   3.517   3.720   6.766
 1676SOL    HW122170   3.497   3.784   6.698
 1676SOL    HW222171   3.438   3.716   6.820
 1677SOL     OW22172   5.436   0.647   1.631
 1677SOL    HW122173   5.506   0.584   1.618
 1677SOL    HW222174   5.421   0.648   1.725
 1678SOL     OW22175   1.081   1.251   0.709
 1678SOL    HW122176   1.080   1.325   0.649
 1678SOL    HW222177   1.011   1.269   0.771
 1679SOL     OW22178   4.916   3.693   5.247
 1679SOL    HW122179   4.995   3.640   5.259
 1679SOL    HW222180   4.850   3.630   5.217
 1680SOL     OW22181   3.868   1.857   1.683
 1680SOL    HW122182   3.920   1.836   1.760
 1680SOL    HW222183   3.868   1.776   1.631
 1681SOL     OW22184   0.492   2.508   0.216
 1681SOL    HW122185   0.423   2.443   0.230
 1681SOL    HW222186   0.489   2.526   0.122
 1682SOL     OW22187   4.817   4.981   0.364
 1682SOL    HW122188   4.791   5.071   0.383
 1682SOL    HW222189   4.768   4.959   0.285
 1683SOL     OW22190   3.337   2.737   2.341
 1683SOL    HW122191   3.351   2.783   2.258
 1683SOL    HW222192   3.313   2.806   2.403
 1684SOL     OW22193   4.484   0.441   1.285
 1684SOL    HW122194   4.396   0.444   1.248
 1684SOL    HW222195   4.504   0.347   1.293
 1685SOL     OW22196   0.544   4.768   1.008
 1685SOL    HW122197   0.541   4.714   1.087
 1685SOL    HW222198   0.526   4.707   0.937
 1686SOL     OW22199   4.468   2.008   0.091
 1686SOL    HW122200   4.559   2.031   0.071
 1686SOL    HW222201   4.462   1.914   0.075
 1687SOL     OW22202   5.805   0.322   0.628
 1687SOL    HW122203   5.876   0.326   0.692
 1687SOL    HW222204   5.770   0.411   0.625
 1688SOL     OW22205   2.338   3.280   0.761
 1688SOL    HW122206   2.345   3.375   0.757
 1688SOL    HW222207   2.422   3.248   0.729
 1689SOL     OW22208   5.800   4.753   1.029
 1689SOL    HW122209   5.724   4.720   1.077
 1689SOL    HW222210   5.842   4.674   0.995
 1690SOL     OW22211   2.241   1.418   5.459
 1690SOL    HW122212   2.154   1.454   5.443
 1690SOL    HW222213   2.244   1.339   5.405
 1691SOL     OW22214   5.173   3.842   6.206
 1691SOL    HW122215   5.260   3.853   6.243
 1691SOL    HW222216   5.144   3.931   6.184
 1692SOL     OW22217   2.232   0.521   6.826
 1692SOL    HW122218   2.181   0.440   6.825
 1692SOL    HW222219   2.296   0.510   6.756
 1693SOL     OW22220   1.447   3.850   7.646
 1693SOL    HW122221   1.482   3.939   7.638
 1693SOL    HW222222   1.398   3.836   7.565
 1694SOL     OW22223   0.092   4.933   0.615
 1694SOL    HW122224   0.102   4.945   0.521
 1694SOL    HW222225   0.064   5.019   0.647
 1695SOL     OW22226   0.022   0.302   0.954
 1695SOL    HW122227  -0.019   0.345   0.880
 1695SOL    HW222228   0.069   0.228   0.916
 1696SOL     OW22229   1.322   5.478   0.629
 1696SOL    HW122230   1.339   5.385   0.645
 1696SOL    HW222231   1.406   5.512   0.598
 1697SOL     OW22232   4.059   1.456   1.664
 1697SOL    HW122233   4.081   1.384   1.723
 1697SOL    HW222234   3.985   1.422   1.612
 1698SOL     OW22235   5.410   3.918   6.320
 1698SOL    HW122236   5.468   3.915   6.396
 1698SOL    HW222237   5.393   4.011   6.305
 1699SOL     OW22238   5.496   1.942   1.604
 1699SOL    HW122239   5.514   2.028   1.565
 1699SOL    HW222240   5.402   1.944   1.624
 1700SOL     OW22241   5.125   4.450   6.041
 1700SOL    HW122242   5.094   4.524   5.989
 1700SOL    HW222243   5.051   4.389   6.044
 1701SOL     OW22244   0.351   5.166   2.338
 1701SOL    HW122245   0.374   5.097   2.275
 1701SOL    HW222246   0.267   5.139   2.374
 1702SOL     OW22247   1.247   0.143   1.654
 1702SOL    HW122248   1.279   0.191   1.731
 1702SOL    HW222249   1.155   0.168   1.647
 1703SOL     OW22250   4.544   1.233   6.602
 1703SOL    HW122251   4.480   1.293   6.642
 1703SOL    HW222252   4.497   1.194   6.528
 1704SOL     OW22253   4.357   0.031   6.818
 1704SOL    HW122254   4.362   0.127   6.820
 1704SOL    HW222255   4.340   0.007   6.909
 1705SOL     OW22256   5.331   6.238   6.808
 1705SOL    HW122257   5.388   6.173   6.850
 1705SOL    HW222258   5.344   6.223   6.714
 1706SOL     OW22259   1.959   4.510   6.269
 1706SOL    HW122260   1.945   4.586   6.325
 1706SOL    HW222261   1.997   4.546   6.188
 1707SOL     OW22262   0.086   3.059   2.920
 1707SOL    HW122263   0.057   3.145   2.950
 1707SOL    HW222264   0.143   3.077   2.846
 1708SOL     OW22265   3.477   4.903   0.930
 1708SOL    HW122266   3.530   4.834   0.971
 1708SOL    HW222267   3.390   4.865   0.923
 1709SOL     OW22268   5.259   3.694   0.208
 1709SOL    HW122269   5.345   3.667   0.177
 1709SOL    HW222270   5.276   3.739   0.291
 1710SOL     OW22271   1.448   3.691   2.542
 1710SOL    HW122272   1.504   3.768   2.536
 1710SOL    HW222273   1.414   3.679   2.453
 1711SOL     OW22274   4.705   2.042   7.427
 1711SOL    HW122275   4.692   1.956   7.467
 1711SOL    HW222276   4.659   2.037   7.343
 1712SOL     OW22277   0.904   3.056   0.126
 1712SOL    HW122278   0.960   2.982   0.152
 1712SOL    HW222279   0.842   3.064   0.198
 1713SOL     OW22280   3.906   5.049   5.740
 1713SOL    HW122281   3.918   5.100   5.661
 1713SOL    HW222282   3.985   5.066   5.792
 1714SOL     OW22283   1.414   5.409   6.000
 1714SOL    HW122284   1.380   5.341   6.058
 1714SOL    HW222285   1.470   5.363   5.938
 1715SOL     OW22286   5.531   6.107   6.920
 1715SOL    HW122287   5.575   6.136   6.999
 1715SOL    HW222288   5.569   6.021   6.902
 1716SOL     OW22289   3.046   2.729   1.194
 1716SOL    HW122290   3.044   2.706   1.287
 1716SOL    HW222291   3.133   2.703   1.164
 1717SOL     OW22292   5.788   5.111   0.460
 1717SOL    HW122293   5.702   5.145   0.438
 1717SOL    HW222294   5.846   5.187   0.458
 1718SOL     OW22295   2.317   4.533   0.908
 1718SOL    HW122296   2.243   4.525   0.847
 1718SOL    HW222297   2.376   4.595   0.866
 1719SOL     OW22298   5.720   5.713   6.612
 1719SOL    HW122299   5.637   5.700   6.567
 1719SOL    HW222300   5.786   5.709   6.542
 1720SOL     OW22301   0.584   1.030   6.858
 1720SOL    HW122302   0.678   1.047   6.855
 1720SOL    HW222303   0.553   1.048   6.769
 1721SOL     OW22304   0.114   3.866   0.201
 1721SOL    HW122305   0.072   3.947   0.228
 1721SOL    HW222306   0.101   3.806   0.275
 1722SOL     OW22307   1.314   5.084   1.799
 1722SOL    HW122308   1.291   5.049   1.713
 1722SOL    HW222309   1.266   5.167   1.805
 1723SOL     OW22310   2.803   2.102   1.073
 1723SOL    HW122311   2.784   2.189   1.108
 1723SOL    HW222312   2.854   2.059   1.141
 1724SOL     OW22313   5.273   6.331   0.067
 1724SOL    HW122314   5.229   6.356   0.148
 1724SOL    HW222315   5.294   6.414   0.024
 1725SOL     OW22316   3.498   1.170   0.267
 1725SOL    HW122317   3.520   1.205   0.354
 1725SOL    HW222318   3.583   1.150   0.228
 1726SOL     OW22319   0.387   0.708   1.591
 1726SOL    HW122320   0.442   0.785   1.577
 1726SOL    HW222321   0.326   0.709   1.518
 1727SOL     OW22322   3.572   4.252   6.789
 1727SOL    HW122323   3.519   4.180   6.754
 1727SOL    HW222324   3.662   4.222   6.778
 1728SOL     OW22325   0.658   3.668   1.530
 1728SOL    HW122326   0.711   3.618   1.592
 1728SOL    HW222327   0.707   3.750   1.519
 1729SOL     OW22328   4.781   1.399   1.572
 1729SOL    HW122329   4.863   1.399   1.621
 1729SOL    HW222330   4.807   1.387   1.481
 1730SOL     OW22331   5.740   1.947   2.951
 1730SOL    HW122332   5.832   1.974   2.961
 1730SOL    HW222333   5.741   1.885   2.878
 1731SOL     OW22334   6.324   3.767   1.886
 1731SOL    HW122335   6.336   3.816   1.804
 1731SOL    HW222336   6.412   3.763   1.924
 1732SOL     OW22337   2.098   5.154   7.701
 1732SOL    HW122338   2.041   5.231   7.698
 1732SOL    HW222339   2.100   5.123   7.610
 1733SOL     OW22340   6.447   1.734   7.203
 1733SOL    HW122341   6.416   1.806   7.258
 1733SOL    HW222342   6.478   1.777   7.123
 1734SOL     OW22343   2.894   3.851   6.106
 1734SOL    HW122344   2.947   3.796   6.048
 1734SOL    HW222345   2.902   3.939   6.070
 1735SOL     OW22346   4.526   5.285   1.200
 1735SOL    HW122347   4.523   5.380   1.214
 1735SOL    HW222348   4.447   5.252   1.242
 1736SOL     OW22349   4.007   4.005   1.933
 1736SOL    HW122350   3.932   3.951   1.910
 1736SOL    HW222351   4.039   3.968   2.015
 1737SOL     OW22352   0.894   5.424   6.489
 1737SOL    HW122353   0.864   5.385   6.407
 1737SOL    HW222354   0.921   5.513   6.465
 1738SOL     OW22355   2.129   5.915   6.838
 1738SOL    HW122356   2.113   6.009   6.830
 1738SOL    HW222357   2.224   5.907   6.835
 1739SOL     OW22358   2.305   2.160   2.175
 1739SOL    HW122359   2.313   2.103   2.252
 1739SOL    HW222360   2.299   2.100   2.101
 1740SOL     OW22361   0.755   5.917   7.370
 1740SOL    HW122362   0.847   5.941   7.375
 1740SOL    HW222363   0.725   5.918   7.460
 1741SOL     OW22364   2.314   2.702   0.776
 1741SOL    HW122365   2.360   2.643   0.836
 1741SOL    HW222366   2.229   2.716   0.817
 1742SOL     OW22367   0.527   0.737   2.226
 1742SOL    HW122368   0.547   0.653   2.185
 1742SOL    HW222369   0.456   0.717   2.287
 1743SOL     OW22370   1.004   4.203   7.637
 1743SOL    HW122371   1.051   4.171   7.714
 1743SOL    HW222372   0.972   4.124   7.594
 1744SOL     OW22373   2.157   3.526   1.683
 1744SOL    HW122374   2.148   3.455   1.747
 1744SOL    HW222375   2.246   3.558   1.695
 1745SOL     OW22376   3.447   3.457   0.333
 1745SOL    HW122377   3.526   3.426   0.377
 1745SOL    HW222378   3.478   3.489   0.248
 1746SOL     OW22379   4.266   5.518   6.064
 1746SOL    HW122380   4.316   5.545   6.142
 1746SOL    HW222381   4.196   5.582   6.057
 1747SOL     OW22382   3.376   0.886   1.557
 1747SOL    HW122383   3.353   0.885   1.650
 1747SOL    HW222384   3.458   0.935   1.553
 1748SOL     OW22385   2.572   3.240   1.631
 1748SOL    HW122386   2.592   3.333   1.624
 1748SOL    HW222387   2.494   3.227   1.578
 1749SOL     OW22388   2.940   0.407   6.471
 1749SOL    HW122389   2.888   0.339   6.428
 1749SOL    HW222390   2.991   0.447   6.400
 1750SOL     OW22391   4.808   1.819   6.407
 1750SOL    HW122392   4.859   1.775   6.339
 1750SOL    HW222393   4.872   1.872   6.454
 1751SOL     OW22394   2.149   3.149   0.594
 1751SOL    HW122395   2.214   3.203   0.640
 1751SOL    HW222396   2.072   3.150   0.652
 1752SOL     OW22397   0.197   6.434   0.092
 1752SOL    HW122398   0.141   6.472   0.025
 1752SOL    HW222399   0.233   6.509   0.139
 1753SOL     OW22400   6.021   1.757   0.462
 1753SOL    HW122401   5.952   1.734   0.524
 1753SOL    HW222402   5.998   1.844   0.431
 1754SOL     OW22403   6.058   4.041   2.621
 1754SOL    HW122404   6.054   3.946   2.617
 1754SOL    HW222405   6.148   4.063   2.598
 1755SOL     OW22406   4.086   1.712   0.033
 1755SOL    HW122407   4.012   1.708   0.094
 1755SOL    HW222408   4.163   1.707   0.089
 1756SOL     OW22409   2.392   1.023   7.523
 1756SOL    HW122410   2.326   1.073   7.571
 1756SOL    HW222411   2.368   1.034   7.431
 1757SOL     OW22412   5.888   2.010   7.466
 1757SOL    HW122413   5.809   2.063   7.469
 1757SOL    HW222414   5.866   1.931   7.517
 1758SOL     OW22415   5.168   5.144   0.143
 1758SOL    HW122416   5.199   5.054   0.148
 1758SOL    HW222417   5.138   5.155   0.053
 1759SOL     OW22418   6.270   1.314   7.315
 1759SOL    HW122419   6.221   1.301   7.234
 1759SOL    HW222420   6.230   1.391   7.355
 1760SOL     OW22421   1.734   6.052   1.173
 1760SOL    HW122422   1.736   5.957   1.162
 1760SOL    HW222423   1.711   6.064   1.265
 1761SOL     OW22424   2.840   1.900   6.587
 1761SOL    HW122425   2.883   1.919   6.671
 1761SOL    HW222426   2.790   1.979   6.568
 1762SOL     OW22427   5.832   5.554   0.214
 1762SOL    HW122428   5.774   5.630   0.209
 1762SOL    HW222429   5.914   5.584   0.174
 1763SOL     OW22430   5.391   2.915   1.135
 1763SOL    HW122431   5.483   2.901   1.158
 1763SOL    HW222432   5.377   3.009   1.150
 1764SOL     OW22433   1.752   6.023   2.407
 1764SOL    HW122434   1.820   6.060   2.351
 1764SOL    HW222435   1.795   6.010   2.492
 1765SOL     OW22436   2.460   1.445   5.830
 1765SOL    HW122437   2.529   1.510   5.812
 1765SOL    HW222438   2.380   1.486   5.796
 1766SOL     OW22439   6.313   1.976   7.312
 1766SOL    HW122440   6.269   1.997   7.395
 1766SOL    HW222441   6.329   2.061   7.272
 1767SOL     OW22442   1.308   0.127   6.725
 1767SOL    HW122443   1.279   0.214   6.754
 1767SOL    HW222444   1.300   0.130   6.630
 1768SOL     OW22445   6.017   5.193   0.847
 1768SOL    HW122446   5.978   5.122   0.796
 1768SOL    HW222447   5.943   5.243   0.880
 1769SOL     OW22448   5.201   5.714   7.336
 1769SOL    HW122449   5.126   5.773   7.327
 1769SOL    HW222450   5.164   5.627   7.324
 1770SOL     OW22451   2.086   3.299   6.958
 1770SOL    HW122452   2.165   3.254   6.930
 1770SOL    HW222453   2.117   3.376   7.006
 1771SOL     OW22454   3.491   3.199   2.106
 1771SOL    HW122455   3.507   3.294   2.112
 1771SOL    HW222456   3.431   3.181   2.178
 1772SOL     OW22457   0.126   2.317   1.570
 1772SOL    HW122458   0.092   2.300   1.482
 1772SOL    HW222459   0.216   2.347   1.555
 1773SOL     OW22460   3.008   2.526   6.855
 1773SOL    HW122461   3.043   2.574   6.930
 1773SOL    HW222462   2.920   2.500   6.882
 1774SOL     OW22463   5.885   3.959   0.467
 1774SOL    HW122464   5.807   4.010   0.490
 1774SOL    HW222465   5.957   4.004   0.510
 1775SOL     OW22466   1.128   4.517   0.676
 1775SOL    HW122467   1.213   4.476   0.661
 1775SOL    HW222468   1.124   4.588   0.612
 1776SOL     OW22469   0.264   3.939   1.230
 1776SOL    HW122470   0.356   3.929   1.256
 1776SOL    HW222471   0.236   4.020   1.274
 1777SOL     OW22472   2.284   5.950   0.924
 1777SOL    HW122473   2.348   5.890   0.885
 1777SOL    HW222474   2.201   5.924   0.885
 1778SOL     OW22475   3.765   0.384   0.804
 1778SOL    HW122476   3.687   0.332   0.821
 1778SOL    HW222477   3.753   0.416   0.715
 1779SOL     OW22478   5.106   3.615   0.832
 1779SOL    HW122479   5.015   3.586   0.834
 1779SOL    HW222480   5.111   3.675   0.758
 1780SOL     OW22481   6.361   4.210   1.645
 1780SOL    HW122482   6.287   4.271   1.635
 1780SOL    HW222483   6.433   4.265   1.675
 1781SOL     OW22484   3.427   4.478   2.167
 1781SOL    HW122485   3.470   4.553   2.208
 1781SOL    HW222486   3.342   4.471   2.210
 1782SOL     OW22487   0.233   0.181   7.189
 1782SOL    HW122488   0.220   0.094   7.226
 1782SOL    HW222489   0.325   0.200   7.206
 1783SOL     OW22490   5.925   5.379   0.512
 1783SOL    HW122491   5.972   5.404   0.432
 1783SOL    HW222492   5.966   5.432   0.580
 1784SOL     OW22493   3.262   1.369   0.235
 1784SOL    HW122494   3.325   1.299   0.216
 1784SOL    HW222495   3.278   1.435   0.168
 1785SOL     OW22496   2.433   6.111   1.481
 1785SOL    HW122497   2.453   6.200   1.453
 1785SOL    HW222498   2.337   6.107   1.483
 1786SOL     OW22499   4.689   2.069   2.195
 1786SOL    HW122500   4.609   2.020   2.214
 1786SOL    HW222501   4.709   2.048   2.104
 1787SOL     OW22502   0.009   6.122   6.777
 1787SOL    HW122503   0.034   6.138   6.868
 1787SOL    HW222504   0.078   6.163   6.726
 1788SOL     OW22505   1.915   4.831   0.347
 1788SOL    HW122506   1.920   4.857   0.255
 1788SOL    HW222507   1.860   4.899   0.387
 1789SOL     OW22508   6.185   3.249   0.131
 1789SOL    HW122509   6.162   3.238   0.224
 1789SOL    HW222510   6.217   3.339   0.126
 1790SOL     OW22511   6.316   2.009   2.804
 1790SOL    HW122512   6.255   2.067   2.848
 1790SOL    HW222513   6.370   2.066   2.750
 1791SOL     OW22514   2.080   5.034   7.442
 1791SOL    HW122515   2.009   4.977   7.413
 1791SOL    HW222516   2.160   4.982   7.430
 1792SOL     OW22517   2.639   6.037   6.489
 1792SOL    HW122518   2.626   6.057   6.397
 1792SOL    HW222519   2.635   6.122   6.533
 1793SOL     OW22520   1.193   1.520   1.470
 1793SOL    HW122521   1.151   1.442   1.435
 1793SOL    HW222522   1.285   1.513   1.443
 1794SOL     OW22523   6.153   2.511   7.150
 1794SOL    HW122524   6.145   2.444   7.218
 1794SOL    HW222525   6.066   2.551   7.147
 1795SOL     OW22526   0.239   3.113   1.521
 1795SOL    HW122527   0.247   3.206   1.540
 1795SOL    HW222528   0.224   3.072   1.606
 1796SOL     OW22529   6.069   0.988   1.073
 1796SOL    HW122530   6.099   1.065   1.121
 1796SOL    HW222531   6.026   1.023   0.995
 1797SOL     OW22532   2.177   4.545   0.431
 1797SOL    HW122533   2.188   4.451   0.442
 1797SOL    HW222534   2.087   4.556   0.400
 1798SOL     OW22535   1.886   4.395   7.389
 1798SOL    HW122536   1.879   4.459   7.460
 1798SOL    HW222537   1.980   4.377   7.383
 1799SOL     OW22538   1.994   4.737   0.601
 1799SOL    HW122539   2.012   4.811   0.660
 1799SOL    HW222540   1.964   4.779   0.520
 1800SOL     OW22541   2.425   1.214   6.202
 1800SOL    HW122542   2.458   1.132   6.239
 1800SOL    HW222543   2.422   1.274   6.276
 1801SOL     OW22544   4.700   3.341   7.750
 1801SOL    HW122545   4.662   3.277   7.690
 1801SOL    HW222546   4.762   3.391   7.697
 1802SOL     OW22547   1.700   1.100   1.073
 1802SOL    HW122548   1.667   1.017   1.039
 1802SOL    HW222549   1.637   1.165   1.041
 1803SOL     OW22550   2.241   3.301   2.321
 1803SOL    HW122551   2.182   3.361   2.274
 1803SOL    HW222552   2.189   3.272   2.397
 1804SOL     OW22553   3.406   6.270   5.925
 1804SOL    HW122554   3.334   6.301   5.870
 1804SOL    HW222555   3.367   6.201   5.979
 1805SOL     OW22556   5.293   3.762   5.635
 1805SOL    HW122557   5.288   3.768   5.540
 1805SOL    HW222558   5.249   3.841   5.667
 1806SOL     OW22559   0.332   2.188   7.047
 1806SOL    HW122560   0.247   2.153   7.072
 1806SOL    HW222561   0.330   2.279   7.077
 1807SOL     OW22562   1.676   3.950   0.113
 1807SOL    HW122563   1.672   4.008   0.038
 1807SOL    HW222564   1.584   3.938   0.138
 1808SOL     OW22565   2.499   4.246   0.724
 1808SOL    HW122566   2.574   4.195   0.694
 1808SOL    HW222567   2.491   4.317   0.661
 1809SOL     OW22568   1.552   4.425   1.186
 1809SOL    HW122569   1.515   4.469   1.109
 1809SOL    HW222570   1.481   4.368   1.217
 1810SOL     OW22571   0.003   3.600   7.073
 1810SOL    HW122572   0.066   3.671   7.066
 1810SOL    HW222573   0.050   3.523   7.043
 1811SOL     OW22574   4.845   2.830   1.599
 1811SOL    HW122575   4.825   2.858   1.688
 1811SOL    HW222576   4.760   2.823   1.555
 1812SOL     OW22577   4.583   3.589   1.515
 1812SOL    HW122578   4.589   3.499   1.548
 1812SOL    HW222579   4.645   3.638   1.569
 1813SOL     OW22580   3.906   2.456   5.912
 1813SOL    HW122581   3.879   2.366   5.898
 1813SOL    HW222582   3.825   2.507   5.905
 1814SOL     OW22583   3.873   2.645   7.117
 1814SOL    HW122584   3.882   2.550   7.127
 1814SOL    HW222585   3.778   2.660   7.116
 1815SOL     OW22586   1.222   5.859   5.889
 1815SOL    HW122587   1.157   5.866   5.959
 1815SOL    HW222588   1.254   5.769   5.895
 1816SOL     OW22589   0.083   4.253   7.363
 1816SOL    HW122590   0.121   4.323   7.310
 1816SOL    HW222591   0.061   4.295   7.446
 1817SOL     OW22592   4.195   3.632   5.884
 1817SOL    HW122593   4.269   3.641   5.944
 1817SOL    HW222594   4.177   3.721   5.854
 1818SOL     OW22595   1.635   3.354   7.128
 1818SOL    HW122596   1.652   3.434   7.178
 1818SOL    HW222597   1.715   3.340   7.078
 1819SOL     OW22598   5.360   2.325   0.770
 1819SOL    HW122599   5.318   2.283   0.844
 1819SOL    HW222600   5.410   2.397   0.808
 1820SOL     OW22601   3.568   2.921   6.806
 1820SOL    HW122602   3.483   2.885   6.828
 1820SOL    HW222603   3.618   2.847   6.772
 1821SOL     OW22604   0.287   2.663   6.382
 1821SOL    HW122605   0.289   2.758   6.395
 1821SOL    HW222606   0.370   2.633   6.419
 1822SOL     OW22607   4.982   1.542   6.749
 1822SOL    HW122608   4.907   1.483   6.757
 1822SOL    HW222609   4.996   1.574   6.838
 1823SOL     OW22610   2.758   0.780   1.223
 1823SOL    HW122611   2.674   0.744   1.194
 1823SOL    HW222612   2.822   0.713   1.200
 1824SOL     OW22613   2.810   0.623   0.204
 1824SOL    HW122614   2.736   0.563   0.208
 1824SOL    HW222615   2.776   0.702   0.162
 1825SOL     OW22616   1.199   6.103   6.564
 1825SOL    HW122617   1.127   6.044   6.585
 1825SOL    HW222618   1.179   6.136   6.477
 1826SOL     OW22619   5.031   6.100   1.472
 1826SOL    HW122620   5.064   6.189   1.458
 1826SOL    HW222621   5.105   6.043   1.451
 1827SOL     OW22622   0.333   2.096   7.485
 1827SOL    HW122623   0.278   2.026   7.449
 1827SOL    HW222624   0.421   2.059   7.485
 1828SOL     OW22625   3.990   0.924   7.614
 1828SOL    HW122626   4.084   0.914   7.626
 1828SOL    HW222627   3.965   0.856   7.552
 1829SOL     OW22628   6.410   1.392   2.253
 1829SOL    HW122629   6.315   1.385   2.243
 1829SOL    HW222630   6.446   1.362   2.170
 1830SOL     OW22631   4.544   0.828   6.802
 1830SOL    HW122632   4.520   0.870   6.885
 1830SOL    HW222633   4.461   0.810   6.758
 1831SOL     OW22634   2.041   4.982   0.779
 1831SOL    HW122635   2.093   4.933   0.842
 1831SOL    HW222636   1.985   5.038   0.833
 1832SOL     OW22637   1.913   2.834   2.874
 1832SOL    HW122638   1.893   2.808   2.963
 1832SOL    HW222639   1.856   2.909   2.857
 1833SOL     OW22640   2.190   3.501   7.665
 1833SOL    HW122641   2.149   3.569   7.720
 1833SOL    HW222642   2.281   3.500   7.693
 1834SOL     OW22643   0.632   2.024   6.591
 1834SOL    HW122644   0.616   1.943   6.639
 1834SOL    HW222645   0.722   2.049   6.613
 1835SOL     OW22646   4.597   3.931   6.525
 1835SOL    HW122647   4.661   3.968   6.464
 1835SOL    HW222648   4.642   3.855   6.563
 1836SOL     OW22649   1.458   4.073   2.033
 1836SOL    HW122650   1.503   4.072   1.948
 1836SOL    HW222651   1.434   4.165   2.046
 1837SOL     OW22652   1.483   1.708   5.178
 1837SOL    HW122653   1.476   1.803   5.189
 1837SOL    HW222654   1.395   1.675   5.196
 1838SOL     OW22655   0.716   1.055   0.107
 1838SOL    HW122656   0.719   1.145   0.074
 1838SOL    HW222657   0.629   1.023   0.082
 1839SOL     OW22658   5.266   2.566   0.058
 1839SOL    HW122659   5.255   2.661   0.071
 1839SOL    HW222660   5.236   2.528   0.141
 1840SOL     OW22661   5.794   2.707   2.090
 1840SOL    HW122662   5.837   2.733   2.009
 1840SOL    HW222663   5.783   2.788   2.139
 1841SOL     OW22664   4.074   5.194   7.272
 1841SOL    HW122665   3.997   5.163   7.225
 1841SOL    HW222666   4.145   5.136   7.243
 1842SOL     OW22667   1.583   0.736   6.280
 1842SOL    HW122668   1.534   0.743   6.362
 1842SOL    HW222669   1.591   0.826   6.249
 1843SOL     OW22670   3.112   1.828   7.587
 1843SOL    HW122671   3.194   1.867   7.558
 1843SOL    HW222672   3.138   1.752   7.639
 1844SOL     OW22673   5.333   0.407   7.001
 1844SOL    HW122674   5.313   0.480   7.060
 1844SOL    HW222675   5.293   0.432   6.918
 1845SOL     OW22676   6.259   1.960   0.578
 1845SOL    HW122677   6.179   1.929   0.536
 1845SOL    HW222678   6.251   2.056   0.576
 1846SOL     OW22679   3.001   4.436   0.352
 1846SOL    HW122680   3.023   4.447   0.260
 1846SOL    HW222681   3.085   4.442   0.397
 1847SOL     OW22682   6.195   4.064   2.898
 1847SOL    HW122683   6.286   4.042   2.881
 1847SOL    HW222684   6.145   3.990   2.863
 1848SOL     OW22685   0.231   2.433   6.255
 1848SOL    HW122686   0.272   2.433   6.169
 1848SOL    HW222687   0.246   2.522   6.288
 1849SOL     OW22688   2.913   1.048   0.729
 1849SOL    HW122689   2.932   0.975   0.669
 1849SOL    HW222690   2.924   1.126   0.675
 1850SOL     OW22691   4.813   2.733   5.948
 1850SOL    HW122692   4.850   2.727   5.860
 1850SOL    HW222693   4.832   2.649   5.988
 1851SOL     OW22694   1.347   5.229   6.190
 1851SOL    HW122695   1.344   5.138   6.220
 1851SOL    HW222696   1.255   5.253   6.179
 1852SOL     OW22697   4.345   5.715   7.350
 1852SOL    HW122698   4.395   5.635   7.333
 1852SOL    HW222699   4.299   5.733   7.268
 1853SOL     OW22700   0.748   0.956   1.930
 1853SOL    HW122701   0.795   0.875   1.951
 1853SOL    HW222702   0.715   0.987   2.015
 1854SOL     OW22703   1.210   2.636   0.621
 1854SOL    HW122704   1.150   2.676   0.559
 1854SOL    HW222705   1.295   2.641   0.579
 1855SOL     OW22706   3.172   2.003   3.171
 1855SOL    HW122707   3.107   1.934   3.155
 1855SOL    HW222708   3.120   2.078   3.201
 1856SOL     OW22709   1.530   0.233   6.993
 1856SOL    HW122710   1.443   0.217   6.955
 1856SOL    HW222711   1.513   0.247   7.086
 1857SOL     OW22712   2.290   2.016   1.939
 1857SOL    HW122713   2.292   1.923   1.960
 1857SOL    HW222714   2.250   2.020   1.852
 1858SOL     OW22715   0.593   3.353   7.474
 1858SOL    HW122716   0.582   3.262   7.446
 1858SOL    HW222717   0.685   3.373   7.459
 1859SOL     OW22718   5.419   3.321   0.845
 1859SOL    HW122719   5.497   3.272   0.872
 1859SOL    HW222720   5.380   3.350   0.928
 1860SOL     OW22721   5.757   3.140   7.184
 1860SOL    HW122722   5.797   3.225   7.163
 1860SOL    HW222723   5.794   3.116   7.269
 1861SOL     OW22724   2.839   4.311   7.201
 1861SOL    HW122725   2.878   4.233   7.240
 1861SOL    HW222726   2.904   4.342   7.139
 1862SOL     OW22727   3.584   2.181   1.261
 1862SOL    HW122728   3.506   2.216   1.303
 1862SOL    HW222729   3.595   2.094   1.300
 1863SOL     OW22730   0.888   1.607   7.101
 1863SOL    HW122731   0.983   1.600   7.095
 1863SOL    HW222732   0.872   1.674   7.167
 1864SOL     OW22733   4.472   3.047   1.817
 1864SOL    HW122734   4.410   2.990   1.772
 1864SOL    HW222735   4.486   3.006   1.902
 1865SOL     OW22736   0.190   1.064   6.317
 1865SOL    HW122737   0.256   1.002   6.349
 1865SOL    HW222738   0.199   1.062   6.222
 1866SOL     OW22739   4.295   5.218   1.563
 1866SOL    HW122740   4.295   5.297   1.617
 1866SOL    HW222741   4.278   5.249   1.474
 1867SOL     OW22742   2.929   4.343   0.636
 1867SOL    HW122743   2.969   4.371   0.718
 1867SOL    HW222744   2.938   4.418   0.577
 1868SOL     OW22745   5.549   1.128   7.511
 1868SOL    HW122746   5.475   1.175   7.473
 1868SOL    HW222747   5.525   1.117   7.603
 1869SOL     OW22748   1.712   0.263   0.108
 1869SOL    HW122749   1.714   0.291   0.199
 1869SOL    HW222750   1.748   0.337   0.059
 1870SOL     OW22751   4.851   3.508   5.841
 1870SOL    HW122752   4.832   3.559   5.919
 1870SOL    HW222753   4.926   3.453   5.865
 1871SOL     OW22754   5.733   1.030   0.912
 1871SOL    HW122755   5.672   1.082   0.963
 1871SOL    HW222756   5.722   0.941   0.946
 1872SOL     OW22757   4.647   0.463   5.727
 1872SOL    HW122758   4.719   0.490   5.784
 1872SOL    HW222759   4.664   0.371   5.710
 1873SOL     OW22760   3.697   5.213   0.761
 1873SOL    HW122761   3.719   5.232   0.852
 1873SOL    HW222762   3.658   5.294   0.728
 1874SOL     OW22763   5.503   1.840   1.231
 1874SOL    HW122764   5.516   1.748   1.209
 1874SOL    HW222765   5.585   1.867   1.271
 1875SOL     OW22766   4.061   0.327   0.421
 1875SOL    HW122767   4.098   0.387   0.356
 1875SOL    HW222768   3.968   0.322   0.399
 1876SOL     OW22769   4.082   1.244   1.849
 1876SOL    HW122770   3.995   1.206   1.840
 1876SOL    HW222771   4.076   1.301   1.926
 1877SOL     OW22772   3.119   6.103   7.538
 1877SOL    HW122773   3.198   6.124   7.587
 1877SOL    HW222774   3.126   6.010   7.520
 1878SOL     OW22775   2.615   0.270   5.818
 1878SOL    HW122776   2.535   0.310   5.783
 1878SOL    HW222777   2.589   0.182   5.843
 1879SOL     OW22778   5.786   4.781   0.502
 1879SOL    HW122779   5.699   4.781   0.462
 1879SOL    HW222780   5.842   4.825   0.438
 1880SOL     OW22781   0.896   2.228   5.682
 1880SOL    HW122782   0.856   2.280   5.752
 1880SOL    HW222783   0.968   2.181   5.725
 1881SOL     OW22784   3.574   1.883   7.003
 1881SOL    HW122785   3.553   1.959   6.948
 1881SOL    HW222786   3.648   1.912   7.056
 1882SOL     OW22787   3.829   5.086   0.341
 1882SOL    HW122788   3.780   5.029   0.283
 1882SOL    HW222789   3.843   5.034   0.420
 1883SOL     OW22790   5.281   3.856   7.263
 1883SOL    HW122791   5.319   3.807   7.190
 1883SOL    HW222792   5.355   3.901   7.303
 1884SOL     OW22793   1.626   4.723   0.709
 1884SOL    HW122794   1.663   4.811   0.712
 1884SOL    HW222795   1.674   4.679   0.638
 1885SOL     OW22796   4.505   3.324   5.768
 1885SOL    HW122797   4.431   3.351   5.713
 1885SOL    HW222798   4.575   3.386   5.745
 1886SOL     OW22799   2.869   3.787   0.938
 1886SOL    HW122800   2.859   3.718   1.004
 1886SOL    HW222801   2.792   3.777   0.881
 1887SOL     OW22802   3.218   2.823   1.567
 1887SOL    HW122803   3.240   2.743   1.614
 1887SOL    HW222804   3.247   2.894   1.626
 1888SOL     OW22805   1.178   1.194   0.998
 1888SOL    HW122806   1.198   1.285   1.022
 1888SOL    HW222807   1.113   1.166   1.062
 1889SOL     OW22808   3.032   1.546   7.364
 1889SOL    HW122809   2.970   1.489   7.320
 1889SOL    HW222810   3.117   1.522   7.326
 1890SOL     OW22811   4.859   0.799   1.044
 1890SOL    HW122812   4.803   0.825   0.970
 1890SOL    HW222813   4.846   0.868   1.109
 1891SOL     OW22814   1.095   4.593   6.238
 1891SOL    HW122815   1.086   4.550   6.153
 1891SOL    HW222816   1.147   4.671   6.220
 1892SOL     OW22817   5.507   4.606   3.072
 1892SOL    HW122818   5.593   4.590   3.110
 1892SOL    HW222819   5.502   4.545   2.998
 1893SOL     OW22820   3.022   2.129   0.727
 1893SOL    HW122821   2.938   2.108   0.770
 1893SOL    HW222822   3.016   2.087   0.641
 1894SOL     OW22823   4.389   2.707   1.955
 1894SOL    HW122824   4.301   2.681   1.983
 1894SOL    HW222825   4.407   2.786   2.004
 1895SOL     OW22826   0.740   0.414   6.620
 1895SOL    HW122827   0.764   0.448   6.706
 1895SOL    HW222828   0.733   0.492   6.565
 1896SOL     OW22829   0.353   0.745   0.335
 1896SOL    HW122830   0.298   0.681   0.380
 1896SOL    HW222831   0.428   0.757   0.393
 1897SOL     OW22832   1.738   3.158   1.716
 1897SOL    HW122833   1.795   3.118   1.651
 1897SOL    HW222834   1.693   3.084   1.757
 1898SOL     OW22835   5.091   3.180   7.644
 1898SOL    HW122836   5.149   3.193   7.719
 1898SOL    HW222837   5.039   3.261   7.638
 1899SOL     OW22838   5.720   1.433   7.489
 1899SOL    HW122839   5.815   1.435   7.475
 1899SOL    HW222840   5.683   1.413   7.404
 1900SOL     OW22841   4.694   2.577   6.361
 1900SOL    HW122842   4.638   2.589   6.285
 1900SOL    HW222843   4.781   2.558   6.325
 1901SOL     OW22844   0.123   1.565   1.211
 1901SOL    HW122845   0.190   1.592   1.147
 1901SOL    HW222846   0.047   1.618   1.187
 1902SOL     OW22847   1.469   4.623   0.032
 1902SOL    HW122848   1.526   4.658   0.101
 1902SOL    HW222849   1.464   4.694  -0.033
 1903SOL     OW22850   5.324   0.276   5.916
 1903SOL    HW122851   5.365   0.198   5.954
 1903SOL    HW222852   5.232   0.252   5.905
 1904SOL     OW22853   6.437   2.486   2.514
 1904SOL    HW122854   6.471   2.544   2.446
 1904SOL    HW222855   6.345   2.474   2.490
 1905SOL     OW22856   1.091   4.975   5.822
 1905SOL    HW122857   1.162   5.023   5.864
 1905SOL    HW222858   1.031   4.953   5.893
 1906SOL     OW22859   0.968   3.415   2.041
 1906SOL    HW122860   0.935   3.502   2.019
 1906SOL    HW222861   1.016   3.428   2.123
 1907SOL     OW22862   5.671   3.022   6.467
 1907SOL    HW122863   5.758   3.045   6.436
 1907SOL    HW222864   5.655   2.935   6.430
 1908SOL     OW22865   3.831   5.098   6.790
 1908SOL    HW122866   3.894   5.163   6.759
 1908SOL    HW222867   3.752   5.149   6.809
 1909SOL     OW22868   2.831   5.582   0.686
 1909SOL    HW122869   2.752   5.528   0.693
 1909SOL    HW222870   2.903   5.519   0.689
 1910SOL     OW22871   4.832   6.295   6.609
 1910SOL    HW122872   4.747   6.309   6.651
 1910SOL    HW222873   4.818   6.322   6.519
 1911SOL     OW22874   5.408   3.016   1.801
 1911SOL    HW122875   5.389   3.023   1.895
 1911SOL    HW222876   5.390   2.924   1.780
 1912SOL     OW22877   0.724   4.933   0.352
 1912SOL    HW122878   0.679   5.016   0.369
 1912SOL    HW222879   0.799   4.935   0.411
 1913SOL     OW22880   6.105   5.359   7.257
 1913SOL    HW122881   6.083   5.270   7.230
 1913SOL    HW222882   6.196   5.371   7.229
 1914SOL     OW22883   3.491   1.244   7.173
 1914SOL    HW122884   3.496   1.233   7.078
 1914SOL    HW222885   3.507   1.156   7.208
 1915SOL     OW22886   0.375   2.006   0.721
 1915SOL    HW122887   0.283   2.016   0.696
 1915SOL    HW222888   0.419   1.980   0.640
 1916SOL     OW22889   2.739   3.518   0.814
 1916SOL    HW122890   2.672   3.450   0.815
 1916SOL    HW222891   2.703   3.587   0.759
 1917SOL     OW22892   0.395   5.342   7.677
 1917SOL    HW122893   0.347   5.422   7.658
 1917SOL    HW222894   0.485   5.361   7.654
 1918SOL     OW22895   6.307   2.009   6.597
 1918SOL    HW122896   6.348   1.990   6.513
 1918SOL    HW222897   6.225   1.960   6.596
 1919SOL     OW22898   1.195   2.898   1.403
 1919SOL    HW122899   1.248   2.827   1.365
 1919SOL    HW222900   1.254   2.945   1.461
 1920SOL     OW22901   2.406   0.427   0.372
 1920SOL    HW122902   2.447   0.501   0.417
 1920SOL    HW222903   2.317   0.424   0.408
 1921SOL     OW22904   5.056   4.102   7.348
 1921SOL    HW122905   5.113   4.137   7.418
 1921SOL    HW222906   5.114   4.049   7.294
 1922SOL     OW22907   3.633   5.272   5.882
 1922SOL    HW122908   3.620   5.349   5.826
 1922SOL    HW222909   3.669   5.307   5.963
 1923SOL     OW22910   3.375   4.562   1.267
 1923SOL    HW122911   3.444   4.517   1.316
 1923SOL    HW222912   3.348   4.634   1.324
 1924SOL     OW22913   4.958   5.990   2.056
 1924SOL    HW122914   4.907   6.058   2.101
 1924SOL    HW222915   5.049   6.012   2.075
 1925SOL     OW22916   4.924   5.124   7.180
 1925SOL    HW122917   4.940   5.109   7.273
 1925SOL    HW222918   4.982   5.062   7.135
 1926SOL     OW22919   6.095   0.258   0.697
 1926SOL    HW122920   6.069   0.209   0.775
 1926SOL    HW222921   6.177   0.219   0.670
 1927SOL     OW22922   5.675   5.814   1.985
 1927SOL    HW122923   5.725   5.768   2.052
 1927SOL    HW222924   5.595   5.762   1.975
 1928SOL     OW22925   3.990   5.950   1.577
 1928SOL    HW122926   4.067   5.997   1.547
 1928SOL    HW222927   3.979   5.976   1.669
 1929SOL     OW22928   5.035   1.789   2.290
 1929SOL    HW122929   5.098   1.813   2.357
 1929SOL    HW222930   4.959   1.756   2.338
 1930SOL     OW22931   2.100   4.707   0.091
 1930SOL    HW122932   2.147   4.722   0.173
 1930SOL    HW222933   2.041   4.781   0.084
 1931SOL     OW22934   0.053   3.843   0.504
 1931SOL    HW122935  -0.042   3.842   0.513
 1931SOL    HW222936   0.083   3.775   0.565
 1932SOL     OW22937   2.701   1.306   5.354
 1932SOL    HW122938   2.664   1.219   5.339
 1932SOL    HW222939   2.631   1.367   5.329
 1933SOL     OW22940   2.474   0.446   6.597
 1933SOL    HW122941   2.535   0.512   6.565
 1933SOL    HW222942   2.524   0.395   6.661
 1934SOL     OW22943   0.175   1.671   1.587
 1934SOL    HW122944   0.088   1.634   1.604
 1934SOL    HW222945   0.157   1.754   1.542
 1935SOL     OW22946   2.015   2.864   6.713
 1935SOL    HW122947   1.949   2.811   6.669
 1935SOL    HW222948   2.054   2.805   6.778
 1936SOL     OW22949   0.428   5.249   0.501
 1936SOL    HW122950   0.500   5.209   0.452
 1936SOL    HW222951   0.386   5.308   0.438
 1937SOL     OW22952   2.348   4.459   7.127
 1937SOL    HW122953   2.407   4.393   7.162
 1937SOL    HW222954   2.398   4.541   7.130
 1938SOL     OW22955   1.992   4.359   1.714
 1938SOL    HW122956   2.078   4.346   1.754
 1938SOL    HW222957   1.978   4.454   1.715
 1939SOL     OW22958   2.621   1.917   2.627
 1939SOL    HW122959   2.625   1.930   2.533
 1939SOL    HW222960   2.700   1.961   2.660
 1940SOL     OW22961   5.595   3.365   1.973
 1940SOL    HW122962   5.534   3.369   2.046
 1940SOL    HW222963   5.676   3.330   2.011
 1941SOL     OW22964   0.136   5.667   0.118
 1941SOL    HW122965   0.129   5.592   0.177
 1941SOL    HW222966   0.053   5.714   0.128
 1942SOL     OW22967   2.783   5.089   6.471
 1942SOL    HW122968   2.874   5.090   6.501
 1942SOL    HW222969   2.755   4.998   6.484
 1943SOL     OW22970   1.064   5.376   7.477
 1943SOL    HW122971   1.073   5.283   7.454
 1943SOL    HW222972   1.148   5.398   7.516
 1944SOL     OW22973   1.151   5.007   6.961
 1944SOL    HW122974   1.112   4.967   7.039
 1944SOL    HW222975   1.194   4.934   6.916
 1945SOL     OW22976   4.219   2.366   7.689
 1945SOL    HW122977   4.206   2.276   7.717
 1945SOL    HW222978   4.222   2.417   7.771
 1946SOL     OW22979   2.617   4.315   1.260
 1946SOL    HW122980   2.563   4.268   1.196
 1946SOL    HW222981   2.681   4.250   1.290
 1947SOL     OW22982   0.357   5.474   6.006
 1947SOL    HW122983   0.446   5.492   6.037
 1947SOL    HW222984   0.357   5.380   5.988
 1948SOL     OW22985   1.396   3.566   0.063
 1948SOL    HW122986   1.412   3.639   0.003
 1948SOL    HW222987   1.479   3.553   0.109
 1949SOL     OW22988   3.879   3.934   6.534
 1949SOL    HW122989   3.827   3.853   6.529
 1949SOL    HW222990   3.965   3.908   6.501
 1950SOL     OW22991   5.901   3.257   1.775
 1950SOL    HW122992   5.875   3.337   1.730
 1950SOL    HW222993   5.822   3.202   1.774
 1951SOL     OW22994   3.857   4.040   0.455
 1951SOL    HW122995   3.802   4.097   0.402
 1951SOL    HW222996   3.815   4.039   0.541
 1952SOL     OW22997   4.915   3.402   2.634
 1952SOL    HW122998   4.963   3.435   2.558
 1952SOL    HW222999   4.879   3.318   2.604
 1953SOL     OW23000   5.690   2.343   0.744
 1953SOL    HW123001   5.695   2.415   0.681
 1953SOL    HW223002   5.764   2.286   0.722
 1954SOL     OW23003   3.783   1.978   7.146
 1954SOL    HW123004   3.849   2.009   7.084
 1954SOL    HW223005   3.827   1.911   7.198
 1955SOL     OW23006   5.173   5.516   7.696
 1955SOL    HW123007   5.119   5.437   7.703
 1955SOL    HW223008   5.233   5.511   7.770
 1956SOL     OW23009   5.899   5.844   7.682
 1956SOL    HW123010   5.870   5.863   7.772
 1956SOL    HW223011   5.827   5.794   7.644
 1957SOL     OW23012   6.404   1.516   1.427
 1957SOL    HW123013   6.473   1.522   1.361
 1957SOL    HW223014   6.328   1.556   1.386
 1958SOL     OW23015   0.134   5.736   7.438
 1958SOL    HW123016   0.220   5.772   7.416
 1958SOL    HW223017   0.101   5.794   7.506
 1959SOL     OW23018   1.181   0.734   1.411
 1959SOL    HW123019   1.204   0.677   1.338
 1959SOL    HW223020   1.148   0.673   1.478
 1960SOL     OW23021   3.154   0.874   6.303
 1960SOL    HW123022   3.060   0.894   6.306
 1960SOL    HW223023   3.178   0.886   6.211
 1961SOL     OW23024   2.903   3.947   1.220
 1961SOL    HW123025   2.853   3.878   1.176
 1961SOL    HW223026   2.991   3.912   1.227
 1962SOL     OW23027   0.625   5.256   6.653
 1962SOL    HW123028   0.672   5.183   6.615
 1962SOL    HW223029   0.693   5.310   6.694
 1963SOL     OW23030   0.094   3.846   2.103
 1963SOL    HW123031   0.026   3.817   2.165
 1963SOL    HW223032   0.147   3.768   2.088
 1964SOL     OW23033   5.523   1.131   2.192
 1964SOL    HW123034   5.429   1.144   2.206
 1964SOL    HW223035   5.552   1.079   2.267
 1965SOL     OW23036   6.237   2.276   5.510
 1965SOL    HW123037   6.283   2.346   5.463
 1965SOL    HW223038   6.167   2.321   5.558
 1966SOL     OW23039   1.741   0.411   7.086
 1966SOL    HW123040   1.745   0.331   7.034
 1966SOL    HW223041   1.647   0.423   7.104
 1967SOL     OW23042   3.508   3.245   0.537
 1967SOL    HW123043   3.593   3.215   0.504
 1967SOL    HW223044   3.469   3.167   0.577
 1968SOL     OW23045   4.634   4.871   0.557
 1968SOL    HW123046   4.646   4.911   0.472
 1968SOL    HW223047   4.618   4.944   0.617
 1969SOL     OW23048   3.588   4.436   1.361
 1969SOL    HW123049   3.671   4.437   1.407
 1969SOL    HW223050   3.588   4.355   1.312
 1970SOL     OW23051   3.262   2.181   0.594
 1970SOL    HW123052   3.181   2.143   0.627
 1970SOL    HW223053   3.284   2.250   0.657
 1971SOL     OW23054   2.805   4.592   7.691
 1971SOL    HW123055   2.848   4.558   7.612
 1971SOL    HW223056   2.845   4.543   7.763
 1972SOL     OW23057   2.474   4.702   7.246
 1972SOL    HW123058   2.555   4.747   7.270
 1972SOL    HW223059   2.420   4.770   7.206
 1973SOL     OW23060   2.680   3.275   6.779
 1973SOL    HW123061   2.620   3.319   6.718
 1973SOL    HW223062   2.760   3.261   6.728
 1974SOL     OW23063   2.242   5.006   1.523
 1974SOL    HW123064   2.296   5.004   1.602
 1974SOL    HW223065   2.304   4.990   1.452
 1975SOL     OW23066   5.187   2.433   0.267
 1975SOL    HW123067   5.145   2.451   0.351
 1975SOL    HW223068   5.259   2.373   0.289
 1976SOL     OW23069   0.415   6.404   1.317
 1976SOL    HW123070   0.383   6.371   1.401
 1976SOL    HW223071   0.478   6.473   1.340
 1977SOL     OW23072   2.689   1.935   1.453
 1977SOL    HW123073   2.675   2.022   1.489
 1977SOL    HW223074   2.629   1.930   1.379
 1978SOL     OW23075   0.720   5.907   1.712
 1978SOL    HW123076   0.724   5.850   1.788
 1978SOL    HW223077   0.723   5.996   1.749
 1979SOL     OW23078   2.551   4.706   5.883
 1979SOL    HW123079   2.515   4.778   5.935
 1979SOL    HW223080   2.476   4.652   5.861
 1980SOL     OW23081   5.359   6.012   1.747
 1980SOL    HW123082   5.419   5.944   1.717
 1980SOL    HW223083   5.375   6.085   1.687
 1981SOL     OW23084   2.221   4.776   0.313
 1981SOL    HW123085   2.231   4.699   0.368
 1981SOL    HW223086   2.152   4.828   0.354
 1982SOL     OW23087   0.111   5.007   0.340
 1982SOL    HW123088   0.027   4.985   0.300
 1982SOL    HW223089   0.141   5.085   0.295
 1983SOL     OW23090   4.056   1.488   0.890
 1983SOL    HW123091   4.034   1.486   0.797
 1983SOL    HW223092   3.974   1.467   0.935
 1984SOL     OW23093   5.663   5.758   7.522
 1984SOL    HW123094   5.644   5.757   7.428
 1984SOL    HW223095   5.581   5.787   7.563
 1985SOL     OW23096   2.022   5.936   5.959
 1985SOL    HW123097   2.064   5.859   5.996
 1985SOL    HW223098   2.038   5.929   5.865
 1986SOL     OW23099   1.816   3.949   7.205
 1986SOL    HW123100   1.787   4.029   7.162
 1986SOL    HW223101   1.796   3.880   7.142
 1987SOL     OW23102   5.681   6.021   1.348
 1987SOL    HW123103   5.755   5.978   1.304
 1987SOL    HW223104   5.665   5.968   1.426
 1988SOL     OW23105   2.991   3.330   7.662
 1988SOL    HW123106   3.050   3.295   7.595
 1988SOL    HW223107   3.029   3.300   7.745
 1989SOL     OW23108   5.998   0.605   0.325
 1989SOL    HW123109   5.923   0.609   0.266
 1989SOL    HW223110   6.033   0.694   0.326
 1990SOL     OW23111   1.735   3.036   2.819
 1990SOL    HW123112   1.654   3.063   2.775
 1990SOL    HW223113   1.780   3.118   2.839
 1991SOL     OW23114   2.545   0.317   2.035
 1991SOL    HW123115   2.470   0.275   2.076
 1991SOL    HW223116   2.551   0.277   1.948
 1992SOL     OW23117   3.710   3.894   7.533
 1992SOL    HW123118   3.625   3.914   7.494
 1992SOL    HW223119   3.689   3.851   7.616
 1993SOL     OW23120   5.030   0.886   7.547
 1993SOL    HW123121   5.046   0.800   7.507
 1993SOL    HW223122   5.105   0.939   7.523
 1994SOL     OW23123   2.748   0.298   0.038
 1994SOL    HW123124   2.702   0.363   0.092
 1994SOL    HW223125   2.788   0.238   0.101
 1995SOL     OW23126   5.615   5.151   0.806
 1995SOL    HW123127   5.612   5.101   0.887
 1995SOL    HW223128   5.696   5.201   0.811
 1996SOL     OW23129   1.148   0.257   0.952
 1996SOL    HW123130   1.220   0.223   0.898
 1996SOL    HW223131   1.085   0.291   0.888
 1997SOL     OW23132   5.742   3.132   2.026
 1997SOL    HW123133   5.731   3.066   2.095
 1997SOL    HW223134   5.695   3.096   1.951
 1998SOL     OW23135   6.135   2.095   7.529
 1998SOL    HW123136   6.107   2.155   7.598
 1998SOL    HW223137   6.055   2.053   7.499
 1999SOL     OW23138   6.301   3.434   6.492
 1999SOL    HW123139   6.213   3.428   6.528
 1999SOL    HW223140   6.314   3.527   6.475
 2000SOL     OW23141   4.807   5.634   7.325
 2000SOL    HW123142   4.842   5.680   7.401
 2000SOL    HW223143   4.847   5.547   7.329
 2001SOL     OW23144   0.151   3.456   0.686
 2001SOL    HW123145   0.063   3.428   0.661
 2001SOL    HW223146   0.208   3.416   0.621
 2002SOL     OW23147   1.547   6.218   1.644
 2002SOL    HW123148   1.545   6.141   1.700
 2002SOL    HW223149   1.609   6.196   1.574
 2003SOL     OW23150   5.574   3.785   0.826
 2003SOL    HW123151   5.527   3.703   0.807
 2003SOL    HW223152   5.565   3.796   0.920
 2004SOL     OW23153   2.233   0.403   7.277
 2004SOL    HW123154   2.194   0.365   7.198
 2004SOL    HW223155   2.298   0.338   7.305
 2005SOL     OW23156   0.915   3.398   0.210
 2005SOL    HW123157   0.908   3.481   0.164
 2005SOL    HW223158   1.007   3.373   0.201
 2006SOL     OW23159   2.408   4.016   1.427
 2006SOL    HW123160   2.458   4.065   1.361
 2006SOL    HW223161   2.472   3.996   1.495
 2007SOL     OW23162   3.245   5.473   2.300
 2007SOL    HW123163   3.236   5.543   2.365
 2007SOL    HW223164   3.173   5.487   2.240
 2008SOL     OW23165   3.979   1.003   0.106
 2008SOL    HW123166   3.972   0.975   0.014
 2008SOL    HW223167   4.038   1.078   0.104
 2009SOL     OW23168   2.835   1.344   6.335
 2009SOL    HW123169   2.754   1.317   6.378
 2009SOL    HW223170   2.824   1.319   6.244
 2010SOL     OW23171   4.295   4.282   1.806
 2010SOL    HW123172   4.261   4.202   1.846
 2010SOL    HW223173   4.260   4.281   1.717
 2011SOL     OW23174   0.637   3.278   5.431
 2011SOL    HW123175   0.650   3.196   5.383
 2011SOL    HW223176   0.547   3.274   5.463
 2012SOL     OW23177   1.539   3.145   2.693
 2012SOL    HW123178   1.501   3.233   2.690
 2012SOL    HW223179   1.470   3.088   2.658
 2013SOL     OW23180   2.405   0.849   5.934
 2013SOL    HW123181   2.372   0.797   5.861
 2013SOL    HW223182   2.332   0.854   5.996
 2014SOL     OW23183   1.249   4.206   7.275
 2014SOL    HW123184   1.281   4.180   7.189
 2014SOL    HW223185   1.263   4.300   7.279
 2015SOL     OW23186   4.324   1.450   0.761
 2015SOL    HW123187   4.381   1.470   0.835
 2015SOL    HW223188   4.237   1.481   0.789
 2016SOL     OW23189   3.066   5.838   0.945
 2016SOL    HW123190   3.076   5.744   0.959
 2016SOL    HW223191   3.062   5.875   1.033
 2017SOL     OW23192   6.028   2.977   1.540
 2017SOL    HW123193   5.985   3.005   1.620
 2017SOL    HW223194   6.115   2.948   1.568
 2018SOL     OW23195   2.645   0.579   1.761
 2018SOL    HW123196   2.568   0.539   1.802
 2018SOL    HW223197   2.665   0.655   1.816
 2019SOL     OW23198   3.598   4.430   7.583
 2019SOL    HW123199   3.649   4.351   7.566
 2019SOL    HW223200   3.568   4.459   7.496
 2020SOL     OW23201   6.000   5.982   1.680
 2020SOL    HW123202   6.061   5.946   1.746
 2020SOL    HW223203   6.055   5.996   1.603
 2021SOL     OW23204   2.491   5.380   7.687
 2021SOL    HW123205   2.512   5.469   7.658
 2021SOL    HW223206   2.470   5.333   7.607
 2022SOL     OW23207   5.939   4.098   6.606
 2022SOL    HW123208   5.931   4.085   6.511
 2022SOL    HW223209   5.912   4.188   6.620
 2023SOL     OW23210   3.839   6.458   6.277
 2023SOL    HW123211   3.766   6.482   6.335
 2023SOL    HW223212   3.912   6.441   6.336
 2024SOL     OW23213   6.458   2.977   6.832
 2024SOL    HW123214   6.476   2.892   6.792
 2024SOL    HW223215   6.399   3.020   6.770
 2025SOL     OW23216   5.178   4.157   2.170
 2025SOL    HW123217   5.207   4.127   2.256
 2025SOL    HW223218   5.120   4.231   2.189
 2026SOL     OW23219   0.211   4.026   7.468
 2026SOL    HW123220   0.163   4.103   7.437
 2026SOL    HW223221   0.303   4.054   7.468
 2027SOL     OW23222   2.542   4.071   1.153
 2027SOL    HW123223   2.491   4.121   1.090
 2027SOL    HW223224   2.572   3.994   1.104
 2028SOL     OW23225   0.548   2.997   0.766
 2028SOL    HW123226   0.497   3.077   0.750
 2028SOL    HW223227   0.539   2.947   0.685
 2029SOL     OW23228   2.600   6.036   0.627
 2029SOL    HW123229   2.585   5.945   0.602
 2029SOL    HW223230   2.592   6.036   0.723
 2030SOL     OW23231   1.100   1.937   7.426
 2030SOL    HW123232   1.167   1.996   7.392
 2030SOL    HW223233   1.089   1.962   7.517
 2031SOL     OW23234   2.745   5.423   5.964
 2031SOL    HW123235   2.749   5.407   5.870
 2031SOL    HW223236   2.665   5.379   5.993
 2032SOL     OW23237   5.737   2.144   1.305
 2032SOL    HW123238   5.663   2.195   1.338
 2032SOL    HW223239   5.738   2.065   1.359
 2033SOL     OW23240   5.176   3.821   7.734
 2033SOL    HW123241   5.227   3.902   7.729
 2033SOL    HW223242   5.197   3.784   7.820
 2034SOL     OW23243   5.462   4.185   1.319
 2034SOL    HW123244   5.463   4.132   1.399
 2034SOL    HW223245   5.515   4.135   1.257
 2035SOL     OW23246   4.430   4.120   5.827
 2035SOL    HW123247   4.388   4.175   5.762
 2035SOL    HW223248   4.408   4.160   5.911
 2036SOL     OW23249   2.214   4.933   5.899
 2036SOL    HW123250   2.134   4.970   5.935
 2036SOL    HW223251   2.229   4.854   5.951
 2037SOL     OW23252   2.380   0.047   0.574
 2037SOL    HW123253   2.412   0.107   0.506
 2037SOL    HW223254   2.459   0.006   0.608
 2038SOL     OW23255   0.965   5.240   0.143
 2038SOL    HW123256   0.879   5.199   0.154
 2038SOL    HW223257   0.947   5.334   0.147
 2039SOL     OW23258   6.018   0.526   6.210
 2039SOL    HW123259   6.005   0.467   6.284
 2039SOL    HW223260   5.939   0.580   6.209
 2040SOL     OW23261   0.125   5.928   7.150
 2040SOL    HW123262   0.190   5.958   7.087
 2040SOL    HW223263   0.168   5.857   7.197
 2041SOL     OW23264   5.233   1.938   0.811
 2041SOL    HW123265   5.317   1.897   0.831
 2041SOL    HW223266   5.240   2.025   0.848
 2042SOL     OW23267   5.225   5.808   6.310
 2042SOL    HW123268   5.188   5.833   6.226
 2042SOL    HW223269   5.182   5.865   6.374
 2043SOL     OW23270   4.727   6.169   0.175
 2043SOL    HW123271   4.661   6.148   0.109
 2043SOL    HW223272   4.810   6.143   0.135
 2044SOL     OW23273   4.794   3.195   5.879
 2044SOL    HW123274   4.886   3.204   5.853
 2044SOL    HW223275   4.746   3.193   5.796
 2045SOL     OW23276   4.946   5.189   2.619
 2045SOL    HW123277   4.894   5.159   2.545
 2045SOL    HW223278   4.995   5.112   2.647
 2046SOL     OW23279   4.798   3.871   1.473
 2046SOL    HW123280   4.793   3.787   1.428
 2046SOL    HW223281   4.774   3.852   1.564
 2047SOL     OW23282   0.725   6.400   1.294
 2047SOL    HW123283   0.700   6.409   1.387
 2047SOL    HW223284   0.704   6.309   1.273
 2048SOL     OW23285   5.488   3.771   2.585
 2048SOL    HW123286   5.402   3.738   2.558
 2048SOL    HW223287   5.475   3.866   2.593
 2049SOL     OW23288   2.374   0.697   0.082
 2049SOL    HW123289   2.348   0.713  -0.009
 2049SOL    HW223290   2.291   0.691   0.130
 2050SOL     OW23291   0.462   1.987   1.799
 2050SOL    HW123292   0.441   2.058   1.860
 2050SOL    HW223293   0.421   2.014   1.717
 2051SOL     OW23294   1.104   0.958   0.493
 2051SOL    HW123295   1.116   0.956   0.588
 2051SOL    HW223296   1.072   0.870   0.471
 2052SOL     OW23297   3.179   5.833   2.293
 2052SOL    HW123298   3.104   5.776   2.282
 2052SOL    HW223299   3.147   5.920   2.268
 2053SOL     OW23300   4.457   3.777   7.633
 2053SOL    HW123301   4.467   3.833   7.556
 2053SOL    HW223302   4.539   3.787   7.681
 2054SOL     OW23303   5.014   1.737   0.843
 2054SOL    HW123304   4.935   1.781   0.874
 2054SOL    HW223305   5.083   1.802   0.853
 2055SOL     OW23306   6.348   1.395   1.050
 2055SOL    HW123307   6.326   1.460   0.984
 2055SOL    HW223308   6.414   1.340   1.007
 2056SOL     OW23309   5.798   0.542   1.475
 2056SOL    HW123310   5.722   0.534   1.418
 2056SOL    HW223311   5.859   0.597   1.426
 2057SOL     OW23312   5.601   1.794   0.516
 2057SOL    HW123313   5.679   1.800   0.571
 2057SOL    HW223314   5.592   1.700   0.498
 2058SOL     OW23315   2.604   1.315   7.696
 2058SOL    HW123316   2.568   1.314   7.608
 2058SOL    HW223317   2.699   1.306   7.683
 2059SOL     OW23318   5.144   5.804   0.096
 2059SOL    HW123319   5.116   5.724   0.050
 2059SOL    HW223320   5.190   5.855   0.029
 2060SOL     OW23321   0.561   5.404   6.937
 2060SOL    HW123322   0.655   5.422   6.938
 2060SOL    HW223323   0.555   5.309   6.934
 2061SOL     OW23324   5.773   0.233   1.315
 2061SOL    HW123325   5.699   0.290   1.333
 2061SOL    HW223326   5.846   0.292   1.297
 2062SOL     OW23327   1.137   0.803   6.369
 2062SOL    HW123328   1.175   0.878   6.415
 2062SOL    HW223329   1.107   0.840   6.286
 2063SOL     OW23330   6.456   4.630   7.122
 2063SOL    HW123331   6.539   4.675   7.133
 2063SOL    HW223332   6.442   4.584   7.205
 2064SOL     OW23333   3.618   5.880   0.095
 2064SOL    HW123334   3.648   5.860   0.184
 2064SOL    HW223335   3.656   5.965   0.075
 2065SOL     OW23336   6.078   4.821   7.323
 2065SOL    HW123337   6.008   4.797   7.261
 2065SOL    HW223338   6.057   4.772   7.402
 2066SOL     OW23339   2.263   4.005   0.459
 2066SOL    HW123340   2.275   4.025   0.552
 2066SOL    HW223341   2.324   4.064   0.414
 2067SOL     OW23342   1.643   4.932   0.448
 2067SOL    HW123343   1.689   4.939   0.532
 2067SOL    HW223344   1.613   5.022   0.430
 2068SOL     OW23345   0.921   1.473   1.241
 2068SOL    HW123346   0.857   1.443   1.176
 2068SOL    HW223347   0.887   1.441   1.324
 2069SOL     OW23348   0.994   2.799   7.137
 2069SOL    HW123349   0.907   2.830   7.111
 2069SOL    HW223350   1.037   2.875   7.174
 2070SOL     OW23351   0.753   2.900   2.062
 2070SOL    HW123352   0.819   2.836   2.090
 2070SOL    HW223353   0.798   2.984   2.067
 2071SOL     OW23354   5.386   2.518   0.495
 2071SOL    HW123355   5.408   2.448   0.434
 2071SOL    HW223356   5.433   2.496   0.575
 2072SOL     OW23357   6.285   1.146   0.857
 2072SOL    HW123358   6.327   1.099   0.929
 2072SOL    HW223359   6.206   1.096   0.837
 2073SOL     OW23360   0.525   3.783   7.389
 2073SOL    HW123361   0.596   3.839   7.421
 2073SOL    HW223362   0.507   3.815   7.301
 2074SOL     OW23363   0.082   4.667   7.731
 2074SOL    HW123364   0.028   4.682   7.809
 2074SOL    HW223365   0.164   4.632   7.766
 2075SOL     OW23366   0.060   2.872   7.117
 2075SOL    HW123367   0.040   2.927   7.041
 2075SOL    HW223368   0.096   2.791   7.079
 2076SOL     OW23369   6.132   0.979   6.689
 2076SOL    HW123370   6.039   0.963   6.699
 2076SOL    HW223371   6.138   1.061   6.640
 2077SOL     OW23372   5.895   5.334   2.300
 2077SOL    HW123373   5.946   5.284   2.364
 2077SOL    HW223374   5.809   5.344   2.341
 2078SOL     OW23375   4.139   4.850   1.370
 2078SOL    HW123376   4.223   4.818   1.401
 2078SOL    HW223377   4.080   4.837   1.444
 2079SOL     OW23378   5.055   1.429   1.682
 2079SOL    HW123379   5.142   1.463   1.703
 2079SOL    HW223380   5.072   1.356   1.622
 2080SOL     OW23381   3.813   0.734   0.191
 2080SOL    HW123382   3.854   0.820   0.202
 2080SOL    HW223383   3.851   0.700   0.110
 2081SOL     OW23384   1.778   4.819   1.411
 2081SOL    HW123385   1.780   4.766   1.491
 2081SOL    HW223386   1.781   4.756   1.340
 2082SOL     OW23387   2.344   0.280   0.832
 2082SOL    HW123388   2.343   0.250   0.742
 2082SOL    HW223389   2.394   0.213   0.879
 2083SOL     OW23390   0.696   2.000   1.236
 2083SOL    HW123391   0.617   1.955   1.206
 2083SOL    HW223392   0.751   2.006   1.157
 2084SOL     OW23393   4.208   6.389   6.330
 2084SOL    HW123394   4.199   6.307   6.282
 2084SOL    HW223395   4.285   6.431   6.293
 2085SOL     OW23396   6.289   4.934   1.297
 2085SOL    HW123397   6.275   4.984   1.216
 2085SOL    HW223398   6.244   4.985   1.364
 2086SOL     OW23399   0.062   6.447   0.545
 2086SOL    HW123400   0.101   6.360   0.535
 2086SOL    HW223401   0.131   6.508   0.517
 2087SOL     OW23402   0.359   0.288   1.827
 2087SOL    HW123403   0.272   0.330   1.829
 2087SOL    HW223404   0.407   0.338   1.761
 2088SOL     OW23405   3.884   1.994   0.509
 2088SOL    HW123406   3.938   1.949   0.574
 2088SOL    HW223407   3.939   2.065   0.477
 2089SOL     OW23408   3.310   0.251   6.791
 2089SOL    HW123409   3.237   0.189   6.800
 2089SOL    HW223410   3.268   0.336   6.780
 2090SOL     OW23411   1.431   5.868   0.011
 2090SOL    HW123412   1.456   5.960   0.020
 2090SOL    HW223413   1.510   5.819   0.037
 2091SOL     OW23414   3.225   3.379   0.593
 2091SOL    HW123415   3.171   3.458   0.588
 2091SOL    HW223416   3.301   3.398   0.539
 2092SOL     OW23417   0.353   1.753   7.102
 2092SOL    HW123418   0.296   1.740   7.026
 2092SOL    HW223419   0.375   1.846   7.100
 2093SOL     OW23420   3.047   1.503   7.033
 2093SOL    HW123421   2.992   1.461   7.099
 2093SOL    HW223422   3.002   1.486   6.950
 2094SOL     OW23423   4.959   4.603   0.326
 2094SOL    HW123424   4.938   4.643   0.411
 2094SOL    HW223425   5.054   4.592   0.327
 2095SOL     OW23426   3.646   3.758   0.017
 2095SOL    HW123427   3.726   3.706   0.024
 2095SOL    HW223428   3.641   3.806   0.099
 2096SOL     OW23429   1.550   0.975   6.565
 2096SOL    HW123430   1.486   1.028   6.613
 2096SOL    HW223431   1.531   0.885   6.590
 2097SOL     OW23432   1.833   2.768   6.995
 2097SOL    HW123433   1.760   2.791   6.937
 2097SOL    HW223434   1.866   2.853   7.026
 2098SOL     OW23435   3.379   1.545   1.816
 2098SOL    HW123436   3.326   1.538   1.896
 2098SOL    HW223437   3.336   1.485   1.755
 2099SOL     OW23438   0.873   2.110   6.682
 2099SOL    HW123439   0.888   2.202   6.703
 2099SOL    HW223440   0.950   2.065   6.717
 2100SOL     OW23441   1.477   3.240   6.885
 2100SOL    HW123442   1.438   3.219   6.800
 2100SOL    HW223443   1.572   3.234   6.869
 2101SOL     OW23444   5.271   5.388   1.991
 2101SOL    HW123445   5.204   5.322   2.007
 2101SOL    HW223446   5.300   5.415   2.078
 2102SOL     OW23447   6.021   5.265   6.268
 2102SOL    HW123448   5.927   5.254   6.254
 2102SOL    HW223449   6.039   5.355   6.243
 2103SOL     OW23450   3.482   0.541   7.678
 2103SOL    HW123451   3.491   0.526   7.584
 2103SOL    HW223452   3.528   0.468   7.718
 2104SOL     OW23453   2.424   0.062   2.640
 2104SOL    HW123454   2.375   0.043   2.560
 2104SOL    HW223455   2.369   0.124   2.688
 2105SOL     OW23456   4.173   0.883   6.490
 2105SOL    HW123457   4.082   0.913   6.489
 2105SOL    HW223458   4.180   0.830   6.569
 2106SOL     OW23459   6.094   2.130   1.466
 2106SOL    HW123460   6.024   2.185   1.430
 2106SOL    HW223461   6.064   2.110   1.555
 2107SOL     OW23462   0.507   3.739   0.867
 2107SOL    HW123463   0.587   3.786   0.845
 2107SOL    HW223464   0.522   3.650   0.836
 2108SOL     OW23465   0.929   2.386   6.759
 2108SOL    HW123466   1.007   2.380   6.704
 2108SOL    HW223467   0.960   2.425   6.841
 2109SOL     OW23468   2.155   3.620   7.421
 2109SOL    HW123469   2.217   3.691   7.436
 2109SOL    HW223470   2.153   3.571   7.503
 2110SOL     OW23471   3.180   5.601   7.441
 2110SOL    HW123472   3.220   5.515   7.432
 2110SOL    HW223473   3.090   5.582   7.468
 2111SOL     OW23474   2.724   0.672   7.562
 2111SOL    HW123475   2.631   0.652   7.567
 2111SOL    HW223476   2.768   0.597   7.601
 2112SOL     OW23477   3.753   3.718   6.902
 2112SOL    HW123478   3.663   3.721   6.869
 2112SOL    HW223479   3.791   3.640   6.863
 2113SOL     OW23480   2.671   4.930   6.742
 2113SOL    HW123481   2.671   4.883   6.659
 2113SOL    HW223482   2.616   4.877   6.799
 2114SOL     OW23483   1.839   4.148   0.899
 2114SOL    HW123484   1.902   4.111   0.836
 2114SOL    HW223485   1.883   4.141   0.984
 2115SOL     OW23486   2.945   5.919   7.129
 2115SOL    HW123487   2.902   5.836   7.151
 2115SOL    HW223488   2.891   5.985   7.172
 2116SOL     OW23489   3.036   1.739   6.427
 2116SOL    HW123490   2.987   1.821   6.432
 2116SOL    HW223491   3.083   1.734   6.511
 2117SOL     OW23492   5.164   0.523   6.460
 2117SOL    HW123493   5.156   0.428   6.455
 2117SOL    HW223494   5.146   0.554   6.371
 2118SOL     OW23495   5.411   3.290   6.915
 2118SOL    HW123496   5.398   3.202   6.953
 2118SOL    HW223497   5.325   3.315   6.882
 2119SOL     OW23498   6.129   5.621   1.845
 2119SOL    HW123499   6.043   5.601   1.808
 2119SOL    HW223500   6.128   5.578   1.931
 2120SOL     OW23501   5.519   6.337   7.482
 2120SOL    HW123502   5.607   6.302   7.465
 2120SOL    HW223503   5.505   6.402   7.413
 2121SOL     OW23504   2.596   4.980   1.842
 2121SOL    HW123505   2.502   4.960   1.837
 2121SOL    HW223506   2.608   5.015   1.930
 2122SOL     OW23507   6.022   6.297   0.860
 2122SOL    HW123508   6.057   6.280   0.947
 2122SOL    HW223509   5.939   6.343   0.876
 2123SOL     OW23510   3.433   1.311   1.584
 2123SOL    HW123511   3.517   1.277   1.553
 2123SOL    HW223512   3.419   1.391   1.533
 2124SOL     OW23513   0.582   4.288   2.818
 2124SOL    HW123514   0.655   4.301   2.879
 2124SOL    HW223515   0.609   4.333   2.738
 2125SOL     OW23516   6.196   1.626   0.900
 2125SOL    HW123517   6.204   1.717   0.873
 2125SOL    HW223518   6.101   1.608   0.898
 2126SOL     OW23519   1.294   4.792   0.245
 2126SOL    HW123520   1.241   4.777   0.167
 2126SOL    HW223521   1.384   4.781   0.214
 2127SOL     OW23522   1.568   4.805   2.262
 2127SOL    HW123523   1.588   4.766   2.348
 2127SOL    HW223524   1.627   4.760   2.201
 2128SOL     OW23525   3.333   2.947   7.238
 2128SOL    HW123526   3.404   2.949   7.302
 2128SOL    HW223527   3.254   2.931   7.289
 2129SOL     OW23528   0.916   3.436   7.514
 2129SOL    HW123529   1.007   3.454   7.492
 2129SOL    HW223530   0.919   3.359   7.571
 2130SOL     OW23531   5.608   1.808   5.798
 2130SOL    HW123532   5.536   1.753   5.767
 2130SOL    HW223533   5.632   1.861   5.722
 2131SOL     OW23534   1.654   1.554   6.213
 2131SOL    HW123535   1.743   1.522   6.226
 2131SOL    HW223536   1.612   1.487   6.160
 2132SOL     OW23537   4.029   4.337   2.657
 2132SOL    HW123538   3.985   4.394   2.593
 2132SOL    HW223539   4.061   4.263   2.605
 2133SOL     OW23540   5.737   4.851   0.070
 2133SOL    HW123541   5.773   4.864   0.158
 2133SOL    HW223542   5.642   4.845   0.084
 2134SOL     OW23543   2.286   6.063   0.253
 2134SOL    HW123544   2.240   6.095   0.176
 2134SOL    HW223545   2.377   6.052   0.225
 2135SOL     OW23546   5.666   5.434   6.417
 2135SOL    HW123547   5.711   5.479   6.345
 2135SOL    HW223548   5.603   5.498   6.450
 2136SOL     OW23549   6.059   4.065   7.287
 2136SOL    HW123550   6.034   4.007   7.215
 2136SOL    HW223551   6.151   4.043   7.304
 2137SOL     OW23552   2.270   6.401   0.957
 2137SOL    HW123553   2.322   6.373   0.882
 2137SOL    HW223554   2.184   6.420   0.920
 2138SOL     OW23555   5.480   1.227   0.351
 2138SOL    HW123556   5.440   1.287   0.288
 2138SOL    HW223557   5.569   1.213   0.318
 2139SOL     OW23558   2.740   0.951   0.023
 2139SOL    HW123559   2.697   0.945  -0.063
 2139SOL    HW223560   2.825   0.990   0.004
 2140SOL     OW23561   0.514   5.530   0.786
 2140SOL    HW123562   0.449   5.542   0.716
 2140SOL    HW223563   0.565   5.611   0.786
 2141SOL     OW23564   3.501   5.024   7.164
 2141SOL    HW123565   3.590   5.059   7.161
 2141SOL    HW223566   3.513   4.929   7.166
 2142SOL     OW23567   3.690   1.623   1.178
 2142SOL    HW123568   3.632   1.638   1.252
 2142SOL    HW223569   3.770   1.671   1.200
 2143SOL     OW23570   3.185   3.200   5.925
 2143SOL    HW123571   3.266   3.224   5.880
 2143SOL    HW223572   3.141   3.283   5.941
 2144SOL     OW23573   3.712   1.007   1.933
 2144SOL    HW123574   3.771   0.931   1.928
 2144SOL    HW223575   3.756   1.068   1.991
 2145SOL     OW23576   1.596   4.985   0.084
 2145SOL    HW123577   1.634   4.943   0.008
 2145SOL    HW223578   1.593   4.915   0.150
 2146SOL     OW23579   3.761   3.019   7.726
 2146SOL    HW123580   3.773   2.924   7.721
 2146SOL    HW223581   3.797   3.052   7.643
 2147SOL     OW23582   4.786   4.147   0.022
 2147SOL    HW123583   4.867   4.147   0.072
 2147SOL    HW223584   4.810   4.186  -0.062
 2148SOL     OW23585   1.241   2.041   0.018
 2148SOL    HW123586   1.302   1.985  -0.030
 2148SOL    HW223587   1.214   1.988   0.093
 2149SOL     OW23588   2.882   0.768   6.988
 2149SOL    HW123589   2.912   0.822   7.061
 2149SOL    HW223590   2.834   0.696   7.029
 2150SOL     OW23591   2.503   2.483   1.770
 2150SOL    HW123592   2.495   2.393   1.800
 2150SOL    HW223593   2.436   2.531   1.819
 2151SOL     OW23594   2.225   4.603   1.156
 2151SOL    HW123595   2.244   4.570   1.068
 2151SOL    HW223596   2.310   4.630   1.190
 2152SOL     OW23597   1.218   4.688   7.570
 2152SOL    HW123598   1.297   4.741   7.581
 2152SOL    HW223599   1.196   4.697   7.477
 2153SOL     OW23600   0.862   1.367   0.229
 2153SOL    HW123601   0.937   1.337   0.280
 2153SOL    HW223602   0.877   1.330   0.142
 2154SOL     OW23603   4.900   3.583   2.826
 2154SOL    HW123604   4.894   3.524   2.751
 2154SOL    HW223605   4.992   3.609   2.830
 2155SOL     OW23606   0.129   1.829   0.903
 2155SOL    HW123607   0.155   1.813   0.812
 2155SOL    HW223608   0.040   1.862   0.898
 2156SOL     OW23609   5.072   2.301   6.820
 2156SOL    HW123610   5.167   2.292   6.817
 2156SOL    HW223611   5.054   2.383   6.773
 2157SOL     OW23612   0.811   2.746   6.705
 2157SOL    HW123613   0.762   2.812   6.753
 2157SOL    HW223614   0.878   2.716   6.767
 2158SOL     OW23615   1.178   2.472   6.917
 2158SOL    HW123616   1.163   2.408   6.986
 2158SOL    HW223617   1.263   2.511   6.938
 2159SOL     OW23618   0.017   0.817   7.156
 2159SOL    HW123619   0.054   0.791   7.072
 2159SOL    HW223620  -0.037   0.894   7.136
 2160SOL     OW23621   5.470   0.501   7.505
 2160SOL    HW123622   5.412   0.449   7.449
 2160SOL    HW223623   5.425   0.504   7.589
 2161SOL     OW23624   1.005   3.071   2.462
 2161SOL    HW123625   1.074   3.005   2.448
 2161SOL    HW223626   1.036   3.123   2.535
 2162SOL     OW23627   2.453   5.371   0.225
 2162SOL    HW123628   2.362   5.381   0.255
 2162SOL    HW223629   2.445   5.352   0.132
 2163SOL     OW23630   5.750   3.766   2.447
 2163SOL    HW123631   5.828   3.755   2.501
 2163SOL    HW223632   5.677   3.764   2.510
 2164SOL     OW23633   1.415   3.550   0.979
 2164SOL    HW123634   1.454   3.555   0.892
 2164SOL    HW223635   1.375   3.463   0.983
 2165SOL     OW23636   0.331   3.931   3.013
 2165SOL    HW123637   0.237   3.930   2.999
 2165SOL    HW223638   0.362   3.847   2.978
 2166SOL     OW23639   0.529   1.523   0.731
 2166SOL    HW123640   0.562   1.437   0.705
 2166SOL    HW223641   0.607   1.575   0.747
 2167SOL     OW23642   4.573   5.545   7.742
 2167SOL    HW123643   4.578   5.535   7.837
 2167SOL    HW223644   4.653   5.503   7.710
 2168SOL     OW23645   4.070   3.636   0.839
 2168SOL    HW123646   4.007   3.619   0.909
 2168SOL    HW223647   4.140   3.572   0.854
 2169SOL     OW23648   0.207   4.517   5.747
 2169SOL    HW123649   0.160   4.544   5.668
 2169SOL    HW223650   0.173   4.430   5.766
 2170SOL     OW23651   0.193   6.426   1.107
 2170SOL    HW123652   0.207   6.472   1.190
 2170SOL    HW223653   0.249   6.349   1.113
 2171SOL     OW23654   0.176   5.678   0.780
 2171SOL    HW123655   0.176   5.690   0.874
 2171SOL    HW223656   0.166   5.766   0.744
 2172SOL     OW23657   0.510   3.105   2.101
 2172SOL    HW123658   0.568   3.179   2.082
 2172SOL    HW223659   0.559   3.029   2.071
 2173SOL     OW23660   3.879   4.769   2.226
 2173SOL    HW123661   3.838   4.729   2.303
 2173SOL    HW223662   3.965   4.728   2.221
 2174SOL     OW23663   1.732   2.768   0.429
 2174SOL    HW123664   1.813   2.723   0.403
 2174SOL    HW223665   1.668   2.744   0.362
 2175SOL     OW23666   3.973   2.244   0.582
 2175SOL    HW123667   3.909   2.190   0.629
 2175SOL    HW223668   3.954   2.334   0.611
 2176SOL     OW23669   1.919   2.610   1.305
 2176SOL    HW123670   1.839   2.652   1.336
 2176SOL    HW223671   1.896   2.518   1.295
 2177SOL     OW23672   6.207   3.030   0.980
 2177SOL    HW123673   6.147   2.968   1.021
 2177SOL    HW223674   6.162   3.115   0.986
 2178SOL     OW23675   5.396   1.911   6.604
 2178SOL    HW123676   5.442   1.893   6.685
 2178SOL    HW223677   5.345   1.832   6.587
 2179SOL     OW23678   0.208   5.214   0.830
 2179SOL    HW123679   0.199   5.178   0.742
 2179SOL    HW223680   0.292   5.180   0.862
 2180SOL     OW23681   4.570   3.562   6.553
 2180SOL    HW123682   4.479   3.590   6.542
 2180SOL    HW223683   4.565   3.488   6.613
 2181SOL     OW23684   3.554   0.234   6.644
 2181SOL    HW123685   3.630   0.279   6.680
 2181SOL    HW223686   3.499   0.216   6.720
 2182SOL     OW23687   1.308   2.990   6.351
 2182SOL    HW123688   1.372   2.939   6.400
 2182SOL    HW223689   1.359   3.034   6.283
 2183SOL     OW23690   3.497   1.856   6.345
 2183SOL    HW123691   3.409   1.847   6.309
 2183SOL    HW223692   3.485   1.851   6.440
 2184SOL     OW23693   0.339   5.574   0.559
 2184SOL    HW123694   0.329   5.636   0.487
 2184SOL    HW223695   0.266   5.593   0.618
 2185SOL     OW23696   5.270   1.822   1.944
 2185SOL    HW123697   5.250   1.910   1.977
 2185SOL    HW223698   5.189   1.793   1.902
 2186SOL     OW23699   6.048   0.633   1.944
 2186SOL    HW123700   6.049   0.642   1.849
 2186SOL    HW223701   6.013   0.546   1.960
 2187SOL     OW23702   1.899   2.577   1.613
 2187SOL    HW123703   1.993   2.574   1.592
 2187SOL    HW223704   1.867   2.489   1.593
 2188SOL     OW23705   0.559   0.074   7.434
 2188SOL    HW123706   0.550   0.132   7.358
 2188SOL    HW223707   0.470   0.070   7.471
 2189SOL     OW23708   5.263   4.790   6.669
 2189SOL    HW123709   5.259   4.709   6.619
 2189SOL    HW223710   5.172   4.820   6.675
 2190SOL     OW23711   0.734   4.496   6.925
 2190SOL    HW123712   0.772   4.492   6.838
 2190SOL    HW223713   0.648   4.535   6.912
 2191SOL     OW23714   3.820   2.097   0.197
 2191SOL    HW123715   3.911   2.111   0.224
 2191SOL    HW223716   3.825   2.090   0.101
 2192SOL     OW23717   4.974   2.734   0.850
 2192SOL    HW123718   5.066   2.752   0.868
 2192SOL    HW223719   4.939   2.702   0.934
 2193SOL     OW23720   1.340   1.386   0.807
 2193SOL    HW123721   1.346   1.481   0.794
 2193SOL    HW223722   1.254   1.362   0.772
 2194SOL     OW23723   1.789   0.673   1.402
 2194SOL    HW123724   1.836   0.634   1.475
 2194SOL    HW223725   1.845   0.657   1.326
 2195SOL     OW23726   2.480   6.378   1.423
 2195SOL    HW123727   2.555   6.409   1.373
 2195SOL    HW223728   2.415   6.448   1.415
 2196SOL     OW23729   5.831   2.870   6.113
 2196SOL    HW123730   5.785   2.864   6.030
 2196SOL    HW223731   5.924   2.875   6.089
 2197SOL     OW23732   1.451   0.456   7.728
 2197SOL    HW123733   1.474   0.496   7.812
 2197SOL    HW223734   1.383   0.392   7.749
 2198SOL     OW23735   0.958   0.992   7.343
 2198SOL    HW123736   1.016   1.044   7.400
 2198SOL    HW223737   0.879   0.980   7.395
 2199SOL     OW23738   6.354   0.898   1.046
 2199SOL    HW123739   6.352   0.811   1.085
 2199SOL    HW223740   6.273   0.940   1.078
 2200SOL     OW23741   4.908   2.997   0.215
 2200SOL    HW123742   4.892   3.007   0.309
 2200SOL    HW223743   4.923   3.086   0.184
 2201SOL     OW23744   2.045   2.266   5.609
 2201SOL    HW123745   2.121   2.261   5.551
 2201SOL    HW223746   2.009   2.178   5.610
 2202SOL     OW23747   2.875   5.834   7.434
 2202SOL    HW123748   2.964   5.867   7.432
 2202SOL    HW223749   2.870   5.773   7.361
 2203SOL     OW23750   1.319   4.653   2.237
 2203SOL    HW123751   1.344   4.623   2.324
 2203SOL    HW223752   1.396   4.701   2.205
 2204SOL     OW23753   1.044   2.543   1.596
 2204SOL    HW123754   0.976   2.576   1.655
 2204SOL    HW223755   1.043   2.606   1.523
 2205SOL     OW23756   4.085   5.706   6.964
 2205SOL    HW123757   4.035   5.631   6.994
 2205SOL    HW223758   4.031   5.745   6.895
 2206SOL     OW23759   0.271   3.627   1.167
 2206SOL    HW123760   0.270   3.572   1.089
 2206SOL    HW223761   0.358   3.667   1.166
 2207SOL     OW23762   5.956   5.919   7.204
 2207SOL    HW123763   5.995   5.949   7.286
 2207SOL    HW223764   5.948   5.824   7.215
 2208SOL     OW23765   2.822   5.679   6.797
 2208SOL    HW123766   2.834   5.585   6.784
 2208SOL    HW223767   2.774   5.708   6.720
 2209SOL     OW23768   2.432   2.057   0.573
 2209SOL    HW123769   2.428   2.098   0.486
 2209SOL    HW223770   2.438   2.131   0.634
 2210SOL     OW23771   0.458   0.695   0.083
 2210SOL    HW123772   0.429   0.746   0.159
 2210SOL    HW223773   0.553   0.689   0.093
 2211SOL     OW23774   0.751   3.408   2.654
 2211SOL    HW123775   0.756   3.430   2.747
 2211SOL    HW223776   0.842   3.396   2.627
 2212SOL     OW23777   1.291   4.066   7.535
 2212SOL    HW123778   1.259   4.126   7.604
 2212SOL    HW223779   1.308   4.123   7.460
 2213SOL     OW23780   2.269   2.779   6.443
 2213SOL    HW123781   2.176   2.776   6.417
 2213SOL    HW223782   2.285   2.872   6.460
 2214SOL     OW23783   3.247   4.313   0.191
 2214SOL    HW123784   3.224   4.221   0.202
 2214SOL    HW223785   3.270   4.343   0.279
 2215SOL     OW23786   6.169   5.334   2.108
 2215SOL    HW123787   6.171   5.299   2.019
 2215SOL    HW223788   6.116   5.414   2.100
 2216SOL     OW23789   5.666   3.738   0.560
 2216SOL    HW123790   5.601   3.764   0.626
 2216SOL    HW223791   5.702   3.820   0.528
 2217SOL     OW23792   5.667   2.490   1.626
 2217SOL    HW123793   5.661   2.523   1.716
 2217SOL    HW223794   5.583   2.448   1.611
 2218SOL     OW23795   6.266   5.572   0.744
 2218SOL    HW123796   6.268   5.628   0.822
 2218SOL    HW223797   6.173   5.550   0.734
 2219SOL     OW23798   0.391   3.949   6.674
 2219SOL    HW123799   0.409   4.032   6.629
 2219SOL    HW223800   0.369   3.888   6.604
 2220SOL     OW23801   6.038   1.896   6.572
 2220SOL    HW123802   5.991   1.814   6.588
 2220SOL    HW223803   6.015   1.951   6.646
 2221SOL     OW23804   2.847   1.662   1.462
 2221SOL    HW123805   2.889   1.640   1.379
 2221SOL    HW223806   2.764   1.703   1.438
 2222SOL     OW23807   6.139   4.068   0.849
 2222SOL    HW123808   6.063   4.050   0.905
 2222SOL    HW223809   6.196   4.121   0.904
 2223SOL     OW23810   2.152   2.707   1.193
 2223SOL    HW123811   2.071   2.670   1.229
 2223SOL    HW223812   2.218   2.639   1.207
 2224SOL     OW23813   4.106   5.931   0.819
 2224SOL    HW123814   4.166   5.890   0.882
 2224SOL    HW223815   4.155   6.004   0.783
 2225SOL     OW23816   3.909   5.167   1.377
 2225SOL    HW123817   3.904   5.229   1.450
 2225SOL    HW223818   3.998   5.132   1.381
 2226SOL     OW23819   3.231   3.627   0.375
 2226SOL    HW123820   3.300   3.566   0.346
 2226SOL    HW223821   3.276   3.689   0.432
 2227SOL     OW23822   2.818   4.882   2.491
 2227SOL    HW123823   2.744   4.940   2.512
 2227SOL    HW223824   2.781   4.794   2.494
 2228SOL     OW23825   1.771   6.018   0.339
 2228SOL    HW123826   1.802   5.935   0.375
 2228SOL    HW223827   1.847   6.056   0.296
 2229SOL     OW23828   2.607   2.233   2.133
 2229SOL    HW123829   2.590   2.227   2.227
 2229SOL    HW223830   2.694   2.196   2.122
 2230SOL     OW23831   0.804   4.101   7.204
 2230SOL    HW123832   0.804   4.195   7.223
 2230SOL    HW223833   0.744   4.063   7.268
 2231SOL     OW23834   2.667   5.394   1.008
 2231SOL    HW123835   2.636   5.319   1.060
 2231SOL    HW223836   2.743   5.361   0.962
 2232SOL     OW23837   1.714   4.643   1.223
 2232SOL    HW123838   1.720   4.683   1.136
 2232SOL    HW223839   1.669   4.559   1.208
 2233SOL     OW23840   1.503   3.825   7.130
 2233SOL    HW123841   1.469   3.735   7.128
 2233SOL    HW223842   1.580   3.823   7.074
 2234SOL     OW23843   2.124   4.024   6.308
 2234SOL    HW123844   2.094   4.111   6.333
 2234SOL    HW223845   2.145   4.031   6.215
 2235SOL     OW23846   2.000   5.957   0.659
 2235SOL    HW123847   2.089   5.939   0.630
 2235SOL    HW223848   1.944   5.917   0.592
 2236SOL     OW23849   0.651   0.164   6.768
 2236SOL    HW123850   0.706   0.102   6.816
 2236SOL    HW223851   0.698   0.180   6.686
 2237SOL     OW23852   1.539   4.570   0.394
 2237SOL    HW123853   1.608   4.540   0.454
 2237SOL    HW223854   1.508   4.490   0.352
 2238SOL     OW23855   3.358   1.532   0.018
 2238SOL    HW123856   3.435   1.527  -0.040
 2238SOL    HW223857   3.284   1.514  -0.040
 2239SOL     OW23858   4.498   3.092   6.816
 2239SOL    HW123859   4.564   3.048   6.870
 2239SOL    HW223860   4.432   3.122   6.878
 2240SOL     OW23861   1.811   1.999   6.202
 2240SOL    HW123862   1.870   1.933   6.238
 2240SOL    HW223863   1.739   1.950   6.164
 2241SOL     OW23864   2.396   0.424   1.221
 2241SOL    HW123865   2.317   0.456   1.177
 2241SOL    HW223866   2.445   0.504   1.241
 2242SOL     OW23867   4.775   2.609   7.467
 2242SOL    HW123868   4.795   2.636   7.377
 2242SOL    HW223869   4.751   2.690   7.512
 2243SOL     OW23870   3.248   3.124   2.221
 2243SOL    HW123871   3.206   3.159   2.300
 2243SOL    HW223872   3.183   3.064   2.184
 2244SOL     OW23873   0.889   3.553   1.319
 2244SOL    HW123874   0.794   3.544   1.322
 2244SOL    HW223875   0.910   3.555   1.226
 2245SOL     OW23876   0.131   0.657   7.343
 2245SOL    HW123877   0.089   0.728   7.294
 2245SOL    HW223878   0.177   0.605   7.277
 2246SOL     OW23879   5.250   0.956   7.193
 2246SOL    HW123880   5.206   0.905   7.125
 2246SOL    HW223881   5.342   0.932   7.186
 2247SOL     OW23882   3.478   2.706   7.382
 2247SOL    HW123883   3.482   2.624   7.333
 2247SOL    HW223884   3.475   2.680   7.474
 2248SOL     OW23885   2.996   3.863   1.479
 2248SOL    HW123886   3.014   3.785   1.531
 2248SOL    HW223887   2.905   3.851   1.450
 2249SOL     OW23888   1.858   2.521   1.919
 2249SOL    HW123889   1.814   2.512   1.834
 2249SOL    HW223890   1.876   2.431   1.946
 2250SOL     OW23891   0.883   4.719   6.350
 2250SOL    HW123892   0.941   4.732   6.424
 2250SOL    HW223893   0.938   4.678   6.283
 2251SOL     OW23894   0.950   3.906   0.476
 2251SOL    HW123895   0.899   3.987   0.473
 2251SOL    HW223896   0.905   3.847   0.414
 2252SOL     OW23897   5.108   4.468   0.082
 2252SOL    HW123898   5.183   4.430   0.129
 2252SOL    HW223899   5.045   4.489   0.151
 2253SOL     OW23900   1.937   5.289   0.327
 2253SOL    HW123901   1.850   5.270   0.293
 2253SOL    HW223902   1.949   5.226   0.399
 2254SOL     OW23903   5.485   4.337   7.054
 2254SOL    HW123904   5.538   4.273   7.007
 2254SOL    HW223905   5.523   4.421   7.031
 2255SOL     OW23906   5.554   0.404   1.343
 2255SOL    HW123907   5.532   0.361   1.426
 2255SOL    HW223908   5.472   0.407   1.295
 2256SOL     OW23909   0.967   3.668   6.485
 2256SOL    HW123910   0.918   3.639   6.408
 2256SOL    HW223911   0.970   3.763   6.478
 2257SOL     OW23912   4.219   6.418   2.480
 2257SOL    HW123913   4.296   6.448   2.432
 2257SOL    HW223914   4.242   6.330   2.510
 2258SOL     OW23915   3.889   4.521   7.085
 2258SOL    HW123916   3.929   4.607   7.092
 2258SOL    HW223917   3.886   4.488   7.174
 2259SOL     OW23918   3.564   5.305   1.548
 2259SOL    HW123919   3.497   5.332   1.612
 2259SOL    HW223920   3.517   5.249   1.487
 2260SOL     OW23921   1.393   2.458   7.352
 2260SOL    HW123922   1.401   2.442   7.446
 2260SOL    HW223923   1.333   2.533   7.346
 2261SOL     OW23924   3.736   1.304   7.651
 2261SOL    HW123925   3.668   1.247   7.617
 2261SOL    HW223926   3.732   1.383   7.596
 2262SOL     OW23927   1.890   5.603   6.943
 2262SOL    HW123928   1.882   5.508   6.954
 2262SOL    HW223929   1.800   5.632   6.923
 2263SOL     OW23930   4.483   5.899   2.008
 2263SOL    HW123931   4.544   5.887   2.081
 2263SOL    HW223932   4.464   5.993   2.008
 2264SOL     OW23933   0.893   0.100   0.072
 2264SOL    HW123934   0.928   0.072   0.157
 2264SOL    HW223935   0.803   0.128   0.092
 2265SOL     OW23936   4.801   3.978   0.777
 2265SOL    HW123937   4.814   4.065   0.739
 2265SOL    HW223938   4.839   3.917   0.713
 2266SOL     OW23939   1.193   5.620   1.163
 2266SOL    HW123940   1.121   5.659   1.115
 2266SOL    HW223941   1.155   5.544   1.207
 2267SOL     OW23942   5.111   0.176   7.436
 2267SOL    HW123943   5.041   0.112   7.422
 2267SOL    HW223944   5.094   0.212   7.523
 2268SOL     OW23945   4.217   2.125   0.046
 2268SOL    HW123946   4.170   2.054   0.003
 2268SOL    HW223947   4.306   2.091   0.059
 2269SOL     OW23948   5.603   4.829   6.072
 2269SOL    HW123949   5.673   4.791   6.018
 2269SOL    HW223950   5.561   4.753   6.112
 2270SOL     OW23951   0.220   5.879   1.687
 2270SOL    HW123952   0.249   5.961   1.726
 2270SOL    HW223953   0.301   5.831   1.668
 2271SOL     OW23954   3.137   3.628   0.654
 2271SOL    HW123955   3.172   3.618   0.743
 2271SOL    HW223956   3.091   3.712   0.656
 2272SOL     OW23957   2.171   4.265   1.398
 2272SOL    HW123958   2.184   4.288   1.306
 2272SOL    HW223959   2.255   4.287   1.440
 2273SOL     OW23960   4.476   4.875   7.139
 2273SOL    HW123961   4.492   4.846   7.050
 2273SOL    HW223962   4.466   4.795   7.189
 2274SOL     OW23963   5.717   1.292   6.944
 2274SOL    HW123964   5.679   1.210   6.977
 2274SOL    HW223965   5.767   1.265   6.867
 2275SOL     OW23966   0.805   2.998   7.545
 2275SOL    HW123967   0.802   2.903   7.556
 2275SOL    HW223968   0.881   3.026   7.597
 2276SOL     OW23969   1.305   5.184   0.569
 2276SOL    HW123970   1.254   5.181   0.650
 2276SOL    HW223971   1.243   5.157   0.501
 2277SOL     OW23972   0.510   4.623   1.671
 2277SOL    HW123973   0.460   4.703   1.653
 2277SOL    HW223974   0.572   4.649   1.739
 2278SOL     OW23975   6.400   5.257   0.360
 2278SOL    HW123976   6.396   5.229   0.269
 2278SOL    HW223977   6.309   5.254   0.390
 2279SOL     OW23978   5.418   2.034   0.269
 2279SOL    HW123979   5.490   1.987   0.228
 2279SOL    HW223980   5.374   1.970   0.324
 2280SOL     OW23981   4.070   2.437   6.872
 2280SOL    HW123982   4.016   2.423   6.949
 2280SOL    HW223983   4.086   2.349   6.837
 2281SOL     OW23984   3.964   4.013   2.532
 2281SOL    HW123985   4.010   4.032   2.614
 2281SOL    HW223986   4.027   4.039   2.464
 2282SOL     OW23987   1.661   0.144   7.600
 2282SOL    HW123988   1.608   0.213   7.562
 2282SOL    HW223989   1.712   0.187   7.669
 2283SOL     OW23990   4.898   2.805   6.618
 2283SOL    HW123991   4.871   2.868   6.552
 2283SOL    HW223992   4.994   2.813   6.621
 2284SOL     OW23993   2.346   4.543   7.420
 2284SOL    HW123994   2.386   4.603   7.357
 2284SOL    HW223995   2.420   4.497   7.460
 2285SOL     OW23996   0.374   4.976   1.862
 2285SOL    HW123997   0.338   4.952   1.776
 2285SOL    HW223998   0.342   5.065   1.877
 2286SOL     OW23999   6.038   0.670   0.841
 2286SOL    HW124000   6.100   0.732   0.803
 2286SOL    HW224001   6.078   0.584   0.829
 2287SOL     OW24002   1.519   6.422   6.033
 2287SOL    HW124003   1.435   6.397   5.996
 2287SOL    HW224004   1.525   6.371   6.114
 2288SOL     OW24005   3.785   5.153   7.644
 2288SOL    HW124006   3.722   5.088   7.612
 2288SOL    HW224007   3.768   5.231   7.591
 2289SOL     OW24008   1.512   5.189   6.876
 2289SOL    HW124009   1.442   5.206   6.814
 2289SOL    HW224010   1.567   5.123   6.833
 2290SOL     OW24011   3.664   0.880   1.167
 2290SOL    HW124012   3.754   0.886   1.197
 2290SOL    HW224013   3.668   0.829   1.086
 2291SOL     OW24014   4.106   4.358   2.902
 2291SOL    HW124015   4.085   4.378   2.811
 2291SOL    HW224016   4.068   4.431   2.951
 2292SOL     OW24017   5.157   3.566   5.301
 2292SOL    HW124018   5.218   3.506   5.257
 2292SOL    HW224019   5.126   3.518   5.377
 2293SOL     OW24020   6.422   3.345   1.968
 2293SOL    HW124021   6.373   3.265   1.948
 2293SOL    HW224022   6.376   3.383   2.043
 2294SOL     OW24023   4.120   6.352   1.531
 2294SOL    HW124024   4.032   6.348   1.570
 2294SOL    HW224025   4.155   6.264   1.541
 2295SOL     OW24026   1.658   2.413   2.801
 2295SOL    HW124027   1.742   2.375   2.824
 2295SOL    HW224028   1.644   2.386   2.710
 2296SOL     OW24029   4.829   0.974   1.243
 2296SOL    HW124030   4.752   0.941   1.290
 2296SOL    HW224031   4.871   1.033   1.306
 2297SOL     OW24032   0.134   4.834   1.034
 2297SOL    HW124033   0.213   4.871   0.994
 2297SOL    HW224034   0.123   4.749   0.992
 2298SOL     OW24035   3.384   5.765   2.110
 2298SOL    HW124036   3.305   5.778   2.163
 2298SOL    HW224037   3.450   5.737   2.173
 2299SOL     OW24038   2.554   0.220   1.226
 2299SOL    HW124039   2.483   0.284   1.231
 2299SOL    HW224040   2.545   0.181   1.139
 2300SOL     OW24041   4.745   6.000   1.480
 2300SOL    HW124042   4.821   6.047   1.446
 2300SOL    HW224043   4.782   5.936   1.542
 2301SOL     OW24044   5.019   4.221   0.922
 2301SOL    HW124045   5.035   4.171   1.002
 2301SOL    HW224046   5.005   4.311   0.952
 2302SOL     OW24047   1.020   0.722   1.157
 2302SOL    HW124048   1.027   0.774   1.238
 2302SOL    HW224049   1.107   0.729   1.117
 2303SOL     OW24050   6.061   2.389   2.199
 2303SOL    HW124051   6.018   2.312   2.237
 2303SOL    HW224052   6.052   2.457   2.265
 2304SOL     OW24053   5.262   1.220   7.074
 2304SOL    HW124054   5.257   1.142   7.130
 2304SOL    HW224055   5.316   1.193   6.999
 2305SOL     OW24056   3.837   5.920   7.154
 2305SOL    HW124057   3.932   5.919   7.142
 2305SOL    HW224058   3.823   5.974   7.232
 2306SOL     OW24059   5.244   5.214   7.451
 2306SOL    HW124060   5.321   5.247   7.498
 2306SOL    HW224061   5.278   5.142   7.398
 2307SOL     OW24062   3.303   2.293   7.206
 2307SOL    HW124063   3.243   2.229   7.245
 2307SOL    HW224064   3.321   2.258   7.118
 2308SOL     OW24065   5.362   1.045   1.994
 2308SOL    HW124066   5.310   1.042   2.075
 2308SOL    HW224067   5.444   1.086   2.020
 2309SOL     OW24068   6.330   3.151   0.611
 2309SOL    HW124069   6.256   3.093   0.630
 2309SOL    HW224070   6.332   3.213   0.684
 2310SOL     OW24071   5.980   2.028   0.376
 2310SOL    HW124072   5.905   2.080   0.405
 2310SOL    HW224073   6.053   2.089   0.371
 2311SOL     OW24074   4.173   0.660   1.366
 2311SOL    HW124075   4.142   0.610   1.441
 2311SOL    HW224076   4.215   0.595   1.309
 2312SOL     OW24077   3.334   0.699   0.105
 2312SOL    HW124078   3.384   0.670   0.029
 2312SOL    HW224079   3.270   0.629   0.120
 2313SOL     OW24080   2.653   2.429   6.381
 2313SOL    HW124081   2.626   2.520   6.368
 2313SOL    HW224082   2.583   2.391   6.435
 2314SOL     OW24083   2.497   1.495   5.336
 2314SOL    HW124084   2.413   1.482   5.379
 2314SOL    HW224085   2.530   1.578   5.371
 2315SOL     OW24086   1.487   5.631   1.572
 2315SOL    HW124087   1.405   5.681   1.582
 2315SOL    HW224088   1.483   5.565   1.641
 2316SOL     OW24089   6.064   1.318   6.241
 2316SOL    HW124090   6.044   1.411   6.229
 2316SOL    HW224091   6.033   1.276   6.161
 2317SOL     OW24092   1.537   6.242   1.061
 2317SOL    HW124093   1.559   6.236   1.154
 2317SOL    HW224094   1.581   6.167   1.022
 2318SOL     OW24095   2.878   5.830   5.962
 2318SOL    HW124096   2.887   5.760   6.026
 2318SOL    HW224097   2.904   5.791   5.879
 2319SOL     OW24098   5.596   4.870   0.760
 2319SOL    HW124099   5.581   4.912   0.845
 2319SOL    HW224100   5.691   4.876   0.747
 2320SOL     OW24101   6.179   6.344   7.516
 2320SOL    HW124102   6.169   6.289   7.438
 2320SOL    HW224103   6.223   6.288   7.580
 2321SOL     OW24104   6.322   1.246   0.310
 2321SOL    HW124105   6.358   1.264   0.397
 2321SOL    HW224106   6.228   1.261   0.319
 2322SOL     OW24107   4.892   4.957   6.268
 2322SOL    HW124108   4.949   4.881   6.282
 2322SOL    HW224109   4.933   5.003   6.194
 2323SOL     OW24110   4.813   3.542   0.929
 2323SOL    HW124111   4.735   3.490   0.946
 2323SOL    HW224112   4.788   3.631   0.953
 2324SOL     OW24113   0.865   4.533   2.123
 2324SOL    HW124114   0.866   4.628   2.113
 2324SOL    HW224115   0.957   4.508   2.128
 2325SOL     OW24116   6.044   4.597   7.513
 2325SOL    HW124117   5.964   4.598   7.565
 2325SOL    HW224118   6.113   4.623   7.573
 2326SOL     OW24119   5.878   2.818   1.866
 2326SOL    HW124120   5.972   2.811   1.846
 2326SOL    HW224121   5.835   2.794   1.784
 2327SOL     OW24122   5.171   2.799   0.206
 2327SOL    HW124123   5.171   2.834   0.117
 2327SOL    HW224124   5.078   2.784   0.225
 2328SOL     OW24125   2.694   1.135   0.498
 2328SOL    HW124126   2.753   1.208   0.519
 2328SOL    HW224127   2.703   1.124   0.403
 2329SOL     OW24128   0.336   4.707   6.381
 2329SOL    HW124129   0.341   4.676   6.471
 2329SOL    HW224130   0.253   4.755   6.377
 2330SOL     OW24131   1.401   2.445   1.302
 2330SOL    HW124132   1.332   2.380   1.287
 2330SOL    HW224133   1.353   2.525   1.325
 2331SOL     OW24134   4.926   3.471   7.618
 2331SOL    HW124135   4.924   3.544   7.680
 2331SOL    HW224136   4.921   3.513   7.532
 2332SOL     OW24137   0.726   2.558   1.981
 2332SOL    HW124138   0.655   2.517   2.031
 2332SOL    HW224139   0.687   2.638   1.945
 2333SOL     OW24140   3.059   0.647   7.234
 2333SOL    HW124141   3.119   0.695   7.292
 2333SOL    HW224142   3.096   0.659   7.147
 2334SOL     OW24143   2.600   4.455   6.704
 2334SOL    HW124144   2.543   4.526   6.735
 2334SOL    HW224145   2.637   4.488   6.622
 2335SOL     OW24146   2.244   5.687   6.369
 2335SOL    HW124147   2.313   5.651   6.312
 2335SOL    HW224148   2.291   5.746   6.428
 2336SOL     OW24149   1.844   5.786   0.521
 2336SOL    HW124150   1.863   5.699   0.485
 2336SOL    HW224151   1.814   5.768   0.610
 2337SOL     OW24152   2.717   6.267   0.572
 2337SOL    HW124153   2.682   6.180   0.592
 2337SOL    HW224154   2.812   6.257   0.581
 2338SOL     OW24155   2.913   4.205   6.221
 2338SOL    HW124156   3.004   4.201   6.252
 2338SOL    HW224157   2.910   4.143   6.148
 2339SOL     OW24158   2.742   0.132   7.586
 2339SOL    HW124159   2.723   0.047   7.624
 2339SOL    HW224160   2.714   0.195   7.653
 2340SOL     OW24161   5.236   0.482   7.671
 2340SOL    HW124162   5.249   0.489   7.766
 2340SOL    HW224163   5.204   0.393   7.658
 2341SOL     OW24164   0.442   2.800   6.853
 2341SOL    HW124165   0.456   2.721   6.906
 2341SOL    HW224166   0.368   2.844   6.896
 2342SOL     OW24167   2.816   6.027   0.104
 2342SOL    HW124168   2.846   6.010   0.194
 2342SOL    HW224169   2.864   6.106   0.078
 2343SOL     OW24170   6.191   0.459   6.010
 2343SOL    HW124171   6.130   0.457   6.083
 2343SOL    HW224172   6.270   0.415   6.043
 2344SOL     OW24173   3.120   4.109   6.515
 2344SOL    HW124174   3.128   4.124   6.421
 2344SOL    HW224175   3.042   4.054   6.523
 2345SOL     OW24176   6.275   4.005   2.026
 2345SOL    HW124177   6.189   3.997   2.067
 2345SOL    HW224178   6.287   3.922   1.979
 2346SOL     OW24179   6.098   3.763   6.660
 2346SOL    HW124180   6.165   3.713   6.707
 2346SOL    HW224181   6.117   3.855   6.682
 2347SOL     OW24182   2.731   2.469   2.839
 2347SOL    HW124183   2.821   2.479   2.871
 2347SOL    HW224184   2.738   2.405   2.768
 2348SOL     OW24185   3.065   4.245   2.225
 2348SOL    HW124186   3.031   4.201   2.303
 2348SOL    HW224187   3.090   4.332   2.256
 2349SOL     OW24188   6.045   1.308   7.131
 2349SOL    HW124189   6.044   1.222   7.089
 2349SOL    HW224190   5.995   1.365   7.071
 2350SOL     OW24191   3.363   0.928   1.142
 2350SOL    HW124192   3.332   0.852   1.093
 2350SOL    HW224193   3.458   0.915   1.149
 2351SOL     OW24194   3.487   3.025   2.350
 2351SOL    HW124195   3.398   3.020   2.385
 2351SOL    HW224196   3.543   3.032   2.428
 2352SOL     OW24197   3.119   3.736   7.527
 2352SOL    HW124198   3.064   3.798   7.575
 2352SOL    HW224199   3.199   3.729   7.581
 2353SOL     OW24200   2.502   5.122   0.342
 2353SOL    HW124201   2.573   5.064   0.315
 2353SOL    HW224202   2.511   5.199   0.285
 2354SOL     OW24203   3.169   6.434   7.638
 2354SOL    HW124204   3.214   6.515   7.663
 2354SOL    HW224205   3.234   6.365   7.650
 2355SOL     OW24206   4.987   5.504   7.020
 2355SOL    HW124207   4.965   5.545   6.936
 2355SOL    HW224208   4.904   5.470   7.052
 2356SOL     OW24209   3.404   3.160   0.224
 2356SOL    HW124210   3.433   3.221   0.292
 2356SOL    HW224211   3.389   3.077   0.271
 2357SOL     OW24212   1.963   5.179   6.631
 2357SOL    HW124213   2.033   5.150   6.572
 2357SOL    HW224214   1.973   5.274   6.636
 2358SOL     OW24215   5.275   3.528   7.116
 2358SOL    HW124216   5.209   3.559   7.178
 2358SOL    HW224217   5.358   3.547   7.159
 2359SOL     OW24218   2.174   2.007   5.786
 2359SOL    HW124219   2.096   1.994   5.733
 2359SOL    HW224220   2.246   2.009   5.724
 2360SOL     OW24221   4.085   1.397   2.094
 2360SOL    HW124222   4.089   1.492   2.111
 2360SOL    HW224223   4.096   1.357   2.180
 2361SOL     OW24224   5.814   2.429   2.006
 2361SOL    HW124225   5.782   2.517   2.025
 2361SOL    HW224226   5.876   2.410   2.076
 2362SOL     OW24227   4.182   0.918   6.226
 2362SOL    HW124228   4.086   0.918   6.223
 2362SOL    HW224229   4.203   0.915   6.319
 2363SOL     OW24230   4.073   4.564   6.041
 2363SOL    HW124231   4.041   4.653   6.051
 2363SOL    HW224232   3.995   4.509   6.049
 2364SOL     OW24233   0.913   5.519   1.588
 2364SOL    HW124234   0.913   5.583   1.659
 2364SOL    HW224235   0.924   5.572   1.509
 2365SOL     OW24236   5.896   3.721   7.471
 2365SOL    HW124237   5.851   3.683   7.396
 2365SOL    HW224238   5.987   3.730   7.443
 2366SOL     OW24239   0.701   1.340   0.655
 2366SOL    HW124240   0.682   1.327   0.562
 2366SOL    HW224241   0.738   1.257   0.684
 2367SOL     OW24242   4.703   2.152   7.704
 2367SOL    HW124243   4.667   2.118   7.622
 2367SOL    HW224244   4.744   2.235   7.679
 2368SOL     OW24245   0.125   3.549   2.142
 2368SOL    HW124246   0.031   3.556   2.163
 2368SOL    HW224247   0.127   3.508   2.056
 2369SOL     OW24248   4.000   0.076   6.060
 2369SOL    HW124249   4.078   0.025   6.077
 2369SOL    HW224250   3.937   0.048   6.127
 2370SOL     OW24251   3.299   2.454   7.433
 2370SOL    HW124252   3.292   2.394   7.359
 2370SOL    HW224253   3.376   2.424   7.481
 2371SOL     OW24254   5.906   1.589   1.114
 2371SOL    HW124255   5.954   1.515   1.151
 2371SOL    HW224256   5.890   1.648   1.188
 2372SOL     OW24257   3.054   2.478   0.395
 2372SOL    HW124258   3.012   2.441   0.473
 2372SOL    HW224259   2.985   2.480   0.329
 2373SOL     OW24260   0.375   4.518   7.446
 2373SOL    HW124261   0.287   4.541   7.476
 2373SOL    HW224262   0.415   4.603   7.423
 2374SOL     OW24263   0.323   6.288   0.361
 2374SOL    HW124264   0.297   6.210   0.409
 2374SOL    HW224265   0.265   6.289   0.284
 2375SOL     OW24266   1.079   0.992   0.767
 2375SOL    HW124267   1.094   1.084   0.745
 2375SOL    HW224268   1.030   0.994   0.849
 2376SOL     OW24269   2.162   1.527   6.394
 2376SOL    HW124270   2.129   1.530   6.484
 2376SOL    HW224271   2.088   1.496   6.342
 2377SOL     OW24272   1.885   1.901   0.145
 2377SOL    HW124273   1.810   1.842   0.154
 2377SOL    HW224274   1.953   1.848   0.102
 2378SOL     OW24275   0.644   1.261   7.702
 2378SOL    HW124276   0.599   1.267   7.618
 2378SOL    HW224277   0.651   1.352   7.732
 2379SOL     OW24278   1.855   4.735   6.402
 2379SOL    HW124279   1.893   4.779   6.478
 2379SOL    HW224280   1.911   4.760   6.329
 2380SOL     OW24281   2.569   5.616   7.609
 2380SOL    HW124282   2.648   5.669   7.614
 2380SOL    HW224283   2.502   5.667   7.654
 2381SOL     OW24284   3.051   4.392   7.037
 2381SOL    HW124285   3.026   4.481   7.014
 2381SOL    HW224286   3.073   4.351   6.953
 2382SOL     OW24287   2.275   5.142   0.954
 2382SOL    HW124288   2.193   5.094   0.968
 2382SOL    HW224289   2.331   5.080   0.908
 2383SOL     OW24290   0.633   5.611   0.456
 2383SOL    HW124291   0.609   5.582   0.368
 2383SOL    HW224292   0.549   5.624   0.500
 2384SOL     OW24293   2.923   0.627   1.460
 2384SOL    HW124294   2.913   0.629   1.365
 2384SOL    HW224295   3.013   0.653   1.476
 2385SOL     OW24296   3.984   0.664   0.614
 2385SOL    HW124297   3.959   0.574   0.593
 2385SOL    HW224298   4.036   0.693   0.539
 2386SOL     OW24299   5.457   2.357   6.311
 2386SOL    HW124300   5.402   2.282   6.336
 2386SOL    HW224301   5.413   2.393   6.234
 2387SOL     OW24302   4.220   1.181   6.501
 2387SOL    HW124303   4.187   1.092   6.511
 2387SOL    HW224304   4.300   1.172   6.450
 2388SOL     OW24305   1.574   5.102   1.982
 2388SOL    HW124306   1.578   5.191   2.015
 2388SOL    HW224307   1.500   5.102   1.921
 2389SOL     OW24308   4.369   4.793   0.531
 2389SOL    HW124309   4.310   4.843   0.474
 2389SOL    HW224310   4.456   4.827   0.511
 2390SOL     OW24311   3.307   0.344   0.771
 2390SOL    HW124312   3.373   0.287   0.810
 2390SOL    HW224313   3.338   0.356   0.681
 2391SOL     OW24314   0.780   1.638   6.167
 2391SOL    HW124315   0.784   1.716   6.111
 2391SOL    HW224316   0.763   1.671   6.255
 2392SOL     OW24317   1.448   5.497   1.329
 2392SOL    HW124318   1.358   5.521   1.351
 2392SOL    HW224319   1.502   5.554   1.384
 2393SOL     OW24320   3.539   3.998   1.850
 2393SOL    HW124321   3.483   3.921   1.845
 2393SOL    HW224322   3.627   3.963   1.866
 2394SOL     OW24323   1.914   5.486   0.737
 2394SOL    HW124324   1.971   5.420   0.776
 2394SOL    HW224325   1.961   5.516   0.659
 2395SOL     OW24326   3.784   3.885   1.817
 2395SOL    HW124327   3.760   3.905   1.726
 2395SOL    HW224328   3.766   3.791   1.826
 2396SOL     OW24329   1.483   2.860   6.084
 2396SOL    HW124330   1.456   2.798   6.151
 2396SOL    HW224331   1.576   2.873   6.098
 2397SOL     OW24332   4.005   0.353   7.350
 2397SOL    HW124333   4.045   0.377   7.266
 2397SOL    HW224334   4.072   0.301   7.394
 2398SOL     OW24335   3.099   2.753   0.350
 2398SOL    HW124336   3.020   2.763   0.298
 2398SOL    HW224337   3.105   2.658   0.366
 2399SOL     OW24338   5.768   0.604   0.598
 2399SOL    HW124339   5.745   0.675   0.539
 2399SOL    HW224340   5.850   0.631   0.639
 2400SOL     OW24341   4.658   6.021   7.191
 2400SOL    HW124342   4.676   6.091   7.128
 2400SOL    HW224343   4.613   5.954   7.141
 2401SOL     OW24344   0.741   3.083   1.576
 2401SOL    HW124345   0.706   2.999   1.605
 2401SOL    HW224346   0.767   3.127   1.657
 2402SOL     OW24347   1.850   1.554   6.002
 2402SOL    HW124348   1.816   1.477   5.955
 2402SOL    HW224349   1.838   1.627   5.941
 2403SOL     OW24350   3.523   6.326   7.000
 2403SOL    HW124351   3.428   6.321   7.001
 2403SOL    HW224352   3.545   6.352   6.911
 2404SOL     OW24353   4.408   5.576   1.078
 2404SOL    HW124354   4.348   5.505   1.052
 2404SOL    HW224355   4.384   5.595   1.168
 2405SOL     OW24356   1.385   0.802   1.592
 2405SOL    HW124357   1.304   0.800   1.541
 2405SOL    HW224358   1.357   0.788   1.682
 2406SOL     OW24359   3.668   0.099   0.665
 2406SOL    HW124360   3.697   0.020   0.710
 2406SOL    HW224361   3.742   0.160   0.674
 2407SOL     OW24362   5.467   2.954   7.742
 2407SOL    HW124363   5.474   2.979   7.650
 2407SOL    HW224364   5.373   2.946   7.757
 2408SOL     OW24365   1.412   1.027   2.125
 2408SOL    HW124366   1.382   1.115   2.148
 2408SOL    HW224367   1.396   0.975   2.203
 2409SOL     OW24368   0.448   5.630   7.085
 2409SOL    HW124369   0.514   5.696   7.109
 2409SOL    HW224370   0.496   5.567   7.031
 2410SOL     OW24371   1.443   2.691   5.588
 2410SOL    HW124372   1.369   2.749   5.607
 2410SOL    HW224373   1.417   2.644   5.508
 2411SOL     OW24374   6.433   4.053   2.758
 2411SOL    HW124375   6.512   3.998   2.754
 2411SOL    HW224376   6.459   4.135   2.716
 2412SOL     OW24377   3.996   4.991   7.649
 2412SOL    HW124378   3.932   5.061   7.638
 2412SOL    HW224379   4.071   5.034   7.691
 2413SOL     OW24380   0.612   6.285   7.459
 2413SOL    HW124381   0.683   6.309   7.518
 2413SOL    HW224382   0.573   6.369   7.434
 2414SOL     OW24383   0.031   5.338   7.316
 2414SOL    HW124384   0.031   5.259   7.262
 2414SOL    HW224385   0.087   5.316   7.390
 2415SOL     OW24386   1.588   0.625   5.625
 2415SOL    HW124387   1.524   0.601   5.692
 2415SOL    HW224388   1.614   0.541   5.586
 2416SOL     OW24389   4.779   0.310   1.225
 2416SOL    HW124390   4.801   0.403   1.226
 2416SOL    HW224391   4.852   0.268   1.271
 2417SOL     OW24392   4.276   4.968   6.752
 2417SOL    HW124393   4.359   4.940   6.791
 2417SOL    HW224394   4.293   5.057   6.721
 2418SOL     OW24395   2.385   0.635   5.730
 2418SOL    HW124396   2.342   0.671   5.653
 2418SOL    HW224397   2.398   0.542   5.709
 2419SOL     OW24398   4.883   2.758   6.894
 2419SOL    HW124399   4.872   2.663   6.889
 2419SOL    HW224400   4.903   2.785   6.804
 2420SOL     OW24401   4.505   2.573   7.320
 2420SOL    HW124402   4.595   2.561   7.290
 2420SOL    HW224403   4.510   2.568   7.415
 2421SOL     OW24404   1.605   2.130   6.996
 2421SOL    HW124405   1.653   2.081   7.063
 2421SOL    HW224406   1.584   2.214   7.038
 2422SOL     OW24407   4.099   4.704   6.906
 2422SOL    HW124408   4.019   4.721   6.855
 2422SOL    HW224409   4.072   4.715   6.997
 2423SOL     OW24410   5.694   0.114   7.068
 2423SOL    HW124411   5.607   0.075   7.073
 2423SOL    HW224412   5.706   0.158   7.152
 2424SOL     OW24413   6.178   5.997   6.452
 2424SOL    HW124414   6.169   5.904   6.434
 2424SOL    HW224415   6.205   6.001   6.544
 2425SOL     OW24416   2.026   1.787   6.282
 2425SOL    HW124417   2.041   1.693   6.296
 2425SOL    HW224418   2.053   1.802   6.191
 2426SOL     OW24419   5.158   4.561   7.080
 2426SOL    HW124420   5.072   4.534   7.046
 2426SOL    HW224421   5.210   4.580   7.002
 2427SOL     OW24422   4.788   4.740   5.735
 2427SOL    HW124423   4.776   4.835   5.744
 2427SOL    HW224424   4.699   4.705   5.733
 2428SOL     OW24425   4.471   1.871   2.507
 2428SOL    HW124426   4.412   1.846   2.578
 2428SOL    HW224427   4.558   1.873   2.548
 2429SOL     OW24428   4.980   2.254   0.964
 2429SOL    HW124429   5.020   2.277   0.880
 2429SOL    HW224430   5.005   2.326   1.022
 2430SOL     OW24431   4.918   2.380   1.343
 2430SOL    HW124432   4.920   2.295   1.387
 2430SOL    HW224433   5.009   2.407   1.338
 2431SOL     OW24434   5.459   3.803   6.971
 2431SOL    HW124435   5.517   3.799   7.047
 2431SOL    HW224436   5.505   3.753   6.904
 2432SOL     OW24437   5.429   6.073   1.358
 2432SOL    HW124438   5.383   5.989   1.369
 2432SOL    HW224439   5.521   6.049   1.350
 2433SOL     OW24440   6.170   4.558   1.516
 2433SOL    HW124441   6.157   4.623   1.447
 2433SOL    HW224442   6.230   4.599   1.577
 2434SOL     OW24443   3.115   0.104   0.172
 2434SOL    HW124444   3.113   0.198   0.151
 2434SOL    HW224445   3.181   0.067   0.114
 2435SOL     OW24446   4.811   2.964   6.413
 2435SOL    HW124447   4.784   3.054   6.398
 2435SOL    HW224448   4.809   2.923   6.326
 2436SOL     OW24449   1.369   4.115   0.684
 2436SOL    HW124450   1.383   4.095   0.592
 2436SOL    HW224451   1.305   4.051   0.713
 2437SOL     OW24452   2.475   2.378   6.582
 2437SOL    HW124453   2.423   2.315   6.631
 2437SOL    HW224454   2.527   2.424   6.648
 2438SOL     OW24455   1.901   1.574   0.195
 2438SOL    HW124456   1.971   1.510   0.183
 2438SOL    HW224457   1.831   1.525   0.237
 2439SOL     OW24458   5.005   2.526   6.694
 2439SOL    HW124459   5.049   2.580   6.628
 2439SOL    HW224460   4.914   2.556   6.692
 2440SOL     OW24461   6.421   5.200   0.095
 2440SOL    HW124462   6.510   5.209   0.130
 2440SOL    HW224463   6.428   5.133   0.027
 2441SOL     OW24464   3.853   3.067   7.481
 2441SOL    HW124465   3.858   3.145   7.427
 2441SOL    HW224466   3.912   3.005   7.439
 2442SOL     OW24467   5.228   1.699   6.692
 2442SOL    HW124468   5.150   1.646   6.711
 2442SOL    HW224469   5.296   1.635   6.672
 2443SOL     OW24470   1.554   4.597   6.703
 2443SOL    HW124471   1.569   4.575   6.795
 2443SOL    HW224472   1.586   4.522   6.654
 2444SOL     OW24473   0.580   2.531   2.565
 2444SOL    HW124474   0.486   2.552   2.572
 2444SOL    HW224475   0.624   2.610   2.597
 2445SOL     OW24476   5.478   1.429   2.211
 2445SOL    HW124477   5.385   1.428   2.189
 2445SOL    HW224478   5.523   1.444   2.127
 2446SOL     OW24479   0.213   4.371   0.351
 2446SOL    HW124480   0.198   4.286   0.310
 2446SOL    HW224481   0.242   4.350   0.440
 2447SOL     OW24482   4.721   1.052   6.698
 2447SOL    HW124483   4.664   1.124   6.670
 2447SOL    HW224484   4.661   0.982   6.722
 2448SOL     OW24485   0.382   3.401   0.523
 2448SOL    HW124486   0.438   3.332   0.558
 2448SOL    HW224487   0.391   3.392   0.428
 2449SOL     OW24488   5.308   3.175   6.132
 2449SOL    HW124489   5.235   3.152   6.191
 2449SOL    HW224490   5.321   3.269   6.145
 2450SOL     OW24491   3.315   3.829   7.156
 2450SOL    HW124492   3.325   3.908   7.102
 2450SOL    HW224493   3.405   3.798   7.170
 2451SOL     OW24494   3.649   0.797   5.981
 2451SOL    HW124495   3.693   0.734   6.038
 2451SOL    HW224496   3.561   0.806   6.018
 2452SOL     OW24497   5.486   3.315   2.733
 2452SOL    HW124498   5.522   3.394   2.773
 2452SOL    HW224499   5.394   3.337   2.718
 2453SOL     OW24500   2.202   1.599   7.632
 2453SOL    HW124501   2.262   1.643   7.573
 2453SOL    HW224502   2.164   1.668   7.686
 2454SOL     OW24503   1.377   6.414   5.659
 2454SOL    HW124504   1.332   6.480   5.711
 2454SOL    HW224505   1.459   6.455   5.632
 2455SOL     OW24506   5.037   3.751   6.528
 2455SOL    HW124507   4.992   3.772   6.610
 2455SOL    HW224508   4.995   3.671   6.497
 2456SOL     OW24509   3.063   5.715   6.991
 2456SOL    HW124510   3.007   5.720   6.914
 2456SOL    HW224511   3.044   5.795   7.040
 2457SOL     OW24512   0.319   2.358   1.154
 2457SOL    HW124513   0.373   2.318   1.085
 2457SOL    HW224514   0.317   2.451   1.132
 2458SOL     OW24515   4.279   5.219   6.170
 2458SOL    HW124516   4.230   5.300   6.160
 2458SOL    HW224517   4.225   5.152   6.128
 2459SOL     OW24518   4.580   1.940   0.397
 2459SOL    HW124519   4.559   1.954   0.305
 2459SOL    HW224520   4.495   1.941   0.441
 2460SOL     OW24521   5.083   1.759   0.086
 2460SOL    HW124522   5.162   1.709   0.103
 2460SOL    HW224523   5.054   1.788   0.172
 2461SOL     OW24524   0.678   3.201   1.026
 2461SOL    HW124525   0.705   3.154   0.948
 2461SOL    HW224526   0.760   3.221   1.072
 2462SOL     OW24527   3.216   4.644   1.879
 2462SOL    HW124528   3.234   4.550   1.867
 2462SOL    HW224529   3.141   4.646   1.938
 2463SOL     OW24530   3.413   4.839   7.442
 2463SOL    HW124531   3.412   4.767   7.505
 2463SOL    HW224532   3.440   4.799   7.359
 2464SOL     OW24533   1.745   1.414   7.043
 2464SOL    HW124534   1.708   1.404   6.955
 2464SOL    HW224535   1.801   1.337   7.054
 2465SOL     OW24536   1.717   4.500   6.514
 2465SOL    HW124537   1.768   4.569   6.471
 2465SOL    HW224538   1.719   4.427   6.452
 2466SOL     OW24539   0.819   2.594   6.046
 2466SOL    HW124540   0.726   2.583   6.067
 2466SOL    HW224541   0.822   2.666   5.984
 2467SOL     OW24542   2.482   0.086   6.563
 2467SOL    HW124543   2.468   0.109   6.654
 2467SOL    HW224544   2.404   0.119   6.517
 2468SOL     OW24545   5.685   3.341   7.439
 2468SOL    HW124546   5.618   3.283   7.404
 2468SOL    HW224547   5.671   3.339   7.534
 2469SOL     OW24548   4.759   5.082   1.881
 2469SOL    HW124549   4.787   4.996   1.850
 2469SOL    HW224550   4.751   5.071   1.976
 2470SOL     OW24551   0.954   1.662   0.121
 2470SOL    HW124552   0.889   1.591   0.119
 2470SOL    HW224553   0.913   1.730   0.174
 2471SOL     OW24554   0.086   1.193   1.443
 2471SOL    HW124555   0.128   1.221   1.361
 2471SOL    HW224556   0.144   1.126   1.478
 2472SOL     OW24557   4.680   2.425   5.822
 2472SOL    HW124558   4.587   2.446   5.825
 2472SOL    HW224559   4.705   2.411   5.913
 2473SOL     OW24560   6.319   5.992   7.139
 2473SOL    HW124561   6.274   5.950   7.066
 2473SOL    HW224562   6.412   5.975   7.123
 2474SOL     OW24563   1.384   2.157   6.328
 2474SOL    HW124564   1.334   2.145   6.247
 2474SOL    HW224565   1.331   2.217   6.380
 2475SOL     OW24566   3.952   5.513   0.510
 2475SOL    HW124567   3.928   5.569   0.584
 2475SOL    HW224568   3.948   5.424   0.546
 2476SOL     OW24569   2.101   5.652   1.455
 2476SOL    HW124570   2.066   5.676   1.540
 2476SOL    HW224571   2.181   5.704   1.446
 2477SOL     OW24572   4.476   0.916   7.054
 2477SOL    HW124573   4.404   0.976   7.071
 2477SOL    HW224574   4.464   0.846   7.118
 2478SOL     OW24575   1.602   3.858   2.147
 2478SOL    HW124576   1.533   3.916   2.114
 2478SOL    HW224577   1.656   3.915   2.202
 2479SOL     OW24578   5.893   5.248   6.843
 2479SOL    HW124579   5.859   5.320   6.790
 2479SOL    HW224580   5.981   5.277   6.869
 2480SOL     OW24581   4.491   6.250   0.679
 2480SOL    HW124582   4.561   6.299   0.723
 2480SOL    HW224583   4.534   6.213   0.601
 2481SOL     OW24584   4.250   6.155   0.790
 2481SOL    HW124585   4.334   6.197   0.771
 2481SOL    HW224586   4.185   6.224   0.778
 2482SOL     OW24587   5.491   5.129   0.157
 2482SOL    HW124588   5.523   5.159   0.242
 2482SOL    HW224589   5.568   5.136   0.099
 2483SOL     OW24590   3.619   2.182   5.627
 2483SOL    HW124591   3.672   2.118   5.579
 2483SOL    HW224592   3.529   2.165   5.601
 2484SOL     OW24593   4.184   5.428   1.047
 2484SOL    HW124594   4.166   5.352   0.991
 2484SOL    HW224595   4.100   5.447   1.088
 2485SOL     OW24596   1.019   0.628   0.469
 2485SOL    HW124597   1.021   0.613   0.374
 2485SOL    HW224598   0.944   0.577   0.500
 2486SOL     OW24599   0.753   0.122   0.773
 2486SOL    HW124600   0.662   0.148   0.787
 2486SOL    HW224601   0.786   0.103   0.860
 2487SOL     OW24602   5.206   1.817   2.511
 2487SOL    HW124603   5.301   1.816   2.522
 2487SOL    HW224604   5.179   1.727   2.528
 2488SOL     OW24605   4.393   3.683   0.845
 2488SOL    HW124606   4.350   3.671   0.760
 2488SOL    HW224607   4.449   3.760   0.833
 2489SOL     OW24608   2.471   4.986   6.074
 2489SOL    HW124609   2.399   5.034   6.033
 2489SOL    HW224610   2.547   5.004   6.018
 2490SOL     OW24611   0.789   0.561   1.185
 2490SOL    HW124612   0.879   0.585   1.163
 2490SOL    HW224613   0.764   0.496   1.119
 2491SOL     OW24614   6.412   3.063   1.438
 2491SOL    HW124615   6.508   3.068   1.439
 2491SOL    HW224616   6.387   3.103   1.355
 2492SOL     OW24617   1.357   3.722   1.179
 2492SOL    HW124618   1.436   3.772   1.158
 2492SOL    HW224619   1.344   3.667   1.102
 2493SOL     OW24620   6.124   3.344   0.704
 2493SOL    HW124621   6.082   3.313   0.785
 2493SOL    HW224622   6.088   3.432   0.690
 2494SOL     OW24623   0.187   5.905   6.100
 2494SOL    HW124624   0.119   5.971   6.085
 2494SOL    HW224625   0.264   5.956   6.126
 2495SOL     OW24626   1.469   3.643   0.391
 2495SOL    HW124627   1.429   3.723   0.425
 2495SOL    HW224628   1.541   3.673   0.335
 2496SOL     OW24629   3.027   3.943   7.682
 2496SOL    HW124630   2.946   3.903   7.650
 2496SOL    HW224631   3.010   4.037   7.682
 2497SOL     OW24632   0.389   1.247   0.136
 2497SOL    HW124633   0.374   1.312   0.068
 2497SOL    HW224634   0.406   1.298   0.215
 2498SOL     OW24635   4.451   1.183   0.112
 2498SOL    HW124636   4.527   1.166   0.168
 2498SOL    HW224637   4.486   1.186   0.023
 2499SOL     OW24638   1.177   3.735   0.496
 2499SOL    HW124639   1.101   3.793   0.498
 2499SOL    HW224640   1.142   3.648   0.513
 2500SOL     OW24641   2.644   3.749   1.993
 2500SOL    HW124642   2.698   3.828   1.985
 2500SOL    HW224643   2.554   3.782   1.987
 2501SOL     OW24644   3.624   1.999   0.571
 2501SOL    HW124645   3.590   2.082   0.537
 2501SOL    HW224646   3.717   2.015   0.583
 2502SOL     OW24647   5.484   0.774   7.599
 2502SOL    HW124648   5.465   0.695   7.549
 2502SOL    HW224649   5.456   0.846   7.542
 2503SOL     OW24650   4.629   2.860   6.178
 2503SOL    HW124651   4.713   2.850   6.132
 2503SOL    HW224652   4.603   2.770   6.198
 2504SOL     OW24653   5.984   4.972   6.325
 2504SOL    HW124654   5.902   5.003   6.364
 2504SOL    HW224655   5.976   4.994   6.232
 2505SOL     OW24656   5.028   2.728   1.300
 2505SOL    HW124657   4.955   2.733   1.362
 2505SOL    HW224658   5.033   2.815   1.262
 2506SOL     OW24659   2.389   3.807   7.015
 2506SOL    HW124660   2.438   3.859   7.079
 2506SOL    HW224661   2.327   3.868   6.976
 2507SOL     OW24662   2.568   3.026   6.891
 2507SOL    HW124663   2.474   3.037   6.907
 2507SOL    HW224664   2.596   3.111   6.857
 2508SOL     OW24665   4.641   3.309   1.129
 2508SOL    HW124666   4.590   3.229   1.119
 2508SOL    HW224667   4.598   3.372   1.072
 2509SOL     OW24668   4.240   1.567   6.900
 2509SOL    HW124669   4.328   1.594   6.925
 2509SOL    HW224670   4.217   1.622   6.826
 2510SOL     OW24671   0.885   1.672   6.457
 2510SOL    HW124672   0.911   1.759   6.426
 2510SOL    HW224673   0.860   1.686   6.548
 2511SOL     OW24674   5.307   6.048   0.566
 2511SOL    HW124675   5.329   6.040   0.658
 2511SOL    HW224676   5.236   6.112   0.563
 2512SOL     OW24677   3.877   3.718   0.145
 2512SOL    HW124678   3.910   3.656   0.209
 2512SOL    HW224679   3.927   3.798   0.159
 2513SOL     OW24680   3.058   4.898   0.951
 2513SOL    HW124681   3.127   4.854   1.001
 2513SOL    HW224682   3.064   4.990   0.976
 2514SOL     OW24683   2.726   4.224   1.780
 2514SOL    HW124684   2.775   4.283   1.837
 2514SOL    HW224685   2.663   4.281   1.736
 2515SOL     OW24686   6.136   1.449   6.617
 2515SOL    HW124687   6.121   1.365   6.573
 2515SOL    HW224688   6.050   1.490   6.621
 2516SOL     OW24689   0.751   0.327   1.022
 2516SOL    HW124690   0.672   0.277   1.042
 2516SOL    HW224691   0.823   0.265   1.038
 2517SOL     OW24692   5.947   5.962   0.900
 2517SOL    HW124693   5.939   5.952   0.805
 2517SOL    HW224694   5.885   6.030   0.923
 2518SOL     OW24695   2.950   2.441   1.318
 2518SOL    HW124696   2.945   2.509   1.386
 2518SOL    HW224697   3.042   2.415   1.317
 2519SOL     OW24698   4.392   2.184   0.782
 2519SOL    HW124699   4.335   2.185   0.706
 2519SOL    HW224700   4.361   2.257   0.836
 2520SOL     OW24701   5.451   1.137   0.016
 2520SOL    HW124702   5.453   1.205   0.083
 2520SOL    HW224703   5.395   1.069   0.054
 2521SOL     OW24704   2.164   4.322   7.391
 2521SOL    HW124705   2.167   4.302   7.485
 2521SOL    HW224706   2.235   4.385   7.378
 2522SOL     OW24707   1.951   0.887   0.315
 2522SOL    HW124708   1.909   0.934   0.387
 2522SOL    HW224709   1.952   0.795   0.343
 2523SOL     OW24710   0.615   6.014   0.644
 2523SOL    HW124711   0.620   6.092   0.699
 2523SOL    HW224712   0.538   5.967   0.675
 2524SOL     OW24713   5.776   1.632   1.784
 2524SOL    HW124714   5.790   1.725   1.769
 2524SOL    HW224715   5.732   1.601   1.705
 2525SOL     OW24716   3.445   2.848   2.113
 2525SOL    HW124717   3.443   2.928   2.165
 2525SOL    HW224718   3.534   2.846   2.076
 2526SOL     OW24719   5.059   4.489   2.073
 2526SOL    HW124720   4.992   4.433   2.111
 2526SOL    HW224721   5.121   4.503   2.144
 2527SOL     OW24722   4.840   1.396   0.166
 2527SOL    HW124723   4.761   1.346   0.190
 2527SOL    HW224724   4.912   1.343   0.199
 2528SOL     OW24725   5.143   2.464   5.618
 2528SOL    HW124726   5.171   2.551   5.647
 2528SOL    HW224727   5.047   2.468   5.620
 2529SOL     OW24728   5.775   0.720   7.620
 2529SOL    HW124729   5.684   0.746   7.602
 2529SOL    HW224730   5.798   0.663   7.547
 2530SOL     OW24731   0.544   3.335   7.015
 2530SOL    HW124732   0.463   3.308   7.058
 2530SOL    HW224733   0.608   3.341   7.086
 2531SOL     OW24734   0.024   5.548   1.459
 2531SOL    HW124735   0.043   5.642   1.460
 2531SOL    HW224736  -0.060   5.541   1.413
 2532SOL     OW24737   3.523   0.947   6.329
 2532SOL    HW124738   3.511   0.852   6.329
 2532SOL    HW224739   3.450   0.980   6.277
 2533SOL     OW24740   4.599   4.092   6.118
 2533SOL    HW124741   4.600   4.119   6.027
 2533SOL    HW224742   4.509   4.107   6.147
 2534SOL     OW24743   5.734   4.426   3.134
 2534SOL    HW124744   5.808   4.378   3.172
 2534SOL    HW224745   5.740   4.410   3.040
 2535SOL     OW24746   4.531   3.923   0.748
 2535SOL    HW124747   4.517   3.933   0.654
 2535SOL    HW224748   4.626   3.914   0.757
 2536SOL     OW24749   1.908   6.220   7.519
 2536SOL    HW124750   1.829   6.274   7.526
 2536SOL    HW224751   1.932   6.225   7.427
 2537SOL     OW24752   1.479   5.052   0.814
 2537SOL    HW124753   1.470   5.092   0.900
 2537SOL    HW224754   1.485   5.126   0.754
 2538SOL     OW24755   5.319   6.267   6.001
 2538SOL    HW124756   5.371   6.337   5.963
 2538SOL    HW224757   5.330   6.278   6.096
 2539SOL     OW24758   3.511   2.570   7.635
 2539SOL    HW124759   3.486   2.568   7.727
 2539SOL    HW224760   3.605   2.552   7.635
 2540SOL     OW24761   4.063   6.264   6.990
 2540SOL    HW124762   4.085   6.344   7.037
 2540SOL    HW224763   3.988   6.228   7.037
 2541SOL     OW24764   5.096   2.554   1.107
 2541SOL    HW124765   5.024   2.576   1.166
 2541SOL    HW224766   5.137   2.478   1.147
 2542SOL     OW24767   3.958   3.164   0.122
 2542SOL    HW124768   3.990   3.250   0.092
 2542SOL    HW224769   3.889   3.141   0.061
 2543SOL     OW24770   2.353   5.130   0.575
 2543SOL    HW124771   2.406   5.118   0.497
 2543SOL    HW224772   2.303   5.210   0.558
 2544SOL     OW24773   5.165   3.716   5.972
 2544SOL    HW124774   5.170   3.745   6.063
 2544SOL    HW224775   5.182   3.795   5.921
 2545SOL     OW24776   0.369   2.868   7.142
 2545SOL    HW124777   0.340   2.933   7.078
 2545SOL    HW224778   0.330   2.785   7.112
 2546SOL     OW24779   1.397   6.293   0.167
 2546SOL    HW124780   1.443   6.220   0.125
 2546SOL    HW224781   1.421   6.369   0.114
 2547SOL     OW24782   1.581   0.329   0.993
 2547SOL    HW124783   1.485   0.339   0.998
 2547SOL    HW224784   1.595   0.267   0.922
 2548SOL     OW24785   1.264   5.507   7.569
 2548SOL    HW124786   1.288   5.570   7.501
 2548SOL    HW224787   1.245   5.561   7.646
 2549SOL     OW24788   2.024   1.706   5.760
 2549SOL    HW124789   1.940   1.738   5.795
 2549SOL    HW224790   2.068   1.785   5.729
 2550SOL     OW24791   0.299   0.851   0.998
 2550SOL    HW124792   0.249   0.902   1.062
 2550SOL    HW224793   0.368   0.911   0.968
 2551SOL     OW24794   0.687   4.028   6.927
 2551SOL    HW124795   0.775   4.064   6.915
 2551SOL    HW224796   0.631   4.083   6.872
 2552SOL     OW24797   6.112   1.397   0.593
 2552SOL    HW124798   6.020   1.371   0.586
 2552SOL    HW224799   6.150   1.333   0.653
 2553SOL     OW24800   3.890   6.190   0.274
 2553SOL    HW124801   3.904   6.200   0.368
 2553SOL    HW224802   3.893   6.096   0.260
 2554SOL     OW24803   4.966   4.471   0.665
 2554SOL    HW124804   5.048   4.479   0.715
 2554SOL    HW224805   4.938   4.561   0.651
 2555SOL     OW24806   3.453   4.503   1.627
 2555SOL    HW124807   3.498   4.499   1.542
 2555SOL    HW224808   3.522   4.491   1.692
 2556SOL     OW24809   4.316   3.553   7.715
 2556SOL    HW124810   4.348   3.633   7.673
 2556SOL    HW224811   4.393   3.515   7.758
 2557SOL     OW24812   5.283   0.363   7.296
 2557SOL    HW124813   5.256   0.388   7.208
 2557SOL    HW224814   5.209   0.314   7.331
 2558SOL     OW24815   5.101   0.947   1.516
 2558SOL    HW124816   5.158   0.941   1.592
 2558SOL    HW224817   5.033   0.882   1.533
 2559SOL     OW24818   5.547   2.643   1.857
 2559SOL    HW124819   5.512   2.731   1.871
 2559SOL    HW224820   5.514   2.592   1.931
 2560SOL     OW24821   3.267   1.759   0.593
 2560SOL    HW124822   3.283   1.665   0.580
 2560SOL    HW224823   3.177   1.764   0.624
 2561SOL     OW24824   4.744   0.047   0.179
 2561SOL    HW124825   4.728  -0.025   0.118
 2561SOL    HW224826   4.662   0.098   0.177
 2562SOL     OW24827   3.522   5.850   6.854
 2562SOL    HW124828   3.451   5.786   6.858
 2562SOL    HW224829   3.602   5.797   6.856
 2563SOL     OW24830   2.331   3.169   6.927
 2563SOL    HW124831   2.334   3.139   6.837
 2563SOL    HW224832   2.330   3.264   6.921
 2564SOL     OW24833   2.723   3.544   1.369
 2564SOL    HW124834   2.781   3.526   1.295
 2564SOL    HW224835   2.667   3.615   1.339
 2565SOL     OW24836   5.614   5.119   2.237
 2565SOL    HW124837   5.567   5.183   2.291
 2565SOL    HW224838   5.676   5.170   2.186
 2566SOL     OW24839   6.189   1.676   1.498
 2566SOL    HW124840   6.269   1.641   1.537
 2566SOL    HW224841   6.134   1.700   1.573
 2567SOL     OW24842   5.184   3.026   0.852
 2567SOL    HW124843   5.251   3.035   0.784
 2567SOL    HW224844   5.167   2.931   0.856
 2568SOL     OW24845   2.972   5.504   6.424
 2568SOL    HW124846   2.991   5.454   6.344
 2568SOL    HW224847   3.054   5.504   6.473
 2569SOL     OW24848   4.238   1.170   6.896
 2569SOL    HW124849   4.236   1.195   6.804
 2569SOL    HW224850   4.146   1.167   6.922
 2570SOL     OW24851   4.406   1.463   6.684
 2570SOL    HW124852   4.357   1.444   6.604
 2570SOL    HW224853   4.339   1.480   6.750
 2571SOL     OW24854   6.334   4.552   7.352
 2571SOL    HW124855   6.298   4.469   7.322
 2571SOL    HW224856   6.290   4.569   7.435
 2572SOL     OW24857   1.064   4.156   1.530
 2572SOL    HW124858   0.986   4.198   1.493
 2572SOL    HW224859   1.048   4.062   1.519
 2573SOL     OW24860   5.294   1.112   6.423
 2573SOL    HW124861   5.355   1.136   6.353
 2573SOL    HW224862   5.318   1.022   6.446
 2574SOL     OW24863   2.050   6.449   7.627
 2574SOL    HW124864   2.052   6.411   7.714
 2574SOL    HW224865   1.999   6.387   7.575
 2575SOL     OW24866   2.876   2.970   0.873
 2575SOL    HW124867   2.945   3.024   0.912
 2575SOL    HW224868   2.918   2.927   0.799
 2576SOL     OW24869   5.558   5.423   1.794
 2576SOL    HW124870   5.556   5.462   1.882
 2576SOL    HW224871   5.537   5.331   1.808
 2577SOL     OW24872   2.911   5.136   7.107
 2577SOL    HW124873   2.978   5.079   7.070
 2577SOL    HW224874   2.953   5.176   7.183
 2578SOL     OW24875   5.622   2.879   5.872
 2578SOL    HW124876   5.563   2.805   5.858
 2578SOL    HW224877   5.681   2.878   5.796
 2579SOL     OW24878   5.488   1.754   2.146
 2579SOL    HW124879   5.564   1.697   2.131
 2579SOL    HW224880   5.431   1.738   2.071
 2580SOL     OW24881   3.651   1.933   1.328
 2580SOL    HW124882   3.630   1.906   1.417
 2580SOL    HW224883   3.742   1.906   1.315
 2581SOL     OW24884   4.447   0.709   0.919
 2581SOL    HW124885   4.466   0.616   0.913
 2581SOL    HW224886   4.455   0.741   0.829
 2582SOL     OW24887   4.363   5.802   1.545
 2582SOL    HW124888   4.398   5.861   1.612
 2582SOL    HW224889   4.437   5.788   1.485
 2583SOL     OW24890   5.039   5.044   0.525
 2583SOL    HW124891   4.947   5.026   0.504
 2583SOL    HW224892   5.052   5.134   0.497
 2584SOL     OW24893   4.874   0.841   0.268
 2584SOL    HW124894   4.817   0.792   0.327
 2584SOL    HW224895   4.938   0.776   0.237
 2585SOL     OW24896   4.082   2.116   0.276
 2585SOL    HW124897   4.132   2.120   0.195
 2585SOL    HW224898   4.114   2.189   0.328
 2586SOL     OW24899   1.137   1.504   0.602
 2586SOL    HW124900   1.069   1.508   0.534
 2586SOL    HW224901   1.218   1.486   0.554
 2587SOL     OW24902   2.571   5.826   0.462
 2587SOL    HW124903   2.576   5.805   0.369
 2587SOL    HW224904   2.536   5.747   0.503
 2588SOL     OW24905   1.392   0.543   7.049
 2588SOL    HW124906   1.430   0.549   6.961
 2588SOL    HW224907   1.363   0.632   7.069
 2589SOL     OW24908   3.878   1.161   2.096
 2589SOL    HW124909   3.910   1.246   2.125
 2589SOL    HW224910   3.937   1.097   2.137
 2590SOL     OW24911   0.140   4.910   6.947
 2590SOL    HW124912   0.123   4.950   6.863
 2590SOL    HW224913   0.123   4.817   6.933
 2591SOL     OW24914   1.347   3.333   5.681
 2591SOL    HW124915   1.293   3.397   5.726
 2591SOL    HW224916   1.306   3.249   5.700
 2592SOL     OW24917   6.332   4.027   2.511
 2592SOL    HW124918   6.346   4.116   2.478
 2592SOL    HW224919   6.341   4.034   2.606
 2593SOL     OW24920   2.099   2.018   0.606
 2593SOL    HW124921   2.167   2.060   0.553
 2593SOL    HW224922   2.026   2.005   0.545
 2594SOL     OW24923   1.813   1.636   1.678
 2594SOL    HW124924   1.813   1.541   1.664
 2594SOL    HW224925   1.797   1.645   1.772
 2595SOL     OW24926   5.538   1.911   0.818
 2595SOL    HW124927   5.630   1.928   0.840
 2595SOL    HW224928   5.520   1.969   0.744
 2596SOL     OW24929   0.716   4.888   5.769
 2596SOL    HW124930   0.650   4.818   5.767
 2596SOL    HW224931   0.785   4.857   5.711
 2597SOL     OW24932   5.042   2.825   5.453
 2597SOL    HW124933   5.089   2.775   5.519
 2597SOL    HW224934   4.951   2.796   5.461
 2598SOL     OW24935   4.741   4.488   7.734
 2598SOL    HW124936   4.761   4.537   7.654
 2598SOL    HW224937   4.798   4.411   7.730
 2599SOL     OW24938   6.289   1.629   1.165
 2599SOL    HW124939   6.235   1.658   1.092
 2599SOL    HW224940   6.284   1.534   1.163
 2600SOL     OW24941   1.036   5.987   6.275
 2600SOL    HW124942   1.041   6.082   6.289
 2600SOL    HW224943   1.024   5.951   6.362
 2601SOL     OW24944   0.259   5.208   1.718
 2601SOL    HW124945   0.202   5.244   1.786
 2601SOL    HW224946   0.263   5.276   1.651
 2602SOL     OW24947   1.863   1.970   0.790
 2602SOL    HW124948   1.831   2.060   0.789
 2602SOL    HW224949   1.955   1.977   0.766
 2603SOL     OW24950   0.696   1.057   1.682
 2603SOL    HW124951   0.716   1.146   1.710
 2603SOL    HW224952   0.716   1.002   1.758
 2604SOL     OW24953   2.313   2.706   7.184
 2604SOL    HW124954   2.300   2.699   7.089
 2604SOL    HW224955   2.283   2.795   7.205
 2605SOL     OW24956   5.297   1.115   0.813
 2605SOL    HW124957   5.373   1.122   0.754
 2605SOL    HW224958   5.312   1.033   0.861
 2606SOL     OW24959   3.245   5.093   6.998
 2606SOL    HW124960   3.298   5.152   7.051
 2606SOL    HW224961   3.308   5.038   6.952
 2607SOL     OW24962   0.750   5.533   7.723
 2607SOL    HW124963   0.712   5.489   7.799
 2607SOL    HW224964   0.820   5.587   7.760
 2608SOL     OW24965   5.810   1.126   6.209
 2608SOL    HW124966   5.864   1.127   6.130
 2608SOL    HW224967   5.820   1.037   6.244
 2609SOL     OW24968   0.961   1.919   6.348
 2609SOL    HW124969   1.037   1.937   6.404
 2609SOL    HW224970   0.967   1.984   6.278
 2610SOL     OW24971   5.285   0.806   0.746
 2610SOL    HW124972   5.343   0.763   0.809
 2610SOL    HW224973   5.211   0.837   0.798
 2611SOL     OW24974   4.775   1.693   0.188
 2611SOL    HW124975   4.803   1.604   0.212
 2611SOL    HW224976   4.853   1.747   0.202
 2612SOL     OW24977   1.306   2.976   0.833
 2612SOL    HW124978   1.239   2.910   0.849
 2612SOL    HW224979   1.267   3.058   0.864
 2613SOL     OW24980   4.534   4.248   7.378
 2613SOL    HW124981   4.532   4.303   7.456
 2613SOL    HW224982   4.626   4.220   7.371
 2614SOL     OW24983   6.406   0.751   0.224
 2614SOL    HW124984   6.366   0.669   0.194
 2614SOL    HW224985   6.430   0.796   0.143
 2615SOL     OW24986   5.344   5.071   1.612
 2615SOL    HW124987   5.429   5.033   1.636
 2615SOL    HW224988   5.364   5.136   1.545
 2616SOL     OW24989   6.125   2.135   6.309
 2616SOL    HW124990   6.143   2.042   6.303
 2616SOL    HW224991   6.075   2.156   6.230
 2617SOL     OW24992   1.401   4.368   6.918
 2617SOL    HW124993   1.432   4.280   6.940
 2617SOL    HW224994   1.308   4.357   6.900
 2618SOL     OW24995   1.008   2.691   6.888
 2618SOL    HW124996   1.074   2.622   6.889
 2618SOL    HW224997   0.981   2.699   6.979
 2619SOL     OW24998   1.315   1.200   0.217
 2619SOL    HW124999   1.267   1.156   0.146
 2619SOL    HW225000   1.314   1.292   0.192
 2620SOL     OW25001   3.355   0.468   6.368
 2620SOL    HW125002   3.328   0.479   6.277
 2620SOL    HW225003   3.374   0.374   6.376
 2621SOL     OW25004   2.871   6.159   7.562
 2621SOL    HW125005   2.962   6.144   7.538
 2621SOL    HW225006   2.868   6.250   7.590
 2622SOL     OW25007   1.328   2.709   1.794
 2622SOL    HW125008   1.379   2.635   1.829
 2622SOL    HW225009   1.237   2.686   1.812
 2623SOL     OW25010   4.987   5.029   0.836
 2623SOL    HW125011   5.030   5.058   0.755
 2623SOL    HW225012   5.059   5.009   0.895
 2624SOL     OW25013   5.847   3.518   0.261
 2624SOL    HW125014   5.759   3.557   0.256
 2624SOL    HW225015   5.883   3.530   0.173
 2625SOL     OW25016   2.287   2.527   6.324
 2625SOL    HW125017   2.297   2.604   6.381
 2625SOL    HW225018   2.258   2.457   6.383
 2626SOL     OW25019   0.028   4.459   2.390
 2626SOL    HW125020   0.095   4.471   2.457
 2626SOL    HW225021   0.075   4.473   2.307
 2627SOL     OW25022   4.222   3.074   7.295
 2627SOL    HW125023   4.261   2.987   7.292
 2627SOL    HW225024   4.140   3.066   7.246
 2628SOL     OW25025   0.748   4.526   0.448
 2628SOL    HW125026   0.828   4.503   0.400
 2628SOL    HW225027   0.771   4.517   0.540
 2629SOL     OW25028   6.050   6.371   5.793
 2629SOL    HW125029   6.130   6.424   5.795
 2629SOL    HW225030   6.058   6.320   5.712
 2630SOL     OW25031   0.309   3.672   0.406
 2630SOL    HW125032   0.354   3.605   0.458
 2630SOL    HW225033   0.218   3.643   0.404
 2631SOL     OW25034   3.775   5.761   6.939
 2631SOL    HW125035   3.836   5.803   6.878
 2631SOL    HW225036   3.768   5.822   7.012
 2632SOL     OW25037   5.637   5.741   0.149
 2632SOL    HW125038   5.593   5.741   0.234
 2632SOL    HW225039   5.598   5.814   0.102
 2633SOL     OW25040   3.571   2.416   6.456
 2633SOL    HW125041   3.532   2.395   6.371
 2633SOL    HW225042   3.624   2.493   6.439
 2634SOL     OW25043   1.106   5.611   6.618
 2634SOL    HW125044   1.122   5.548   6.688
 2634SOL    HW225045   1.012   5.608   6.604
 2635SOL     OW25046   1.205   2.128   6.059
 2635SOL    HW125047   1.180   2.113   5.968
 2635SOL    HW225048   1.126   2.163   6.101
 2636SOL     OW25049   2.602   6.012   6.215
 2636SOL    HW125050   2.522   5.961   6.200
 2636SOL    HW225051   2.642   6.020   6.128
 2637SOL     OW25052   0.741   5.681   1.049
 2637SOL    HW125053   0.722   5.692   0.956
 2637SOL    HW225054   0.829   5.718   1.059
 2638SOL     OW25055   3.285   0.713   7.045
 2638SOL    HW125056   3.241   0.797   7.051
 2638SOL    HW225057   3.309   0.705   6.952
 2639SOL     OW25058   4.891   3.527   6.413
 2639SOL    HW125059   4.884   3.448   6.465
 2639SOL    HW225060   4.814   3.527   6.357
 2640SOL     OW25061   3.544   1.807   2.872
 2640SOL    HW125062   3.600   1.878   2.905
 2640SOL    HW225063   3.463   1.816   2.922
 2641SOL     OW25064   4.467   3.975   7.412
 2641SOL    HW125065   4.511   3.949   7.331
 2641SOL    HW225066   4.471   4.071   7.411
 2642SOL     OW25067   0.219   5.517   6.321
 2642SOL    HW125068   0.301   5.548   6.283
 2642SOL    HW225069   0.246   5.447   6.380
 2643SOL     OW25070   1.182   3.255   1.344
 2643SOL    HW125071   1.277   3.255   1.354
 2643SOL    HW225072   1.149   3.203   1.417
 2644SOL     OW25073   0.131   2.006   7.133
 2644SOL    HW125074   0.154   1.974   7.220
 2644SOL    HW225075   0.036   1.994   7.127
 2645SOL     OW25076   0.015   0.645   1.443
 2645SOL    HW125077  -0.011   0.585   1.374
 2645SOL    HW225078   0.053   0.720   1.397
 2646SOL     OW25079   6.022   1.582   6.245
 2646SOL    HW125080   6.084   1.638   6.290
 2646SOL    HW225081   5.939   1.629   6.250
 2647SOL     OW25082   1.486   0.303   0.586
 2647SOL    HW125083   1.516   0.214   0.566
 2647SOL    HW225084   1.391   0.298   0.579
 2648SOL     OW25085   6.112   4.156   7.680
 2648SOL    HW125086   6.140   4.247   7.675
 2648SOL    HW225087   6.074   4.147   7.768
 2649SOL     OW25088   3.389   2.342   6.258
 2649SOL    HW125089   3.323   2.409   6.278
 2649SOL    HW225090   3.339   2.261   6.249
 2650SOL     OW25091   5.324   1.653   0.668
 2650SOL    HW125092   5.381   1.644   0.745
 2650SOL    HW225093   5.239   1.677   0.703
 2651SOL     OW25094   0.529   4.673   1.258
 2651SOL    HW125095   0.575   4.740   1.309
 2651SOL    HW225096   0.531   4.595   1.313
 2652SOL     OW25097   5.787   5.035   6.510
 2652SOL    HW125098   5.861   5.027   6.570
 2652SOL    HW225099   5.731   5.102   6.551
 2653SOL     OW25100   3.534   0.906   0.595
 2653SOL    HW125101   3.511   0.891   0.503
 2653SOL    HW225102   3.629   0.915   0.595
 2654SOL     OW25103   3.916   2.513   6.639
 2654SOL    HW125104   3.951   2.484   6.556
 2654SOL    HW225105   3.986   2.498   6.702
 2655SOL     OW25106   2.215   3.637   6.745
 2655SOL    HW125107   2.249   3.726   6.742
 2655SOL    HW225108   2.153   3.632   6.672
 2656SOL     OW25109   2.325   4.941   7.175
 2656SOL    HW125110   2.328   5.036   7.169
 2656SOL    HW225111   2.311   4.922   7.267
 2657SOL     OW25112   2.382   5.873   6.513
 2657SOL    HW125113   2.391   5.885   6.607
 2657SOL    HW225114   2.438   5.941   6.474
 2658SOL     OW25115   2.795   2.848   1.576
 2658SOL    HW125116   2.816   2.935   1.611
 2658SOL    HW225117   2.751   2.866   1.493
 2659SOL     OW25118   4.298   0.027   0.880
 2659SOL    HW125119   4.316   0.023   0.974
 2659SOL    HW225120   4.221  -0.029   0.868
 2660SOL     OW25121   1.762   3.793   0.862
 2660SOL    HW125122   1.834   3.845   0.825
 2660SOL    HW225123   1.727   3.847   0.932
 2661SOL     OW25124   3.372   2.198   1.466
 2661SOL    HW125125   3.329   2.125   1.422
 2661SOL    HW225126   3.311   2.271   1.458
 2662SOL     OW25127   1.900   5.676   7.325
 2662SOL    HW125128   1.951   5.640   7.253
 2662SOL    HW225129   1.920   5.769   7.324
 2663SOL     OW25130   4.355   0.150   0.230
 2663SOL    HW125131   4.342   0.060   0.201
 2663SOL    HW225132   4.427   0.183   0.176
 2664SOL     OW25133   0.755   4.311   0.058
 2664SOL    HW125134   0.817   4.278  -0.007
 2664SOL    HW225135   0.718   4.390   0.019
 2665SOL     OW25136   3.685   1.942   2.618
 2665SOL    HW125137   3.682   1.913   2.527
 2665SOL    HW225138   3.743   1.880   2.661
 2666SOL     OW25139   3.873   3.424   1.620
 2666SOL    HW125140   3.845   3.378   1.541
 2666SOL    HW225141   3.792   3.438   1.670
 2667SOL     OW25142   5.931   1.588   0.824
 2667SOL    HW125143   5.939   1.520   0.757
 2667SOL    HW225144   5.901   1.541   0.902
 2668SOL     OW25145   2.077   2.677   2.757
 2668SOL    HW125146   2.026   2.751   2.789
 2668SOL    HW225147   2.101   2.628   2.835
 2669SOL     OW25148   0.398   3.545   7.460
 2669SOL    HW125149   0.441   3.623   7.426
 2669SOL    HW225150   0.468   3.480   7.466
 2670SOL     OW25151   5.555   3.143   0.196
 2670SOL    HW125152   5.529   3.232   0.176
 2670SOL    HW225153   5.512   3.089   0.129
 2671SOL     OW25154   5.922   4.371   0.613
 2671SOL    HW125155   5.998   4.412   0.653
 2671SOL    HW225156   5.911   4.289   0.662
 2672SOL     OW25157   3.348   5.992   0.972
 2672SOL    HW125158   3.265   5.999   0.925
 2672SOL    HW225159   3.401   6.065   0.939
 2673SOL     OW25160   0.792   4.205   0.753
 2673SOL    HW125161   0.885   4.188   0.766
 2673SOL    HW225162   0.748   4.132   0.795
 2674SOL     OW25163   3.586   5.611   2.289
 2674SOL    HW125164   3.581   5.517   2.268
 2674SOL    HW225165   3.673   5.638   2.260
 2675SOL     OW25166   5.473   3.429   5.891
 2675SOL    HW125167   5.557   3.384   5.883
 2675SOL    HW225168   5.444   3.408   5.980
 2676SOL     OW25169   5.070   0.162   1.247
 2676SOL    HW125170   5.161   0.191   1.251
 2676SOL    HW225171   5.062   0.097   1.317
 2677SOL     OW25172   6.427   1.549   0.506
 2677SOL    HW125173   6.432   1.457   0.529
 2677SOL    HW225174   6.355   1.554   0.442
 2678SOL     OW25175   0.777   2.154   5.918
 2678SOL    HW125176   0.690   2.115   5.930
 2678SOL    HW225177   0.829   2.086   5.876
 2679SOL     OW25178   1.345   5.935   1.358
 2679SOL    HW125179   1.364   5.879   1.283
 2679SOL    HW225180   1.254   5.961   1.347
 2680SOL     OW25181   3.632   1.593   0.453
 2680SOL    HW125182   3.556   1.550   0.492
 2680SOL    HW225183   3.608   1.605   0.361
 2681SOL     OW25184   4.348   0.803   2.402
 2681SOL    HW125185   4.323   0.867   2.334
 2681SOL    HW225186   4.393   0.856   2.468
 2682SOL     OW25187   4.082   3.724   6.705
 2682SOL    HW125188   4.090   3.776   6.785
 2682SOL    HW225189   4.019   3.656   6.727
 2683SOL     OW25190   2.445   3.362   2.500
 2683SOL    HW125191   2.409   3.437   2.453
 2683SOL    HW225192   2.405   3.286   2.458
 2684SOL     OW25193   2.344   1.948   2.354
 2684SOL    HW125194   2.342   1.905   2.440
 2684SOL    HW225195   2.391   1.886   2.298
 2685SOL     OW25196   6.134   1.827   6.329
 2685SOL    HW125197   6.216   1.873   6.346
 2685SOL    HW225198   6.078   1.849   6.403
 2686SOL     OW25199   4.488   0.349   7.598
 2686SOL    HW125200   4.544   0.301   7.537
 2686SOL    HW225201   4.539   0.426   7.622
 2687SOL     OW25202   6.000   2.402   1.180
 2687SOL    HW125203   5.955   2.381   1.262
 2687SOL    HW225204   5.933   2.390   1.112
 2688SOL     OW25205   5.286   0.550   5.951
 2688SOL    HW125206   5.286   0.456   5.932
 2688SOL    HW225207   5.294   0.592   5.866
 2689SOL     OW25208   5.423   2.144   7.487
 2689SOL    HW125209   5.391   2.062   7.523
 2689SOL    HW225210   5.376   2.212   7.536
 2690SOL     OW25211   4.018   5.340   6.220
 2690SOL    HW125212   3.960   5.268   6.197
 2690SOL    HW225213   3.989   5.413   6.166
 2691SOL     OW25214   3.803   0.870   0.689
 2691SOL    HW125215   3.871   0.818   0.645
 2691SOL    HW225216   3.828   0.961   0.671
 2692SOL     OW25217   2.212   5.904   1.174
 2692SOL    HW125218   2.252   5.947   1.098
 2692SOL    HW225219   2.204   5.812   1.147
 2693SOL     OW25220   5.863   1.156   1.283
 2693SOL    HW125221   5.770   1.176   1.296
 2693SOL    HW225222   5.889   1.212   1.211
 2694SOL     OW25223   3.610   4.040   6.577
 2694SOL    HW125224   3.600   4.043   6.482
 2694SOL    HW225225   3.704   4.025   6.591
 2695SOL     OW25226   5.226   4.502   3.054
 2695SOL    HW125227   5.256   4.412   3.068
 2695SOL    HW225228   5.302   4.557   3.073
 2696SOL     OW25229   1.906   6.225   1.061
 2696SOL    HW125230   1.856   6.157   1.105
 2696SOL    HW225231   1.885   6.215   0.968
 2697SOL     OW25232   3.290   0.440   2.131
 2697SOL    HW125233   3.342   0.362   2.113
 2697SOL    HW225234   3.325   0.473   2.214
 2698SOL     OW25235   6.014   1.734   6.903
 2698SOL    HW125236   6.004   1.829   6.895
 2698SOL    HW225237   6.085   1.722   6.966
 2699SOL     OW25238   4.961   3.330   0.738
 2699SOL    HW125239   4.884   3.386   0.735
 2699SOL    HW225240   5.026   3.376   0.686
 2700SOL     OW25241   5.802   0.623   0.128
 2700SOL    HW125242   5.850   0.542   0.113
 2700SOL    HW225243   5.789   0.661   0.041
 2701SOL     OW25244   4.454   2.756   1.005
 2701SOL    HW125245   4.363   2.732   0.985
 2701SOL    HW225246   4.449   2.799   1.090
 2702SOL     OW25247   6.254   1.264   1.463
 2702SOL    HW125248   6.348   1.283   1.460
 2702SOL    HW225249   6.222   1.309   1.541
 2703SOL     OW25250   1.287   4.538   6.624
 2703SOL    HW125251   1.282   4.466   6.561
 2703SOL    HW225252   1.373   4.529   6.664
 2704SOL     OW25253   3.788   5.795   0.322
 2704SOL    HW125254   3.807   5.873   0.374
 2704SOL    HW225255   3.852   5.798   0.251
 2705SOL     OW25256   0.663   2.574   0.726
 2705SOL    HW125257   0.641   2.515   0.798
 2705SOL    HW225258   0.609   2.544   0.653
 2706SOL     OW25259   0.096   1.494   0.802
 2706SOL    HW125260   0.025   1.517   0.742
 2706SOL    HW225261   0.171   1.544   0.771
 2707SOL     OW25262   1.035   2.679   1.122
 2707SOL    HW125263   0.971   2.746   1.146
 2707SOL    HW225264   1.067   2.706   1.036
 2708SOL     OW25265   3.100   2.985   1.382
 2708SOL    HW125266   3.131   2.910   1.432
 2708SOL    HW225267   3.052   2.948   1.308
 2709SOL     OW25268   2.104   4.921   6.995
 2709SOL    HW125269   2.145   4.958   7.073
 2709SOL    HW225270   2.099   4.827   7.012
 2710SOL     OW25271   0.708   0.486   0.803
 2710SOL    HW125272   0.722   0.440   0.886
 2710SOL    HW225273   0.619   0.521   0.810
 2711SOL     OW25274   0.083   1.242   2.085
 2711SOL    HW125275   0.115   1.285   2.005
 2711SOL    HW225276   0.020   1.177   2.053
 2712SOL     OW25277   5.170   0.696   6.136
 2712SOL    HW125278   5.084   0.655   6.148
 2712SOL    HW225279   5.215   0.640   6.073
 2713SOL     OW25280   1.000   0.576   6.461
 2713SOL    HW125281   1.042   0.658   6.432
 2713SOL    HW225282   0.907   0.598   6.468
 2714SOL     OW25283   4.317   6.155   1.776
 2714SOL    HW125284   4.331   6.158   1.871
 2714SOL    HW225285   4.326   6.246   1.748
 2715SOL     OW25286   5.867   0.032   6.233
 2715SOL    HW125287   5.875  -0.053   6.276
 2715SOL    HW225288   5.804   0.018   6.163
 2716SOL     OW25289   0.774   4.472   1.080
 2716SOL    HW125290   0.731   4.554   1.057
 2716SOL    HW225291   0.854   4.472   1.027
 2717SOL     OW25292   1.761   1.625   1.951
 2717SOL    HW125293   1.701   1.605   2.022
 2717SOL    HW225294   1.835   1.565   1.965
 2718SOL     OW25295   4.000   4.104   1.685
 2718SOL    HW125296   4.022   4.054   1.764
 2718SOL    HW225297   3.924   4.058   1.649
 2719SOL     OW25298   5.337   3.868   1.713
 2719SOL    HW125299   5.243   3.889   1.716
 2719SOL    HW225300   5.371   3.922   1.641
 2720SOL     OW25301   3.313   0.745   0.671
 2720SOL    HW125302   3.396   0.705   0.698
 2720SOL    HW225303   3.338   0.828   0.631
 2721SOL     OW25304   1.457   3.275   6.332
 2721SOL    HW125305   1.382   3.318   6.290
 2721SOL    HW225306   1.499   3.227   6.261
 2722SOL     OW25307   4.758   2.993   1.822
 2722SOL    HW125308   4.690   2.937   1.785
 2722SOL    HW225309   4.716   3.037   1.896
 2723SOL     OW25310   1.636   2.804   6.813
 2723SOL    HW125311   1.561   2.862   6.800
 2723SOL    HW225312   1.650   2.764   6.727
 2724SOL     OW25313   2.004   6.460   0.799
 2724SOL    HW125314   2.063   6.493   0.731
 2724SOL    HW225315   2.000   6.365   0.784
 2725SOL     OW25316   0.569   2.990   1.231
 2725SOL    HW125317   0.610   3.067   1.270
 2725SOL    HW225318   0.519   2.951   1.303
 2726SOL     OW25319   3.383   1.148   0.932
 2726SOL    HW125320   3.372   1.126   0.839
 2726SOL    HW225321   3.329   1.083   0.978
 2727SOL     OW25322   5.140   1.310   2.591
 2727SOL    HW125323   5.218   1.366   2.586
 2727SOL    HW225324   5.161   1.235   2.535
 2728SOL     OW25325   1.648   3.989   1.038
 2728SOL    HW125326   1.680   4.072   1.004
 2728SOL    HW225327   1.695   3.976   1.120
 2729SOL     OW25328   5.133   5.343   0.857
 2729SOL    HW125329   5.179   5.371   0.777
 2729SOL    HW225330   5.202   5.318   0.917
 2730SOL     OW25331   2.350   4.795   7.726
 2730SOL    HW125332   2.356   4.869   7.786
 2730SOL    HW225333   2.267   4.752   7.749
 2731SOL     OW25334   6.212   4.854   6.443
 2731SOL    HW125335   6.125   4.894   6.431
 2731SOL    HW225336   6.198   4.788   6.511
 2732SOL     OW25337   5.475   2.062   6.165
 2732SOL    HW125338   5.455   2.060   6.071
 2732SOL    HW225339   5.551   2.005   6.174
 2733SOL     OW25340   0.522   5.122   6.954
 2733SOL    HW125341   0.538   5.065   7.030
 2733SOL    HW225342   0.455   5.076   6.903
 2734SOL     OW25343   4.067   3.800   1.571
 2734SOL    HW125344   4.130   3.856   1.617
 2734SOL    HW225345   4.001   3.779   1.637
 2735SOL     OW25346   4.292   3.136   0.192
 2735SOL    HW125347   4.353   3.160   0.122
 2735SOL    HW225348   4.257   3.219   0.223
 2736SOL     OW25349   4.682   5.575   0.832
 2736SOL    HW125350   4.728   5.501   0.791
 2736SOL    HW225351   4.589   5.555   0.820
 2737SOL     OW25352   1.610   1.157   1.519
 2737SOL    HW125353   1.608   1.132   1.612
 2737SOL    HW225354   1.613   1.074   1.472
 2738SOL     OW25355   3.068   4.480   2.032
 2738SOL    HW125356   3.029   4.535   2.100
 2738SOL    HW225357   3.137   4.432   2.077
 2739SOL     OW25358   6.413   4.708   6.032
 2739SOL    HW125359   6.503   4.740   6.033
 2739SOL    HW225360   6.360   4.787   6.027
 2740SOL     OW25361   2.752   4.405   6.265
 2740SOL    HW125362   2.754   4.465   6.190
 2740SOL    HW225363   2.791   4.325   6.232
 2741SOL     OW25364   2.469   5.579   0.564
 2741SOL    HW125365   2.534   5.515   0.538
 2741SOL    HW225366   2.445   5.554   0.653
 2742SOL     OW25367   5.761   2.044   6.229
 2742SOL    HW125368   5.750   2.058   6.323
 2742SOL    HW225369   5.849   2.079   6.210
 2743SOL     OW25370   1.701   3.745   0.286
 2743SOL    HW125371   1.695   3.815   0.221
 2743SOL    HW225372   1.734   3.789   0.364
 2744SOL     OW25373   6.126   3.686   1.120
 2744SOL    HW125374   6.154   3.705   1.030
 2744SOL    HW225375   6.060   3.617   1.111
 2745SOL     OW25376   4.577   0.350   6.985
 2745SOL    HW125377   4.626   0.431   6.997
 2745SOL    HW225378   4.545   0.327   7.073
 2746SOL     OW25379   5.078   1.760   1.185
 2746SOL    HW125380   5.057   1.851   1.206
 2746SOL    HW225381   4.995   1.713   1.194
 2747SOL     OW25382   1.780   1.370   5.625
 2747SOL    HW125383   1.776   1.374   5.721
 2747SOL    HW225384   1.703   1.319   5.600
 2748SOL     OW25385   0.222   4.738   5.905
 2748SOL    HW125386   0.223   4.666   5.842
 2748SOL    HW225387   0.195   4.815   5.855
 2749SOL     OW25388   5.808   4.390   2.864
 2749SOL    HW125389   5.871   4.321   2.845
 2749SOL    HW225390   5.862   4.466   2.888
 2750SOL     OW25391   1.424   1.957   5.996
 2750SOL    HW125392   1.356   2.018   6.024
 2750SOL    HW225393   1.460   1.996   5.917
 2751SOL     OW25394   5.708   5.943   0.445
 2751SOL    HW125395   5.737   5.990   0.366
 2751SOL    HW225396   5.719   6.007   0.516
 2752SOL     OW25397   1.524   4.014   7.357
 2752SOL    HW125398   1.501   3.995   7.266
 2752SOL    HW225399   1.563   4.101   7.354
 2753SOL     OW25400   4.461   5.093   7.514
 2753SOL    HW125401   4.488   5.114   7.603
 2753SOL    HW225402   4.382   5.040   7.524
 2754SOL     OW25403   2.408   0.803   0.445
 2754SOL    HW125404   2.458   0.812   0.364
 2754SOL    HW225405   2.317   0.804   0.418
 2755SOL     OW25406   6.037   3.828   0.049
 2755SOL    HW125407   5.959   3.801   0.001
 2755SOL    HW225408   6.108   3.779   0.008
 2756SOL     OW25409   3.862   4.327   1.022
 2756SOL    HW125410   3.903   4.403   0.981
 2756SOL    HW225411   3.923   4.302   1.091
 2757SOL     OW25412   3.193   2.554   7.659
 2757SOL    HW125413   3.232   2.502   7.589
 2757SOL    HW225414   3.249   2.631   7.666
 2758SOL     OW25415   5.085   5.254   0.380
 2758SOL    HW125416   5.038   5.322   0.332
 2758SOL    HW225417   5.130   5.204   0.312
 2759SOL     OW25418   4.203   0.661   0.005
 2759SOL    HW125419   4.263   0.729   0.035
 2759SOL    HW225420   4.186   0.682  -0.087
 2760SOL     OW25421   6.244   3.666   7.683
 2760SOL    HW125422   6.277   3.707   7.603
 2760SOL    HW225423   6.215   3.579   7.654
 2761SOL     OW25424   4.176   0.618   7.462
 2761SOL    HW125425   4.157   0.532   7.500
 2761SOL    HW225426   4.096   0.643   7.417
 2762SOL     OW25427   2.956   5.694   0.361
 2762SOL    HW125428   2.910   5.773   0.387
 2762SOL    HW225429   2.901   5.655   0.293
 2763SOL     OW25430   2.540   5.101   7.258
 2763SOL    HW125431   2.627   5.092   7.298
 2763SOL    HW225432   2.544   5.044   7.181
 2764SOL     OW25433   5.169   5.441   1.541
 2764SOL    HW125434   5.126   5.446   1.626
 2764SOL    HW225435   5.184   5.532   1.516
 2765SOL     OW25436   4.594   0.119   1.191
 2765SOL    HW125437   4.644   0.196   1.219
 2765SOL    HW225438   4.525   0.110   1.256
 2766SOL     OW25439   3.526   4.687   2.309
 2766SOL    HW125440   3.506   4.778   2.333
 2766SOL    HW225441   3.593   4.660   2.372
 2767SOL     OW25442   1.744   5.362   7.033
 2767SOL    HW125443   1.711   5.449   7.056
 2767SOL    HW225444   1.682   5.329   6.968
 2768SOL     OW25445   4.663   3.520   6.279
 2768SOL    HW125446   4.611   3.530   6.359
 2768SOL    HW225447   4.615   3.456   6.226
 2769SOL     OW25448   1.554   5.319   0.690
 2769SOL    HW125449   1.622   5.385   0.708
 2769SOL    HW225450   1.565   5.298   0.598
 2770SOL     OW25451   5.569   1.803   6.806
 2770SOL    HW125452   5.594   1.849   6.886
 2770SOL    HW225453   5.544   1.715   6.836
 2771SOL     OW25454   4.214   0.477   6.579
 2771SOL    HW125455   4.170   0.412   6.634
 2771SOL    HW225456   4.150   0.498   6.511
 2772SOL     OW25457   4.414   4.400   7.177
 2772SOL    HW125458   4.435   4.324   7.231
 2772SOL    HW225459   4.447   4.474   7.227
 2773SOL     OW25460   1.706   4.152   7.080
 2773SOL    HW125461   1.679   4.187   7.164
 2773SOL    HW225462   1.752   4.224   7.037
 2774SOL     OW25463   3.331   3.558   0.901
 2774SOL    HW125464   3.384   3.529   0.826
 2774SOL    HW225465   3.395   3.597   0.961
 2775SOL     OW25466   3.006   4.105   1.593
 2775SOL    HW125467   3.058   4.121   1.672
 2775SOL    HW225468   3.010   4.010   1.580
 2776SOL     OW25469   1.751   5.348   1.402
 2776SOL    HW125470   1.678   5.332   1.461
 2776SOL    HW225471   1.777   5.439   1.420
 2777SOL     OW25472   3.534   3.875   1.424
 2777SOL    HW125473   3.467   3.936   1.455
 2777SOL    HW225474   3.504   3.789   1.454
 2778SOL     OW25475   0.593   2.347   7.583
 2778SOL    HW125476   0.609   2.294   7.660
 2778SOL    HW225477   0.534   2.416   7.612
 2779SOL     OW25478   4.468   0.674   7.194
 2779SOL    HW125479   4.489   0.728   7.270
 2779SOL    HW225480   4.490   0.585   7.221
 2780SOL     OW25481   2.152   4.684   6.451
 2780SOL    HW125482   2.108   4.753   6.501
 2780SOL    HW225483   2.192   4.731   6.377
 2781SOL     OW25484   4.035   3.058   1.452
 2781SOL    HW125485   3.968   2.994   1.427
 2781SOL    HW225486   4.021   3.072   1.546
 2782SOL     OW25487   6.303   1.159   1.199
 2782SOL    HW125488   6.315   1.166   1.294
 2782SOL    HW225489   6.336   1.242   1.164
 2783SOL     OW25490   0.719   3.921   7.518
 2783SOL    HW125491   0.706   3.919   7.613
 2783SOL    HW225492   0.796   3.867   7.503
 2784SOL     OW25493   5.000   3.629   1.865
 2784SOL    HW125494   5.072   3.629   1.802
 2784SOL    HW225495   5.035   3.585   1.942
 2785SOL     OW25496   5.656   4.439   1.923
 2785SOL    HW125497   5.607   4.398   1.852
 2785SOL    HW225498   5.627   4.530   1.923
 2786SOL     OW25499   3.853   0.980   6.796
 2786SOL    HW125500   3.897   1.038   6.734
 2786SOL    HW225501   3.886   0.893   6.775
 2787SOL     OW25502   0.616   6.442   1.546
 2787SOL    HW125503   0.663   6.475   1.622
 2787SOL    HW225504   0.586   6.355   1.572
 2788SOL     OW25505   0.659   6.105   1.479
 2788SOL    HW125506   0.629   6.147   1.558
 2788SOL    HW225507   0.595   6.036   1.462
 2789SOL     OW25508   6.065   5.594   0.086
 2789SOL    HW125509   6.120   5.637   0.020
 2789SOL    HW225510   6.014   5.530   0.036
 2790SOL     OW25511   2.467   6.335   6.096
 2790SOL    HW125512   2.501   6.318   6.184
 2790SOL    HW225513   2.440   6.249   6.064
 2791SOL     OW25514   2.576   6.326   0.341
 2791SOL    HW125515   2.611   6.289   0.422
 2791SOL    HW225516   2.646   6.315   0.277
 2792SOL     OW25517   3.697   0.505   0.563
 2792SOL    HW125518   3.731   0.569   0.500
 2792SOL    HW225519   3.618   0.470   0.521
 2793SOL     OW25520   5.549   5.476   7.013
 2793SOL    HW125521   5.504   5.533   7.075
 2793SOL    HW225522   5.481   5.449   6.951
 2794SOL     OW25523   5.982   2.101   1.720
 2794SOL    HW125524   6.025   2.073   1.801
 2794SOL    HW225525   5.985   2.196   1.723
 2795SOL     OW25526   6.061   3.229   1.361
 2795SOL    HW125527   6.122   3.188   1.300
 2795SOL    HW225528   6.041   3.160   1.425
 2796SOL     OW25529   5.043   3.966   5.531
 2796SOL    HW125530   5.098   3.914   5.472
 2796SOL    HW225531   5.105   4.013   5.586
 2797SOL     OW25532   5.593   0.415   2.550
 2797SOL    HW125533   5.525   0.355   2.520
 2797SOL    HW225534   5.551   0.501   2.549
 2798SOL     OW25535   0.229   5.541   7.623
 2798SOL    HW125536   0.185   5.598   7.561
 2798SOL    HW225537   0.220   5.586   7.707
 2799SOL     OW25538   2.984   2.548   0.806
 2799SOL    HW125539   2.987   2.524   0.713
 2799SOL    HW225540   2.897   2.586   0.818
 2800SOL     OW25541   0.233   1.306   1.233
 2800SOL    HW125542   0.244   1.273   1.144
 2800SOL    HW225543   0.185   1.389   1.222
 2801SOL     OW25544   1.018   3.798   7.549
 2801SOL    HW125545   1.050   3.857   7.481
 2801SOL    HW225546   1.060   3.829   7.629
 2802SOL     OW25547   0.405   5.672   2.066
 2802SOL    HW125548   0.351   5.624   2.003
 2802SOL    HW225549   0.468   5.719   2.012
 2803SOL     OW25550   0.351   5.819   7.315
 2803SOL    HW125551   0.400   5.802   7.235
 2803SOL    HW225552   0.387   5.901   7.348
 2804SOL     OW25553   5.505   0.889   7.142
 2804SOL    HW125554   5.586   0.938   7.127
 2804SOL    HW225555   5.532   0.798   7.146
 2805SOL     OW25556   4.780   4.153   7.307
 2805SOL    HW125557   4.873   4.176   7.304
 2805SOL    HW225558   4.757   4.135   7.216
 2806SOL     OW25559   4.529   4.628   7.312
 2806SOL    HW125560   4.603   4.593   7.362
 2806SOL    HW225561   4.462   4.646   7.377
 2807SOL     OW25562   2.891   5.601   1.140
 2807SOL    HW125563   2.850   5.655   1.208
 2807SOL    HW225564   2.835   5.523   1.135
 2808SOL     OW25565   0.248   5.404   1.255
 2808SOL    HW125566   0.254   5.431   1.164
 2808SOL    HW225567   0.157   5.378   1.267
 2809SOL     OW25568   2.984   4.689   6.474
 2809SOL    HW125569   3.038   4.724   6.545
 2809SOL    HW225570   3.047   4.650   6.413
 2810SOL     OW25571   6.355   2.195   2.603
 2810SOL    HW125572   6.275   2.189   2.550
 2810SOL    HW225573   6.396   2.277   2.575
 2811SOL     OW25574   6.081   3.403   6.662
 2811SOL    HW125575   5.989   3.382   6.678
 2811SOL    HW225576   6.118   3.414   6.750
 2812SOL     OW25577   3.345   4.038   6.990
 2812SOL    HW125578   3.366   4.005   6.902
 2812SOL    HW225579   3.252   4.058   6.986
 2813SOL     OW25580   3.567   1.087   7.571
 2813SOL    HW125581   3.546   1.001   7.608
 2813SOL    HW225582   3.483   1.129   7.557
 2814SOL     OW25583   5.888   2.826   7.346
 2814SOL    HW125584   5.968   2.792   7.386
 2814SOL    HW225585   5.873   2.910   7.391
 2815SOL     OW25586   0.399   3.666   2.922
 2815SOL    HW125587   0.419   3.695   2.833
 2815SOL    HW225588   0.309   3.636   2.919
 2816SOL     OW25589   3.130   0.932   7.051
 2816SOL    HW125590   3.131   1.019   7.089
 2816SOL    HW225591   3.103   0.946   6.960
 2817SOL     OW25592   1.011   3.948   6.906
 2817SOL    HW125593   0.968   3.871   6.941
 2817SOL    HW225594   1.096   3.916   6.875
 2818SOL     OW25595   4.874   3.092   7.487
 2818SOL    HW125596   4.927   3.124   7.560
 2818SOL    HW225597   4.937   3.072   7.418
 2819SOL     OW25598   3.151   2.637   6.607
 2819SOL    HW125599   3.247   2.634   6.610
 2819SOL    HW225600   3.124   2.616   6.696
 2820SOL     OW25601   4.239   0.422   1.184
 2820SOL    HW125602   4.147   0.406   1.205
 2820SOL    HW225603   4.240   0.433   1.089
 2821SOL     OW25604   1.878   4.193   2.091
 2821SOL    HW125605   1.956   4.224   2.045
 2821SOL    HW225606   1.809   4.253   2.062
 2822SOL     OW25607   3.398   2.560   1.892
 2822SOL    HW125608   3.355   2.644   1.881
 2822SOL    HW225609   3.391   2.542   1.986
 2823SOL     OW25610   3.086   1.086   2.150
 2823SOL    HW125611   3.095   1.002   2.106
 2823SOL    HW225612   3.001   1.120   2.121
 2824SOL     OW25613   1.251   4.814   1.317
 2824SOL    HW125614   1.220   4.733   1.278
 2824SOL    HW225615   1.302   4.856   1.248
 2825SOL     OW25616   5.644   2.970   1.242
 2825SOL    HW125617   5.705   2.905   1.278
 2825SOL    HW225618   5.681   3.054   1.268
 2826SOL     OW25619   4.696   2.378   1.171
 2826SOL    HW125620   4.698   2.287   1.200
 2826SOL    HW225621   4.771   2.419   1.212
 2827SOL     OW25622   3.326   1.848   2.991
 2827SOL    HW125623   3.304   1.923   3.047
 2827SOL    HW225624   3.241   1.810   2.968
 2828SOL     OW25625   3.229   0.836   7.355
 2828SOL    HW125626   3.184   0.882   7.425
 2828SOL    HW225627   3.245   0.902   7.288
 2829SOL     OW25628   1.607   5.124   7.238
 2829SOL    HW125629   1.692   5.125   7.193
 2829SOL    HW225630   1.547   5.167   7.177
 2830SOL     OW25631   1.023   0.966   6.916
 2830SOL    HW125632   0.980   0.925   6.991
 2830SOL    HW225633   1.105   1.001   6.952
 2831SOL     OW25634   3.645   6.202   0.521
 2831SOL    HW125635   3.561   6.160   0.540
 2831SOL    HW225636   3.623   6.272   0.459
 2832SOL     OW25637   3.483   2.450   0.273
 2832SOL    HW125638   3.539   2.527   0.278
 2832SOL    HW225639   3.407   2.479   0.222
 2833SOL     OW25640   2.008   2.209   7.724
 2833SOL    HW125641   2.044   2.215   7.813
 2833SOL    HW225642   1.916   2.234   7.734
 2834SOL     OW25643   5.031   1.636   0.580
 2834SOL    HW125644   4.962   1.571   0.573
 2834SOL    HW225645   5.009   1.687   0.658
 2835SOL     OW25646   3.599   3.728   7.186
 2835SOL    HW125647   3.691   3.726   7.211
 2835SOL    HW225648   3.585   3.645   7.140
 2836SOL     OW25649   2.783   1.732   7.570
 2836SOL    HW125650   2.875   1.756   7.580
 2836SOL    HW225651   2.783   1.664   7.502
 2837SOL     OW25652   5.630   5.627   2.592
 2837SOL    HW125653   5.639   5.705   2.537
 2837SOL    HW225654   5.643   5.554   2.533
 2838SOL     OW25655   0.719   2.898   7.121
 2838SOL    HW125656   0.717   2.812   7.161
 2838SOL    HW225657   0.726   2.959   7.194
 2839SOL     OW25658   2.219   5.887   0.460
 2839SOL    HW125659   2.304   5.905   0.498
 2839SOL    HW225660   2.220   5.931   0.375
 2840SOL     OW25661   3.613   2.452   0.973
 2840SOL    HW125662   3.631   2.474   1.064
 2840SOL    HW225663   3.562   2.371   0.977
 2841SOL     OW25664   5.847   4.211   1.800
 2841SOL    HW125665   5.818   4.228   1.710
 2841SOL    HW225666   5.889   4.293   1.827
 2842SOL     OW25667   2.456   2.089   6.649
 2842SOL    HW125668   2.464   2.021   6.716
 2842SOL    HW225669   2.546   2.103   6.619
 2843SOL     OW25670   2.525   5.789   0.893
 2843SOL    HW125671   2.518   5.701   0.854
 2843SOL    HW225672   2.616   5.795   0.922
 2844SOL     OW25673   1.776   2.849   7.339
 2844SOL    HW125674   1.735   2.935   7.329
 2844SOL    HW225675   1.844   2.846   7.271
 2845SOL     OW25676   4.749   5.377   1.544
 2845SOL    HW125677   4.764   5.294   1.498
 2845SOL    HW225678   4.765   5.355   1.636
 2846SOL     OW25679   4.414   5.294   2.131
 2846SOL    HW125680   4.475   5.229   2.166
 2846SOL    HW225681   4.446   5.377   2.166
 2847SOL     OW25682   3.306   6.042   1.223
 2847SOL    HW125683   3.327   5.990   1.146
 2847SOL    HW225684   3.361   6.007   1.292
 2848SOL     OW25685   1.860   4.005   7.591
 2848SOL    HW125686   1.926   3.989   7.523
 2848SOL    HW225687   1.911   4.039   7.665
 2849SOL     OW25688   4.110   4.150   0.435
 2849SOL    HW125689   4.157   4.067   0.442
 2849SOL    HW225690   4.021   4.129   0.464
 2850SOL     OW25691   4.600   0.589   7.674
 2850SOL    HW125692   4.678   0.643   7.687
 2850SOL    HW225693   4.569   0.569   7.762
 2851SOL     OW25694   3.939   0.786   7.389
 2851SOL    HW125695   3.962   0.817   7.302
 2851SOL    HW225696   3.853   0.744   7.378
 2852SOL     OW25697   4.261   6.291   6.630
 2852SOL    HW125698   4.174   6.308   6.593
 2852SOL    HW225699   4.266   6.350   6.705
 2853SOL     OW25700   5.250   1.592   6.158
 2853SOL    HW125701   5.232   1.612   6.066
 2853SOL    HW225702   5.338   1.556   6.158
 2854SOL     OW25703   0.218   6.435   6.882
 2854SOL    HW125704   0.257   6.511   6.925
 2854SOL    HW225705   0.292   6.378   6.861
 2855SOL     OW25706   6.364   5.262   1.542
 2855SOL    HW125707   6.446   5.216   1.562
 2855SOL    HW225708   6.365   5.339   1.598
 2856SOL     OW25709   5.052   1.291   1.175
 2856SOL    HW125710   5.078   1.301   1.084
 2856SOL    HW225711   5.090   1.208   1.202
 2857SOL     OW25712   4.667   5.863   0.446
 2857SOL    HW125713   4.758   5.878   0.472
 2857SOL    HW225714   4.631   5.811   0.518
 2858SOL     OW25715   2.630   4.108   7.509
 2858SOL    HW125716   2.577   4.103   7.430
 2858SOL    HW225717   2.690   4.033   7.501
 2859SOL     OW25718   1.772   3.956   1.266
 2859SOL    HW125719   1.783   4.021   1.335
 2859SOL    HW225720   1.775   3.872   1.312
 2860SOL     OW25721   2.205   3.614   0.874
 2860SOL    HW125722   2.276   3.609   0.811
 2860SOL    HW225723   2.247   3.607   0.959
 2861SOL     OW25724   5.625   6.159   0.833
 2861SOL    HW125725   5.669   6.180   0.751
 2861SOL    HW225726   5.673   6.207   0.899
 2862SOL     OW25727   3.241   1.040   0.188
 2862SOL    HW125728   3.299   1.116   0.195
 2862SOL    HW225729   3.271   0.995   0.109
 2863SOL     OW25730   1.673   5.736   0.052
 2863SOL    HW125731   1.736   5.716   0.121
 2863SOL    HW225732   1.718   5.711  -0.029
 2864SOL     OW25733   2.645   0.602   1.498
 2864SOL    HW125734   2.741   0.604   1.495
 2864SOL    HW225735   2.624   0.602   1.591
 2865SOL     OW25736   0.610   5.637   5.906
 2865SOL    HW125737   0.675   5.574   5.936
 2865SOL    HW225738   0.613   5.631   5.811
 2866SOL     OW25739   3.464   5.971   1.526
 2866SOL    HW125740   3.550   6.010   1.512
 2866SOL    HW225741   3.430   6.016   1.604
 2867SOL     OW25742   4.134   1.936   6.284
 2867SOL    HW125743   4.119   1.870   6.216
 2867SOL    HW225744   4.190   2.001   6.241
 2868SOL     OW25745   4.751   5.000   5.883
 2868SOL    HW125746   4.819   5.014   5.950
 2868SOL    HW225747   4.689   5.071   5.895
 2869SOL     OW25748   5.616   6.121   6.662
 2869SOL    HW125749   5.564   6.098   6.739
 2869SOL    HW225750   5.703   6.140   6.697
 2870SOL     OW25751   5.170   0.700   0.528
 2870SOL    HW125752   5.210   0.715   0.614
 2870SOL    HW225753   5.238   0.724   0.465
 2871SOL     OW25754   6.086   2.943   0.684
 2871SOL    HW125755   6.064   2.913   0.771
 2871SOL    HW225756   6.002   2.966   0.644
 2872SOL     OW25757   2.684   5.922   6.918
 2872SOL    HW125758   2.764   5.958   6.879
 2872SOL    HW225759   2.699   5.827   6.920
 2873SOL     OW25760   5.288   5.412   0.196
 2873SOL    HW125761   5.311   5.321   0.178
 2873SOL    HW225762   5.372   5.457   0.206
 2874SOL     OW25763   1.511   0.038   0.482
 2874SOL    HW125764   1.556   0.037   0.398
 2874SOL    HW225765   1.501  -0.055   0.505
 2875SOL     OW25766   6.278   5.182   6.321
 2875SOL    HW125767   6.312   5.256   6.372
 2875SOL    HW225768   6.184   5.197   6.318
 2876SOL     OW25769   5.626   6.241   1.839
 2876SOL    HW125770   5.602   6.176   1.905
 2876SOL    HW225771   5.562   6.228   1.768
 2877SOL     OW25772   5.469   3.216   7.272
 2877SOL    HW125773   5.458   3.186   7.181
 2877SOL    HW225774   5.391   3.184   7.317
 2878SOL     OW25775   6.008   0.100   6.647
 2878SOL    HW125776   6.044   0.046   6.718
 2878SOL    HW225777   5.954   0.165   6.692
 2879SOL     OW25778   5.136   0.564   1.026
 2879SOL    HW125779   5.223   0.553   0.987
 2879SOL    HW225780   5.087   0.487   0.996
 2880SOL     OW25781   1.292   6.322   5.962
 2880SOL    HW125782   1.335   6.251   5.914
 2880SOL    HW225783   1.200   6.294   5.968
 2881SOL     OW25784   0.497   0.709   1.233
 2881SOL    HW125785   0.441   0.737   1.160
 2881SOL    HW225786   0.541   0.631   1.200
 2882SOL     OW25787   4.349   3.630   6.681
 2882SOL    HW125788   4.256   3.643   6.696
 2882SOL    HW225789   4.390   3.710   6.712
 2883SOL     OW25790   5.952   3.492   1.049
 2883SOL    HW125791   5.860   3.504   1.074
 2883SOL    HW225792   5.949   3.434   0.972
 2884SOL     OW25793   3.787   3.096   1.170
 2884SOL    HW125794   3.815   3.042   1.244
 2884SOL    HW225795   3.833   3.059   1.094
 2885SOL     OW25796   4.388   1.789   6.226
 2885SOL    HW125797   4.326   1.807   6.155
 2885SOL    HW225798   4.357   1.843   6.299
 2886SOL     OW25799   4.086   5.054   0.504
 2886SOL    HW125800   4.022   5.123   0.521
 2886SOL    HW225801   4.162   5.079   0.557
 2887SOL     OW25802   2.059   2.157   1.414
 2887SOL    HW125803   2.120   2.192   1.478
 2887SOL    HW225804   2.012   2.088   1.461
 2888SOL     OW25805   5.251   4.001   2.471
 2888SOL    HW125806   5.265   3.906   2.466
 2888SOL    HW225807   5.316   4.031   2.535
 2889SOL     OW25808   3.136   2.305   2.012
 2889SOL    HW125809   3.101   2.220   2.040
 2889SOL    HW225810   3.204   2.326   2.076
 2890SOL     OW25811   2.232   0.187   7.591
 2890SOL    HW125812   2.161   0.126   7.606
 2890SOL    HW225813   2.191   0.273   7.594
 2891SOL     OW25814   0.697   5.192   0.422
 2891SOL    HW125815   0.787   5.169   0.397
 2891SOL    HW225816   0.707   5.265   0.483
 2892SOL     OW25817   0.777   6.063   0.971
 2892SOL    HW125818   0.815   6.139   1.013
 2892SOL    HW225819   0.843   6.035   0.907
 2893SOL     OW25820   4.344   2.826   7.346
 2893SOL    HW125821   4.304   2.754   7.296
 2893SOL    HW225822   4.438   2.813   7.336
 2894SOL     OW25823   1.410   3.540   7.173
 2894SOL    HW125824   1.331   3.565   7.125
 2894SOL    HW225825   1.462   3.491   7.109
 2895SOL     OW25826   1.939   3.102   0.749
 2895SOL    HW125827   1.901   3.024   0.710
 2895SOL    HW225828   1.868   3.166   0.750
 2896SOL     OW25829   6.395   4.439   5.982
 2896SOL    HW125830   6.487   4.420   5.968
 2896SOL    HW225831   6.392   4.534   5.996
 2897SOL     OW25832   2.726   2.013   7.704
 2897SOL    HW125833   2.732   2.041   7.612
 2897SOL    HW225834   2.802   1.957   7.717
 2898SOL     OW25835   3.197   4.746   6.679
 2898SOL    HW125836   3.249   4.798   6.739
 2898SOL    HW225837   3.233   4.657   6.687
 2899SOL     OW25838   2.405   5.228   1.652
 2899SOL    HW125839   2.449   5.166   1.594
 2899SOL    HW225840   2.324   5.251   1.606
 2900SOL     OW25841   0.635   4.418   2.551
 2900SOL    HW125842   0.586   4.497   2.576
 2900SOL    HW225843   0.628   4.414   2.456
 2901SOL     OW25844   1.027   6.248   1.951
 2901SOL    HW125845   1.067   6.272   2.035
 2901SOL    HW225846   1.084   6.286   1.885
 2902SOL     OW25847   2.383   3.053   2.645
 2902SOL    HW125848   2.303   3.046   2.592
 2902SOL    HW225849   2.400   3.147   2.651
 2903SOL     OW25850   5.195   6.090   5.353
 2903SOL    HW125851   5.273   6.145   5.362
 2903SOL    HW225852   5.226   6.002   5.372
 2904SOL     OW25853   3.403   0.195   6.420
 2904SOL    HW125854   3.365   0.108   6.429
 2904SOL    HW225855   3.461   0.204   6.495
 2905SOL     OW25856   5.150   5.808   1.110
 2905SOL    HW125857   5.148   5.713   1.112
 2905SOL    HW225858   5.063   5.833   1.076
 2906SOL     OW25859   2.197   2.192   6.662
 2906SOL    HW125860   2.288   2.163   6.653
 2906SOL    HW225861   2.147   2.110   6.669
 2907SOL     OW25862   5.496   4.678   1.086
 2907SOL    HW125863   5.543   4.596   1.101
 2907SOL    HW225864   5.404   4.656   1.104
 2908SOL     OW25865   2.772   3.734   0.470
 2908SOL    HW125866   2.851   3.682   0.455
 2908SOL    HW225867   2.784   3.811   0.415
 2909SOL     OW25868   4.468   1.639   7.427
 2909SOL    HW125869   4.516   1.619   7.346
 2909SOL    HW225870   4.508   1.720   7.460
 2910SOL     OW25871   3.246   6.356   6.934
 2910SOL    HW125872   3.237   6.419   6.863
 2910SOL    HW225873   3.200   6.396   7.008
 2911SOL     OW25874   0.729   1.593   6.874
 2911SOL    HW125875   0.674   1.521   6.906
 2911SOL    HW225876   0.780   1.620   6.950
 2912SOL     OW25877   3.879   3.291   0.737
 2912SOL    HW125878   3.948   3.294   0.803
 2912SOL    HW225879   3.875   3.200   0.709
 2913SOL     OW25880   3.847   5.316   1.628
 2913SOL    HW125881   3.752   5.315   1.616
 2913SOL    HW225882   3.859   5.351   1.716
 2914SOL     OW25883   0.979   0.143   2.496
 2914SOL    HW125884   0.908   0.196   2.460
 2914SOL    HW225885   0.951   0.053   2.480
 2915SOL     OW25886   2.821   1.189   6.948
 2915SOL    HW125887   2.818   1.110   6.894
 2915SOL    HW225888   2.865   1.254   6.892
 2916SOL     OW25889   4.091   4.748   1.124
 2916SOL    HW125890   4.174   4.778   1.086
 2916SOL    HW225891   4.098   4.770   1.217
 2917SOL     OW25892   4.866   3.864   0.447
 2917SOL    HW125893   4.786   3.884   0.399
 2917SOL    HW225894   4.933   3.855   0.380
 2918SOL     OW25895   0.279   3.810   6.451
 2918SOL    HW125896   0.322   3.825   6.367
 2918SOL    HW225897   0.262   3.716   6.454
 2919SOL     OW25898   0.462   3.106   7.262
 2919SOL    HW125899   0.464   3.044   7.190
 2919SOL    HW225900   0.384   3.159   7.246
 2920SOL     OW25901   2.268   3.984   6.820
 2920SOL    HW125902   2.288   3.973   6.727
 2920SOL    HW225903   2.269   4.078   6.834
 2921SOL     OW25904   5.796   2.459   6.666
 2921SOL    HW125905   5.801   2.538   6.720
 2921SOL    HW225906   5.744   2.485   6.589
 2922SOL     OW25907   3.495   1.801   1.001
 2922SOL    HW125908   3.494   1.780   0.908
 2922SOL    HW225909   3.576   1.850   1.013
 2923SOL     OW25910   3.562   3.354   0.057
 2923SOL    HW125911   3.603   3.355   0.144
 2923SOL    HW225912   3.537   3.263   0.044
 2924SOL     OW25913   2.732   2.419   6.928
 2924SOL    HW125914   2.743   2.327   6.903
 2924SOL    HW225915   2.641   2.439   6.908
 2925SOL     OW25916   3.335   2.528   1.620
 2925SOL    HW125917   3.279   2.450   1.628
 2925SOL    HW225918   3.382   2.532   1.703
 2926SOL     OW25919   4.844   4.697   0.602
 2926SOL    HW125920   4.782   4.733   0.537
 2926SOL    HW225921   4.844   4.761   0.673
 2927SOL     OW25922   3.340   3.965   6.372
 2927SOL    HW125923   3.306   4.029   6.433
 2927SOL    HW225924   3.413   4.009   6.328
 2928SOL     OW25925   4.394   1.527   0.502
 2928SOL    HW125926   4.368   1.506   0.591
 2928SOL    HW225927   4.385   1.445   0.454
 2929SOL     OW25928   1.794   4.738   5.654
 2929SOL    HW125929   1.844   4.785   5.587
 2929SOL    HW225930   1.796   4.797   5.730
 2930SOL     OW25931   4.714   3.391   1.675
 2930SOL    HW125932   4.682   3.310   1.635
 2930SOL    HW225933   4.740   3.364   1.763
 2931SOL     OW25934   0.298   5.868   1.017
 2931SOL    HW125935   0.238   5.828   1.080
 2931SOL    HW225936   0.379   5.880   1.067
 2932SOL     OW25937   4.372   2.890   1.226
 2932SOL    HW125938   4.335   2.831   1.291
 2932SOL    HW225939   4.329   2.974   1.242
 2933SOL     OW25940   2.135   2.717   1.492
 2933SOL    HW125941   2.217   2.766   1.501
 2933SOL    HW225942   2.113   2.724   1.399
 2934SOL     OW25943   2.451   4.715   0.755
 2934SOL    HW125944   2.448   4.810   0.764
 2934SOL    HW225945   2.481   4.700   0.665
 2935SOL     OW25946   5.403   0.665   0.950
 2935SOL    HW125947   5.479   0.607   0.949
 2935SOL    HW225948   5.438   0.750   0.976
 2936SOL     OW25949   3.159   0.172   7.114
 2936SOL    HW125950   3.196   0.243   7.062
 2936SOL    HW225951   3.071   0.201   7.137
 2937SOL     OW25952   3.426   4.434   6.923
 2937SOL    HW125953   3.480   4.361   6.894
 2937SOL    HW225954   3.391   4.471   6.843
 2938SOL     OW25955   4.826   4.755   7.263
 2938SOL    HW125956   4.915   4.770   7.232
 2938SOL    HW225957   4.779   4.722   7.186
 2939SOL     OW25958   4.232   4.709   0.018
 2939SOL    HW125959   4.148   4.731   0.058
 2939SOL    HW225960   4.288   4.784   0.036
 2940SOL     OW25961   4.526   0.155   1.636
 2940SOL    HW125962   4.553   0.247   1.641
 2940SOL    HW225963   4.556   0.116   1.718
 2941SOL     OW25964   5.361   6.228   1.138
 2941SOL    HW125965   5.369   6.159   1.204
 2941SOL    HW225966   5.280   6.206   1.091
 2942SOL     OW25967   5.346   4.107   6.032
 2942SOL    HW125968   5.265   4.125   5.984
 2942SOL    HW225969   5.411   4.092   5.963
 2943SOL     OW25970   2.058   0.755   7.330
 2943SOL    HW125971   1.994   0.696   7.291
 2943SOL    HW225972   2.142   0.710   7.320
 2944SOL     OW25973   3.548   2.236   0.466
 2944SOL    HW125974   3.466   2.244   0.514
 2944SOL    HW225975   3.553   2.318   0.415
 2945SOL     OW25976   4.290   1.082   1.090
 2945SOL    HW125977   4.240   1.125   1.160
 2945SOL    HW225978   4.366   1.044   1.134
 2946SOL     OW25979   3.775   6.302   2.353
 2946SOL    HW125980   3.703   6.363   2.366
 2946SOL    HW225981   3.733   6.218   2.333
 2947SOL     OW25982   5.714   2.461   7.492
 2947SOL    HW125983   5.770   2.482   7.567
 2947SOL    HW225984   5.639   2.520   7.501
 2948SOL     OW25985   3.825   4.616   7.516
 2948SOL    HW125986   3.898   4.571   7.559
 2948SOL    HW225987   3.755   4.614   7.581
 2949SOL     OW25988   1.103   1.657   2.006
 2949SOL    HW125989   1.140   1.596   2.070
 2949SOL    HW225990   1.151   1.640   1.925
 2950SOL     OW25991   5.188   1.070   0.381
 2950SOL    HW125992   5.177   1.088   0.475
 2950SOL    HW225993   5.105   1.097   0.342
 2951SOL     OW25994   1.774   5.784   0.792
 2951SOL    HW125995   1.866   5.774   0.816
 2951SOL    HW225996   1.727   5.779   0.875
 2952SOL     OW25997   5.150   0.236   6.421
 2952SOL    HW125998   5.089   0.186   6.476
 2952SOL    HW225999   5.124   0.216   6.331
 2953SOL     OW26000   3.947   4.452   7.687
 2953SOL    HW126001   4.013   4.397   7.728
 2953SOL    HW226002   3.891   4.391   7.638
 2954SOL     OW26003   2.848   3.667   1.785
 2954SOL    HW126004   2.776   3.719   1.821
 2954SOL    HW226005   2.891   3.630   1.863
 2955SOL     OW26006   0.283   3.872   7.736
 2955SOL    HW126007   0.258   3.910   7.651
 2955SOL    HW226008   0.204   3.878   7.789
 2956SOL     OW26009   3.979   0.167   7.100
 2956SOL    HW126010   4.005   0.077   7.119
 2956SOL    HW226011   4.060   0.217   7.110
 2957SOL     OW26012   5.557   4.290   0.357
 2957SOL    HW126013   5.489   4.355   0.341
 2957SOL    HW226014   5.637   4.342   0.369
 2958SOL     OW26015   4.358   3.895   5.962
 2958SOL    HW126016   4.323   3.941   6.038
 2958SOL    HW226017   4.391   3.966   5.905
 2959SOL     OW26018   3.979   0.766   6.698
 2959SOL    HW126019   4.008   0.694   6.754
 2959SOL    HW226020   3.947   0.724   6.619
 2960SOL     OW26021   2.968   6.325   7.241
 2960SOL    HW126022   3.046   6.271   7.259
 2960SOL    HW226023   2.957   6.378   7.320
 2961SOL     OW26024   1.210   1.034   7.212
 2961SOL    HW126025   1.175   1.007   7.297
 2961SOL    HW226026   1.184   1.125   7.202
 2962SOL     OW26027   3.033   2.892   0.600
 2962SOL    HW126028   3.064   2.870   0.512
 2962SOL    HW226029   3.035   2.987   0.604
 2963SOL     OW26030   6.061   1.696   1.747
 2963SOL    HW126031   6.076   1.740   1.830
 2963SOL    HW226032   5.976   1.654   1.757
 2964SOL     OW26033   2.322   5.254   7.070
 2964SOL    HW126034   2.366   5.333   7.103
 2964SOL    HW226035   2.321   5.265   6.975
 2965SOL     OW26036   3.594   4.566   1.849
 2965SOL    HW126037   3.680   4.573   1.891
 2965SOL    HW226038   3.555   4.652   1.859
 2966SOL     OW26039   4.499   4.071   0.526
 2966SOL    HW126040   4.551   4.145   0.495
 2966SOL    HW226041   4.469   4.027   0.447
 2967SOL     OW26042   4.629   0.446   7.274
 2967SOL    HW126043   4.674   0.477   7.353
 2967SOL    HW226044   4.698   0.413   7.218
 2968SOL     OW26045   2.946   1.850   1.648
 2968SOL    HW126046   2.895   1.776   1.616
 2968SOL    HW226047   3.022   1.809   1.691
 2969SOL     OW26048   5.866   0.335   6.786
 2969SOL    HW126049   5.839   0.426   6.792
 2969SOL    HW226050   5.784   0.286   6.785
 2970SOL     OW26051   0.216   2.351   7.571
 2970SOL    HW126052   0.263   2.305   7.501
 2970SOL    HW226053   0.124   2.333   7.553
 2971SOL     OW26054   6.146   2.783   1.800
 2971SOL    HW126055   6.132   2.688   1.811
 2971SOL    HW226056   6.200   2.790   1.722
 2972SOL     OW26057   5.045   2.363   0.044
 2972SOL    HW126058   5.106   2.427   0.081
 2972SOL    HW226059   5.012   2.314   0.119
 2973SOL     OW26060   3.118   4.900   0.090
 2973SOL    HW126061   3.136   4.963   0.160
 2973SOL    HW226062   3.052   4.943   0.036
 2974SOL     OW26063   6.148   5.636   5.563
 2974SOL    HW126064   6.219   5.692   5.593
 2974SOL    HW226065   6.068   5.681   5.591
 2975SOL     OW26066   1.172   1.031   6.526
 2975SOL    HW126067   1.221   1.044   6.607
 2975SOL    HW226068   1.093   0.985   6.552
 2976SOL     OW26069   5.527   3.272   6.472
 2976SOL    HW126070   5.579   3.193   6.456
 2976SOL    HW226071   5.440   3.240   6.494
 2977SOL     OW26072   6.079   3.698   1.814
 2977SOL    HW126073   6.049   3.788   1.819
 2977SOL    HW226074   6.174   3.703   1.830
 2978SOL     OW26075   3.567   4.893   6.092
 2978SOL    HW126076   3.643   4.925   6.043
 2978SOL    HW226077   3.504   4.866   6.025
 2979SOL     OW26078   5.916   4.995   1.067
 2979SOL    HW126079   5.981   4.997   0.996
 2979SOL    HW226080   5.864   4.916   1.049
 2980SOL     OW26081   1.788   1.660   7.690
 2980SOL    HW126082   1.821   1.604   7.761
 2980SOL    HW226083   1.760   1.598   7.622
 2981SOL     OW26084   4.078   3.015   5.538
 2981SOL    HW126085   4.018   2.944   5.518
 2981SOL    HW226086   4.141   3.014   5.466
 2982SOL     OW26087   1.969   3.331   1.010
 2982SOL    HW126088   1.978   3.401   0.945
 2982SOL    HW226089   2.038   3.269   0.988
 2983SOL     OW26090   3.695   5.748   1.293
 2983SOL    HW126091   3.777   5.785   1.325
 2983SOL    HW226092   3.689   5.778   1.202
 2984SOL     OW26093   5.682   4.535   1.494
 2984SOL    HW126094   5.663   4.628   1.506
 2984SOL    HW226095   5.761   4.533   1.438
 2985SOL     OW26096   2.002   1.543   6.633
 2985SOL    HW126097   1.935   1.604   6.664
 2985SOL    HW226098   1.985   1.462   6.681
 2986SOL     OW26099   6.111   2.296   6.775
 2986SOL    HW126100   6.085   2.272   6.686
 2986SOL    HW226101   6.028   2.313   6.820
 2987SOL     OW26102   2.969   5.619   2.561
 2987SOL    HW126103   2.941   5.658   2.479
 2987SOL    HW226104   3.063   5.604   2.551
 2988SOL     OW26105   2.871   1.837   6.173
 2988SOL    HW126106   2.945   1.815   6.117
 2988SOL    HW226107   2.833   1.752   6.198
 2989SOL     OW26108   4.948   0.874   0.634
 2989SOL    HW126109   5.026   0.881   0.580
 2989SOL    HW226110   4.876   0.869   0.572
 2990SOL     OW26111   4.866   5.617   5.791
 2990SOL    HW126112   4.825   5.684   5.737
 2990SOL    HW226113   4.810   5.541   5.781
 2991SOL     OW26114   6.063   4.399   1.895
 2991SOL    HW126115   5.989   4.454   1.920
 2991SOL    HW226116   6.109   4.382   1.976
 2992SOL     OW26117   3.496   3.071   7.421
 2992SOL    HW126118   3.489   3.160   7.387
 2992SOL    HW226119   3.494   3.082   7.516
 2993SOL     OW26120   2.086   0.284   6.804
 2993SOL    HW126121   1.996   0.256   6.820
 2993SOL    HW226122   2.119   0.222   6.738
 2994SOL     OW26123   6.331   3.918   0.767
 2994SOL    HW126124   6.401   3.947   0.825
 2994SOL    HW226125   6.259   3.980   0.783
 2995SOL     OW26126   3.820   1.719   0.590
 2995SOL    HW126127   3.835   1.809   0.560
 2995SOL    HW226128   3.751   1.686   0.533
 2996SOL     OW26129   2.420   5.562   6.167
 2996SOL    HW126130   2.468   5.483   6.194
 2996SOL    HW226131   2.347   5.529   6.115
 2997SOL     OW26132   2.386   4.303   5.812
 2997SOL    HW126133   2.341   4.223   5.785
 2997SOL    HW226134   2.333   4.337   5.884
 2998SOL     OW26135   6.441   5.411   6.205
 2998SOL    HW126136   6.427   5.396   6.298
 2998SOL    HW226137   6.505   5.482   6.202
 2999SOL     OW26138   2.707   6.319   6.605
 2999SOL    HW126139   2.760   6.399   6.614
 2999SOL    HW226140   2.666   6.307   6.690
 3000SOL     OW26141   5.506   4.398   6.456
 3000SOL    HW126142   5.459   4.350   6.387
 3000SOL    HW226143   5.577   4.443   6.410
 3001SOL     OW26144   6.361   4.688   0.545
 3001SOL    HW126145   6.375   4.594   0.535
 3001SOL    HW226146   6.448   4.727   0.540
 3002SOL     OW26147   2.594   3.281   1.320
 3002SOL    HW126148   2.646   3.357   1.344
 3002SOL    HW226149   2.508   3.298   1.358
 3003SOL     OW26150   0.084   4.904   1.360
 3003SOL    HW126151   0.147   4.946   1.302
 3003SOL    HW226152  -0.001   4.923   1.321
 3004SOL     OW26153   4.409   3.156   0.840
 3004SOL    HW126154   4.442   3.148   0.751
 3004SOL    HW226155   4.459   3.092   0.891
 3005SOL     OW26156   0.556   1.769   6.483
 3005SOL    HW126157   0.553   1.845   6.425
 3005SOL    HW226158   0.646   1.766   6.515
 3006SOL     OW26159   2.117   1.882   7.031
 3006SOL    HW126160   2.106   1.878   6.936
 3006SOL    HW226161   2.094   1.972   7.055
 3007SOL     OW26162   4.780   1.697   1.787
 3007SOL    HW126163   4.814   1.627   1.732
 3007SOL    HW226164   4.831   1.691   1.868
 3008SOL     OW26165   1.843   3.686   1.413
 3008SOL    HW126166   1.845   3.665   1.319
 3008SOL    HW226167   1.888   3.612   1.455
 3009SOL     OW26168   2.695   0.982   7.476
 3009SOL    HW126169   2.615   0.938   7.448
 3009SOL    HW226170   2.764   0.940   7.426
 3010SOL     OW26171   3.984   4.728   1.581
 3010SOL    HW126172   3.920   4.798   1.595
 3010SOL    HW226173   3.968   4.666   1.652
 3011SOL     OW26174   6.078   0.943   7.110
 3011SOL    HW126175   6.117   0.942   7.198
 3011SOL    HW226176   6.146   0.982   7.055
 3012SOL     OW26177   1.882   3.999   1.557
 3012SOL    HW126178   1.879   4.089   1.591
 3012SOL    HW226179   1.970   3.990   1.520
 3013SOL     OW26180   3.064   3.713   5.972
 3013SOL    HW126181   3.142   3.750   6.013
 3013SOL    HW226182   3.087   3.622   5.955
 3014SOL     OW26183   0.224   4.776   7.167
 3014SOL    HW126184   0.203   4.824   7.247
 3014SOL    HW226185   0.247   4.845   7.104
 3015SOL     OW26186   5.025   4.402   6.684
 3015SOL    HW126187   5.113   4.366   6.691
 3015SOL    HW226188   5.025   4.449   6.601
 3016SOL     OW26189   0.535   1.229   7.439
 3016SOL    HW126190   0.543   1.298   7.373
 3016SOL    HW226191   0.507   1.152   7.389
 3017SOL     OW26192   0.456   4.085   0.495
 3017SOL    HW126193   0.369   4.079   0.456
 3017SOL    HW226194   0.475   4.179   0.497
 3018SOL     OW26195   6.154   3.412   6.930
 3018SOL    HW126196   6.146   3.484   6.993
 3018SOL    HW226197   6.205   3.346   6.976
 3019SOL     OW26198   3.794   4.908   6.957
 3019SOL    HW126199   3.789   4.970   6.885
 3019SOL    HW226200   3.795   4.822   6.915
 3020SOL     OW26201   4.746   1.404   0.554
 3020SOL    HW126202   4.729   1.467   0.484
 3020SOL    HW226203   4.720   1.450   0.634
 3021SOL     OW26204   3.255   6.103   6.734
 3021SOL    HW126205   3.193   6.174   6.720
 3021SOL    HW226206   3.256   6.091   6.829
 3022SOL     OW26207   5.931   0.006   7.000
 3022SOL    HW126208   5.855   0.063   7.016
 3022SOL    HW226209   6.006   0.066   7.001
 3023SOL     OW26210   6.251   4.941   0.688
 3023SOL    HW126211   6.264   5.033   0.707
 3023SOL    HW226212   6.340   4.905   0.680
 3024SOL     OW26213   0.393   0.964   2.423
 3024SOL    HW126214   0.336   0.887   2.420
 3024SOL    HW226215   0.339   1.035   2.387
 3025SOL     OW26216   5.051   3.106   2.208
 3025SOL    HW126217   5.130   3.089   2.157
 3025SOL    HW226218   5.083   3.150   2.287
 3026SOL     OW26219   0.093   5.507   0.370
 3026SOL    HW126220   0.103   5.525   0.463
 3026SOL    HW226221   0.020   5.445   0.366
 3027SOL     OW26222   3.161   2.151   0.959
 3027SOL    HW126223   3.123   2.163   0.872
 3027SOL    HW226224   3.118   2.074   0.994
 3028SOL     OW26225   3.414   4.598   0.230
 3028SOL    HW126226   3.431   4.602   0.135
 3028SOL    HW226227   3.322   4.623   0.238
 3029SOL     OW26228   1.613   4.114   7.658
 3029SOL    HW126229   1.568   4.194   7.629
 3029SOL    HW226230   1.682   4.101   7.593
 3030SOL     OW26231   2.456   4.401   0.515
 3030SOL    HW126232   2.432   4.492   0.530
 3030SOL    HW226233   2.543   4.405   0.475
 3031SOL     OW26234   4.528   0.022   6.453
 3031SOL    HW126235   4.533  -0.002   6.546
 3031SOL    HW226236   4.578  -0.046   6.408
 3032SOL     OW26237   6.280   3.051   7.389
 3032SOL    HW126238   6.300   2.959   7.371
 3032SOL    HW226239   6.319   3.067   7.475
 3033SOL     OW26240   4.953   4.344   7.117
 3033SOL    HW126241   4.895   4.288   7.067
 3033SOL    HW226242   5.041   4.316   7.092
 3034SOL     OW26243   6.393   5.005   0.989
 3034SOL    HW126244   6.462   4.938   0.991
 3034SOL    HW226245   6.436   5.081   0.950
 3035SOL     OW26246   0.032   5.264   2.425
 3035SOL    HW126247  -0.060   5.238   2.418
 3035SOL    HW226248   0.030   5.357   2.443
 3036SOL     OW26249   0.795   2.191   0.745
 3036SOL    HW126250   0.851   2.262   0.776
 3036SOL    HW226251   0.706   2.226   0.751
 3037SOL     OW26252   6.014   5.080   7.252
 3037SOL    HW126253   6.020   4.985   7.247
 3037SOL    HW226254   5.940   5.102   7.195
 3038SOL     OW26255   4.943   4.486   0.992
 3038SOL    HW126256   4.849   4.498   0.984
 3038SOL    HW226257   4.956   4.453   1.081
 3039SOL     OW26258   3.882   0.610   1.570
 3039SOL    HW126259   3.932   0.634   1.648
 3039SOL    HW226260   3.876   0.691   1.519
 3040SOL     OW26261   6.161   1.390   1.698
 3040SOL    HW126262   6.173   1.371   1.791
 3040SOL    HW226263   6.213   1.469   1.683
 3041SOL     OW26264   6.353   3.798   2.953
 3041SOL    HW126265   6.318   3.786   3.041
 3041SOL    HW226266   6.277   3.786   2.895
 3042SOL     OW26267   5.060   3.931   1.587
 3042SOL    HW126268   4.969   3.945   1.614
 3042SOL    HW226269   5.074   3.837   1.599
 3043SOL     OW26270   0.637   2.718   0.344
 3043SOL    HW126271   0.714   2.674   0.381
 3043SOL    HW226272   0.582   2.647   0.311
 3044SOL     OW26273   6.353   0.736   1.677
 3044SOL    HW126274   6.373   0.658   1.729
 3044SOL    HW226275   6.396   0.720   1.593
 3045SOL     OW26276   2.816   3.876   2.294
 3045SOL    HW126277   2.855   3.790   2.308
 3045SOL    HW226278   2.721   3.860   2.292
 3046SOL     OW26279   0.316   3.704   7.142
 3046SOL    HW126280   0.358   3.629   7.184
 3046SOL    HW226281   0.351   3.705   7.053
 3047SOL     OW26282   3.532   2.495   7.233
 3047SOL    HW126283   3.455   2.445   7.208
 3047SOL    HW226284   3.606   2.438   7.208
 3048SOL     OW26285   1.508   6.162   6.655
 3048SOL    HW126286   1.434   6.140   6.598
 3048SOL    HW226287   1.467   6.203   6.732
 3049SOL     OW26288   2.433   5.537   0.822
 3049SOL    HW126289   2.359   5.543   0.883
 3049SOL    HW226290   2.451   5.443   0.816
 3050SOL     OW26291   6.198   2.327   0.778
 3050SOL    HW126292   6.249   2.408   0.771
 3050SOL    HW226293   6.257   2.265   0.822
 3051SOL     OW26294   2.426   6.259   0.735
 3051SOL    HW126295   2.363   6.238   0.666
 3051SOL    HW226296   2.511   6.234   0.699
 3052SOL     OW26297   4.652   2.310   0.723
 3052SOL    HW126298   4.573   2.258   0.738
 3052SOL    HW226299   4.647   2.380   0.788
 3053SOL     OW26300   2.790   2.140   0.377
 3053SOL    HW126301   2.740   2.063   0.351
 3053SOL    HW226302   2.734   2.187   0.438
 3054SOL     OW26303   3.304   4.765   1.434
 3054SOL    HW126304   3.292   4.782   1.528
 3054SOL    HW226305   3.238   4.821   1.392
 3055SOL     OW26306   4.243   3.372   1.232
 3055SOL    HW126307   4.164   3.415   1.267
 3055SOL    HW226308   4.299   3.445   1.204
 3056SOL     OW26309   2.022   2.675   0.044
 3056SOL    HW126310   2.022   2.734  -0.032
 3056SOL    HW226311   1.930   2.657   0.061
 3057SOL     OW26312   6.410   2.595   7.069
 3057SOL    HW126313   6.435   2.545   6.992
 3057SOL    HW226314   6.330   2.553   7.101
 3058SOL     OW26315   3.175   4.693   0.296
 3058SOL    HW126316   3.145   4.734   0.215
 3058SOL    HW226317   3.103   4.706   0.357
 3059SOL     OW26318   1.371   3.360   2.381
 3059SOL    HW126319   1.340   3.427   2.320
 3059SOL    HW226320   1.394   3.407   2.460
 3060SOL     OW26321   5.833   5.709   2.209
 3060SOL    HW126322   5.751   5.706   2.258
 3060SOL    HW226323   5.900   5.691   2.275
 3061SOL     OW26324   5.342   0.648   1.888
 3061SOL    HW126325   5.276   0.699   1.935
 3061SOL    HW226326   5.325   0.557   1.914
 3062SOL     OW26327   1.160   1.923   6.546
 3062SOL    HW126328   1.141   1.830   6.551
 3062SOL    HW226329   1.175   1.949   6.637
 3063SOL     OW26330   5.047   3.446   5.533
 3063SOL    HW126331   5.082   3.477   5.617
 3063SOL    HW226332   5.034   3.352   5.545
 3064SOL     OW26333   5.123   6.173   0.882
 3064SOL    HW126334   5.199   6.231   0.884
 3064SOL    HW226335   5.104   6.161   0.789
 3065SOL     OW26336   5.148   0.731   2.074
 3065SOL    HW126337   5.062   0.745   2.115
 3065SOL    HW226338   5.206   0.793   2.119
 3066SOL     OW26339   2.742   4.566   6.500
 3066SOL    HW126340   2.756   4.548   6.407
 3066SOL    HW226341   2.829   4.588   6.534
 3067SOL     OW26342   0.938   1.393   6.751
 3067SOL    HW126343   0.919   1.383   6.657
 3067SOL    HW226344   0.880   1.463   6.780
 3068SOL     OW26345   5.394   5.665   2.251
 3068SOL    HW126346   5.417   5.573   2.236
 3068SOL    HW226347   5.365   5.696   2.165
 3069SOL     OW26348   2.792   5.678   1.407
 3069SOL    HW126349   2.879   5.711   1.429
 3069SOL    HW226350   2.744   5.755   1.378
 3070SOL     OW26351   5.160   1.296   0.926
 3070SOL    HW126352   5.099   1.332   0.862
 3070SOL    HW226353   5.206   1.226   0.878
 3071SOL     OW26354   0.017   6.221   6.119
 3071SOL    HW126355   0.015   6.256   6.208
 3071SOL    HW226356  -0.018   6.292   6.065
 3072SOL     OW26357   3.050   3.490   7.359
 3072SOL    HW126358   3.061   3.547   7.436
 3072SOL    HW226359   3.081   3.404   7.388
 3073SOL     OW26360   3.154   1.493   0.492
 3073SOL    HW126361   3.219   1.449   0.438
 3073SOL    HW226362   3.178   1.471   0.582
 3074SOL     OW26363   3.726   4.991   6.459
 3074SOL    HW126364   3.780   4.932   6.407
 3074SOL    HW226365   3.787   5.028   6.523
 3075SOL     OW26366   5.324   2.494   1.984
 3075SOL    HW126367   5.341   2.536   2.068
 3075SOL    HW226368   5.267   2.419   2.005
 3076SOL     OW26369   0.401   6.234   6.787
 3076SOL    HW126370   0.364   6.241   6.699
 3076SOL    HW226371   0.492   6.261   6.777
 3077SOL     OW26372   4.561   0.254   0.089
 3077SOL    HW126373   4.544   0.273  -0.003
 3077SOL    HW226374   4.623   0.322   0.116
 3078SOL     OW26375   0.579   5.911   1.088
 3078SOL    HW126376   0.641   5.964   1.037
 3078SOL    HW226377   0.618   5.823   1.088
 3079SOL     OW26378   4.213   5.693   1.773
 3079SOL    HW126379   4.228   5.750   1.697
 3079SOL    HW226380   4.198   5.754   1.845
 3080SOL     OW26381   5.090   6.349   6.577
 3080SOL    HW126382   5.012   6.294   6.583
 3080SOL    HW226383   5.056   6.438   6.584
 3081SOL     OW26384   6.129   5.334   6.914
 3081SOL    HW126385   6.144   5.383   6.995
 3081SOL    HW226386   6.210   5.284   6.901
 3082SOL     OW26387   5.732   5.234   7.483
 3082SOL    HW126388   5.655   5.256   7.432
 3082SOL    HW226389   5.786   5.313   7.480
 3083SOL     OW26390   3.354   6.396   0.099
 3083SOL    HW126391   3.404   6.353   0.169
 3083SOL    HW226392   3.388   6.357   0.018
 3084SOL     OW26393   2.909   5.867   0.641
 3084SOL    HW126394   2.864   5.936   0.690
 3084SOL    HW226395   2.865   5.787   0.668
 3085SOL     OW26396   3.086   4.983   0.438
 3085SOL    HW126397   3.101   5.041   0.513
 3085SOL    HW226398   3.132   5.025   0.365
 3086SOL     OW26399   3.287   5.052   7.332
 3086SOL    HW126400   3.332   5.034   7.414
 3086SOL    HW226401   3.356   5.058   7.267
 3087SOL     OW26402   0.709   1.516   0.037
 3087SOL    HW126403   0.628   1.565   0.051
 3087SOL    HW226404   0.756   1.566  -0.030
 3088SOL     OW26405   2.643   5.388   0.504
 3088SOL    HW126406   2.583   5.339   0.448
 3088SOL    HW226407   2.727   5.345   0.493
 3089SOL     OW26408   2.136   0.264   7.072
 3089SOL    HW126409   2.139   0.305   6.985
 3089SOL    HW226410   2.097   0.178   7.057
 3090SOL     OW26411   5.294   4.336   0.957
 3090SOL    HW126412   5.255   4.358   0.872
 3090SOL    HW226413   5.248   4.391   1.020
 3091SOL     OW26414   2.528   3.412   6.585
 3091SOL    HW126415   2.585   3.477   6.544
 3091SOL    HW226416   2.491   3.362   6.513
 3092SOL     OW26417   4.218   2.511   1.245
 3092SOL    HW126418   4.290   2.571   1.264
 3092SOL    HW226419   4.152   2.566   1.203
 3093SOL     OW26420   1.226   4.728   6.868
 3093SOL    HW126421   1.176   4.683   6.935
 3093SOL    HW226422   1.215   4.674   6.789
 3094SOL     OW26423   5.429   4.935   0.560
 3094SOL    HW126424   5.410   5.025   0.587
 3094SOL    HW226425   5.503   4.909   0.615
 3095SOL     OW26426   2.867   1.223   2.061
 3095SOL    HW126427   2.795   1.234   1.998
 3095SOL    HW226428   2.903   1.311   2.072
 3096SOL     OW26429   5.016   6.149   6.161
 3096SOL    HW126430   5.042   6.072   6.111
 3096SOL    HW226431   4.983   6.114   6.244
 3097SOL     OW26432   6.292   5.880   5.994
 3097SOL    HW126433   6.219   5.825   6.022
 3097SOL    HW226434   6.261   5.969   6.009
 3098SOL     OW26435   1.169   1.695   7.692
 3098SOL    HW126436   1.178   1.669   7.600
 3098SOL    HW226437   1.079   1.671   7.714
 3099SOL     OW26438   3.802   6.391   1.407
 3099SOL    HW126439   3.888   6.420   1.376
 3099SOL    HW226440   3.806   6.400   1.502
 3100SOL     OW26441   5.006   3.065   1.727
 3100SOL    HW126442   4.936   3.035   1.785
 3100SOL    HW226443   4.960   3.107   1.654
 3101SOL     OW26444   4.397   1.436   7.590
 3101SOL    HW126445   4.424   1.477   7.673
 3101SOL    HW226446   4.424   1.498   7.523
 3102SOL     OW26447   0.892   2.549   0.481
 3102SOL    HW126448   0.942   2.551   0.400
 3102SOL    HW226449   0.826   2.481   0.467
 3103SOL     OW26450   3.418   2.775   0.069
 3103SOL    HW126451   3.370   2.840   0.120
 3103SOL    HW226452   3.399   2.797  -0.022
 3104SOL     OW26453   1.216   2.336   7.167
 3104SOL    HW126454   1.133   2.323   7.213
 3104SOL    HW226455   1.280   2.351   7.236
 3105SOL     OW26456   6.439   5.552   1.072
 3105SOL    HW126457   6.528   5.553   1.035
 3105SOL    HW226458   6.399   5.473   1.035
 3106SOL     OW26459   4.292   2.641   0.750
 3106SOL    HW126460   4.199   2.666   0.742
 3106SOL    HW226461   4.321   2.628   0.660
 3107SOL     OW26462   6.234   5.739   1.621
 3107SOL    HW126463   6.189   5.697   1.694
 3107SOL    HW226464   6.179   5.720   1.545
 3108SOL     OW26465   3.727   4.172   7.115
 3108SOL    HW126466   3.632   4.180   7.128
 3108SOL    HW226467   3.765   4.213   7.192
 3109SOL     OW26468   3.898   3.515   6.756
 3109SOL    HW126469   3.845   3.471   6.823
 3109SOL    HW226470   3.933   3.443   6.702
 3110SOL     OW26471   3.859   2.513   0.875
 3110SOL    HW126472   3.846   2.578   0.944
 3110SOL    HW226473   3.775   2.468   0.869
 3111SOL     OW26474   0.332   0.791   6.362
 3111SOL    HW126475   0.283   0.793   6.279
 3111SOL    HW226476   0.400   0.726   6.347
 3112SOL     OW26477   6.069   2.660   1.526
 3112SOL    HW126478   5.977   2.676   1.548
 3112SOL    HW226479   6.108   2.748   1.526
 3113SOL     OW26480   2.951   2.364   0.610
 3113SOL    HW126481   2.865   2.336   0.577
 3113SOL    HW226482   2.978   2.293   0.668
 3114SOL     OW26483   5.554   1.538   0.456
 3114SOL    HW126484   5.462   1.518   0.436
 3114SOL    HW226485   5.575   1.480   0.529
 3115SOL     OW26486   1.695   1.392   0.703
 3115SOL    HW126487   1.773   1.434   0.738
 3115SOL    HW226488   1.665   1.335   0.774
 3116SOL     OW26489   0.474   2.538   6.904
 3116SOL    HW126490   0.552   2.492   6.875
 3116SOL    HW226491   0.441   2.485   6.977
 3117SOL     OW26492   1.936   6.179   1.867
 3117SOL    HW126493   1.941   6.252   1.805
 3117SOL    HW226494   1.896   6.216   1.945
 3118SOL     OW26495   3.108   2.236   6.502
 3118SOL    HW126496   3.159   2.312   6.473
 3118SOL    HW226497   3.073   2.198   6.421
 3119SOL     OW26498   0.889   6.222   6.944
 3119SOL    HW126499   0.947   6.147   6.928
 3119SOL    HW226500   0.864   6.214   7.036
 3120SOL     OW26501   3.600   5.027   5.702
 3120SOL    HW126502   3.578   5.117   5.728
 3120SOL    HW226503   3.692   5.031   5.678
 3121SOL     OW26504   2.099   3.803   0.561
 3121SOL    HW126505   2.147   3.721   0.568
 3121SOL    HW226506   2.153   3.859   0.506
 3122SOL     OW26507   2.751   4.369   0.339
 3122SOL    HW126508   2.837   4.410   0.337
 3122SOL    HW226509   2.767   4.276   0.326
 3123SOL     OW26510   1.317   6.413   6.256
 3123SOL    HW126511   1.295   6.417   6.163
 3123SOL    HW226512   1.394   6.356   6.260
 3124SOL     OW26513   0.503   0.494   2.067
 3124SOL    HW126514   0.492   0.399   2.073
 3124SOL    HW226515   0.563   0.506   1.993
 3125SOL     OW26516   6.342   3.806   2.289
 3125SOL    HW126517   6.364   3.859   2.365
 3125SOL    HW226518   6.247   3.800   2.290
 3126SOL     OW26519   2.670   0.352   0.823
 3126SOL    HW126520   2.729   0.283   0.854
 3126SOL    HW226521   2.654   0.331   0.731
 3127SOL     OW26522   2.145   1.696   6.052
 3127SOL    HW126523   2.179   1.620   6.098
 3127SOL    HW226524   2.131   1.666   5.962
 3128SOL     OW26525   3.310   1.929   1.407
 3128SOL    HW126526   3.286   1.874   1.482
 3128SOL    HW226527   3.359   1.870   1.349
 3129SOL     OW26528   3.972   3.306   1.014
 3129SOL    HW126529   3.989   3.398   1.035
 3129SOL    HW226530   3.925   3.273   1.090
 3130SOL     OW26531   5.020   0.283   0.986
 3130SOL    HW126532   5.059   0.238   1.061
 3130SOL    HW226533   4.928   0.257   0.989
 3131SOL     OW26534   0.475   0.660   6.024
 3131SOL    HW126535   0.532   0.658   6.101
 3131SOL    HW226536   0.399   0.710   6.052
 3132SOL     OW26537   5.615   5.221   5.717
 3132SOL    HW126538   5.548   5.263   5.770
 3132SOL    HW226539   5.697   5.237   5.764
 3133SOL     OW26540   1.980   2.827   7.546
 3133SOL    HW126541   2.051   2.874   7.503
 3133SOL    HW226542   1.904   2.840   7.489
 3134SOL     OW26543   2.531   0.328   7.091
 3134SOL    HW126544   2.487   0.254   7.133
 3134SOL    HW226545   2.566   0.380   7.163
 3135SOL     OW26546   4.182   2.966   2.252
 3135SOL    HW126547   4.143   2.882   2.227
 3135SOL    HW226548   4.264   2.971   2.203
 3136SOL     OW26549   0.516   4.109   0.118
 3136SOL    HW126550   0.577   4.183   0.123
 3136SOL    HW226551   0.558   4.041   0.171
 3137SOL     OW26552   4.692   6.120   0.870
 3137SOL    HW126553   4.638   6.059   0.921
 3137SOL    HW226554   4.718   6.187   0.933
 3138SOL     OW26555   3.784   3.611   1.927
 3138SOL    HW126556   3.721   3.572   1.866
 3138SOL    HW226557   3.738   3.613   2.011
 3139SOL     OW26558   3.013   2.030   0.468
 3139SOL    HW126559   2.920   2.048   0.455
 3139SOL    HW226560   3.055   2.067   0.390
 3140SOL     OW26561   4.741   3.702   6.910
 3140SOL    HW126562   4.739   3.612   6.942
 3140SOL    HW226563   4.800   3.747   6.970
 3141SOL     OW26564   4.364   2.624   0.480
 3141SOL    HW126565   4.351   2.531   0.461
 3141SOL    HW226566   4.432   2.651   0.418
 3142SOL     OW26567   5.072   2.101   1.764
 3142SOL    HW126568   5.119   2.119   1.845
 3142SOL    HW226569   5.062   2.187   1.723
 3143SOL     OW26570   4.939   0.565   6.144
 3143SOL    HW126571   4.918   0.472   6.138
 3143SOL    HW226572   4.881   0.598   6.213
 3144SOL     OW26573   0.169   0.895   1.374
 3144SOL    HW126574   0.144   0.949   1.298
 3144SOL    HW226575   0.263   0.909   1.384
 3145SOL     OW26576   1.440   1.617   1.823
 3145SOL    HW126577   1.463   1.585   1.910
 3145SOL    HW226578   1.503   1.575   1.765
 3146SOL     OW26579   1.786   1.541   1.314
 3146SOL    HW126580   1.786   1.486   1.392
 3146SOL    HW226581   1.870   1.523   1.271
 3147SOL     OW26582   1.407   0.341   0.285
 3147SOL    HW126583   1.409   0.334   0.380
 3147SOL    HW226584   1.451   0.424   0.265
 3148SOL     OW26585   0.506   3.445   2.189
 3148SOL    HW126586   0.445   3.385   2.233
 3148SOL    HW226587   0.564   3.388   2.139
 3149SOL     OW26588   4.589   4.639   0.784
 3149SOL    HW126589   4.637   4.678   0.712
 3149SOL    HW226590   4.655   4.625   0.852
 3150SOL     OW26591   4.468   5.446   1.693
 3150SOL    HW126592   4.457   5.504   1.768
 3150SOL    HW226593   4.487   5.360   1.730
 3151SOL     OW26594   3.878   1.790   0.930
 3151SOL    HW126595   3.835   1.856   0.984
 3151SOL    HW226596   3.809   1.757   0.872
 3152SOL     OW26597   0.115   4.254   2.664
 3152SOL    HW126598   0.131   4.347   2.651
 3152SOL    HW226599   0.198   4.219   2.696
 3153SOL     OW26600   4.306   4.665   7.469
 3153SOL    HW126601   4.288   4.637   7.558
 3153SOL    HW226602   4.284   4.758   7.468
 3154SOL     OW26603   5.000   0.603   7.562
 3154SOL    HW126604   5.090   0.589   7.592
 3154SOL    HW226605   4.947   0.549   7.621
 3155SOL     OW26606   3.193   1.750   6.645
 3155SOL    HW126607   3.216   1.842   6.654
 3155SOL    HW226608   3.205   1.713   6.733
 3156SOL     OW26609   5.433   1.377   1.009
 3156SOL    HW126610   5.353   1.337   0.978
 3156SOL    HW226611   5.404   1.453   1.061
 3157SOL     OW26612   4.086   3.872   2.182
 3157SOL    HW126613   4.143   3.795   2.177
 3157SOL    HW226614   4.126   3.927   2.249
 3158SOL     OW26615   1.397   2.647   6.982
 3158SOL    HW126616   1.462   2.642   6.912
 3158SOL    HW226617   1.396   2.739   7.007
 3159SOL     OW26618   4.846   1.836   6.808
 3159SOL    HW126619   4.930   1.875   6.786
 3159SOL    HW226620   4.855   1.744   6.782
 3160SOL     OW26621   1.620   3.594   0.731
 3160SOL    HW126622   1.688   3.528   0.738
 3160SOL    HW226623   1.665   3.677   0.745
 3161SOL     OW26624   4.111   1.855   1.483
 3161SOL    HW126625   4.122   1.929   1.543
 3161SOL    HW226626   4.159   1.882   1.404
 3162SOL     OW26627   1.996   1.811   0.375
 3162SOL    HW126628   1.952   1.864   0.309
 3162SOL    HW226629   1.929   1.794   0.441
 3163SOL     OW26630   3.276   1.051   1.368
 3163SOL    HW126631   3.308   0.994   1.438
 3163SOL    HW226632   3.297   1.004   1.287
 3164SOL     OW26633   4.541   0.573   0.194
 3164SOL    HW126634   4.619   0.543   0.241
 3164SOL    HW226635   4.489   0.619   0.260
 3165SOL     OW26636   0.914   3.106   6.818
 3165SOL    HW126637   0.869   3.181   6.778
 3165SOL    HW226638   0.843   3.048   6.845
 3166SOL     OW26639   5.749   5.871   1.737
 3166SOL    HW126640   5.735   5.846   1.829
 3166SOL    HW226641   5.818   5.937   1.740
 3167SOL     OW26642   3.988   5.522   1.485
 3167SOL    HW126643   4.062   5.491   1.537
 3167SOL    HW226644   3.915   5.467   1.512
 3168SOL     OW26645   5.476   4.659   7.491
 3168SOL    HW126646   5.568   4.674   7.473
 3168SOL    HW226647   5.473   4.570   7.528
 3169SOL     OW26648   0.496   0.356   0.311
 3169SOL    HW126649   0.570   0.377   0.254
 3169SOL    HW226650   0.528   0.371   0.399
 3170SOL     OW26651   0.702   1.438   1.061
 3170SOL    HW126652   0.652   1.438   0.979
 3170SOL    HW226653   0.657   1.502   1.116
 3171SOL     OW26654   4.213   6.084   1.511
 3171SOL    HW126655   4.274   6.065   1.582
 3171SOL    HW226656   4.260   6.058   1.431
 3172SOL     OW26657   5.962   1.999   6.826
 3172SOL    HW126658   5.868   2.015   6.824
 3172SOL    HW226659   5.996   2.067   6.884
 3173SOL     OW26660   0.724   3.981   1.625
 3173SOL    HW126661   0.694   4.061   1.582
 3173SOL    HW226662   0.691   3.988   1.715
 3174SOL     OW26663   3.878   2.865   0.250
 3174SOL    HW126664   3.954   2.837   0.301
 3174SOL    HW226665   3.898   2.954   0.223
 3175SOL     OW26666   3.255   6.060   2.076
 3175SOL    HW126667   3.216   6.094   2.157
 3175SOL    HW226668   3.344   6.094   2.076
 3176SOL     OW26669   0.382   0.414   6.228
 3176SOL    HW126670   0.435   0.474   6.282
 3176SOL    HW226671   0.427   0.413   6.143
 3177SOL     OW26672   5.700   0.056   1.520
 3177SOL    HW126673   5.733   0.104   1.445
 3177SOL    HW226674   5.621   0.103   1.547
 3178SOL     OW26675   0.519   1.089   1.007
 3178SOL    HW126676   0.488   1.180   1.000
 3178SOL    HW226677   0.557   1.083   1.094
 3179SOL     OW26678   4.118   5.472   0.281
 3179SOL    HW126679   4.147   5.405   0.342
 3179SOL    HW226680   4.045   5.516   0.325
 3180SOL     OW26681   4.420   1.506   1.688
 3180SOL    HW126682   4.342   1.561   1.686
 3180SOL    HW226683   4.493   1.567   1.677
 3181SOL     OW26684   3.390   4.268   6.414
 3181SOL    HW126685   3.408   4.339   6.353
 3181SOL    HW226686   3.469   4.214   6.412
 3182SOL     OW26687   6.144   0.167   6.197
 3182SOL    HW126688   6.054   0.137   6.199
 3182SOL    HW226689   6.151   0.231   6.268
 3183SOL     OW26690   3.129   4.252   6.756
 3183SOL    HW126691   3.046   4.227   6.796
 3183SOL    HW226692   3.139   4.193   6.681
 3184SOL     OW26693   2.647   5.042   7.716
 3184SOL    HW126694   2.553   5.026   7.721
 3184SOL    HW226695   2.654   5.136   7.695
 3185SOL     OW26696   6.146   0.257   6.461
 3185SOL    HW126697   6.241   0.247   6.474
 3185SOL    HW226698   6.108   0.183   6.507
 3186SOL     OW26699   3.976   1.183   6.987
 3186SOL    HW126700   3.938   1.181   7.074
 3186SOL    HW226701   3.923   1.120   6.936
 3187SOL     OW26702   0.563   3.692   2.013
 3187SOL    HW126703   0.507   3.614   2.010
 3187SOL    HW226704   0.509   3.762   1.975
 3188SOL     OW26705   2.090   3.181   1.438
 3188SOL    HW126706   2.064   3.119   1.506
 3188SOL    HW226707   2.030   3.164   1.366
 3189SOL     OW26708   1.112   4.528   1.849
 3189SOL    HW126709   1.123   4.514   1.943
 3189SOL    HW226710   1.069   4.448   1.818
 3190SOL     OW26711   1.038   3.972   7.297
 3190SOL    HW126712   0.960   3.991   7.244
 3190SOL    HW226713   1.101   4.040   7.272
 3191SOL     OW26714   1.898   0.887   0.801
 3191SOL    HW126715   1.978   0.844   0.831
 3191SOL    HW226716   1.926   0.975   0.776
 3192SOL     OW26717   1.920   3.761   0.002
 3192SOL    HW126718   1.877   3.824  -0.056
 3192SOL    HW226719   1.960   3.815   0.070
 3193SOL     OW26720   0.711   4.683   6.567
 3193SOL    HW126721   0.758   4.759   6.600
 3193SOL    HW226722   0.720   4.689   6.472
 3194SOL     OW26723   1.372   3.185   7.134
 3194SOL    HW126724   1.426   3.205   7.058
 3194SOL    HW226725   1.307   3.256   7.137
 3195SOL     OW26726   2.136   1.856   7.369
 3195SOL    HW126727   2.203   1.913   7.331
 3195SOL    HW226728   2.098   1.907   7.441
 3196SOL     OW26729   5.765   1.219   1.740
 3196SOL    HW126730   5.787   1.128   1.762
 3196SOL    HW226731   5.778   1.267   1.821
 3197SOL     OW26732   1.045   5.162   1.409
 3197SOL    HW126733   1.039   5.116   1.325
 3197SOL    HW226734   1.116   5.118   1.456
 3198SOL     OW26735   5.472   2.030   2.898
 3198SOL    HW126736   5.565   2.014   2.909
 3198SOL    HW226737   5.429   1.953   2.937
 3199SOL     OW26738   2.537   5.330   6.173
 3199SOL    HW126739   2.631   5.322   6.186
 3199SOL    HW226740   2.524   5.309   6.081
 3200SOL     OW26741   3.585   4.790   1.303
 3200SOL    HW126742   3.498   4.823   1.324
 3200SOL    HW226743   3.569   4.712   1.250
 3201SOL     OW26744   5.913   5.406   7.655
 3201SOL    HW126745   6.001   5.380   7.630
 3201SOL    HW226746   5.890   5.348   7.727
 3202SOL     OW26747   2.616   2.528   6.032
 3202SOL    HW126748   2.670   2.454   6.005
 3202SOL    HW226749   2.586   2.567   5.950
 3203SOL     OW26750   1.351   6.155   0.698
 3203SOL    HW126751   1.334   6.104   0.619
 3203SOL    HW226752   1.439   6.191   0.686
 3204SOL     OW26753   5.708   1.625   2.055
 3204SOL    HW126754   5.721   1.648   1.963
 3204SOL    HW226755   5.794   1.596   2.085
 3205SOL     OW26756   1.558   5.798   1.958
 3205SOL    HW126757   1.586   5.839   2.040
 3205SOL    HW226758   1.561   5.704   1.977
 3206SOL     OW26759   0.179   2.707   1.497
 3206SOL    HW126760   0.090   2.673   1.501
 3206SOL    HW226761   0.228   2.643   1.445
 3207SOL     OW26762   5.005   5.682   0.725
 3207SOL    HW126763   4.980   5.598   0.766
 3207SOL    HW226764   4.942   5.745   0.761
 3208SOL     OW26765   3.161   4.477   0.819
 3208SOL    HW126766   3.130   4.565   0.799
 3208SOL    HW226767   3.165   4.474   0.914
 3209SOL     OW26768   1.973   4.079   1.130
 3209SOL    HW126769   1.999   4.155   1.184
 3209SOL    HW226770   1.898   4.041   1.175
 3210SOL     OW26771   6.152   2.936   6.819
 3210SOL    HW126772   6.070   2.910   6.861
 3210SOL    HW226773   6.207   2.858   6.822
 3211SOL     OW26774   3.948   1.426   7.380
 3211SOL    HW126775   3.869   1.452   7.427
 3211SOL    HW226776   4.018   1.438   7.444
 3212SOL     OW26777   6.172   5.277   7.712
 3212SOL    HW126778   6.263   5.295   7.737
 3212SOL    HW226779   6.179   5.240   7.624
 3213SOL     OW26780   3.364   0.029   0.739
 3213SOL    HW126781   3.334  -0.023   0.665
 3213SOL    HW226782   3.454   0.053   0.717
 3214SOL     OW26783   1.400   2.556   0.783
 3214SOL    HW126784   1.324   2.575   0.729
 3214SOL    HW226785   1.366   2.548   0.872
 3215SOL     OW26786   1.379   1.043   0.915
 3215SOL    HW126787   1.298   1.094   0.906
 3215SOL    HW226788   1.419   1.077   0.995
 3216SOL     OW26789   2.799   4.065   6.420
 3216SOL    HW126790   2.843   4.115   6.352
 3216SOL    HW226791   2.707   4.063   6.394
 3217SOL     OW26792   3.959   1.129   1.031
 3217SOL    HW126793   4.038   1.179   1.049
 3217SOL    HW226794   3.890   1.175   1.079
 3218SOL     OW26795   1.688   1.023   0.063
 3218SOL    HW126796   1.596   1.000   0.077
 3218SOL    HW226797   1.691   1.054  -0.027
 3219SOL     OW26798   4.676   1.789   7.544
 3219SOL    HW126799   4.622   1.762   7.618
 3219SOL    HW226800   4.748   1.838   7.584
 3220SOL     OW26801   1.673   2.713   1.158
 3220SOL    HW126802   1.670   2.628   1.114
 3220SOL    HW226803   1.748   2.757   1.119
 3221SOL     OW26804   0.170   0.409   1.545
 3221SOL    HW126805   0.132   0.371   1.624
 3221SOL    HW226806   0.151   0.503   1.553
 3222SOL     OW26807   1.802   6.066   7.206
 3222SOL    HW126808   1.817   6.154   7.171
 3222SOL    HW226809   1.822   6.007   7.133
 3223SOL     OW26810   5.725   3.855   7.654
 3223SOL    HW126811   5.759   3.928   7.602
 3223SOL    HW226812   5.757   3.777   7.609
 3224SOL     OW26813   0.061   2.972   6.449
 3224SOL    HW126814   0.116   3.023   6.389
 3224SOL    HW226815  -0.027   2.978   6.412
 3225SOL     OW26816   2.672   4.537   1.127
 3225SOL    HW126817   2.692   4.573   1.214
 3225SOL    HW226818   2.647   4.446   1.144
 3226SOL     OW26819   5.379   5.702   7.130
 3226SOL    HW126820   5.336   5.688   7.215
 3226SOL    HW226821   5.460   5.749   7.152
 3227SOL     OW26822   3.489   2.641   1.457
 3227SOL    HW126823   3.523   2.718   1.503
 3227SOL    HW226824   3.445   2.590   1.524
 3228SOL     OW26825   5.253   1.335   2.059
 3228SOL    HW126826   5.248   1.265   2.124
 3228SOL    HW226827   5.167   1.377   2.063
 3229SOL     OW26828   2.090   0.964   7.134
 3229SOL    HW126829   2.100   0.917   7.216
 3229SOL    HW226830   2.156   0.925   7.076
 3230SOL     OW26831   4.641   6.308   1.152
 3230SOL    HW126832   4.570   6.302   1.216
 3230SOL    HW226833   4.656   6.402   1.141
 3231SOL     OW26834   3.689   4.053   1.066
 3231SOL    HW126835   3.734   4.134   1.086
 3231SOL    HW226836   3.618   4.048   1.130
 3232SOL     OW26837   0.380   2.743   5.670
 3232SOL    HW126838   0.407   2.659   5.634
 3232SOL    HW226839   0.457   2.775   5.716
 3233SOL     OW26840   2.929   3.347   0.774
 3233SOL    HW126841   2.865   3.418   0.780
 3233SOL    HW226842   2.990   3.365   0.846
 3234SOL     OW26843   6.000   3.920   2.097
 3234SOL    HW126844   6.023   3.856   2.165
 3234SOL    HW226845   5.912   3.896   2.069
 3235SOL     OW26846   4.442   2.100   1.426
 3235SOL    HW126847   4.472   2.190   1.416
 3235SOL    HW226848   4.351   2.102   1.395
 3236SOL     OW26849   6.138   1.299   1.956
 3236SOL    HW126850   6.045   1.315   1.939
 3236SOL    HW226851   6.159   1.354   2.031
 3237SOL     OW26852   5.578   5.839   6.817
 3237SOL    HW126853   5.646   5.818   6.882
 3237SOL    HW226854   5.616   5.811   6.734
 3238SOL     OW26855   4.974   1.514   7.241
 3238SOL    HW126856   4.922   1.534   7.319
 3238SOL    HW226857   4.948   1.425   7.217
 3239SOL     OW26858   3.035   4.787   7.425
 3239SOL    HW126859   2.960   4.841   7.400
 3239SOL    HW226860   3.088   4.781   7.345
 3240SOL     OW26861   4.769   2.350   2.169
 3240SOL    HW126862   4.684   2.384   2.199
 3240SOL    HW226863   4.759   2.255   2.175
 3241SOL     OW26864   4.391   1.300   0.381
 3241SOL    HW126865   4.301   1.306   0.349
 3241SOL    HW226866   4.402   1.208   0.403
 3242SOL     OW26867   2.814   0.342   5.677
 3242SOL    HW126868   2.746   0.305   5.733
 3242SOL    HW226869   2.890   0.351   5.734
 3243SOL     OW26870   0.841   0.600   7.386
 3243SOL    HW126871   0.825   0.593   7.291
 3243SOL    HW226872   0.754   0.612   7.424
 3244SOL     OW26873   3.413   3.914   2.770
 3244SOL    HW126874   3.451   3.840   2.723
 3244SOL    HW226875   3.336   3.878   2.813
 3245SOL     OW26876   0.840   0.836   1.442
 3245SOL    HW126877   0.752   0.828   1.477
 3245SOL    HW226878   0.897   0.808   1.514
 3246SOL     OW26879   0.639   4.666   0.236
 3246SOL    HW126880   0.686   4.618   0.304
 3246SOL    HW226881   0.647   4.758   0.261
 3247SOL     OW26882   2.404   0.863   1.634
 3247SOL    HW126883   2.363   0.778   1.651
 3247SOL    HW226884   2.435   0.858   1.544
 3248SOL     OW26885   5.669   3.200   0.844
 3248SOL    HW126886   5.764   3.189   0.845
 3248SOL    HW226887   5.651   3.248   0.763
 3249SOL     OW26888   5.456   3.834   1.961
 3249SOL    HW126889   5.388   3.833   2.028
 3249SOL    HW226890   5.409   3.849   1.879
 3250SOL     OW26891   2.636   2.304   0.526
 3250SOL    HW126892   2.612   2.380   0.472
 3250SOL    HW226893   2.553   2.272   0.559
 3251SOL     OW26894   0.758   3.345   6.818
 3251SOL    HW126895   0.711   3.341   6.902
 3251SOL    HW226896   0.801   3.430   6.819
 3252SOL     OW26897   2.877   4.816   2.194
 3252SOL    HW126898   2.915   4.736   2.228
 3252SOL    HW226899   2.861   4.870   2.272
 3253SOL     OW26900   3.542   1.655   0.199
 3253SOL    HW126901   3.469   1.622   0.147
 3253SOL    HW226902   3.522   1.747   0.214
 3254SOL     OW26903   2.796   1.161   6.133
 3254SOL    HW126904   2.722   1.134   6.079
 3254SOL    HW226905   2.872   1.150   6.077
 3255SOL     OW26906   5.628   5.690   1.139
 3255SOL    HW126907   5.689   5.728   1.202
 3255SOL    HW226908   5.589   5.766   1.095
 3256SOL     OW26909   4.367   1.239   2.324
 3256SOL    HW126910   4.284   1.244   2.278
 3256SOL    HW226911   4.344   1.249   2.417
 3257SOL     OW26912   0.883   2.432   7.085
 3257SOL    HW126913   0.834   2.498   7.133
 3257SOL    HW226914   0.951   2.403   7.147
 3258SOL     OW26915   1.217   0.333   6.992
 3258SOL    HW126916   1.206   0.365   6.903
 3258SOL    HW226917   1.273   0.398   7.034
 3259SOL     OW26918   2.384   1.964   7.656
 3259SOL    HW126919   2.385   1.899   7.727
 3259SOL    HW226920   2.465   1.948   7.608
 3260SOL     OW26921   2.300   1.750   2.042
 3260SOL    HW126922   2.206   1.760   2.025
 3260SOL    HW226923   2.312   1.655   2.050
 3261SOL     OW26924   2.014   2.135   7.022
 3261SOL    HW126925   1.936   2.082   7.006
 3261SOL    HW226926   1.981   2.225   7.032
 3262SOL     OW26927   2.905   6.169   1.384
 3262SOL    HW126928   2.836   6.161   1.450
 3262SOL    HW226929   2.908   6.083   1.342
 3263SOL     OW26930   5.930   2.892   0.940
 3263SOL    HW126931   5.849   2.908   0.988
 3263SOL    HW226932   5.943   2.797   0.946
 3264SOL     OW26933   0.977   2.273   7.284
 3264SOL    HW126934   0.886   2.273   7.314
 3264SOL    HW226935   0.986   2.190   7.236
 3265SOL     OW26936   4.141   0.410   0.937
 3265SOL    HW126937   4.083   0.486   0.924
 3265SOL    HW226938   4.153   0.374   0.849
 3266SOL     OW26939   5.554   5.458   2.076
 3266SOL    HW126940   5.626   5.398   2.093
 3266SOL    HW226941   5.480   5.421   2.125
 3267SOL     OW26942   3.156   0.097   6.468
 3267SOL    HW126943   3.078   0.102   6.412
 3267SOL    HW226944   3.165   0.185   6.504
 3268SOL     OW26945   2.828   1.047   1.231
 3268SOL    HW126946   2.820   0.952   1.224
 3268SOL    HW226947   2.885   1.073   1.158
 3269SOL     OW26948   4.679   1.245   1.852
 3269SOL    HW126949   4.736   1.184   1.805
 3269SOL    HW226950   4.721   1.331   1.840
 3270SOL     OW26951   3.124   6.021   2.896
 3270SOL    HW126952   3.031   6.037   2.904
 3270SOL    HW226953   3.132   5.925   2.897
 3271SOL     OW26954   5.910   0.975   1.788
 3271SOL    HW126955   5.850   0.905   1.764
 3271SOL    HW226956   5.996   0.943   1.763
 3272SOL     OW26957   5.921   4.654   0.759
 3272SOL    HW126958   6.010   4.654   0.722
 3272SOL    HW226959   5.864   4.645   0.683
 3273SOL     OW26960   3.078   4.688   7.701
 3273SOL    HW126961   3.064   4.745   7.625
 3273SOL    HW226962   3.117   4.746   7.767
 3274SOL     OW26963   4.328   2.142   6.613
 3274SOL    HW126964   4.270   2.194   6.557
 3274SOL    HW226965   4.313   2.051   6.585
 3275SOL     OW26966   4.884   3.943   5.250
 3275SOL    HW126967   4.964   3.985   5.280
 3275SOL    HW226968   4.904   3.849   5.252
 3276SOL     OW26969   0.995   3.398   2.504
 3276SOL    HW126970   1.068   3.343   2.530
 3276SOL    HW226971   1.027   3.448   2.429
 3277SOL     OW26972   3.534   5.514   7.543
 3277SOL    HW126973   3.439   5.505   7.553
 3277SOL    HW226974   3.565   5.538   7.630
 3278SOL     OW26975   0.201   1.394   1.901
 3278SOL    HW126976   0.134   1.405   1.834
 3278SOL    HW226977   0.266   1.461   1.881
 3279SOL     OW26978   3.657   1.394   6.619
 3279SOL    HW126979   3.687   1.404   6.528
 3279SOL    HW226980   3.570   1.434   6.619
 3280SOL     OW26981   5.418   3.800   1.085
 3280SOL    HW126982   5.354   3.771   1.150
 3280SOL    HW226983   5.366   3.851   1.022
 3281SOL     OW26984   5.758   0.815   0.351
 3281SOL    HW126985   5.692   0.869   0.307
 3281SOL    HW226986   5.783   0.750   0.285
 3282SOL     OW26987   4.353   4.310   5.652
 3282SOL    HW126988   4.429   4.368   5.657
 3282SOL    HW226989   4.309   4.334   5.570
 3283SOL     OW26990   2.618   1.262   1.923
 3283SOL    HW126991   2.537   1.231   1.884
 3283SOL    HW226992   2.599   1.267   2.017
 3284SOL     OW26993   3.084   0.609   5.617
 3284SOL    HW126994   3.052   0.572   5.699
 3284SOL    HW226995   3.176   0.632   5.635
 3285SOL     OW26996   0.471   2.488   2.172
 3285SOL    HW126997   0.502   2.428   2.239
 3285SOL    HW226998   0.413   2.435   2.117
 3286SOL     OW26999   4.208   4.398   0.392
 3286SOL    HW127000   4.300   4.398   0.368
 3286SOL    HW227001   4.181   4.307   0.388
 3287SOL     OW27002   3.888   1.108   1.684
 3287SOL    HW127003   3.959   1.097   1.621
 3287SOL    HW227004   3.896   1.033   1.743
 3288SOL     OW27005   4.507   6.079   7.743
 3288SOL    HW127006   4.508   6.031   7.826
 3288SOL    HW227007   4.428   6.048   7.699
 3289SOL     OW27008   1.563   2.344   7.148
 3289SOL    HW127009   1.502   2.384   7.210
 3289SOL    HW227010   1.650   2.367   7.181
 3290SOL     OW27011   4.091   0.292   6.780
 3290SOL    HW127012   4.180   0.264   6.799
 3290SOL    HW227013   4.077   0.368   6.837
 3291SOL     OW27014   3.981   0.350   1.166
 3291SOL    HW127015   4.010   0.318   1.081
 3291SOL    HW227016   3.909   0.411   1.146
 3292SOL     OW27017   2.104   5.732   6.121
 3292SOL    HW127018   2.087   5.753   6.213
 3292SOL    HW227019   2.107   5.636   6.119
 3293SOL     OW27020   0.941   2.149   6.143
 3293SOL    HW127021   0.869   2.165   6.082
 3293SOL    HW227022   0.924   2.209   6.216
 3294SOL     OW27023   4.356   2.575   7.574
 3294SOL    HW127024   4.305   2.634   7.517
 3294SOL    HW227025   4.300   2.499   7.586
 3295SOL     OW27026   6.021   4.242   2.800
 3295SOL    HW127027   6.023   4.166   2.742
 3295SOL    HW227028   6.092   4.227   2.863
 3296SOL     OW27029   4.536   3.056   1.071
 3296SOL    HW127030   4.490   3.004   1.137
 3296SOL    HW227031   4.596   2.994   1.029
 3297SOL     OW27032   5.931   0.496   1.193
 3297SOL    HW127033   5.893   0.569   1.144
 3297SOL    HW227034   6.021   0.524   1.211
 3298SOL     OW27035   6.224   3.848   0.472
 3298SOL    HW127036   6.143   3.796   0.470
 3298SOL    HW227037   6.209   3.912   0.542
 3299SOL     OW27038   2.780   4.869   6.225
 3299SOL    HW127039   2.727   4.890   6.301
 3299SOL    HW227040   2.871   4.873   6.257
 3300SOL     OW27041   6.163   6.154   5.996
 3300SOL    HW127042   6.151   6.151   6.091
 3300SOL    HW227043   6.164   6.248   5.975
 3301SOL     OW27044   3.318   2.932   0.341
 3301SOL    HW127045   3.237   2.881   0.344
 3301SOL    HW227046   3.341   2.945   0.433
 3302SOL     OW27047   3.469   2.308   5.973
 3302SOL    HW127048   3.457   2.303   6.068
 3302SOL    HW227049   3.537   2.375   5.960
 3303SOL     OW27050   4.398   2.448   0.914
 3303SOL    HW127051   4.492   2.470   0.916
 3303SOL    HW227052   4.356   2.528   0.884
 3304SOL     OW27053   5.217   3.416   2.723
 3304SOL    HW127054   5.146   3.439   2.664
 3304SOL    HW227055   5.238   3.496   2.770
 3305SOL     OW27056   0.475   2.491   5.618
 3305SOL    HW127057   0.516   2.463   5.537
 3305SOL    HW227058   0.544   2.484   5.684
 3306SOL     OW27059   4.572   1.900   6.762
 3306SOL    HW127060   4.665   1.886   6.780
 3306SOL    HW227061   4.555   1.851   6.681
 3307SOL     OW27062   1.130   4.390   6.403
 3307SOL    HW127063   1.048   4.356   6.441
 3307SOL    HW227064   1.105   4.473   6.362
 3308SOL     OW27065   2.897   0.450   7.342
 3308SOL    HW127066   2.963   0.513   7.311
 3308SOL    HW227067   2.935   0.415   7.423
 3309SOL     OW27068   6.411   4.665   0.225
 3309SOL    HW127069   6.491   4.638   0.272
 3309SOL    HW227070   6.396   4.755   0.254
 3310SOL     OW27071   3.707   2.849   6.458
 3310SOL    HW127072   3.725   2.803   6.539
 3310SOL    HW227073   3.673   2.782   6.398
 3311SOL     OW27074   4.847   0.395   6.805
 3311SOL    HW127075   4.792   0.321   6.833
 3311SOL    HW227076   4.854   0.450   6.883
 3312SOL     OW27077   3.127   3.758   2.769
 3312SOL    HW127078   3.052   3.775   2.827
 3312SOL    HW227079   3.134   3.662   2.767
 3313SOL     OW27080   1.680   6.349   7.444
 3313SOL    HW127081   1.642   6.352   7.356
 3313SOL    HW227082   1.643   6.425   7.489
 3314SOL     OW27083   0.176   1.214   0.368
 3314SOL    HW127084   0.208   1.219   0.279
 3314SOL    HW227085   0.253   1.190   0.420
 3315SOL     OW27086   2.203   5.355   6.432
 3315SOL    HW127087   2.279   5.403   6.467
 3315SOL    HW227088   2.241   5.284   6.381
 3316SOL     OW27089   4.547   3.460   0.895
 3316SOL    HW127090   4.504   3.412   0.824
 3316SOL    HW227091   4.497   3.542   0.902
 3317SOL     OW27092   0.513   3.389   1.492
 3317SOL    HW127093   0.418   3.381   1.503
 3317SOL    HW227094   0.526   3.478   1.461
 3318SOL     OW27095   5.093   2.927   7.371
 3318SOL    HW127096   5.179   2.925   7.328
 3318SOL    HW227097   5.041   2.861   7.324
 3319SOL     OW27098   5.869   2.720   6.799
 3319SOL    HW127099   5.851   2.796   6.744
 3319SOL    HW227100   5.857   2.751   6.889
 3320SOL     OW27101   5.456   6.220   1.598
 3320SOL    HW127102   5.436   6.174   1.516
 3320SOL    HW227103   5.428   6.310   1.582
 3321SOL     OW27104   3.389   1.797   7.611
 3321SOL    HW127105   3.447   1.874   7.614
 3321SOL    HW227106   3.337   1.802   7.691
 3322SOL     OW27107   0.105   1.052   0.796
 3322SOL    HW127108   0.183   0.997   0.783
 3322SOL    HW227109   0.034   1.003   0.755
 3323SOL     OW27110   1.364   1.828   0.934
 3323SOL    HW127111   1.353   1.916   0.899
 3323SOL    HW227112   1.290   1.779   0.898
 3324SOL     OW27113   2.616   5.976   7.581
 3324SOL    HW127114   2.627   5.882   7.593
 3324SOL    HW227115   2.701   6.006   7.550
 3325SOL     OW27116   4.924   3.170   6.799
 3325SOL    HW127117   4.965   3.232   6.860
 3325SOL    HW227118   4.996   3.115   6.769
 3326SOL     OW27119   0.118   4.971   7.356
 3326SOL    HW127120   0.068   4.926   7.423
 3326SOL    HW227121   0.053   5.005   7.295
 3327SOL     OW27122   2.444   3.958   1.850
 3327SOL    HW127123   2.427   3.913   1.933
 3327SOL    HW227124   2.371   4.020   1.841
 3328SOL     OW27125   5.102   3.301   0.404
 3328SOL    HW127126   5.099   3.321   0.497
 3328SOL    HW227127   5.160   3.225   0.397
 3329SOL     OW27128   4.905   5.947   0.977
 3329SOL    HW127129   4.983   5.999   0.956
 3329SOL    HW227130   4.858   5.999   1.042
 3330SOL     OW27131   3.721   6.064   7.665
 3330SOL    HW127132   3.692   6.138   7.611
 3330SOL    HW227133   3.693   5.987   7.616
 3331SOL     OW27134   1.068   0.566   0.922
 3331SOL    HW127135   1.079   0.659   0.900
 3331SOL    HW227136   1.049   0.566   1.015
 3332SOL     OW27137   2.191   0.594   6.248
 3332SOL    HW127138   2.169   0.537   6.322
 3332SOL    HW227139   2.130   0.569   6.179
 3333SOL     OW27140   4.277   4.381   6.940
 3333SOL    HW127141   4.191   4.358   6.976
 3333SOL    HW227142   4.330   4.403   7.017
 3334SOL     OW27143   5.600   4.835   6.697
 3334SOL    HW127144   5.583   4.893   6.623
 3334SOL    HW227145   5.560   4.879   6.772
 3335SOL     OW27146   4.665   2.501   0.917
 3335SOL    HW127147   4.695   2.449   0.992
 3335SOL    HW227148   4.652   2.589   0.953
 3336SOL     OW27149   0.060   5.784   1.188
 3336SOL    HW127150   0.082   5.747   1.274
 3336SOL    HW227151   0.018   5.712   1.141
 3337SOL     OW27152   3.076   0.286   1.323
 3337SOL    HW127153   3.075   0.270   1.229
 3337SOL    HW227154   2.991   0.257   1.354
 3338SOL     OW27155   2.327   5.746   7.749
 3338SOL    HW127156   2.265   5.808   7.788
 3338SOL    HW227157   2.345   5.783   7.662
 3339SOL     OW27158   1.107   1.678   1.245
 3339SOL    HW127159   1.140   1.669   1.334
 3339SOL    HW227160   1.048   1.604   1.234
 3340SOL     OW27161   0.098   3.261   6.872
 3340SOL    HW127162   0.091   3.171   6.904
 3340SOL    HW227163   0.069   3.256   6.781
 3341SOL     OW27164   1.141   2.927   6.805
 3341SOL    HW127165   1.079   2.999   6.819
 3341SOL    HW227166   1.118   2.862   6.871
 3342SOL     OW27167   5.259   1.550   1.146
 3342SOL    HW127168   5.209   1.631   1.159
 3342SOL    HW227169   5.195   1.480   1.162
 3343SOL     OW27170   6.322   5.704   0.489
 3343SOL    HW127171   6.315   5.652   0.569
 3343SOL    HW227172   6.340   5.639   0.421
 3344SOL     OW27173   0.770   4.168   5.761
 3344SOL    HW127174   0.780   4.154   5.667
 3344SOL    HW227175   0.859   4.167   5.796
 3345SOL     OW27176   1.663   5.539   7.356
 3345SOL    HW127177   1.666   5.519   7.450
 3345SOL    HW227178   1.749   5.577   7.337
 3346SOL     OW27179   5.088   3.521   6.213
 3346SOL    HW127180   5.150   3.593   6.198
 3346SOL    HW227181   5.025   3.555   6.276
 3347SOL     OW27182   6.357   0.822   0.768
 3347SOL    HW127183   6.345   0.865   0.852
 3347SOL    HW227184   6.427   0.758   0.782
 3348SOL     OW27185   5.796   6.250   5.885
 3348SOL    HW127186   5.879   6.293   5.863
 3348SOL    HW227187   5.756   6.307   5.952
 3349SOL     OW27188   3.107   3.055   0.941
 3349SOL    HW127189   3.126   2.962   0.947
 3349SOL    HW227190   3.192   3.096   0.923
 3350SOL     OW27191   1.762   5.623   1.596
 3350SOL    HW127192   1.667   5.635   1.608
 3350SOL    HW227193   1.795   5.606   1.684
 3351SOL     OW27194   6.407   4.288   6.970
 3351SOL    HW127195   6.486   4.302   7.022
 3351SOL    HW227196   6.438   4.246   6.889
 3352SOL     OW27197   1.929   1.987   5.596
 3352SOL    HW127198   1.844   2.008   5.634
 3352SOL    HW227199   1.919   1.897   5.563
 3353SOL     OW27200   1.371   3.098   2.253
 3353SOL    HW127201   1.298   3.039   2.275
 3353SOL    HW227202   1.348   3.181   2.295
 3354SOL     OW27203   0.854   3.911   1.964
 3354SOL    HW127204   0.895   3.997   1.971
 3354SOL    HW227205   0.770   3.927   1.921
 3355SOL     OW27206   5.251   3.193   1.682
 3355SOL    HW127207   5.180   3.129   1.690
 3355SOL    HW227208   5.330   3.145   1.707
 3356SOL     OW27209   1.595   3.354   1.146
 3356SOL    HW127210   1.613   3.375   1.237
 3356SOL    HW227211   1.539   3.425   1.115
 3357SOL     OW27212   4.182   1.228   1.315
 3357SOL    HW127213   4.264   1.262   1.352
 3357SOL    HW227214   4.148   1.170   1.383
 3358SOL     OW27215   4.181   0.684   1.806
 3358SOL    HW127216   4.098   0.673   1.851
 3358SOL    HW227217   4.179   0.775   1.775
 3359SOL     OW27218   0.265   3.271   7.108
 3359SOL    HW127219   0.217   3.278   7.025
 3359SOL    HW227220   0.226   3.339   7.164
 3360SOL     OW27221   5.477   5.297   2.941
 3360SOL    HW127222   5.524   5.371   2.902
 3360SOL    HW227223   5.384   5.318   2.929
 3361SOL     OW27224   2.909   2.601   5.936
 3361SOL    HW127225   2.972   2.642   5.996
 3361SOL    HW227226   2.875   2.527   5.985
 3362SOL     OW27227   0.994   5.412   1.187
 3362SOL    HW127228   0.956   5.476   1.247
 3362SOL    HW227229   0.930   5.341   1.185
 3363SOL     OW27230   4.816   0.435   2.076
 3363SOL    HW127231   4.886   0.482   2.031
 3363SOL    HW227232   4.781   0.376   2.010
 3364SOL     OW27233   4.111   3.354   5.880
 3364SOL    HW127234   4.132   3.447   5.877
 3364SOL    HW227235   4.015   3.352   5.886
 3365SOL     OW27236   4.527   5.236   1.885
 3365SOL    HW127237   4.507   5.226   1.978
 3365SOL    HW227238   4.613   5.197   1.874
 3366SOL     OW27239   6.422   5.295   0.899
 3366SOL    HW127240   6.367   5.299   0.821
 3366SOL    HW227241   6.509   5.274   0.867
 3367SOL     OW27242   0.813   1.401   6.011
 3367SOL    HW127243   0.808   1.457   6.089
 3367SOL    HW227244   0.724   1.398   5.977
 3368SOL     OW27245   4.441   5.653   6.225
 3368SOL    HW127246   4.446   5.737   6.269
 3368SOL    HW227247   4.492   5.665   6.144
 3369SOL     OW27248   4.845   5.635   1.543
 3369SOL    HW127249   4.780   5.671   1.604
 3369SOL    HW227250   4.819   5.544   1.531
 3370SOL     OW27251   0.588   0.777   7.277
 3370SOL    HW127252   0.578   0.844   7.209
 3370SOL    HW227253   0.561   0.821   7.358
 3371SOL     OW27254   1.957   1.484   0.802
 3371SOL    HW127255   1.932   1.565   0.848
 3371SOL    HW227256   2.001   1.514   0.723
 3372SOL     OW27257   6.266   4.699   7.682
 3372SOL    HW127258   6.271   4.607   7.710
 3372SOL    HW227259   6.311   4.747   7.751
 3373SOL     OW27260   5.228   4.227   7.028
 3373SOL    HW127261   5.264   4.162   6.968
 3373SOL    HW227262   5.303   4.281   7.054
 3374SOL     OW27263   0.412   3.941   5.971
 3374SOL    HW127264   0.420   3.876   5.902
 3374SOL    HW227265   0.355   4.009   5.935
 3375SOL     OW27266   1.215   0.354   0.662
 3375SOL    HW127267   1.209   0.449   0.672
 3375SOL    HW227268   1.126   0.323   0.674
 3376SOL     OW27269   5.591   6.066   2.062
 3376SOL    HW127270   5.580   6.038   2.153
 3376SOL    HW227271   5.616   5.986   2.015
 3377SOL     OW27272   5.551   5.923   1.018
 3377SOL    HW127273   5.473   5.912   0.964
 3377SOL    HW227274   5.596   5.999   0.982
 3378SOL     OW27275   3.553   2.851   1.262
 3378SOL    HW127276   3.504   2.779   1.302
 3378SOL    HW227277   3.515   2.859   1.174
 3379SOL     OW27278   5.950   2.781   0.321
 3379SOL    HW127279   5.923   2.705   0.270
 3379SOL    HW227280   5.958   2.852   0.257
 3380SOL     OW27281   3.688   5.820   0.791
 3380SOL    HW127282   3.603   5.853   0.764
 3380SOL    HW227283   3.716   5.764   0.718
 3381SOL     OW27284   1.060   2.142   0.881
 3381SOL    HW127285   1.149   2.109   0.872
 3381SOL    HW227286   1.070   2.238   0.881
 3382SOL     OW27287   4.549   1.728   0.040
 3382SOL    HW127288   4.633   1.717   0.084
 3382SOL    HW227289   4.494   1.657   0.075
 3383SOL     OW27290   5.663   5.382   1.396
 3383SOL    HW127291   5.652   5.318   1.325
 3383SOL    HW227292   5.595   5.447   1.380
 3384SOL     OW27293   3.299   1.381   7.289
 3384SOL    HW127294   3.354   1.411   7.361
 3384SOL    HW227295   3.351   1.314   7.245
 3385SOL     OW27296   4.307   0.616   6.977
 3385SOL    HW127297   4.251   0.680   7.022
 3385SOL    HW227298   4.387   0.614   7.030
 3386SOL     OW27299   0.591   2.847   5.804
 3386SOL    HW127300   0.565   2.896   5.882
 3386SOL    HW227301   0.676   2.809   5.827
 3387SOL     OW27302   1.563   3.901   0.611
 3387SOL    HW127303   1.509   3.901   0.690
 3387SOL    HW227304   1.624   3.828   0.623
 3388SOL     OW27305   5.488   4.245   1.782
 3388SOL    HW127306   5.407   4.209   1.818
 3388SOL    HW227307   5.460   4.317   1.727
 3389SOL     OW27308   5.243   4.077   1.185
 3389SOL    HW127309   5.314   4.062   1.247
 3389SOL    HW227310   5.165   4.088   1.239
 3390SOL     OW27311   5.782   4.248   1.513
 3390SOL    HW127312   5.803   4.261   1.420
 3390SOL    HW227313   5.704   4.301   1.527
 3391SOL     OW27314   5.410   0.243   2.442
 3391SOL    HW127315   5.341   0.256   2.376
 3391SOL    HW227316   5.406   0.150   2.463
 3392SOL     OW27317   3.613   5.349   2.154
 3392SOL    HW127318   3.680   5.328   2.090
 3392SOL    HW227319   3.592   5.266   2.196
 3393SOL     OW27320   3.447   1.562   7.467
 3393SOL    HW127321   3.435   1.651   7.498
 3393SOL    HW227322   3.481   1.571   7.378
 3394SOL     OW27323   1.518   1.298   1.842
 3394SOL    HW127324   1.514   1.338   1.929
 3394SOL    HW227325   1.581   1.227   1.852
 3395SOL     OW27326   4.168   0.240   1.530
 3395SOL    HW127327   4.101   0.198   1.585
 3395SOL    HW227328   4.184   0.324   1.573
 3396SOL     OW27329   1.816   0.035   1.254
 3396SOL    HW127330   1.871  -0.001   1.184
 3396SOL    HW227331   1.806   0.127   1.232
 3397SOL     OW27332   4.365   2.368   7.221
 3397SOL    HW127333   4.287   2.416   7.193
 3397SOL    HW227334   4.429   2.436   7.242
 3398SOL     OW27335   5.826   4.332   6.651
 3398SOL    HW127336   5.787   4.413   6.684
 3398SOL    HW227337   5.751   4.281   6.621
 3399SOL     OW27338   2.544   1.080   5.368
 3399SOL    HW127339   2.485   1.045   5.435
 3399SOL    HW227340   2.612   1.013   5.358
 3400SOL     OW27341   3.122   0.468   0.935
 3400SOL    HW127342   3.188   0.429   0.878
 3400SOL    HW227343   3.098   0.399   0.996
 3401SOL     OW27344   5.218   1.573   7.342
 3401SOL    HW127345   5.146   1.592   7.283
 3401SOL    HW227346   5.201   1.628   7.419
 3402SOL     OW27347   0.490   1.810   0.874
 3402SOL    HW127348   0.443   1.859   0.806
 3402SOL    HW227349   0.577   1.794   0.837
 3403SOL     OW27350   3.030   1.173   6.500
 3403SOL    HW127351   3.013   1.267   6.491
 3403SOL    HW227352   3.118   1.169   6.538
 3404SOL     OW27353   4.930   2.243   5.800
 3404SOL    HW127354   4.854   2.287   5.837
 3404SOL    HW227355   4.936   2.277   5.710
 3405SOL     OW27356   5.001   1.394   0.441
 3405SOL    HW127357   5.065   1.342   0.490
 3405SOL    HW227358   4.918   1.375   0.483
 3406SOL     OW27359   1.186   2.382   6.645
 3406SOL    HW127360   1.197   2.432   6.726
 3406SOL    HW227361   1.275   2.355   6.622
 3407SOL     OW27362   1.913   5.917   6.990
 3407SOL    HW127363   1.909   5.829   7.028
 3407SOL    HW227364   1.990   5.916   6.935
 3408SOL     OW27365   3.067   2.952   2.130
 3408SOL    HW127366   3.057   2.940   2.224
 3408SOL    HW227367   2.980   2.978   2.099
 3409SOL     OW27368   6.221   5.717   6.310
 3409SOL    HW127369   6.175   5.750   6.233
 3409SOL    HW227370   6.314   5.732   6.291
 3410SOL     OW27371   3.383   0.209   1.474
 3410SOL    HW127372   3.297   0.168   1.464
 3410SOL    HW227373   3.374   0.295   1.432
 3411SOL     OW27374   0.214   6.038   1.394
 3411SOL    HW127375   0.296   6.002   1.427
 3411SOL    HW227376   0.149   5.969   1.407
 3412SOL     OW27377   5.368   0.055   0.417
 3412SOL    HW127378   5.419   0.011   0.486
 3412SOL    HW227379   5.403   0.144   0.416
 3413SOL     OW27380   5.587   0.879   6.827
 3413SOL    HW127381   5.506   0.831   6.807
 3413SOL    HW227382   5.645   0.813   6.864
 3414SOL     OW27383   2.320   1.742   2.539
 3414SOL    HW127384   2.324   1.649   2.517
 3414SOL    HW227385   2.368   1.750   2.621
 3415SOL     OW27386   2.385   2.618   7.575
 3415SOL    HW127387   2.355   2.700   7.613
 3415SOL    HW227388   2.467   2.598   7.620
 3416SOL     OW27389   0.275   0.407   1.058
 3416SOL    HW127390   0.296   0.376   1.147
 3416SOL    HW227391   0.194   0.361   1.036
 3417SOL     OW27392   1.792   0.483   2.002
 3417SOL    HW127393   1.739   0.562   1.999
 3417SOL    HW227394   1.877   0.509   1.966
 3418SOL     OW27395   4.143   3.276   1.829
 3418SOL    HW127396   4.205   3.236   1.889
 3418SOL    HW227397   4.159   3.370   1.837
 3419SOL     OW27398   6.064   3.774   2.324
 3419SOL    HW127399   6.031   3.684   2.319
 3419SOL    HW227400   6.044   3.801   2.414
 3420SOL     OW27401   5.492   0.177   7.279
 3420SOL    HW127402   5.435   0.251   7.298
 3420SOL    HW227403   5.432   0.105   7.258
 3421SOL     OW27404   6.396   0.510   0.465
 3421SOL    HW127405   6.421   0.438   0.408
 3421SOL    HW227406   6.305   0.492   0.489
 3422SOL     OW27407   2.614   1.956   0.267
 3422SOL    HW127408   2.528   1.985   0.235
 3422SOL    HW227409   2.648   1.901   0.196
 3423SOL     OW27410   3.785   4.120   0.724
 3423SOL    HW127411   3.797   4.078   0.809
 3423SOL    HW227412   3.853   4.188   0.721
 3424SOL     OW27413   2.423   3.624   1.726
 3424SOL    HW127414   2.506   3.584   1.698
 3424SOL    HW227415   2.437   3.718   1.716
 3425SOL     OW27416   3.869   3.633   7.217
 3425SOL    HW127417   3.921   3.642   7.297
 3425SOL    HW227418   3.905   3.698   7.157
 3426SOL     OW27419   4.130   3.603   1.344
 3426SOL    HW127420   4.083   3.661   1.403
 3426SOL    HW227421   4.196   3.659   1.303
 3427SOL     OW27422   5.021   1.731   6.262
 3427SOL    HW127423   5.084   1.661   6.241
 3427SOL    HW227424   5.075   1.810   6.269
 3428SOL     OW27425   2.822   0.479   2.169
 3428SOL    HW127426   2.842   0.558   2.218
 3428SOL    HW227427   2.887   0.476   2.099
 3429SOL     OW27428   5.380   5.605   7.497
 3429SOL    HW127429   5.326   5.569   7.566
 3429SOL    HW227430   5.321   5.658   7.444
 3430SOL     OW27431   3.857   6.065   0.879
 3430SOL    HW127432   3.837   5.991   0.937
 3430SOL    HW227433   3.940   6.042   0.838
 3431SOL     OW27434   2.344   1.082   7.252
 3431SOL    HW127435   2.289   1.058   7.177
 3431SOL    HW227436   2.432   1.090   7.217
 3432SOL     OW27437   6.375   1.607   1.726
 3432SOL    HW127438   6.424   1.525   1.725
 3432SOL    HW227439   6.326   1.604   1.807
 3433SOL     OW27440   4.200   4.193   1.008
 3433SOL    HW127441   4.148   4.140   0.947
 3433SOL    HW227442   4.182   4.283   0.983
 3434SOL     OW27443   5.260   2.196   0.969
 3434SOL    HW127444   5.287   2.177   1.058
 3434SOL    HW227445   5.164   2.204   0.974
 3435SOL     OW27446   5.755   2.062   6.489
 3435SOL    HW127447   5.734   1.970   6.504
 3435SOL    HW227448   5.678   2.110   6.519
 3436SOL     OW27449   0.111   1.264   0.959
 3436SOL    HW127450   0.117   1.333   0.893
 3436SOL    HW227451   0.112   1.183   0.910
 3437SOL     OW27452   0.358   1.243   6.035
 3437SOL    HW127453   0.309   1.273   6.112
 3437SOL    HW227454   0.321   1.157   6.015
 3438SOL     OW27455   2.549   1.983   1.228
 3438SOL    HW127456   2.476   1.947   1.178
 3438SOL    HW227457   2.553   2.075   1.202
 3439SOL     OW27458   3.106   6.021   1.506
 3439SOL    HW127459   3.164   6.053   1.575
 3439SOL    HW227460   3.069   6.100   1.467
 3440SOL     OW27461   3.987   1.401   0.637
 3440SOL    HW127462   4.040   1.473   0.603
 3440SOL    HW227463   3.982   1.339   0.564
 3441SOL     OW27464   2.335   5.485   2.381
 3441SOL    HW127465   2.314   5.407   2.433
 3441SOL    HW227466   2.382   5.451   2.305
 3442SOL     OW27467   4.026   4.549   2.049
 3442SOL    HW127468   4.045   4.494   2.125
 3442SOL    HW227469   4.077   4.628   2.063
 3443SOL     OW27470   6.123   5.104   1.415
 3443SOL    HW127471   6.035   5.123   1.448
 3443SOL    HW227472   6.180   5.161   1.465
 3444SOL     OW27473   5.404   1.153   1.286
 3444SOL    HW127474   5.320   1.106   1.282
 3444SOL    HW227475   5.435   1.139   1.375
 3445SOL     OW27476   5.873   5.012   6.071
 3445SOL    HW127477   5.880   5.040   5.980
 3445SOL    HW227478   5.833   4.925   6.066
 3446SOL     OW27479   2.371   1.309   1.079
 3446SOL    HW127480   2.277   1.318   1.064
 3446SOL    HW227481   2.388   1.359   1.159
 3447SOL     OW27482   1.231   3.150   6.576
 3447SOL    HW127483   1.235   3.115   6.487
 3447SOL    HW227484   1.305   3.210   6.581
 3448SOL     OW27485   5.996   3.972   1.829
 3448SOL    HW127486   5.969   4.061   1.808
 3448SOL    HW227487   6.006   3.971   1.924
 3449SOL     OW27488   2.099   4.194   7.040
 3449SOL    HW127489   2.094   4.289   7.027
 3449SOL    HW227490   2.139   4.185   7.127
 3450SOL     OW27491   5.268   4.379   1.343
 3450SOL    HW127492   5.336   4.318   1.313
 3450SOL    HW227493   5.202   4.322   1.383
 3451SOL     OW27494   4.201   0.360   7.579
 3451SOL    HW127495   4.189   0.299   7.651
 3451SOL    HW227496   4.296   0.372   7.573
 3452SOL     OW27497   0.013   1.758   6.684
 3452SOL    HW127498  -0.077   1.727   6.693
 3452SOL    HW227499   0.022   1.781   6.592
 3453SOL     OW27500   1.862   3.563   1.152
 3453SOL    HW127501   1.787   3.585   1.097
 3453SOL    HW227502   1.888   3.476   1.123
 3454SOL     OW27503   6.285   0.055   0.817
 3454SOL    HW127504   6.372   0.040   0.854
 3454SOL    HW227505   6.296   0.043   0.723
 3455SOL     OW27506   3.401   5.320   0.987
 3455SOL    HW127507   3.354   5.355   0.910
 3455SOL    HW227508   3.480   5.374   0.992
 3456SOL     OW27509   2.733   4.603   1.370
 3456SOL    HW127510   2.795   4.541   1.408
 3456SOL    HW227511   2.726   4.674   1.434
 3457SOL     OW27512   3.600   6.193   1.039
 3457SOL    HW127513   3.526   6.251   1.019
 3457SOL    HW227514   3.673   6.227   0.987
 3458SOL     OW27515   3.831   4.844   1.155
 3458SOL    HW127516   3.911   4.802   1.121
 3458SOL    HW227517   3.811   4.795   1.235
 3459SOL     OW27518   6.058   1.826   1.303
 3459SOL    HW127519   6.117   1.900   1.292
 3459SOL    HW227520   6.096   1.774   1.374
 3460SOL     OW27521   3.030   0.735   0.050
 3460SOL    HW127522   3.099   0.766   0.108
 3460SOL    HW227523   2.962   0.701   0.108
 3461SOL     OW27524   1.976   2.268   7.450
 3461SOL    HW127525   1.980   2.224   7.535
 3461SOL    HW227526   2.038   2.340   7.457
 3462SOL     OW27527   6.039   0.144   0.135
 3462SOL    HW127528   5.979   0.074   0.108
 3462SOL    HW227529   6.086   0.108   0.210
 3463SOL     OW27530   5.245   2.114   0.062
 3463SOL    HW127531   5.293   2.061   0.125
 3463SOL    HW227532   5.164   2.138   0.108
 3464SOL     OW27533   5.761   3.869   1.415
 3464SOL    HW127534   5.851   3.875   1.384
 3464SOL    HW227535   5.763   3.906   1.504
 3465SOL     OW27536   4.131   1.933   1.123
 3465SOL    HW127537   4.221   1.951   1.096
 3465SOL    HW227538   4.077   1.980   1.060
 3466SOL     OW27539   3.171   3.586   1.705
 3466SOL    HW127540   3.137   3.636   1.779
 3466SOL    HW227541   3.142   3.497   1.720
 3467SOL     OW27542   3.784   4.205   1.367
 3467SOL    HW127543   3.810   4.277   1.425
 3467SOL    HW227544   3.856   4.196   1.305
 3468SOL     OW27545   0.127   5.272   7.578
 3468SOL    HW127546   0.210   5.308   7.610
 3468SOL    HW227547   0.135   5.178   7.592
 3469SOL     OW27548   4.375   2.795   7.036
 3469SOL    HW127549   4.430   2.822   7.109
 3469SOL    HW227550   4.433   2.742   6.981
 3470SOL     OW27551   2.906   6.260   6.408
 3470SOL    HW127552   2.855   6.337   6.382
 3470SOL    HW227553   2.852   6.218   6.475
 3471SOL     OW27554   3.174   4.196   6.239
 3471SOL    HW127555   3.206   4.143   6.166
 3471SOL    HW227556   3.254   4.221   6.286
 3472SOL     OW27557   1.903   1.889   2.117
 3472SOL    HW127558   1.911   1.794   2.110
 3472SOL    HW227559   1.844   1.903   2.190
 3473SOL     OW27560   2.865   4.460   6.826
 3473SOL    HW127561   2.871   4.393   6.758
 3473SOL    HW227562   2.772   4.466   6.846
 3474SOL     OW27563   0.645   1.003   0.373
 3474SOL    HW127564   0.671   0.965   0.289
 3474SOL    HW227565   0.633   1.096   0.355
 3475SOL     OW27566   0.095   3.374   6.168
 3475SOL    HW127567   0.050   3.455   6.144
 3475SOL    HW227568   0.182   3.383   6.131
 3476SOL     OW27569   5.976   3.683   0.450
 3476SOL    HW127570   5.930   3.766   0.441
 3476SOL    HW227571   5.935   3.626   0.384
 3477SOL     OW27572   2.278   4.828   7.450
 3477SOL    HW127573   2.233   4.745   7.466
 3477SOL    HW227574   2.334   4.840   7.527
 3478SOL     OW27575   5.215   4.189   1.861
 3478SOL    HW127576   5.212   4.155   1.950
 3478SOL    HW227577   5.124   4.192   1.833
 3479SOL     OW27578   3.903   4.880   6.235
 3479SOL    HW127579   3.890   4.973   6.248
 3479SOL    HW227580   3.946   4.873   6.150
 3480SOL     OW27581   2.778   6.348   7.036
 3480SOL    HW127582   2.846   6.312   7.094
 3480SOL    HW227583   2.702   6.360   7.092
 3481SOL     OW27584   3.055   4.078   2.011
 3481SOL    HW127585   3.127   4.096   1.950
 3481SOL    HW227586   3.056   4.152   2.072
 3482SOL     OW27587   4.314   3.587   7.302
 3482SOL    HW127588   4.409   3.577   7.298
 3482SOL    HW227589   4.288   3.601   7.211
 3483SOL     OW27590   2.525   0.771   1.088
 3483SOL    HW127591   2.557   0.729   1.008
 3483SOL    HW227592   2.498   0.858   1.060
 3484SOL     OW27593   0.187   0.081   1.881
 3484SOL    HW127594   0.221  -0.001   1.844
 3484SOL    HW227595   0.257   0.144   1.868
 3485SOL     OW27596   4.118   5.037   6.944
 3485SOL    HW127597   4.157   5.005   6.862
 3485SOL    HW227598   4.027   5.005   6.941
 3486SOL     OW27599   1.772   1.665   6.696
 3486SOL    HW127600   1.758   1.695   6.786
 3486SOL    HW227601   1.708   1.713   6.644
 3487SOL     OW27602   3.210   4.930   6.474
 3487SOL    HW127603   3.304   4.938   6.457
 3487SOL    HW227604   3.201   4.850   6.526
 3488SOL     OW27605   3.504   6.439   2.394
 3488SOL    HW127606   3.484   6.445   2.301
 3488SOL    HW227607   3.425   6.470   2.438
 3489SOL     OW27608   3.722   5.739   6.390
 3489SOL    HW127609   3.652   5.718   6.329
 3489SOL    HW227610   3.800   5.698   6.352
 3490SOL     OW27611   2.931   1.682   0.139
 3490SOL    HW127612   2.919   1.634   0.221
 3490SOL    HW227613   2.852   1.664   0.089
 3491SOL     OW27614   4.332   0.212   6.393
 3491SOL    HW127615   4.335   0.168   6.308
 3491SOL    HW227616   4.380   0.153   6.452
 3492SOL     OW27617   0.100   1.753   7.621
 3492SOL    HW127618   0.095   1.841   7.659
 3492SOL    HW227619   0.009   1.724   7.617
 3493SOL     OW27620   2.016   5.737   0.890
 3493SOL    HW127621   1.983   5.647   0.890
 3493SOL    HW227622   2.081   5.738   0.961
 3494SOL     OW27623   6.012   6.132   0.643
 3494SOL    HW127624   6.034   6.188   0.717
 3494SOL    HW227625   6.082   6.067   0.640
 3495SOL     OW27626   3.767   3.134   6.396
 3495SOL    HW127627   3.751   3.163   6.486
 3495SOL    HW227628   3.761   3.039   6.400
 3496SOL     OW27629   4.139   4.099   7.520
 3496SOL    HW127630   4.202   4.101   7.447
 3496SOL    HW227631   4.054   4.083   7.477
 3497SOL     OW27632   2.382   5.770   7.222
 3497SOL    HW127633   2.461   5.823   7.212
 3497SOL    HW227634   2.342   5.770   7.134
 3498SOL     OW27635   5.290   3.479   5.694
 3498SOL    HW127636   5.353   3.470   5.766
 3498SOL    HW227637   5.296   3.571   5.668
 3499SOL     OW27638   0.266   4.224   6.893
 3499SOL    HW127639   0.322   4.246   6.968
 3499SOL    HW227640   0.264   4.128   6.892
 3500SOL     OW27641   4.234   4.928   7.480
 3500SOL    HW127642   4.224   4.952   7.387
 3500SOL    HW227643   4.158   4.968   7.523
 3501SOL     OW27644   3.298   6.335   6.384
 3501SOL    HW127645   3.231   6.365   6.446
 3501SOL    HW227646   3.318   6.245   6.411
 3502SOL     OW27647   2.042   2.711   1.902
 3502SOL    HW127648   1.973   2.653   1.934
 3502SOL    HW227649   2.002   2.798   1.901
 3503SOL     OW27650   4.172   2.550   7.146
 3503SOL    HW127651   4.187   2.621   7.083
 3503SOL    HW227652   4.077   2.547   7.156
 3504SOL     OW27653   5.152   2.877   7.036
 3504SOL    HW127654   5.200   2.812   7.087
 3504SOL    HW227655   5.070   2.833   7.011
 3505SOL     OW27656   0.746   3.924   0.041
 3505SOL    HW127657   0.833   3.885   0.050
 3505SOL    HW227658   0.706   3.915   0.127
 3506SOL     OW27659   4.028   0.562   6.858
 3506SOL    HW127660   4.086   0.599   6.925
 3506SOL    HW227661   3.943   0.557   6.900
 3507SOL     OW27662   4.876   1.939   7.663
 3507SOL    HW127663   4.823   2.015   7.683
 3507SOL    HW227664   4.952   1.947   7.721
 3508SOL     OW27665   0.970   5.668   1.795
 3508SOL    HW127666   1.066   5.672   1.794
 3508SOL    HW227667   0.944   5.725   1.867
 3509SOL     OW27668   1.361   4.967   6.534
 3509SOL    HW127669   1.441   4.932   6.574
 3509SOL    HW227670   1.382   4.974   6.441
 3510SOL     OW27671   5.569   2.602   5.972
 3510SOL    HW127672   5.531   2.565   6.051
 3510SOL    HW227673   5.495   2.613   5.913
 3511SOL     OW27674   6.260   2.212   0.535
 3511SOL    HW127675   6.221   2.280   0.590
 3511SOL    HW227676   6.353   2.212   0.560
 3512SOL     OW27677   4.164   1.899   7.590
 3512SOL    HW127678   4.158   1.831   7.658
 3512SOL    HW227679   4.073   1.918   7.567
 3513SOL     OW27680   0.863   6.441   7.583
 3513SOL    HW127681   0.890   6.443   7.674
 3513SOL    HW227682   0.853   6.533   7.558
 3514SOL     OW27683   6.183   5.933   1.047
 3514SOL    HW127684   6.259   5.991   1.039
 3514SOL    HW227685   6.117   5.972   0.989
 3515SOL     OW27686   2.863   6.318   2.330
 3515SOL    HW127687   2.852   6.390   2.393
 3515SOL    HW227688   2.872   6.362   2.245
 3516SOL     OW27689   5.198   3.364   1.407
 3516SOL    HW127690   5.152   3.427   1.463
 3516SOL    HW227691   5.249   3.311   1.468
 3517SOL     OW27692   0.357   3.542   1.904
 3517SOL    HW127693   0.358   3.579   1.816
 3517SOL    HW227694   0.265   3.520   1.920
 3518SOL     OW27695   4.398   0.153   1.406
 3518SOL    HW127696   4.465   0.155   1.473
 3518SOL    HW227697   4.322   0.196   1.446
 3519SOL     OW27698   5.185   5.538   6.320
 3519SOL    HW127699   5.265   5.520   6.270
 3519SOL    HW227700   5.179   5.634   6.321
 3520SOL     OW27701   0.959   6.330   1.421
 3520SOL    HW127702   0.881   6.358   1.372
 3520SOL    HW227703   0.927   6.314   1.509
 3521SOL     OW27704   5.310   1.252   6.655
 3521SOL    HW127705   5.338   1.248   6.564
 3521SOL    HW227706   5.345   1.335   6.687
 3522SOL     OW27707   5.095   4.669   7.651
 3522SOL    HW127708   5.008   4.664   7.611
 3522SOL    HW227709   5.099   4.594   7.709
 3523SOL     OW27710   4.816   3.971   1.759
 3523SOL    HW127711   4.808   3.876   1.765
 3523SOL    HW227712   4.726   4.003   1.762
 3524SOL     OW27713   1.429   5.742   1.174
 3524SOL    HW127714   1.470   5.746   1.088
 3524SOL    HW227715   1.352   5.686   1.162
 3525SOL     OW27716   1.677   0.158   5.958
 3525SOL    HW127717   1.764   0.121   5.947
 3525SOL    HW227718   1.631   0.095   6.013
 3526SOL     OW27719   3.049   6.195   1.885
 3526SOL    HW127720   3.057   6.273   1.939
 3526SOL    HW227721   3.087   6.124   1.938
 3527SOL     OW27722   3.754   2.639   0.589
 3527SOL    HW127723   3.716   2.663   0.505
 3527SOL    HW227724   3.680   2.610   0.641
 3528SOL     OW27725   4.762   5.355   7.115
 3528SOL    HW127726   4.837   5.296   7.109
 3528SOL    HW227727   4.726   5.339   7.203
 3529SOL     OW27728   1.151   2.818   0.359
 3529SOL    HW127729   1.227   2.844   0.307
 3529SOL    HW227730   1.100   2.898   0.368
 3530SOL     OW27731   5.082   4.820   7.207
 3530SOL    HW127732   5.142   4.888   7.178
 3530SOL    HW227733   5.132   4.739   7.203
 3531SOL     OW27734   4.907   3.812   6.260
 3531SOL    HW127735   4.906   3.758   6.340
 3531SOL    HW227736   5.000   3.827   6.243
 3532SOL     OW27737   5.911   4.796   7.099
 3532SOL    HW127738   5.908   4.744   7.018
 3532SOL    HW227739   5.900   4.886   7.070
 3533SOL     OW27740   2.350   3.590   2.394
 3533SOL    HW127741   2.307   3.629   2.318
 3533SOL    HW227742   2.303   3.626   2.469
 3534SOL     OW27743   0.373   4.031   0.757
 3534SOL    HW127744   0.388   4.039   0.663
 3534SOL    HW227745   0.403   3.943   0.779
 3535SOL     OW27746   1.098   0.008   1.133
 3535SOL    HW127747   1.187  -0.017   1.158
 3535SOL    HW227748   1.107   0.096   1.098
 3536SOL     OW27749   5.858   3.860   6.767
 3536SOL    HW127750   5.938   3.824   6.730
 3536SOL    HW227751   5.849   3.946   6.726
 3537SOL     OW27752   5.757   2.627   7.059
 3537SOL    HW127753   5.796   2.583   7.135
 3537SOL    HW227754   5.663   2.629   7.077
 3538SOL     OW27755   3.460   1.517   0.676
 3538SOL    HW127756   3.485   1.609   0.686
 3538SOL    HW227757   3.445   1.486   0.766
 3539SOL     OW27758   5.563   0.100   0.844
 3539SOL    HW127759   5.559   0.097   0.940
 3539SOL    HW227760   5.489   0.155   0.819
 3540SOL     OW27761   5.165   5.295   6.868
 3540SOL    HW127762   5.084   5.245   6.874
 3540SOL    HW227763   5.156   5.363   6.936
 3541SOL     OW27764   4.578   6.217   1.585
 3541SOL    HW127765   4.563   6.208   1.679
 3541SOL    HW227766   4.625   6.138   1.560
 3542SOL     OW27767   0.852   2.846   0.606
 3542SOL    HW127768   0.833   2.755   0.630
 3542SOL    HW227769   0.830   2.851   0.513
 3543SOL     OW27770   6.319   3.548   2.167
 3543SOL    HW127771   6.229   3.538   2.138
 3543SOL    HW227772   6.322   3.634   2.209
 3544SOL     OW27773   5.289   0.970   7.490
 3544SOL    HW127774   5.304   1.059   7.521
 3544SOL    HW227775   5.304   0.974   7.396
 3545SOL     OW27776   1.006   4.946   7.745
 3545SOL    HW127777   0.948   4.906   7.810
 3545SOL    HW227778   0.997   4.891   7.668
 3546SOL     OW27779   0.667   4.639   1.895
 3546SOL    HW127780   0.755   4.607   1.915
 3546SOL    HW227781   0.673   4.734   1.909
 3547SOL     OW27782   6.223   3.966   0.209
 3547SOL    HW127783   6.142   3.932   0.171
 3547SOL    HW227784   6.218   3.942   0.301
 3548SOL     OW27785   0.358   1.401   6.811
 3548SOL    HW127786   0.364   1.472   6.746
 3548SOL    HW227787   0.449   1.386   6.837
 3549SOL     OW27788   1.464   2.633   0.532
 3549SOL    HW127789   1.473   2.729   0.535
 3549SOL    HW227790   1.468   2.607   0.624
 3550SOL     OW27791   1.218   2.945   7.645
 3550SOL    HW127792   1.232   2.972   7.554
 3550SOL    HW227793   1.232   3.025   7.696
 3551SOL     OW27794   3.988   2.027   5.657
 3551SOL    HW127795   4.053   2.097   5.643
 3551SOL    HW227796   4.037   1.959   5.703
 3552SOL     OW27797   4.804   5.863   6.912
 3552SOL    HW127798   4.836   5.917   6.840
 3552SOL    HW227799   4.858   5.888   6.987
 3553SOL     OW27800   5.083   4.668   2.495
 3553SOL    HW127801   5.037   4.647   2.576
 3553SOL    HW227802   5.014   4.689   2.432
 3554SOL     OW27803   3.614   0.596   6.762
 3554SOL    HW127804   3.654   0.564   6.681
 3554SOL    HW227805   3.665   0.555   6.832
 3555SOL     OW27806   1.745   5.805   1.109
 3555SOL    HW127807   1.653   5.804   1.135
 3555SOL    HW227808   1.789   5.752   1.175
 3556SOL     OW27809   4.756   2.714   0.425
 3556SOL    HW127810   4.794   2.647   0.481
 3556SOL    HW227811   4.766   2.795   0.475
 3557SOL     OW27812   3.729   6.287   0.801
 3557SOL    HW127813   3.777   6.207   0.824
 3557SOL    HW227814   3.672   6.261   0.729
 3558SOL     OW27815   1.410   0.517   5.813
 3558SOL    HW127816   1.458   0.435   5.802
 3558SOL    HW227817   1.320   0.490   5.831
 3559SOL     OW27818   3.827   2.891   1.373
 3559SOL    HW127819   3.749   2.859   1.327
 3559SOL    HW227820   3.877   2.812   1.392
 3560SOL     OW27821   0.794   2.444   7.444
 3560SOL    HW127822   0.741   2.493   7.381
 3560SOL    HW227823   0.730   2.392   7.493
 3561SOL     OW27824   3.495   1.900   6.608
 3561SOL    HW127825   3.585   1.929   6.616
 3561SOL    HW227826   3.450   1.939   6.683
 3562SOL     OW27827   3.752   4.919   2.819
 3562SOL    HW127828   3.732   4.934   2.726
 3562SOL    HW227829   3.804   4.838   2.819
 3563SOL     OW27830   4.375   0.294   0.471
 3563SOL    HW127831   4.454   0.342   0.445
 3563SOL    HW227832   4.343   0.256   0.389
 3564SOL     OW27833   2.556   3.785   1.084
 3564SOL    HW127834   2.579   3.764   0.994
 3564SOL    HW227835   2.486   3.723   1.106
 3565SOL     OW27836   3.400   6.379   0.998
 3565SOL    HW127837   3.390   6.424   0.914
 3565SOL    HW227838   3.414   6.449   1.062
 3566SOL     OW27839   0.226   3.112   6.273
 3566SOL    HW127840   0.183   3.197   6.273
 3566SOL    HW227841   0.300   3.122   6.212
 3567SOL     OW27842   3.233   1.180   5.775
 3567SOL    HW127843   3.248   1.114   5.708
 3567SOL    HW227844   3.320   1.199   5.810
 3568SOL     OW27845   3.268   1.737   2.203
 3568SOL    HW127846   3.299   1.708   2.289
 3568SOL    HW227847   3.175   1.756   2.217
 3569SOL     OW27848   0.514   1.793   7.540
 3569SOL    HW127849   0.521   1.860   7.472
 3569SOL    HW227850   0.500   1.711   7.491
 3570SOL     OW27851   1.042   2.410   1.163
 3570SOL    HW127852   1.042   2.505   1.149
 3570SOL    HW227853   0.963   2.393   1.213
 3571SOL     OW27854   3.251   4.197   0.846
 3571SOL    HW127855   3.346   4.189   0.853
 3571SOL    HW227856   3.237   4.287   0.817
 3572SOL     OW27857   3.106   5.084   2.754
 3572SOL    HW127858   3.080   5.061   2.665
 3572SOL    HW227859   3.078   5.175   2.765
 3573SOL     OW27860   6.310   4.269   2.375
 3573SOL    HW127861   6.365   4.347   2.375
 3573SOL    HW227862   6.222   4.302   2.394
 3574SOL     OW27863   3.978   4.547   1.785
 3574SOL    HW127864   3.941   4.555   1.873
 3574SOL    HW227865   4.069   4.521   1.800
 3575SOL     OW27866   4.715   2.544   7.121
 3575SOL    HW127867   4.633   2.541   7.071
 3575SOL    HW227868   4.775   2.489   7.071
 3576SOL     OW27869   4.582   0.052   7.111
 3576SOL    HW127870   4.651  -0.013   7.104
 3576SOL    HW227871   4.610   0.110   7.183
 3577SOL     OW27872   4.619   6.244   1.855
 3577SOL    HW127873   4.611   6.339   1.852
 3577SOL    HW227874   4.587   6.219   1.941
 3578SOL     OW27875   4.863   5.368   0.813
 3578SOL    HW127876   4.818   5.324   0.886
 3578SOL    HW227877   4.951   5.331   0.814
 3579SOL     OW27878   4.793   0.363   6.529
 3579SOL    HW127879   4.704   0.395   6.517
 3579SOL    HW227880   4.806   0.362   6.624
 3580SOL     OW27881   2.513   3.077   1.031
 3580SOL    HW127882   2.508   3.003   0.971
 3580SOL    HW227883   2.437   3.067   1.088
 3581SOL     OW27884   5.259   0.014   7.225
 3581SOL    HW127885   5.216   0.096   7.249
 3581SOL    HW227886   5.188  -0.048   7.210
 3582SOL     OW27887   2.945   4.453   1.797
 3582SOL    HW127888   2.986   4.472   1.881
 3582SOL    HW227889   3.018   4.432   1.739
 3583SOL     OW27890   1.326   2.079   0.845
 3583SOL    HW127891   1.367   2.136   0.910
 3583SOL    HW227892   1.310   2.137   0.769
 3584SOL     OW27893   0.063   0.812   6.736
 3584SOL    HW127894   0.043   0.851   6.651
 3584SOL    HW227895  -0.018   0.767   6.762
 3585SOL     OW27896   3.323   1.401   1.010
 3585SOL    HW127897   3.313   1.308   0.990
 3585SOL    HW227898   3.404   1.427   0.967
 3586SOL     OW27899   1.189   1.890   7.042
 3586SOL    HW127900   1.236   1.807   7.049
 3586SOL    HW227901   1.252   1.956   7.068
 3587SOL     OW27902   6.024   1.770   2.004
 3587SOL    HW127903   6.017   1.854   2.049
 3587SOL    HW227904   5.972   1.710   2.056
 3588SOL     OW27905   3.376   5.414   1.277
 3588SOL    HW127906   3.352   5.334   1.323
 3588SOL    HW227907   3.410   5.384   1.193
 3589SOL     OW27908   2.603   0.516   7.306
 3589SOL    HW127909   2.581   0.504   7.399
 3589SOL    HW227910   2.696   0.495   7.300
 3590SOL     OW27911   1.768   1.767   1.449
 3590SOL    HW127912   1.776   1.699   1.516
 3590SOL    HW227913   1.776   1.719   1.366
 3591SOL     OW27914   5.712   3.902   2.043
 3591SOL    HW127915   5.702   3.824   2.098
 3591SOL    HW227916   5.631   3.906   1.992
 3592SOL     OW27917   1.906   2.525   0.909
 3592SOL    HW127918   1.860   2.467   0.849
 3592SOL    HW227919   1.926   2.470   0.985
 3593SOL     OW27920   3.930   5.575   7.642
 3593SOL    HW127921   4.017   5.587   7.604
 3593SOL    HW227922   3.939   5.495   7.695
 3594SOL     OW27923   6.088   0.573   2.286
 3594SOL    HW127924   6.049   0.585   2.200
 3594SOL    HW227925   6.147   0.647   2.297
 3595SOL     OW27926   3.518   1.799   0.723
 3595SOL    HW127927   3.575   1.859   0.675
 3595SOL    HW227928   3.430   1.833   0.710
 3596SOL     OW27929   1.800   2.719   6.586
 3596SOL    HW127930   1.810   2.624   6.590
 3596SOL    HW227931   1.759   2.735   6.501
 3597SOL     OW27932   0.920   6.093   7.534
 3597SOL    HW127933   0.968   6.133   7.606
 3597SOL    HW227934   0.836   6.068   7.572
 3598SOL     OW27935   1.820   4.410   0.814
 3598SOL    HW127936   1.830   4.317   0.834
 3598SOL    HW227937   1.835   4.454   0.897
 3599SOL     OW27938   1.273   5.606   5.909
 3599SOL    HW127939   1.328   5.534   5.941
 3599SOL    HW227940   1.187   5.567   5.897
 3600SOL     OW27941   4.853   4.940   1.500
 3600SOL    HW127942   4.816   5.003   1.438
 3600SOL    HW227943   4.939   4.977   1.523
 3601SOL     OW27944   4.524   4.965   2.066
 3601SOL    HW127945   4.450   4.929   2.116
 3601SOL    HW227946   4.576   5.012   2.130
 3602SOL     OW27947   4.221   5.087   1.165
 3602SOL    HW127948   4.312   5.061   1.165
 3602SOL    HW227949   4.173   5.008   1.189
 3603SOL     OW27950   4.739   0.718   6.611
 3603SOL    HW127951   4.693   0.769   6.677
 3603SOL    HW227952   4.811   0.676   6.658
 3604SOL     OW27953   3.528   5.278   7.346
 3604SOL    HW127954   3.577   5.283   7.429
 3604SOL    HW227955   3.573   5.210   7.296
 3605SOL     OW27956   1.213   4.987   1.530
 3605SOL    HW127957   1.244   4.925   1.464
 3605SOL    HW227958   1.193   4.932   1.606
 3606SOL     OW27959   0.161   0.529   6.227
 3606SOL    HW127960   0.188   0.602   6.171
 3606SOL    HW227961   0.240   0.474   6.233
 3607SOL     OW27962   4.811   5.897   1.720
 3607SOL    HW127963   4.903   5.910   1.742
 3607SOL    HW227964   4.763   5.951   1.783
 3608SOL     OW27965   0.033   5.820   1.480
 3608SOL    HW127966   0.092   5.848   1.550
 3608SOL    HW227967  -0.054   5.818   1.520
 3609SOL     OW27968   3.657   5.316   6.859
 3609SOL    HW127969   3.651   5.320   6.954
 3609SOL    HW227970   3.567   5.332   6.829
 3610SOL     OW27971   0.278   0.231   0.224
 3610SOL    HW127972   0.232   0.303   0.181
 3610SOL    HW227973   0.367   0.264   0.238
 3611SOL     OW27974   0.008   3.789   1.204
 3611SOL    HW127975  -0.014   3.762   1.293
 3611SOL    HW227976   0.100   3.816   1.209
 3612SOL     OW27977   1.527   6.413   7.229
 3612SOL    HW127978   1.470   6.355   7.179
 3612SOL    HW227979   1.470   6.447   7.299
 3613SOL     OW27980   5.144   0.259   1.549
 3613SOL    HW127981   5.132   0.273   1.643
 3613SOL    HW227982   5.077   0.313   1.508
 3614SOL     OW27983   6.007   1.952   5.966
 3614SOL    HW127984   6.013   2.024   6.029
 3614SOL    HW227985   6.066   1.978   5.895
 3615SOL     OW27986   5.239   4.630   1.159
 3615SOL    HW127987   5.200   4.685   1.227
 3615SOL    HW227988   5.261   4.548   1.204
 3616SOL     OW27989   2.547   3.944   6.377
 3616SOL    HW127990   2.549   3.929   6.283
 3616SOL    HW227991   2.520   3.861   6.415
 3617SOL     OW27992   2.883   1.003   6.349
 3617SOL    HW127993   2.807   1.057   6.327
 3617SOL    HW227994   2.945   1.063   6.390
 3618SOL     OW27995   5.991   1.202   7.421
 3618SOL    HW127996   6.012   1.112   7.448
 3618SOL    HW227997   6.020   1.207   7.330
 3619SOL     OW27998   0.662   3.351   0.302
 3619SOL    HW127999   0.625   3.334   0.216
 3619SOL    HW228000   0.753   3.376   0.285
 3620SOL     OW28001   4.779   3.743   6.650
 3620SOL    HW128002   4.738   3.664   6.616
 3620SOL    HW228003   4.757   3.744   6.743
 3621SOL     OW28004   2.635   6.227   2.879
 3621SOL    HW128005   2.680   6.300   2.836
 3621SOL    HW228006   2.553   6.218   2.832
 3622SOL     OW28007   1.215   3.103   5.759
 3622SOL    HW128008   1.289   3.099   5.820
 3622SOL    HW228009   1.148   3.047   5.800
 3623SOL     OW28010   1.394   2.087   0.504
 3623SOL    HW128011   1.339   2.125   0.436
 3623SOL    HW228012   1.468   2.047   0.457
 3624SOL     OW28013   5.437   5.501   0.462
 3624SOL    HW128014   5.446   5.587   0.422
 3624SOL    HW228015   5.516   5.490   0.515
 3625SOL     OW28016   2.370   5.755   5.306
 3625SOL    HW128017   2.303   5.795   5.362
 3625SOL    HW228018   2.400   5.679   5.355
 3626SOL     OW28019   2.368   3.776   7.466
 3626SOL    HW128020   2.433   3.756   7.399
 3626SOL    HW228021   2.419   3.783   7.547
 3627SOL     OW28022   0.889   5.158   6.572
 3627SOL    HW128023   0.979   5.156   6.604
 3627SOL    HW228024   0.880   5.243   6.530
 3628SOL     OW28025   1.022   2.109   0.215
 3628SOL    HW128026   0.999   2.167   0.288
 3628SOL    HW228027   1.006   2.020   0.249
 3629SOL     OW28028   2.393   2.038   5.631
 3629SOL    HW128029   2.469   1.981   5.619
 3629SOL    HW228030   2.411   2.114   5.574
 3630SOL     OW28031   6.379   4.219   2.120
 3630SOL    HW128032   6.386   4.202   2.214
 3630SOL    HW228033   6.346   4.136   2.084
 3631SOL     OW28034   5.615   5.204   6.622
 3631SOL    HW128035   5.532   5.163   6.597
 3631SOL    HW228036   5.608   5.215   6.717
 3632SOL     OW28037   2.189   5.190   6.103
 3632SOL    HW128038   2.115   5.145   6.063
 3632SOL    HW228039   2.229   5.239   6.031
 3633SOL     OW28040   5.922   0.422   2.053
 3633SOL    HW128041   5.985   0.363   2.013
 3633SOL    HW228042   5.839   0.373   2.052
 3634SOL     OW28043   3.906   0.953   6.465
 3634SOL    HW128044   3.876   0.920   6.380
 3634SOL    HW228045   3.826   0.963   6.516
 3635SOL     OW28046   1.569   6.037   1.425
 3635SOL    HW128047   1.548   6.020   1.517
 3635SOL    HW228048   1.495   6.003   1.376
 3636SOL     OW28049   2.160   5.358   0.846
 3636SOL    HW128050   2.206   5.276   0.865
 3636SOL    HW228051   2.137   5.393   0.932
 3637SOL     OW28052   3.577   5.492   0.228
 3637SOL    HW128053   3.652   5.433   0.236
 3637SOL    HW228054   3.599   5.549   0.154
 3638SOL     OW28055   3.518   0.606   0.792
 3638SOL    HW128056   3.513   0.523   0.838
 3638SOL    HW228057   3.578   0.589   0.719
 3639SOL     OW28058   0.987   1.890   1.898
 3639SOL    HW128059   1.012   1.816   1.953
 3639SOL    HW228060   0.891   1.887   1.895
 3640SOL     OW28061   5.569   1.340   5.917
 3640SOL    HW128062   5.608   1.259   5.948
 3640SOL    HW228063   5.641   1.404   5.919
 3641SOL     OW28064   4.465   5.095   0.402
 3641SOL    HW128065   4.442   5.170   0.348
 3641SOL    HW228066   4.502   5.032   0.341
 3642SOL     OW28067   3.144   1.713   2.863
 3642SOL    HW128068   3.103   1.744   2.783
 3642SOL    HW228069   3.188   1.632   2.839
 3643SOL     OW28070   0.334   3.210   0.794
 3643SOL    HW128071   0.267   3.230   0.859
 3643SOL    HW228072   0.285   3.188   0.715
 3644SOL     OW28073   1.349   6.022   2.229
 3644SOL    HW128074   1.350   6.097   2.170
 3644SOL    HW228075   1.257   6.012   2.254
 3645SOL     OW28076   3.108   1.309   2.283
 3645SOL    HW128077   3.034   1.337   2.229
 3645SOL    HW228078   3.128   1.220   2.252
 3646SOL     OW28079   5.919   5.384   6.527
 3646SOL    HW128080   5.827   5.387   6.502
 3646SOL    HW228081   5.952   5.304   6.485
 3647SOL     OW28082   4.802   0.757   7.688
 3647SOL    HW128083   4.803   0.776   7.782
 3647SOL    HW228084   4.882   0.797   7.655
 3648SOL     OW28085   4.005   1.795   1.925
 3648SOL    HW128086   4.079   1.768   1.870
 3648SOL    HW228087   4.009   1.737   2.001
 3649SOL     OW28088   4.808   2.083   0.713
 3649SOL    HW128089   4.900   2.067   0.735
 3649SOL    HW228090   4.805   2.176   0.693
 3650SOL     OW28091   4.096   1.665   0.611
 3650SOL    HW128092   4.008   1.693   0.637
 3650SOL    HW228093   4.148   1.745   0.612
 3651SOL     OW28094   6.218   5.553   1.387
 3651SOL    HW128095   6.194   5.541   1.296
 3651SOL    HW228096   6.168   5.486   1.434
 3652SOL     OW28097   0.430   5.762   6.092
 3652SOL    HW128098   0.460   5.719   6.172
 3652SOL    HW228099   0.481   5.721   6.022
 3653SOL     OW28100   1.523   0.738   0.434
 3653SOL    HW128101   1.467   0.789   0.493
 3653SOL    HW228102   1.592   0.798   0.408
 3654SOL     OW28103   3.706   3.348   0.306
 3654SOL    HW128104   3.756   3.385   0.378
 3654SOL    HW228105   3.761   3.279   0.270
 3655SOL     OW28106   0.392   1.197   6.599
 3655SOL    HW128107   0.353   1.262   6.658
 3655SOL    HW228108   0.484   1.223   6.591
 3656SOL     OW28109   3.611   0.121   1.691
 3656SOL    HW128110   3.564   0.148   1.612
 3656SOL    HW228111   3.582   0.031   1.707
 3657SOL     OW28112   1.104   6.275   0.754
 3657SOL    HW128113   1.185   6.242   0.717
 3657SOL    HW228114   1.097   6.365   0.722
 3658SOL     OW28115   3.222   4.857   1.704
 3658SOL    HW128116   3.231   4.800   1.780
 3658SOL    HW228117   3.307   4.900   1.696
 3659SOL     OW28118   1.818   4.752   1.874
 3659SOL    HW128119   1.760   4.725   1.946
 3659SOL    HW228120   1.901   4.709   1.893
 3660SOL     OW28121   0.807   5.406   0.506
 3660SOL    HW128122   0.745   5.478   0.520
 3660SOL    HW228123   0.893   5.448   0.503
 3661SOL     OW28124   1.264   4.845   1.886
 3661SOL    HW128125   1.302   4.928   1.856
 3661SOL    HW228126   1.236   4.862   1.975
 3662SOL     OW28127   5.147   2.977   6.463
 3662SOL    HW128128   5.109   3.054   6.420
 3662SOL    HW228129   5.208   2.941   6.398
 3663SOL     OW28130   4.524   0.672   6.451
 3663SOL    HW128131   4.458   0.729   6.489
 3663SOL    HW228132   4.597   0.675   6.512
 3664SOL     OW28133   5.405   6.436   2.517
 3664SOL    HW128134   5.375   6.387   2.593
 3664SOL    HW228135   5.422   6.369   2.450
 3665SOL     OW28136   5.415   4.069   0.426
 3665SOL    HW128137   5.434   4.036   0.513
 3665SOL    HW228138   5.475   4.144   0.415
 3666SOL     OW28139   5.527   5.651   0.780
 3666SOL    HW128140   5.451   5.685   0.828
 3666SOL    HW228141   5.492   5.625   0.695
 3667SOL     OW28142   1.546   1.475   1.633
 3667SOL    HW128143   1.546   1.437   1.545
 3667SOL    HW228144   1.533   1.401   1.691
 3668SOL     OW28145   5.184   3.036   6.744
 3668SOL    HW128146   5.276   3.062   6.738
 3668SOL    HW228147   5.161   3.007   6.655
 3669SOL     OW28148   5.626   4.853   2.198
 3669SOL    HW128149   5.722   4.847   2.195
 3669SOL    HW228150   5.608   4.945   2.216
 3670SOL     OW28151   5.252   3.270   0.099
 3670SOL    HW128152   5.223   3.247   0.187
 3670SOL    HW228153   5.322   3.334   0.112
 3671SOL     OW28154   4.508   4.439   6.189
 3671SOL    HW128155   4.443   4.388   6.140
 3671SOL    HW228156   4.588   4.432   6.137
 3672SOL     OW28157   4.034   4.419   2.317
 3672SOL    HW128158   4.080   4.346   2.358
 3672SOL    HW228159   3.976   4.452   2.385
 3673SOL     OW28160   0.894   4.182   6.828
 3673SOL    HW128161   0.939   4.101   6.853
 3673SOL    HW228162   0.955   4.252   6.851
 3674SOL     OW28163   1.238   5.990   7.559
 3674SOL    HW128164   1.187   6.053   7.610
 3674SOL    HW228165   1.315   5.971   7.613
 3675SOL     OW28166   4.061   0.796   6.008
 3675SOL    HW128167   4.110   0.809   6.090
 3675SOL    HW228168   4.000   0.725   6.028
 3676SOL     OW28169   2.797   0.503   6.965
 3676SOL    HW128170   2.863   0.538   6.905
 3676SOL    HW228171   2.730   0.466   6.908
 3677SOL     OW28172   5.428   6.177   0.339
 3677SOL    HW128173   5.338   6.161   0.310
 3677SOL    HW228174   5.433   6.133   0.424
 3678SOL     OW28175   5.555   5.458   0.069
 3678SOL    HW128176   5.527   5.546   0.044
 3678SOL    HW228177   5.637   5.472   0.117
 3679SOL     OW28178   4.898   4.974   7.467
 3679SOL    HW128179   4.805   4.970   7.490
 3679SOL    HW228180   4.910   4.900   7.407
 3680SOL     OW28181   2.817   1.852   5.850
 3680SOL    HW128182   2.870   1.786   5.894
 3680SOL    HW228183   2.825   1.930   5.906
 3681SOL     OW28184   2.836   6.080   0.814
 3681SOL    HW128185   2.892   6.083   0.891
 3681SOL    HW228186   2.747   6.078   0.849
 3682SOL     OW28187   2.901   5.361   0.197
 3682SOL    HW128188   2.871   5.315   0.276
 3682SOL    HW228189   2.852   5.443   0.198
 3683SOL     OW28190   3.538   2.572   0.734
 3683SOL    HW128191   3.565   2.553   0.824
 3683SOL    HW228192   3.464   2.513   0.718
 3684SOL     OW28193   5.725   0.677   6.939
 3684SOL    HW128194   5.699   0.606   6.998
 3684SOL    HW228195   5.770   0.740   6.996
 3685SOL     OW28196   5.187   4.876   0.188
 3685SOL    HW128197   5.138   4.809   0.140
 3685SOL    HW228198   5.187   4.845   0.278
 3686SOL     OW28199   3.833   1.149   7.188
 3686SOL    HW128200   3.761   1.211   7.193
 3686SOL    HW228201   3.851   1.124   7.278
 3687SOL     OW28202   2.611   3.901   6.101
 3687SOL    HW128203   2.574   3.829   6.049
 3687SOL    HW228204   2.694   3.866   6.135
 3688SOL     OW28205   0.652   4.913   1.892
 3688SOL    HW128206   0.559   4.937   1.893
 3688SOL    HW228207   0.694   4.984   1.843
 3689SOL     OW28208   4.891   0.792   1.615
 3689SOL    HW128209   4.857   0.709   1.650
 3689SOL    HW228210   4.818   0.830   1.568
 3690SOL     OW28211   0.673   5.414   7.481
 3690SOL    HW128212   0.625   5.490   7.447
 3690SOL    HW228213   0.720   5.448   7.558
 3691SOL     OW28214   2.444   2.794   1.440
 3691SOL    HW128215   2.475   2.884   1.430
 3691SOL    HW228216   2.522   2.740   1.427
 3692SOL     OW28217   4.646   5.118   0.691
 3692SOL    HW128218   4.727   5.140   0.737
 3692SOL    HW228219   4.579   5.173   0.733
 3693SOL     OW28220   6.282   2.436   7.708
 3693SOL    HW128221   6.340   2.382   7.654
 3693SOL    HW228222   6.338   2.509   7.737
 3694SOL     OW28223   5.288   1.640   1.692
 3694SOL    HW128224   5.312   1.562   1.642
 3694SOL    HW228225   5.324   1.625   1.779
 3695SOL     OW28226   2.988   4.742   0.510
 3695SOL    HW128227   3.042   4.821   0.515
 3695SOL    HW228228   2.974   4.716   0.601
 3696SOL     OW28229   2.455   1.024   1.035
 3696SOL    HW128230   2.526   1.021   0.971
 3696SOL    HW228231   2.423   1.114   1.030
 3697SOL     OW28232   4.211   5.196   7.697
 3697SOL    HW128233   4.133   5.225   7.744
 3697SOL    HW228234   4.220   5.259   7.625
 3698SOL     OW28235   4.725   6.313   6.018
 3698SOL    HW128236   4.804   6.339   6.066
 3698SOL    HW228237   4.673   6.393   6.013
 3699SOL     OW28238   2.827   2.081   6.324
 3699SOL    HW128239   2.848   1.998   6.281
 3699SOL    HW228240   2.881   2.146   6.279
 3700SOL     OW28241   3.284   0.853   6.524
 3700SOL    HW128242   3.373   0.822   6.506
 3700SOL    HW228243   3.246   0.867   6.438
 3701SOL     OW28244   6.356   3.630   6.765
 3701SOL    HW128245   6.439   3.594   6.798
 3701SOL    HW228246   6.289   3.573   6.802
 3702SOL     OW28247   4.047   6.104   6.492
 3702SOL    HW128248   4.055   6.134   6.583
 3702SOL    HW228249   3.960   6.063   6.488
 3703SOL     OW28250   4.374   2.036   1.035
 3703SOL    HW128251   4.331   2.119   1.056
 3703SOL    HW228252   4.390   2.040   0.941
 3704SOL     OW28253   3.856   4.120   0.063
 3704SOL    HW128254   3.827   4.079   0.146
 3704SOL    HW228255   3.950   4.134   0.075
 3705SOL     OW28256   1.839   5.850   6.208
 3705SOL    HW128257   1.804   5.922   6.260
 3705SOL    HW228258   1.859   5.889   6.123
 3706SOL     OW28259   5.507   3.955   7.414
 3706SOL    HW128260   5.463   3.939   7.497
 3706SOL    HW228261   5.558   4.034   7.428
 3707SOL     OW28262   4.941   6.295   0.287
 3707SOL    HW128263   4.951   6.386   0.261
 3707SOL    HW228264   4.861   6.266   0.245
 3708SOL     OW28265   1.106   2.829   6.260
 3708SOL    HW128266   1.064   2.888   6.197
 3708SOL    HW228267   1.173   2.883   6.302
 3709SOL     OW28268   6.241   0.370   1.729
 3709SOL    HW128269   6.164   0.378   1.786
 3709SOL    HW228270   6.298   0.442   1.754
 3710SOL     OW28271   3.789   6.191   7.051
 3710SOL    HW128272   3.704   6.235   7.051
 3710SOL    HW228273   3.771   6.103   7.084
 3711SOL     OW28274   4.247   2.458   6.268
 3711SOL    HW128275   4.211   2.438   6.354
 3711SOL    HW228276   4.276   2.374   6.234
 3712SOL     OW28277   6.311   1.907   0.840
 3712SOL    HW128278   6.291   1.928   0.749
 3712SOL    HW228279   6.237   1.942   0.889
 3713SOL     OW28280   4.793   1.836   1.460
 3713SOL    HW128281   4.842   1.764   1.501
 3713SOL    HW228282   4.752   1.796   1.383
 3714SOL     OW28283   1.928   4.589   0.986
 3714SOL    HW128284   1.846   4.637   0.994
 3714SOL    HW228285   1.983   4.625   1.055
 3715SOL     OW28286   1.915   4.324   1.471
 3715SOL    HW128287   1.944   4.341   1.560
 3715SOL    HW228288   1.971   4.253   1.440
 3716SOL     OW28289   1.734   6.396   0.030
 3716SOL    HW128290   1.686   6.468  -0.011
 3716SOL    HW228291   1.703   6.317  -0.016
 3717SOL     OW28292   3.771   3.711   1.573
 3717SOL    HW128293   3.773   3.694   1.479
 3717SOL    HW228294   3.754   3.625   1.612
 3718SOL     OW28295   4.244   2.277   1.085
 3718SOL    HW128296   4.294   2.327   1.021
 3718SOL    HW228297   4.236   2.336   1.160
 3719SOL     OW28298   6.036   3.128   6.135
 3719SOL    HW128299   6.117   3.170   6.107
 3719SOL    HW228300   6.040   3.040   6.099
 3720SOL     OW28301   3.638   5.454   0.645
 3720SOL    HW128302   3.548   5.485   0.659
 3720SOL    HW228303   3.666   5.498   0.564
 3721SOL     OW28304   3.702   3.009   1.738
 3721SOL    HW128305   3.795   3.027   1.747
 3721SOL    HW228306   3.698   2.920   1.704
 3722SOL     OW28307   3.260   1.602   7.113
 3722SOL    HW128308   3.285   1.528   7.169
 3722SOL    HW228309   3.175   1.577   7.077
 3723SOL     OW28310   2.699   5.620   2.638
 3723SOL    HW128311   2.680   5.713   2.637
 3723SOL    HW228312   2.795   5.616   2.642
 3724SOL     OW28313   1.196   4.078   6.520
 3724SOL    HW128314   1.212   4.138   6.447
 3724SOL    HW228315   1.128   4.019   6.488
 3725SOL     OW28316   3.344   3.982   6.692
 3725SOL    HW128317   3.425   3.997   6.643
 3725SOL    HW228318   3.275   4.017   6.635
 3726SOL     OW28319   6.096   3.121   6.590
 3726SOL    HW128320   6.092   3.070   6.670
 3726SOL    HW228321   6.100   3.212   6.619
 3727SOL     OW28322   5.090   2.399   7.479
 3727SOL    HW128323   5.047   2.329   7.528
 3727SOL    HW228324   5.115   2.463   7.545
 3728SOL     OW28325   2.932   2.493   6.220
 3728SOL    HW128326   2.838   2.480   6.203
 3728SOL    HW228327   2.944   2.588   6.218
 3729SOL     OW28328   0.624   2.365   5.418
 3729SOL    HW128329   0.614   2.294   5.356
 3729SOL    HW228330   0.716   2.392   5.411
 3730SOL     OW28331   5.086   4.716   0.878
 3730SOL    HW128332   5.091   4.657   0.953
 3730SOL    HW228333   4.992   4.727   0.862
 3731SOL     OW28334   3.522   3.056   1.451
 3731SOL    HW128335   3.437   3.097   1.430
 3731SOL    HW228336   3.516   2.968   1.413
 3732SOL     OW28337   5.737   2.582   0.623
 3732SOL    HW128338   5.674   2.653   0.634
 3732SOL    HW228339   5.818   2.626   0.598
 3733SOL     OW28340   0.128   3.845   7.297
 3733SOL    HW128341   0.192   3.790   7.251
 3733SOL    HW228342   0.179   3.891   7.363
 3734SOL     OW28343   3.160   4.978   1.322
 3734SOL    HW128344   3.225   4.988   1.252
 3734SOL    HW228345   3.075   4.985   1.277
 3735SOL     OW28346   6.372   0.391   6.635
 3735SOL    HW128347   6.398   0.354   6.550
 3735SOL    HW228348   6.302   0.453   6.614
 3736SOL     OW28349   0.589   3.678   2.386
 3736SOL    HW128350   0.627   3.653   2.301
 3736SOL    HW228351   0.543   3.599   2.415
 3737SOL     OW28352   1.978   3.629   6.880
 3737SOL    HW128353   2.009   3.618   6.790
 3737SOL    HW228354   2.048   3.678   6.924
 3738SOL     OW28355   1.969   1.449   5.455
 3738SOL    HW128356   1.900   1.434   5.519
 3738SOL    HW228357   1.926   1.441   5.370
 3739SOL     OW28358   1.680   1.414   6.784
 3739SOL    HW128359   1.749   1.365   6.737
 3739SOL    HW228360   1.664   1.491   6.729
 3740SOL     OW28361   3.883   2.178   1.169
 3740SOL    HW128362   3.956   2.197   1.228
 3740SOL    HW228363   3.805   2.188   1.224
 3741SOL     OW28364   1.169   5.946   0.323
 3741SOL    HW128365   1.197   5.859   0.293
 3741SOL    HW228366   1.096   5.969   0.266
 3742SOL     OW28367   0.177   3.476   7.276
 3742SOL    HW128368   0.236   3.467   7.351
 3742SOL    HW228369   0.089   3.465   7.313
 3743SOL     OW28370   2.608   1.306   6.469
 3743SOL    HW128371   2.599   1.217   6.503
 3743SOL    HW228372   2.518   1.338   6.464
 3744SOL     OW28373   5.495   1.826   0.038
 3744SOL    HW128374   5.555   1.752   0.034
 3744SOL    HW228375   5.453   1.828  -0.048
 3745SOL     OW28376   3.689   5.083   1.925
 3745SOL    HW128377   3.698   5.020   1.996
 3745SOL    HW228378   3.728   5.163   1.959
 3746SOL     OW28379   5.736   1.499   6.331
 3746SOL    HW128380   5.812   1.441   6.328
 3746SOL    HW228381   5.772   1.586   6.312
 3747SOL     OW28382   1.892   2.932   1.900
 3747SOL    HW128383   1.813   2.950   1.849
 3747SOL    HW228384   1.860   2.912   1.988
 3748SOL     OW28385   2.092   3.784   7.086
 3748SOL    HW128386   2.160   3.738   7.134
 3748SOL    HW228387   2.105   3.876   7.109
 3749SOL     OW28388   6.297   3.081   7.688
 3749SOL    HW128389   6.257   3.124   7.764
 3749SOL    HW228390   6.336   3.153   7.638
 3750SOL     OW28391   3.256   0.481   1.369
 3750SOL    HW128392   3.180   0.425   1.352
 3750SOL    HW228393   3.229   0.536   1.442
 3751SOL     OW28394   2.075   4.641   7.437
 3751SOL    HW128395   2.046   4.582   7.507
 3751SOL    HW228396   2.150   4.598   7.398
 3752SOL     OW28397   5.382   1.966   5.919
 3752SOL    HW128398   5.378   2.021   5.841
 3752SOL    HW228399   5.384   1.876   5.884
 3753SOL     OW28400   3.730   4.672   0.040
 3753SOL    HW128401   3.818   4.701   0.016
 3753SOL    HW228402   3.743   4.620   0.118
 3754SOL     OW28403   3.986   1.526   1.275
 3754SOL    HW128404   3.968   1.446   1.225
 3754SOL    HW228405   3.996   1.496   1.365
 3755SOL     OW28406   4.785   4.263   6.756
 3755SOL    HW128407   4.717   4.313   6.711
 3755SOL    HW228408   4.861   4.321   6.756
 3756SOL     OW28409   3.836   4.984   1.655
 3756SOL    HW128410   3.797   5.055   1.705
 3756SOL    HW228411   3.781   4.977   1.577
 3757SOL     OW28412   3.253   0.249   7.639
 3757SOL    HW128413   3.329   0.268   7.583
 3757SOL    HW228414   3.254   0.319   7.704
 3758SOL     OW28415   5.778   4.963   7.476
 3758SOL    HW128416   5.781   5.058   7.471
 3758SOL    HW228417   5.700   4.938   7.427
 3759SOL     OW28418   4.729   3.220   0.356
 3759SOL    HW128419   4.669   3.177   0.296
 3759SOL    HW228420   4.799   3.254   0.301
 3760SOL     OW28421   0.766   3.233   1.324
 3760SOL    HW128422   0.710   3.309   1.335
 3760SOL    HW228423   0.758   3.185   1.406
 3761SOL     OW28424   5.287   0.601   1.402
 3761SOL    HW128425   5.202   0.577   1.437
 3761SOL    HW228426   5.340   0.624   1.479
 3762SOL     OW28427   3.210   6.263   1.663
 3762SOL    HW128428   3.290   6.283   1.712
 3762SOL    HW228429   3.142   6.255   1.730
 3763SOL     OW28430   1.921   6.046   2.621
 3763SOL    HW128431   1.923   6.128   2.672
 3763SOL    HW228432   1.991   5.993   2.659
 3764SOL     OW28433   1.360   4.092   7.010
 3764SOL    HW128434   1.344   4.069   6.919
 3764SOL    HW228435   1.416   4.022   7.043
 3765SOL     OW28436   0.483   0.532   7.237
 3765SOL    HW128437   0.449   0.506   7.323
 3765SOL    HW228438   0.544   0.603   7.256
 3766SOL     OW28439   2.050   0.509   1.880
 3766SOL    HW128440   2.065   0.604   1.872
 3766SOL    HW228441   2.128   0.476   1.925
 3767SOL     OW28442   6.099   5.851   0.319
 3767SOL    HW128443   6.136   5.889   0.399
 3767SOL    HW228444   6.173   5.806   0.279
 3768SOL     OW28445   3.098   5.100   1.590
 3768SOL    HW128446   3.101   5.055   1.506
 3768SOL    HW228447   3.141   5.040   1.651
 3769SOL     OW28448   2.693   5.476   2.410
 3769SOL    HW128449   2.708   5.545   2.346
 3769SOL    HW228450   2.706   5.518   2.495
 3770SOL     OW28451   2.915   5.314   2.483
 3770SOL    HW128452   2.978   5.370   2.527
 3770SOL    HW228453   2.839   5.370   2.469
 3771SOL     OW28454   1.190   5.316   1.803
 3771SOL    HW128455   1.196   5.410   1.822
 3771SOL    HW228456   1.134   5.281   1.873
 3772SOL     OW28457   0.847   2.347   6.320
 3772SOL    HW128458   0.882   2.434   6.338
 3772SOL    HW228459   0.757   2.363   6.293
 3773SOL     OW28460   1.248   0.167   6.461
 3773SOL    HW128461   1.172   0.219   6.438
 3773SOL    HW228462   1.254   0.101   6.392
 3774SOL     OW28463   1.961   1.218   7.010
 3774SOL    HW128464   1.928   1.143   7.060
 3774SOL    HW228465   2.027   1.257   7.067
 3775SOL     OW28466   4.261   3.684   0.225
 3775SOL    HW128467   4.272   3.778   0.214
 3775SOL    HW228468   4.191   3.660   0.165
 3776SOL     OW28469   1.087   6.070   2.295
 3776SOL    HW128470   1.062   6.019   2.371
 3776SOL    HW228471   1.058   6.019   2.220
 3777SOL     OW28472   1.028   2.993   6.494
 3777SOL    HW128473   1.081   3.061   6.535
 3777SOL    HW228474   1.030   2.920   6.556
 3778SOL     OW28475   2.550   2.351   1.219
 3778SOL    HW128476   2.554   2.395   1.304
 3778SOL    HW228477   2.641   2.351   1.188
 3779SOL     OW28478   5.952   4.961   7.693
 3779SOL    HW128479   5.914   4.914   7.767
 3779SOL    HW228480   5.895   4.939   7.619
 3780SOL     OW28481   5.864   3.409   7.046
 3780SOL    HW128482   5.919   3.373   6.976
 3780SOL    HW228483   5.776   3.414   7.007
 3781SOL     OW28484   3.400   0.703   6.104
 3781SOL    HW128485   3.318   0.752   6.109
 3781SOL    HW228486   3.373   0.612   6.093
 3782SOL     OW28487   0.617   2.439   0.500
 3782SOL    HW128488   0.593   2.426   0.409
 3782SOL    HW228489   0.543   2.403   0.550
 3783SOL     OW28490   1.718   1.696   7.000
 3783SOL    HW128491   1.720   1.602   7.021
 3783SOL    HW228492   1.747   1.739   7.080
 3784SOL     OW28493   6.122   1.793   7.395
 3784SOL    HW128494   6.052   1.806   7.331
 3784SOL    HW228495   6.198   1.838   7.358
 3785SOL     OW28496   0.210   4.449   7.208
 3785SOL    HW128497   0.278   4.436   7.142
 3785SOL    HW228498   0.251   4.501   7.276
 3786SOL     OW28499   6.065   3.566   2.062
 3786SOL    HW128500   6.059   3.591   1.970
 3786SOL    HW228501   5.976   3.539   2.085
 3787SOL     OW28502   5.659   6.382   0.297
 3787SOL    HW128503   5.583   6.343   0.338
 3787SOL    HW228504   5.623   6.445   0.235
 3788SOL     OW28505   4.536   3.971   1.708
 3788SOL    HW128506   4.446   3.976   1.742
 3788SOL    HW228507   4.536   4.030   1.632
 3789SOL     OW28508   3.697   3.436   6.363
 3789SOL    HW128509   3.755   3.360   6.370
 3789SOL    HW228510   3.657   3.427   6.276
 3790SOL     OW28511   1.212   1.643   6.563
 3790SOL    HW128512   1.192   1.621   6.654
 3790SOL    HW228513   1.239   1.560   6.524
 3791SOL     OW28514   1.283   3.132   0.102
 3791SOL    HW128515   1.282   3.227   0.105
 3791SOL    HW228516   1.329   3.105   0.181
 3792SOL     OW28517   4.858   4.292   7.560
 3792SOL    HW128518   4.896   4.356   7.499
 3792SOL    HW228519   4.802   4.237   7.505
 3793SOL     OW28520   1.249   0.000   1.380
 3793SOL    HW128521   1.235   0.078   1.434
 3793SOL    HW228522   1.174  -0.056   1.398
 3794SOL     OW28523   2.108   1.317   7.220
 3794SOL    HW128524   2.087   1.389   7.280
 3794SOL    HW228525   2.151   1.252   7.275
 3795SOL     OW28526   2.892   1.073   6.721
 3795SOL    HW128527   2.953   1.000   6.735
 3795SOL    HW228528   2.924   1.118   6.643
 3796SOL     OW28529   1.286   3.386   0.446
 3796SOL    HW128530   1.332   3.470   0.439
 3796SOL    HW228531   1.290   3.364   0.539
 3797SOL     OW28532   0.208   3.713   0.834
 3797SOL    HW128533   0.296   3.717   0.871
 3797SOL    HW228534   0.200   3.624   0.800
 3798SOL     OW28535   6.067   1.333   0.999
 3798SOL    HW128536   6.132   1.287   0.945
 3798SOL    HW228537   6.117   1.366   1.074
 3799SOL     OW28538   1.398   3.776   6.763
 3799SOL    HW128539   1.345   3.710   6.807
 3799SOL    HW228540   1.485   3.736   6.757
 3800SOL     OW28541   1.812   2.248   2.248
 3800SOL    HW128542   1.774   2.178   2.301
 3800SOL    HW228543   1.763   2.326   2.273
 3801SOL     OW28544   1.097   3.050   7.251
 3801SOL    HW128545   1.131   3.109   7.184
 3801SOL    HW228546   1.132   3.085   7.333
 3802SOL     OW28547   3.901   1.209   6.664
 3802SOL    HW128548   3.829   1.259   6.626
 3802SOL    HW228549   3.976   1.269   6.661
 3803SOL     OW28550   3.307   2.174   2.262
 3803SOL    HW128551   3.232   2.125   2.229
 3803SOL    HW228552   3.271   2.259   2.285
 3804SOL     OW28553   1.765   1.236   6.210
 3804SOL    HW128554   1.694   1.283   6.167
 3804SOL    HW228555   1.793   1.171   6.145
 3805SOL     OW28556   1.621   4.660   7.259
 3805SOL    HW128557   1.601   4.577   7.303
 3805SOL    HW228558   1.602   4.644   7.167
 3806SOL     OW28559   3.989   5.890   2.255
 3806SOL    HW128560   4.012   5.922   2.342
 3806SOL    HW228561   3.992   5.967   2.199
 3807SOL     OW28562   1.631   1.739   6.431
 3807SOL    HW128563   1.609   1.710   6.343
 3807SOL    HW228564   1.552   1.781   6.464
 3808SOL     OW28565   5.168   5.688   6.694
 3808SOL    HW128566   5.210   5.759   6.743
 3808SOL    HW228567   5.095   5.661   6.749
 3809SOL     OW28568   4.199   6.374   0.156
 3809SOL    HW128569   4.121   6.384   0.210
 3809SOL    HW228570   4.238   6.291   0.185
 3810SOL     OW28571   2.535   4.393   0.166
 3810SOL    HW128572   2.595   4.373   0.094
 3810SOL    HW228573   2.586   4.377   0.245
 3811SOL     OW28574   1.619   1.810   6.102
 3811SOL    HW128575   1.544   1.839   6.050
 3811SOL    HW228576   1.608   1.715   6.109
 3812SOL     OW28577   5.647   4.187   2.060
 3812SOL    HW128578   5.669   4.095   2.048
 3812SOL    HW228579   5.685   4.231   1.983
 3813SOL     OW28580   0.062   1.389   1.647
 3813SOL    HW128581   0.031   1.446   1.576
 3813SOL    HW228582   0.080   1.306   1.604
 3814SOL     OW28583   3.989   4.282   0.732
 3814SOL    HW128584   3.983   4.373   0.702
 3814SOL    HW228585   4.081   4.260   0.723
 3815SOL     OW28586   0.403   3.940   6.244
 3815SOL    HW128587   0.377   3.946   6.152
 3815SOL    HW228588   0.498   3.946   6.242
 3816SOL     OW28589   0.343   4.934   0.918
 3816SOL    HW128590   0.430   4.899   0.938
 3816SOL    HW228591   0.360   5.016   0.873
 3817SOL     OW28592   4.373   6.032   1.285
 3817SOL    HW128593   4.408   6.084   1.213
 3817SOL    HW228594   4.440   5.967   1.304
 3818SOL     OW28595   5.270   4.510   6.556
 3818SOL    HW128596   5.259   4.447   6.627
 3818SOL    HW228597   5.356   4.490   6.519
 3819SOL     OW28598   3.867   1.790   2.733
 3819SOL    HW128599   3.918   1.709   2.724
 3819SOL    HW228600   3.909   1.836   2.805
 3820SOL     OW28601   4.079   4.790   0.585
 3820SOL    HW128602   4.087   4.748   0.500
 3820SOL    HW228603   4.062   4.882   0.565
 3821SOL     OW28604   1.574   2.930   0.173
 3821SOL    HW128605   1.568   2.935   0.077
 3821SOL    HW228606   1.494   2.885   0.199
 3822SOL     OW28607   1.237   0.580   7.588
 3822SOL    HW128608   1.315   0.539   7.628
 3822SOL    HW228609   1.237   0.547   7.498
 3823SOL     OW28610   0.959   2.823   1.453
 3823SOL    HW128611   1.050   2.849   1.443
 3823SOL    HW228612   0.926   2.814   1.364
 3824SOL     OW28613   4.775   5.244   0.396
 3824SOL    HW128614   4.694   5.268   0.440
 3824SOL    HW228615   4.839   5.308   0.426
 3825SOL     OW28616   4.958   1.284   7.081
 3825SOL    HW128617   4.933   1.216   7.018
 3825SOL    HW228618   5.053   1.281   7.084
 3826SOL     OW28619   5.597   3.689   6.747
 3826SOL    HW128620   5.566   3.625   6.682
 3826SOL    HW228621   5.666   3.737   6.701
 3827SOL     OW28622   4.499   3.471   0.141
 3827SOL    HW128623   4.557   3.412   0.092
 3827SOL    HW228624   4.506   3.443   0.232
 3828SOL     OW28625   4.965   1.073   7.740
 3828SOL    HW128626   5.031   1.142   7.732
 3828SOL    HW228627   4.975   1.021   7.660
 3829SOL     OW28628   5.494   5.912   7.670
 3829SOL    HW128629   5.402   5.921   7.646
 3829SOL    HW228630   5.503   5.964   7.750
 3830SOL     OW28631   0.030   6.292   0.285
 3830SOL    HW128632   0.047   6.348   0.209
 3830SOL    HW228633  -0.013   6.350   0.348
 3831SOL     OW28634   3.838   1.387   1.098
 3831SOL    HW128635   3.804   1.469   1.134
 3831SOL    HW228636   3.767   1.324   1.109
 3832SOL     OW28637   3.425   2.632   6.541
 3832SOL    HW128638   3.476   2.683   6.478
 3832SOL    HW228639   3.448   2.541   6.521
 3833SOL     OW28640   6.130   4.834   0.437
 3833SOL    HW128641   6.185   4.756   0.430
 3833SOL    HW228642   6.165   4.881   0.513
 3834SOL     OW28643   5.898   5.886   1.170
 3834SOL    HW128644   5.983   5.853   1.201
 3834SOL    HW228645   5.905   5.883   1.075
 3835SOL     OW28646   0.533   3.349   1.794
 3835SOL    HW128647   0.481   3.412   1.843
 3835SOL    HW228648   0.540   3.386   1.706
 3836SOL     OW28649   1.519   2.089   7.553
 3836SOL    HW128650   1.601   2.050   7.523
 3836SOL    HW228651   1.483   2.026   7.615
 3837SOL     OW28652   4.112   2.195   6.755
 3837SOL    HW128653   4.074   2.167   6.672
 3837SOL    HW228654   4.206   2.191   6.742
 3838SOL     OW28655   2.913   0.557   1.183
 3838SOL    HW128656   2.936   0.588   1.095
 3838SOL    HW228657   2.852   0.485   1.168
 3839SOL     OW28658   4.169   3.304   0.813
 3839SOL    HW128659   4.146   3.294   0.906
 3839SOL    HW228660   4.250   3.255   0.803
 3840SOL     OW28661   1.740   4.588   7.554
 3840SOL    HW128662   1.737   4.594   7.649
 3840SOL    HW228663   1.739   4.679   7.524
 3841SOL     OW28664   4.109   4.651   0.328
 3841SOL    HW128665   4.065   4.675   0.246
 3841SOL    HW228666   4.144   4.563   0.312
 3842SOL     OW28667   5.667   3.138   1.713
 3842SOL    HW128668   5.589   3.098   1.751
 3842SOL    HW228669   5.639   3.227   1.690
 3843SOL     OW28670   0.742   0.224   7.562
 3843SOL    HW128671   0.696   0.275   7.629
 3843SOL    HW228672   0.678   0.158   7.534
 3844SOL     OW28673   5.054   5.015   7.671
 3844SOL    HW128674   4.999   4.986   7.598
 3844SOL    HW228675   5.140   4.979   7.652
 3845SOL     OW28676   5.564   0.888   1.531
 3845SOL    HW128677   5.520   0.803   1.526
 3845SOL    HW228678   5.627   0.886   1.458
 3846SOL     OW28679   5.877   5.050   7.027
 3846SOL    HW128680   5.782   5.057   7.037
 3846SOL    HW228681   5.898   5.109   6.956
 3847SOL     OW28682   4.660   1.200   1.132
 3847SOL    HW128683   4.613   1.136   1.184
 3847SOL    HW228684   4.681   1.155   1.050
 3848SOL     OW28685   6.295   0.129   0.546
 3848SOL    HW128686   6.372   0.074   0.555
 3848SOL    HW228687   6.306   0.172   0.461
 3849SOL     OW28688   6.339   1.935   6.996
 3849SOL    HW128689   6.250   1.950   7.029
 3849SOL    HW228690   6.326   1.884   6.916
 3850SOL     OW28691   0.357   1.773   5.735
 3850SOL    HW128692   0.262   1.782   5.724
 3850SOL    HW228693   0.391   1.862   5.727
 3851SOL     OW28694   6.006   2.240   6.525
 3851SOL    HW128695   5.926   2.194   6.549
 3851SOL    HW228696   6.046   2.186   6.457
 3852SOL     OW28697   1.931   0.122   7.325
 3852SOL    HW128698   1.872   0.082   7.389
 3852SOL    HW228699   1.913   0.216   7.332
 3853SOL     OW28700   0.463   0.116   6.959
 3853SOL    HW128701   0.534   0.148   6.903
 3853SOL    HW228702   0.493   0.030   6.988
 3854SOL     OW28703   0.922   1.682   1.011
 3854SOL    HW128704   0.954   1.759   1.059
 3854SOL    HW228705   0.930   1.610   1.074
 3855SOL     OW28706   4.711   4.290   0.447
 3855SOL    HW128707   4.751   4.269   0.532
 3855SOL    HW228708   4.769   4.356   0.410
 3856SOL     OW28709   0.984   4.031   1.088
 3856SOL    HW128710   1.010   3.966   1.154
 3856SOL    HW228711   1.002   4.115   1.129
 3857SOL     OW28712   3.619   2.661   6.293
 3857SOL    HW128713   3.655   2.581   6.255
 3857SOL    HW228714   3.539   2.678   6.243
 3858SOL     OW28715   6.344   4.193   0.595
 3858SOL    HW128716   6.325   4.233   0.680
 3858SOL    HW228717   6.408   4.124   0.615
 3859SOL     OW28718   4.302   6.402   7.654
 3859SOL    HW128719   4.275   6.382   7.744
 3859SOL    HW228720   4.259   6.335   7.601
 3860SOL     OW28721   1.389   5.965   7.324
 3860SOL    HW128722   1.395   5.875   7.357
 3860SOL    HW228723   1.338   6.011   7.390
 3861SOL     OW28724   5.904   0.861   6.708
 3861SOL    HW128725   5.839   0.827   6.646
 3861SOL    HW228726   5.931   0.785   6.759
 3862SOL     OW28727   4.593   6.145   6.438
 3862SOL    HW128728   4.654   6.218   6.449
 3862SOL    HW228729   4.529   6.177   6.375
 3863SOL     OW28730   3.139   5.672   7.730
 3863SOL    HW128731   3.162   5.653   7.639
 3863SOL    HW228732   3.208   5.630   7.781
 3864SOL     OW28733   3.435   5.479   1.988
 3864SOL    HW128734   3.397   5.554   2.033
 3864SOL    HW228735   3.479   5.429   2.057
 3865SOL     OW28736   1.196   4.407   7.540
 3865SOL    HW128737   1.193   4.500   7.564
 3865SOL    HW228738   1.130   4.366   7.594
 3866SOL     OW28739   3.917   2.378   7.126
 3866SOL    HW128740   3.959   2.326   7.194
 3866SOL    HW228741   3.829   2.341   7.118
 3867SOL     OW28742   2.935   0.836   7.559
 3867SOL    HW128743   2.863   0.777   7.538
 3867SOL    HW228744   2.993   0.784   7.614
 3868SOL     OW28745   5.895   6.427   7.299
 3868SOL    HW128746   5.848   6.350   7.332
 3868SOL    HW228747   5.888   6.421   7.204
 3869SOL     OW28748   0.815   5.192   1.229
 3869SOL    HW128749   0.798   5.170   1.321
 3869SOL    HW228750   0.738   5.158   1.183
 3870SOL     OW28751   5.428   0.735   0.124
 3870SOL    HW128752   5.442   0.733   0.029
 3870SOL    HW228753   5.429   0.828   0.146
 3871SOL     OW28754   2.981   2.793   5.588
 3871SOL    HW128755   2.904   2.800   5.643
 3871SOL    HW228756   3.049   2.842   5.635
 3872SOL     OW28757   0.624   0.108   6.097
 3872SOL    HW128758   0.573   0.039   6.054
 3872SOL    HW228759   0.646   0.169   6.027
 3873SOL     OW28760   2.722   6.147   1.610
 3873SOL    HW128761   2.702   6.241   1.614
 3873SOL    HW228762   2.673   6.109   1.683
 3874SOL     OW28763   0.401   4.522   1.934
 3874SOL    HW128764   0.413   4.474   2.015
 3874SOL    HW228765   0.487   4.558   1.914
 3875SOL     OW28766   4.762   6.181   6.995
 3875SOL    HW128767   4.677   6.184   6.952
 3875SOL    HW228768   4.785   6.273   7.010
 3876SOL     OW28769   2.274   0.997   0.747
 3876SOL    HW128770   2.364   0.991   0.714
 3876SOL    HW228771   2.261   1.089   0.766
 3877SOL     OW28772   5.553   4.435   1.168
 3877SOL    HW128773   5.540   4.375   1.094
 3877SOL    HW228774   5.574   4.378   1.242
 3878SOL     OW28775   1.981   1.450   6.219
 3878SOL    HW128776   1.921   1.376   6.213
 3878SOL    HW228777   1.949   1.512   6.154
 3879SOL     OW28778   1.787   2.828   1.577
 3879SOL    HW128779   1.829   2.744   1.598
 3879SOL    HW228780   1.694   2.812   1.594
 3880SOL     OW28781   1.868   6.311   6.755
 3880SOL    HW128782   1.826   6.389   6.718
 3880SOL    HW228783   1.795   6.259   6.788
 3881SOL     OW28784   2.425   2.334   2.705
 3881SOL    HW128785   2.451   2.282   2.629
 3881SOL    HW228786   2.338   2.368   2.681
 3882SOL     OW28787   4.288   1.041   2.779
 3882SOL    HW128788   4.335   1.092   2.845
 3882SOL    HW228789   4.197   1.041   2.808
 3883SOL     OW28790   6.100   2.241   0.021
 3883SOL    HW128791   6.165   2.311   0.025
 3883SOL    HW228792   6.133   2.175   0.082
 3884SOL     OW28793   2.363   5.855   6.152
 3884SOL    HW128794   2.271   5.839   6.132
 3884SOL    HW228795   2.404   5.769   6.147
 3885SOL     OW28796   6.289   4.370   0.229
 3885SOL    HW128797   6.323   4.452   0.263
 3885SOL    HW228798   6.227   4.340   0.296
 3886SOL     OW28799   0.841   2.977   0.826
 3886SOL    HW128800   0.827   2.929   0.744
 3886SOL    HW228801   0.781   2.936   0.888
 3887SOL     OW28802   6.139   2.774   1.137
 3887SOL    HW128803   6.074   2.758   1.069
 3887SOL    HW228804   6.222   2.747   1.098
 3888SOL     OW28805   0.976   0.155   1.643
 3888SOL    HW128806   0.918   0.203   1.583
 3888SOL    HW228807   0.960   0.063   1.623
 3889SOL     OW28808   5.102   2.576   7.247
 3889SOL    HW128809   5.181   2.534   7.214
 3889SOL    HW228810   5.092   2.541   7.336
 3890SOL     OW28811   2.084   2.760   0.917
 3890SOL    HW128812   2.034   2.678   0.919
 3890SOL    HW228813   2.108   2.775   1.009
 3891SOL     OW28814   0.118   4.004   1.900
 3891SOL    HW128815   0.027   4.031   1.889
 3891SOL    HW228816   0.119   3.950   1.978
 3892SOL     OW28817   6.198   6.245   1.074
 3892SOL    HW128818   6.224   6.155   1.093
 3892SOL    HW228819   6.244   6.297   1.140
 3893SOL     OW28820   4.984   2.207   0.238
 3893SOL    HW128821   4.913   2.149   0.265
 3893SOL    HW228822   5.039   2.216   0.316
 3894SOL     OW28823   4.868   0.468   5.864
 3894SOL    HW128824   4.906   0.501   5.946
 3894SOL    HW228825   4.865   0.373   5.876
 3895SOL     OW28826   1.976   3.010   1.610
 3895SOL    HW128827   1.909   2.943   1.599
 3895SOL    HW228828   2.043   2.968   1.665
 3896SOL     OW28829   3.574   3.742   2.632
 3896SOL    HW128830   3.561   3.681   2.559
 3896SOL    HW228831   3.638   3.805   2.598
 3897SOL     OW28832   3.496   5.148   0.256
 3897SOL    HW128833   3.521   5.070   0.207
 3897SOL    HW228834   3.562   5.213   0.233
 3898SOL     OW28835   6.453   1.235   6.755
 3898SOL    HW128836   6.418   1.256   6.669
 3898SOL    HW228837   6.391   1.274   6.816
 3899SOL     OW28838   2.211   5.657   1.088
 3899SOL    HW128839   2.300   5.650   1.121
 3899SOL    HW228840   2.176   5.568   1.096
 3900SOL     OW28841   0.291   6.289   1.534
 3900SOL    HW128842   0.280   6.203   1.493
 3900SOL    HW228843   0.286   6.272   1.628
 3901SOL     OW28844   6.300   4.877   7.179
 3901SOL    HW128845   6.336   4.790   7.169
 3901SOL    HW228846   6.222   4.864   7.235
 3902SOL     OW28847   6.053   2.251   7.314
 3902SOL    HW128848   6.029   2.302   7.392
 3902SOL    HW228849   6.082   2.167   7.349
 3903SOL     OW28850   2.719   5.063   1.617
 3903SOL    HW128851   2.670   5.049   1.698
 3903SOL    HW228852   2.777   4.987   1.611
 3904SOL     OW28853   3.401   1.838   7.208
 3904SOL    HW128854   3.453   1.843   7.128
 3904SOL    HW228855   3.367   1.749   7.210
 3905SOL     OW28856   0.366   5.498   6.730
 3905SOL    HW128857   0.311   5.539   6.797
 3905SOL    HW228858   0.445   5.472   6.776
 3906SOL     OW28859   0.435   5.654   1.250
 3906SOL    HW128860   0.518   5.607   1.241
 3906SOL    HW228861   0.372   5.586   1.274
 3907SOL     OW28862   3.689   4.212   0.303
 3907SOL    HW128863   3.601   4.207   0.266
 3907SOL    HW228864   3.696   4.301   0.336
 3908SOL     OW28865   2.948   6.417   7.510
 3908SOL    HW128866   3.023   6.419   7.569
 3908SOL    HW228867   2.900   6.497   7.530
 3909SOL     OW28868   0.925   1.280   7.722
 3909SOL    HW128869   0.931   1.364   7.677
 3909SOL    HW228870   0.854   1.234   7.677
 3910SOL     OW28871   5.449   1.475   7.607
 3910SOL    HW128872   5.425   1.550   7.553
 3910SOL    HW228873   5.533   1.445   7.571
 3911SOL     OW28874   0.876   1.531   0.479
 3911SOL    HW128875   0.875   1.468   0.407
 3911SOL    HW228876   0.836   1.485   0.553
 3912SOL     OW28877   5.743   1.118   7.189
 3912SOL    HW128878   5.698   1.140   7.271
 3912SOL    HW228879   5.789   1.198   7.165
 3913SOL     OW28880   3.361   0.674   6.784
 3913SOL    HW128881   3.341   0.737   6.715
 3913SOL    HW228882   3.454   0.654   6.773
 3914SOL     OW28883   4.014   1.600   6.467
 3914SOL    HW128884   3.921   1.584   6.482
 3914SOL    HW228885   4.033   1.680   6.516
 3915SOL     OW28886   3.775   0.336   6.799
 3915SOL    HW128887   3.862   0.350   6.761
 3915SOL    HW228888   3.792   0.294   6.883
 3916SOL     OW28889   3.774   2.148   0.823
 3916SOL    HW128890   3.715   2.171   0.895
 3916SOL    HW228891   3.720   2.099   0.762
 3917SOL     OW28892   0.325   1.775   2.005
 3917SOL    HW128893   0.416   1.800   2.021
 3917SOL    HW228894   0.330   1.712   1.933
 3918SOL     OW28895   4.827   5.352   1.802
 3918SOL    HW128896   4.816   5.259   1.823
 3918SOL    HW228897   4.920   5.368   1.816
 3919SOL     OW28898   6.150   0.203   7.019
 3919SOL    HW128899   6.197   0.247   6.949
 3919SOL    HW228900   6.102   0.273   7.064
 3920SOL     OW28901   3.509   4.262   0.828
 3920SOL    HW128902   3.588   4.213   0.806
 3920SOL    HW228903   3.539   4.333   0.885
 3921SOL     OW28904   5.924   2.901   1.283
 3921SOL    HW128905   5.997   2.844   1.259
 3921SOL    HW228906   5.905   2.879   1.374
 3922SOL     OW28907   6.069   5.525   6.190
 3922SOL    HW128908   6.016   5.572   6.125
 3922SOL    HW228909   6.113   5.594   6.239
 3923SOL     OW28910   0.549   2.876   6.325
 3923SOL    HW128911   0.540   2.837   6.412
 3923SOL    HW228912   0.633   2.922   6.328
 3924SOL     OW28913   0.875   5.679   6.345
 3924SOL    HW128914   0.809   5.725   6.396
 3924SOL    HW228915   0.826   5.633   6.277
 3925SOL     OW28916   0.460   2.369   1.746
 3925SOL    HW128917   0.529   2.430   1.719
 3925SOL    HW228918   0.389   2.425   1.777
 3926SOL     OW28919   2.481   5.760   2.297
 3926SOL    HW128920   2.559   5.709   2.275
 3926SOL    HW228921   2.412   5.694   2.309
 3927SOL     OW28922   6.171   4.403   2.140
 3927SOL    HW128923   6.175   4.443   2.227
 3927SOL    HW228924   6.247   4.345   2.137
 3928SOL     OW28925   2.661   3.543   1.635
 3928SOL    HW128926   2.685   3.547   1.542
 3928SOL    HW228927   2.734   3.585   1.680
 3929SOL     OW28928   3.485   2.751   7.079
 3929SOL    HW128929   3.443   2.811   7.140
 3929SOL    HW228930   3.490   2.668   7.126
 3930SOL     OW28931   2.975   1.440   6.528
 3930SOL    HW128932   2.907   1.397   6.476
 3930SOL    HW228933   2.958   1.533   6.519
 3931SOL     OW28934   0.693   1.185   6.608
 3931SOL    HW128935   0.752   1.252   6.574
 3931SOL    HW228936   0.739   1.151   6.685
 3932SOL     OW28937   0.821   2.474   2.329
 3932SOL    HW128938   0.851   2.477   2.420
 3932SOL    HW228939   0.742   2.420   2.332
 3933SOL     OW28940   3.013   3.066   7.060
 3933SOL    HW128941   2.940   3.023   7.016
 3933SOL    HW228942   3.073   2.995   7.082
 3934SOL     OW28943   1.817   1.991   6.891
 3934SOL    HW128944   1.765   1.912   6.876
 3934SOL    HW228945   1.756   2.063   6.877
 3935SOL     OW28946   1.352   4.048   6.739
 3935SOL    HW128947   1.287   4.055   6.669
 3935SOL    HW228948   1.374   3.955   6.742
 3936SOL     OW28949   2.523   0.592   0.592
 3936SOL    HW128950   2.488   0.672   0.552
 3936SOL    HW228951   2.517   0.608   0.686
 3937SOL     OW28952   3.302   5.678   6.804
 3937SOL    HW128953   3.280   5.602   6.751
 3937SOL    HW228954   3.239   5.676   6.876
 3938SOL     OW28955   1.699   1.902   1.937
 3938SOL    HW128956   1.768   1.908   2.003
 3938SOL    HW228957   1.701   1.811   1.908
 3939SOL     OW28958   1.391   5.427   7.213
 3939SOL    HW128959   1.379   5.344   7.167
 3939SOL    HW228960   1.434   5.403   7.295
 3940SOL     OW28961   5.359   2.104   6.386
 3940SOL    HW128962   5.393   2.029   6.435
 3940SOL    HW228963   5.403   2.099   6.301
 3941SOL     OW28964   2.403   4.676   6.753
 3941SOL    HW128965   2.428   4.733   6.826
 3941SOL    HW228966   2.316   4.643   6.777
 3942SOL     OW28967   1.520   2.912   6.510
 3942SOL    HW128968   1.585   2.968   6.552
 3942SOL    HW228969   1.569   2.862   6.445
 3943SOL     OW28970   0.414   2.507   7.171
 3943SOL    HW128971   0.441   2.434   7.226
 3943SOL    HW228972   0.351   2.555   7.224
 3944SOL     OW28973   0.987   2.023   7.164
 3944SOL    HW128974   0.983   1.954   7.230
 3944SOL    HW228975   1.038   1.985   7.093
 3945SOL     OW28976   1.180   2.332   5.461
 3945SOL    HW128977   1.233   2.408   5.435
 3945SOL    HW228978   1.228   2.294   5.535
 3946SOL     OW28979   0.974   6.028   0.141
 3946SOL    HW128980   0.894   6.047   0.191
 3946SOL    HW228981   0.947   5.966   0.074
 3947SOL     OW28982   3.711   0.162   7.045
 3947SOL    HW128983   3.687   0.072   7.023
 3947SOL    HW228984   3.804   0.157   7.068
 3948SOL     OW28985   6.425   2.571   2.058
 3948SOL    HW128986   6.480   2.534   2.127
 3948SOL    HW228987   6.466   2.655   2.037
 3949SOL     OW28988   4.795   2.049   1.925
 3949SOL    HW128989   4.839   2.088   1.849
 3949SOL    HW228990   4.862   1.996   1.968
 3950SOL     OW28991   0.975   3.194   1.142
 3950SOL    HW128992   1.052   3.218   1.193
 3950SOL    HW228993   0.905   3.186   1.206
 3951SOL     OW28994   6.414   3.171   1.188
 3951SOL    HW128995   6.479   3.239   1.208
 3951SOL    HW228996   6.364   3.207   1.115
 3952SOL     OW28997   1.742   0.370   0.420
 3952SOL    HW128998   1.682   0.363   0.494
 3952SOL    HW228999   1.826   0.341   0.454
 3953SOL     OW29000   3.768   0.604   6.486
 3953SOL    HW129001   3.773   0.510   6.504
 3953SOL    HW229002   3.847   0.623   6.434
 3954SOL     OW29003   1.122   4.874   0.803
 3954SOL    HW129004   1.199   4.833   0.764
 3954SOL    HW229005   1.132   4.967   0.784
 3955SOL     OW29006   1.690   1.067   5.516
 3955SOL    HW129007   1.598   1.056   5.543
 3955SOL    HW229008   1.724   0.978   5.509
 3956SOL     OW29009   1.553   2.373   6.235
 3956SOL    HW129010   1.483   2.309   6.246
 3956SOL    HW229011   1.629   2.332   6.276
 3957SOL     OW29012   3.157   3.495   2.661
 3957SOL    HW129013   3.170   3.400   2.663
 3957SOL    HW229014   3.103   3.510   2.584
 3958SOL     OW29015   1.409   0.764   6.479
 3958SOL    HW129016   1.377   0.792   6.564
 3958SOL    HW229017   1.331   0.765   6.423
 3959SOL     OW29018   1.819   0.322   6.421
 3959SOL    HW129019   1.873   0.261   6.371
 3959SOL    HW229020   1.876   0.354   6.490
 3960SOL     OW29021   5.116   4.070   0.722
 3960SOL    HW129022   5.070   4.132   0.779
 3960SOL    HW229023   5.122   4.116   0.638
 3961SOL     OW29024   4.896   2.753   7.214
 3961SOL    HW129025   4.835   2.724   7.146
 3961SOL    HW229026   4.971   2.694   7.206
 3962SOL     OW29027   3.284   5.360   7.465
 3962SOL    HW129028   3.351   5.357   7.397
 3962SOL    HW229029   3.290   5.275   7.508
 3963SOL     OW29030   2.310   1.762   1.120
 3963SOL    HW129031   2.297   1.836   1.060
 3963SOL    HW229032   2.237   1.703   1.100
 3964SOL     OW29033   5.599   0.180   0.033
 3964SOL    HW129034   5.679   0.232   0.035
 3964SOL    HW229035   5.594   0.146  -0.056
 3965SOL     OW29036   6.129   1.168   0.029
 3965SOL    HW129037   6.076   1.092   0.053
 3965SOL    HW229038   6.077   1.243   0.057
 3966SOL     OW29039   5.823   2.711   1.617
 3966SOL    HW129040   5.758   2.642   1.613
 3966SOL    HW229041   5.784   2.784   1.568
 3967SOL     OW29042   3.030   1.861   1.056
 3967SOL    HW129043   2.950   1.886   1.009
 3967SOL    HW229044   3.000   1.834   1.143
 3968SOL     OW29045   0.817   5.707   6.912
 3968SOL    HW129046   0.789   5.620   6.940
 3968SOL    HW229047   0.825   5.701   6.817
 3969SOL     OW29048   0.536   2.767   7.330
 3969SOL    HW129049   0.482   2.814   7.267
 3969SOL    HW229050   0.505   2.796   7.415
 3970SOL     OW29051   2.693   5.623   6.365
 3970SOL    HW129052   2.728   5.662   6.285
 3970SOL    HW229053   2.758   5.558   6.391
 3971SOL     OW29054   5.850   3.022   6.773
 3971SOL    HW129055   5.831   3.035   6.680
 3971SOL    HW229056   5.833   3.108   6.813
 3972SOL     OW29057   6.035   4.201   1.166
 3972SOL    HW129058   6.017   4.115   1.205
 3972SOL    HW229059   6.120   4.191   1.125
 3973SOL     OW29060   0.134   4.375   2.028
 3973SOL    HW129061   0.048   4.353   2.065
 3973SOL    HW229062   0.173   4.435   2.092
 3974SOL     OW29063   5.221   5.389   0.592
 3974SOL    HW129064   5.170   5.339   0.528
 3974SOL    HW229065   5.275   5.448   0.539
 3975SOL     OW29066   5.660   3.244   0.571
 3975SOL    HW129067   5.721   3.262   0.499
 3975SOL    HW229068   5.575   3.232   0.528
 3976SOL     OW29069   0.103   1.764   2.173
 3976SOL    HW129070   0.182   1.774   2.120
 3976SOL    HW229071   0.113   1.677   2.213
 3977SOL     OW29072   5.458   1.702   6.348
 3977SOL    HW129073   5.369   1.674   6.328
 3977SOL    HW229074   5.486   1.751   6.271
 3978SOL     OW29075   0.449   4.200   7.137
 3978SOL    HW129076   0.464   4.106   7.149
 3978SOL    HW229077   0.494   4.242   7.210
 3979SOL     OW29078   4.559   0.465   0.963
 3979SOL    HW129079   4.491   0.415   0.917
 3979SOL    HW229080   4.597   0.402   1.024
 3980SOL     OW29081   5.380   3.065   7.037
 3980SOL    HW129082   5.461   3.014   7.043
 3980SOL    HW229083   5.310   3.001   7.048
 3981SOL     OW29084   3.156   3.476   6.183
 3981SOL    HW129085   3.186   3.553   6.231
 3981SOL    HW229086   3.232   3.418   6.180
 3982SOL     OW29087   4.278   3.960   0.135
 3982SOL    HW129088   4.348   4.023   0.150
 3982SOL    HW229089   4.318   3.891   0.082
 3983SOL     OW29090   1.780   0.789   5.549
 3983SOL    HW129091   1.860   0.752   5.586
 3983SOL    HW229092   1.711   0.727   5.573
 3984SOL     OW29093   2.580   2.244   0.102
 3984SOL    HW129094   2.636   2.176   0.066
 3984SOL    HW229095   2.510   2.254   0.038
 3985SOL     OW29096   6.021   1.117   0.794
 3985SOL    HW129097   6.004   1.095   0.702
 3985SOL    HW229098   5.955   1.183   0.815
 3986SOL     OW29099   6.398   3.474   0.456
 3986SOL    HW129100   6.343   3.486   0.379
 3986SOL    HW229101   6.401   3.379   0.469
 3987SOL     OW29102   0.205   4.546   1.157
 3987SOL    HW129103   0.201   4.541   1.061
 3987SOL    HW229104   0.236   4.635   1.175
 3988SOL     OW29105   5.826   1.736   5.949
 3988SOL    HW129106   5.776   1.761   5.872
 3988SOL    HW229107   5.874   1.815   5.974
 3989SOL     OW29108   4.670   1.463   1.064
 3989SOL    HW129109   4.653   1.377   1.103
 3989SOL    HW229110   4.698   1.444   0.975
 3990SOL     OW29111   2.202   0.589   1.441
 3990SOL    HW129112   2.238   0.631   1.362
 3990SOL    HW229113   2.255   0.623   1.513
 3991SOL     OW29114   3.673   6.308   1.815
 3991SOL    HW129115   3.699   6.279   1.902
 3991SOL    HW229116   3.582   6.277   1.806
 3992SOL     OW29117   1.652   3.730   7.491
 3992SOL    HW129118   1.571   3.720   7.541
 3992SOL    HW229119   1.663   3.824   7.481
 3993SOL     OW29120   0.804   1.084   0.592
 3993SOL    HW129121   0.863   1.010   0.595
 3993SOL    HW229122   0.743   1.063   0.521
 3994SOL     OW29123   1.323   4.322   1.320
 3994SOL    HW129124   1.230   4.344   1.319
 3994SOL    HW229125   1.327   4.232   1.350
 3995SOL     OW29126   4.571   4.076   6.766
 3995SOL    HW129127   4.588   4.033   6.682
 3995SOL    HW229128   4.644   4.138   6.776
 3996SOL     OW29129   2.495   5.298   1.883
 3996SOL    HW129130   2.445   5.251   1.815
 3996SOL    HW229131   2.579   5.317   1.842
 3997SOL     OW29132   4.185   5.393   6.421
 3997SOL    HW129133   4.114   5.386   6.357
 3997SOL    HW229134   4.153   5.456   6.485
 3998SOL     OW29135   6.430   2.626   0.050
 3998SOL    HW129136   6.479   2.593   0.126
 3998SOL    HW229137   6.349   2.661   0.087
 3999SOL     OW29138   2.556   0.593   2.146
 3999SOL    HW129139   2.587   0.503   2.147
 3999SOL    HW229140   2.532   0.611   2.237
 4000SOL     OW29141   2.011   5.445   6.659
 4000SOL    HW129142   1.927   5.492   6.660
 4000SOL    HW229143   2.038   5.446   6.567
 4001SOL     OW29144   1.440   0.935   0.041
 4001SOL    HW129145   1.374   0.875   0.077
 4001SOL    HW229146   1.421   0.939  -0.053
 4002SOL     OW29147   3.920   1.434   0.047
 4002SOL    HW129148   3.859   1.372   0.007
 4002SOL    HW229149   3.970   1.469  -0.027
 4003SOL     OW29150   5.793   4.262   0.846
 4003SOL    HW129151   5.835   4.340   0.884
 4003SOL    HW229152   5.704   4.263   0.882
 4004SOL     OW29153   6.402   2.238   7.522
 4004SOL    HW129154   6.354   2.156   7.531
 4004SOL    HW229155   6.413   2.250   7.428
 4005SOL     OW29156   0.471   5.575   7.427
 4005SOL    HW129157   0.428   5.651   7.387
 4005SOL    HW229158   0.398   5.520   7.456
 4006SOL     OW29159   1.213   0.329   2.468
 4006SOL    HW129160   1.129   0.288   2.450
 4006SOL    HW229161   1.192   0.422   2.480
 4007SOL     OW29162   0.348   4.295   7.631
 4007SOL    HW129163   0.370   4.365   7.569
 4007SOL    HW229164   0.402   4.221   7.603
 4008SOL     OW29165   4.856   3.342   2.356
 4008SOL    HW129166   4.802   3.299   2.422
 4008SOL    HW229167   4.793   3.377   2.293
 4009SOL     OW29168   0.236   3.956   6.884
 4009SOL    HW129169   0.166   3.904   6.845
 4009SOL    HW229170   0.302   3.963   6.814
 4010SOL     OW29171   2.013   1.220   1.693
 4010SOL    HW129172   2.105   1.245   1.696
 4010SOL    HW229173   1.986   1.216   1.785
 4011SOL     OW29174   4.038   2.104   0.930
 4011SOL    HW129175   3.951   2.121   0.894
 4011SOL    HW229176   4.061   2.185   0.977
 4012SOL     OW29177   0.518   1.994   6.306
 4012SOL    HW129178   0.581   2.033   6.367
 4012SOL    HW229179   0.554   2.013   6.219
 4013SOL     OW29180   3.670   5.015   1.456
 4013SOL    HW129181   3.715   5.077   1.398
 4013SOL    HW229182   3.663   4.935   1.404
 4014SOL     OW29183   1.542   1.965   1.425
 4014SOL    HW129184   1.502   1.895   1.374
 4014SOL    HW229185   1.615   1.923   1.471
 4015SOL     OW29186   1.671   1.100   7.547
 4015SOL    HW129187   1.631   1.093   7.461
 4015SOL    HW229188   1.762   1.126   7.529
 4016SOL     OW29189   4.838   5.613   0.345
 4016SOL    HW129190   4.911   5.579   0.294
 4016SOL    HW229191   4.825   5.549   0.414
 4017SOL     OW29192   4.295   6.109   7.028
 4017SOL    HW129193   4.222   6.117   6.965
 4017SOL    HW229194   4.274   6.031   7.079
 4018SOL     OW29195   4.195   3.117   1.237
 4018SOL    HW129196   4.151   3.120   1.322
 4018SOL    HW229197   4.208   3.209   1.214
 4019SOL     OW29198   1.283   2.202   1.257
 4019SOL    HW129199   1.255   2.141   1.188
 4019SOL    HW229200   1.244   2.167   1.337
 4020SOL     OW29201   4.563   4.248   0.842
 4020SOL    HW129202   4.554   4.169   0.788
 4020SOL    HW229203   4.515   4.315   0.795
 4021SOL     OW29204   2.022   5.942   7.308
 4021SOL    HW129205   1.942   5.993   7.293
 4021SOL    HW229206   2.090   5.991   7.262
 4022SOL     OW29207   2.906   1.558   0.389
 4022SOL    HW129208   2.992   1.536   0.425
 4022SOL    HW229209   2.866   1.615   0.456
 4023SOL     OW29210   1.910   4.552   0.363
 4023SOL    HW129211   1.876   4.638   0.339
 4023SOL    HW229212   1.871   4.534   0.448
 4024SOL     OW29213   0.137   5.187   6.834
 4024SOL    HW129214   0.224   5.175   6.796
 4024SOL    HW229215   0.154   5.210   6.925
 4025SOL     OW29216   3.384   6.339   1.861
 4025SOL    HW129217   3.424   6.286   1.931
 4025SOL    HW229218   3.330   6.403   1.908
 4026SOL     OW29219   4.986   4.435   7.365
 4026SOL    HW129220   5.082   4.434   7.361
 4026SOL    HW229221   4.958   4.399   7.281
 4027SOL     OW29222   5.377   0.105   1.335
 4027SOL    HW129223   5.429   0.045   1.281
 4027SOL    HW229224   5.377   0.187   1.286
 4028SOL     OW29225   3.110   1.493   1.558
 4028SOL    HW129226   3.041   1.489   1.624
 4028SOL    HW229227   3.063   1.503   1.475
 4029SOL     OW29228   3.395   3.458   6.400
 4029SOL    HW129229   3.387   3.411   6.318
 4029SOL    HW229230   3.488   3.453   6.423
 4030SOL     OW29231   3.752   2.713   6.699
 4030SOL    HW129232   3.708   2.672   6.774
 4030SOL    HW229233   3.807   2.645   6.662
 4031SOL     OW29234   5.519   3.055   7.500
 4031SOL    HW129235   5.530   3.061   7.405
 4031SOL    HW229236   5.603   3.083   7.535
 4032SOL     OW29237   2.919   1.898   1.994
 4032SOL    HW129238   2.987   1.868   1.933
 4032SOL    HW229239   2.912   1.828   2.059
 4033SOL     OW29240   5.938   6.216   1.314
 4033SOL    HW129241   5.902   6.237   1.400
 4033SOL    HW229242   5.984   6.133   1.326
 4034SOL     OW29243   3.567   0.098   5.633
 4034SOL    HW129244   3.634   0.165   5.626
 4034SOL    HW229245   3.615   0.017   5.647
 4035SOL     OW29246   1.542   5.629   0.551
 4035SOL    HW129247   1.507   5.714   0.579
 4035SOL    HW229248   1.541   5.633   0.455
 4036SOL     OW29249   2.793   4.057   0.915
 4036SOL    HW129250   2.834   3.971   0.923
 4036SOL    HW229251   2.857   4.118   0.950
 4037SOL     OW29252   2.781   0.400   5.383
 4037SOL    HW129253   2.826   0.346   5.448
 4037SOL    HW229254   2.705   0.435   5.430
 4038SOL     OW29255   3.148   5.386   0.321
 4038SOL    HW129256   3.059   5.404   0.291
 4038SOL    HW229257   3.138   5.361   0.413
 4039SOL     OW29258   2.391   1.820   7.103
 4039SOL    HW129259   2.309   1.780   7.075
 4039SOL    HW229260   2.364   1.888   7.165
 4040SOL     OW29261   4.175   5.445   1.658
 4040SOL    HW129262   4.124   5.404   1.727
 4040SOL    HW229263   4.201   5.529   1.693
 4041SOL     OW29264   4.610   3.042   0.185
 4041SOL    HW129265   4.694   2.998   0.188
 4041SOL    HW229266   4.594   3.058   0.091
 4042SOL     OW29267   4.882   1.217   2.511
 4042SOL    HW129268   4.856   1.292   2.458
 4042SOL    HW229269   4.965   1.243   2.551
 4043SOL     OW29270   0.705   2.230   7.015
 4043SOL    HW129271   0.778   2.289   7.035
 4043SOL    HW229272   0.689   2.244   6.921
 4044SOL     OW29273   1.093   6.042   6.981
 4044SOL    HW129274   1.113   6.058   7.074
 4044SOL    HW229275   1.107   5.948   6.969
 4045SOL     OW29276   1.306   4.428   0.156
 4045SOL    HW129277   1.360   4.503   0.131
 4045SOL    HW229278   1.364   4.370   0.204
 4046SOL     OW29279   1.466   4.843   7.601
 4046SOL    HW129280   1.481   4.921   7.655
 4046SOL    HW229281   1.442   4.877   7.515
 4047SOL     OW29282   4.139   2.257   6.452
 4047SOL    HW129283   4.151   2.235   6.359
 4047SOL    HW229284   4.054   2.220   6.475
 4048SOL     OW29285   0.433   6.048   7.444
 4048SOL    HW129286   0.503   6.113   7.452
 4048SOL    HW229287   0.395   6.043   7.531
 4049SOL     OW29288   2.710   5.877   1.215
 4049SOL    HW129289   2.647   5.947   1.228
 4049SOL    HW229290   2.703   5.855   1.122
 4050SOL     OW29291   5.627   1.391   0.703
 4050SOL    HW129292   5.576   1.450   0.758
 4050SOL    HW229293   5.576   1.310   0.701
 4051SOL     OW29294   1.742   4.462   0.554
 4051SOL    HW129295   1.740   4.369   0.533
 4051SOL    HW229296   1.762   4.465   0.648
 4052SOL     OW29297   3.143   4.433   7.487
 4052SOL    HW129298   3.206   4.401   7.552
 4052SOL    HW229299   3.132   4.526   7.509
 4053SOL     OW29300   5.758   4.283   6.027
 4053SOL    HW129301   5.746   4.375   6.004
 4053SOL    HW229302   5.754   4.237   5.943
 4054SOL     OW29303   6.167   5.146   1.806
 4054SOL    HW129304   6.222   5.098   1.744
 4054SOL    HW229305   6.094   5.087   1.824
 4055SOL     OW29306   3.079   3.887   7.302
 4055SOL    HW129307   3.157   3.872   7.248
 4055SOL    HW229308   3.083   3.819   7.369
 4056SOL     OW29309   5.863   4.303   7.048
 4056SOL    HW129310   5.865   4.338   7.137
 4056SOL    HW229311   5.866   4.381   6.992
 4057SOL     OW29312   0.116   4.185   0.782
 4057SOL    HW129313   0.140   4.105   0.829
 4057SOL    HW229314   0.187   4.198   0.719
 4058SOL     OW29315   1.792   4.521   0.068
 4058SOL    HW129316   1.798   4.537   0.162
 4058SOL    HW229317   1.790   4.426   0.059
 4059SOL     OW29318   5.052   3.213   5.276
 4059SOL    HW129319   5.075   3.120   5.265
 4059SOL    HW229320   5.004   3.216   5.359
 4060SOL     OW29321   3.643   0.920   1.493
 4060SOL    HW129322   3.738   0.929   1.485
 4060SOL    HW229323   3.611   0.914   1.403
 4061SOL     OW29324   2.915   3.189   6.581
 4061SOL    HW129325   2.941   3.225   6.496
 4061SOL    HW229326   2.956   3.248   6.645
 4062SOL     OW29327   2.678   6.408   0.025
 4062SOL    HW129328   2.701   6.478   0.087
 4062SOL    HW229329   2.753   6.348   0.027
 4063SOL     OW29330   4.017   5.691   6.369
 4063SOL    HW129331   4.099   5.737   6.386
 4063SOL    HW229332   4.018   5.674   6.275
 4064SOL     OW29333   3.144   1.799   1.904
 4064SOL    HW129334   3.222   1.853   1.915
 4064SOL    HW229335   3.170   1.712   1.932
 4065SOL     OW29336   2.645   5.320   6.469
 4065SOL    HW129337   2.576   5.266   6.508
 4065SOL    HW229338   2.724   5.265   6.475
 4066SOL     OW29339   0.334   2.633   1.125
 4066SOL    HW129340   0.269   2.689   1.169
 4066SOL    HW229341   0.395   2.695   1.085
 4067SOL     OW29342   1.557   1.491   1.188
 4067SOL    HW129343   1.648   1.506   1.214
 4067SOL    HW229344   1.526   1.423   1.248
 4068SOL     OW29345   1.724   1.628   5.305
 4068SOL    HW129346   1.770   1.579   5.237
 4068SOL    HW229347   1.635   1.636   5.272
 4069SOL     OW29348   2.304   3.364   2.723
 4069SOL    HW129349   2.350   3.403   2.649
 4069SOL    HW229350   2.215   3.350   2.692
 4070SOL     OW29351   2.806   6.418   1.390
 4070SOL    HW129352   2.761   6.434   1.473
 4070SOL    HW229353   2.859   6.339   1.406
 4071SOL     OW29354   0.530   6.368   1.950
 4071SOL    HW129355   0.442   6.362   1.913
 4071SOL    HW229356   0.537   6.291   2.007
 4072SOL     OW29357   1.832   3.701   0.558
 4072SOL    HW129358   1.926   3.718   0.545
 4072SOL    HW229359   1.814   3.625   0.502
 4073SOL     OW29360   4.349   1.992   7.416
 4073SOL    HW129361   4.393   2.064   7.461
 4073SOL    HW229362   4.276   1.969   7.473
 4074SOL     OW29363   3.138   2.317   1.705
 4074SOL    HW129364   3.070   2.258   1.675
 4074SOL    HW229365   3.168   2.279   1.788
 4075SOL     OW29366   5.328   4.410   0.244
 4075SOL    HW129367   5.276   4.339   0.281
 4075SOL    HW229368   5.296   4.489   0.286
 4076SOL     OW29369   1.363   6.257   2.058
 4076SOL    HW129370   1.374   6.350   2.035
 4076SOL    HW229371   1.448   6.218   2.041
 4077SOL     OW29372   4.425   3.633   6.081
 4077SOL    HW129373   4.406   3.721   6.049
 4077SOL    HW229374   4.517   3.636   6.109
 4078SOL     OW29375   3.837   6.423   2.119
 4078SOL    HW129376   3.821   6.433   2.213
 4078SOL    HW229377   3.803   6.337   2.097
 4079SOL     OW29378   2.286   4.065   0.732
 4079SOL    HW129379   2.260   4.052   0.823
 4079SOL    HW229380   2.359   4.127   0.736
 4080SOL     OW29381   4.722   5.349   6.825
 4080SOL    HW129382   4.756   5.438   6.811
 4080SOL    HW229383   4.707   5.344   6.920
 4081SOL     OW29384   0.726   4.956   1.099
 4081SOL    HW129385   0.807   4.916   1.065
 4081SOL    HW229386   0.658   4.892   1.077
 4082SOL     OW29387   4.776   4.175   2.050
 4082SOL    HW129388   4.791   4.091   2.008
 4082SOL    HW229389   4.727   4.226   1.985
 4083SOL     OW29390   5.591   2.564   2.218
 4083SOL    HW129391   5.647   2.496   2.254
 4083SOL    HW229392   5.649   2.619   2.166
 4084SOL     OW29393   3.541   6.353   7.298
 4084SOL    HW129394   3.532   6.447   7.285
 4084SOL    HW229395   3.532   6.315   7.211
 4085SOL     OW29396   5.153   2.202   5.982
 4085SOL    HW129397   5.195   2.125   5.945
 4085SOL    HW229398   5.093   2.232   5.914
 4086SOL     OW29399   3.656   3.819   0.903
 4086SOL    HW129400   3.647   3.911   0.925
 4086SOL    HW229401   3.724   3.817   0.835
 4087SOL     OW29402   6.374   3.511   7.356
 4087SOL    HW129403   6.350   3.586   7.410
 4087SOL    HW229404   6.409   3.549   7.276
 4088SOL     OW29405   2.545   3.358   1.013
 4088SOL    HW129406   2.602   3.361   1.090
 4088SOL    HW229407   2.538   3.265   0.992
 4089SOL     OW29408   2.937   4.918   6.863
 4089SOL    HW129409   2.959   4.837   6.911
 4089SOL    HW229410   2.846   4.905   6.835
 4090SOL     OW29411   4.341   0.879   1.428
 4090SOL    HW129412   4.386   0.856   1.509
 4090SOL    HW229413   4.299   0.797   1.400
 4091SOL     OW29414   0.393   5.037   0.310
 4091SOL    HW129415   0.359   5.058   0.397
 4091SOL    HW229416   0.415   4.944   0.315
 4092SOL     OW29417   4.693   0.946   1.503
 4092SOL    HW129418   4.613   0.900   1.528
 4092SOL    HW229419   4.667   1.038   1.498
 4093SOL     OW29420   3.241   1.257   1.796
 4093SOL    HW129421   3.272   1.273   1.707
 4093SOL    HW229422   3.310   1.204   1.836
 4094SOL     OW29423   1.948   1.955   1.585
 4094SOL    HW129424   1.869   1.917   1.545
 4094SOL    HW229425   1.915   2.016   1.650
 4095SOL     OW29426   2.523   5.732   0.201
 4095SOL    HW129427   2.445   5.687   0.168
 4095SOL    HW229428   2.505   5.825   0.187
 4096SOL     OW29429   1.215   5.750   1.619
 4096SOL    HW129430   1.164   5.683   1.575
 4096SOL    HW229431   1.155   5.824   1.627
 4097SOL     OW29432   0.839   0.945   7.108
 4097SOL    HW129433   0.744   0.953   7.113
 4097SOL    HW229434   0.868   0.942   7.199
 4098SOL     OW29435   5.000   5.160   6.478
 4098SOL    HW129436   4.951   5.101   6.421
 4098SOL    HW229437   5.028   5.105   6.551
 4099SOL     OW29438   0.714   0.473   1.422
 4099SOL    HW129439   0.695   0.551   1.473
 4099SOL    HW229440   0.745   0.506   1.337
 4100SOL     OW29441   1.549   3.598   2.172
 4100SOL    HW129442   1.585   3.686   2.178
 4100SOL    HW229443   1.459   3.607   2.202
 4101SOL     OW29444   4.707   5.826   5.708
 4101SOL    HW129445   4.645   5.892   5.738
 4101SOL    HW229446   4.727   5.851   5.618
 4102SOL     OW29447   6.189   4.823   6.862
 4102SOL    HW129448   6.249   4.875   6.916
 4102SOL    HW229449   6.163   4.750   6.918
 4103SOL     OW29450   1.061   1.215   6.365
 4103SOL    HW129451   1.104   1.143   6.411
 4103SOL    HW229452   1.070   1.192   6.272
 4104SOL     OW29453   5.209   6.066   2.128
 4104SOL    HW129454   5.244   6.151   2.153
 4104SOL    HW229455   5.250   6.004   2.189
 4105SOL     OW29456   2.810   4.788   1.939
 4105SOL    HW129457   2.820   4.794   2.034
 4105SOL    HW229458   2.763   4.868   1.915
 4106SOL     OW29459   1.202   5.146   0.075
 4106SOL    HW129460   1.137   5.207   0.108
 4106SOL    HW229461   1.153   5.086   0.019
 4107SOL     OW29462   2.390   6.091   5.959
 4107SOL    HW129463   2.461   6.095   5.895
 4107SOL    HW229464   2.400   6.005   6.000
 4108SOL     OW29465   0.886   5.152   6.951
 4108SOL    HW129466   0.957   5.091   6.931
 4108SOL    HW229467   0.906   5.185   7.038
 4109SOL     OW29468   5.905   0.053   7.571
 4109SOL    HW129469   5.839   0.119   7.549
 4109SOL    HW229470   5.918   0.005   7.489
 4110SOL     OW29471   4.050   6.134   2.086
 4110SOL    HW129472   4.023   6.186   2.162
 4110SOL    HW229473   4.145   6.148   2.080
 4111SOL     OW29474   1.491   1.464   2.060
 4111SOL    HW129475   1.411   1.422   2.090
 4111SOL    HW229476   1.513   1.526   2.130
 4112SOL     OW29477   1.841   0.723   0.530
 4112SOL    HW129478   1.842   0.666   0.453
 4112SOL    HW229479   1.769   0.689   0.584
 4113SOL     OW29480   4.161   3.882   0.550
 4113SOL    HW129481   4.222   3.808   0.546
 4113SOL    HW229482   4.191   3.934   0.625
 4114SOL     OW29483   4.490   0.695   0.641
 4114SOL    HW129484   4.484   0.788   0.663
 4114SOL    HW229485   4.440   0.686   0.560
 4115SOL     OW29486   0.812   3.074   0.373
 4115SOL    HW129487   0.779   3.136   0.438
 4115SOL    HW229488   0.907   3.086   0.374
 4116SOL     OW29489   0.637   2.850   0.104
 4116SOL    HW129490   0.701   2.916   0.134
 4116SOL    HW229491   0.614   2.803   0.184
 4117SOL     OW29492   2.539   6.008   0.163
 4117SOL    HW129493   2.517   6.041   0.076
 4117SOL    HW229494   2.635   6.002   0.163
 4118SOL     OW29495   2.138   1.817   0.054
 4118SOL    HW129496   2.146   1.755   0.127
 4118SOL    HW229497   2.216   1.871   0.060
 4119SOL     OW29498   5.971   2.384   1.765
 4119SOL    HW129499   6.050   2.437   1.768
 4119SOL    HW229500   5.929   2.400   1.849
 4120SOL     OW29501   2.212   0.942   0.274
 4120SOL    HW129502   2.234   1.021   0.324
 4120SOL    HW229503   2.117   0.941   0.270
 4121SOL     OW29504   6.270   5.251   1.108
 4121SOL    HW129505   6.208   5.183   1.080
 4121SOL    HW229506   6.332   5.258   1.035
 4122SOL     OW29507   4.615   3.153   1.571
 4122SOL    HW129508   4.532   3.181   1.533
 4122SOL    HW229509   4.592   3.123   1.659
 4123SOL     OW29510   1.370   3.554   0.668
 4123SOL    HW129511   1.463   3.571   0.679
 4123SOL    HW229512   1.343   3.609   0.595
 4124SOL     OW29513   0.802   4.842   1.636
 4124SOL    HW129514   0.765   4.868   1.720
 4124SOL    HW229515   0.895   4.829   1.654
 4125SOL     OW29516   4.909   4.025   6.698
 4125SOL    HW129517   4.888   3.980   6.616
 4125SOL    HW229518   4.886   4.117   6.681
 4126SOL     OW29519   1.905   2.898   1.321
 4126SOL    HW129520   1.943   2.852   1.246
 4126SOL    HW229521   1.871   2.829   1.377
 4127SOL     OW29522   2.931   3.862   0.223
 4127SOL    HW129523   2.978   3.809   0.159
 4127SOL    HW229524   2.978   3.849   0.305
 4128SOL     OW29525   3.475   4.277   0.549
 4128SOL    HW129526   3.417   4.207   0.520
 4128SOL    HW229527   3.454   4.290   0.642
 4129SOL     OW29528   2.231   5.587   1.792
 4129SOL    HW129529   2.191   5.669   1.764
 4129SOL    HW229530   2.306   5.576   1.734
 4130SOL     OW29531   5.634   6.120   5.651
 4130SOL    HW129532   5.687   6.138   5.729
 4130SOL    HW229533   5.676   6.172   5.582
 4131SOL     OW29534   1.212   3.244   2.554
 4131SOL    HW129535   1.257   3.280   2.478
 4131SOL    HW229536   1.252   3.157   2.565
 4132SOL     OW29537   3.625   3.467   1.760
 4132SOL    HW129538   3.621   3.376   1.789
 4132SOL    HW229539   3.538   3.502   1.780
 4133SOL     OW29540   2.425   2.282   0.711
 4133SOL    HW129541   2.447   2.307   0.801
 4133SOL    HW229542   2.377   2.358   0.677
 4134SOL     OW29543   2.158   6.264   0.066
 4134SOL    HW129544   2.218   6.318   0.118
 4134SOL    HW229545   2.181   6.283  -0.025
 4135SOL     OW29546   5.197   3.215   2.531
 4135SOL    HW129547   5.216   3.277   2.601
 4135SOL    HW229548   5.110   3.180   2.552
 4136SOL     OW29549   6.078   2.424   7.523
 4136SOL    HW129550   6.155   2.434   7.580
 4136SOL    HW229551   6.006   2.461   7.574
 4137SOL     OW29552   3.375   6.048   6.072
 4137SOL    HW129553   3.281   6.035   6.076
 4137SOL    HW229554   3.411   5.975   6.124
 4138SOL     OW29555   4.775   0.139   0.974
 4138SOL    HW129556   4.739   0.140   1.063
 4138SOL    HW229557   4.748   0.055   0.938
 4139SOL     OW29558   4.011   1.825   0.320
 4139SOL    HW129559   3.946   1.760   0.292
 4139SOL    HW229560   3.961   1.906   0.330
 4140SOL     OW29561   1.679   2.041   1.073
 4140SOL    HW129562   1.755   1.988   1.049
 4140SOL    HW229563   1.709   2.131   1.065
 4141SOL     OW29564   3.983   3.615   0.402
 4141SOL    HW129565   4.028   3.530   0.399
 4141SOL    HW229566   4.041   3.671   0.454
 4142SOL     OW29567   5.609   2.251   6.583
 4142SOL    HW129568   5.587   2.287   6.497
 4142SOL    HW229569   5.657   2.321   6.626
 4143SOL     OW29570   5.148   2.656   6.489
 4143SOL    HW129571   5.222   2.604   6.518
 4143SOL    HW229572   5.186   2.723   6.432
 4144SOL     OW29573   3.990   2.230   7.350
 4144SOL    HW129574   3.918   2.195   7.401
 4144SOL    HW229575   4.001   2.320   7.382
 4145SOL     OW29576   5.093   1.136   1.827
 4145SOL    HW129577   5.165   1.086   1.788
 4145SOL    HW229578   5.136   1.197   1.887
 4146SOL     OW29579   4.098   4.493   0.982
 4146SOL    HW129580   4.062   4.565   1.033
 4146SOL    HW229581   4.143   4.535   0.909
 4147SOL     OW29582   4.388   3.763   1.402
 4147SOL    HW129583   4.358   3.845   1.440
 4147SOL    HW229584   4.422   3.713   1.477
 4148SOL     OW29585   0.404   1.452   0.317
 4148SOL    HW129586   0.447   1.517   0.261
 4148SOL    HW229587   0.332   1.499   0.358
 4149SOL     OW29588   0.443   1.549   1.457
 4149SOL    HW129589   0.464   1.459   1.481
 4149SOL    HW229590   0.354   1.562   1.488
 4150SOL     OW29591   0.414   4.274   0.888
 4150SOL    HW129592   0.400   4.187   0.850
 4150SOL    HW229593   0.471   4.258   0.963
 4151SOL     OW29594   0.791   0.033   1.021
 4151SOL    HW129595   0.773   0.030   1.115
 4151SOL    HW229596   0.848  -0.042   1.005
 4152SOL     OW29597   3.827   5.946   6.548
 4152SOL    HW129598   3.794   5.862   6.516
 4152SOL    HW229599   3.757   5.980   6.604
 4153SOL     OW29600   3.406   2.989   0.615
 4153SOL    HW129601   3.496   2.958   0.609
 4153SOL    HW229602   3.390   3.002   0.709
 4154SOL     OW29603   2.557   4.822   2.198
 4154SOL    HW129604   2.500   4.796   2.270
 4154SOL    HW229605   2.535   4.761   2.127
 4155SOL     OW29606   4.210   5.774   0.120
 4155SOL    HW129607   4.220   5.754   0.027
 4155SOL    HW229608   4.299   5.765   0.156
 4156SOL     OW29609   0.902   0.224   7.320
 4156SOL    HW129610   0.862   0.211   7.406
 4156SOL    HW229611   0.988   0.261   7.340
 4157SOL     OW29612   4.769   5.841   0.714
 4157SOL    HW129613   4.761   5.926   0.757
 4157SOL    HW229614   4.714   5.783   0.767
 4158SOL     OW29615   5.388   3.590   0.780
 4158SOL    HW129616   5.391   3.496   0.799
 4158SOL    HW229617   5.296   3.614   0.792
 4159SOL     OW29618   2.981   2.653   1.491
 4159SOL    HW129619   2.931   2.725   1.530
 4159SOL    HW229620   3.073   2.681   1.499
 4160SOL     OW29621   4.674   0.148   5.796
 4160SOL    HW129622   4.642   0.081   5.857
 4160SOL    HW229623   4.761   0.170   5.828
 4161SOL     OW29624   2.794   0.727   6.261
 4161SOL    HW129625   2.732   0.751   6.192
 4161SOL    HW229626   2.802   0.806   6.315
 4162SOL     OW29627   5.569   5.046   3.000
 4162SOL    HW129628   5.620   5.057   3.081
 4162SOL    HW229629   5.528   5.131   2.986
 4163SOL     OW29630   0.967   4.909   6.048
 4163SOL    HW129631   1.049   4.889   6.093
 4163SOL    HW229632   0.910   4.942   6.117
 4164SOL     OW29633   6.211   6.199   7.277
 4164SOL    HW129634   6.166   6.235   7.200
 4164SOL    HW229635   6.243   6.114   7.247
 4165SOL     OW29636   1.842   5.632   1.866
 4165SOL    HW129637   1.853   5.716   1.909
 4165SOL    HW229638   1.777   5.586   1.920
 4166SOL     OW29639   3.115   3.320   6.769
 4166SOL    HW129640   3.129   3.338   6.862
 4166SOL    HW229641   3.168   3.386   6.724
 4167SOL     OW29642   5.821   1.147   6.737
 4167SOL    HW129643   5.783   1.182   6.657
 4167SOL    HW229644   5.803   1.053   6.733
 4168SOL     OW29645   0.121   0.058   0.878
 4168SOL    HW129646   0.191   0.028   0.820
 4168SOL    HW229647   0.134   0.008   0.959
 4169SOL     OW29648   2.962   0.749   0.659
 4169SOL    HW129649   3.051   0.732   0.632
 4169SOL    HW229650   2.908   0.719   0.586
 4170SOL     OW29651   4.508   4.147   0.090
 4170SOL    HW129652   4.479   4.188   0.008
 4170SOL    HW229653   4.603   4.146   0.084
 4171SOL     OW29654   4.796   1.852   7.119
 4171SOL    HW129655   4.845   1.825   7.042
 4171SOL    HW229656   4.723   1.790   7.124
 4172SOL     OW29657   2.353   3.579   1.090
 4172SOL    HW129658   2.293   3.552   1.159
 4172SOL    HW229659   2.421   3.512   1.089
 4173SOL     OW29660   0.939   0.870   0.034
 4173SOL    HW129661   0.891   0.789   0.022
 4173SOL    HW229662   0.871   0.937   0.043
 4174SOL     OW29663   0.174   1.144   6.937
 4174SOL    HW129664   0.195   1.237   6.943
 4174SOL    HW229665   0.117   1.136   6.861
 4175SOL     OW29666   4.557   4.217   1.565
 4175SOL    HW129667   4.614   4.291   1.544
 4175SOL    HW229668   4.539   4.175   1.481
 4176SOL     OW29669   0.112   2.800   2.686
 4176SOL    HW129670   0.140   2.891   2.695
 4176SOL    HW229671   0.068   2.780   2.769
 4177SOL     OW29672   2.037   4.837   6.194
 4177SOL    HW129673   2.090   4.770   6.151
 4177SOL    HW229674   2.031   4.908   6.130
 4178SOL     OW29675   0.123   0.688   0.845
 4178SOL    HW129676   0.165   0.603   0.838
 4178SOL    HW229677   0.179   0.739   0.904
 4179SOL     OW29678   5.631   1.350   1.987
 4179SOL    HW129679   5.725   1.366   1.985
 4179SOL    HW229680   5.622   1.270   2.040
 4180SOL     OW29681   3.880   0.778   7.115
 4180SOL    HW129682   3.813   0.842   7.089
 4180SOL    HW229683   3.841   0.693   7.095
 4181SOL     OW29684   5.781   5.652   0.921
 4181SOL    HW129685   5.750   5.657   1.011
 4181SOL    HW229686   5.705   5.677   0.868
 4182SOL     OW29687   0.146   2.786   6.637
 4182SOL    HW129688   0.104   2.842   6.572
 4182SOL    HW229689   0.125   2.697   6.609
 4183SOL     OW29690   5.451   0.841   0.530
 4183SOL    HW129691   5.543   0.831   0.556
 4183SOL    HW229692   5.406   0.865   0.611
 4184SOL     OW29693   1.582   3.393   1.693
 4184SOL    HW129694   1.563   3.396   1.787
 4184SOL    HW229695   1.606   3.301   1.677
 4185SOL     OW29696   0.267   6.126   0.924
 4185SOL    HW129697   0.261   6.167   1.010
 4185SOL    HW229698   0.289   6.035   0.943
 4186SOL     OW29699   3.408   1.453   1.277
 4186SOL    HW129700   3.388   1.546   1.273
 4186SOL    HW229701   3.393   1.421   1.188
 4187SOL     OW29702   5.259   4.500   7.345
 4187SOL    HW129703   5.278   4.507   7.252
 4187SOL    HW229704   5.307   4.573   7.385
 4188SOL     OW29705   5.566   4.961   1.769
 4188SOL    HW129706   5.610   4.901   1.829
 4188SOL    HW229707   5.535   5.033   1.824
 4189SOL     OW29708   1.650   6.022   7.528
 4189SOL    HW129709   1.603   5.995   7.449
 4189SOL    HW229710   1.733   6.057   7.495
 4190SOL     OW29711   6.020   4.279   0.354
 4190SOL    HW129712   5.948   4.297   0.414
 4190SOL    HW229713   5.991   4.203   0.304
 4191SOL     OW29714   0.663   5.977   7.634
 4191SOL    HW129715   0.587   5.920   7.643
 4191SOL    HW229716   0.655   6.039   7.706
 4192SOL     OW29717   0.680   6.362   0.588
 4192SOL    HW129718   0.693   6.429   0.655
 4192SOL    HW229719   0.587   6.340   0.595
 4193SOL     OW29720   2.926   3.206   0.309
 4193SOL    HW129721   2.971   3.190   0.392
 4193SOL    HW229722   2.864   3.133   0.301
 4194SOL     OW29723   2.799   3.812   7.614
 4194SOL    HW129724   2.704   3.811   7.625
 4194SOL    HW229725   2.823   3.720   7.608
 4195SOL     OW29726   0.140   3.517   6.857
 4195SOL    HW129727   0.122   3.423   6.863
 4195SOL    HW229728   0.233   3.522   6.833
 4196SOL     OW29729   1.205   1.823   0.199
 4196SOL    HW129730   1.173   1.801   0.286
 4196SOL    HW229731   1.164   1.760   0.141
 4197SOL     OW29732   0.350   4.378   1.328
 4197SOL    HW129733   0.296   4.429   1.267
 4197SOL    HW229734   0.308   4.292   1.332
 4198SOL     OW29735   0.868   2.174   1.379
 4198SOL    HW129736   0.950   2.127   1.397
 4198SOL    HW229737   0.832   2.131   1.301
 4199SOL     OW29738   4.423   2.423   5.925
 4199SOL    HW129739   4.449   2.345   5.973
 4199SOL    HW229740   4.334   2.404   5.895
 4200SOL     OW29741   1.783   5.606   6.623
 4200SOL    HW129742   1.701   5.635   6.663
 4200SOL    HW229743   1.832   5.687   6.608
 4201SOL     OW29744   0.286   0.586   7.053
 4201SOL    HW129745   0.312   0.655   6.991
 4201SOL    HW229746   0.363   0.573   7.108
 4202SOL     OW29747   5.863   1.537   7.062
 4202SOL    HW129748   5.905   1.575   6.985
 4202SOL    HW229749   5.806   1.468   7.027
 4203SOL     OW29750   5.827   3.290   6.723
 4203SOL    HW129751   5.760   3.347   6.760
 4203SOL    HW229752   5.811   3.293   6.628
 4204SOL     OW29753   4.446   0.874   1.935
 4204SOL    HW129754   4.453   0.968   1.920
 4204SOL    HW229755   4.367   0.864   1.989
 4205SOL     OW29756   3.968   4.579   3.008
 4205SOL    HW129757   3.877   4.593   3.032
 4205SOL    HW229758   3.992   4.657   2.958
 4206SOL     OW29759   5.404   3.025   0.690
 4206SOL    HW129760   5.479   2.987   0.736
 4206SOL    HW229761   5.427   3.019   0.597
 4207SOL     OW29762   3.599   2.981   0.861
 4207SOL    HW129763   3.689   2.997   0.834
 4207SOL    HW229764   3.586   3.040   0.935
 4208SOL     OW29765   1.819   0.579   0.280
 4208SOL    HW129766   1.766   0.505   0.309
 4208SOL    HW229767   1.807   0.582   0.185
 4209SOL     OW29768   2.402   3.326   6.096
 4209SOL    HW129769   2.461   3.275   6.040
 4209SOL    HW229770   2.412   3.286   6.183
 4210SOL     OW29771   3.579   1.586   6.264
 4210SOL    HW129772   3.623   1.582   6.179
 4210SOL    HW229773   3.556   1.678   6.274
 4211SOL     OW29774   1.235   0.114   5.873
 4211SOL    HW129775   1.185   0.091   5.951
 4211SOL    HW229776   1.281   0.034   5.849
 4212SOL     OW29777   0.443   0.469   1.635
 4212SOL    HW129778   0.364   0.450   1.585
 4212SOL    HW229779   0.440   0.564   1.650
 4213SOL     OW29780   0.631   0.961   2.271
 4213SOL    HW129781   0.558   1.008   2.310
 4213SOL    HW229782   0.602   0.870   2.267
 4214SOL     OW29783   0.894   3.157   1.799
 4214SOL    HW129784   0.880   3.062   1.789
 4214SOL    HW229785   0.931   3.167   1.886
 4215SOL     OW29786   3.093   3.634   0.145
 4215SOL    HW129787   3.145   3.610   0.222
 4215SOL    HW229788   3.153   3.623   0.071
 4216SOL     OW29789   3.382   5.171   1.380
 4216SOL    HW129790   3.402   5.140   1.292
 4216SOL    HW229791   3.359   5.092   1.429
 4217SOL     OW29792   5.088   6.033   2.474
 4217SOL    HW129793   5.107   6.123   2.446
 4217SOL    HW229794   5.160   5.982   2.437
 4218SOL     OW29795   2.261   0.052   6.211
 4218SOL    HW129796   2.218   0.070   6.128
 4218SOL    HW229797   2.344   0.010   6.187
 4219SOL     OW29798   6.334   6.069   0.269
 4219SOL    HW129799   6.391   6.145   0.256
 4219SOL    HW229800   6.250   6.106   0.298
 4220SOL     OW29801   2.788   6.096   7.274
 4220SOL    HW129802   2.814   6.186   7.290
 4220SOL    HW229803   2.817   6.048   7.352
 4221SOL     OW29804   6.189   2.084   5.781
 4221SOL    HW129805   6.158   2.152   5.841
 4221SOL    HW229806   6.199   2.130   5.697
 4222SOL     OW29807   5.052   6.205   0.547
 4222SOL    HW129808   4.974   6.161   0.579
 4222SOL    HW229809   5.022   6.260   0.476
 4223SOL     OW29810   5.084   4.736   6.262
 4223SOL    HW129811   5.170   4.696   6.261
 4223SOL    HW229812   5.083   4.795   6.187
 4224SOL     OW29813   1.291   0.520   7.313
 4224SOL    HW129814   1.214   0.572   7.286
 4224SOL    HW229815   1.361   0.548   7.254
 4225SOL     OW29816   2.380   5.070   5.745
 4225SOL    HW129817   2.337   5.155   5.751
 4225SOL    HW229818   2.330   5.014   5.805
 4226SOL     OW29819   4.921   3.777   7.614
 4226SOL    HW129820   4.907   3.780   7.519
 4226SOL    HW229821   5.011   3.807   7.626
 4227SOL     OW29822   3.848   3.433   6.041
 4227SOL    HW129823   3.882   3.388   6.119
 4227SOL    HW229824   3.753   3.436   6.054
 4228SOL     OW29825   5.878   2.423   7.719
 4228SOL    HW129826   5.923   2.340   7.732
 4228SOL    HW229827   5.908   2.478   7.791
 4229SOL     OW29828   0.220   5.618   6.913
 4229SOL    HW129829   0.146   5.639   6.970
 4229SOL    HW229830   0.297   5.629   6.968
 4230SOL     OW29831   2.616   0.623   0.873
 4230SOL    HW129832   2.637   0.529   0.872
 4230SOL    HW229833   2.701   0.666   0.879
 4231SOL     OW29834   2.577   6.077   0.930
 4231SOL    HW129835   2.564   6.163   0.970
 4231SOL    HW229836   2.528   6.017   0.987
 4232SOL     OW29837   5.624   2.941   7.078
 4232SOL    HW129838   5.669   3.016   7.117
 4232SOL    HW229839   5.689   2.870   7.080
 4233SOL     OW29840   0.976   1.136   1.183
 4233SOL    HW129841   0.915   1.123   1.255
 4233SOL    HW229842   0.940   1.084   1.111
 4234SOL     OW29843   4.166   6.270   7.273
 4234SOL    HW129844   4.155   6.211   7.198
 4234SOL    HW229845   4.221   6.221   7.334
 4235SOL     OW29846   4.990   3.345   1.117
 4235SOL    HW129847   4.932   3.352   1.193
 4235SOL    HW229848   4.938   3.377   1.044
 4236SOL     OW29849   2.799   5.383   1.364
 4236SOL    HW129850   2.867   5.363   1.428
 4236SOL    HW229851   2.785   5.477   1.373
 4237SOL     OW29852   2.854   3.497   1.141
 4237SOL    HW129853   2.900   3.424   1.182
 4237SOL    HW229854   2.875   3.489   1.048
 4238SOL     OW29855   4.810   0.154   7.295
 4238SOL    HW129856   4.791   0.176   7.386
 4238SOL    HW229857   4.849   0.233   7.259
 4239SOL     OW29858   3.843   1.543   7.148
 4239SOL    HW129859   3.880   1.529   7.061
 4239SOL    HW229860   3.892   1.484   7.205
 4240SOL     OW29861   5.421   4.222   6.262
 4240SOL    HW129862   5.412   4.184   6.174
 4240SOL    HW229863   5.335   4.260   6.281
 4241SOL     OW29864   2.601   1.053   6.596
 4241SOL    HW129865   2.678   1.018   6.642
 4241SOL    HW229866   2.541   1.078   6.666
 4242SOL     OW29867   1.205   5.336   6.520
 4242SOL    HW129868   1.164   5.307   6.438
 4242SOL    HW229869   1.182   5.428   6.527
 4243SOL     OW29870   2.397   1.384   0.418
 4243SOL    HW129871   2.481   1.416   0.385
 4243SOL    HW229872   2.406   1.386   0.513
 4244SOL     OW29873   2.230   2.254   1.586
 4244SOL    HW129874   2.267   2.339   1.565
 4244SOL    HW229875   2.209   2.259   1.679
 4245SOL     OW29876   3.775   3.465   0.542
 4245SOL    HW129877   3.802   3.404   0.612
 4245SOL    HW229878   3.838   3.537   0.549
 4246SOL     OW29879   3.246   4.104   1.804
 4246SOL    HW129880   3.320   4.051   1.773
 4246SOL    HW229881   3.287   4.181   1.844
 4247SOL     OW29882   4.350   1.232   1.637
 4247SOL    HW129883   4.334   1.323   1.612
 4247SOL    HW229884   4.291   1.181   1.581
 4248SOL     OW29885   4.509   4.377   7.616
 4248SOL    HW129886   4.431   4.383   7.671
 4248SOL    HW229887   4.566   4.448   7.647
 4249SOL     OW29888   5.869   2.511   7.265
 4249SOL    HW129889   5.885   2.594   7.311
 4249SOL    HW229890   5.829   2.454   7.330
 4250SOL     OW29891   3.424   5.088   1.129
 4250SOL    HW129892   3.464   5.030   1.065
 4250SOL    HW229893   3.409   5.169   1.081
 4251SOL     OW29894   6.153   0.253   2.014
 4251SOL    HW129895   6.243   0.244   1.984
 4251SOL    HW229896   6.111   0.170   1.990
 4252SOL     OW29897   3.713   5.535   7.129
 4252SOL    HW129898   3.747   5.616   7.091
 4252SOL    HW229899   3.790   5.478   7.136
 4253SOL     OW29900   5.878   6.212   6.904
 4253SOL    HW129901   5.869   6.304   6.928
 4253SOL    HW229902   5.895   6.213   6.810
 4254SOL     OW29903   2.873   5.647   7.215
 4254SOL    HW129904   2.874   5.597   7.133
 4254SOL    HW229905   2.792   5.619   7.258
 4255SOL     OW29906   3.293   2.642   1.100
 4255SOL    HW129907   3.337   2.689   1.030
 4255SOL    HW229908   3.246   2.571   1.057
 4256SOL     OW29909   1.384   0.069   2.007
 4256SOL    HW129910   1.354   0.133   1.942
 4256SOL    HW229911   1.382   0.117   2.090
 4257SOL     OW29912   4.678   1.655   1.250
 4257SOL    HW129913   4.670   1.608   1.333
 4257SOL    HW229914   4.692   1.587   1.185
 4258SOL     OW29915   6.367   3.612   5.804
 4258SOL    HW129916   6.365   3.611   5.900
 4258SOL    HW229917   6.458   3.632   5.782
 4259SOL     OW29918   5.567   6.390   1.211
 4259SOL    HW129919   5.614   6.337   1.275
 4259SOL    HW229920   5.496   6.334   1.181
 4260SOL     OW29921   5.996   1.208   0.351
 4260SOL    HW129922   5.966   1.253   0.273
 4260SOL    HW229923   5.951   1.253   0.423
 4261SOL     OW29924   1.208   3.625   6.870
 4261SOL    HW129925   1.200   3.635   6.965
 4261SOL    HW229926   1.147   3.554   6.848
 4262SOL     OW29927   5.234   2.530   2.475
 4262SOL    HW129928   5.274   2.549   2.390
 4262SOL    HW229929   5.270   2.595   2.534
 4263SOL     OW29930   5.151   0.967   6.195
 4263SOL    HW129931   5.180   0.881   6.166
 4263SOL    HW229932   5.183   0.974   6.285
 4264SOL     OW29933   2.946   3.174   1.909
 4264SOL    HW129934   2.989   3.198   1.991
 4264SOL    HW229935   2.869   3.125   1.937
 4265SOL     OW29936   0.426   5.935   1.963
 4265SOL    HW129937   0.505   5.887   1.938
 4265SOL    HW229938   0.391   5.969   1.881
 4266SOL     OW29939   3.554   2.621   6.854
 4266SOL    HW129940   3.534   2.680   6.926
 4266SOL    HW229941   3.494   2.647   6.784
 4267SOL     OW29942   2.000   0.680   7.655
 4267SOL    HW129943   1.963   0.747   7.712
 4267SOL    HW229944   1.992   0.716   7.567
 4268SOL     OW29945   3.358   4.415   7.712
 4268SOL    HW129946   3.353   4.377   7.799
 4268SOL    HW229947   3.450   4.411   7.688
 4269SOL     OW29948   3.643   4.716   1.027
 4269SOL    HW129949   3.674   4.674   0.946
 4269SOL    HW229950   3.720   4.762   1.061
 4270SOL     OW29951   4.760   5.851   2.507
 4270SOL    HW129952   4.846   5.844   2.547
 4270SOL    HW229953   4.700   5.861   2.581
 4271SOL     OW29954   4.095   3.977   1.318
 4271SOL    HW129955   4.030   3.989   1.387
 4271SOL    HW229956   4.044   3.942   1.244
 4272SOL     OW29957   6.291   4.116   1.120
 4272SOL    HW129958   6.334   4.030   1.112
 4272SOL    HW229959   6.325   4.152   1.202
 4273SOL     OW29960   0.493   3.447   2.492
 4273SOL    HW129961   0.435   3.371   2.496
 4273SOL    HW229962   0.576   3.416   2.527
 4274SOL     OW29963   5.963   4.091   6.335
 4274SOL    HW129964   5.876   4.103   6.297
 4274SOL    HW229965   6.013   4.045   6.267
 4275SOL     OW29966   4.165   0.311   0.673
 4275SOL    HW129967   4.157   0.344   0.584
 4275SOL    HW229968   4.259   0.298   0.686
 4276SOL     OW29969   4.748   2.598   6.642
 4276SOL    HW129970   4.777   2.689   6.633
 4276SOL    HW229971   4.700   2.580   6.561
 4277SOL     OW29972   4.133   4.199   0.044
 4277SOL    HW129973   4.179   4.135   0.098
 4277SOL    HW229974   4.134   4.162  -0.044
 4278SOL     OW29975   5.012   5.258   1.410
 4278SOL    HW129976   4.995   5.290   1.322
 4278SOL    HW229977   5.053   5.332   1.455
 4279SOL     OW29978   1.325   0.208   7.648
 4279SOL    HW129979   1.377   0.175   7.720
 4279SOL    HW229980   1.239   0.227   7.686
 4280SOL     OW29981   2.276   4.467   0.104
 4280SOL    HW129982   2.266   4.540   0.043
 4280SOL    HW229983   2.368   4.471   0.131
 4281SOL     OW29984   1.471   2.388   6.856
 4281SOL    HW129985   1.451   2.379   6.949
 4281SOL    HW229986   1.565   2.407   6.853
 4282SOL     OW29987   4.944   1.401   0.789
 4282SOL    HW129988   4.894   1.473   0.827
 4282SOL    HW229989   4.878   1.346   0.747
 4283SOL     OW29990   5.694   5.434   0.627
 4283SOL    HW129991   5.722   5.413   0.716
 4283SOL    HW229992   5.775   5.432   0.575
 4284SOL     OW29993   3.998   5.764   0.623
 4284SOL    HW129994   4.052   5.810   0.688
 4284SOL    HW229995   3.922   5.820   0.610
 4285SOL     OW29996   4.595   0.174   0.609
 4285SOL    HW129997   4.526   0.161   0.543
 4285SOL    HW229998   4.671   0.130   0.573
 4286SOL     OW29999   6.118   0.869   1.656
 4286SOL    HW130000   6.129   0.960   1.630
 4286SOL    HW230001   6.205   0.830   1.648
 4287SOL     OW30002   3.920   4.038   7.377
 4287SOL    HW130003   3.926   4.020   7.283
 4287SOL    HW230004   3.872   3.964   7.413
 4288SOL     OW30005   5.457   1.612   7.227
 4288SOL    HW130006   5.375   1.598   7.273
 4288SOL    HW230007   5.436   1.596   7.135
 4289SOL     OW30008   3.871   2.984   0.905
 4289SOL    HW130009   3.873   2.949   0.816
 4289SOL    HW230010   3.962   3.007   0.924
 4290SOL     OW30011   1.769   0.428   6.779
 4290SOL    HW130012   1.812   0.444   6.863
 4290SOL    HW230013   1.840   0.431   6.715
 4291SOL     OW30014   4.663   4.559   1.759
 4291SOL    HW130015   4.606   4.628   1.793
 4291SOL    HW230016   4.730   4.548   1.825
 4292SOL     OW30017   5.723   4.590   7.384
 4292SOL    HW130018   5.797   4.636   7.422
 4292SOL    HW230019   5.707   4.517   7.444
 4293SOL     OW30020   0.855   3.396   1.646
 4293SOL    HW130021   0.876   3.323   1.704
 4293SOL    HW230022   0.862   3.360   1.557
 4294SOL     OW30023   0.515   5.271   1.394
 4294SOL    HW130024   0.494   5.179   1.407
 4294SOL    HW230025   0.519   5.282   1.299
 4295SOL     OW30026   4.895   3.165   1.475
 4295SOL    HW130027   4.904   3.232   1.407
 4295SOL    HW230028   4.804   3.172   1.504
 4296SOL     OW30029   2.664   4.837   6.478
 4296SOL    HW130030   2.689   4.744   6.477
 4296SOL    HW230031   2.570   4.836   6.500
 4297SOL     OW30032   0.103   5.331   1.902
 4297SOL    HW130033   0.105   5.356   1.994
 4297SOL    HW230034   0.023   5.370   1.868
 4298SOL     OW30035   1.420   1.852   7.667
 4298SOL    HW130036   1.354   1.783   7.663
 4298SOL    HW230037   1.496   1.811   7.708
 4299SOL     OW30038   2.038   4.636   1.657
 4299SOL    HW130039   2.075   4.658   1.572
 4299SOL    HW230040   2.095   4.681   1.720
 4300SOL     OW30041   3.788   5.528   6.776
 4300SOL    HW130042   3.748   5.456   6.824
 4300SOL    HW230043   3.750   5.607   6.816
 4301SOL     OW30044   2.311   5.905   1.994
 4301SOL    HW130045   2.373   5.933   2.060
 4301SOL    HW230046   2.248   5.851   2.041
 4302SOL     OW30047   5.188   4.377   6.303
 4302SOL    HW130048   5.165   4.453   6.357
 4302SOL    HW230049   5.147   4.394   6.218
 4303SOL     OW30050   3.492   3.505   7.051
 4303SOL    HW130051   3.421   3.538   6.996
 4303SOL    HW230052   3.448   3.471   7.129
 4304SOL     OW30053   5.913   0.655   7.375
 4304SOL    HW130054   5.891   0.740   7.336
 4304SOL    HW230055   5.937   0.601   7.300
 4305SOL     OW30056   4.383   5.375   5.837
 4305SOL    HW130057   4.357   5.410   5.922
 4305SOL    HW230058   4.341   5.433   5.773
 4306SOL     OW30059   4.352   3.950   6.401
 4306SOL    HW130060   4.358   4.003   6.322
 4306SOL    HW230061   4.439   3.955   6.440
 4307SOL     OW30062   1.198   4.765   7.307
 4307SOL    HW130063   1.135   4.833   7.281
 4307SOL    HW230064   1.283   4.798   7.277
 4308SOL     OW30065   4.591   1.200   1.526
 4308SOL    HW130066   4.651   1.237   1.590
 4308SOL    HW230067   4.506   1.198   1.570
 4309SOL     OW30068   3.034   5.780   1.446
 4309SOL    HW130069   3.113   5.725   1.450
 4309SOL    HW230070   3.062   5.864   1.483
 4310SOL     OW30071   5.954   1.762   7.641
 4310SOL    HW130072   5.968   1.832   7.704
 4310SOL    HW230073   6.010   1.784   7.566
 4311SOL     OW30074   1.675   4.912   6.908
 4311SOL    HW130075   1.621   4.853   6.960
 4311SOL    HW230076   1.724   4.963   6.972
 4312SOL     OW30077   3.004   1.212   5.920
 4312SOL    HW130078   2.939   1.255   5.864
 4312SOL    HW230079   3.082   1.203   5.864
 4313SOL     OW30080   5.164   5.995   6.554
 4313SOL    HW130081   5.225   6.068   6.563
 4313SOL    HW230082   5.158   5.958   6.643
 4314SOL     OW30083   4.816   4.825   0.812
 4314SOL    HW130084   4.875   4.898   0.832
 4314SOL    HW230085   4.734   4.848   0.855
 4315SOL     OW30086   4.087   2.792   1.679
 4315SOL    HW130087   4.163   2.850   1.673
 4315SOL    HW230088   4.031   2.833   1.745
 4316SOL     OW30089   5.522   4.228   7.304
 4316SOL    HW130090   5.550   4.270   7.222
 4316SOL    HW230091   5.435   4.194   7.285
 4317SOL     OW30092   2.265   2.872   1.888
 4317SOL    HW130093   2.191   2.811   1.895
 4317SOL    HW230094   2.313   2.843   1.811
 4318SOL     OW30095   2.202   5.365   0.563
 4318SOL    HW130096   2.210   5.375   0.658
 4318SOL    HW230097   2.201   5.454   0.529
 4319SOL     OW30098   5.405   5.199   0.650
 4319SOL    HW130099   5.370   5.285   0.630
 4319SOL    HW230100   5.476   5.215   0.712
 4320SOL     OW30101   1.616   5.316   1.634
 4320SOL    HW130102   1.574   5.354   1.711
 4320SOL    HW230103   1.599   5.222   1.642
 4321SOL     OW30104   1.558   1.884   6.770
 4321SOL    HW130105   1.517   1.908   6.687
 4321SOL    HW230106   1.542   1.959   6.827
 4322SOL     OW30107   4.863   5.175   0.093
 4322SOL    HW130108   4.932   5.136   0.040
 4322SOL    HW230109   4.882   5.146   0.182
 4323SOL     OW30110   0.956   5.472   0.921
 4323SOL    HW130111   0.999   5.549   0.882
 4323SOL    HW230112   0.972   5.481   1.015
 4324SOL     OW30113   4.983   4.639   6.814
 4324SOL    HW130114   4.979   4.636   6.718
 4324SOL    HW230115   5.039   4.565   6.838
 4325SOL     OW30116   4.706   4.172   7.035
 4325SOL    HW130117   4.777   4.149   6.976
 4325SOL    HW230118   4.643   4.100   7.026
 4326SOL     OW30119   1.026   0.524   0.235
 4326SOL    HW130120   0.942   0.486   0.209
 4326SOL    HW230121   1.088   0.452   0.227
 4327SOL     OW30122   4.727   4.464   1.503
 4327SOL    HW130123   4.688   4.504   1.581
 4327SOL    HW230124   4.821   4.470   1.518
 4328SOL     OW30125   0.371   6.397   0.756
 4328SOL    HW130126   0.413   6.372   0.839
 4328SOL    HW230127   0.395   6.488   0.744
 4329SOL     OW30128   2.342   2.693   3.052
 4329SOL    HW130129   2.375   2.614   3.010
 4329SOL    HW230130   2.396   2.764   3.015
 4330SOL     OW30131   1.372   3.063   0.356
 4330SOL    HW130132   1.385   2.993   0.420
 4330SOL    HW230133   1.429   3.133   0.386
 4331SOL     OW30134   0.336   1.297   7.236
 4331SOL    HW130135   0.298   1.214   7.265
 4331SOL    HW230136   0.261   1.357   7.230
 4332SOL     OW30137   1.043   2.703   7.697
 4332SOL    HW130138   1.056   2.642   7.624
 4332SOL    HW230139   1.089   2.782   7.671
 4333SOL     OW30140   4.529   4.768   1.856
 4333SOL    HW130141   4.545   4.810   1.940
 4333SOL    HW230142   4.526   4.841   1.793
 4334SOL     OW30143   4.569   2.528   0.017
 4334SOL    HW130144   4.502   2.552  -0.047
 4334SOL    HW230145   4.639   2.487  -0.035
 4335SOL     OW30146   6.037   3.905   5.895
 4335SOL    HW130147   6.047   3.826   5.842
 4335SOL    HW230148   6.006   3.972   5.833
 4336SOL     OW30149   3.697   1.685   2.082
 4336SOL    HW130150   3.739   1.770   2.097
 4336SOL    HW230151   3.691   1.677   1.987
 4337SOL     OW30152   4.069   1.884   6.543
 4337SOL    HW130153   3.989   1.936   6.539
 4337SOL    HW230154   4.117   1.906   6.463
 4338SOL     OW30155   5.736   5.184   3.195
 4338SOL    HW130156   5.810   5.242   3.210
 4338SOL    HW230157   5.678   5.198   3.270
 4339SOL     OW30158   1.875   0.674   7.135
 4339SOL    HW130159   1.899   0.696   7.045
 4339SOL    HW230160   1.856   0.580   7.133
 4340SOL     OW30161   6.384   3.322   7.613
 4340SOL    HW130162   6.438   3.381   7.560
 4340SOL    HW230163   6.401   3.348   7.704
 4341SOL     OW30164   6.021   3.829   7.110
 4341SOL    HW130165   6.071   3.748   7.122
 4341SOL    HW230166   5.935   3.800   7.080
 4342SOL     OW30167   3.674   0.566   2.438
 4342SOL    HW130168   3.686   0.640   2.379
 4342SOL    HW230169   3.754   0.516   2.431
 4343SOL     OW30170   0.325   4.187   1.900
 4343SOL    HW130171   0.257   4.246   1.933
 4343SOL    HW230172   0.280   4.104   1.887
 4344SOL     OW30173   3.640   0.078   0.416
 4344SOL    HW130174   3.655   0.081   0.510
 4344SOL    HW230175   3.581   0.152   0.399
 4345SOL     OW30176   5.417   5.546   6.191
 4345SOL    HW130177   5.506   5.570   6.215
 4345SOL    HW230178   5.413   5.561   6.096
 4346SOL     OW30179   5.052   1.679   1.492
 4346SOL    HW130180   5.094   1.633   1.420
 4346SOL    HW230181   5.097   1.646   1.570
 4347SOL     OW30182   3.619   2.781   0.287
 4347SOL    HW130183   3.566   2.759   0.209
 4347SOL    HW230184   3.705   2.804   0.252
 4348SOL     OW30185   2.131   5.898   5.690
 4348SOL    HW130186   2.163   5.876   5.602
 4348SOL    HW230187   2.209   5.893   5.745
 4349SOL     OW30188   2.683   5.524   7.370
 4349SOL    HW130189   2.646   5.593   7.425
 4349SOL    HW230190   2.636   5.445   7.395
 4350SOL     OW30191   1.027   5.843   7.461
 4350SOL    HW130192   1.037   5.925   7.510
 4350SOL    HW230193   1.111   5.831   7.418
 4351SOL     OW30194   4.027   2.560   1.823
 4351SOL    HW130195   4.084   2.582   1.897
 4351SOL    HW230196   4.046   2.627   1.757
 4352SOL     OW30197   3.824   0.064   0.195
 4352SOL    HW130198   3.798   0.080   0.286
 4352SOL    HW230199   3.867  -0.022   0.197
 4353SOL     OW30200   2.619   4.723   7.538
 4353SOL    HW130201   2.538   4.736   7.587
 4353SOL    HW230202   2.674   4.668   7.594
 4354SOL     OW30203   0.099   2.047   0.683
 4354SOL    HW130204   0.038   2.012   0.618
 4354SOL    HW230205   0.044   2.099   0.741
 4355SOL     OW30206   5.505   2.999   0.420
 4355SOL    HW130207   5.485   2.919   0.372
 4355SOL    HW230208   5.558   3.051   0.360
 4356SOL     OW30209   5.593   5.009   7.064
 4356SOL    HW130210   5.601   5.089   7.118
 4356SOL    HW230211   5.513   5.022   7.014
 4357SOL     OW30212   5.407   1.896   7.250
 4357SOL    HW130213   5.447   1.823   7.203
 4357SOL    HW230214   5.470   1.968   7.242
 4358SOL     OW30215   6.309   5.065   6.580
 4358SOL    HW130216   6.303   5.127   6.508
 4358SOL    HW230217   6.310   4.979   6.538
 4359SOL     OW30218   2.176   3.214   0.178
 4359SOL    HW130219   2.170   3.305   0.206
 4359SOL    HW230220   2.112   3.168   0.232
 4360SOL     OW30221   1.137   1.888   2.265
 4360SOL    HW130222   1.073   1.958   2.250
 4360SOL    HW230223   1.124   1.863   2.357
 4361SOL     OW30224   2.463   1.750   2.761
 4361SOL    HW130225   2.526   1.818   2.739
 4361SOL    HW230226   2.517   1.673   2.779
 4362SOL     OW30227   5.203   1.611   2.180
 4362SOL    HW130228   5.153   1.680   2.223
 4362SOL    HW230229   5.267   1.658   2.126
 4363SOL     OW30230   1.241   5.543   1.952
 4363SOL    HW130231   1.182   5.517   2.023
 4363SOL    HW230232   1.249   5.637   1.961
 4364SOL     OW30233   0.081   3.927   0.944
 4364SOL    HW130234   0.129   3.938   1.026
 4364SOL    HW230235   0.099   3.837   0.917
 4365SOL     OW30236   1.664   4.954   1.765
 4365SOL    HW130237   1.723   4.884   1.791
 4365SOL    HW230238   1.632   4.991   1.848
 4366SOL     OW30239   3.726   1.672   2.472
 4366SOL    HW130240   3.810   1.627   2.469
 4366SOL    HW230241   3.740   1.751   2.420
 4367SOL     OW30242   5.072   4.957   2.693
 4367SOL    HW130243   5.149   5.009   2.718
 4367SOL    HW230244   5.091   4.869   2.726
 4368SOL     OW30245   0.435   1.620   7.311
 4368SOL    HW130246   0.352   1.585   7.343
 4368SOL    HW230247   0.413   1.660   7.227
 4369SOL     OW30248   3.189   6.040   7.001
 4369SOL    HW130249   3.109   6.000   7.034
 4369SOL    HW230250   3.250   6.036   7.075
 4370SOL     OW30251   5.391   1.872   7.532
 4370SOL    HW130252   5.413   1.878   7.439
 4370SOL    HW230253   5.298   1.852   7.533
 4371SOL     OW30254   4.651   1.001   0.251
 4371SOL    HW130255   4.709   1.071   0.281
 4371SOL    HW230256   4.708   0.926   0.238
 4372SOL     OW30257   4.576   0.695   1.181
 4372SOL    HW130258   4.565   0.665   1.091
 4372SOL    HW230259   4.561   0.617   1.235
 4373SOL     OW30260   4.343   0.681   0.370
 4373SOL    HW130261   4.279   0.638   0.314
 4373SOL    HW230262   4.316   0.773   0.372
 4374SOL     OW30263   4.811   5.833   6.319
 4374SOL    HW130264   4.750   5.769   6.355
 4374SOL    HW230265   4.790   5.836   6.225
 4375SOL     OW30266   6.440   4.127   0.267
 4375SOL    HW130267   6.364   4.071   0.249
 4375SOL    HW230268   6.411   4.215   0.244
 4376SOL     OW30269   4.879   1.180   7.376
 4376SOL    HW130270   4.913   1.193   7.287
 4376SOL    HW230271   4.796   1.227   7.376
 4377SOL     OW30272   1.235   1.458   1.084
 4377SOL    HW130273   1.269   1.514   1.014
 4377SOL    HW230274   1.262   1.502   1.165
 4378SOL     OW30275   1.478   0.578   6.746
 4378SOL    HW130276   1.542   0.506   6.745
 4378SOL    HW230277   1.442   0.580   6.657
 4379SOL     OW30278   6.243   2.560   0.459
 4379SOL    HW130279   6.154   2.587   0.482
 4379SOL    HW230280   6.271   2.624   0.394
 4380SOL     OW30281   3.818   1.649   0.174
 4380SOL    HW130282   3.845   1.578   0.117
 4380SOL    HW230283   3.722   1.651   0.167
 4381SOL     OW30284   5.759   2.384   2.312
 4381SOL    HW130285   5.828   2.428   2.362
 4381SOL    HW230286   5.790   2.294   2.304
 4382SOL     OW30287   1.763   4.930   7.614
 4382SOL    HW130288   1.743   4.905   7.524
 4382SOL    HW230289   1.789   5.022   7.609
 4383SOL     OW30290   1.903   1.730   5.482
 4383SOL    HW130291   1.841   1.703   5.415
 4383SOL    HW230292   1.958   1.652   5.497
 4384SOL     OW30293   5.251   0.108   6.148
 4384SOL    HW130294   5.187   0.081   6.082
 4384SOL    HW230295   5.336   0.086   6.110
 4385SOL     OW30296   1.752   2.293   0.017
 4385SOL    HW130297   1.747   2.383  -0.016
 4385SOL    HW230298   1.666   2.276   0.055
 4386SOL     OW30299   4.659   6.033   5.951
 4386SOL    HW130300   4.673   6.128   5.950
 4386SOL    HW230301   4.566   6.022   5.932
 4387SOL     OW30302   3.565   3.190   1.044
 4387SOL    HW130303   3.486   3.206   1.095
 4387SOL    HW230304   3.629   3.159   1.108
 4388SOL     OW30305   5.942   3.481   6.110
 4388SOL    HW130306   5.957   3.469   6.016
 4388SOL    HW230307   6.008   3.545   6.136
 4389SOL     OW30308   2.760   0.084   0.510
 4389SOL    HW130309   2.732   0.010   0.563
 4389SOL    HW230310   2.682   0.108   0.460
 4390SOL     OW30311   1.073   4.779   5.637
 4390SOL    HW130312   1.166   4.760   5.643
 4390SOL    HW230313   1.062   4.862   5.685
 4391SOL     OW30314   0.124   1.009   1.144
 4391SOL    HW130315   0.096   1.101   1.134
 4391SOL    HW230316   0.043   0.959   1.136
 4392SOL     OW30317   2.098   4.672   6.858
 4392SOL    HW130318   2.110   4.760   6.824
 4392SOL    HW230319   2.019   4.640   6.815
 4393SOL     OW30320   1.812   2.891   0.995
 4393SOL    HW130321   1.818   2.979   1.031
 4393SOL    HW230322   1.885   2.884   0.934
 4394SOL     OW30323   0.491   4.796   6.887
 4394SOL    HW130324   0.504   4.864   6.953
 4394SOL    HW230325   0.453   4.722   6.935
 4395SOL     OW30326   5.811   1.790   0.683
 4395SOL    HW130327   5.840   1.733   0.755
 4395SOL    HW230328   5.795   1.874   0.725
 4396SOL     OW30329   6.038   2.384   5.690
 4396SOL    HW130330   5.976   2.456   5.703
 4396SOL    HW230331   6.052   2.348   5.778
 4397SOL     OW30332   5.349   1.297   2.422
 4397SOL    HW130333   5.411   1.359   2.385
 4397SOL    HW230334   5.319   1.246   2.347
 4398SOL     OW30335   3.318   3.706   0.014
 4398SOL    HW130336   3.406   3.701  -0.023
 4398SOL    HW230337   3.328   3.756   0.095
 4399SOL     OW30338   3.024   0.530   0.399
 4399SOL    HW130339   2.983   0.454   0.439
 4399SOL    HW230340   2.953   0.594   0.390
 4400SOL     OW30341   4.907   6.086   6.775
 4400SOL    HW130342   4.860   6.120   6.851
 4400SOL    HW230343   4.870   6.134   6.701
 4401SOL     OW30344   0.026   0.581   7.676
 4401SOL    HW130345   0.019   0.542   7.589
 4401SOL    HW230346   0.014   0.675   7.662
 4402SOL     OW30347   0.008   2.174   0.151
 4402SOL    HW130348  -0.039   2.253   0.177
 4402SOL    HW230349  -0.052   2.102   0.174
 4403SOL     OW30350   0.519   1.270   1.267
 4403SOL    HW130351   0.432   1.304   1.287
 4403SOL    HW230352   0.555   1.331   1.202
 4404SOL     OW30353   5.684   5.373   5.988
 4404SOL    HW130354   5.746   5.354   5.917
 4404SOL    HW230355   5.599   5.375   5.944
 4405SOL     OW30356   2.714   4.814   1.526
 4405SOL    HW130357   2.753   4.759   1.594
 4405SOL    HW230358   2.622   4.820   1.549
 4406SOL     OW30359   3.498   5.733   7.196
 4406SOL    HW130360   3.413   5.715   7.156
 4406SOL    HW230361   3.532   5.646   7.219
 4407SOL     OW30362   2.553   3.775   2.298
 4407SOL    HW130363   2.516   3.797   2.212
 4407SOL    HW230364   2.486   3.722   2.340
 4408SOL     OW30365   4.588   1.667   7.163
 4408SOL    HW130366   4.510   1.699   7.119
 4408SOL    HW230367   4.620   1.595   7.108
 4409SOL     OW30368   5.126   2.958   5.224
 4409SOL    HW130369   5.083   2.906   5.292
 4409SOL    HW230370   5.070   2.947   5.147
 4410SOL     OW30371   2.228   4.707   1.452
 4410SOL    HW130372   2.278   4.630   1.425
 4410SOL    HW230373   2.289   4.757   1.507
 4411SOL     OW30374   2.121   1.568   0.613
 4411SOL    HW130375   2.172   1.582   0.533
 4411SOL    HW230376   2.183   1.580   0.684
 4412SOL     OW30377   2.663   6.419   1.621
 4412SOL    HW130378   2.578   6.412   1.577
 4412SOL    HW230379   2.649   6.484   1.689
 4413SOL     OW30380   2.425   5.359   2.122
 4413SOL    HW130381   2.456   5.338   2.034
 4413SOL    HW230382   2.351   5.418   2.108
 4414SOL     OW30383   1.462   0.885   1.204
 4414SOL    HW130384   1.527   0.865   1.136
 4414SOL    HW230385   1.512   0.892   1.285
 4415SOL     OW30386   1.073   3.849   1.278
 4415SOL    HW130387   1.144   3.785   1.274
 4415SOL    HW230388   1.036   3.838   1.365
 4416SOL     OW30389   4.937   2.049   1.139
 4416SOL    HW130390   4.842   2.040   1.135
 4416SOL    HW230391   4.959   2.104   1.064
 4417SOL     OW30392   1.991   0.683   5.653
 4417SOL    HW130393   2.080   0.699   5.619
 4417SOL    HW230394   1.996   0.597   5.693
 4418SOL     OW30395   4.174   3.135   6.175
 4418SOL    HW130396   4.238   3.088   6.229
 4418SOL    HW230397   4.212   3.222   6.162
 4419SOL     OW30398   2.506   5.980   2.142
 4419SOL    HW130399   2.494   5.909   2.205
 4419SOL    HW230400   2.577   6.033   2.179
 4420SOL     OW30401   0.740   5.864   6.010
 4420SOL    HW130402   0.706   5.931   6.069
 4420SOL    HW230403   0.669   5.799   6.005
 4421SOL     OW30404   3.256   4.074   0.563
 4421SOL    HW130405   3.314   4.007   0.599
 4421SOL    HW230406   3.233   4.129   0.637
 4422SOL     OW30407   5.847   4.815   1.860
 4422SOL    HW130408   5.903   4.779   1.791
 4422SOL    HW230409   5.866   4.909   1.860
 4423SOL     OW30410   3.858   5.363   1.006
 4423SOL    HW130411   3.836   5.272   1.027
 4423SOL    HW230412   3.862   5.406   1.091
 4424SOL     OW30413   0.165   2.786   2.050
 4424SOL    HW130414   0.252   2.771   2.086
 4424SOL    HW230415   0.179   2.793   1.956
 4425SOL     OW30416   3.857   4.721   6.771
 4425SOL    HW130417   3.787   4.659   6.750
 4425SOL    HW230418   3.893   4.746   6.686
 4426SOL     OW30419   2.084   2.456   2.329
 4426SOL    HW130420   2.016   2.400   2.292
 4426SOL    HW230421   2.043   2.541   2.340
 4427SOL     OW30422   3.497   6.048   6.376
 4427SOL    HW130423   3.508   5.978   6.312
 4427SOL    HW230424   3.463   6.005   6.454
 4428SOL     OW30425   4.304   3.235   2.059
 4428SOL    HW130426   4.317   3.307   2.121
 4428SOL    HW230427   4.389   3.191   2.056
 4429SOL     OW30428   2.873   1.349   1.377
 4429SOL    HW130429   2.959   1.309   1.361
 4429SOL    HW230430   2.877   1.434   1.334
 4430SOL     OW30431   0.833   3.746   7.079
 4430SOL    HW130432   0.812   3.838   7.095
 4430SOL    HW230433   0.834   3.705   7.166
 4431SOL     OW30434   2.362   2.734   6.743
 4431SOL    HW130435   2.288   2.790   6.766
 4431SOL    HW230436   2.341   2.701   6.655
 4432SOL     OW30437   3.467   1.070   6.820
 4432SOL    HW130438   3.473   0.993   6.764
 4432SOL    HW230439   3.531   1.131   6.783
 4433SOL     OW30440   5.600   5.522   2.842
 4433SOL    HW130441   5.628   5.527   2.751
 4433SOL    HW230442   5.561   5.608   2.860
 4434SOL     OW30443   4.181   1.201   7.531
 4434SOL    HW130444   4.211   1.167   7.446
 4434SOL    HW230445   4.086   1.206   7.522
 4435SOL     OW30446   0.211   4.694   1.845
 4435SOL    HW130447   0.275   4.627   1.870
 4435SOL    HW230448   0.259   4.751   1.785
 4436SOL     OW30449   4.342   1.859   7.176
 4436SOL    HW130450   4.355   1.903   7.260
 4436SOL    HW230451   4.274   1.794   7.193
 4437SOL     OW30452   4.325   4.306   0.656
 4437SOL    HW130453   4.357   4.298   0.566
 4437SOL    HW230454   4.321   4.400   0.672
 4438SOL     OW30455   5.991   0.509   7.167
 4438SOL    HW130456   6.067   0.480   7.216
 4438SOL    HW230457   6.023   0.581   7.113
 4439SOL     OW30458   4.032   1.905   0.742
 4439SOL    HW130459   3.994   1.845   0.806
 4439SOL    HW230460   4.051   1.985   0.792
 4440SOL     OW30461   2.911   1.351   7.215
 4440SOL    HW130462   2.846   1.315   7.154
 4440SOL    HW230463   2.883   1.319   7.301
 4441SOL     OW30464   0.195   6.201   0.649
 4441SOL    HW130465   0.247   6.279   0.628
 4441SOL    HW230466   0.211   6.186   0.742
 4442SOL     OW30467   3.999   0.113   1.300
 4442SOL    HW130468   3.958   0.191   1.262
 4442SOL    HW230469   4.023   0.141   1.389
 4443SOL     OW30470   3.943   4.824   7.394
 4443SOL    HW130471   3.960   4.896   7.454
 4443SOL    HW230472   3.889   4.763   7.444
 4444SOL     OW30473   2.348   0.759   7.547
 4444SOL    HW130474   2.374   0.851   7.558
 4444SOL    HW230475   2.314   0.754   7.458
 4445SOL     OW30476   0.713   5.131   0.102
 4445SOL    HW130477   0.649   5.060   0.103
 4445SOL    HW230478   0.765   5.117   0.023
 4446SOL     OW30479   1.499   5.940   0.329
 4446SOL    HW130480   1.572   6.002   0.333
 4446SOL    HW230481   1.509   5.895   0.246
 4447SOL     OW30482   2.470   5.139   6.593
 4447SOL    HW130483   2.507   5.060   6.633
 4447SOL    HW230484   2.443   5.111   6.506
 4448SOL     OW30485   0.146   3.131   0.579
 4448SOL    HW130486   0.150   3.068   0.507
 4448SOL    HW230487   0.053   3.138   0.600
 4449SOL     OW30488   4.040   4.256   1.231
 4449SOL    HW130489   4.081   4.305   1.302
 4449SOL    HW230490   4.111   4.203   1.195
 4450SOL     OW30491   1.080   0.375   1.431
 4450SOL    HW130492   1.138   0.333   1.368
 4450SOL    HW230493   0.992   0.347   1.405
 4451SOL     OW30494   2.044   1.696   1.460
 4451SOL    HW130495   2.095   1.742   1.526
 4451SOL    HW230496   1.964   1.749   1.451
 4452SOL     OW30497   3.398   3.786   1.812
 4452SOL    HW130498   3.373   3.786   1.720
 4452SOL    HW230499   3.423   3.696   1.830
 4453SOL     OW30500   0.908   2.395   5.484
 4453SOL    HW130501   1.003   2.404   5.476
 4453SOL    HW230502   0.896   2.307   5.521
 4454SOL     OW30503   4.801   4.758   6.990
 4454SOL    HW130504   4.779   4.667   7.008
 4454SOL    HW230505   4.879   4.753   6.935
 4455SOL     OW30506   3.490   3.060   7.695
 4455SOL    HW130507   3.576   3.020   7.703
 4455SOL    HW230508   3.453   3.056   7.783
 4456SOL     OW30509   1.181   4.720   0.503
 4456SOL    HW130510   1.204   4.756   0.417
 4456SOL    HW230511   1.239   4.765   0.564
 4457SOL     OW30512   5.003   4.611   6.480
 4457SOL    HW130513   5.036   4.655   6.402
 4457SOL    HW230514   4.926   4.663   6.506
 4458SOL     OW30515   4.908   2.953   5.021
 4458SOL    HW130516   4.848   2.953   5.095
 4458SOL    HW230517   4.914   3.045   4.995
 4459SOL     OW30518   3.655   2.370   1.527
 4459SOL    HW130519   3.690   2.281   1.518
 4459SOL    HW230520   3.573   2.359   1.576
 4460SOL     OW30521   3.500   4.758   7.193
 4460SOL    HW130522   3.569   4.693   7.185
 4460SOL    HW230523   3.426   4.721   7.144
 4461SOL     OW30524   2.425   3.148   7.272
 4461SOL    HW130525   2.382   3.178   7.193
 4461SOL    HW230526   2.410   3.218   7.336
 4462SOL     OW30527   4.695   2.907   0.877
 4462SOL    HW130528   4.761   2.958   0.831
 4462SOL    HW230529   4.630   2.886   0.810
 4463SOL     OW30530   4.960   0.967   6.558
 4463SOL    HW130531   4.889   0.966   6.623
 4463SOL    HW230532   4.916   0.953   6.474
 4464SOL     OW30533   4.928   1.114   0.269
 4464SOL    HW130534   4.913   1.026   0.304
 4464SOL    HW230535   4.918   1.104   0.174
 4465SOL     OW30536   2.037   0.392   7.573
 4465SOL    HW130537   2.021   0.486   7.581
 4465SOL    HW230538   2.042   0.377   7.478
 4466SOL     OW30539   5.534   2.989   6.760
 4466SOL    HW130540   5.584   2.997   6.678
 4466SOL    HW230541   5.551   3.071   6.806
 4467SOL     OW30542   2.118   1.069   7.678
 4467SOL    HW130543   2.059   1.012   7.727
 4467SOL    HW230544   2.149   1.132   7.743
 4468SOL     OW30545   3.253   2.474   1.336
 4468SOL    HW130546   3.263   2.530   1.259
 4468SOL    HW230547   3.297   2.521   1.406
 4469SOL     OW30548   5.823   2.613   5.865
 4469SOL    HW130549   5.880   2.580   5.935
 4469SOL    HW230550   5.735   2.611   5.904
 4470SOL     OW30551   2.142   6.445   6.932
 4470SOL    HW130552   2.074   6.389   6.970
 4470SOL    HW230553   2.195   6.472   7.007
 4471SOL     OW30554   5.032   2.679   7.539
 4471SOL    HW130555   5.003   2.736   7.610
 4471SOL    HW230556   4.952   2.639   7.506
 4472SOL     OW30557   2.281   2.561   1.908
 4472SOL    HW130558   2.299   2.522   1.994
 4472SOL    HW230559   2.191   2.594   1.915
 4473SOL     OW30560   3.516   1.665   2.632
 4473SOL    HW130561   3.579   1.679   2.561
 4473SOL    HW230562   3.546   1.723   2.702
 4474SOL     OW30563   2.738   1.571   7.320
 4474SOL    HW130564   2.688   1.505   7.274
 4474SOL    HW230565   2.725   1.651   7.269
 4475SOL     OW30566   0.540   2.983   6.064
 4475SOL    HW130567   0.533   2.947   6.153
 4475SOL    HW230568   0.515   3.075   6.073
 4476SOL     OW30569   5.629   3.700   2.227
 4476SOL    HW130570   5.654   3.733   2.313
 4476SOL    HW230571   5.534   3.684   2.234
 4477SOL     OW30572   4.280   4.053   0.758
 4477SOL    HW130573   4.368   4.017   0.772
 4477SOL    HW230574   4.296   4.135   0.711
 4478SOL     OW30575   2.913   4.142   2.440
 4478SOL    HW130576   2.892   4.067   2.384
 4478SOL    HW230577   2.874   4.120   2.524
 4479SOL     OW30578   0.086   6.195   5.653
 4479SOL    HW130579   0.048   6.118   5.696
 4479SOL    HW230580   0.154   6.224   5.714
 4480SOL     OW30581   4.518   5.140   5.880
 4480SOL    HW130582   4.474   5.085   5.815
 4480SOL    HW230583   4.474   5.225   5.873
 4481SOL     OW30584   6.126   5.154   0.408
 4481SOL    HW130585   6.115   5.107   0.326
 4481SOL    HW230586   6.065   5.228   0.402
 4482SOL     OW30587   0.957   0.904   6.662
 4482SOL    HW130588   0.863   0.886   6.660
 4482SOL    HW230589   0.974   0.933   6.752
 4483SOL     OW30590   5.666   1.850   7.062
 4483SOL    HW130591   5.662   1.931   7.113
 4483SOL    HW230592   5.756   1.820   7.072
 4484SOL     OW30593   4.053   3.695   7.405
 4484SOL    HW130594   4.070   3.725   7.494
 4484SOL    HW230595   4.139   3.671   7.371
 4485SOL     OW30596   4.101   2.588   6.070
 4485SOL    HW130597   4.144   2.538   6.140
 4485SOL    HW230598   4.017   2.545   6.059
 4486SOL     OW30599   2.447   0.718   1.356
 4486SOL    HW130600   2.516   0.674   1.407
 4486SOL    HW230601   2.491   0.748   1.277
 4487SOL     OW30602   1.909   0.995   6.572
 4487SOL    HW130603   1.814   0.994   6.565
 4487SOL    HW230604   1.927   1.055   6.645
 4488SOL     OW30605   0.899   1.879   0.301
 4488SOL    HW130606   0.960   1.835   0.359
 4488SOL    HW230607   0.825   1.903   0.357
 4489SOL     OW30608   4.705   0.594   7.003
 4489SOL    HW130609   4.648   0.658   7.044
 4489SOL    HW230610   4.776   0.645   6.965
 4490SOL     OW30611   4.102   2.752   5.852
 4490SOL    HW130612   4.126   2.703   5.930
 4490SOL    HW230613   4.104   2.688   5.781
 4491SOL     OW30614   2.025   5.130   0.541
 4491SOL    HW130615   2.088   5.201   0.549
 4491SOL    HW230616   2.046   5.071   0.614
 4492SOL     OW30617   4.467   3.332   1.786
 4492SOL    HW130618   4.424   3.254   1.752
 4492SOL    HW230619   4.537   3.299   1.842
 4493SOL     OW30620   6.352   3.795   7.451
 4493SOL    HW130621   6.435   3.808   7.406
 4493SOL    HW230622   6.330   3.882   7.486
 4494SOL     OW30623   1.026   5.062   1.147
 4494SOL    HW130624   0.945   5.111   1.164
 4494SOL    HW230625   1.096   5.126   1.159
 4495SOL     OW30626   0.294   3.523   6.359
 4495SOL    HW130627   0.280   3.440   6.403
 4495SOL    HW230628   0.304   3.500   6.267
 4496SOL     OW30629   0.312   1.656   1.020
 4496SOL    HW130630   0.388   1.675   0.965
 4496SOL    HW230631   0.240   1.701   0.977
 4497SOL     OW30632   6.185   0.631   7.029
 4497SOL    HW130633   6.229   0.709   6.994
 4497SOL    HW230634   6.219   0.559   6.975
 4498SOL     OW30635   6.034   5.548   2.116
 4498SOL    HW130636   6.073   5.563   2.203
 4498SOL    HW230637   5.946   5.585   2.124
 4499SOL     OW30638   2.223   0.156   6.461
 4499SOL    HW130639   2.236   0.132   6.369
 4499SOL    HW230640   2.184   0.078   6.501
 4500SOL     OW30641   1.398   2.726   1.334
 4500SOL    HW130642   1.438   2.738   1.248
 4500SOL    HW230643   1.471   2.729   1.395
 4501SOL     OW30644   5.414   0.325   0.386
 4501SOL    HW130645   5.471   0.391   0.347
 4501SOL    HW230646   5.433   0.329   0.480
 4502SOL     OW30647   1.840   2.874   2.160
 4502SOL    HW130648   1.924   2.832   2.180
 4502SOL    HW230649   1.779   2.802   2.147
 4503SOL     OW30650   0.151   3.033   1.774
 4503SOL    HW130651   0.201   3.089   1.832
 4503SOL    HW230652   0.066   3.024   1.816
 4504SOL     OW30653   4.130   5.314   6.911
 4504SOL    HW130654   4.128   5.223   6.941
 4504SOL    HW230655   4.077   5.315   6.832
 4505SOL     OW30656   0.035   2.469   0.915
 4505SOL    HW130657  -0.032   2.528   0.879
 4505SOL    HW230658   0.111   2.483   0.859
 4506SOL     OW30659   3.297   5.185   7.677
 4506SOL    HW130660   3.364   5.136   7.725
 4506SOL    HW230661   3.234   5.212   7.744
 4507SOL     OW30662   3.703   1.263   6.195
 4507SOL    HW130663   3.672   1.314   6.120
 4507SOL    HW230664   3.708   1.173   6.163
 4508SOL     OW30665   5.282   0.184   0.734
 4508SOL    HW130666   5.312   0.237   0.808
 4508SOL    HW230667   5.248   0.247   0.671
 4509SOL     OW30668   2.484   4.151   6.083
 4509SOL    HW130669   2.575   4.180   6.080
 4509SOL    HW230670   2.487   4.058   6.061
 4510SOL     OW30671   3.084   0.086   6.780
 4510SOL    HW130672   3.005   0.102   6.832
 4510SOL    HW230673   3.058   0.102   6.690
 4511SOL     OW30674   6.293   4.874   1.664
 4511SOL    HW130675   6.339   4.790   1.666
 4511SOL    HW230676   6.362   4.939   1.654
 4512SOL     OW30677   2.411   1.638   7.474
 4512SOL    HW130678   2.452   1.724   7.475
 4512SOL    HW230679   2.436   1.601   7.389
 4513SOL     OW30680   1.770   1.831   0.505
 4513SOL    HW130681   1.753   1.919   0.540
 4513SOL    HW230682   1.708   1.775   0.551
 4514SOL     OW30683   5.988   3.244   7.712
 4514SOL    HW130684   6.051   3.284   7.652
 4514SOL    HW230685   6.037   3.232   7.793
 4515SOL     OW30686   2.467   0.749   5.355
 4515SOL    HW130687   2.383   0.702   5.351
 4515SOL    HW230688   2.451   0.821   5.415
 4516SOL     OW30689   4.003   5.474   7.104
 4516SOL    HW130690   4.042   5.428   7.031
 4516SOL    HW230691   4.062   5.457   7.178
 4517SOL     OW30692   5.441   1.390   0.132
 4517SOL    HW130693   5.431   1.471   0.183
 4517SOL    HW230694   5.409   1.413   0.045
 4518SOL     OW30695   6.253   3.696   1.364
 4518SOL    HW130696   6.219   3.684   1.275
 4518SOL    HW230697   6.200   3.766   1.401
 4519SOL     OW30698   4.258   5.392   1.334
 4519SOL    HW130699   4.230   5.361   1.248
 4519SOL    HW230700   4.262   5.488   1.325
 4520SOL     OW30701   6.431   3.113   2.585
 4520SOL    HW130702   6.374   3.056   2.636
 4520SOL    HW230703   6.516   3.107   2.628
 4521SOL     OW30704   0.675   2.443   5.782
 4521SOL    HW130705   0.665   2.366   5.838
 4521SOL    HW230706   0.728   2.504   5.834
 4522SOL     OW30707   1.683   4.568   5.841
 4522SOL    HW130708   1.749   4.582   5.908
 4522SOL    HW230709   1.709   4.627   5.770
 4523SOL     OW30710   3.633   1.191   1.059
 4523SOL    HW130711   3.680   1.117   1.021
 4523SOL    HW230712   3.548   1.191   1.015
 4524SOL     OW30713   1.165   2.733   2.263
 4524SOL    HW130714   1.248   2.687   2.248
 4524SOL    HW230715   1.185   2.796   2.332
 4525SOL     OW30716   4.498   5.347   7.321
 4525SOL    HW130717   4.445   5.375   7.247
 4525SOL    HW230718   4.517   5.255   7.304
 4526SOL     OW30719   5.430   5.281   7.643
 4526SOL    HW130720   5.418   5.216   7.712
 4526SOL    HW230721   5.493   5.344   7.680
 4527SOL     OW30722   4.072   2.470   1.497
 4527SOL    HW130723   4.109   2.489   1.411
 4527SOL    HW230724   4.147   2.469   1.556
 4528SOL     OW30725   0.475   1.213   1.607
 4528SOL    HW130726   0.492   1.296   1.651
 4528SOL    HW230727   0.559   1.167   1.610
 4529SOL     OW30728   2.278   0.652   1.720
 4529SOL    HW130729   2.216   0.699   1.776
 4529SOL    HW230730   2.330   0.599   1.781
 4530SOL     OW30731   2.802   5.207   6.190
 4530SOL    HW130732   2.776   5.193   6.281
 4530SOL    HW230733   2.898   5.214   6.193
 4531SOL     OW30734   3.606   0.607   0.305
 4531SOL    HW130735   3.528   0.661   0.295
 4531SOL    HW230736   3.674   0.652   0.255
 4532SOL     OW30737   6.201   5.945   7.652
 4532SOL    HW130738   6.122   5.898   7.682
 4532SOL    HW230739   6.208   5.922   7.559
 4533SOL     OW30740   5.340   3.220   2.310
 4533SOL    HW130741   5.407   3.152   2.316
 4533SOL    HW230742   5.296   3.217   2.395
 4534SOL     OW30743   5.237   1.937   1.621
 4534SOL    HW130744   5.169   1.986   1.667
 4534SOL    HW230745   5.203   1.848   1.613
 4535SOL     OW30746   0.602   2.560   1.653
 4535SOL    HW130747   0.652   2.595   1.579
 4535SOL    HW230748   0.624   2.617   1.726
 4536SOL     OW30749   5.259   4.508   2.251
 4536SOL    HW130750   5.291   4.500   2.341
 4536SOL    HW230751   5.321   4.458   2.199
 4537SOL     OW30752   4.961   3.093   2.506
 4537SOL    HW130753   4.980   3.110   2.414
 4537SOL    HW230754   4.956   2.998   2.512
 4538SOL     OW30755   2.203   4.974   6.753
 4538SOL    HW130756   2.230   5.064   6.732
 4538SOL    HW230757   2.158   4.982   6.837
 4539SOL     OW30758   5.905   3.525   1.703
 4539SOL    HW130759   5.830   3.582   1.723
 4539SOL    HW230760   5.978   3.563   1.752
 4540SOL     OW30761   5.797   5.327   0.931
 4540SOL    HW130762   5.756   5.316   1.017
 4540SOL    HW230763   5.849   5.407   0.940
 4541SOL     OW30764   0.253   5.568   1.836
 4541SOL    HW130765   0.179   5.514   1.808
 4541SOL    HW230766   0.326   5.540   1.781
 4542SOL     OW30767   5.054   3.563   0.511
 4542SOL    HW130768   5.046   3.652   0.545
 4542SOL    HW230769   5.147   3.555   0.487
 4543SOL     OW30770   4.559   2.649   6.882
 4543SOL    HW130771   4.621   2.636   6.811
 4543SOL    HW230772   4.511   2.567   6.889
 4544SOL     OW30773   5.487   2.921   6.123
 4544SOL    HW130774   5.472   3.015   6.116
 4544SOL    HW230775   5.515   2.895   6.035
 4545SOL     OW30776   4.475   6.336   1.356
 4545SOL    HW130777   4.479   6.274   1.429
 4545SOL    HW230778   4.414   6.403   1.386
 4546SOL     OW30779   5.824   2.794   5.683
 4546SOL    HW130780   5.868   2.761   5.605
 4546SOL    HW230781   5.840   2.727   5.749
 4547SOL     OW30782   3.505   0.692   6.456
 4547SOL    HW130783   3.456   0.614   6.429
 4547SOL    HW230784   3.596   0.670   6.440
 4548SOL     OW30785   0.993   2.657   1.866
 4548SOL    HW130786   0.910   2.640   1.909
 4548SOL    HW230787   1.017   2.573   1.826
 4549SOL     OW30788   2.404   4.689   2.014
 4549SOL    HW130789   2.350   4.613   1.993
 4549SOL    HW230790   2.375   4.757   1.953
 4550SOL     OW30791   1.569   4.873   6.657
 4550SOL    HW130792   1.625   4.879   6.735
 4550SOL    HW230793   1.566   4.779   6.637
 4551SOL     OW30794   1.597   5.430   7.610
 4551SOL    HW130795   1.590   5.367   7.682
 4551SOL    HW230796   1.507   5.451   7.588
 4552SOL     OW30797   2.335   0.219   0.110
 4552SOL    HW130798   2.307   0.307   0.135
 4552SOL    HW230799   2.323   0.215   0.015
 4553SOL     OW30800   4.546   3.369   6.743
 4553SOL    HW130801   4.465   3.383   6.791
 4553SOL    HW230802   4.546   3.276   6.722
 4554SOL     OW30803   2.804   3.030   1.130
 4554SOL    HW130804   2.726   3.080   1.107
 4554SOL    HW230805   2.846   3.011   1.046
 4555SOL     OW30806   3.918   1.131   7.463
 4555SOL    HW130807   3.941   1.053   7.513
 4555SOL    HW230808   3.837   1.163   7.504
 4556SOL     OW30809   0.157   2.988   0.334
 4556SOL    HW130810   0.190   2.926   0.269
 4556SOL    HW230811   0.198   3.071   0.310
 4557SOL     OW30812   4.658   1.102   7.105
 4557SOL    HW130813   4.606   1.150   7.169
 4557SOL    HW230814   4.605   1.026   7.083
 4558SOL     OW30815   0.736   0.839   1.181
 4558SOL    HW130816   0.666   0.775   1.167
 4558SOL    HW230817   0.784   0.807   1.258
 4559SOL     OW30818   4.640   4.456   6.432
 4559SOL    HW130819   4.565   4.438   6.375
 4559SOL    HW230820   4.715   4.419   6.385
 4560SOL     OW30821   5.468   4.629   0.780
 4560SOL    HW130822   5.472   4.621   0.875
 4560SOL    HW230823   5.515   4.710   0.761
 4561SOL     OW30824   0.258   2.340   0.215
 4561SOL    HW130825   0.234   2.433   0.212
 4561SOL    HW230826   0.176   2.293   0.206
 4562SOL     OW30827   0.116   0.469   0.177
 4562SOL    HW130828   0.121   0.558   0.212
 4562SOL    HW230829   0.072   0.479   0.092
 4563SOL     OW30830   4.160   2.220   5.633
 4563SOL    HW130831   4.187   2.251   5.720
 4563SOL    HW230832   4.234   2.240   5.576
 4564SOL     OW30833   3.211   5.746   0.309
 4564SOL    HW130834   3.253   5.680   0.254
 4564SOL    HW230835   3.118   5.726   0.305
 4565SOL     OW30836   2.835   0.102   6.588
 4565SOL    HW130837   2.799   0.185   6.620
 4565SOL    HW230838   2.840   0.114   6.493
 4566SOL     OW30839   3.765   0.862   5.738
 4566SOL    HW130840   3.734   0.846   5.827
 4566SOL    HW230841   3.852   0.901   5.749
 4567SOL     OW30842   0.536   5.626   6.330
 4567SOL    HW130843   0.607   5.582   6.282
 4567SOL    HW230844   0.580   5.695   6.379
 4568SOL     OW30845   3.125   1.425   7.585
 4568SOL    HW130846   3.041   1.395   7.621
 4568SOL    HW230847   3.101   1.488   7.517
 4569SOL     OW30848   2.703   1.288   1.163
 4569SOL    HW130849   2.782   1.296   1.216
 4569SOL    HW230850   2.724   1.219   1.100
 4570SOL     OW30851   0.015   1.207   7.159
 4570SOL    HW130852  -0.002   1.234   7.249
 4570SOL    HW230853   0.024   1.289   7.111
 4571SOL     OW30854   4.215   6.056   6.765
 4571SOL    HW130855   4.303   6.017   6.760
 4571SOL    HW230856   4.224   6.139   6.718
 4572SOL     OW30857   0.376   1.074   0.509
 4572SOL    HW130858   0.462   1.073   0.469
 4572SOL    HW230859   0.345   0.984   0.504
 4573SOL     OW30860   4.177   2.513   0.170
 4573SOL    HW130861   4.082   2.523   0.166
 4573SOL    HW230862   4.212   2.601   0.155
 4574SOL     OW30863   5.015   0.520   1.498
 4574SOL    HW130864   4.982   0.535   1.586
 4574SOL    HW230865   4.947   0.554   1.441
 4575SOL     OW30866   5.518   2.296   1.188
 4575SOL    HW130867   5.542   2.267   1.100
 4575SOL    HW230868   5.442   2.243   1.210
 4576SOL     OW30869   4.501   2.615   6.171
 4576SOL    HW130870   4.415   2.586   6.201
 4576SOL    HW230871   4.513   2.572   6.086
 4577SOL     OW30872   5.877   5.732   0.507
 4577SOL    HW130873   5.802   5.791   0.500
 4577SOL    HW230874   5.927   5.746   0.426
 4578SOL     OW30875   1.436   3.331   1.448
 4578SOL    HW130876   1.391   3.391   1.507
 4578SOL    HW230877   1.527   3.360   1.449
 4579SOL     OW30878   4.199   5.203   0.899
 4579SOL    HW130879   4.202   5.139   0.971
 4579SOL    HW230880   4.216   5.151   0.820
 4580SOL     OW30881   1.692   1.271   7.281
 4580SOL    HW130882   1.712   1.348   7.228
 4580SOL    HW230883   1.598   1.257   7.270
 4581SOL     OW30884   2.292   2.013   6.439
 4581SOL    HW130885   2.348   2.066   6.495
 4581SOL    HW230886   2.323   1.924   6.451
 4582SOL     OW30887   5.226   5.820   0.359
 4582SOL    HW130888   5.202   5.816   0.267
 4582SOL    HW230889   5.204   5.910   0.385
 4583SOL     OW30890   2.358   1.752   6.417
 4583SOL    HW130891   2.275   1.723   6.380
 4583SOL    HW230892   2.423   1.696   6.374
 4584SOL     OW30893   1.509   2.622   6.253
 4584SOL    HW130894   1.435   2.609   6.312
 4584SOL    HW230895   1.536   2.534   6.228
 4585SOL     OW30896   4.583   3.238   7.477
 4585SOL    HW130897   4.553   3.270   7.392
 4585SOL    HW230898   4.678   3.247   7.475
 4586SOL     OW30899   0.463   1.862   1.171
 4586SOL    HW130900   0.474   1.839   1.078
 4586SOL    HW230901   0.374   1.895   1.177
 4587SOL     OW30902   0.424   2.758   2.156
 4587SOL    HW130903   0.489   2.817   2.118
 4587SOL    HW230904   0.472   2.676   2.170
 4588SOL     OW30905   2.830   3.480   0.227
 4588SOL    HW130906   2.854   3.394   0.261
 4588SOL    HW230907   2.912   3.516   0.193
 4589SOL     OW30908   1.148   4.484   2.139
 4589SOL    HW130909   1.204   4.544   2.188
 4589SOL    HW230910   1.209   4.431   2.087
 4590SOL     OW30911   5.801   3.571   2.065
 4590SOL    HW130912   5.734   3.621   2.111
 4590SOL    HW230913   5.757   3.538   1.987
 4591SOL     OW30914   2.259   5.252   6.754
 4591SOL    HW130915   2.217   5.313   6.694
 4591SOL    HW230916   2.326   5.209   6.702
 4592SOL     OW30917   3.323   6.398   2.131
 4592SOL    HW130918   3.230   6.375   2.124
 4592SOL    HW230919   3.370   6.317   2.114
 4593SOL     OW30920   4.532   5.525   1.429
 4593SOL    HW130921   4.583   5.479   1.496
 4593SOL    HW230922   4.442   5.522   1.461
 4594SOL     OW30923   0.244   3.900   2.706
 4594SOL    HW130924   0.311   3.831   2.703
 4594SOL    HW230925   0.290   3.976   2.740
 4595SOL     OW30926   2.231   4.008   7.633
 4595SOL    HW130927   2.297   3.995   7.702
 4595SOL    HW230928   2.273   3.975   7.554
 4596SOL     OW30929   2.310   2.451   2.157
 4596SOL    HW130930   2.309   2.356   2.157
 4596SOL    HW230931   2.240   2.476   2.218
 4597SOL     OW30932   4.608   3.894   2.014
 4597SOL    HW130933   4.549   3.904   2.089
 4597SOL    HW230934   4.550   3.887   1.938
 4598SOL     OW30935   3.334   3.938   1.076
 4598SOL    HW130936   3.268   3.900   1.019
 4598SOL    HW230937   3.370   3.864   1.125
 4599SOL     OW30938   4.563   3.297   7.217
 4599SOL    HW130939   4.634   3.279   7.155
 4599SOL    HW230940   4.487   3.251   7.181
 4600SOL     OW30941   4.591   5.535   0.266
 4600SOL    HW130942   4.528   5.575   0.326
 4600SOL    HW230943   4.677   5.564   0.298
 4601SOL     OW30944   2.338   4.269   6.916
 4601SOL    HW130945   2.371   4.341   6.969
 4601SOL    HW230946   2.245   4.264   6.937
 4602SOL     OW30947   4.190   0.908   0.305
 4602SOL    HW130948   4.131   0.908   0.230
 4602SOL    HW230949   4.143   0.955   0.373
 4603SOL     OW30950   0.172   4.351   6.657
 4603SOL    HW130951   0.235   4.337   6.729
 4603SOL    HW230952   0.100   4.291   6.676
 4604SOL     OW30953   0.315   6.180   1.188
 4604SOL    HW130954   0.257   6.152   1.259
 4604SOL    HW230955   0.384   6.229   1.232
 4605SOL     OW30956   1.739   2.496   6.873
 4605SOL    HW130957   1.721   2.580   6.915
 4605SOL    HW230958   1.819   2.465   6.916
 4606SOL     OW30959   3.927   6.093   7.340
 4606SOL    HW130960   3.946   6.036   7.415
 4606SOL    HW230961   3.938   6.182   7.373
 4607SOL     OW30962   4.962   3.196   5.565
 4607SOL    HW130963   4.876   3.155   5.560
 4607SOL    HW230964   4.994   3.174   5.652
 4608SOL     OW30965   2.729   2.177   0.745
 4608SOL    HW130966   2.642   2.153   0.776
 4608SOL    HW230967   2.714   2.223   0.663
 4609SOL     OW30968   5.767   5.291   2.074
 4609SOL    HW130969   5.814   5.319   2.153
 4609SOL    HW230970   5.822   5.321   2.002
 4610SOL     OW30971   2.849   0.118   0.218
 4610SOL    HW130972   2.834   0.143   0.309
 4610SOL    HW230973   2.942   0.099   0.213
 4611SOL     OW30974   6.227   3.145   7.009
 4611SOL    HW130975   6.179   3.062   7.004
 4611SOL    HW230976   6.301   3.133   6.949
 4612SOL     OW30977   3.069   3.855   0.461
 4612SOL    HW130978   3.135   3.789   0.481
 4612SOL    HW230979   3.117   3.938   0.458
 4613SOL     OW30980   1.048   5.850   0.538
 4613SOL    HW130981   1.089   5.899   0.467
 4613SOL    HW230982   0.964   5.821   0.502
 4614SOL     OW30983   1.070   0.841   2.057
 4614SOL    HW130984   0.987   0.803   2.028
 4614SOL    HW230985   1.046   0.896   2.132
 4615SOL     OW30986   0.525   0.098   6.429
 4615SOL    HW130987   0.594   0.154   6.462
 4615SOL    HW230988   0.537   0.099   6.334
 4616SOL     OW30989   3.202   0.499   6.656
 4616SOL    HW130990   3.240   0.509   6.568
 4616SOL    HW230991   3.264   0.543   6.714
 4617SOL     OW30992   3.820   0.346   1.442
 4617SOL    HW130993   3.857   0.432   1.460
 4617SOL    HW230994   3.762   0.360   1.367
 4618SOL     OW30995   5.171   6.094   0.263
 4618SOL    HW130996   5.160   6.116   0.171
 4618SOL    HW230997   5.092   6.129   0.306
 4619SOL     OW30998   6.325   4.998   6.083
 4619SOL    HW130999   6.402   5.053   6.096
 4619SOL    HW231000   6.286   4.990   6.170
 4620SOL     OW31001   1.838   2.112   1.775
 4620SOL    HW131002   1.874   2.167   1.845
 4620SOL    HW231003   1.792   2.042   1.822
 4621SOL     OW31004   5.103   0.232   7.085
 4621SOL    HW131005   5.064   0.204   7.002
 4621SOL    HW231006   5.187   0.271   7.061
 4622SOL     OW31007   4.691   3.875   7.715
 4622SOL    HW131008   4.717   3.960   7.751
 4622SOL    HW231009   4.770   3.842   7.672
 4623SOL     OW31010   0.561   4.368   7.340
 4623SOL    HW131011   0.625   4.375   7.410
 4623SOL    HW231012   0.484   4.413   7.372
 4624SOL     OW31013   5.494   5.747   0.374
 4624SOL    HW131014   5.411   5.793   0.381
 4624SOL    HW231015   5.558   5.806   0.415
 4625SOL     OW31016   0.309   4.500   0.113
 4625SOL    HW131017   0.290   4.472   0.203
 4625SOL    HW231018   0.308   4.419   0.062
 4626SOL     OW31019   0.045   2.299   1.314
 4626SOL    HW131020  -0.043   2.311   1.279
 4626SOL    HW231021   0.101   2.344   1.251
 4627SOL     OW31022   0.440   0.527   0.879
 4627SOL    HW131023   0.373   0.547   0.814
 4627SOL    HW231024   0.394   0.478   0.947
 4628SOL     OW31025   0.808   0.054   6.980
 4628SOL    HW131026   0.841   0.067   7.069
 4628SOL    HW231027   0.850  -0.027   6.950
 4629SOL     OW31028   3.668   3.342   6.842
 4629SOL    HW131029   3.600   3.408   6.832
 4629SOL    HW231030   3.668   3.320   6.936
 4630SOL     OW31031   5.408   3.468   7.397
 4630SOL    HW131032   5.352   3.437   7.468
 4630SOL    HW231033   5.405   3.399   7.331
 4631SOL     OW31034   0.021   0.921   0.421
 4631SOL    HW131035   0.052   1.009   0.404
 4631SOL    HW231036   0.039   0.873   0.340
 4632SOL     OW31037   3.337   5.507   0.730
 4632SOL    HW131038   3.371   5.571   0.793
 4632SOL    HW231039   3.283   5.559   0.670
 4633SOL     OW31040   4.326   3.165   7.000
 4633SOL    HW131041   4.283   3.249   7.015
 4633SOL    HW231042   4.299   3.111   7.074
 4634SOL     OW31043   5.227   0.785   1.170
 4634SOL    HW131044   5.273   0.735   1.237
 4634SOL    HW231045   5.188   0.718   1.113
 4635SOL     OW31046   6.298   2.311   6.438
 4635SOL    HW131047   6.264   2.230   6.401
 4635SOL    HW231048   6.329   2.361   6.363
 4636SOL     OW31049   3.145   2.903   5.843
 4636SOL    HW131050   3.126   2.860   5.926
 4636SOL    HW231051   3.172   2.992   5.868
 4637SOL     OW31052   2.588   1.184   5.959
 4637SOL    HW131053   2.552   1.258   5.910
 4637SOL    HW231054   2.541   1.186   6.043
 4638SOL     OW31055   0.829   1.738   6.686
 4638SOL    HW131056   0.897   1.790   6.729
 4638SOL    HW231057   0.793   1.683   6.756
 4639SOL     OW31058   3.363   4.735   0.528
 4639SOL    HW131059   3.329   4.712   0.442
 4639SOL    HW231060   3.406   4.820   0.516
 4640SOL     OW31061   2.266   5.388   1.445
 4640SOL    HW131062   2.211   5.461   1.416
 4640SOL    HW231063   2.233   5.312   1.397
 4641SOL     OW31064   4.663   5.026   6.549
 4641SOL    HW131065   4.624   5.067   6.626
 4641SOL    HW231066   4.648   5.088   6.478
 4642SOL     OW31067   0.083   3.542   1.809
 4642SOL    HW131068   0.030   3.468   1.838
 4642SOL    HW231069   0.032   3.583   1.740
 4643SOL     OW31070   2.284   2.507   0.547
 4643SOL    HW131071   2.200   2.508   0.501
 4643SOL    HW231072   2.289   2.593   0.589
 4644SOL     OW31073   4.080   5.055   0.210
 4644SOL    HW131074   3.994   5.078   0.244
 4644SOL    HW231075   4.134   5.041   0.287
 4645SOL     OW31076   2.864   5.444   7.009
 4645SOL    HW131077   2.880   5.396   6.928
 4645SOL    HW231078   2.799   5.391   7.056
 4646SOL     OW31079   0.062   3.404   1.297
 4646SOL    HW131080   0.102   3.464   1.360
 4646SOL    HW231081   0.092   3.436   1.212
 4647SOL     OW31082   5.367   0.807   6.437
 4647SOL    HW131083   5.449   0.764   6.414
 4647SOL    HW231084   5.300   0.741   6.421
 4648SOL     OW31085   1.975   6.286   7.242
 4648SOL    HW131086   2.057   6.330   7.221
 4648SOL    HW231087   1.911   6.324   7.182
 4649SOL     OW31088   5.253   4.269   7.513
 4649SOL    HW131089   5.331   4.302   7.558
 4649SOL    HW231090   5.233   4.336   7.447
 4650SOL     OW31091   2.742   3.781   7.075
 4650SOL    HW131092   2.739   3.772   7.170
 4650SOL    HW231093   2.789   3.703   7.045
 4651SOL     OW31094   2.397   0.622   7.019
 4651SOL    HW131095   2.311   0.593   6.988
 4651SOL    HW231096   2.456   0.550   6.995
 4652SOL     OW31097   3.269   3.971   1.358
 4652SOL    HW131098   3.258   3.968   1.263
 4652SOL    HW231099   3.212   3.901   1.391
 4653SOL     OW31100   0.444   4.880   6.623
 4653SOL    HW131101   0.500   4.862   6.698
 4653SOL    HW231102   0.382   4.807   6.620
 4654SOL     OW31103   1.555   0.677   7.361
 4654SOL    HW131104   1.548   0.687   7.266
 4654SOL    HW231105   1.479   0.725   7.396
 4655SOL     OW31106   2.204   4.105   1.801
 4655SOL    HW131107   2.241   4.192   1.786
 4655SOL    HW231108   2.165   4.110   1.888
 4656SOL     OW31109   3.161   2.616   7.055
 4656SOL    HW131110   3.121   2.655   7.133
 4656SOL    HW231111   3.206   2.538   7.087
 4657SOL     OW31112   4.715   1.945   0.943
 4657SOL    HW131113   4.639   1.894   0.916
 4657SOL    HW231114   4.741   1.993   0.864
 4658SOL     OW31115   6.381   2.790   0.612
 4658SOL    HW131116   6.437   2.858   0.650
 4658SOL    HW231117   6.320   2.837   0.556
 4659SOL     OW31118   1.144   3.777   5.936
 4659SOL    HW131119   1.080   3.828   5.887
 4659SOL    HW231120   1.226   3.824   5.926
 4660SOL     OW31121   2.481   2.741   1.114
 4660SOL    HW131122   2.406   2.724   1.170
 4660SOL    HW231123   2.505   2.832   1.132
 4661SOL     OW31124   5.328   4.939   7.324
 4661SOL    HW131125   5.287   4.889   7.394
 4661SOL    HW231126   5.418   4.908   7.321
 4662SOL     OW31127   6.060   2.699   7.700
 4662SOL    HW131128   6.087   2.699   7.608
 4662SOL    HW231129   5.967   2.721   7.698
 4663SOL     OW31130   4.017   6.186   0.519
 4663SOL    HW131131   4.099   6.140   0.537
 4663SOL    HW231132   4.035   6.278   0.539
 4664SOL     OW31133   5.175   3.778   6.912
 4664SOL    HW131134   5.261   3.787   6.953
 4664SOL    HW231135   5.164   3.683   6.900
 4665SOL     OW31136   3.139   2.241   6.786
 4665SOL    HW131137   3.161   2.322   6.831
 4665SOL    HW231138   3.123   2.267   6.695
 4666SOL     OW31139   3.848   2.138   1.699
 4666SOL    HW131140   3.755   2.118   1.690
 4666SOL    HW231141   3.891   2.052   1.705
 4667SOL     OW31142   4.370   3.227   1.480
 4667SOL    HW131143   4.355   3.272   1.397
 4667SOL    HW231144   4.293   3.251   1.533
 4668SOL     OW31145   1.511   0.253   7.245
 4668SOL    HW131146   1.582   0.190   7.261
 4668SOL    HW231147   1.471   0.267   7.331
 4669SOL     OW31148   5.661   3.999   1.753
 4669SOL    HW131149   5.745   4.040   1.773
 4669SOL    HW231150   5.596   4.067   1.772
 4670SOL     OW31151   0.515   3.752   1.138
 4670SOL    HW131152   0.562   3.835   1.150
 4670SOL    HW231153   0.513   3.739   1.043
 4671SOL     OW31154   4.189   0.510   1.613
 4671SOL    HW131155   4.277   0.524   1.578
 4671SOL    HW231156   4.180   0.576   1.682
 4672SOL     OW31157   4.656   0.880   0.859
 4672SOL    HW131158   4.593   0.878   0.931
 4672SOL    HW231159   4.613   0.932   0.791
 4673SOL     OW31160   6.331   4.660   5.349
 4673SOL    HW131161   6.272   4.695   5.282
 4673SOL    HW231162   6.296   4.573   5.369
 4674SOL     OW31163   4.440   0.559   1.524
 4674SOL    HW131164   4.456   0.539   1.431
 4674SOL    HW231165   4.508   0.512   1.571
 4675SOL     OW31166   0.613   5.229   7.296
 4675SOL    HW131167   0.626   5.307   7.350
 4675SOL    HW231168   0.527   5.197   7.320
 4676SOL     OW31169   4.929   4.281   2.221
 4676SOL    HW131170   4.882   4.301   2.302
 4676SOL    HW231171   4.862   4.245   2.163
 4677SOL     OW31172   5.383   6.284   0.824
 4677SOL    HW131173   5.401   6.365   0.777
 4677SOL    HW231174   5.470   6.248   0.843
 4678SOL     OW31175   5.882   3.442   1.431
 4678SOL    HW131176   5.902   3.478   1.518
 4678SOL    HW231177   5.954   3.382   1.413
 4679SOL     OW31178   4.076   2.690   0.440
 4679SOL    HW131179   4.062   2.637   0.518
 4679SOL    HW231180   4.169   2.680   0.420
 4680SOL     OW31181   3.172   5.236   0.575
 4680SOL    HW131182   3.160   5.297   0.648
 4680SOL    HW231183   3.267   5.232   0.562
 4681SOL     OW31184   3.962   2.866   7.345
 4681SOL    HW131185   3.870   2.854   7.319
 4681SOL    HW231186   4.005   2.898   7.266
 4682SOL     OW31187   5.897   2.417   6.943
 4682SOL    HW131188   5.912   2.461   6.860
 4682SOL    HW231189   5.827   2.468   6.985
 4683SOL     OW31190   5.303   0.133   6.792
 4683SOL    HW131191   5.223   0.085   6.769
 4683SOL    HW231192   5.350   0.074   6.850
 4684SOL     OW31193   0.311   4.825   1.615
 4684SOL    HW131194   0.339   4.871   1.536
 4684SOL    HW231195   0.230   4.781   1.590
 4685SOL     OW31196   5.545   1.325   6.481
 4685SOL    HW131197   5.566   1.394   6.418
 4685SOL    HW231198   5.544   1.245   6.429
 4686SOL     OW31199   3.315   2.441   0.747
 4686SOL    HW131200   3.312   2.409   0.837
 4686SOL    HW231201   3.229   2.481   0.732
 4687SOL     OW31202   3.612   0.087   1.275
 4687SOL    HW131203   3.646   0.176   1.266
 4687SOL    HW231204   3.681   0.038   1.320
 4688SOL     OW31205   2.150   4.288   0.565
 4688SOL    HW131206   2.197   4.225   0.620
 4688SOL    HW231207   2.124   4.358   0.625
 4689SOL     OW31208   0.761   1.860   6.025
 4689SOL    HW131209   0.697   1.932   6.027
 4689SOL    HW231210   0.816   1.879   5.950
 4690SOL     OW31211   4.940   4.005   1.106
 4690SOL    HW131212   4.902   4.008   1.018
 4690SOL    HW231213   5.009   3.939   1.100
 4691SOL     OW31214   2.192   5.625   0.495
 4691SOL    HW131215   2.192   5.721   0.501
 4691SOL    HW231216   2.267   5.604   0.439
 4692SOL     OW31217   0.039   5.102   7.139
 4692SOL    HW131218   0.117   5.071   7.093
 4692SOL    HW231219  -0.027   5.035   7.120
 4693SOL     OW31220   5.545   4.957   5.700
 4693SOL    HW131221   5.631   4.916   5.708
 4693SOL    HW231222   5.563   5.051   5.705
 4694SOL     OW31223   0.946   2.611   6.296
 4694SOL    HW131224   0.900   2.610   6.212
 4694SOL    HW231225   1.010   2.681   6.288
 4695SOL     OW31226   6.423   1.280   0.580
 4695SOL    HW131227   6.403   1.232   0.660
 4695SOL    HW231228   6.490   1.228   0.536
 4696SOL     OW31229   1.486   3.119   1.248
 4696SOL    HW131230   1.517   3.201   1.211
 4696SOL    HW231231   1.516   3.051   1.188
 4697SOL     OW31232   1.680   6.021   0.797
 4697SOL    HW131233   1.599   5.986   0.835
 4697SOL    HW231234   1.728   5.944   0.768
 4698SOL     OW31235   6.160   2.222   0.293
 4698SOL    HW131236   6.217   2.223   0.369
 4698SOL    HW231237   6.097   2.293   0.310
 4699SOL     OW31238   3.403   2.769   0.878
 4699SOL    HW131239   3.431   2.717   0.803
 4699SOL    HW231240   3.458   2.847   0.876
 4700SOL     OW31241   0.695   3.739   6.280
 4700SOL    HW131242   0.774   3.701   6.242
 4700SOL    HW231243   0.692   3.828   6.244
 4701SOL     OW31244   0.828   0.241   1.412
 4701SOL    HW131245   0.771   0.172   1.380
 4701SOL    HW231246   0.773   0.320   1.412
 4702SOL     OW31247   2.974   3.280   2.158
 4702SOL    HW131248   2.937   3.219   2.222
 4702SOL    HW231249   2.977   3.364   2.204
 4703SOL     OW31250   0.551   2.021   7.080
 4703SOL    HW131251   0.630   2.074   7.067
 4703SOL    HW231252   0.480   2.075   7.047
 4704SOL     OW31253   2.173   2.992   7.452
 4704SOL    HW131254   2.142   3.052   7.520
 4704SOL    HW231255   2.157   3.038   7.370
 4705SOL     OW31256   1.751   1.779   5.847
 4705SOL    HW131257   1.727   1.861   5.804
 4705SOL    HW231258   1.728   1.793   5.939
 4706SOL     OW31259   1.700   3.074   6.663
 4706SOL    HW131260   1.753   3.064   6.742
 4706SOL    HW231261   1.675   3.166   6.662
 4707SOL     OW31262   3.162   5.615   0.550
 4707SOL    HW131263   3.072   5.629   0.518
 4707SOL    HW231264   3.218   5.640   0.477
 4708SOL     OW31265   6.327   3.482   0.155
 4708SOL    HW131266   6.421   3.500   0.144
 4708SOL    HW231267   6.283   3.561   0.123
 4709SOL     OW31268   5.955   0.513   1.704
 4709SOL    HW131269   5.882   0.567   1.672
 4709SOL    HW231270   5.973   0.453   1.632
 4710SOL     OW31271   0.271   2.821   0.557
 4710SOL    HW131272   0.353   2.867   0.539
 4710SOL    HW231273   0.224   2.823   0.474
 4711SOL     OW31274   2.686   5.297   2.701
 4711SOL    HW131275   2.628   5.371   2.720
 4711SOL    HW231276   2.770   5.322   2.740
 4712SOL     OW31277   0.483   6.308   7.181
 4712SOL    HW131278   0.544   6.305   7.255
 4712SOL    HW231279   0.501   6.228   7.132
 4713SOL     OW31280   1.169   5.466   1.441
 4713SOL    HW131281   1.228   5.391   1.441
 4713SOL    HW231282   1.104   5.445   1.509
 4714SOL     OW31283   0.047   2.824   2.393
 4714SOL    HW131284   0.039   2.836   2.488
 4714SOL    HW231285   0.090   2.740   2.383
 4715SOL     OW31286   5.173   1.965   6.226
 4715SOL    HW131287   5.164   2.015   6.146
 4715SOL    HW231288   5.243   2.009   6.275
 4716SOL     OW31289   4.266   4.081   6.916
 4716SOL    HW131290   4.315   4.094   6.834
 4716SOL    HW231291   4.268   4.166   6.959
 4717SOL     OW31292   4.932   6.101   0.015
 4717SOL    HW131293   4.996   6.112  -0.056
 4717SOL    HW231294   4.969   6.033   0.071
 4718SOL     OW31295   6.050   5.663   2.365
 4718SOL    HW131296   6.143   5.672   2.383
 4718SOL    HW231297   6.017   5.604   2.433
 4719SOL     OW31298   4.712   0.143   6.851
 4719SOL    HW131299   4.654   0.203   6.899
 4719SOL    HW231300   4.654   0.073   6.821
 4720SOL     OW31301   2.961   4.697   0.777
 4720SOL    HW131302   2.993   4.750   0.850
 4720SOL    HW231303   2.872   4.674   0.802
 4721SOL     OW31304   6.155   3.259   1.871
 4721SOL    HW131305   6.211   3.291   1.800
 4721SOL    HW231306   6.067   3.254   1.834
 4722SOL     OW31307   4.823   4.238   0.699
 4722SOL    HW131308   4.767   4.263   0.773
 4722SOL    HW231309   4.881   4.314   0.688
 4723SOL     OW31310   2.417   2.579   0.133
 4723SOL    HW131311   2.447   2.669   0.120
 4723SOL    HW231312   2.475   2.526   0.078
 4724SOL     OW31313   1.329   5.260   1.454
 4724SOL    HW131314   1.294   5.180   1.493
 4724SOL    HW231315   1.423   5.256   1.472
 4725SOL     OW31316   6.048   3.609   0.696
 4725SOL    HW131317   5.965   3.591   0.739
 4725SOL    HW231318   6.024   3.638   0.608
 4726SOL     OW31319   1.045   5.764   7.099
 4726SOL    HW131320   1.006   5.744   7.184
 4726SOL    HW231321   0.973   5.756   7.037
 4727SOL     OW31322   1.267   2.573   5.374
 4727SOL    HW131323   1.351   2.591   5.331
 4727SOL    HW231324   1.212   2.648   5.351
 4728SOL     OW31325   4.024   0.649   6.392
 4728SOL    HW131326   4.037   0.585   6.321
 4728SOL    HW231327   4.039   0.734   6.350
 4729SOL     OW31328   5.158   1.854   7.156
 4729SOL    HW131329   5.096   1.870   7.227
 4729SOL    HW231330   5.244   1.858   7.198
 4730SOL     OW31331   3.272   2.109   6.209
 4730SOL    HW131332   3.180   2.126   6.188
 4730SOL    HW231333   3.279   2.014   6.213
 4731SOL     OW31334   5.050   1.645   6.999
 4731SOL    HW131335   5.012   1.603   7.076
 4731SOL    HW231336   5.082   1.729   7.030
 4732SOL     OW31337   0.114   4.368   1.750
 4732SOL    HW131338   0.188   4.402   1.701
 4732SOL    HW231339   0.138   4.381   1.842
 4733SOL     OW31340   1.783   4.022   2.279
 4733SOL    HW131341   1.824   4.078   2.214
 4733SOL    HW231342   1.787   4.072   2.360
 4734SOL     OW31343   0.839   3.739   0.282
 4734SOL    HW131344   0.838   3.684   0.203
 4734SOL    HW231345   0.747   3.761   0.297
 4735SOL     OW31346   4.842   4.598   1.942
 4735SOL    HW131347   4.826   4.679   1.990
 4735SOL    HW231348   4.917   4.559   1.985
 4736SOL     OW31349   1.876   3.086   6.845
 4736SOL    HW131350   1.891   3.069   6.938
 4736SOL    HW231351   1.949   3.044   6.800
 4737SOL     OW31352   0.565   1.991   7.359
 4737SOL    HW131353   0.560   1.977   7.265
 4737SOL    HW231354   0.650   2.034   7.372
 4738SOL     OW31355   3.843   1.812   6.127
 4738SOL    HW131356   3.796   1.737   6.092
 4738SOL    HW231357   3.905   1.836   6.058
 4739SOL     OW31358   4.768   6.164   2.177
 4739SOL    HW131359   4.765   6.169   2.273
 4739SOL    HW231360   4.676   6.168   2.150
 4740SOL     OW31361   6.189   4.414   6.731
 4740SOL    HW131362   6.136   4.355   6.785
 4740SOL    HW231363   6.261   4.359   6.700
 4741SOL     OW31364   3.125   1.088   7.414
 4741SOL    HW131365   3.047   1.138   7.434
 4741SOL    HW231366   3.144   1.108   7.322
 4742SOL     OW31367   4.314   4.505   5.909
 4742SOL    HW131368   4.359   4.443   5.965
 4742SOL    HW231369   4.226   4.513   5.946
 4743SOL     OW31370   4.474   0.969   0.674
 4743SOL    HW131371   4.475   1.000   0.584
 4743SOL    HW231372   4.407   1.021   0.718
 4744SOL     OW31373   0.556   0.859   0.804
 4744SOL    HW131374   0.596   0.801   0.868
 4744SOL    HW231375   0.569   0.947   0.839
 4745SOL     OW31376   5.015   4.650   5.859
 4745SOL    HW131377   4.935   4.666   5.809
 4745SOL    HW231378   5.027   4.730   5.910
 4746SOL     OW31379   2.117   1.406   0.049
 4746SOL    HW131380   2.167   1.454  -0.017
 4746SOL    HW231381   2.174   1.331   0.071
 4747SOL     OW31382   5.857   0.532   6.440
 4747SOL    HW131383   5.813   0.579   6.369
 4747SOL    HW231384   5.790   0.523   6.508
 4748SOL     OW31385   6.355   4.153   6.064
 4748SOL    HW131386   6.358   4.241   6.027
 4748SOL    HW231387   6.446   4.134   6.087
 4749SOL     OW31388   1.527   0.021   1.650
 4749SOL    HW131389   1.541  -0.072   1.638
 4749SOL    HW231390   1.437   0.028   1.681
 4750SOL     OW31391   5.968   2.417   0.467
 4750SOL    HW131392   5.883   2.410   0.425
 4750SOL    HW231393   5.962   2.495   0.522
 4751SOL     OW31394   4.900   3.549   7.335
 4751SOL    HW131395   4.983   3.594   7.351
 4751SOL    HW231396   4.890   3.549   7.240
 4752SOL     OW31397   3.397   6.044   7.663
 4752SOL    HW131398   3.469   5.981   7.653
 4752SOL    HW231399   3.335   6.001   7.721
 4753SOL     OW31400   0.836   3.581   1.014
 4753SOL    HW131401   0.813   3.522   0.942
 4753SOL    HW231402   0.845   3.667   0.972
 4754SOL     OW31403   5.410   2.758   0.323
 4754SOL    HW131404   5.397   2.695   0.394
 4754SOL    HW231405   5.331   2.750   0.270
 4755SOL     OW31406   3.009   4.653   1.261
 4755SOL    HW131407   2.995   4.672   1.354
 4755SOL    HW231408   3.036   4.561   1.260
 4756SOL     OW31409   1.242   5.688   0.004
 4756SOL    HW131410   1.311   5.749  -0.023
 4756SOL    HW231411   1.249   5.684   0.099
 4757SOL     OW31412   1.342   0.862   6.718
 4757SOL    HW131413   1.345   0.767   6.732
 4757SOL    HW231414   1.353   0.899   6.805
 4758SOL     OW31415   2.727   0.888   5.355
 4758SOL    HW131416   2.658   0.838   5.313
 4758SOL    HW231417   2.802   0.829   5.358
 4759SOL     OW31418   3.911   2.119   7.687
 4759SOL    HW131419   3.928   2.028   7.661
 4759SOL    HW231420   3.897   2.165   7.604
 4760SOL     OW31421   4.604   3.562   7.306
 4760SOL    HW131422   4.690   3.575   7.346
 4760SOL    HW231423   4.601   3.468   7.284
 4761SOL     OW31424   2.915   1.443   5.548
 4761SOL    HW131425   2.851   1.397   5.493
 4761SOL    HW231426   2.998   1.432   5.503
 4762SOL     OW31427   1.420   3.121   7.494
 4762SOL    HW131428   1.415   3.078   7.409
 4762SOL    HW231429   1.513   3.143   7.505
 4763SOL     OW31430   5.725   4.095   0.651
 4763SOL    HW131431   5.635   4.086   0.618
 4763SOL    HW231432   5.724   4.178   0.699
 4764SOL     OW31433   4.512   3.792   0.433
 4764SOL    HW131434   4.543   3.805   0.344
 4764SOL    HW231435   4.453   3.717   0.428
 4765SOL     OW31436   4.128   4.466   1.346
 4765SOL    HW131437   4.216   4.501   1.332
 4765SOL    HW231438   4.072   4.519   1.290
 4766SOL     OW31439   0.206   3.411   7.587
 4766SOL    HW131440   0.286   3.448   7.552
 4766SOL    HW231441   0.219   3.316   7.583
 4767SOL     OW31442   2.596   3.676   6.788
 4767SOL    HW131443   2.565   3.752   6.740
 4767SOL    HW231444   2.607   3.707   6.878
 4768SOL     OW31445   2.031   6.162   6.906
 4768SOL    HW131446   1.979   6.203   6.837
 4768SOL    HW231447   1.969   6.106   6.953
 4769SOL     OW31448   0.301   3.677   6.006
 4769SOL    HW131449   0.371   3.710   6.063
 4769SOL    HW231450   0.310   3.582   6.009
 4770SOL     OW31451   3.747   2.247   2.682
 4770SOL    HW131452   3.781   2.247   2.772
 4770SOL    HW231453   3.670   2.305   2.686
 4771SOL     OW31454   5.851   3.260   0.371
 4771SOL    HW131455   5.940   3.272   0.404
 4771SOL    HW231456   5.832   3.340   0.323
 4772SOL     OW31457   3.972   5.922   0.155
 4772SOL    HW131458   4.048   5.867   0.173
 4772SOL    HW231459   3.991   5.962   0.070
 4773SOL     OW31460   4.879   4.766   1.279
 4773SOL    HW131461   4.963   4.721   1.266
 4773SOL    HW231462   4.873   4.778   1.374
 4774SOL     OW31463   2.523   3.807   7.696
 4774SOL    HW131464   2.489   3.731   7.743
 4774SOL    HW231465   2.503   3.881   7.753
 4775SOL     OW31466   5.723   5.160   0.008
 4775SOL    HW131467   5.716   5.214  -0.071
 4775SOL    HW231468   5.749   5.074  -0.025
 4776SOL     OW31469   1.992   3.951   0.763
 4776SOL    HW131470   2.014   3.903   0.683
 4776SOL    HW231471   2.076   3.980   0.797
 4777SOL     OW31472   3.166   5.939   0.028
 4777SOL    HW131473   3.084   5.984   0.010
 4777SOL    HW231474   3.148   5.847   0.013
 4778SOL     OW31475   5.697   0.819   6.563
 4778SOL    HW131476   5.644   0.782   6.492
 4778SOL    HW231477   5.634   0.858   6.623
 4779SOL     OW31478   1.952   0.558   1.231
 4779SOL    HW131479   2.001   0.476   1.234
 4779SOL    HW231480   1.941   0.576   1.138
 4780SOL     OW31481   1.847   0.365   7.340
 4780SOL    HW131482   1.826   0.391   7.250
 4780SOL    HW231483   1.765   0.379   7.388
 4781SOL     OW31484   3.736   1.993   6.293
 4781SOL    HW131485   3.772   1.915   6.251
 4781SOL    HW231486   3.645   1.969   6.313
 4782SOL     OW31487   4.269   5.836   7.120
 4782SOL    HW131488   4.208   5.800   7.055
 4782SOL    HW231489   4.352   5.843   7.074
 4783SOL     OW31490   6.221   5.222   2.347
 4783SOL    HW131491   6.150   5.222   2.411
 4783SOL    HW231492   6.184   5.265   2.270
 4784SOL     OW31493   2.955   1.803   2.693
 4784SOL    HW131494   2.932   1.896   2.692
 4784SOL    HW231495   2.933   1.772   2.605
 4785SOL     OW31496   0.499   0.195   1.090
 4785SOL    HW131497   0.489   0.110   1.134
 4785SOL    HW231498   0.481   0.260   1.159
 4786SOL     OW31499   6.085   6.151   0.365
 4786SOL    HW131500   6.039   6.118   0.442
 4786SOL    HW231501   6.060   6.244   0.361
 4787SOL     OW31502   6.215   6.034   6.719
 4787SOL    HW131503   6.300   6.076   6.730
 4787SOL    HW231504   6.192   6.002   6.806
 4788SOL     OW31505   5.121   0.896   0.934
 4788SOL    HW131506   5.027   0.879   0.922
 4788SOL    HW231507   5.142   0.857   1.019
 4789SOL     OW31508   4.961   4.094   6.944
 4789SOL    HW131509   5.056   4.100   6.955
 4789SOL    HW231510   4.949   4.058   6.856
 4790SOL     OW31511   3.762   1.939   5.552
 4790SOL    HW131512   3.753   1.861   5.607
 4790SOL    HW231513   3.846   1.977   5.577
 4791SOL     OW31514   4.091   6.247   1.245
 4791SOL    HW131515   4.181   6.219   1.229
 4791SOL    HW231516   4.091   6.280   1.334
 4792SOL     OW31517   5.912   4.919   0.280
 4792SOL    HW131518   5.919   5.006   0.318
 4792SOL    HW231519   5.992   4.874   0.309
 4793SOL     OW31520   2.922   0.300   0.541
 4793SOL    HW131521   3.005   0.263   0.569
 4793SOL    HW231522   2.861   0.225   0.542
 4794SOL     OW31523   2.855   4.158   6.829
 4794SOL    HW131524   2.866   4.071   6.790
 4794SOL    HW231525   2.801   4.142   6.907
 4795SOL     OW31526   5.548   0.638   7.239
 4795SOL    HW131527   5.559   0.619   7.332
 4795SOL    HW231528   5.599   0.570   7.194
 4796SOL     OW31529   4.681   3.306   1.963
 4796SOL    HW131530   4.648   3.356   2.038
 4796SOL    HW231531   4.682   3.215   1.994
 4797SOL     OW31532   0.044   5.930   5.823
 4797SOL    HW131533   0.116   5.884   5.868
 4797SOL    HW231534  -0.032   5.914   5.879
 4798SOL     OW31535   2.355   6.089   7.542
 4798SOL    HW131536   2.438   6.042   7.543
 4798SOL    HW231537   2.365   6.158   7.607
 4799SOL     OW31538   0.524   5.468   1.638
 4799SOL    HW131539   0.453   5.436   1.583
 4799SOL    HW231540   0.591   5.400   1.633
 4800SOL     OW31541   1.607   0.590   0.641
 4800SOL    HW131542   1.573   0.634   0.563
 4800SOL    HW231543   1.582   0.499   0.631
 4801SOL     OW31544   6.109   2.683   7.423
 4801SOL    HW131545   6.175   2.714   7.362
 4801SOL    HW231546   6.097   2.590   7.401
 4802SOL     OW31547   4.839   6.455   7.649
 4802SOL    HW131548   4.759   6.411   7.679
 4802SOL    HW231549   4.909   6.411   7.697
 4803SOL     OW31550   4.817   0.028   0.523
 4803SOL    HW131551   4.906   0.045   0.492
 4803SOL    HW231552   4.801  -0.064   0.504
 4804SOL     OW31553   3.205   0.998   0.465
 4804SOL    HW131554   3.239   0.958   0.386
 4804SOL    HW231555   3.110   0.997   0.454
 4805SOL     OW31556   1.978   0.178   6.191
 4805SOL    HW131557   1.991   0.266   6.157
 4805SOL    HW231558   1.996   0.120   6.117
 4806SOL     OW31559   3.884   6.323   1.667
 4806SOL    HW131560   3.792   6.320   1.692
 4806SOL    HW231561   3.929   6.358   1.744
 4807SOL     OW31562   5.578   5.281   5.448
 4807SOL    HW131563   5.592   5.269   5.542
 4807SOL    HW231564   5.549   5.196   5.417
 4808SOL     OW31565   5.812   5.544   7.442
 4808SOL    HW131566   5.771   5.618   7.487
 4808SOL    HW231567   5.865   5.501   7.509
 4809SOL     OW31568   4.923   3.272   0.152
 4809SOL    HW131569   4.965   3.356   0.169
 4809SOL    HW231570   4.835   3.294   0.123
 4810SOL     OW31571   0.410   1.354   0.988
 4810SOL    HW131572   0.409   1.449   0.977
 4810SOL    HW231573   0.325   1.325   0.956
 4811SOL     OW31574   5.153   0.050   0.968
 4811SOL    HW131575   5.125   0.138   0.944
 4811SOL    HW231576   5.192   0.014   0.889
 4812SOL     OW31577   0.726   4.462   1.599
 4812SOL    HW131578   0.652   4.516   1.628
 4812SOL    HW231579   0.724   4.386   1.656
 4813SOL     OW31580   4.904   6.146   7.288
 4813SOL    HW131581   4.817   6.125   7.253
 4813SOL    HW231582   4.894   6.137   7.382
 4814SOL     OW31583   4.720   1.464   6.722
 4814SOL    HW131584   4.654   1.405   6.684
 4814SOL    HW231585   4.708   1.546   6.675
 4815SOL     OW31586   0.768   4.476   0.709
 4815SOL    HW131587   0.748   4.383   0.723
 4815SOL    HW231588   0.837   4.495   0.772
 4816SOL     OW31589   0.580   0.872   1.470
 4816SOL    HW131590   0.536   0.957   1.469
 4816SOL    HW231591   0.557   0.832   1.386
 4817SOL     OW31592   1.212   4.271   1.004
 4817SOL    HW131593   1.270   4.305   1.073
 4817SOL    HW231594   1.246   4.184   0.985
 4818SOL     OW31595   4.726   6.441   5.590
 4818SOL    HW131596   4.632   6.431   5.576
 4818SOL    HW231597   4.733   6.498   5.666
 4819SOL     OW31598   4.846   3.321   6.569
 4819SOL    HW131599   4.853   3.247   6.629
 4819SOL    HW231600   4.800   3.286   6.493
 4820SOL     OW31601   6.106   4.225   5.628
 4820SOL    HW131602   6.118   4.258   5.717
 4820SOL    HW231603   6.019   4.185   5.630
 4821SOL     OW31604   3.578   5.876   7.496
 4821SOL    HW131605   3.526   5.887   7.416
 4821SOL    HW231606   3.590   5.782   7.505
 4822SOL     OW31607   2.195   5.404   0.260
 4822SOL    HW131608   2.196   5.422   0.166
 4822SOL    HW231609   2.105   5.379   0.279
 4823SOL     OW31610   0.453   1.936   0.452
 4823SOL    HW131611   0.384   1.944   0.386
 4823SOL    HW231612   0.493   1.851   0.434
 4824SOL     OW31613   4.955   2.357   1.960
 4824SOL    HW131614   5.041   2.341   1.997
 4824SOL    HW231615   4.895   2.347   2.034
 4825SOL     OW31616   0.913   6.274   2.413
 4825SOL    HW131617   0.861   6.218   2.356
 4825SOL    HW231618   0.997   6.284   2.368
 4826SOL     OW31619   1.603   0.418   7.475
 4826SOL    HW131620   1.543   0.430   7.549
 4826SOL    HW231621   1.599   0.501   7.427
 4827SOL     OW31622   4.875   0.422   7.733
 4827SOL    HW131623   4.833   0.502   7.763
 4827SOL    HW231624   4.901   0.378   7.814
 4828SOL     OW31625   2.415   4.969   1.317
 4828SOL    HW131626   2.499   5.009   1.295
 4828SOL    HW231627   2.427   4.876   1.299
 4829SOL     OW31628   6.250   3.322   6.002
 4829SOL    HW131629   6.270   3.414   6.019
 4829SOL    HW231630   6.208   3.323   5.915
 4830SOL     OW31631   1.677   3.100   7.263
 4830SOL    HW131632   1.691   3.145   7.347
 4830SOL    HW231633   1.639   3.167   7.206
 4831SOL     OW31634   3.236   5.583   7.144
 4831SOL    HW131635   3.164   5.612   7.089
 4831SOL    HW231636   3.202   5.588   7.233
 4832SOL     OW31637   4.098   2.705   1.093
 4832SOL    HW131638   4.054   2.691   1.009
 4832SOL    HW231639   4.081   2.798   1.113
 4833SOL     OW31640   4.143   1.004   2.530
 4833SOL    HW131641   4.082   0.949   2.579
 4833SOL    HW231642   4.202   1.040   2.595
 4834SOL     OW31643   3.346   1.731   1.218
 4834SOL    HW131644   3.262   1.761   1.185
 4834SOL    HW231645   3.410   1.762   1.153
 4835SOL     OW31646   5.134   0.368   0.600
 4835SOL    HW131647   5.043   0.356   0.627
 4835SOL    HW231648   5.137   0.459   0.569
 4836SOL     OW31649   1.703   3.574   7.273
 4836SOL    HW131650   1.742   3.650   7.229
 4836SOL    HW231651   1.691   3.603   7.364
 4837SOL     OW31652   2.330   5.792   1.482
 4837SOL    HW131653   2.366   5.801   1.571
 4837SOL    HW231654   2.407   5.790   1.426
 4838SOL     OW31655   6.107   4.087   0.567
 4838SOL    HW131656   6.175   4.154   0.562
 4838SOL    HW231657   6.105   4.061   0.659
 4839SOL     OW31658   3.579   1.935   0.259
 4839SOL    HW131659   3.530   1.967   0.334
 4839SOL    HW231660   3.657   1.991   0.256
 4840SOL     OW31661   3.926   1.913   7.490
 4840SOL    HW131662   3.867   1.847   7.526
 4840SOL    HW231663   3.936   1.888   7.398
 4841SOL     OW31664   4.714   5.023   6.991
 4841SOL    HW131665   4.749   4.934   6.996
 4841SOL    HW231666   4.684   5.042   7.080
 4842SOL     OW31667   2.560   4.285   7.189
 4842SOL    HW131668   2.529   4.201   7.155
 4842SOL    HW231669   2.652   4.288   7.165
 4843SOL     OW31670   1.701   2.139   6.563
 4843SOL    HW131671   1.710   2.159   6.470
 4843SOL    HW231672   1.766   2.071   6.580
 4844SOL     OW31673   5.313   2.734   6.806
 4844SOL    HW131674   5.365   2.812   6.788
 4844SOL    HW231675   5.233   2.766   6.847
 4845SOL     OW31676   5.502   3.675   7.231
 4845SOL    HW131677   5.591   3.696   7.202
 4845SOL    HW231678   5.511   3.654   7.324
 4846SOL     OW31679   4.694   4.644   0.231
 4846SOL    HW131680   4.775   4.608   0.267
 4846SOL    HW231681   4.679   4.593   0.151
 4847SOL     OW31682   1.862   5.152   0.903
 4847SOL    HW131683   1.866   5.234   0.953
 4847SOL    HW231684   1.825   5.088   0.964
 4848SOL     OW31685   0.667   2.977   6.851
 4848SOL    HW131686   0.580   2.939   6.840
 4848SOL    HW231687   0.680   2.981   6.945
 4849SOL     OW31688   4.774   3.569   0.521
 4849SOL    HW131689   4.766   3.664   0.516
 4849SOL    HW231690   4.861   3.550   0.486
 4850SOL     OW31691   1.505   3.442   2.647
 4850SOL    HW131692   1.596   3.456   2.673
 4850SOL    HW231693   1.471   3.529   2.629
 4851SOL     OW31694   1.151   5.155   0.782
 4851SOL    HW131695   1.065   5.190   0.803
 4851SOL    HW231696   1.208   5.187   0.853
 4852SOL     OW31697   3.602   4.124   2.692
 4852SOL    HW131698   3.647   4.076   2.622
 4852SOL    HW231699   3.534   4.064   2.722
 4853SOL     OW31700   4.812   4.105   1.313
 4853SOL    HW131701   4.807   4.029   1.371
 4853SOL    HW231702   4.856   4.072   1.234
 4854SOL     OW31703   1.544   1.297   0.950
 4854SOL    HW131704   1.540   1.381   0.996
 4854SOL    HW231705   1.458   1.289   0.907
 4855SOL     OW31706   1.240   0.813   0.970
 4855SOL    HW131707   1.307   0.843   1.032
 4855SOL    HW231708   1.245   0.874   0.897
 4856SOL     OW31709   0.496   1.777   6.055
 4856SOL    HW131710   0.570   1.741   6.006
 4856SOL    HW231711   0.483   1.864   6.018
 4857SOL     OW31712   4.126   1.016   1.530
 4857SOL    HW131713   4.184   0.959   1.478
 4857SOL    HW231714   4.142   0.989   1.620
 4858SOL     OW31715   3.494   4.680   7.653
 4858SOL    HW131716   3.573   4.678   7.707
 4858SOL    HW231717   3.472   4.588   7.639
 4859SOL     OW31718   3.666   4.622   5.964
 4859SOL    HW131719   3.690   4.712   5.943
 4859SOL    HW231720   3.642   4.583   5.880
 4860SOL     OW31721   1.641   4.183   0.549
 4860SOL    HW131722   1.575   4.182   0.618
 4860SOL    HW231723   1.657   4.090   0.530
 4861SOL     OW31724   2.341   3.317   1.453
 4861SOL    HW131725   2.308   3.384   1.394
 4861SOL    HW231726   2.266   3.258   1.467
 4862SOL     OW31727   4.176   1.178   0.062
 4862SOL    HW131728   4.168   1.182  -0.034
 4862SOL    HW231729   4.270   1.176   0.078
 4863SOL     OW31730   1.510   1.370   0.463
 4863SOL    HW131731   1.574   1.360   0.534
 4863SOL    HW231732   1.469   1.284   0.455
 4864SOL     OW31733   5.089   3.482   2.285
 4864SOL    HW131734   5.016   3.422   2.298
 4864SOL    HW231735   5.117   3.506   2.373
 4865SOL     OW31736   1.092   0.714   7.269
 4865SOL    HW131737   1.005   0.732   7.304
 4865SOL    HW231738   1.078   0.700   7.175
 4866SOL     OW31739   2.238   4.080   7.255
 4866SOL    HW131740   2.242   4.159   7.310
 4866SOL    HW231741   2.165   4.030   7.291
 4867SOL     OW31742   6.430   1.871   1.217
 4867SOL    HW131743   6.351   1.923   1.202
 4867SOL    HW231744   6.400   1.780   1.209
 4868SOL     OW31745   3.407   4.190   1.196
 4868SOL    HW131746   3.429   4.258   1.134
 4868SOL    HW231747   3.387   4.113   1.142
 4869SOL     OW31748   4.149   1.508   7.564
 4869SOL    HW131749   4.138   1.578   7.628
 4869SOL    HW231750   4.229   1.463   7.591
 4870SOL     OW31751   0.601   1.406   7.218
 4870SOL    HW131752   0.585   1.490   7.261
 4870SOL    HW231753   0.513   1.373   7.196
 4871SOL     OW31754   6.351   1.090   7.464
 4871SOL    HW131755   6.331   1.181   7.442
 4871SOL    HW231756   6.270   1.043   7.448
 4872SOL     OW31757   0.031   5.245   1.279
 4872SOL    HW131758  -0.029   5.238   1.205
 4872SOL    HW231759  -0.024   5.267   1.353
 4873SOL     OW31760   3.558   1.986   7.727
 4873SOL    HW131761   3.527   2.071   7.698
 4873SOL    HW231762   3.531   1.980   7.818
 4874SOL     OW31763   0.642   3.803   6.762
 4874SOL    HW131764   0.665   3.889   6.797
 4874SOL    HW231765   0.634   3.816   6.668
 4875SOL     OW31766   6.084   3.266   5.770
 4875SOL    HW131767   6.022   3.195   5.758
 4875SOL    HW231768   6.162   3.238   5.723
 4876SOL     OW31769   1.568   1.657   0.936
 4876SOL    HW131770   1.563   1.600   1.013
 4876SOL    HW231771   1.492   1.714   0.943
 4877SOL     OW31772   4.561   3.783   0.180
 4877SOL    HW131773   4.526   3.694   0.176
 4877SOL    HW231774   4.585   3.803   0.090
 4878SOL     OW31775   4.793   2.406   7.647
 4878SOL    HW131776   4.761   2.462   7.577
 4878SOL    HW231777   4.888   2.417   7.647
 4879SOL     OW31778   4.343   1.154   7.147
 4879SOL    HW131779   4.340   1.236   7.197
 4879SOL    HW231780   4.334   1.181   7.056
 4880SOL     OW31781   4.634   5.445   5.720
 4880SOL    HW131782   4.551   5.410   5.752
 4880SOL    HW231783   4.670   5.375   5.665
 4881SOL     OW31784   4.990   0.217   0.167
 4881SOL    HW131785   4.901   0.182   0.160
 4881SOL    HW231786   5.010   0.214   0.260
 4882SOL     OW31787   1.403   4.072   1.490
 4882SOL    HW131788   1.384   4.076   1.396
 4882SOL    HW231789   1.466   4.000   1.499
 4883SOL     OW31790   0.082   5.396   2.180
 4883SOL    HW131791  -0.001   5.369   2.219
 4883SOL    HW231792   0.138   5.415   2.254
 4884SOL     OW31793   2.172   3.171   7.648
 4884SOL    HW131794   2.181   3.155   7.741
 4884SOL    HW231795   2.225   3.250   7.632
 4885SOL     OW31796   0.660   4.896   1.359
 4885SOL    HW131797   0.710   4.887   1.440
 4885SOL    HW231798   0.726   4.893   1.290
 4886SOL     OW31799   0.005   6.041   1.076
 4886SOL    HW131800   0.033   5.950   1.091
 4886SOL    HW231801   0.085   6.087   1.051
 4887SOL     OW31802   2.031   5.100   6.316
 4887SOL    HW131803   2.070   5.013   6.303
 4887SOL    HW231804   2.080   5.157   6.256
 4888SOL     OW31805   1.134   2.395   1.923
 4888SOL    HW131806   1.088   2.364   1.845
 4888SOL    HW231807   1.087   2.356   1.997
 4889SOL     OW31808   5.509   5.173   1.931
 4889SOL    HW131809   5.553   5.178   2.016
 4889SOL    HW231810   5.421   5.206   1.949
 4890SOL     OW31811   5.653   0.556   6.650
 4890SOL    HW131812   5.562   0.585   6.650
 4890SOL    HW231813   5.681   0.568   6.741
 4891SOL     OW31814   6.418   0.255   0.302
 4891SOL    HW131815   6.391   0.274   0.212
 4891SOL    HW231816   6.513   0.256   0.299
 4892SOL     OW31817   4.538   5.825   7.009
 4892SOL    HW131818   4.613   5.827   6.949
 4892SOL    HW231819   4.545   5.740   7.054
 4893SOL     OW31820   2.021   4.482   7.651
 4893SOL    HW131821   1.936   4.466   7.692
 4893SOL    HW231822   2.070   4.533   7.716
 4894SOL     OW31823   2.888   2.330   0.213
 4894SOL    HW131824   2.851   2.267   0.274
 4894SOL    HW231825   2.856   2.302   0.127
 4895SOL     OW31826   3.637   4.241   1.700
 4895SOL    HW131827   3.683   4.167   1.661
 4895SOL    HW231828   3.572   4.202   1.758
 4896SOL     OW31829   3.728   1.900   2.336
 4896SOL    HW131830   3.801   1.956   2.309
 4896SOL    HW231831   3.657   1.923   2.277
 4897SOL     OW31832   5.111   1.123   0.615
 4897SOL    HW131833   5.202   1.122   0.646
 4897SOL    HW231834   5.067   1.058   0.670
 4898SOL     OW31835   2.270   1.596   5.758
 4898SOL    HW131836   2.307   1.609   5.671
 4898SOL    HW231837   2.178   1.622   5.750
 4899SOL     OW31838   3.473   1.094   1.853
 4899SOL    HW131839   3.422   1.029   1.805
 4899SOL    HW231840   3.554   1.049   1.877
 4900SOL     OW31841   1.442   1.693   1.414
 4900SOL    HW131842   1.500   1.652   1.479
 4900SOL    HW231843   1.427   1.625   1.349
 4901SOL     OW31844   6.097   1.411   1.289
 4901SOL    HW131845   6.068   1.467   1.361
 4901SOL    HW231846   6.163   1.353   1.328
 4902SOL     OW31847   3.871   5.025   7.190
 4902SOL    HW131848   3.887   4.952   7.249
 4902SOL    HW231849   3.825   4.986   7.116
 4903SOL     OW31850   1.810   2.324   1.059
 4903SOL    HW131851   1.731   2.378   1.053
 4903SOL    HW231852   1.825   2.315   1.153
 4904SOL     OW31853   0.514   4.161   6.519
 4904SOL    HW131854   0.592   4.156   6.463
 4904SOL    HW231855   0.546   4.202   6.600
 4905SOL     OW31856   3.316   2.808   6.834
 4905SOL    HW131857   3.321   2.790   6.928
 4905SOL    HW231858   3.264   2.888   6.828
 4906SOL     OW31859   4.080   5.107   6.406
 4906SOL    HW131860   4.090   5.044   6.335
 4906SOL    HW231861   4.126   5.185   6.376
 4907SOL     OW31862   5.099   4.116   6.224
 4907SOL    HW131863   5.104   4.100   6.130
 4907SOL    HW231864   5.081   4.210   6.232
 4908SOL     OW31865   1.383   0.998   6.967
 4908SOL    HW131866   1.311   1.058   6.986
 4908SOL    HW231867   1.460   1.040   7.006
 4909SOL     OW31868   5.840   3.030   0.207
 4909SOL    HW131869   5.860   3.100   0.269
 4909SOL    HW231870   5.757   3.056   0.168
 4910SOL     OW31871   3.768   3.696   1.256
 4910SOL    HW131872   3.788   3.784   1.224
 4910SOL    HW231873   3.675   3.684   1.237
 4911SOL     OW31874   6.382   0.195   7.205
 4911SOL    HW131875   6.471   0.175   7.177
 4911SOL    HW231876   6.326   0.158   7.137
 4912SOL     OW31877   1.913   3.404   0.347
 4912SOL    HW131878   1.844   3.459   0.385
 4912SOL    HW231879   1.890   3.397   0.255
 4913SOL     OW31880   0.279   5.294   7.039
 4913SOL    HW131881   0.241   5.373   7.078
 4913SOL    HW231882   0.362   5.324   7.001
 4914SOL     OW31883   6.325   5.666   2.484
 4914SOL    HW131884   6.302   5.582   2.523
 4914SOL    HW231885   6.419   5.658   2.466
 4915SOL     OW31886   2.683   0.271   2.271
 4915SOL    HW131887   2.747   0.334   2.237
 4915SOL    HW231888   2.599   0.299   2.233
 4916SOL     OW31889   1.634   3.668   6.764
 4916SOL    HW131890   1.583   3.598   6.805
 4916SOL    HW231891   1.685   3.624   6.695
 4917SOL     OW31892   2.636   4.402   2.599
 4917SOL    HW131893   2.631   4.331   2.535
 4917SOL    HW231894   2.687   4.366   2.671
 4918SOL     OW31895   1.125   5.479   7.080
 4918SOL    HW131896   1.199   5.462   7.138
 4918SOL    HW231897   1.093   5.565   7.107
 4919SOL     OW31898   2.333   4.573   1.748
 4919SOL    HW131899   2.278   4.495   1.758
 4919SOL    HW231900   2.282   4.644   1.787
 4920SOL     OW31901   0.021   4.261   7.650
 4920SOL    HW131902   0.016   4.166   7.660
 4920SOL    HW231903   0.082   4.290   7.717
 4921SOL     OW31904   2.411   4.874   6.533
 4921SOL    HW131905   2.344   4.835   6.590
 4921SOL    HW231906   2.373   4.870   6.445
 4922SOL     OW31907   2.312   4.825   6.288
 4922SOL    HW131908   2.375   4.889   6.254
 4922SOL    HW231909   2.281   4.778   6.211
 4923SOL     OW31910   6.033   1.169   6.886
 4923SOL    HW131911   5.943   1.178   6.854
 4923SOL    HW231912   6.063   1.085   6.852
 4924SOL     OW31913   4.518   0.382   6.528
 4924SOL    HW131914   4.505   0.472   6.499
 4924SOL    HW231915   4.439   0.337   6.501
 4925SOL     OW31916   0.934   4.262   1.226
 4925SOL    HW131917   0.908   4.310   1.148
 4925SOL    HW231918   0.998   4.319   1.269
 4926SOL     OW31919   5.458   3.438   0.196
 4926SOL    HW131920   5.451   3.452   0.290
 4926SOL    HW231921   5.492   3.521   0.162
 4927SOL     OW31922   2.403   3.765   0.397
 4927SOL    HW131923   2.482   3.760   0.451
 4927SOL    HW231924   2.371   3.854   0.410
 4928SOL     OW31925   2.957   3.734   6.366
 4928SOL    HW131926   2.961   3.789   6.288
 4928SOL    HW231927   3.046   3.702   6.378
 4929SOL     OW31928   2.507   1.001   0.621
 4929SOL    HW131929   2.481   0.921   0.575
 4929SOL    HW231930   2.561   1.048   0.558
 4930SOL     OW31931   1.142   2.419   0.908
 4930SOL    HW131932   1.152   2.409   1.002
 4930SOL    HW231933   1.050   2.442   0.896
 4931SOL     OW31934   3.655   3.042   0.393
 4931SOL    HW131935   3.737   3.067   0.351
 4931SOL    HW231936   3.621   2.971   0.339
 4932SOL     OW31937   6.280   2.241   2.330
 4932SOL    HW131938   6.210   2.296   2.294
 4932SOL    HW231939   6.359   2.272   2.287
 4933SOL     OW31940   6.171   4.854   0.966
 4933SOL    HW131941   6.247   4.907   0.988
 4933SOL    HW231942   6.142   4.885   0.881
 4934SOL     OW31943   1.865   4.557   6.764
 4934SOL    HW131944   1.829   4.533   6.679
 4934SOL    HW231945   1.796   4.536   6.826
 4935SOL     OW31946   6.264   5.393   2.637
 4935SOL    HW131947   6.298   5.310   2.670
 4935SOL    HW231948   6.181   5.370   2.595
 4936SOL     OW31949   4.495   0.828   1.641
 4936SOL    HW131950   4.490   0.732   1.636
 4936SOL    HW231951   4.523   0.845   1.731
 4937SOL     OW31952   2.029   4.377   0.189
 4937SOL    HW131953   1.991   4.429   0.260
 4937SOL    HW231954   2.119   4.409   0.182
 4938SOL     OW31955   2.494   4.836   1.053
 4938SOL    HW131956   2.482   4.775   0.981
 4938SOL    HW231957   2.555   4.901   1.021
 4939SOL     OW31958   3.339   2.512   2.184
 4939SOL    HW131959   3.340   2.590   2.239
 4939SOL    HW231960   3.272   2.455   2.224
 4940SOL     OW31961   2.108   1.531   1.753
 4940SOL    HW131962   2.060   1.559   1.831
 4940SOL    HW231963   2.045   1.541   1.681
 4941SOL     OW31964   2.552   4.185   6.791
 4941SOL    HW131965   2.581   4.269   6.757
 4941SOL    HW231966   2.474   4.205   6.842
 4942SOL     OW31967   5.658   2.956   0.938
 4942SOL    HW131968   5.642   2.943   1.032
 4942SOL    HW231969   5.653   3.051   0.926
 4943SOL     OW31970   0.976   6.452   0.299
 4943SOL    HW131971   1.071   6.439   0.296
 4943SOL    HW231972   0.945   6.388   0.363
 4944SOL     OW31973   0.281   5.332   6.521
 4944SOL    HW131974   0.330   5.392   6.578
 4944SOL    HW231975   0.272   5.252   6.573
 4945SOL     OW31976   0.831   3.648   2.028
 4945SOL    HW131977   0.849   3.742   2.027
 4945SOL    HW231978   0.737   3.642   2.046
 4946SOL     OW31979   0.354   1.346   6.278
 4946SOL    HW131980   0.416   1.419   6.288
 4946SOL    HW231981   0.305   1.345   6.360
 4947SOL     OW31982   4.085   2.040   7.164
 4947SOL    HW131983   4.166   2.005   7.201
 4947SOL    HW231984   4.051   2.099   7.232
 4948SOL     OW31985   5.415   5.325   6.807
 4948SOL    HW131986   5.435   5.390   6.740
 4948SOL    HW231987   5.319   5.319   6.807
 4949SOL     OW31988   3.633   1.664   1.498
 4949SOL    HW131989   3.555   1.691   1.547
 4949SOL    HW231990   3.676   1.600   1.554
 4950SOL     OW31991   2.149   4.127   5.762
 4950SOL    HW131992   2.137   4.212   5.719
 4950SOL    HW231993   2.065   4.083   5.752
 4951SOL     OW31994   4.449   5.498   6.441
 4951SOL    HW131995   4.449   5.534   6.353
 4951SOL    HW231996   4.358   5.475   6.458
 4952SOL     OW31997   5.134   1.327   0.040
 4952SOL    HW131998   5.176   1.348   0.123
 4952SOL    HW231999   5.103   1.411   0.006
 4953SOL     OW32000   1.434   4.869   7.264
 4953SOL    HW132001   1.501   4.809   7.298
 4953SOL    HW232002   1.433   4.853   7.169
 4954SOL     OW32003   0.199   1.710   6.866
 4954SOL    HW132004   0.272   1.672   6.817
 4954SOL    HW232005   0.143   1.749   6.798
 4955SOL     OW32006   2.505   2.514   0.402
 4955SOL    HW132007   2.501   2.531   0.308
 4955SOL    HW232008   2.413   2.517   0.431
 4956SOL     OW32009   2.808   1.225   5.677
 4956SOL    HW132010   2.712   1.231   5.680
 4956SOL    HW232011   2.836   1.309   5.640
 4957SOL     OW32012   1.361   1.686   2.229
 4957SOL    HW132013   1.300   1.759   2.240
 4957SOL    HW232014   1.307   1.614   2.197
 4958SOL     OW32015   4.414   3.858   2.232
 4958SOL    HW132016   4.370   3.780   2.198
 4958SOL    HW232017   4.343   3.911   2.268
 4959SOL     OW32018   1.390   2.921   7.026
 4959SOL    HW132019   1.374   3.010   7.057
 4959SOL    HW232020   1.416   2.932   6.934
 4960SOL     OW32021   4.519   3.037   7.672
 4960SOL    HW132022   4.480   3.112   7.627
 4960SOL    HW232023   4.446   2.977   7.687
 4961SOL     OW32024   5.158   3.643   7.355
 4961SOL    HW132025   5.223   3.616   7.420
 4961SOL    HW232026   5.182   3.733   7.333
 4962SOL     OW32027   3.386   5.714   1.630
 4962SOL    HW132028   3.456   5.658   1.597
 4962SOL    HW232029   3.406   5.801   1.596
 4963SOL     OW32030   5.292   6.214   7.393
 4963SOL    HW132031   5.375   6.260   7.400
 4963SOL    HW232032   5.254   6.247   7.311
 4964SOL     OW32033   5.268   4.843   7.565
 4964SOL    HW132034   5.204   4.775   7.586
 4964SOL    HW232035   5.353   4.799   7.572
 4965SOL     OW32036   3.402   0.339   0.506
 4965SOL    HW132037   3.405   0.277   0.433
 4965SOL    HW232038   3.349   0.412   0.473
 4966SOL     OW32039   0.425   0.848   5.812
 4966SOL    HW132040   0.447   0.781   5.876
 4966SOL    HW232041   0.330   0.857   5.818
 4967SOL     OW32042   5.499   1.481   1.310
 4967SOL    HW132043   5.417   1.492   1.261
 4967SOL    HW232044   5.498   1.390   1.339
 4968SOL     OW32045   3.870   4.629   1.334
 4968SOL    HW132046   3.784   4.669   1.346
 4968SOL    HW232047   3.909   4.630   1.422
 4969SOL     OW32048   0.445   4.612   7.086
 4969SOL    HW132049   0.387   4.676   7.128
 4969SOL    HW232050   0.530   4.625   7.128
 4970SOL     OW32051   4.229   5.871   1.072
 4970SOL    HW132052   4.138   5.900   1.081
 4970SOL    HW232053   4.281   5.947   1.100
 4971SOL     OW32054   5.979   0.264   1.528
 4971SOL    HW132055   5.963   0.192   1.466
 4971SOL    HW232056   6.074   0.265   1.539
 4972SOL     OW32057   2.237   2.967   7.132
 4972SOL    HW132058   2.256   2.969   7.038
 4972SOL    HW232059   2.230   3.059   7.157
 4973SOL     OW32060   4.460   0.075   7.425
 4973SOL    HW132061   4.495  -0.007   7.391
 4973SOL    HW232062   4.403   0.049   7.498
 4974SOL     OW32063   3.958   6.376   7.429
 4974SOL    HW132064   4.019   6.330   7.371
 4974SOL    HW232065   4.013   6.441   7.472
 4975SOL     OW32066   3.526   3.319   7.331
 4975SOL    HW132067   3.455   3.380   7.314
 4975SOL    HW232068   3.565   3.349   7.413
 4976SOL     OW32069   1.605   6.148   2.013
 4976SOL    HW132070   1.587   6.071   2.067
 4976SOL    HW232071   1.686   6.185   2.049
 4977SOL     OW32072   4.457   0.986   2.569
 4977SOL    HW132073   4.541   0.992   2.613
 4977SOL    HW232074   4.393   1.009   2.636
 4978SOL     OW32075   2.838   3.715   7.325
 4978SOL    HW132076   2.896   3.789   7.306
 4978SOL    HW232077   2.879   3.670   7.399
 4979SOL     OW32078   3.831   3.046   0.611
 4979SOL    HW132079   3.751   3.046   0.560
 4979SOL    HW232080   3.898   3.079   0.551
 4980SOL     OW32081   5.698   3.420   6.216
 4980SOL    HW132082   5.778   3.447   6.171
 4980SOL    HW232083   5.690   3.326   6.199
 4981SOL     OW32084   2.186   4.847   0.952
 4981SOL    HW132085   2.235   4.784   0.900
 4981SOL    HW232086   2.166   4.802   1.034
 4982SOL     OW32087   5.715   2.322   0.331
 4982SOL    HW132088   5.708   2.238   0.376
 4982SOL    HW232089   5.684   2.305   0.243
 4983SOL     OW32090   1.742   2.538   7.654
 4983SOL    HW132091   1.746   2.604   7.724
 4983SOL    HW232092   1.678   2.574   7.592
 4984SOL     OW32093   5.855   3.065   7.474
 4984SOL    HW132094   5.874   2.993   7.535
 4984SOL    HW232095   5.862   3.144   7.528
 4985SOL     OW32096   0.708   2.177   0.032
 4985SOL    HW132097   0.728   2.088   0.002
 4985SOL    HW232098   0.706   2.170   0.127
 4986SOL     OW32099   1.892   0.815   5.884
 4986SOL    HW132100   1.925   0.748   5.944
 4986SOL    HW232101   1.932   0.794   5.800
 4987SOL     OW32102   0.672   0.810   6.648
 4987SOL    HW132103   0.687   0.750   6.575
 4987SOL    HW232104   0.583   0.842   6.635
 4988SOL     OW32105   3.784   4.889   0.516
 4988SOL    HW132106   3.761   4.797   0.501
 4988SOL    HW232107   3.719   4.920   0.579
 4989SOL     OW32108   2.758   4.607   5.758
 4989SOL    HW132109   2.681   4.651   5.795
 4989SOL    HW232110   2.729   4.517   5.744
 4990SOL     OW32111   5.624   0.438   7.027
 4990SOL    HW132112   5.670   0.365   6.985
 4990SOL    HW232113   5.532   0.423   7.005
 4991SOL     OW32114   4.335   3.612   1.106
 4991SOL    HW132115   4.404   3.658   1.154
 4991SOL    HW232116   4.350   3.636   1.015
 4992SOL     OW32117   1.028   0.702   7.001
 4992SOL    HW132118   0.934   0.715   7.001
 4992SOL    HW232119   1.054   0.711   6.909
 4993SOL     OW32120   6.394   2.421   6.215
 4993SOL    HW132121   6.338   2.444   6.141
 4993SOL    HW232122   6.479   2.460   6.193
 4994SOL     OW32123   6.124   6.244   7.043
 4994SOL    HW132124   6.095   6.161   7.005
 4994SOL    HW232125   6.062   6.309   7.010
 4995SOL     OW32126   1.997   0.736   6.541
 4995SOL    HW132127   1.996   0.823   6.582
 4995SOL    HW232128   1.932   0.742   6.470
 4996SOL     OW32129   2.576   0.791   0.223
 4996SOL    HW132130   2.498   0.750   0.187
 4996SOL    HW232131   2.614   0.840   0.149
 4997SOL     OW32132   2.787   3.959   1.928
 4997SOL    HW132133   2.870   3.980   1.970
 4997SOL    HW232134   2.761   4.039   1.883
 4998SOL     OW32135   4.278   5.678   1.288
 4998SOL    HW132136   4.270   5.755   1.232
 4998SOL    HW232137   4.266   5.712   1.377
 4999SOL     OW32138   2.130   4.339   1.152
 4999SOL    HW132139   2.149   4.432   1.145
 4999SOL    HW232140   2.141   4.306   1.063
 5000SOL     OW32141   1.189   2.373   0.409
 5000SOL    HW132142   1.178   2.453   0.358
 5000SOL    HW232143   1.100   2.344   0.429
 5001SOL     OW32144   3.967   5.865   6.776
 5001SOL    HW132145   4.038   5.924   6.803
 5001SOL    HW232146   3.952   5.886   6.684
 5002SOL     OW32147   3.435   0.137   7.282
 5002SOL    HW132148   3.423   0.174   7.194
 5002SOL    HW232149   3.349   0.100   7.304
 5003SOL     OW32150   6.406   2.183   0.899
 5003SOL    HW132151   6.375   2.114   0.958
 5003SOL    HW232152   6.444   2.249   0.956
 5004SOL     OW32153   4.431   6.126   1.024
 5004SOL    HW132154   4.371   6.148   0.953
 5004SOL    HW232155   4.505   6.185   1.012
 5005SOL     OW32156   3.945   4.944   0.893
 5005SOL    HW132157   3.957   5.009   0.962
 5005SOL    HW232158   3.857   4.958   0.860
 5006SOL     OW32159   4.980   4.376   1.592
 5006SOL    HW132160   5.045   4.415   1.650
 5006SOL    HW232161   4.970   4.286   1.624
 5007SOL     OW32162   0.582   2.342   2.364
 5007SOL    HW132163   0.567   2.257   2.403
 5007SOL    HW232164   0.582   2.404   2.437
 5008SOL     OW32165   0.926   4.807   2.049
 5008SOL    HW132166   1.021   4.819   2.041
 5008SOL    HW232167   0.895   4.890   2.086
 5009SOL     OW32168   3.610   2.476   1.233
 5009SOL    HW132169   3.620   2.396   1.285
 5009SOL    HW232170   3.557   2.534   1.288
 5010SOL     OW32171   4.999   2.394   0.476
 5010SOL    HW132172   4.915   2.377   0.434
 5010SOL    HW232173   4.986   2.476   0.524
 5011SOL     OW32174   1.145   6.276   6.783
 5011SOL    HW132175   1.166   6.210   6.716
 5011SOL    HW232176   1.137   6.226   6.864
 5012SOL     OW32177   3.631   4.916   2.125
 5012SOL    HW132178   3.617   4.993   2.180
 5012SOL    HW232179   3.661   4.848   2.185
 5013SOL     OW32180   1.087   0.298   0.005
 5013SOL    HW132181   1.027   0.370  -0.018
 5013SOL    HW232182   1.030   0.222   0.014
 5014SOL     OW32183   2.056   2.755   2.271
 5014SOL    HW132184   2.116   2.827   2.249
 5014SOL    HW232185   2.070   2.741   2.365
 5015SOL     OW32186   3.645   3.138   6.646
 5015SOL    HW132187   3.620   3.079   6.717
 5015SOL    HW232188   3.671   3.219   6.690
 5016SOL     OW32189   3.162   3.833   0.894
 5016SOL    HW132190   3.086   3.887   0.874
 5016SOL    HW232191   3.128   3.764   0.951
 5017SOL     OW32192   6.142   4.412   0.811
 5017SOL    HW132193   6.184   4.352   0.873
 5017SOL    HW232194   6.176   4.498   0.835
 5018SOL     OW32195   5.066   0.115   0.445
 5018SOL    HW132196   5.091   0.203   0.475
 5018SOL    HW232197   5.147   0.077   0.413
 5019SOL     OW32198   6.216   2.855   0.390
 5019SOL    HW132199   6.122   2.852   0.405
 5019SOL    HW232200   6.225   2.877   0.298
 5020SOL     OW32201   0.535   3.079   1.773
 5020SOL    HW132202   0.548   3.167   1.809
 5020SOL    HW232203   0.512   3.094   1.682
 5021SOL     OW32204   1.325   4.320   1.995
 5021SOL    HW132205   1.386   4.390   1.971
 5021SOL    HW232206   1.290   4.289   1.912
 5022SOL     OW32207   2.232   0.596   5.370
 5022SOL    HW132208   2.262   0.659   5.436
 5022SOL    HW232209   2.143   0.623   5.350
 5023SOL     OW32210   1.602   0.879   1.468
 5023SOL    HW132211   1.661   0.804   1.463
 5023SOL    HW232212   1.527   0.849   1.518
 5024SOL     OW32213   5.638   1.625   1.104
 5024SOL    HW132214   5.619   1.580   1.186
 5024SOL    HW232215   5.734   1.632   1.103
 5025SOL     OW32216   3.721   2.380   7.710
 5025SOL    HW132217   3.694   2.312   7.771
 5025SOL    HW232218   3.814   2.364   7.696
 5026SOL     OW32219   3.198   2.880   7.636
 5026SOL    HW132220   3.145   2.913   7.708
 5026SOL    HW232221   3.154   2.911   7.557
 5027SOL     OW32222   5.465   0.247   1.563
 5027SOL    HW132223   5.418   0.253   1.645
 5027SOL    HW232224   5.399   0.220   1.499
 5028SOL     OW32225   5.854   5.584   5.772
 5028SOL    HW132226   5.902   5.613   5.850
 5028SOL    HW232227   5.862   5.488   5.774
 5029SOL     OW32228   3.817   4.431   6.088
 5029SOL    HW132229   3.764   4.483   6.027
 5029SOL    HW232230   3.757   4.409   6.159
 5030SOL     OW32231   2.515   1.914   6.867
 5030SOL    HW132232   2.456   1.910   6.943
 5030SOL    HW232233   2.579   1.981   6.890
 5031SOL     OW32234   0.935   3.093   2.074
 5031SOL    HW132235   0.977   3.148   2.141
 5031SOL    HW232236   0.995   3.020   2.061
 5032SOL     OW32237   0.528   0.193   0.562
 5032SOL    HW132238   0.491   0.227   0.644
 5032SOL    HW232239   0.610   0.241   0.551
 5033SOL     OW32240   3.098   2.154   7.301
 5033SOL    HW132241   3.029   2.217   7.321
 5033SOL    HW232242   3.052   2.082   7.258
 5034SOL     OW32243   2.416   4.405   1.456
 5034SOL    HW132244   2.472   4.377   1.383
 5034SOL    HW232245   2.473   4.404   1.532
 5035SOL     OW32246   4.265   5.488   0.053
 5035SOL    HW132247   4.200   5.471   0.121
 5035SOL    HW232248   4.219   5.545  -0.010
 5036SOL     OW32249   4.857   3.819   2.091
 5036SOL    HW132250   4.882   3.743   2.039
 5036SOL    HW232251   4.766   3.837   2.067
 5037SOL     OW32252   1.532   5.184   0.425
 5037SOL    HW132253   1.511   5.224   0.341
 5037SOL    HW232254   1.447   5.172   0.468
 5038SOL     OW32255   6.058   0.265   7.301
 5038SOL    HW132256   6.014   0.186   7.270
 5038SOL    HW232257   6.140   0.234   7.341
 5039SOL     OW32258   3.410   5.712   0.924
 5039SOL    HW132259   3.372   5.673   1.003
 5039SOL    HW232260   3.404   5.806   0.938
 5040SOL     OW32261   4.572   3.584   5.440
 5040SOL    HW132262   4.496   3.526   5.446
 5040SOL    HW232263   4.640   3.538   5.489
 5041SOL     OW32264   0.596   1.610   5.808
 5041SOL    HW132265   0.579   1.515   5.809
 5041SOL    HW232266   0.510   1.648   5.789
 5042SOL     OW32267   1.963   2.170   2.031
 5042SOL    HW132268   1.906   2.193   2.104
 5042SOL    HW232269   2.004   2.087   2.057
 5043SOL     OW32270   1.653   0.941   0.669
 5043SOL    HW132271   1.678   0.965   0.580
 5043SOL    HW232272   1.733   0.909   0.709
 5044SOL     OW32273   2.481   2.475   0.933
 5044SOL    HW132274   2.439   2.511   1.010
 5044SOL    HW232275   2.556   2.532   0.917
 5045SOL     OW32276   0.203   5.672   5.921
 5045SOL    HW132277   0.255   5.595   5.943
 5045SOL    HW232278   0.251   5.746   5.958
 5046SOL     OW32279   0.272   0.896   6.899
 5046SOL    HW132280   0.239   0.975   6.943
 5046SOL    HW232281   0.198   0.866   6.845
 5047SOL     OW32282   2.549   6.331   6.351
 5047SOL    HW132283   2.541   6.357   6.443
 5047SOL    HW232284   2.619   6.386   6.316
 5048SOL     OW32285   5.324   5.650   1.811
 5048SOL    HW132286   5.362   5.664   1.725
 5048SOL    HW232287   5.338   5.557   1.829
 5049SOL     OW32288   1.971   3.355   7.499
 5049SOL    HW132289   2.065   3.353   7.518
 5049SOL    HW232290   1.939   3.432   7.546
 5050SOL     OW32291   4.738   2.992   6.959
 5050SOL    HW132292   4.813   3.012   6.903
 5050SOL    HW232293   4.728   2.897   6.952
 5051SOL     OW32294   5.796   4.048   7.146
 5051SOL    HW132295   5.856   4.120   7.125
 5051SOL    HW232296   5.743   4.081   7.219
 5052SOL     OW32297   3.057   0.521   2.000
 5052SOL    HW132298   3.144   0.501   2.033
 5052SOL    HW232299   3.071   0.584   1.930
 5053SOL     OW32300   0.239   6.382   7.273
 5053SOL    HW132301   0.302   6.349   7.210
 5053SOL    HW232302   0.190   6.305   7.302
 5054SOL     OW32303   0.481   1.597   6.281
 5054SOL    HW132304   0.485   1.661   6.352
 5054SOL    HW232305   0.487   1.649   6.202
 5055SOL     OW32306   2.715   6.400   0.865
 5055SOL    HW132307   2.704   6.361   0.952
 5055SOL    HW232308   2.714   6.325   0.805
 5056SOL     OW32309   0.853   4.492   6.673
 5056SOL    HW132310   0.876   4.435   6.600
 5056SOL    HW232311   0.811   4.568   6.633
 5057SOL     OW32312   5.682   2.010   0.149
 5057SOL    HW132313   5.612   1.979   0.092
 5057SOL    HW232314   5.666   2.104   0.158
 5058SOL     OW32315   2.779   4.616   2.496
 5058SOL    HW132316   2.861   4.578   2.465
 5058SOL    HW232317   2.742   4.550   2.555
 5059SOL     OW32318   5.404   1.481   1.887
 5059SOL    HW132319   5.490   1.450   1.915
 5059SOL    HW232320   5.342   1.421   1.929
 5060SOL     OW32321   1.044   3.248   7.032
 5060SOL    HW132322   0.998   3.186   6.975
 5060SOL    HW232323   0.994   3.329   7.023
 5061SOL     OW32324   1.867   1.011   6.094
 5061SOL    HW132325   1.861   0.936   6.035
 5061SOL    HW232326   1.902   0.975   6.175
 5062SOL     OW32327   3.195   5.499   1.645
 5062SOL    HW132328   3.263   5.438   1.676
 5062SOL    HW232329   3.244   5.571   1.606
 5063SOL     OW32330   1.303   2.131   6.998
 5063SOL    HW132331   1.398   2.139   7.008
 5063SOL    HW232332   1.267   2.197   7.057
 5064SOL     OW32333   5.689   3.689   1.788
 5064SOL    HW132334   5.595   3.710   1.792
 5064SOL    HW232335   5.732   3.774   1.782
 5065SOL     OW32336   6.243   1.814   6.084
 5065SOL    HW132337   6.196   1.802   6.166
 5065SOL    HW232338   6.335   1.802   6.107
 5066SOL     OW32339   6.218   3.349   1.046
 5066SOL    HW132340   6.139   3.390   1.082
 5066SOL    HW232341   6.280   3.421   1.038
 5067SOL     OW32342   4.450   5.632   1.906
 5067SOL    HW132343   4.365   5.639   1.864
 5067SOL    HW232344   4.471   5.721   1.934
 5068SOL     OW32345   6.386   2.665   1.400
 5068SOL    HW132346   6.403   2.637   1.310
 5068SOL    HW232347   6.318   2.605   1.431
 5069SOL     OW32348   5.173   4.204   0.379
 5069SOL    HW132349   5.247   4.144   0.392
 5069SOL    HW232350   5.109   4.152   0.331
 5070SOL     OW32351   0.199   6.270   6.597
 5070SOL    HW132352   0.139   6.340   6.572
 5070SOL    HW232353   0.275   6.283   6.540
 5071SOL     OW32354   3.668   1.284   6.889
 5071SOL    HW132355   3.658   1.335   6.808
 5071SOL    HW232356   3.750   1.237   6.878
 5072SOL     OW32357   2.342   0.208   1.778
 5072SOL    HW132358   2.314   0.264   1.850
 5072SOL    HW232359   2.276   0.222   1.710
 5073SOL     OW32360   0.603   1.338   6.919
 5073SOL    HW132361   0.692   1.307   6.900
 5073SOL    HW232362   0.569   1.274   6.983
 5074SOL     OW32363   0.522   0.260   7.206
 5074SOL    HW132364   0.529   0.231   7.115
 5074SOL    HW232365   0.533   0.355   7.203
 5075SOL     OW32366   2.712   2.643   0.878
 5075SOL    HW132367   2.699   2.701   0.953
 5075SOL    HW232368   2.735   2.702   0.806
 5076SOL     OW32369   0.291   6.067   6.974
 5076SOL    HW132370   0.377   6.041   7.008
 5076SOL    HW232371   0.310   6.122   6.898
 5077SOL     OW32372   0.044   2.319   5.619
 5077SOL    HW132373   0.092   2.275   5.548
 5077SOL    HW232374  -0.048   2.298   5.602
 5078SOL     OW32375   0.474   5.784   1.663
 5078SOL    HW132376   0.555   5.816   1.702
 5078SOL    HW232377   0.496   5.697   1.630
 5079SOL     OW32378   3.355   3.676   1.203
 5079SOL    HW132379   3.359   3.657   1.297
 5079SOL    HW232380   3.436   3.641   1.168
 5080SOL     OW32381   4.577   0.421   1.724
 5080SOL    HW132382   4.520   0.454   1.794
 5080SOL    HW232383   4.644   0.370   1.770
 5081SOL     OW32384   0.998   4.447   0.935
 5081SOL    HW132385   1.057   4.382   0.974
 5081SOL    HW232386   1.052   4.494   0.872
 5082SOL     OW32387   3.072   3.713   1.173
 5082SOL    HW132388   3.166   3.701   1.172
 5082SOL    HW232389   3.035   3.626   1.157
 5083SOL     OW32390   4.509   3.800   1.169
 5083SOL    HW132391   4.471   3.781   1.255
 5083SOL    HW232392   4.493   3.893   1.156
 5084SOL     OW32393   2.214   5.520   2.052
 5084SOL    HW132394   2.187   5.604   2.088
 5084SOL    HW232395   2.224   5.536   1.958
 5085SOL     OW32396   3.852   5.975   0.526
 5085SOL    HW132397   3.771   6.013   0.562
 5085SOL    HW232398   3.916   6.045   0.534
 5086SOL     OW32399   4.154   5.443   7.325
 5086SOL    HW132400   4.146   5.348   7.309
 5086SOL    HW232401   4.209   5.449   7.403
 5087SOL     OW32402   2.741   2.147   7.427
 5087SOL    HW132403   2.759   2.108   7.342
 5087SOL    HW232404   2.699   2.230   7.406
 5088SOL     OW32405   4.504   0.964   1.244
 5088SOL    HW132406   4.447   0.946   1.320
 5088SOL    HW232407   4.546   0.880   1.226
 5089SOL     OW32408   1.077   2.551   7.491
 5089SOL    HW132409   1.081   2.610   7.415
 5089SOL    HW232410   0.989   2.514   7.488
 5090SOL     OW32411   5.843   4.380   1.265
 5090SOL    HW132412   5.894   4.301   1.247
 5090SOL    HW232413   5.882   4.447   1.208
 5091SOL     OW32414   1.591   1.344   7.648
 5091SOL    HW132415   1.605   1.360   7.741
 5091SOL    HW232416   1.642   1.265   7.629
 5092SOL     OW32417   1.548   2.219   1.465
 5092SOL    HW132418   1.488   2.236   1.392
 5092SOL    HW232419   1.574   2.127   1.453
 5093SOL     OW32420   6.096   0.510   6.583
 5093SOL    HW132421   6.010   0.525   6.544
 5093SOL    HW232422   6.116   0.418   6.561
 5094SOL     OW32423   2.327   2.022   7.268
 5094SOL    HW132424   2.340   2.039   7.362
 5094SOL    HW232425   2.316   2.108   7.229
 5095SOL     OW32426   2.799   5.821   0.965
 5095SOL    HW132427   2.821   5.734   0.999
 5095SOL    HW232428   2.881   5.854   0.929
 5096SOL     OW32429   0.896   4.279   6.500
 5096SOL    HW132430   0.838   4.234   6.440
 5096SOL    HW232431   0.930   4.211   6.558
 5097SOL     OW32432   0.073   5.220   0.603
 5097SOL    HW132433   0.029   5.212   0.518
 5097SOL    HW232434   0.092   5.314   0.611
 5098SOL     OW32435   5.213   4.539   0.727
 5098SOL    HW132436   5.174   4.608   0.780
 5098SOL    HW232437   5.307   4.555   0.732
 5099SOL     OW32438   5.547   5.142   2.618
 5099SOL    HW132439   5.523   5.168   2.529
 5099SOL    HW232440   5.643   5.137   2.616
 5100SOL     OW32441   2.564   0.493   0.152
 5100SOL    HW132442   2.521   0.465   0.234
 5100SOL    HW232443   2.499   0.548   0.109
 5101SOL     OW32444   0.944   4.584   1.486
 5101SOL    HW132445   0.876   4.533   1.528
 5101SOL    HW232446   0.907   4.672   1.479
 5102SOL     OW32447   2.428   5.977   6.770
 5102SOL    HW132448   2.425   6.055   6.827
 5102SOL    HW232449   2.517   5.944   6.780
 5103SOL     OW32450   0.856   1.194   0.921
 5103SOL    HW132451   0.780   1.249   0.941
 5103SOL    HW232452   0.820   1.106   0.913
 5104SOL     OW32453   3.101   2.983   1.793
 5104SOL    HW132454   3.049   3.040   1.850
 5104SOL    HW232455   3.176   3.037   1.768
 5105SOL     OW32456   6.227   5.215   0.685
 5105SOL    HW132457   6.183   5.226   0.601
 5105SOL    HW232458   6.156   5.207   0.749
 5106SOL     OW32459   0.976   5.563   0.183
 5106SOL    HW132460   0.985   5.521   0.268
 5106SOL    HW232461   0.941   5.650   0.202
 5107SOL     OW32462   4.467   2.112   6.885
 5107SOL    HW132463   4.515   2.031   6.870
 5107SOL    HW232464   4.397   2.112   6.820
 5108SOL     OW32465   3.989   1.462   6.945
 5108SOL    HW132466   4.077   1.500   6.952
 5108SOL    HW232467   4.000   1.371   6.970
 5109SOL     OW32468   1.690   1.070   1.809
 5109SOL    HW132469   1.621   1.011   1.839
 5109SOL    HW232470   1.771   1.020   1.822
 5110SOL     OW32471   2.369   3.425   6.843
 5110SOL    HW132472   2.310   3.496   6.821
 5110SOL    HW232473   2.413   3.403   6.761
 5111SOL     OW32474   5.876   1.755   7.219
 5111SOL    HW132475   5.797   1.769   7.270
 5111SOL    HW232476   5.870   1.664   7.190
 5112SOL     OW32477   2.504   5.680   6.742
 5112SOL    HW132478   2.574   5.719   6.689
 5112SOL    HW232479   2.474   5.605   6.690
 5113SOL     OW32480   3.055   3.429   5.952
 5113SOL    HW132481   3.093   3.430   6.039
 5113SOL    HW232482   2.961   3.417   5.966
 5114SOL     OW32483   6.334   6.368   6.348
 5114SOL    HW132484   6.359   6.376   6.440
 5114SOL    HW232485   6.314   6.458   6.320
 5115SOL     OW32486   4.242   3.228   7.530
 5115SOL    HW132487   4.211   3.318   7.522
 5115SOL    HW232488   4.242   3.195   7.440
 5116SOL     OW32489   3.175   1.396   0.755
 5116SOL    HW132490   3.242   1.328   0.747
 5116SOL    HW232491   3.150   1.394   0.847
 5117SOL     OW32492   3.958   5.505   1.206
 5117SOL    HW132493   3.952   5.597   1.180
 5117SOL    HW232494   3.997   5.507   1.293
 5118SOL     OW32495   4.419   5.909   0.719
 5118SOL    HW132496   4.457   5.852   0.786
 5118SOL    HW232497   4.377   5.979   0.769
 5119SOL     OW32498   3.391   3.527   1.914
 5119SOL    HW132499   3.313   3.472   1.903
 5119SOL    HW232500   3.447   3.477   1.974
 5120SOL     OW32501   1.949   1.217   6.740
 5120SOL    HW132502   2.041   1.211   6.715
 5120SOL    HW232503   1.949   1.210   6.835
 5121SOL     OW32504   3.224   5.128   0.252
 5121SOL    HW132505   3.319   5.129   0.237
 5121SOL    HW232506   3.202   5.219   0.270
 5122SOL     OW32507   0.131   1.916   1.446
 5122SOL    HW132508   0.086   1.880   1.369
 5122SOL    HW232509   0.167   1.999   1.414
 5123SOL     OW32510   1.544   2.613   0.278
 5123SOL    HW132511   1.476   2.595   0.213
 5123SOL    HW232512   1.506   2.582   0.360
 5124SOL     OW32513   5.235   3.067   0.407
 5124SOL    HW132514   5.326   3.045   0.389
 5124SOL    HW232515   5.186   2.989   0.383
 5125SOL     OW32516   0.849   5.885   1.455
 5125SOL    HW132517   0.799   5.955   1.413
 5125SOL    HW232518   0.826   5.891   1.548
 5126SOL     OW32519   0.034   2.751   0.380
 5126SOL    HW132520   0.013   2.838   0.345
 5126SOL    HW232521  -0.002   2.753   0.469
 5127SOL     OW32522   3.284   0.483   6.108
 5127SOL    HW132523   3.241   0.539   6.043
 5127SOL    HW232524   3.216   0.421   6.135
 5128SOL     OW32525   5.592   2.663   0.082
 5128SOL    HW132526   5.547   2.662  -0.002
 5128SOL    HW232527   5.523   2.683   0.146
 5129SOL     OW32528   2.886   5.599   6.120
 5129SOL    HW132529   2.827   5.544   6.070
 5129SOL    HW232530   2.947   5.539   6.161
 5130SOL     OW32531   0.948   5.647   1.353
 5130SOL    HW132532   0.904   5.730   1.375
 5130SOL    HW232533   1.035   5.673   1.325
 5131SOL     OW32534   2.775   2.760   1.139
 5131SOL    HW132535   2.783   2.850   1.107
 5131SOL    HW232536   2.865   2.727   1.142
 5132SOL     OW32537   5.598   6.272   6.437
 5132SOL    HW132538   5.589   6.205   6.505
 5132SOL    HW232539   5.686   6.260   6.402
 5133SOL     OW32540   1.612   1.659   0.632
 5133SOL    HW132541   1.644   1.568   0.636
 5133SOL    HW232542   1.624   1.692   0.721
 5134SOL     OW32543   2.751   1.593   5.726
 5134SOL    HW132544   2.768   1.679   5.765
 5134SOL    HW232545   2.837   1.562   5.697
 5135SOL     OW32546   0.412   3.471   6.798
 5135SOL    HW132547   0.464   3.414   6.855
 5135SOL    HW232548   0.435   3.560   6.825
 5136SOL     OW32549   4.303   1.406   7.204
 5136SOL    HW132550   4.251   1.384   7.127
 5136SOL    HW232551   4.246   1.460   7.258
 5137SOL     OW32552   2.204   2.347   3.009
 5137SOL    HW132553   2.175   2.431   3.044
 5137SOL    HW232554   2.295   2.362   2.984
 5138SOL     OW32555   0.300   4.426   0.642
 5138SOL    HW132556   0.296   4.380   0.725
 5138SOL    HW232557   0.257   4.510   0.659
 5139SOL     OW32558   3.152   6.094   2.604
 5139SOL    HW132559   3.128   6.062   2.691
 5139SOL    HW232560   3.234   6.141   2.618
 5140SOL     OW32561   2.800   4.983   0.882
 5140SOL    HW132562   2.842   4.899   0.864
 5140SOL    HW232563   2.846   5.017   0.959
 5141SOL     OW32564   5.714   3.629   1.336
 5141SOL    HW132565   5.744   3.713   1.370
 5141SOL    HW232566   5.790   3.571   1.345
 5142SOL     OW32567   5.277   3.223   2.007
 5142SOL    HW132568   5.256   3.265   1.924
 5142SOL    HW232569   5.349   3.275   2.043
 5143SOL     OW32570   4.534   1.878   1.532
 5143SOL    HW132571   4.627   1.874   1.510
 5143SOL    HW232572   4.501   1.952   1.482
 5144SOL     OW32573   5.158   4.993   1.817
 5144SOL    HW132574   5.206   5.006   1.735
 5144SOL    HW232575   5.117   4.908   1.808
 5145SOL     OW32576   0.069   0.899   0.027
 5145SOL    HW132577   0.107   0.918  -0.059
 5145SOL    HW232578   0.049   0.984   0.064
 5146SOL     OW32579   0.019   3.950   7.080
 5146SOL    HW132580   0.102   3.986   7.050
 5146SOL    HW232581   0.041   3.906   7.163
 5147SOL     OW32582   3.462   4.174   7.195
 5147SOL    HW132583   3.432   4.135   7.113
 5147SOL    HW232584   3.382   4.205   7.238
 5148SOL     OW32585   2.329   1.616   0.802
 5148SOL    HW132586   2.290   1.703   0.802
 5148SOL    HW232587   2.403   1.624   0.863
 5149SOL     OW32588   3.869   0.499   7.692
 5149SOL    HW132589   3.903   0.410   7.699
 5149SOL    HW232590   3.904   0.532   7.609
 5150SOL     OW32591   5.306   0.982   1.701
 5150SOL    HW132592   5.338   0.989   1.792
 5150SOL    HW232593   5.384   0.961   1.650
 5151SOL     OW32594   2.416   2.724   1.707
 5151SOL    HW132595   2.413   2.732   1.612
 5151SOL    HW232596   2.482   2.656   1.723
 5152SOL     OW32597   0.661   0.347   1.746
 5152SOL    HW132598   0.595   0.399   1.701
 5152SOL    HW232599   0.679   0.397   1.826
 5153SOL     OW32600   2.441   5.279   7.444
 5153SOL    HW132601   2.469   5.207   7.386
 5153SOL    HW232602   2.354   5.302   7.413
 5154SOL     OW32603   2.635   0.322   1.515
 5154SOL    HW132604   2.625   0.276   1.432
 5154SOL    HW232605   2.624   0.415   1.493
 5155SOL     OW32606   3.660   4.667   0.401
 5155SOL    HW132607   3.576   4.669   0.356
 5155SOL    HW232608   3.683   4.574   0.407
 5156SOL     OW32609   1.561   2.449   1.061
 5156SOL    HW132610   1.522   2.441   1.147
 5156SOL    HW232611   1.521   2.379   1.009
 5157SOL     OW32612   0.381   4.356   1.604
 5157SOL    HW132613   0.443   4.420   1.639
 5157SOL    HW232614   0.353   4.393   1.521
 5158SOL     OW32615   5.235   4.941   0.882
 5158SOL    HW132616   5.168   4.874   0.872
 5158SOL    HW232617   5.279   4.944   0.797
 5159SOL     OW32618   4.578   2.788   1.765
 5159SOL    HW132619   4.509   2.770   1.830
 5159SOL    HW232620   4.592   2.705   1.721
 5160SOL     OW32621   5.048   0.689   6.638
 5160SOL    HW132622   5.093   0.631   6.577
 5160SOL    HW232623   5.025   0.766   6.587
 5161SOL     OW32624   5.162   4.735   1.395
 5161SOL    HW132625   5.223   4.694   1.457
 5161SOL    HW232626   5.151   4.824   1.428
 5162SOL     OW32627   1.774   3.161   1.044
 5162SOL    HW132628   1.835   3.234   1.034
 5162SOL    HW232629   1.694   3.201   1.077
 5163SOL     OW32630   2.297   3.751   0.144
 5163SOL    HW132631   2.342   3.772   0.226
 5163SOL    HW232632   2.214   3.799   0.150
 5164SOL     OW32633   2.720   4.095   5.879
 5164SOL    HW132634   2.804   4.080   5.921
 5164SOL    HW232635   2.664   4.025   5.911
 5165SOL     OW32636   3.873   2.443   6.381
 5165SOL    HW132637   3.883   2.348   6.392
 5165SOL    HW232638   3.813   2.452   6.307
 5166SOL     OW32639   3.344   3.146   0.857
 5166SOL    HW132640   3.436   3.168   0.869
 5166SOL    HW232641   3.301   3.230   0.841
 5167SOL     OW32642   6.084   1.200   6.482
 5167SOL    HW132643   5.990   1.191   6.499
 5167SOL    HW232644   6.089   1.239   6.395
 5168SOL     OW32645   1.650   3.075   0.798
 5168SOL    HW132646   1.699   3.120   0.867
 5168SOL    HW232647   1.705   3.001   0.774
 5169SOL     OW32648   1.485   4.281   0.289
 5169SOL    HW132649   1.452   4.206   0.338
 5169SOL    HW232650   1.572   4.255   0.261
 5170SOL     OW32651   0.543   0.786   0.539
 5170SOL    HW132652   0.536   0.796   0.634
 5170SOL    HW232653   0.588   0.865   0.510
 5171SOL     OW32654   3.202   4.433   1.097
 5171SOL    HW132655   3.160   4.383   1.168
 5171SOL    HW232656   3.266   4.489   1.142
 5172SOL     OW32657   4.087   3.893   0.909
 5172SOL    HW132658   4.095   3.798   0.895
 5172SOL    HW232659   4.169   3.930   0.877
 5173SOL     OW32660   5.949   0.992   0.532
 5173SOL    HW132661   5.962   1.050   0.457
 5173SOL    HW232662   5.913   0.912   0.495
 5174SOL     OW32663   5.875   4.571   2.025
 5174SOL    HW132664   5.794   4.520   2.021
 5174SOL    HW232665   5.860   4.642   1.962
 5175SOL     OW32666   3.553   1.501   0.933
 5175SOL    HW132667   3.620   1.481   0.868
 5175SOL    HW232668   3.600   1.548   1.002
 5176SOL     OW32669   5.971   2.229   2.546
 5176SOL    HW132670   5.964   2.324   2.538
 5176SOL    HW232671   5.953   2.197   2.457
 5177SOL     OW32672   2.249   0.669   1.139
 5177SOL    HW132673   2.243   0.584   1.095
 5177SOL    HW232674   2.249   0.733   1.067
 5178SOL     OW32675   1.600   3.255   0.283
 5178SOL    HW132676   1.646   3.303   0.215
 5178SOL    HW232677   1.611   3.163   0.259
 5179SOL     OW32678   1.894   0.578   1.651
 5179SOL    HW132679   1.854   0.630   1.721
 5179SOL    HW232680   1.964   0.529   1.693
 5180SOL     OW32681   1.778   3.762   6.992
 5180SOL    HW132682   1.723   3.773   6.915
 5180SOL    HW232683   1.856   3.717   6.960
 5181SOL     OW32684   0.615   2.385   6.176
 5181SOL    HW132685   0.613   2.324   6.102
 5181SOL    HW232686   0.568   2.463   6.145
 5182SOL     OW32687   4.891   3.061   0.763
 5182SOL    HW132688   4.974   3.042   0.806
 5182SOL    HW232689   4.890   3.156   0.754
 5183SOL     OW32690   1.867   2.162   0.232
 5183SOL    HW132691   1.812   2.199   0.163
 5183SOL    HW232692   1.882   2.071   0.205
 5184SOL     OW32693   4.019   0.964   5.793
 5184SOL    HW132694   4.035   0.901   5.863
 5184SOL    HW232695   4.107   0.993   5.768
 5185SOL     OW32696   6.459   0.024   7.631
 5185SOL    HW132697   6.372   0.062   7.632
 5185SOL    HW232698   6.513   0.086   7.582
 5186SOL     OW32699   4.015   5.552   6.605
 5186SOL    HW132700   3.983   5.617   6.543
 5186SOL    HW232701   3.957   5.561   6.681
 5187SOL     OW32702   0.138   4.719   2.167
 5187SOL    HW132703   0.120   4.690   2.077
 5187SOL    HW232704   0.188   4.647   2.205
 5188SOL     OW32705   2.799   6.415   1.125
 5188SOL    HW132706   2.807   6.437   1.218
 5188SOL    HW232707   2.870   6.353   1.109
 5189SOL     OW32708   3.131   1.277   1.330
 5189SOL    HW132709   3.204   1.339   1.324
 5189SOL    HW232710   3.173   1.191   1.333
 5190SOL     OW32711   4.946   1.908   7.346
 5190SOL    HW132712   4.888   1.847   7.301
 5190SOL    HW232713   4.887   1.971   7.387
 5191SOL     OW32714   3.152   4.867   7.164
 5191SOL    HW132715   3.178   4.905   7.080
 5191SOL    HW232716   3.184   4.929   7.229
 5192SOL     OW32717   2.090   5.810   1.692
 5192SOL    HW132718   2.098   5.872   1.620
 5192SOL    HW232719   2.010   5.836   1.737
 5193SOL     OW32720   3.136   2.044   2.079
 5193SOL    HW132721   3.213   1.997   2.049
 5193SOL    HW232722   3.064   1.982   2.068
 5194SOL     OW32723   4.871   3.260   5.086
 5194SOL    HW132724   4.844   3.350   5.105
 5194SOL    HW232725   4.931   3.237   5.156
 5195SOL     OW32726   0.161   3.738   5.783
 5195SOL    HW132727   0.235   3.726   5.842
 5195SOL    HW232728   0.141   3.832   5.788
 5196SOL     OW32729   3.064   3.751   6.787
 5196SOL    HW132730   3.000   3.690   6.752
 5196SOL    HW232731   3.049   3.832   6.739
 5197SOL     OW32732   1.637   2.924   1.819
 5197SOL    HW132733   1.574   2.921   1.891
 5197SOL    HW232734   1.618   2.845   1.768
 5198SOL     OW32735   4.577   4.753   1.242
 5198SOL    HW132736   4.666   4.787   1.248
 5198SOL    HW232737   4.588   4.659   1.226
 5199SOL     OW32738   5.335   2.627   2.224
 5199SOL    HW132739   5.333   2.720   2.247
 5199SOL    HW232740   5.428   2.605   2.225
 5200SOL     OW32741   3.196   0.678   1.560
 5200SOL    HW132742   3.182   0.674   1.655
 5200SOL    HW232743   3.245   0.760   1.546
 5201SOL     OW32744   4.285   4.594   1.668
 5201SOL    HW132745   4.242   4.533   1.608
 5201SOL    HW232746   4.321   4.662   1.612
 5202SOL     OW32747   0.544   1.012   7.131
 5202SOL    HW132748   0.465   1.019   7.184
 5202SOL    HW232749   0.513   0.990   7.043
 5203SOL     OW32750   3.835   1.352   1.542
 5203SOL    HW132751   3.764   1.342   1.478
 5203SOL    HW232752   3.829   1.274   1.597
 5204SOL     OW32753   5.822   4.638   7.681
 5204SOL    HW132754   5.850   4.589   7.759
 5204SOL    HW232755   5.784   4.718   7.716
 5205SOL     OW32756   5.338   2.095   1.216
 5205SOL    HW132757   5.359   2.002   1.208
 5205SOL    HW232758   5.285   2.101   1.295
 5206SOL     OW32759   1.849   1.712   0.909
 5206SOL    HW132760   1.760   1.692   0.938
 5206SOL    HW232761   1.839   1.791   0.855
 5207SOL     OW32762   1.841   5.648   1.335
 5207SOL    HW132763   1.929   5.627   1.367
 5207SOL    HW232764   1.790   5.664   1.413
 5208SOL     OW32765   3.090   1.494   2.527
 5208SOL    HW132766   3.068   1.577   2.483
 5208SOL    HW232767   3.067   1.426   2.464
 5209SOL     OW32768   1.745   4.259   1.803
 5209SOL    HW132769   1.745   4.310   1.884
 5209SOL    HW232770   1.835   4.266   1.770
 5210SOL     OW32771   4.109   3.826   6.970
 5210SOL    HW132772   4.158   3.907   6.955
 5210SOL    HW232773   4.025   3.856   7.006
 5211SOL     OW32774   5.594   2.562   1.149
 5211SOL    HW132775   5.563   2.474   1.167
 5211SOL    HW232776   5.624   2.594   1.234
 5212SOL     OW32777   0.953   1.964   1.087
 5212SOL    HW132778   0.968   2.021   1.012
 5212SOL    HW232779   1.035   1.966   1.136
 5213SOL     OW32780   5.552   4.777   0.360
 5213SOL    HW132781   5.481   4.823   0.406
 5213SOL    HW232782   5.507   4.713   0.306
 5214SOL     OW32783   6.106   4.331   1.634
 5214SOL    HW132784   6.119   4.413   1.587
 5214SOL    HW232785   6.105   4.357   1.726
 5215SOL     OW32786   1.072   5.472   0.459
 5215SOL    HW132787   1.149   5.489   0.514
 5215SOL    HW232788   1.082   5.381   0.432
 5216SOL     OW32789   2.555   4.380   7.449
 5216SOL    HW132790   2.613   4.315   7.488
 5216SOL    HW232791   2.547   4.353   7.357
 5217SOL     OW32792   5.132   3.769   2.140
 5217SOL    HW132793   5.055   3.817   2.108
 5217SOL    HW232794   5.095   3.701   2.196
 5218SOL     OW32795   2.565   1.884   7.470
 5218SOL    HW132796   2.641   1.828   7.484
 5218SOL    HW232797   2.581   1.926   7.386
 5219SOL     OW32798   4.271   2.956   7.579
 5219SOL    HW132799   4.297   2.952   7.487
 5219SOL    HW232800   4.262   3.049   7.598
 5220SOL     OW32801   5.298   3.002   1.433
 5220SOL    HW132802   5.330   3.088   1.460
 5220SOL    HW232803   5.233   3.022   1.365
 5221SOL     OW32804   5.052   3.188   5.805
 5221SOL    HW132805   5.084   3.109   5.848
 5221SOL    HW232806   5.082   3.260   5.861
 5222SOL     OW32807   5.433   3.632   1.386
 5222SOL    HW132808   5.528   3.628   1.372
 5222SOL    HW232809   5.423   3.653   1.479
 5223SOL     OW32810   1.073   4.556   0.033
 5223SOL    HW132811   1.156   4.514   0.057
 5223SOL    HW232812   1.099   4.629  -0.024
 5224SOL     OW32813   2.978   4.662   6.981
 5224SOL    HW132814   2.945   4.614   6.905
 5224SOL    HW232815   2.912   4.649   7.049
 5225SOL     OW32816   2.787   1.129   0.259
 5225SOL    HW132817   2.737   1.100   0.182
 5225SOL    HW232818   2.812   1.219   0.239
 5226SOL     OW32819   0.464   5.760   7.666
 5226SOL    HW132820   0.478   5.723   7.753
 5226SOL    HW232821   0.478   5.686   7.606
 5227SOL     OW32822   5.634   0.453   1.665
 5227SOL    HW132823   5.590   0.373   1.636
 5227SOL    HW232824   5.710   0.460   1.607
 5228SOL     OW32825   4.647   1.670   0.519
 5228SOL    HW132826   4.557   1.642   0.502
 5228SOL    HW232827   4.655   1.753   0.472
 5229SOL     OW32828   0.684   3.298   2.068
 5229SOL    HW132829   0.777   3.309   2.086
 5229SOL    HW232830   0.677   3.301   1.973
 5230SOL     OW32831   4.601   2.850   7.216
 5230SOL    HW132832   4.681   2.878   7.172
 5230SOL    HW232833   4.628   2.832   7.306
 5231SOL     OW32834   0.406   3.687   0.152
 5231SOL    HW132835   0.399   3.703   0.246
 5231SOL    HW232836   0.367   3.765   0.111
 5232SOL     OW32837   1.407   5.006   2.185
 5232SOL    HW132838   1.455   4.939   2.234
 5232SOL    HW232839   1.460   5.020   2.107
 5233SOL     OW32840   1.065   2.782   0.860
 5233SOL    HW132841   1.000   2.843   0.825
 5233SOL    HW232842   1.062   2.708   0.799
 5234SOL     OW32843   5.206   0.035   2.300
 5234SOL    HW132844   5.228   0.104   2.238
 5234SOL    HW232845   5.221   0.075   2.386
 5235SOL     OW32846   4.517   1.748   0.925
 5235SOL    HW132847   4.462   1.794   0.862
 5235SOL    HW232848   4.465   1.744   1.005
 5236SOL     OW32849   0.696   2.054   0.359
 5236SOL    HW132850   0.631   2.065   0.429
 5236SOL    HW232851   0.651   2.001   0.294
 5237SOL     OW32852   0.058   1.424   0.189
 5237SOL    HW132853   0.008   1.413   0.109
 5237SOL    HW232854   0.035   1.347   0.242
 5238SOL     OW32855   3.009   6.208   0.333
 5238SOL    HW132856   2.967   6.127   0.363
 5238SOL    HW232857   2.997   6.269   0.406
 5239SOL     OW32858   5.250   3.164   7.413
 5239SOL    HW132859   5.189   3.092   7.393
 5239SOL    HW232860   5.225   3.192   7.501
 5240SOL     OW32861   1.611   5.599   7.017
 5240SOL    HW132862   1.575   5.583   7.104
 5240SOL    HW232863   1.580   5.686   6.993
 5241SOL     OW32864   1.884   6.175   0.780
 5241SOL    HW132865   1.929   6.099   0.741
 5241SOL    HW232866   1.793   6.146   0.789
 5242SOL     OW32867   2.603   1.373   7.182
 5242SOL    HW132868   2.514   1.401   7.161
 5242SOL    HW232869   2.594   1.319   7.261
 5243SOL     OW32870   0.617   3.527   1.249
 5243SOL    HW132871   0.623   3.536   1.154
 5243SOL    HW232872   0.593   3.615   1.280
 5244SOL     OW32873   2.802   5.098   7.411
 5244SOL    HW132874   2.787   5.114   7.504
 5244SOL    HW232875   2.874   5.157   7.388
 5245SOL     OW32876   6.341   0.456   0.763
 5245SOL    HW132877   6.274   0.421   0.705
 5245SOL    HW232878   6.388   0.520   0.708
 5246SOL     OW32879   3.166   2.465   6.396
 5246SOL    HW132880   3.097   2.489   6.334
 5246SOL    HW232881   3.166   2.535   6.461
 5247SOL     OW32882   6.458   4.469   1.316
 5247SOL    HW132883   6.384   4.485   1.259
 5247SOL    HW232884   6.534   4.472   1.258
 5248SOL     OW32885   2.714   4.651   0.897
 5248SOL    HW132886   2.653   4.587   0.863
 5248SOL    HW232887   2.735   4.621   0.985
 5249SOL     OW32888   0.212   2.687   6.965
 5249SOL    HW132889   0.228   2.711   6.874
 5249SOL    HW232890   0.169   2.601   6.960
 5250SOL     OW32891   4.769   6.359   6.351
 5250SOL    HW132892   4.755   6.279   6.301
 5250SOL    HW232893   4.828   6.411   6.296
 5251SOL     OW32894   0.112   0.949   7.369
 5251SOL    HW132895   0.071   0.910   7.291
 5251SOL    HW232896   0.038   0.981   7.421
 5252SOL     OW32897   1.347   5.185   7.089
 5252SOL    HW132898   1.294   5.110   7.063
 5252SOL    HW232899   1.405   5.200   7.015
 5253SOL     OW32900   5.573   6.021   0.165
 5253SOL    HW132901   5.521   6.072   0.228
 5253SOL    HW232902   5.654   6.071   0.156
 5254SOL     OW32903   0.841   5.763   0.387
 5254SOL    HW132904   0.809   5.853   0.381
 5254SOL    HW232905   0.766   5.712   0.418
 5255SOL     OW32906   5.950   5.457   1.401
 5255SOL    HW132907   5.859   5.458   1.372
 5255SOL    HW232908   6.001   5.457   1.319
 5256SOL     OW32909   4.231   3.426   6.998
 5256SOL    HW132910   4.270   3.502   7.041
 5256SOL    HW232911   4.137   3.443   7.002
 5257SOL     OW32912   4.330   3.467   5.481
 5257SOL    HW132913   4.292   3.412   5.549
 5257SOL    HW232914   4.257   3.519   5.448
 5258SOL     OW32915   1.810   1.362   1.533
 5258SOL    HW132916   1.749   1.291   1.555
 5258SOL    HW232917   1.896   1.328   1.557
 5259SOL     OW32918   4.821   0.594   6.379
 5259SOL    HW132919   4.796   0.624   6.466
 5259SOL    HW232920   4.824   0.498   6.387
 5260SOL     OW32921   2.141   2.498   7.271
 5260SOL    HW132922   2.124   2.512   7.365
 5260SOL    HW232923   2.185   2.577   7.243
 5261SOL     OW32924   0.436   2.300   7.353
 5261SOL    HW132925   0.508   2.316   7.415
 5261SOL    HW232926   0.407   2.211   7.373
 5262SOL     OW32927   2.782   2.372   1.105
 5262SOL    HW132928   2.787   2.459   1.067
 5262SOL    HW232929   2.841   2.374   1.180
 5263SOL     OW32930   3.178   3.056   6.799
 5263SOL    HW132931   3.125   3.134   6.780
 5263SOL    HW232932   3.221   3.077   6.882
 5264SOL     OW32933   3.548   0.901   6.624
 5264SOL    HW132934   3.590   0.819   6.647
 5264SOL    HW232935   3.536   0.896   6.529
 5265SOL     OW32936   1.212   6.013   0.913
 5265SOL    HW132937   1.240   6.061   0.991
 5265SOL    HW232938   1.233   6.071   0.840
 5266SOL     OW32939   5.997   4.093   1.488
 5266SOL    HW132940   5.906   4.123   1.491
 5266SOL    HW232941   6.046   4.160   1.536
 5267SOL     OW32942   1.776   2.543   2.207
 5267SOL    HW132943   1.766   2.576   2.118
 5267SOL    HW232944   1.693   2.501   2.228
 5268SOL     OW32945   2.484   4.834   6.939
 5268SOL    HW132946   2.554   4.890   6.971
 5268SOL    HW232947   2.404   4.870   6.979
 5269SOL     OW32948   1.966   0.269   0.880
 5269SOL    HW132949   1.971   0.177   0.856
 5269SOL    HW232950   1.909   0.270   0.958
 5270SOL     OW32951   1.639   6.410   6.418
 5270SOL    HW132952   1.577   6.403   6.490
 5270SOL    HW232953   1.607   6.349   6.351
 5271SOL     OW32954   1.293   1.500   0.132
 5271SOL    HW132955   1.304   1.552   0.211
 5271SOL    HW232956   1.279   1.564   0.062
 5272SOL     OW32957   1.404   0.080   1.145
 5272SOL    HW132958   1.420   0.044   1.058
 5272SOL    HW232959   1.468   0.036   1.202
 5273SOL     OW32960   0.141   5.730   2.151
 5273SOL    HW132961   0.115   5.641   2.130
 5273SOL    HW232962   0.232   5.736   2.121
 5274SOL     OW32963   3.015   1.423   1.803
 5274SOL    HW132964   3.006   1.448   1.895
 5274SOL    HW232965   3.095   1.370   1.800
 5275SOL     OW32966   6.301   3.210   5.604
 5275SOL    HW132967   6.346   3.172   5.528
 5275SOL    HW232968   6.326   3.302   5.602
 5276SOL     OW32969   4.057   6.348   0.793
 5276SOL    HW132970   3.993   6.408   0.753
 5276SOL    HW232971   4.027   6.338   0.884
 5277SOL     OW32972   2.908   2.128   1.636
 5277SOL    HW132973   2.836   2.149   1.576
 5277SOL    HW232974   2.911   2.032   1.637
 5278SOL     OW32975   3.991   6.248   6.721
 5278SOL    HW132976   3.949   6.334   6.722
 5278SOL    HW232977   4.017   6.233   6.812
 5279SOL     OW32978   5.007   5.721   1.993
 5279SOL    HW132979   4.932   5.684   1.948
 5279SOL    HW232980   4.983   5.812   2.010
 5280SOL     OW32981   2.765   3.563   6.431
 5280SOL    HW132982   2.818   3.641   6.410
 5280SOL    HW232983   2.743   3.525   6.346
 5281SOL     OW32984   2.656   3.011   1.354
 5281SOL    HW132985   2.711   2.988   1.279
 5281SOL    HW232986   2.650   3.107   1.350
 5282SOL     OW32987   4.769   2.734   1.084
 5282SOL    HW132988   4.843   2.771   1.132
 5282SOL    HW232989   4.751   2.798   1.015
 5283SOL     OW32990   0.527   4.517   6.701
 5283SOL    HW132991   0.435   4.545   6.703
 5283SOL    HW232992   0.570   4.581   6.645
 5284SOL     OW32993   0.669   6.302   6.747
 5284SOL    HW132994   0.722   6.250   6.807
 5284SOL    HW232995   0.720   6.305   6.666
 5285SOL     OW32996   5.299   6.335   6.287
 5285SOL    HW132997   5.225   6.273   6.286
 5285SOL    HW232998   5.258   6.421   6.279
 5286SOL     OW32999   1.842   2.275   0.721
 5286SOL    HW133000   1.766   2.331   0.737
 5286SOL    HW233001   1.850   2.272   0.626
 5287SOL     OW33002   5.444   4.867   0.102
 5287SOL    HW133003   5.483   4.954   0.105
 5287SOL    HW233004   5.352   4.881   0.123
 5288SOL     OW33005   1.659   0.835   7.128
 5288SOL    HW133006   1.732   0.773   7.127
 5288SOL    HW233007   1.699   0.921   7.117
 5289SOL     OW33008   5.215   5.061   7.106
 5289SOL    HW133009   5.221   5.157   7.109
 5289SOL    HW233010   5.287   5.031   7.161
 5290SOL     OW33011   5.362   3.690   2.268
 5290SOL    HW133012   5.293   3.719   2.208
 5290SOL    HW233013   5.327   3.707   2.355
 5291SOL     OW33014   2.534   1.818   0.670
 5291SOL    HW133015   2.489   1.900   0.650
 5291SOL    HW233016   2.556   1.824   0.763
 5292SOL     OW33017   5.888   4.060   7.524
 5292SOL    HW133018   5.965   4.074   7.580
 5292SOL    HW233019   5.925   4.047   7.436
 5293SOL     OW33020   6.249   1.621   1.971
 5293SOL    HW133021   6.230   1.565   2.047
 5293SOL    HW233022   6.175   1.681   1.965
 5294SOL     OW33023   0.352   4.874   5.549
 5294SOL    HW133024   0.414   4.947   5.550
 5294SOL    HW233025   0.286   4.896   5.615
 5295SOL     OW33026   2.103   2.186   0.982
 5295SOL    HW133027   2.009   2.193   0.995
 5295SOL    HW233028   2.121   2.244   0.908
 5296SOL     OW33029   2.711   6.049   5.963
 5296SOL    HW133030   2.754   5.964   5.978
 5296SOL    HW233031   2.752   6.082   5.884
 5297SOL     OW33032   3.103   3.300   1.734
 5297SOL    HW133033   3.179   3.274   1.786
 5297SOL    HW233034   3.027   3.267   1.783
 5298SOL     OW33035   4.316   2.967   1.601
 5298SOL    HW133036   4.311   2.899   1.533
 5298SOL    HW233037   4.307   3.049   1.552
 5299SOL     OW33038   4.888   0.578   1.201
 5299SOL    HW133039   4.969   0.570   1.152
 5299SOL    HW233040   4.857   0.667   1.180
 5300SOL     OW33041   1.180   1.956   0.660
 5300SOL    HW133042   1.254   1.986   0.714
 5300SOL    HW233043   1.182   2.014   0.583
 5301SOL     OW33044   4.716   2.311   0.413
 5301SOL    HW133045   4.645   2.277   0.360
 5301SOL    HW233046   4.688   2.296   0.503
 5302SOL     OW33047   6.101   6.193   2.135
 5302SOL    HW133048   6.035   6.124   2.123
 5302SOL    HW233049   6.177   6.147   2.169
 5303SOL     OW33050   4.119   0.025   0.515
 5303SOL    HW133051   4.150   0.112   0.491
 5303SOL    HW233052   4.083   0.036   0.603
 5304SOL     OW33053   0.584   6.114   7.032
 5304SOL    HW133054   0.614   6.090   6.945
 5304SOL    HW233055   0.663   6.148   7.076
 5305SOL     OW33056   4.130   1.303   0.296
 5305SOL    HW133057   4.040   1.330   0.314
 5305SOL    HW233058   4.128   1.276   0.204
 5306SOL     OW33059   3.036   5.209   7.370
 5306SOL    HW133060   3.073   5.284   7.416
 5306SOL    HW233061   3.111   5.154   7.348
 5307SOL     OW33062   5.903   3.913   1.151
 5307SOL    HW133063   5.940   3.827   1.172
 5307SOL    HW233064   5.917   3.924   1.057
 5308SOL     OW33065   0.234   1.193   2.313
 5308SOL    HW133066   0.254   1.273   2.362
 5308SOL    HW233067   0.189   1.225   2.234
 5309SOL     OW33068   6.335   1.097   1.980
 5309SOL    HW133069   6.308   1.006   1.988
 5309SOL    HW233070   6.259   1.142   1.942
 5310SOL     OW33071   1.729   3.115   1.373
 5310SOL    HW133072   1.793   3.044   1.370
 5310SOL    HW233073   1.659   3.087   1.314
 5311SOL     OW33074   5.287   1.700   5.805
 5311SOL    HW133075   5.195   1.723   5.792
 5311SOL    HW233076   5.289   1.604   5.797
 5312SOL     OW33077   2.724   3.011   0.241
 5312SOL    HW133078   2.636   2.989   0.210
 5312SOL    HW233079   2.742   2.948   0.311
 5313SOL     OW33080   0.722   5.951   6.849
 5313SOL    HW133081   0.735   5.963   6.755
 5313SOL    HW233082   0.775   5.874   6.870
 5314SOL     OW33083   0.231   4.685   0.663
 5314SOL    HW133084   0.321   4.701   0.634
 5314SOL    HW233085   0.188   4.770   0.658
 5315SOL     OW33086   0.289   3.163   7.558
 5315SOL    HW133087   0.374   3.125   7.538
 5315SOL    HW233088   0.230   3.126   7.493
 5316SOL     OW33089   3.306   3.460   7.243
 5316SOL    HW133090   3.335   3.509   7.320
 5316SOL    HW233091   3.213   3.480   7.235
 5317SOL     OW33092   1.464   4.585   0.937
 5317SOL    HW133093   1.532   4.607   0.874
 5317SOL    HW233094   1.404   4.528   0.889
 5318SOL     OW33095   3.096   6.246   0.828
 5318SOL    HW133096   3.138   6.165   0.800
 5318SOL    HW233097   3.053   6.224   0.911
 5319SOL     OW33098   6.066   1.379   5.925
 5319SOL    HW133099   6.049   1.473   5.919
 5319SOL    HW233100   6.160   1.372   5.942
 5320SOL     OW33101   1.132   2.840   2.001
 5320SOL    HW133102   1.091   2.769   1.952
 5320SOL    HW233103   1.137   2.807   2.091
 5321SOL     OW33104   2.592   3.251   0.493
 5321SOL    HW133105   2.639   3.225   0.573
 5321SOL    HW233106   2.596   3.347   0.494
 5322SOL     OW33107   0.634   0.600   7.570
 5322SOL    HW133108   0.542   0.575   7.558
 5322SOL    HW233109   0.659   0.560   7.653
 5323SOL     OW33110   2.499   0.112   0.971
 5323SOL    HW133111   2.444   0.056   1.026
 5323SOL    HW233112   2.572   0.056   0.946
 5324SOL     OW33113   6.363   2.519   6.610
 5324SOL    HW133114   6.434   2.504   6.548
 5324SOL    HW233115   6.307   2.442   6.602
 5325SOL     OW33116   5.317   0.239   1.787
 5325SOL    HW133117   5.371   0.189   1.849
 5325SOL    HW233118   5.266   0.298   1.842
 5326SOL     OW33119   1.184   1.517   6.795
 5326SOL    HW133120   1.099   1.477   6.775
 5326SOL    HW233121   1.186   1.522   6.891
 5327SOL     OW33122   5.089   1.586   2.546
 5327SOL    HW133123   5.002   1.606   2.510
 5327SOL    HW233124   5.096   1.491   2.540
 5328SOL     OW33125   4.577   3.574   1.890
 5328SOL    HW133126   4.494   3.617   1.913
 5328SOL    HW233127   4.551   3.500   1.835
 5329SOL     OW33128   1.473   3.273   6.609
 5329SOL    HW133129   1.458   3.280   6.514
 5329SOL    HW233130   1.558   3.316   6.623
 5330SOL     OW33131   5.106   5.565   0.338
 5330SOL    HW133132   5.154   5.640   0.374
 5330SOL    HW233133   5.171   5.519   0.285
 5331SOL     OW33134   5.546   4.137   0.127
 5331SOL    HW133135   5.542   4.183   0.211
 5331SOL    HW233136   5.627   4.169   0.087
 5332SOL     OW33137   2.420   1.725   1.375
 5332SOL    HW133138   2.414   1.812   1.416
 5332SOL    HW233139   2.393   1.740   1.284
 5333SOL     OW33140   1.334   6.098   5.834
 5333SOL    HW133141   1.315   6.117   5.742
 5333SOL    HW233142   1.277   6.023   5.855
 5334SOL     OW33143   4.901   5.888   0.233
 5334SOL    HW133144   4.811   5.878   0.264
 5334SOL    HW233145   4.954   5.877   0.312
 5335SOL     OW33146   2.348   2.441   6.078
 5335SOL    HW133147   2.316   2.471   6.163
 5335SOL    HW233148   2.437   2.475   6.072
 5336SOL     OW33149   3.026   3.177   0.593
 5336SOL    HW133150   2.982   3.240   0.649
 5336SOL    HW233151   3.116   3.211   0.584
 5337SOL     OW33152   0.142   4.649   1.490
 5337SOL    HW133153   0.109   4.559   1.484
 5337SOL    HW233154   0.080   4.701   1.439
 5338SOL     OW33155   0.384   2.160   0.958
 5338SOL    HW133156   0.390   2.092   0.891
 5338SOL    HW233157   0.350   2.114   1.035
 5339SOL     OW33158   2.327   2.885   7.636
 5339SOL    HW133159   2.270   2.930   7.574
 5339SOL    HW233160   2.407   2.937   7.638
 5340SOL     OW33161   4.122   2.969   0.992
 5340SOL    HW133162   4.148   3.008   1.075
 5340SOL    HW233163   4.195   2.987   0.933
 5341SOL     OW33164   4.784   0.246   7.568
 5341SOL    HW133165   4.825   0.301   7.635
 5341SOL    HW233166   4.810   0.157   7.592
 5342SOL     OW33167   2.163   0.788   0.892
 5342SOL    HW133168   2.191   0.871   0.852
 5342SOL    HW233169   2.211   0.721   0.844
 5343SOL     OW33170   0.612   6.102   2.103
 5343SOL    HW133171   0.534   6.054   2.075
 5343SOL    HW233172   0.608   6.099   2.199
 5344SOL     OW33173   3.014   0.706   6.564
 5344SOL    HW133174   3.055   0.748   6.489
 5344SOL    HW233175   3.029   0.612   6.550
 5345SOL     OW33176   3.173   4.542   6.306
 5345SOL    HW133177   3.212   4.455   6.308
 5345SOL    HW233178   3.242   4.600   6.272
 5346SOL     OW33179   2.176   5.678   5.491
 5346SOL    HW133180   2.104   5.615   5.485
 5346SOL    HW233181   2.255   5.624   5.491
 5347SOL     OW33182   5.218   4.475   1.800
 5347SOL    HW133183   5.253   4.387   1.784
 5347SOL    HW233184   5.204   4.479   1.894
 5348SOL     OW33185   2.092   0.034   0.523
 5348SOL    HW133186   2.098   0.063   0.432
 5348SOL    HW233187   2.182   0.017   0.549
 5349SOL     OW33188   4.466   2.976   6.565
 5349SOL    HW133189   4.415   2.901   6.596
 5349SOL    HW233190   4.483   3.028   6.643
 5350SOL     OW33191   1.664   0.846   0.964
 5350SOL    HW133192   1.747   0.863   0.919
 5350SOL    HW233193   1.602   0.823   0.895
 5351SOL     OW33194   5.377   4.940   6.918
 5351SOL    HW133195   5.336   4.879   6.856
 5351SOL    HW233196   5.304   4.976   6.967
 5352SOL     OW33197   5.387   4.312   2.095
 5352SOL    HW133198   5.468   4.270   2.065
 5352SOL    HW233199   5.325   4.240   2.108
 5353SOL     OW33200   2.928   0.646   0.917
 5353SOL    HW133201   3.006   0.591   0.907
 5353SOL    HW233202   2.909   0.677   0.828
 5354SOL     OW33203   1.432   2.940   2.008
 5354SOL    HW133204   1.347   2.918   1.970
 5354SOL    HW233205   1.411   2.976   2.094
 5355SOL     OW33206   0.351   2.187   0.008
 5355SOL    HW133207   0.294   2.243  -0.045
 5355SOL    HW233208   0.356   2.232   0.092
 5356SOL     OW33209   5.511   1.222   1.537
 5356SOL    HW133210   5.502   1.143   1.590
 5356SOL    HW233211   5.591   1.263   1.570
 5357SOL     OW33212   1.253   3.260   0.681
 5357SOL    HW133213   1.331   3.265   0.736
 5357SOL    HW233214   1.190   3.209   0.732
 5358SOL     OW33215   4.435   1.486   0.116
 5358SOL    HW133216   4.374   1.525   0.179
 5358SOL    HW233217   4.421   1.391   0.124
 5359SOL     OW33218   6.384   4.203   6.613
 5359SOL    HW133219   6.321   4.135   6.637
 5359SOL    HW233220   6.440   4.161   6.547
 5360SOL     OW33221   3.612   5.598   1.477
 5360SOL    HW133222   3.608   5.504   1.458
 5360SOL    HW233223   3.665   5.634   1.406
 5361SOL     OW33224   2.603   1.088   7.105
 5361SOL    HW133225   2.647   1.008   7.133
 5361SOL    HW233226   2.667   1.131   7.048
 5362SOL     OW33227   1.777   6.074   6.520
 5362SOL    HW133228   1.711   6.120   6.571
 5362SOL    HW233229   1.751   6.088   6.429
 5363SOL     OW33230   6.248   5.661   7.621
 5363SOL    HW133231   6.304   5.589   7.591
 5363SOL    HW233232   6.244   5.721   7.547
 5364SOL     OW33233   2.200   1.227   6.648
 5364SOL    HW133234   2.257   1.158   6.680
 5364SOL    HW233235   2.226   1.305   6.698
 5365SOL     OW33236   6.050   1.110   6.019
 5365SOL    HW133237   6.062   1.191   5.969
 5365SOL    HW233238   6.087   1.042   5.964
 5366SOL     OW33239   1.753   3.555   2.683
 5366SOL    HW133240   1.751   3.650   2.684
 5366SOL    HW233241   1.845   3.533   2.666
 5367SOL     OW33242   2.407   5.896   1.727
 5367SOL    HW133243   2.356   5.888   1.808
 5367SOL    HW233244   2.490   5.933   1.755
 5368SOL     OW33245   2.635   3.000   7.391
 5368SOL    HW133246   2.566   3.048   7.345
 5368SOL    HW233247   2.613   3.009   7.484
 5369SOL     OW33248   3.213   4.759   1.121
 5369SOL    HW133249   3.272   4.684   1.128
 5369SOL    HW233250   3.138   4.735   1.177
 5370SOL     OW33251   6.185   1.706   0.124
 5370SOL    HW133252   6.094   1.736   0.134
 5370SOL    HW233253   6.200   1.651   0.201
 5371SOL     OW33254   4.542   4.849   0.252
 5371SOL    HW133255   4.608   4.781   0.236
 5371SOL    HW233256   4.481   4.840   0.180
 5372SOL     OW33257   1.072   4.203   0.765
 5372SOL    HW133258   1.113   4.250   0.692
 5372SOL    HW233259   1.129   4.220   0.840
 5373SOL     OW33260   3.600   3.462   7.550
 5373SOL    HW133261   3.683   3.509   7.543
 5373SOL    HW233262   3.592   3.442   7.644
 5374SOL     OW33263   2.536   2.398   1.506
 5374SOL    HW133264   2.567   2.484   1.479
 5374SOL    HW233265   2.517   2.407   1.599
 5375SOL     OW33266   2.719   5.344   1.742
 5375SOL    HW133267   2.723   5.259   1.698
 5375SOL    HW233268   2.791   5.394   1.705
 5376SOL     OW33269   1.111   4.970   6.428
 5376SOL    HW133270   1.190   5.001   6.471
 5376SOL    HW233271   1.142   4.932   6.346
 5377SOL     OW33272   0.250   2.487   1.884
 5377SOL    HW133273   0.221   2.571   1.921
 5377SOL    HW233274   0.231   2.423   1.952
 5378SOL     OW33275   5.052   4.172   2.526
 5378SOL    HW133276   5.103   4.091   2.518
 5378SOL    HW233277   5.081   4.210   2.609
 5379SOL     OW33278   3.969   1.772   7.247
 5379SOL    HW133279   4.052   1.724   7.243
 5379SOL    HW233280   3.903   1.708   7.220
 5380SOL     OW33281   4.122   2.959   1.944
 5380SOL    HW133282   4.123   2.873   1.987
 5380SOL    HW233283   4.180   3.013   1.998
 5381SOL     OW33284   0.955   3.861   1.546
 5381SOL    HW133285   0.883   3.924   1.557
 5381SOL    HW233286   0.935   3.791   1.608
 5382SOL     OW33287   4.626   2.094   1.232
 5382SOL    HW133288   4.553   2.086   1.294
 5382SOL    HW233289   4.598   2.045   1.155
 5383SOL     OW33290   1.475   0.887   1.903
 5383SOL    HW133291   1.452   0.931   1.985
 5383SOL    HW233292   1.392   0.850   1.872
 5384SOL     OW33293   3.416   5.918   6.599
 5384SOL    HW133294   3.355   5.965   6.656
 5384SOL    HW233295   3.472   5.869   6.660
 5385SOL     OW33296   3.397   3.780   0.489
 5385SOL    HW133297   3.473   3.794   0.432
 5385SOL    HW233298   3.431   3.793   0.578
 5386SOL     OW33299   5.412   0.960   0.247
 5386SOL    HW133300   5.333   0.992   0.291
 5386SOL    HW233301   5.484   1.000   0.295
 5387SOL     OW33302   0.100   5.115   6.384
 5387SOL    HW133303   0.143   5.196   6.410
 5387SOL    HW233304   0.043   5.140   6.311
 5388SOL     OW33305   5.701   5.485   5.327
 5388SOL    HW133306   5.760   5.474   5.252
 5388SOL    HW233307   5.658   5.401   5.337
 5389SOL     OW33308   1.111   1.670   7.430
 5389SOL    HW133309   1.081   1.760   7.418
 5389SOL    HW233310   1.131   1.639   7.341
 5390SOL     OW33311   5.325   4.824   2.621
 5390SOL    HW133312   5.250   4.768   2.599
 5390SOL    HW233313   5.323   4.829   2.716
 5391SOL     OW33314   1.428   1.316   2.360
 5391SOL    HW133315   1.370   1.330   2.435
 5391SOL    HW233316   1.369   1.285   2.291
 5392SOL     OW33317   3.129   1.185   7.141
 5392SOL    HW133318   3.060   1.248   7.158
 5392SOL    HW233319   3.184   1.226   7.074
 5393SOL     OW33320   5.160   6.178   7.641
 5393SOL    HW133321   5.200   6.200   7.557
 5393SOL    HW233322   5.201   6.238   7.703
 5394SOL     OW33323   3.756   4.003   1.565
 5394SOL    HW133324   3.734   4.063   1.494
 5394SOL    HW233325   3.738   3.916   1.530
 5395SOL     OW33326   1.808   0.490   7.745
 5395SOL    HW133327   1.887   0.543   7.748
 5395SOL    HW233328   1.746   0.541   7.693
 5396SOL     OW33329   1.134   5.644   0.743
 5396SOL    HW133330   1.215   5.601   0.719
 5396SOL    HW233331   1.090   5.661   0.660
 5397SOL     OW33332   4.915   2.816   2.545
 5397SOL    HW133333   4.942   2.734   2.504
 5397SOL    HW233334   4.820   2.811   2.549
 5398SOL     OW33335   0.926   4.447   0.236
 5398SOL    HW133336   0.986   4.481   0.170
 5398SOL    HW233337   0.859   4.402   0.186
 5399SOL     OW33338   2.458   4.301   1.011
 5399SOL    HW133339   2.391   4.368   1.019
 5399SOL    HW233340   2.476   4.295   0.917
 5400SOL     OW33341   6.168   5.459   6.639
 5400SOL    HW133342   6.077   5.432   6.630
 5400SOL    HW233343   6.186   5.451   6.733
 5401SOL     OW33344   0.577   4.256   1.958
 5401SOL    HW133345   0.563   4.307   2.037
 5401SOL    HW233346   0.490   4.233   1.927
 5402SOL     OW33347   5.696   0.236   1.982
 5402SOL    HW133348   5.604   0.219   1.962
 5402SOL    HW233349   5.740   0.228   1.897
 5403SOL     OW33350   4.063   2.108   5.978
 5403SOL    HW133351   4.006   2.137   5.906
 5403SOL    HW233352   4.041   2.016   5.989
 5404SOL     OW33353   0.968   3.224   7.664
 5404SOL    HW133354   0.901   3.195   7.727
 5404SOL    HW233355   1.045   3.242   7.717
 5405SOL     OW33356   4.950   1.525   7.697
 5405SOL    HW133357   4.922   1.469   7.769
 5405SOL    HW233358   4.976   1.607   7.739
 5406SOL     OW33359   5.664   6.120   5.253
 5406SOL    HW133360   5.737   6.159   5.302
 5406SOL    HW233361   5.666   6.027   5.276
 5407SOL     OW33362   5.898   4.478   0.159
 5407SOL    HW133363   5.985   4.465   0.197
 5407SOL    HW233364   5.841   4.493   0.234
 5408SOL     OW33365   0.009   3.877   6.737
 5408SOL    HW133366  -0.023   3.789   6.755
 5408SOL    HW233367  -0.070   3.929   6.725
 5409SOL     OW33368   2.034   0.391   1.546
 5409SOL    HW133369   2.112   0.429   1.507
 5409SOL    HW233370   1.970   0.462   1.545
 5410SOL     OW33371   1.726   3.381   1.391
 5410SOL    HW133372   1.750   3.290   1.371
 5410SOL    HW233373   1.790   3.408   1.457
 5411SOL     OW33374   4.392   2.956   0.400
 5411SOL    HW133375   4.442   2.880   0.371
 5411SOL    HW233376   4.394   3.016   0.326
 5412SOL     OW33377   2.692   3.798   0.742
 5412SOL    HW133378   2.737   3.786   0.659
 5412SOL    HW233379   2.615   3.851   0.720
 5413SOL     OW33380   1.159   1.606   7.156
 5413SOL    HW133381   1.241   1.655   7.151
 5413SOL    HW233382   1.180   1.519   7.122
 5414SOL     OW33383   0.936   5.802   7.727
 5414SOL    HW133384   1.006   5.739   7.743
 5414SOL    HW233385   0.937   5.815   7.632
 5415SOL     OW33386   1.124   6.314   2.199
 5415SOL    HW133387   1.213   6.315   2.162
 5415SOL    HW233388   1.119   6.230   2.246
 5416SOL     OW33389   4.664   5.787   7.626
 5416SOL    HW133390   4.598   5.720   7.642
 5416SOL    HW233391   4.728   5.775   7.696
 5417SOL     OW33392   1.567   2.557   5.783
 5417SOL    HW133393   1.528   2.612   5.715
 5417SOL    HW233394   1.652   2.598   5.802
 5418SOL     OW33395   1.104   3.224   2.247
 5418SOL    HW133396   1.131   3.316   2.246
 5418SOL    HW233397   1.091   3.204   2.340
 5419SOL     OW33398   3.161   3.258   2.446
 5419SOL    HW133399   3.123   3.270   2.533
 5419SOL    HW233400   3.124   3.329   2.393
 5420SOL     OW33401   5.589   4.708   1.962
 5420SOL    HW133402   5.599   4.755   2.045
 5420SOL    HW233403   5.509   4.743   1.924
 5421SOL     OW33404   0.455   1.636   0.035
 5421SOL    HW133405   0.472   1.702  -0.031
 5421SOL    HW233406   0.361   1.638   0.049
 5422SOL     OW33407   4.131   5.220   5.816
 5422SOL    HW133408   4.217   5.260   5.832
 5422SOL    HW233409   4.122   5.153   5.884
 5423SOL     OW33410   5.943   2.251   0.687
 5423SOL    HW133411   6.022   2.275   0.735
 5423SOL    HW233412   5.942   2.311   0.612
 5424SOL     OW33413   0.094   4.593   0.909
 5424SOL    HW133414   0.000   4.597   0.893
 5424SOL    HW233415   0.134   4.620   0.826
 5425SOL     OW33416   3.282   2.000   7.430
 5425SOL    HW133417   3.221   2.063   7.391
 5425SOL    HW233418   3.307   1.943   7.357
 5426SOL     OW33419   5.603   1.364   7.252
 5426SOL    HW133420   5.549   1.436   7.218
 5426SOL    HW233421   5.546   1.288   7.250
 5427SOL     OW33422   3.528   3.484   0.691
 5427SOL    HW133423   3.615   3.518   0.671
 5427SOL    HW233424   3.527   3.396   0.653
 5428SOL     OW33425   0.533   2.793   1.842
 5428SOL    HW133426   0.440   2.797   1.817
 5428SOL    HW233427   0.561   2.884   1.844
 5429SOL     OW33428   5.318   1.438   5.916
 5429SOL    HW133429   5.410   1.412   5.928
 5429SOL    HW233430   5.268   1.362   5.943
 5430SOL     OW33431   4.859   0.931   7.300
 5430SOL    HW133432   4.891   1.007   7.349
 5430SOL    HW233433   4.795   0.968   7.239
 5431SOL     OW33434   0.853   5.117   1.812
 5431SOL    HW133435   0.837   5.176   1.738
 5431SOL    HW233436   0.899   5.172   1.875
 5432SOL     OW33437   1.389   5.684   7.371
 5432SOL    HW133438   1.484   5.675   7.372
 5432SOL    HW233439   1.359   5.618   7.307
 5433SOL     OW33440   0.571   1.317   5.891
 5433SOL    HW133441   0.588   1.248   5.827
 5433SOL    HW233442   0.482   1.299   5.923
 5434SOL     OW33443   2.526   1.272   7.441
 5434SOL    HW133444   2.525   1.181   7.473
 5434SOL    HW233445   2.434   1.291   7.420
 5435SOL     OW33446   3.399   3.886   0.752
 5435SOL    HW133447   3.324   3.845   0.795
 5435SOL    HW233448   3.467   3.888   0.819
 5436SOL     OW33449   3.352   5.318   7.126
 5436SOL    HW133450   3.321   5.407   7.110
 5436SOL    HW233451   3.405   5.324   7.205
 5437SOL     OW33452   5.285   5.058   1.205
 5437SOL    HW133453   5.253   5.006   1.131
 5437SOL    HW233454   5.210   5.062   1.265
 5438SOL     OW33455   4.073   2.739   7.579
 5438SOL    HW133456   4.148   2.798   7.583
 5438SOL    HW233457   4.021   2.773   7.506
 5439SOL     OW33458   0.210   5.952   0.072
 5439SOL    HW133459   0.211   5.858   0.092
 5439SOL    HW233460   0.162   5.958  -0.011
 5440SOL     OW33461   4.484   3.800   6.837
 5440SOL    HW133462   4.567   3.755   6.851
 5440SOL    HW233463   4.501   3.891   6.862
 5441SOL     OW33464   6.222   4.424   5.413
 5441SOL    HW133465   6.282   4.391   5.480
 5441SOL    HW233466   6.165   4.350   5.393
 5442SOL     OW33467   0.251   3.371   1.614
 5442SOL    HW133468   0.179   3.426   1.582
 5442SOL    HW233469   0.232   3.357   1.707
 5443SOL     OW33470   5.724   5.156   1.174
 5443SOL    HW133471   5.802   5.113   1.138
 5443SOL    HW233472   5.682   5.087   1.226
 5444SOL     OW33473   4.190   5.378   0.510
 5444SOL    HW133474   4.175   5.452   0.569
 5444SOL    HW233475   4.171   5.300   0.564
 5445SOL     OW33476   2.574   1.605   6.328
 5445SOL    HW133477   2.598   1.602   6.420
 5445SOL    HW233478   2.649   1.568   6.281
 5446SOL     OW33479   0.738   0.606   7.003
 5446SOL    HW133480   0.649   0.631   6.980
 5446SOL    HW233481   0.727   0.542   7.074
 5447SOL     OW33482   0.904   2.747   2.197
 5447SOL    HW133483   0.996   2.724   2.215
 5447SOL    HW233484   0.855   2.669   2.221
 5448SOL     OW33485   5.119   5.729   1.555
 5448SOL    HW133486   5.140   5.796   1.620
 5448SOL    HW233487   5.024   5.721   1.558
 5449SOL     OW33488   1.967   3.801   2.303
 5449SOL    HW133489   1.896   3.865   2.307
 5449SOL    HW233490   2.047   3.853   2.309
 5450SOL     OW33491   4.309   4.567   0.707
 5450SOL    HW133492   4.326   4.633   0.641
 5450SOL    HW233493   4.362   4.594   0.782
 5451SOL     OW33494   4.499   5.951   1.732
 5451SOL    HW133495   4.480   5.920   1.821
 5451SOL    HW233496   4.517   6.044   1.743
 5452SOL     OW33497   5.072   5.475   1.799
 5452SOL    HW133498   5.075   5.570   1.799
 5452SOL    HW233499   5.143   5.449   1.858
 5453SOL     OW33500   6.439   3.319   2.960
 5453SOL    HW133501   6.368   3.371   2.922
 5453SOL    HW233502   6.440   3.344   3.053
 5454SOL     OW33503   1.192   3.717   0.201
 5454SOL    HW133504   1.204   3.700   0.295
 5454SOL    HW233505   1.265   3.671   0.159
 5455SOL     OW33506   1.154   0.726   0.120
 5455SOL    HW133507   1.118   0.652   0.168
 5455SOL    HW233508   1.077   0.777   0.093
 5456SOL     OW33509   3.394   2.761   6.142
 5456SOL    HW133510   3.304   2.756   6.110
 5456SOL    HW233511   3.449   2.745   6.065
 5457SOL     OW33512   5.702   4.324   7.478
 5457SOL    HW133513   5.780   4.323   7.422
 5457SOL    HW233514   5.633   4.286   7.425
 5458SOL     OW33515   1.468   3.287   0.845
 5458SOL    HW133516   1.518   3.206   0.848
 5458SOL    HW233517   1.495   3.335   0.924
 5459SOL     OW33518   0.191   3.432   0.970
 5459SOL    HW133519   0.096   3.439   0.983
 5459SOL    HW233520   0.203   3.443   0.876
 5460SOL     OW33521   5.754   1.109   7.676
 5460SOL    HW133522   5.693   1.126   7.604
 5460SOL    HW233523   5.836   1.085   7.632
 5461SOL     OW33524   1.625   1.669   2.194
 5461SOL    HW133525   1.667   1.753   2.211
 5461SOL    HW233526   1.538   1.677   2.233
 5462SOL     OW33527   5.261   4.261   6.692
 5462SOL    HW133528   5.226   4.202   6.625
 5462SOL    HW233529   5.339   4.217   6.724
 5463SOL     OW33530   4.592   5.623   7.162
 5463SOL    HW133531   4.611   5.546   7.107
 5463SOL    HW233532   4.668   5.631   7.219
 5464SOL     OW33533   4.272   3.531   1.793
 5464SOL    HW133534   4.263   3.512   1.700
 5464SOL    HW233535   4.331   3.463   1.826
 5465SOL     OW33536   0.651   1.739   0.397
 5465SOL    HW133537   0.667   1.661   0.450
 5465SOL    HW233538   0.661   1.710   0.307
 5466SOL     OW33539   2.346   6.416   0.206
 5466SOL    HW133540   2.331   6.510   0.211
 5466SOL    HW233541   2.405   6.398   0.279
 5467SOL     OW33542   0.498   1.967   0.140
 5467SOL    HW133543   0.411   1.949   0.176
 5467SOL    HW233544   0.481   2.020   0.062
 5468SOL     OW33545   0.136   2.806   1.219
 5468SOL    HW133546   0.085   2.820   1.299
 5468SOL    HW233547   0.168   2.894   1.196
 5469SOL     OW33548   5.341   4.041   6.849
 5469SOL    HW133549   5.277   3.975   6.825
 5469SOL    HW233550   5.396   3.999   6.914
 5470SOL     OW33551   0.490   2.556   6.527
 5470SOL    HW133552   0.583   2.578   6.519
 5470SOL    HW233553   0.486   2.463   6.504
 5471SOL     OW33554   2.964   5.375   1.610
 5471SOL    HW133555   2.993   5.284   1.617
 5471SOL    HW233556   3.045   5.426   1.611
 5472SOL     OW33557   2.722   4.077   7.023
 5472SOL    HW133558   2.722   3.985   7.049
 5472SOL    HW233559   2.654   4.083   6.956
 5473SOL     OW33560   3.622   6.177   1.322
 5473SOL    HW133561   3.696   6.238   1.317
 5473SOL    HW233562   3.601   6.158   1.231
 5474SOL     OW33563   6.249   0.727   6.783
 5474SOL    HW133564   6.192   0.651   6.775
 5474SOL    HW233565   6.200   0.798   6.743
 5475SOL     OW33566   0.214   2.579   0.720
 5475SOL    HW133567   0.276   2.607   0.787
 5475SOL    HW233568   0.222   2.645   0.651
 5476SOL     OW33569   6.190   4.593   1.139
 5476SOL    HW133570   6.131   4.584   1.214
 5476SOL    HW233571   6.182   4.685   1.114
 5477SOL     OW33572   1.278   4.049   1.258
 5477SOL    HW133573   1.217   3.979   1.280
 5477SOL    HW233574   1.309   4.027   1.170
 5478SOL     OW33575   1.002   5.138   0.486
 5478SOL    HW133576   0.968   5.058   0.526
 5478SOL    HW233577   1.069   5.108   0.425
 5479SOL     OW33578   4.671   2.883   7.493
 5479SOL    HW133579   4.601   2.932   7.537
 5479SOL    HW233580   4.749   2.937   7.505
 5480SOL     OW33581   5.562   2.248   6.995
 5480SOL    HW133582   5.615   2.169   7.010
 5480SOL    HW233583   5.497   2.246   7.066
 5481SOL     OW33584   0.969   4.902   7.145
 5481SOL    HW133585   0.913   4.971   7.182
 5481SOL    HW233586   0.920   4.870   7.069
 5482SOL     OW33587   5.192   2.147   1.434
 5482SOL    HW133588   5.102   2.121   1.417
 5482SOL    HW233589   5.227   2.077   1.489
 5483SOL     OW33590   4.295   1.948   0.421
 5483SOL    HW133591   4.230   1.929   0.354
 5483SOL    HW233592   4.264   2.028   0.463
 5484SOL     OW33593   3.281   1.942   0.370
 5484SOL    HW133594   3.241   2.025   0.397
 5484SOL    HW233595   3.257   1.880   0.439
 5485SOL     OW33596   5.140   1.782   7.528
 5485SOL    HW133597   5.065   1.834   7.499
 5485SOL    HW233598   5.140   1.790   7.623
 5486SOL     OW33599   5.376   5.269   1.442
 5486SOL    HW133600   5.312   5.323   1.489
 5486SOL    HW233601   5.404   5.323   1.368
 5487SOL     OW33602   0.290   1.355   7.667
 5487SOL    HW133603   0.217   1.394   7.620
 5487SOL    HW233604   0.357   1.341   7.601
 5488SOL     OW33605   1.341   3.287   1.976
 5488SOL    HW133606   1.267   3.322   2.026
 5488SOL    HW233607   1.303   3.218   1.922
 5489SOL     OW33608   4.177   1.691   1.719
 5489SOL    HW133609   4.130   1.609   1.708
 5489SOL    HW233610   4.164   1.739   1.637
 5490SOL     OW33611   0.145   3.036   2.201
 5490SOL    HW133612   0.098   2.984   2.265
 5490SOL    HW233613   0.149   2.981   2.123
 5491SOL     OW33614   1.084   5.855   2.134
 5491SOL    HW133615   1.011   5.809   2.092
 5491SOL    HW233616   1.155   5.852   2.070
 5492SOL     OW33617   5.176   2.917   7.691
 5492SOL    HW133618   5.124   2.996   7.679
 5492SOL    HW233619   5.152   2.861   7.617
 5493SOL     OW33620   2.662   0.165   7.337
 5493SOL    HW133621   2.706   0.167   7.422
 5493SOL    HW233622   2.728   0.198   7.276
 5494SOL     OW33623   2.310   2.483   1.202
 5494SOL    HW133624   2.267   2.399   1.217
 5494SOL    HW233625   2.398   2.460   1.172
 5495SOL     OW33626   5.270   0.494   0.200
 5495SOL    HW133627   5.315   0.420   0.239
 5495SOL    HW233628   5.335   0.564   0.198
 5496SOL     OW33629   1.220   3.113   1.775
 5496SOL    HW133630   1.145   3.058   1.751
 5496SOL    HW233631   1.289   3.087   1.714
 5497SOL     OW33632   3.991   6.398   1.051
 5497SOL    HW133633   4.007   6.485   1.090
 5497SOL    HW233634   4.038   6.337   1.108
 5498SOL     OW33635   4.491   5.214   6.335
 5498SOL    HW133636   4.411   5.204   6.283
 5498SOL    HW233637   4.493   5.306   6.359
 5499SOL     OW33638   3.453   2.198   7.538
 5499SOL    HW133639   3.418   2.210   7.626
 5499SOL    HW233640   3.394   2.136   7.496
 5500SOL     OW33641   5.722   3.265   1.295
 5500SOL    HW133642   5.727   3.335   1.360
 5500SOL    HW233643   5.673   3.304   1.223
 5501SOL     OW33644   3.565   6.026   7.145
 5501SOL    HW133645   3.596   5.948   7.192
 5501SOL    HW233646   3.543   5.995   7.058
 5502SOL     OW33647   2.591   5.213   1.418
 5502SOL    HW133648   2.653   5.274   1.377
 5502SOL    HW233649   2.646   5.146   1.458
 5503SOL     OW33650   3.991   5.654   7.352
 5503SOL    HW133651   4.058   5.587   7.340
 5503SOL    HW233652   3.941   5.652   7.270
 5504SOL     OW33653   0.554   1.604   1.223
 5504SOL    HW133654   0.505   1.679   1.187
 5504SOL    HW233655   0.508   1.584   1.305
 5505SOL     OW33656   3.094   0.389   0.154
 5505SOL    HW133657   3.034   0.437   0.097
 5505SOL    HW233658   3.083   0.429   0.240
 5506SOL     OW33659   4.545   1.190   7.609
 5506SOL    HW133660   4.498   1.266   7.574
 5506SOL    HW233661   4.556   1.132   7.534
 5507SOL     OW33662   4.880   6.406   7.103
 5507SOL    HW133663   4.887   6.340   7.172
 5507SOL    HW233664   4.899   6.489   7.146
 5508SOL     OW33665   3.798   0.296   6.463
 5508SOL    HW133666   3.882   0.293   6.417
 5508SOL    HW233667   3.759   0.210   6.447
 5509SOL     OW33668   0.452   0.249   0.822
 5509SOL    HW133669   0.427   0.341   0.817
 5509SOL    HW233670   0.468   0.233   0.914
 5510SOL     OW33671   5.747   6.201   0.573
 5510SOL    HW133672   5.841   6.187   0.583
 5510SOL    HW233673   5.736   6.296   0.578
 5511SOL     OW33674   2.158   2.240   0.248
 5511SOL    HW133675   2.157   2.326   0.206
 5511SOL    HW233676   2.075   2.234   0.294
 5512SOL     OW33677   2.826   0.288   1.186
 5512SOL    HW133678   2.839   0.253   1.098
 5512SOL    HW233679   2.737   0.260   1.209
 5513SOL     OW33680   1.216   3.403   6.295
 5513SOL    HW133681   1.161   3.386   6.371
 5513SOL    HW233682   1.154   3.427   6.226
 5514SOL     OW33683   2.175   2.491   0.183
 5514SOL    HW133684   2.133   2.546   0.116
 5514SOL    HW233685   2.267   2.518   0.181
 5515SOL     OW33686   0.782   2.722   7.601
 5515SOL    HW133687   0.770   2.630   7.578
 5515SOL    HW233688   0.843   2.721   7.674
 5516SOL     OW33689   1.127   0.106   7.167
 5516SOL    HW133690   1.107   0.135   7.078
 5516SOL    HW233691   1.129   0.187   7.219
 5517SOL     OW33692   5.613   4.554   6.813
 5517SOL    HW133693   5.662   4.562   6.895
 5517SOL    HW233694   5.597   4.645   6.786
 5518SOL     OW33695   1.923   1.646   7.299
 5518SOL    HW133696   1.970   1.729   7.305
 5518SOL    HW233697   1.832   1.671   7.281
 5519SOL     OW33698   2.861   4.907   1.296
 5519SOL    HW133699   2.873   4.834   1.234
 5519SOL    HW233700   2.817   4.867   1.371
 5520SOL     OW33701   2.526   3.351   0.241
 5520SOL    HW133702   2.576   3.326   0.163
 5520SOL    HW233703   2.541   3.280   0.303
 5521SOL     OW33704   1.971   4.810   7.228
 5521SOL    HW133705   1.998   4.748   7.295
 5521SOL    HW233706   1.887   4.844   7.259
 5522SOL     OW33707   2.161   3.160   0.922
 5522SOL    HW133708   2.248   3.171   0.885
 5522SOL    HW233709   2.113   3.109   0.856
 5523SOL     OW33710   5.454   2.206   1.519
 5523SOL    HW133711   5.467   2.298   1.498
 5523SOL    HW233712   5.360   2.191   1.504
 5524SOL     OW33713   3.121   0.275   6.168
 5524SOL    HW133714   3.174   0.196   6.167
 5524SOL    HW233715   3.048   0.254   6.226
 5525SOL     OW33716   3.005   3.371   6.396
 5525SOL    HW133717   3.049   3.423   6.329
 5525SOL    HW233718   2.954   3.435   6.445
 5526SOL     OW33719   2.940   2.723   7.226
 5526SOL    HW133720   2.855   2.762   7.246
 5526SOL    HW233721   2.919   2.646   7.172
 5527SOL     OW33722   1.235   1.929   1.159
 5527SOL    HW133723   1.212   1.847   1.201
 5527SOL    HW233724   1.268   1.904   1.072
 5528SOL     OW33725   0.260   5.075   1.250
 5528SOL    HW133726   0.208   5.155   1.250
 5528SOL    HW233727   0.326   5.090   1.182
 5529SOL     OW33728   5.644   3.429   6.885
 5529SOL    HW133729   5.622   3.519   6.861
 5529SOL    HW233730   5.559   3.386   6.896
 5530SOL     OW33731   2.937   6.298   0.076
 5530SOL    HW133732   2.960   6.261   0.161
 5530SOL    HW233733   3.004   6.365   0.060
 5531SOL     OW33734   1.111   3.505   1.455
 5531SOL    HW133735   1.120   3.423   1.406
 5531SOL    HW233736   1.033   3.546   1.419
 5532SOL     OW33737   4.137   0.816   7.056
 5532SOL    HW133738   4.049   0.839   7.086
 5532SOL    HW233739   4.166   0.892   7.006
 5533SOL     OW33740   3.136   3.251   7.436
 5533SOL    HW133741   3.088   3.178   7.397
 5533SOL    HW233742   3.228   3.227   7.428
 5534SOL     OW33743   1.186   3.379   0.187
 5534SOL    HW133744   1.216   3.360   0.276
 5534SOL    HW233745   1.244   3.449   0.156
 5535SOL     OW33746   0.262   5.418   1.530
 5535SOL    HW133747   0.268   5.384   1.440
 5535SOL    HW233748   0.195   5.486   1.525
 5536SOL     OW33749   5.459   5.570   1.354
 5536SOL    HW133750   5.371   5.551   1.324
 5536SOL    HW233751   5.494   5.631   1.289
 5537SOL     OW33752   3.899   2.125   6.482
 5537SOL    HW133753   3.860   2.064   6.419
 5537SOL    HW233754   3.828   2.143   6.544
 5538SOL     OW33755   2.841   5.212   0.437
 5538SOL    HW133756   2.781   5.150   0.396
 5538SOL    HW233757   2.921   5.161   0.451
 5539SOL     OW33758   0.483   5.904   1.417
 5539SOL    HW133759   0.493   5.858   1.500
 5539SOL    HW233760   0.487   5.835   1.351
 5540SOL     OW33761   2.344   1.336   6.449
 5540SOL    HW133762   2.296   1.412   6.416
 5540SOL    HW233763   2.279   1.289   6.502
 5541SOL     OW33764   1.611   6.254   0.665
 5541SOL    HW133765   1.651   6.171   0.692
 5541SOL    HW233766   1.623   6.258   0.571
 5542SOL     OW33767   3.057   2.120   5.706
 5542SOL    HW133768   3.077   2.082   5.792
 5542SOL    HW233769   2.964   2.143   5.712
 5543SOL     OW33770   3.363   4.327   1.944
 5543SOL    HW133771   3.409   4.387   1.885
 5543SOL    HW233772   3.363   4.372   2.028
 5544SOL     OW33773   5.873   1.388   1.563
 5544SOL    HW133774   5.957   1.381   1.610
 5544SOL    HW233775   5.820   1.318   1.600
 5545SOL     OW33776   1.295   0.576   1.184
 5545SOL    HW133777   1.273   0.486   1.163
 5545SOL    HW233778   1.346   0.607   1.109
 5546SOL     OW33779   0.825   5.370   6.796
 5546SOL    HW133780   0.831   5.288   6.844
 5546SOL    HW233781   0.915   5.392   6.773
 5547SOL     OW33782   3.625   1.285   1.397
 5547SOL    HW133783   3.652   1.222   1.330
 5547SOL    HW233784   3.551   1.331   1.358
 5548SOL     OW33785   2.311   0.922   6.961
 5548SOL    HW133786   2.348   0.838   6.988
 5548SOL    HW233787   2.275   0.905   6.873
 5549SOL     OW33788   1.644   3.434   0.481
 5549SOL    HW133789   1.566   3.484   0.456
 5549SOL    HW233790   1.625   3.345   0.452
 5550SOL     OW33791   3.096   0.162   0.740
 5550SOL    HW133792   3.164   0.222   0.771
 5550SOL    HW233793   3.128   0.075   0.764
 5551SOL     OW33794   1.736   0.781   7.530
 5551SOL    HW133795   1.661   0.775   7.471
 5551SOL    HW233796   1.788   0.854   7.495
 5552SOL     OW33797   2.020   4.124   0.034
 5552SOL    HW133798   2.084   4.124  -0.037
 5552SOL    HW233799   2.032   4.208   0.078
 5553SOL     OW33800   0.929   5.969   0.772
 5553SOL    HW133801   1.016   5.998   0.800
 5553SOL    HW233802   0.943   5.932   0.685
 5554SOL     OW33803   1.850   5.405   1.028
 5554SOL    HW133804   1.772   5.433   1.077
 5554SOL    HW233805   1.830   5.428   0.937
 5555SOL     OW33806   0.866   1.387   6.482
 5555SOL    HW133807   0.869   1.481   6.462
 5555SOL    HW233808   0.935   1.350   6.428
 5556SOL     OW33809   6.367   2.217   6.774
 5556SOL    HW133810   6.288   2.268   6.793
 5556SOL    HW233811   6.335   2.139   6.729
 5557SOL     OW33812   3.777   4.714   1.964
 5557SOL    HW133813   3.721   4.791   1.978
 5557SOL    HW233814   3.834   4.713   2.041
 5558SOL     OW33815   0.261   3.648   1.418
 5558SOL    HW133816   0.201   3.718   1.443
 5558SOL    HW233817   0.253   3.642   1.323
 5559SOL     OW33818   2.550   0.542   5.484
 5559SOL    HW133819   2.526   0.615   5.426
 5559SOL    HW233820   2.467   0.500   5.504
 5560SOL     OW33821   2.546   2.178   0.985
 5560SOL    HW133822   2.640   2.198   0.982
 5560SOL    HW233823   2.506   2.258   1.017
 5561SOL     OW33824   1.945   2.424   7.084
 5561SOL    HW133825   1.878   2.409   7.151
 5561SOL    HW233826   2.025   2.441   7.134
 5562SOL     OW33827   5.617   2.274   0.061
 5562SOL    HW133828   5.685   2.318   0.010
 5562SOL    HW233829   5.535   2.301   0.019
 5563SOL     OW33830   6.000   3.260   2.102
 5563SOL    HW133831   5.932   3.209   2.058
 5563SOL    HW233832   6.061   3.284   2.032
 5564SOL     OW33833   2.531   5.607   1.936
 5564SOL    HW133834   2.451   5.556   1.920
 5564SOL    HW233835   2.499   5.692   1.967
 5565SOL     OW33836   4.320   3.604   0.566
 5565SOL    HW133837   4.249   3.540   0.560
 5565SOL    HW233838   4.395   3.561   0.524
 5566SOL     OW33839   3.977   4.804   0.105
 5566SOL    HW133840   4.003   4.875   0.164
 5566SOL    HW233841   3.950   4.849   0.024
 5567SOL     OW33842   1.043   4.209   0.392
 5567SOL    HW133843   0.976   4.172   0.450
 5567SOL    HW233844   1.011   4.296   0.369
 5568SOL     OW33845   4.959   6.359   1.089
 5568SOL    HW133846   5.032   6.416   1.065
 5568SOL    HW233847   4.956   6.293   1.020
 5569SOL     OW33848   2.422   3.088   0.366
 5569SOL    HW133849   2.331   3.116   0.356
 5569SOL    HW233850   2.457   3.143   0.437
 5570SOL     OW33851   1.857   5.629   0.199
 5570SOL    HW133852   1.887   5.600   0.286
 5570SOL    HW233853   1.936   5.633   0.146
 5571SOL     OW33854   0.947   4.889   0.541
 5571SOL    HW133855   0.924   4.887   0.634
 5571SOL    HW233856   1.025   4.835   0.534
 5572SOL     OW33857   4.989   3.221   7.224
 5572SOL    HW133858   4.959   3.284   7.290
 5572SOL    HW233859   4.909   3.178   7.195
 5573SOL     OW33860   3.998   5.975   1.151
 5573SOL    HW133861   3.971   6.059   1.186
 5573SOL    HW233862   3.963   5.911   1.213
 5574SOL     OW33863   4.371   0.298   6.816
 5574SOL    HW133864   4.432   0.335   6.879
 5574SOL    HW233865   4.377   0.355   6.739
 5575SOL     OW33866   0.029   0.232   7.463
 5575SOL    HW133867  -0.051   0.253   7.511
 5575SOL    HW233868   0.000   0.223   7.372
 5576SOL     OW33869   3.671   5.611   0.014
 5576SOL    HW133870   3.666   5.703   0.038
 5576SOL    HW233871   3.756   5.601  -0.028
 5577SOL     OW33872   4.819   2.387   6.914
 5577SOL    HW133873   4.913   2.380   6.896
 5577SOL    HW233874   4.800   2.310   6.969
 5578SOL     OW33875   2.750   4.631   1.718
 5578SOL    HW133876   2.758   4.675   1.803
 5578SOL    HW233877   2.822   4.568   1.717
 5579SOL     OW33878   1.846   3.383   1.874
 5579SOL    HW133879   1.774   3.446   1.880
 5579SOL    HW233880   1.809   3.310   1.823
 5580SOL     OW33881   5.319   5.478   6.574
 5580SOL    HW133882   5.292   5.461   6.483
 5580SOL    HW233883   5.250   5.534   6.609
 5581SOL     OW33884   0.013   4.446   0.546
 5581SOL    HW133885  -0.017   4.357   0.560
 5581SOL    HW233886   0.060   4.443   0.462
 5582SOL     OW33887   5.926   0.400   0.051
 5582SOL    HW133888   5.975   0.393  -0.030
 5582SOL    HW233889   5.933   0.314   0.092
 5583SOL     OW33890   6.428   5.384   6.481
 5583SOL    HW133891   6.370   5.396   6.556
 5583SOL    HW233892   6.512   5.419   6.510
 5584SOL     OW33893   0.358   3.866   1.882
 5584SOL    HW133894   0.270   3.902   1.885
 5584SOL    HW233895   0.367   3.832   1.793
 5585SOL     OW33896   3.226   6.337   7.372
 5585SOL    HW133897   3.312   6.329   7.413
 5585SOL    HW233898   3.168   6.361   7.444
 5586SOL     OW33899   4.752   3.243   7.037
 5586SOL    HW133900   4.759   3.304   6.963
 5586SOL    HW233901   4.745   3.157   6.997
 5587SOL     OW33902   5.303   1.415   1.556
 5587SOL    HW133903   5.242   1.361   1.505
 5587SOL    HW233904   5.382   1.362   1.562
 5588SOL     OW33905   2.937   1.142   0.996
 5588SOL    HW133906   2.986   1.100   0.925
 5588SOL    HW233907   2.933   1.234   0.971
 5589SOL     OW33908   2.366   5.703   6.953
 5589SOL    HW133909   2.419   5.696   6.873
 5589SOL    HW233910   2.287   5.653   6.934
 5590SOL     OW33911   0.566   2.364   0.897
 5590SOL    HW133912   0.604   2.361   0.984
 5590SOL    HW233913   0.481   2.319   0.906
 5591SOL     OW33914   4.922   6.074   6.416
 5591SOL    HW133915   4.892   5.997   6.369
 5591SOL    HW233916   4.990   6.041   6.475
 5592SOL     OW33917   3.898   0.233   7.727
 5592SOL    HW133918   3.852   0.175   7.787
 5592SOL    HW233919   3.991   0.218   7.746
 5593SOL     OW33920   5.462   4.605   0.114
 5593SOL    HW133921   5.371   4.577   0.126
 5593SOL    HW233922   5.456   4.697   0.090
 5594SOL     OW33923   0.263   3.043   1.204
 5594SOL    HW133924   0.285   3.134   1.185
 5594SOL    HW233925   0.264   3.038   1.300
 5595SOL     OW33926   4.802   4.248   2.472
 5595SOL    HW133927   4.771   4.244   2.562
 5595SOL    HW233928   4.893   4.219   2.477
 5596SOL     OW33929   2.896   1.307   0.637
 5596SOL    HW133930   2.961   1.370   0.606
 5596SOL    HW233931   2.872   1.337   0.724
 5597SOL     OW33932   3.713   3.409   0.979
 5597SOL    HW133933   3.774   3.361   0.922
 5597SOL    HW233934   3.665   3.340   1.026
 5598SOL     OW33935   4.774   4.764   6.590
 5598SOL    HW133936   4.706   4.705   6.619
 5598SOL    HW233937   4.728   4.845   6.569
 5599SOL     OW33938   0.606   3.584   0.545
 5599SOL    HW133939   0.610   3.606   0.452
 5599SOL    HW233940   0.532   3.523   0.552
 5600SOL     OW33941   5.398   5.482   1.004
 5600SOL    HW133942   5.424   5.415   1.067
 5600SOL    HW233943   5.479   5.524   0.978
 5601SOL     OW33944   3.646   0.031   6.465
 5601SOL    HW133945   3.621  -0.058   6.491
 5601SOL    HW233946   3.604   0.088   6.529
 5602SOL     OW33947   4.064   3.410   0.032
 5602SOL    HW133948   4.131   3.478   0.025
 5602SOL    HW233949   4.007   3.425  -0.043
 5603SOL     OW33950   3.790   3.858   2.240
 5603SOL    HW133951   3.885   3.852   2.227
 5603SOL    HW233952   3.757   3.772   2.213
 5604SOL     OW33953   3.606   6.305   0.175
 5604SOL    HW133954   3.668   6.248   0.129
 5604SOL    HW233955   3.661   6.373   0.214
 5605SOL     OW33956   6.341   0.433   6.924
 5605SOL    HW133957   6.341   0.426   6.828
 5605SOL    HW233958   6.428   0.406   6.950
 5606SOL     OW33959   5.498   3.998   1.515
 5606SOL    HW133960   5.533   3.948   1.442
 5606SOL    HW233961   5.564   3.991   1.583
 5607SOL     OW33962   5.999   3.678   6.415
 5607SOL    HW133963   6.038   3.715   6.494
 5607SOL    HW233964   5.977   3.588   6.439
 5608SOL     OW33965   4.817   4.842   1.758
 5608SOL    HW133966   4.817   4.881   1.670
 5608SOL    HW233967   4.729   4.804   1.767
 5609SOL     OW33968   4.753   4.468   6.017
 5609SOL    HW133969   4.828   4.408   6.025
 5609SOL    HW233970   4.776   4.525   5.945
 5610SOL     OW33971   3.958   6.076   1.839
 5610SOL    HW133972   3.958   6.065   1.934
 5610SOL    HW233973   3.957   6.170   1.825
 5611SOL     OW33974   5.684   2.922   1.543
 5611SOL    HW133975   5.670   2.998   1.600
 5611SOL    HW233976   5.627   2.937   1.468
 5612SOL     OW33977   5.407   6.436   6.996
 5612SOL    HW133978   5.355   6.451   7.076
 5612SOL    HW233979   5.389   6.345   6.972
 5613SOL     OW33980   0.512   3.906   1.407
 5613SOL    HW133981   0.520   3.824   1.454
 5613SOL    HW233982   0.590   3.909   1.350
 5614SOL     OW33983   5.875   4.741   2.227
 5614SOL    HW133984   5.868   4.669   2.164
 5614SOL    HW233985   5.928   4.705   2.298
 5615SOL     OW33986   0.632   1.302   0.393
 5615SOL    HW133987   0.683   1.337   0.320
 5615SOL    HW233988   0.545   1.339   0.383
 5616SOL     OW33989   4.592   6.353   7.714
 5616SOL    HW133990   4.572   6.259   7.713
 5616SOL    HW233991   4.517   6.394   7.671
 5617SOL     OW33992   2.478   2.445   2.939
 5617SOL    HW133993   2.458   2.426   2.847
 5617SOL    HW233994   2.571   2.467   2.940
 5618SOL     OW33995   5.379   2.437   1.706
 5618SOL    HW133996   5.285   2.417   1.705
 5618SOL    HW233997   5.392   2.488   1.785
 5619SOL     OW33998   3.992   4.280   6.981
 5619SOL    HW133999   3.975   4.372   7.001
 5619SOL    HW234000   3.931   4.232   7.038
 5620SOL     OW34001   1.069   1.342   6.047
 5620SOL    HW134002   0.982   1.377   6.025
 5620SOL    HW234003   1.051   1.256   6.084
 5621SOL     OW34004   5.147   2.271   6.447
 5621SOL    HW134005   5.221   2.213   6.469
 5621SOL    HW234006   5.168   2.354   6.490
 5622SOL     OW34007   4.718   1.462   7.011
 5622SOL    HW134008   4.674   1.468   6.926
 5622SOL    HW234009   4.781   1.391   7.000
 5623SOL     OW34010   0.271   0.117   0.462
 5623SOL    HW134011   0.353   0.161   0.484
 5623SOL    HW234012   0.249   0.148   0.375
 5624SOL     OW34013   0.413   2.337   0.639
 5624SOL    HW134014   0.405   2.287   0.720
 5624SOL    HW234015   0.338   2.397   0.640
 5625SOL     OW34016   3.405   0.540   2.358
 5625SOL    HW134017   3.488   0.513   2.397
 5625SOL    HW234018   3.367   0.601   2.421
 5626SOL     OW34019   4.345   3.217   0.502
 5626SOL    HW134020   4.299   3.247   0.423
 5626SOL    HW234021   4.370   3.127   0.482
 5627SOL     OW34022   2.851   3.599   6.681
 5627SOL    HW134023   2.808   3.598   6.595
 5627SOL    HW234024   2.779   3.596   6.744
 5628SOL     OW34025   5.102   4.165   1.432
 5628SOL    HW134026   5.017   4.191   1.397
 5628SOL    HW234027   5.081   4.099   1.499
 5629SOL     OW34028   5.892   4.056   5.694
 5629SOL    HW134029   5.820   4.099   5.739
 5629SOL    HW234030   5.851   4.007   5.623
 5630SOL     OW34031   3.865   1.383   0.353
 5630SOL    HW134032   3.841   1.424   0.271
 5630SOL    HW234033   3.829   1.441   0.421
 5631SOL     OW34034   3.776   1.137   0.282
 5631SOL    HW134035   3.824   1.112   0.204
 5631SOL    HW234036   3.804   1.227   0.300
 5632SOL     OW34037   5.612   1.204   1.111
 5632SOL    HW134038   5.584   1.288   1.074
 5632SOL    HW234039   5.549   1.186   1.181
 5633SOL     OW34040   6.049   4.750   1.362
 5633SOL    HW134041   6.117   4.814   1.382
 5633SOL    HW234042   5.968   4.800   1.366
 5634SOL     OW34043   1.288   5.121   7.484
 5634SOL    HW134044   1.379   5.126   7.513
 5634SOL    HW234045   1.292   5.139   7.390
 5635SOL     OW34046   3.650   4.525   6.695
 5635SOL    HW134047   3.650   4.499   6.603
 5635SOL    HW234048   3.652   4.443   6.744
 5636SOL     OW34049   2.483   6.038   1.217
 5636SOL    HW134050   2.396   6.023   1.181
 5636SOL    HW234051   2.468   6.073   1.304
 5637SOL     OW34052   5.503   5.626   1.610
 5637SOL    HW134053   5.531   5.552   1.663
 5637SOL    HW234054   5.478   5.587   1.526
 5638SOL     OW34055   2.926   1.794   0.677
 5638SOL    HW134056   2.851   1.807   0.734
 5638SOL    HW234057   2.890   1.797   0.589
 5639SOL     OW34058   4.201   0.879   2.136
 5639SOL    HW134059   4.128   0.836   2.091
 5639SOL    HW234060   4.160   0.945   2.192
 5640SOL     OW34061   0.864   6.356   1.677
 5640SOL    HW134062   0.878   6.275   1.727
 5640SOL    HW234063   0.804   6.407   1.731
 5641SOL     OW34064   0.425   2.911   1.466
 5641SOL    HW134065   0.379   2.994   1.457
 5641SOL    HW234066   0.368   2.857   1.521
 5642SOL     OW34067   5.673   2.061   7.204
 5642SOL    HW134068   5.660   2.094   7.293
 5642SOL    HW234069   5.742   2.117   7.167
 5643SOL     OW34070   1.274   4.240   1.702
 5643SOL    HW134071   1.334   4.183   1.653
 5643SOL    HW234072   1.192   4.236   1.652
 5644SOL     OW34073   2.180   3.747   1.385
 5644SOL    HW134074   2.276   3.744   1.382
 5644SOL    HW234075   2.160   3.819   1.445
 5645SOL     OW34076   5.969   4.083   0.147
 5645SOL    HW134077   5.962   3.987   0.148
 5645SOL    HW234078   5.885   4.113   0.113
 5646SOL     OW34079   0.425   5.017   1.468
 5646SOL    HW134080   0.360   5.036   1.401
 5646SOL    HW234081   0.499   4.981   1.419
 5647SOL     OW34082   1.441   1.951   7.296
 5647SOL    HW134083   1.491   2.000   7.362
 5647SOL    HW234084   1.362   2.004   7.282
 5648SOL     OW34085   3.700   2.021   2.893
 5648SOL    HW134086   3.789   2.001   2.924
 5648SOL    HW234087   3.706   2.014   2.798
 5649SOL     OW34088   0.067   2.454   6.863
 5649SOL    HW134089   0.003   2.391   6.831
 5649SOL    HW234090   0.140   2.448   6.802
 5650SOL     OW34091   3.152   5.301   6.500
 5650SOL    HW134092   3.125   5.225   6.550
 5650SOL    HW234093   3.117   5.287   6.412
 5651SOL     OW34094   3.671   2.890   7.308
 5651SOL    HW134095   3.653   2.973   7.352
 5651SOL    HW234096   3.603   2.831   7.341
 5652SOL     OW34097   2.214   1.193   0.396
 5652SOL    HW134098   2.130   1.231   0.423
 5652SOL    HW234099   2.279   1.259   0.421
 5653SOL     OW34100   4.864   1.467   1.923
 5653SOL    HW134101   4.896   1.459   2.013
 5653SOL    HW234102   4.944   1.479   1.871
 5654SOL     OW34103   3.787   2.397   1.839
 5654SOL    HW134104   3.770   2.329   1.773
 5654SOL    HW234105   3.871   2.435   1.812
 5655SOL     OW34106   4.310   3.356   6.103
 5655SOL    HW134107   4.361   3.437   6.105
 5655SOL    HW234108   4.249   3.367   6.030
 5656MOL     C134109   4.079   2.988   6.675
 5656MOL     C234110   4.043   3.124   6.719
 5656MOL     N134111   4.129   2.914   6.903
 5656MOL     N234112   3.980   3.152   6.827
 5656MOL     C334113   4.037   2.972   6.988
 5656MOL     C434114   3.926   3.051   6.920
 5656MOL     H134115   3.860   2.987   6.861
 5656MOL     H234116   3.865   3.107   6.991
 5656MOL     C534117   4.176   2.773   6.708
 5656MOL     C634118   4.169   2.744   6.571
 5656MOL     C734119   4.126   2.891   6.764
 5656MOL     C834120   4.114   2.839   6.485
 5656MOL     C934121   4.071   2.962   6.537
 5656MOL     H334122   4.207   2.648   6.537
 5656MOL     H434123   4.050   3.045   6.470
 5656MOL     H534124   4.214   2.702   6.781
 5656MOL     O134125   4.056   2.961   7.108
 5656MOL    C1034126   4.087   3.230   6.626
 5656MOL    C1134127   4.224   3.252   6.613
 5656MOL     N334128   3.999   3.318   6.576
 5656MOL    C1234129   4.275   3.352   6.529
 5656MOL    C1334130   4.045   3.416   6.497
 5656MOL    C1434131   4.181   3.434   6.467
 5656MOL     H634132   4.297   3.182   6.654
 5656MOL     H734133   4.382   3.357   6.517
 5656MOL     H834134   3.963   3.479   6.462
 5656MOL     H934135   4.217   3.524   6.418
 5656MOL    H1034136   4.202   2.863   6.951
 5656MOL    BR134137   4.100   2.798   6.299
 5656MOL     EP34138   4.086   2.755   6.103
   6.46009   6.46009   7.74632
